Title t= 386.00000 step= 193000
44469
    1GLY      N    1   6.298   5.485   4.060
    1GLY    HT1    2   6.392   5.529   4.057
    1GLY    HT2    3   6.321   5.392   4.100
    1GLY    HT3    4   6.249   5.528   4.141
    1GLY     CA    5   6.230   5.479   3.927
    1GLY    HA1    6   6.138   5.424   3.939
    1GLY    HA2    7   6.295   5.437   3.852
    1GLY      C    8   6.186   5.609   3.866
    1GLY      O    9   6.068   5.635   3.878
    2PRO      N   10   6.265   5.698   3.797
    2PRO     CD   11   6.409   5.706   3.814
    2PRO    HD1   12   6.458   5.630   3.750
    2PRO    HD2   13   6.431   5.681   3.919
    2PRO     CA   14   6.212   5.820   3.736
    2PRO     HA   15   6.168   5.875   3.817
    2PRO     CB   16   6.331   5.898   3.682
    2PRO    HB1   17   6.322   6.008   3.696
    2PRO    HB2   18   6.346   5.885   3.573
    2PRO     CG   19   6.451   5.859   3.779
    2PRO    HG1   20   6.550   5.847   3.729
    2PRO    HG2   21   6.462   5.925   3.867
    2PRO      C   22   6.112   5.803   3.626
    2PRO      O   23   6.043   5.897   3.578
    3GLY      N   24   6.101   5.683   3.567
    3GLY     HN   25   6.183   5.628   3.582
    3GLY     CA   26   5.999   5.634   3.470
    3GLY    HA1   27   6.037   5.538   3.438
    3GLY    HA2   28   5.995   5.701   3.386
    3GLY      C   29   5.860   5.607   3.519
    3GLY      O   30   5.766   5.599   3.438
    4ASN      N   31   5.842   5.609   3.654
    4ASN     HN   32   5.922   5.622   3.714
    4ASN     CA   33   5.710   5.601   3.719
    4ASN     HA   34   5.644   5.544   3.654
    4ASN     CB   35   5.703   5.557   3.868
    4ASN    HB1   36   5.597   5.557   3.900
    4ASN    HB2   37   5.771   5.627   3.923
    4ASN     CG   38   5.763   5.418   3.888
    4ASN    OD1   39   5.793   5.394   4.006
    4ASN    ND2   40   5.780   5.324   3.793
    4ASN   HD21   41   5.818   5.238   3.827
    4ASN   HD22   42   5.742   5.327   3.700
    4ASN      C   43   5.656   5.743   3.724
    4ASN      O   44   5.731   5.842   3.722
    5PRO      N   45   5.524   5.781   3.739
    5PRO     CD   46   5.415   5.695   3.686
    5PRO    HD1   47   5.375   5.630   3.767
    5PRO    HD2   48   5.448   5.638   3.597
    5PRO     CA   49   5.477   5.912   3.771
    5PRO     HA   50   5.519   5.971   3.691
    5PRO     CB   51   5.323   5.896   3.774
    5PRO    HB1   52   5.272   5.994   3.760
    5PRO    HB2   53   5.302   5.844   3.870
    5PRO     CG   54   5.300   5.797   3.659
    5PRO    HG1   55   5.200   5.752   3.677
    5PRO    HG2   56   5.311   5.839   3.557
    5PRO      C   57   5.539   5.966   3.897
    5PRO      O   58   5.576   5.889   3.986
    6GLY      N   59   5.560   6.097   3.904
    6GLY     HN   60   5.544   6.153   3.823
    6GLY     CA   61   5.615   6.171   4.023
    6GLY    HA1   62   5.628   6.273   3.991
    6GLY    HA2   63   5.708   6.119   4.042
    6GLY      C   64   5.515   6.154   4.145
    6GLY      O   65   5.405   6.100   4.128
    7PRO      N   66   5.553   6.193   4.271
    7PRO     CD   67   5.689   6.224   4.302
    7PRO    HD1   68   5.702   6.323   4.253
    7PRO    HD2   69   5.755   6.150   4.254
    7PRO     CA   70   5.467   6.184   4.392
    7PRO     HA   71   5.461   6.079   4.416
    7PRO     CB   72   5.551   6.249   4.502
    7PRO    HB1   73   5.520   6.200   4.597
    7PRO    HB2   74   5.538   6.359   4.500
    7PRO     CG   75   5.697   6.219   4.454
    7PRO    HG1   76   5.766   6.297   4.495
    7PRO    HG2   77   5.726   6.116   4.484
    7PRO      C   78   5.325   6.232   4.373
    7PRO      O   79   5.311   6.338   4.316
    8GLY      N   80   5.222   6.166   4.429
    8GLY     HN   81   5.240   6.088   4.488
    8GLY     CA   82   5.088   6.217   4.438
    8GLY    HA1   83   5.075   6.321   4.461
    8GLY    HA2   84   5.030   6.157   4.508
    8GLY      C   85   5.013   6.192   4.307
    8GLY      O   86   5.069   6.159   4.202
    9ASN      N   87   4.880   6.208   4.320
    9ASN     HN   88   4.842   6.240   4.406
    9ASN     CA   89   4.783   6.196   4.216
    9ASN     HA   90   4.836   6.222   4.126
    9ASN     CB   91   4.722   6.048   4.223
    9ASN    HB1   92   4.611   6.051   4.217
    9ASN    HB2   93   4.747   6.010   4.324
    9ASN     CG   94   4.786   5.949   4.125
    9ASN    OD1   95   4.869   5.870   4.163
    9ASN    ND2   96   4.730   5.953   4.005
    9ASN   HD21   97   4.757   5.878   3.945
    9ASN   HD22   98   4.638   5.993   3.997
    9ASN      C   99   4.672   6.304   4.238
    9ASN      O  100   4.639   6.325   4.354
   10PRO      N  101   4.614   6.367   4.134
   10PRO     CD  102   4.653   6.346   3.990
   10PRO    HD1  103   4.681   6.241   3.965
   10PRO    HD2  104   4.735   6.416   3.965
   10PRO     CA  105   4.496   6.459   4.145
   10PRO     HA  106   4.514   6.534   4.220
   10PRO     CB  107   4.479   6.518   4.000
   10PRO    HB1  108   4.547   6.605   3.985
   10PRO    HB2  109   4.377   6.554   3.977
   10PRO     CG  110   4.533   6.404   3.911
   10PRO    HG1  111   4.462   6.320   3.902
   10PRO    HG2  112   4.552   6.438   3.807
   10PRO      C  113   4.373   6.375   4.190
   10PRO      O  114   4.366   6.258   4.157
   11GLY      N  115   4.282   6.437   4.267
   11GLY     HN  116   4.297   6.532   4.292
   11GLY     CA  117   4.155   6.377   4.312
   11GLY    HA1  118   4.134   6.441   4.396
   11GLY    HA2  119   4.167   6.275   4.346
   11GLY      C  120   4.033   6.392   4.220
   11GLY      O  121   4.039   6.466   4.115
   12PRO      N  122   3.920   6.333   4.257
   12PRO     CD  123   3.905   6.270   4.391
   12PRO    HD1  124   3.922   6.337   4.478
   12PRO    HD2  125   3.970   6.180   4.404
   12PRO     CA  126   3.802   6.318   4.174
   12PRO     HA  127   3.844   6.296   4.077
   12PRO     CB  128   3.728   6.204   4.248
   12PRO    HB1  129   3.766   6.108   4.208
   12PRO    HB2  130   3.619   6.194   4.225
   12PRO     CG  131   3.759   6.220   4.400
   12PRO    HG1  132   3.696   6.302   4.443
   12PRO    HG2  133   3.743   6.124   4.454
   12PRO      C  134   3.719   6.445   4.174
   12PRO      O  135   3.627   6.456   4.096
   13GLY      N  136   3.744   6.541   4.266
   13GLY     HN  137   3.821   6.531   4.327
   13GLY     CA  138   3.677   6.669   4.271
   13GLY    HA1  139   3.643   6.688   4.171
   13GLY    HA2  140   3.753   6.742   4.290
   13GLY      C  141   3.563   6.681   4.373
   13GLY      O  142   3.517   6.594   4.446
   14ASN      N  143   3.527   6.803   4.396
   14ASN     HN  144   3.549   6.877   4.333
   14ASN     CA  145   3.457   6.848   4.512
   14ASN     HA  146   3.507   6.799   4.594
   14ASN     CB  147   3.477   7.003   4.541
   14ASN    HB1  148   3.585   7.030   4.547
   14ASN    HB2  149   3.434   7.037   4.638
   14ASN     CG  150   3.426   7.098   4.435
   14ASN    OD1  151   3.369   7.058   4.333
   14ASN    ND2  152   3.451   7.227   4.455
   14ASN   HD21  153   3.415   7.284   4.382
   14ASN   HD22  154   3.505   7.246   4.538
   14ASN      C  155   3.308   6.803   4.518
   14ASN      O  156   3.241   6.811   4.416
   15PRO      N  157   3.259   6.748   4.625
   15PRO     CD  158   3.340   6.677   4.722
   15PRO    HD1  159   3.371   6.747   4.802
   15PRO    HD2  160   3.430   6.632   4.673
   15PRO     CA  161   3.124   6.695   4.625
   15PRO     HA  162   3.115   6.628   4.540
   15PRO     CB  163   3.115   6.630   4.769
   15PRO    HB1  164   3.034   6.554   4.777
   15PRO    HB2  165   3.106   6.706   4.849
   15PRO     CG  166   3.254   6.573   4.790
   15PRO    HG1  167   3.279   6.566   4.898
   15PRO    HG2  168   3.275   6.470   4.754
   15PRO      C  169   3.014   6.808   4.621
   15PRO    OT1  170   2.901   6.800   4.564
   15PRO    OT2  171   3.039   6.918   4.679
   16LIT    LIT  172   2.096   6.629   2.596
   17LIT    LIT  173   5.956   1.646   1.283
   18LIT    LIT  174   0.258   7.599   0.078
   19LIT    LIT  175   1.307   5.677   4.915
   20LIT    LIT  176   2.207   1.286   5.016
   21LIT    LIT  177   2.852   5.911   6.101
   22LIT    LIT  178   5.030   7.504   4.041
   23LIT    LIT  179   3.804   1.217   5.146
   24LIT    LIT  180   4.182   5.769   1.120
   25LIT    LIT  181   5.912   5.945   4.933
   26LIT    LIT  182   6.057   6.974   1.744
   27LIT    LIT  183   1.404   2.585   0.104
   28LIT    LIT  184   0.463   3.876   6.201
   29LIT    LIT  185   1.719   4.343   6.688
   30LIT    LIT  186   4.654   1.905   5.349
   31LIT    LIT  187   0.565   2.213   1.284
   32LIT    LIT  188   6.121   2.557   3.268
   33LIT    LIT  189   0.265   5.065   3.858
   34LIT    LIT  190   0.134   0.486   3.251
   35LIT    LIT  191   7.264   5.187   3.106
   36LIT    LIT  192   5.990   3.656   1.183
   37LIT    LIT  193   3.366   1.272   6.561
   38LIT    LIT  194   2.767   0.889   2.908
   39LIT    LIT  195   4.254   5.730   5.644
   40LIT    LIT  196   5.718   1.481   6.041
   41LIT    LIT  197   0.479   6.015   6.246
   42LIT    LIT  198   0.598   2.487   2.642
   43LIT    LIT  199   2.929   7.015   4.555
   44LIT    LIT  200   3.164   3.362   3.510
   45LIT    LIT  201   1.545   2.487   4.298
   46LIT    LIT  202   3.441   0.458   0.121
   47LIT    LIT  203   5.448   4.421   4.754
   48LIT    LIT  204   5.557   2.357   0.541
   49LIT    LIT  205   0.946   3.343   3.294
   50LIT    LIT  206   3.242   4.787   0.765
   51LIT    LIT  207   3.676   1.565   2.111
   52LIT    LIT  208   4.564   4.963   1.414
   53LIT    LIT  209   2.559   0.645   0.874
   54LIT    LIT  210   6.807   0.005   2.129
   55LIT    LIT  211   8.199   4.528   0.157
   56LIT    LIT  212   3.860   6.567   6.189
   57LIT    LIT  213   7.597   5.004   3.744
   58CLA    CLA  214   3.091   1.681   2.406
   59CLA    CLA  215   5.949   0.008   1.981
   60CLA    CLA  216   0.735   0.181   3.362
   61CLA    CLA  217   5.017   4.435   4.620
   62CLA    CLA  218   5.519   7.240   1.185
   63CLA    CLA  219   7.580   6.257   3.196
   64CLA    CLA  220   1.649   6.255   4.997
   65CLA    CLA  221   2.696   0.426   5.524
   66CLA    CLA  222   7.950   7.337   0.682
   67CLA    CLA  223   8.023   4.205   3.344
   68CLA    CLA  224   0.950   6.264   3.052
   69CLA    CLA  225   4.676   4.873   2.613
   70CLA    CLA  226   3.604   0.831   6.025
   71CLA    CLA  227   6.916   4.667   4.366
   72CLA    CLA  228   5.200   3.343   1.863
   73CLA    CLA  229   0.310   3.034   2.555
   74CLA    CLA  230   1.327   2.398   4.318
   75CLA    CLA  231   2.033   3.721   5.459
   76CLA    CLA  232   3.618   2.152   3.325
   77CLA    CLA  233   6.642   4.450   4.691
   78CLA    CLA  234   0.564   0.575   5.071
   79CLA    CLA  235   6.060   0.883   3.932
   80CLA    CLA  236   1.058   4.939   3.631
   81CLA    CLA  237   4.947   2.281   1.068
   82CLA    CLA  238   0.586   1.451   3.326
   83CLA    CLA  239   4.673   5.859   1.724
   84CLA    CLA  240   2.634   6.400   2.031
   85CLA    CLA  241   8.179   2.069   1.283
   86CLA    CLA  242   6.079   0.651   4.636
   87CLA    CLA  243   7.936   1.558   2.834
   88CLA    CLA  244   3.778   5.000   4.568
   89CLA    CLA  245   6.663   4.300   2.462
   90CLA    CLA  246   3.528   0.023   6.432
   91CLA    CLA  247   3.405   1.223   1.508
   92CLA    CLA  248   1.827   4.131   6.635
   93CLA    CLA  249   6.426   5.656   0.756
   94CLA    CLA  250   2.986   4.689   4.001
   95CLA    CLA  251   2.382   5.437  -0.012
   96CLA    CLA  252   1.160   0.754   1.030
   97CLA    CLA  253   7.685   4.599   0.044
   98CLA    CLA  254   8.149   5.269   5.608
   99CLA    CLA  255   6.801   2.974   0.717
  100TIP3   OH2  256   4.532   0.414   4.525
  100TIP3    H1  257   4.512   0.391   4.434
  100TIP3    H2  258   4.460   0.472   4.551
  101TIP3   OH2  259   5.326   2.640   1.231
  101TIP3    H1  260   5.380   2.617   1.308
  101TIP3    H2  261   5.254   2.577   1.233
  102TIP3   OH2  262   4.586   1.821   1.635
  102TIP3    H1  263   4.594   1.862   1.549
  102TIP3    H2  264   4.493   1.832   1.659
  103TIP3   OH2  265   2.633   4.337   5.256
  103TIP3    H1  266   2.586   4.253   5.262
  103TIP3    H2  267   2.635   4.370   5.346
  104TIP3   OH2  268   1.129   3.623   0.364
  104TIP3    H1  269   1.072   3.547   0.355
  104TIP3    H2  270   1.140   3.655   0.274
  105TIP3   OH2  271   5.206   2.170   6.292
  105TIP3    H1  272   5.149   2.158   6.216
  105TIP3    H2  273   5.187   2.258   6.322
  106TIP3   OH2  274   3.934   5.670   3.064
  106TIP3    H1  275   3.872   5.709   3.126
  106TIP3    H2  276   3.880   5.615   3.007
  107TIP3   OH2  277   4.127   1.416   2.108
  107TIP3    H1  278   4.124   1.424   2.203
  107TIP3    H2  279   4.213   1.452   2.084
  108TIP3   OH2  280   6.895   1.783   4.791
  108TIP3    H1  281   6.876   1.779   4.697
  108TIP3    H2  282   6.810   1.779   4.833
  109TIP3   OH2  283   6.535   5.016   1.866
  109TIP3    H1  284   6.585   5.045   1.941
  109TIP3    H2  285   6.593   4.956   1.819
  110TIP3   OH2  286   3.420   0.629   2.138
  110TIP3    H1  287   3.503   0.587   2.116
  110TIP3    H2  288   3.411   0.616   2.232
  111TIP3   OH2  289   0.118   0.272   4.498
  111TIP3    H1  290   0.183   0.270   4.568
  111TIP3    H2  291   0.034   0.272   4.543
  112TIP3   OH2  292   7.760   3.829   2.832
  112TIP3    H1  293   7.820   3.885   2.881
  112TIP3    H2  294   7.738   3.880   2.754
  113TIP3   OH2  295   7.321   2.629   5.371
  113TIP3    H1  296   7.354   2.713   5.338
  113TIP3    H2  297   7.377   2.564   5.329
  114TIP3   OH2  298   4.258   4.093   0.610
  114TIP3    H1  299   4.306   4.170   0.581
  114TIP3    H2  300   4.314   4.019   0.584
  115TIP3   OH2  301   3.180   4.649   1.587
  115TIP3    H1  302   3.183   4.685   1.676
  115TIP3    H2  303   3.271   4.622   1.569
  116TIP3   OH2  304   6.432   2.881   3.344
  116TIP3    H1  305   6.392   2.955   3.298
  116TIP3    H2  306   6.430   2.906   3.436
  117TIP3   OH2  307   6.777   4.920   5.171
  117TIP3    H1  308   6.723   4.897   5.096
  117TIP3    H2  309   6.789   5.015   5.164
  118TIP3   OH2  310   1.782   1.412   3.247
  118TIP3    H1  311   1.717   1.363   3.296
  118TIP3    H2  312   1.792   1.363   3.165
  119TIP3   OH2  313   5.827   7.734   0.333
  119TIP3    H1  314   5.766   7.794   0.289
  119TIP3    H2  315   5.796   7.647   0.311
  120TIP3   OH2  316   2.924   6.325   0.895
  120TIP3    H1  317   2.867   6.251   0.916
  120TIP3    H2  318   2.921   6.380   0.973
  121TIP3   OH2  319   1.494   5.344   2.282
  121TIP3    H1  320   1.569   5.391   2.318
  121TIP3    H2  321   1.442   5.412   2.239
  122TIP3   OH2  322   8.090   2.990   1.602
  122TIP3    H1  323   8.051   3.016   1.518
  122TIP3    H2  324   8.024   2.934   1.643
  123TIP3   OH2  325   3.949   5.974   2.277
  123TIP3    H1  326   3.876   6.035   2.268
  123TIP3    H2  327   3.925   5.899   2.222
  124TIP3   OH2  328   3.332   6.287   2.756
  124TIP3    H1  329   3.275   6.352   2.714
  124TIP3    H2  330   3.354   6.326   2.841
  125TIP3   OH2  331   4.798   7.615   3.198
  125TIP3    H1  332   4.806   7.667   3.277
  125TIP3    H2  333   4.844   7.533   3.218
  126TIP3   OH2  334   4.176   7.162   2.681
  126TIP3    H1  335   4.257   7.147   2.729
  126TIP3    H2  336   4.166   7.085   2.625
  127TIP3   OH2  337   7.183   6.333   1.186
  127TIP3    H1  338   7.120   6.281   1.235
  127TIP3    H2  339   7.241   6.370   1.252
  128TIP3   OH2  340   7.797   1.138   6.359
  128TIP3    H1  341   7.781   1.183   6.442
  128TIP3    H2  342   7.804   1.208   6.294
  129TIP3   OH2  343   4.667   5.776   2.465
  129TIP3    H1  344   4.589   5.783   2.521
  129TIP3    H2  345   4.663   5.853   2.409
  130TIP3   OH2  346   6.582   7.718   1.744
  130TIP3    H1  347   6.663   7.725   1.795
  130TIP3    H2  348   6.579   7.626   1.717
  131TIP3   OH2  349   0.421   1.815   4.156
  131TIP3    H1  350   0.401   1.868   4.079
  131TIP3    H2  351   0.509   1.841   4.182
  132TIP3   OH2  352   0.248   3.059   3.590
  132TIP3    H1  353   0.316   3.030   3.651
  132TIP3    H2  354   0.168   3.058   3.642
  133TIP3   OH2  355   1.449   2.950   1.528
  133TIP3    H1  356   1.492   3.013   1.585
  133TIP3    H2  357   1.520   2.904   1.483
  134TIP3   OH2  358   1.674   7.240   5.493
  134TIP3    H1  359   1.736   7.171   5.473
  134TIP3    H2  360   1.589   7.204   5.467
  135TIP3   OH2  361   5.323   2.264   4.161
  135TIP3    H1  362   5.261   2.251   4.233
  135TIP3    H2  363   5.334   2.178   4.122
  136TIP3   OH2  364   4.569   6.179   0.899
  136TIP3    H1  365   4.653   6.136   0.913
  136TIP3    H2  366   4.564   6.189   0.804
  137TIP3   OH2  367   3.499   6.372   3.307
  137TIP3    H1  368   3.584   6.415   3.297
  137TIP3    H2  369   3.491   6.355   3.401
  138TIP3   OH2  370   3.793   3.461   0.914
  138TIP3    H1  371   3.746   3.535   0.953
  138TIP3    H2  372   3.756   3.384   0.958
  139TIP3   OH2  373   0.432   1.035   3.920
  139TIP3    H1  374   0.470   1.095   3.856
  139TIP3    H2  375   0.455   1.071   4.005
  140TIP3   OH2  376   8.110   5.750   4.138
  140TIP3    H1  377   8.070   5.675   4.095
  140TIP3    H2  378   8.121   5.723   4.229
  141TIP3   OH2  379   7.292   1.345   4.962
  141TIP3    H1  380   7.328   1.345   4.873
  141TIP3    H2  381   7.348   1.406   5.011
  142TIP3   OH2  382   4.711   2.144   0.924
  142TIP3    H1  383   4.789   2.171   0.973
  142TIP3    H2  384   4.665   2.085   0.983
  143TIP3   OH2  385   0.512   5.461   4.421
  143TIP3    H1  386   0.457   5.495   4.492
  143TIP3    H2  387   0.575   5.404   4.465
  144TIP3   OH2  388   2.519   2.913   0.309
  144TIP3    H1  389   2.504   2.894   0.217
  144TIP3    H2  390   2.451   2.864   0.355
  145TIP3   OH2  391   4.537   2.194   3.887
  145TIP3    H1  392   4.469   2.138   3.923
  145TIP3    H2  393   4.492   2.252   3.826
  146TIP3   OH2  394   2.970   5.851   0.093
  146TIP3    H1  395   2.996   5.759   0.090
  146TIP3    H2  396   3.049   5.899   0.066
  147TIP3   OH2  397   3.075   7.564   0.244
  147TIP3    H1  398   3.106   7.498   0.183
  147TIP3    H2  399   3.125   7.643   0.222
  148TIP3   OH2  400   5.457   0.323   3.576
  148TIP3    H1  401   5.379   0.298   3.626
  148TIP3    H2  402   5.526   0.265   3.609
  149TIP3   OH2  403   2.720   2.709   4.703
  149TIP3    H1  404   2.761   2.645   4.645
  149TIP3    H2  405   2.648   2.662   4.745
  150TIP3   OH2  406   1.793   6.995   1.441
  150TIP3    H1  407   1.720   7.047   1.408
  150TIP3    H2  408   1.763   6.905   1.432
  151TIP3   OH2  409   2.850   6.055   1.751
  151TIP3    H1  410   2.831   6.075   1.843
  151TIP3    H2  411   2.915   6.120   1.725
  152TIP3   OH2  412   4.461   0.333   1.219
  152TIP3    H1  413   4.522   0.264   1.246
  152TIP3    H2  414   4.389   0.327   1.282
  153TIP3   OH2  415   2.920   7.715   4.811
  153TIP3    H1  416   2.834   7.751   4.831
  153TIP3    H2  417   2.955   7.688   4.896
  154TIP3   OH2  418   6.873   7.327   2.630
  154TIP3    H1  419   6.790   7.283   2.646
  154TIP3    H2  420   6.849   7.419   2.617
  155TIP3   OH2  421   1.938   2.854   2.543
  155TIP3    H1  422   1.967   2.917   2.609
  155TIP3    H2  423   1.997   2.867   2.469
  156TIP3   OH2  424   0.442   4.370   3.198
  156TIP3    H1  425   0.379   4.425   3.152
  156TIP3    H2  426   0.416   4.280   3.177
  157TIP3   OH2  427   0.140   1.571   1.267
  157TIP3    H1  428   0.222   1.545   1.224
  157TIP3    H2  429   0.083   1.599   1.195
  158TIP3   OH2  430   8.205   1.411   5.475
  158TIP3    H1  431   8.157   1.445   5.550
  158TIP3    H2  432   8.297   1.430   5.494
  159TIP3   OH2  433   1.761   2.270   6.155
  159TIP3    H1  434   1.711   2.274   6.073
  159TIP3    H2  435   1.850   2.250   6.128
  160TIP3   OH2  436   3.806   3.581   0.632
  160TIP3    H1  437   3.806   3.532   0.714
  160TIP3    H2  438   3.757   3.525   0.572
  161TIP3   OH2  439   4.418   4.772   4.204
  161TIP3    H1  440   4.494   4.810   4.160
  161TIP3    H2  441   4.390   4.840   4.266
  162TIP3   OH2  442   0.793   6.248   3.527
  162TIP3    H1  443   0.835   6.208   3.451
  162TIP3    H2  444   0.775   6.338   3.501
  163TIP3   OH2  445   1.728   0.178   5.631
  163TIP3    H1  446   1.814   0.191   5.589
  163TIP3    H2  447   1.717   0.083   5.633
  164TIP3   OH2  448   1.550   4.445   0.678
  164TIP3    H1  449   1.590   4.361   0.702
  164TIP3    H2  450   1.470   4.450   0.731
  165TIP3   OH2  451   2.407   3.586   4.575
  165TIP3    H1  452   2.365   3.520   4.520
  165TIP3    H2  453   2.374   3.669   4.544
  166TIP3   OH2  454   4.201   3.186   4.078
  166TIP3    H1  455   4.278   3.207   4.131
  166TIP3    H2  456   4.127   3.224   4.127
  167TIP3   OH2  457   1.088   1.182   6.683
  167TIP3    H1  458   1.057   1.111   6.739
  167TIP3    H2  459   1.009   1.233   6.663
  168TIP3   OH2  460   6.341   2.504   4.211
  168TIP3    H1  461   6.370   2.591   4.240
  168TIP3    H2  462   6.307   2.519   4.122
  169TIP3   OH2  463   6.504   6.443   0.324
  169TIP3    H1  464   6.543   6.356   0.317
  169TIP3    H2  465   6.467   6.460   0.237
  170TIP3   OH2  466   4.147   3.243   0.315
  170TIP3    H1  467   4.113   3.326   0.348
  170TIP3    H2  468   4.225   3.267   0.265
  171TIP3   OH2  469   2.686   3.873   2.571
  171TIP3    H1  470   2.638   3.951   2.599
  171TIP3    H2  471   2.626   3.800   2.587
  172TIP3   OH2  472   3.126   0.689   4.839
  172TIP3    H1  473   3.105   0.664   4.929
  172TIP3    H2  474   3.216   0.721   4.843
  173TIP3   OH2  475   7.831   3.589   1.783
  173TIP3    H1  476   7.780   3.539   1.848
  173TIP3    H2  477   7.825   3.680   1.813
  174TIP3   OH2  478   6.664   7.320   4.254
  174TIP3    H1  479   6.642   7.390   4.314
  174TIP3    H2  480   6.580   7.282   4.228
  175TIP3   OH2  481   2.473   2.099   3.538
  175TIP3    H1  482   2.392   2.073   3.583
  175TIP3    H2  483   2.543   2.075   3.600
  176TIP3   OH2  484   1.151   0.519   5.802
  176TIP3    H1  485   1.164   0.428   5.827
  176TIP3    H2  486   1.206   0.569   5.863
  177TIP3   OH2  487   5.868   5.893   1.541
  177TIP3    H1  488   5.948   5.844   1.556
  177TIP3    H2  489   5.870   5.963   1.606
  178TIP3   OH2  490   0.540   6.568   3.644
  178TIP3    H1  491   0.617   6.574   3.588
  178TIP3    H2  492   0.552   6.486   3.692
  179TIP3   OH2  493   1.962   7.248   3.399
  179TIP3    H1  494   1.898   7.179   3.418
  179TIP3    H2  495   2.007   7.262   3.482
  180TIP3   OH2  496   2.667   6.944   6.258
  180TIP3    H1  497   2.745   6.889   6.265
  180TIP3    H2  498   2.666   6.994   6.340
  181TIP3   OH2  499   1.643   7.725   4.355
  181TIP3    H1  500   1.627   7.719   4.261
  181TIP3    H2  501   1.580   7.665   4.394
  182TIP3   OH2  502   3.178   6.196   1.238
  182TIP3    H1  503   3.209   6.129   1.177
  182TIP3    H2  504   3.246   6.202   1.305
  183TIP3   OH2  505   5.447   0.320   3.293
  183TIP3    H1  506   5.458   0.321   3.388
  183TIP3    H2  507   5.352   0.311   3.280
  184TIP3   OH2  508   3.933   5.079   1.999
  184TIP3    H1  509   3.872   5.142   1.960
  184TIP3    H2  510   3.893   5.056   2.083
  185TIP3   OH2  511   1.095   2.684   0.342
  185TIP3    H1  512   1.124   2.599   0.373
  185TIP3    H2  513   1.028   2.665   0.276
  186TIP3   OH2  514   3.048   4.583   1.259
  186TIP3    H1  515   3.026   4.543   1.343
  186TIP3    H2  516   3.042   4.677   1.274
  187TIP3   OH2  517   2.996   7.686   4.090
  187TIP3    H1  518   3.012   7.778   4.070
  187TIP3    H2  519   3.046   7.638   4.024
  188TIP3   OH2  520   5.780   4.481   1.874
  188TIP3    H1  521   5.804   4.405   1.821
  188TIP3    H2  522   5.766   4.551   1.810
  189TIP3   OH2  523   2.777   5.660   2.501
  189TIP3    H1  524   2.727   5.740   2.489
  189TIP3    H2  525   2.721   5.591   2.464
  190TIP3   OH2  526   2.249   4.110   4.704
  190TIP3    H1  527   2.187   4.070   4.644
  190TIP3    H2  528   2.296   4.036   4.743
  191TIP3   OH2  529   4.277   6.228   1.627
  191TIP3    H1  530   4.326   6.150   1.655
  191TIP3    H2  531   4.192   6.193   1.601
  192TIP3   OH2  532   3.155   3.044   0.239
  192TIP3    H1  533   3.083   3.088   0.285
  192TIP3    H2  534   3.227   3.106   0.242
  193TIP3   OH2  535   6.888   5.385   1.673
  193TIP3    H1  536   6.818   5.322   1.692
  193TIP3    H2  537   6.844   5.470   1.674
  194TIP3   OH2  538   2.393   0.961   5.974
  194TIP3    H1  539   2.377   0.893   5.909
  194TIP3    H2  540   2.346   0.932   6.052
  195TIP3   OH2  541   4.755   3.935   0.209
  195TIP3    H1  542   4.805   3.960   0.131
  195TIP3    H2  543   4.743   4.018   0.256
  196TIP3   OH2  544   6.544   5.955   3.038
  196TIP3    H1  545   6.541   6.036   2.987
  196TIP3    H2  546   6.632   5.955   3.076
  197TIP3   OH2  547   6.555   3.498   5.870
  197TIP3    H1  548   6.597   3.476   5.787
  197TIP3    H2  549   6.625   3.532   5.925
  198TIP3   OH2  550   6.536   6.195   2.862
  198TIP3    H1  551   6.519   6.260   2.930
  198TIP3    H2  552   6.519   6.240   2.780
  199TIP3   OH2  553   8.228   1.673   5.741
  199TIP3    H1  554   8.221   1.723   5.822
  199TIP3    H2  555   8.289   1.602   5.762
  200TIP3   OH2  556   7.761   1.355   3.508
  200TIP3    H1  557   7.692   1.339   3.574
  200TIP3    H2  558   7.842   1.355   3.559
  201TIP3   OH2  559   4.410   4.127   5.768
  201TIP3    H1  560   4.344   4.197   5.773
  201TIP3    H2  561   4.361   4.050   5.738
  202TIP3   OH2  562   4.235   4.367   2.234
  202TIP3    H1  563   4.240   4.425   2.310
  202TIP3    H2  564   4.293   4.407   2.169
  203TIP3   OH2  565   5.361   7.216   0.100
  203TIP3    H1  566   5.356   7.152   0.028
  203TIP3    H2  567   5.426   7.179   0.160
  204TIP3   OH2  568   3.581   6.897   1.230
  204TIP3    H1  569   3.568   6.832   1.160
  204TIP3    H2  570   3.500   6.894   1.280
  205TIP3   OH2  571   6.839   3.081   5.879
  205TIP3    H1  572   6.863   2.993   5.909
  205TIP3    H2  573   6.846   3.077   5.784
  206TIP3   OH2  574   0.039   0.161   5.268
  206TIP3    H1  575   0.104   0.231   5.271
  206TIP3    H2  576   0.080   0.089   5.317
  207TIP3   OH2  577   8.244   3.978   5.035
  207TIP3    H1  578   8.176   4.045   5.037
  207TIP3    H2  579   8.303   3.999   5.107
  208TIP3   OH2  580   4.510   3.270   1.111
  208TIP3    H1  581   4.521   3.307   1.198
  208TIP3    H2  582   4.447   3.328   1.068
  209TIP3   OH2  583   1.760   2.655   6.457
  209TIP3    H1  584   1.850   2.647   6.488
  209TIP3    H2  585   1.756   2.742   6.416
  210TIP3   OH2  586   1.154   6.727   5.755
  210TIP3    H1  587   1.243   6.699   5.779
  210TIP3    H2  588   1.102   6.712   5.834
  211TIP3   OH2  589   1.903   7.395   5.720
  211TIP3    H1  590   1.860   7.448   5.653
  211TIP3    H2  591   1.890   7.444   5.801
  212TIP3   OH2  592   4.406   0.062   4.047
  212TIP3    H1  593   4.413   0.132   4.112
  212TIP3    H2  594   4.313   0.060   4.023
  213TIP3   OH2  595   5.261   0.340   1.486
  213TIP3    H1  596   5.333   0.350   1.423
  213TIP3    H2  597   5.190   0.393   1.449
  214TIP3   OH2  598   7.442   0.677   0.337
  214TIP3    H1  599   7.417   0.585   0.331
  214TIP3    H2  600   7.491   0.694   0.256
  215TIP3   OH2  601   6.316   3.623   2.126
  215TIP3    H1  602   6.354   3.545   2.087
  215TIP3    H2  603   6.334   3.693   2.064
  216TIP3   OH2  604   6.023   7.524   3.193
  216TIP3    H1  605   6.081   7.569   3.132
  216TIP3    H2  606   6.081   7.475   3.252
  217TIP3   OH2  607   5.916   5.557   2.796
  217TIP3    H1  608   5.929   5.532   2.705
  217TIP3    H2  609   5.831   5.600   2.796
  218TIP3   OH2  610   5.015   1.358   3.207
  218TIP3    H1  611   5.041   1.294   3.274
  218TIP3    H2  612   4.963   1.308   3.145
  219TIP3   OH2  613   3.374   0.734   4.725
  219TIP3    H1  614   3.426   0.657   4.700
  219TIP3    H2  615   3.438   0.799   4.752
  220TIP3   OH2  616   1.018   1.565   6.244
  220TIP3    H1  617   1.022   1.650   6.201
  220TIP3    H2  618   0.944   1.520   6.202
  221TIP3   OH2  619   3.383   1.477   3.446
  221TIP3    H1  620   3.408   1.453   3.357
  221TIP3    H2  621   3.441   1.425   3.503
  222TIP3   OH2  622   3.528   3.899   1.348
  222TIP3    H1  623   3.533   3.946   1.432
  222TIP3    H2  624   3.465   3.829   1.364
  223TIP3   OH2  625   7.842   7.630   5.935
  223TIP3    H1  626   7.831   7.548   5.984
  223TIP3    H2  627   7.931   7.658   5.955
  224TIP3   OH2  628   1.581   2.611   4.902
  224TIP3    H1  629   1.559   2.634   4.992
  224TIP3    H2  630   1.531   2.672   4.849
  225TIP3   OH2  631   2.891   2.285   1.274
  225TIP3    H1  632   2.922   2.349   1.339
  225TIP3    H2  633   2.798   2.303   1.266
  226TIP3   OH2  634   4.073   2.150   0.742
  226TIP3    H1  635   4.075   2.168   0.835
  226TIP3    H2  636   4.080   2.235   0.700
  227TIP3   OH2  637   3.523   1.934   2.227
  227TIP3    H1  638   3.578   1.966   2.299
  227TIP3    H2  639   3.452   1.888   2.271
  228TIP3   OH2  640   6.065   3.217   4.482
  228TIP3    H1  641   6.078   3.312   4.475
  228TIP3    H2  642   6.052   3.202   4.575
  229TIP3   OH2  643   5.307   3.278   5.317
  229TIP3    H1  644   5.387   3.314   5.278
  229TIP3    H2  645   5.300   3.190   5.282
  230TIP3   OH2  646   3.233   2.940   6.161
  230TIP3    H1  647   3.244   2.862   6.107
  230TIP3    H2  648   3.147   2.928   6.201
  231TIP3   OH2  649   4.172   7.598   3.803
  231TIP3    H1  650   4.095   7.637   3.844
  231TIP3    H2  651   4.188   7.651   3.725
  232TIP3   OH2  652   7.449   7.214   5.523
  232TIP3    H1  653   7.361   7.250   5.533
  232TIP3    H2  654   7.448   7.174   5.437
  233TIP3   OH2  655   2.169   0.334   0.756
  233TIP3    H1  656   2.230   0.380   0.814
  233TIP3    H2  657   2.087   0.332   0.805
  234TIP3   OH2  658   3.461   2.684   2.873
  234TIP3    H1  659   3.524   2.734   2.924
  234TIP3    H2  660   3.375   2.719   2.898
  235TIP3   OH2  661   7.450   3.586   4.133
  235TIP3    H1  662   7.511   3.624   4.070
  235TIP3    H2  663   7.421   3.504   4.094
  236TIP3   OH2  664   6.605   6.701   2.423
  236TIP3    H1  665   6.661   6.743   2.358
  236TIP3    H2  666   6.532   6.666   2.373
  237TIP3   OH2  667   1.026   7.656   0.746
  237TIP3    H1  668   1.114   7.689   0.730
  237TIP3    H2  669   1.031   7.614   0.831
  238TIP3   OH2  670   1.537   0.486   2.135
  238TIP3    H1  671   1.562   0.416   2.074
  238TIP3    H2  672   1.620   0.511   2.177
  239TIP3   OH2  673   2.317   4.114   5.959
  239TIP3    H1  674   2.301   4.058   5.883
  239TIP3    H2  675   2.294   4.059   6.034
  240TIP3   OH2  676   1.277   4.493   1.719
  240TIP3    H1  677   1.318   4.428   1.776
  240TIP3    H2  678   1.332   4.495   1.640
  241TIP3   OH2  679   1.534   7.790   4.770
  241TIP3    H1  680   1.589   7.868   4.766
  241TIP3    H2  681   1.493   7.785   4.683
  242TIP3   OH2  682   2.971   0.480   0.972
  242TIP3    H1  683   3.060   0.447   0.963
  242TIP3    H2  684   2.978   0.551   1.035
  243TIP3   OH2  685   6.626   1.325   0.360
  243TIP3    H1  686   6.567   1.257   0.328
  243TIP3    H2  687   6.602   1.336   0.452
  244TIP3   OH2  688   3.459   4.594   2.595
  244TIP3    H1  689   3.400   4.569   2.666
  244TIP3    H2  690   3.533   4.533   2.603
  245TIP3   OH2  691   2.599   6.655   2.898
  245TIP3    H1  692   2.677   6.686   2.945
  245TIP3    H2  693   2.586   6.566   2.928
  246TIP3   OH2  694   2.840   0.945   0.933
  246TIP3    H1  695   2.835   0.969   0.841
  246TIP3    H2  696   2.931   0.961   0.957
  247TIP3   OH2  697   7.157   0.473   5.660
  247TIP3    H1  698   7.100   0.453   5.734
  247TIP3    H2  699   7.246   0.464   5.695
  248TIP3   OH2  700   0.751   5.234   6.330
  248TIP3    H1  701   0.805   5.163   6.294
  248TIP3    H2  702   0.806   5.276   6.396
  249TIP3   OH2  703   7.721   5.760   0.536
  249TIP3    H1  704   7.660   5.723   0.599
  249TIP3    H2  705   7.807   5.725   0.562
  250TIP3   OH2  706   1.437   4.364   1.121
  250TIP3    H1  707   1.461   4.457   1.124
  250TIP3    H2  708   1.342   4.364   1.110
  251TIP3   OH2  709   2.935   0.684   1.822
  251TIP3    H1  710   2.851   0.717   1.853
  251TIP3    H2  711   2.936   0.704   1.729
  252TIP3   OH2  712   3.115   6.457   6.070
  252TIP3    H1  713   3.095   6.368   6.040
  252TIP3    H2  714   3.109   6.511   5.991
  253TIP3   OH2  715   1.454   1.115   2.038
  253TIP3    H1  716   1.434   1.151   2.124
  253TIP3    H2  717   1.370   1.091   2.001
  254TIP3   OH2  718   1.157   6.166   4.400
  254TIP3    H1  719   1.124   6.118   4.325
  254TIP3    H2  720   1.086   6.225   4.424
  255TIP3   OH2  721   7.273   7.301   1.454
  255TIP3    H1  722   7.184   7.284   1.424
  255TIP3    H2  723   7.286   7.238   1.526
  256TIP3   OH2  724   7.550   0.595   1.577
  256TIP3    H1  725   7.523   0.504   1.585
  256TIP3    H2  726   7.635   0.592   1.533
  257TIP3   OH2  727   0.439   2.779   0.659
  257TIP3    H1  728   0.390   2.723   0.598
  257TIP3    H2  729   0.518   2.730   0.678
  258TIP3   OH2  730   0.054   4.082   3.028
  258TIP3    H1  731   0.150   4.089   3.023
  258TIP3    H2  732   0.029   4.043   2.944
  259TIP3   OH2  733   6.628   3.592   0.736
  259TIP3    H1  734   6.573   3.657   0.779
  259TIP3    H2  735   6.711   3.638   0.719
  260TIP3   OH2  736   5.691   5.117   2.992
  260TIP3    H1  737   5.684   5.114   3.088
  260TIP3    H2  738   5.603   5.098   2.961
  261TIP3   OH2  739   2.033   4.950   2.529
  261TIP3    H1  740   1.985   4.950   2.612
  261TIP3    H2  741   1.995   4.877   2.480
  262TIP3   OH2  742   2.793   1.936   6.338
  262TIP3    H1  743   2.869   1.925   6.281
  262TIP3    H2  744   2.723   1.889   6.293
  263TIP3   OH2  745   6.836   7.543   4.785
  263TIP3    H1  746   6.825   7.461   4.736
  263TIP3    H2  747   6.928   7.567   4.772
  264TIP3   OH2  748   3.149   2.017   3.604
  264TIP3    H1  749   3.092   2.073   3.656
  264TIP3    H2  750   3.232   2.016   3.650
  265TIP3   OH2  751   5.393   0.307   6.672
  265TIP3    H1  752   5.312   0.268   6.704
  265TIP3    H2  753   5.365   0.388   6.629
  266TIP3   OH2  754   6.887   0.401   4.177
  266TIP3    H1  755   6.898   0.447   4.094
  266TIP3    H2  756   6.792   0.402   4.192
  267TIP3   OH2  757   6.529   3.677   4.385
  267TIP3    H1  758   6.550   3.660   4.293
  267TIP3    H2  759   6.446   3.724   4.383
  268TIP3   OH2  760   3.941   7.597   0.389
  268TIP3    H1  761   4.020   7.622   0.438
  268TIP3    H2  762   3.975   7.561   0.307
  269TIP3   OH2  763   2.521   0.907   1.300
  269TIP3    H1  764   2.557   0.863   1.377
  269TIP3    H2  765   2.426   0.900   1.311
  270TIP3   OH2  766   7.062   3.709   6.179
  270TIP3    H1  767   7.094   3.732   6.092
  270TIP3    H2  768   7.056   3.614   6.179
  271TIP3   OH2  769   1.816   0.626   1.684
  271TIP3    H1  770   1.769   0.703   1.652
  271TIP3    H2  771   1.817   0.636   1.779
  272TIP3   OH2  772   0.978   7.701   5.618
  272TIP3    H1  773   1.007   7.717   5.708
  272TIP3    H2  774   0.922   7.623   5.625
  273TIP3   OH2  775   5.958   7.781   1.157
  273TIP3    H1  776   6.042   7.816   1.126
  273TIP3    H2  777   5.972   7.762   1.249
  274TIP3   OH2  778   4.787   5.206   3.463
  274TIP3    H1  779   4.786   5.139   3.531
  274TIP3    H2  780   4.861   5.263   3.486
  275TIP3   OH2  781   7.499   7.765   4.330
  275TIP3    H1  782   7.525   7.716   4.252
  275TIP3    H2  783   7.574   7.822   4.348
  276TIP3   OH2  784   7.150   7.205   6.632
  276TIP3    H1  785   7.181   7.290   6.662
  276TIP3    H2  786   7.210   7.182   6.561
  277TIP3   OH2  787   4.402   4.922   3.120
  277TIP3    H1  788   4.311   4.921   3.092
  277TIP3    H2  789   4.453   4.920   3.039
  278TIP3   OH2  790   3.970   7.432   1.153
  278TIP3    H1  791   3.940   7.494   1.218
  278TIP3    H2  792   4.051   7.470   1.118
  279TIP3   OH2  793   7.956   7.215   2.377
  279TIP3    H1  794   8.049   7.227   2.399
  279TIP3    H2  795   7.944   7.267   2.298
  280TIP3   OH2  796   5.710   2.977   2.279
  280TIP3    H1  797   5.792   3.005   2.238
  280TIP3    H2  798   5.698   2.887   2.249
  281TIP3   OH2  799   8.285   3.289   0.578
  281TIP3    H1  800   8.200   3.300   0.621
  281TIP3    H2  801   8.270   3.223   0.511
  282TIP3   OH2  802   7.845   2.958   4.104
  282TIP3    H1  803   7.838   3.048   4.072
  282TIP3    H2  804   7.916   2.920   4.052
  283TIP3   OH2  805   5.527   0.627   5.953
  283TIP3    H1  806   5.450   0.634   6.009
  283TIP3    H2  807   5.579   0.705   5.973
  284TIP3   OH2  808   3.138   5.252   0.211
  284TIP3    H1  809   3.229   5.277   0.228
  284TIP3    H2  810   3.125   5.273   0.118
  285TIP3   OH2  811   7.582   3.285   6.356
  285TIP3    H1  812   7.671   3.248   6.355
  285TIP3    H2  813   7.527   3.215   6.390
  286TIP3   OH2  814   8.037   1.811   6.048
  286TIP3    H1  815   7.983   1.849   5.979
  286TIP3    H2  816   8.035   1.876   6.119
  287TIP3   OH2  817   1.691   7.201   5.141
  287TIP3    H1  818   1.663   7.223   5.052
  287TIP3    H2  819   1.611   7.172   5.184
  288TIP3   OH2  820   4.259   3.214   5.996
  288TIP3    H1  821   4.192   3.165   6.042
  288TIP3    H2  822   4.248   3.189   5.904
  289TIP3   OH2  823   3.010   6.346   4.274
  289TIP3    H1  824   3.049   6.434   4.277
  289TIP3    H2  825   3.044   6.302   4.351
  290TIP3   OH2  826   7.063   5.463   1.863
  290TIP3    H1  827   7.029   5.403   1.796
  290TIP3    H2  828   7.157   5.467   1.846
  291TIP3   OH2  829   2.784   0.087   3.425
  291TIP3    H1  830   2.708   0.074   3.369
  291TIP3    H2  831   2.818  -0.001   3.441
  292TIP3   OH2  832   1.070   3.055   6.636
  292TIP3    H1  833   0.996   3.105   6.670
  292TIP3    H2  834   1.049   3.039   6.544
  293TIP3   OH2  835   0.143   0.391   3.081
  293TIP3    H1  836   0.229   0.363   3.052
  293TIP3    H2  837   0.084   0.367   3.009
  294TIP3   OH2  838   1.810   6.976   0.017
  294TIP3    H1  839   1.755   6.902   0.040
  294TIP3    H2  840   1.770   7.011  -0.064
  295TIP3   OH2  841   0.521   2.472   5.324
  295TIP3    H1  842   0.476   2.474   5.240
  295TIP3    H2  843   0.457   2.504   5.387
  296TIP3   OH2  844   0.786   3.284   5.212
  296TIP3    H1  845   0.786   3.222   5.139
  296TIP3    H2  846   0.696   3.281   5.246
  297TIP3   OH2  847   3.232   1.625   4.182
  297TIP3    H1  848   3.191   1.592   4.262
  297TIP3    H2  849   3.221   1.555   4.119
  298TIP3   OH2  850   2.445   5.358   4.732
  298TIP3    H1  851   2.530   5.333   4.697
  298TIP3    H2  852   2.451   5.338   4.826
  299TIP3   OH2  853   4.148   2.247   6.296
  299TIP3    H1  854   4.061   2.270   6.329
  299TIP3    H2  855   4.160   2.155   6.321
  300TIP3   OH2  856   0.412   2.306   1.222
  300TIP3    H1  857   0.419   2.399   1.200
  300TIP3    H2  858   0.318   2.290   1.229
  301TIP3   OH2  859   1.791   7.304   3.976
  301TIP3    H1  860   1.732   7.250   3.923
  301TIP3    H2  861   1.770   7.280   4.066
  302TIP3   OH2  862   6.364   2.308   6.025
  302TIP3    H1  863   6.283   2.301   6.075
  302TIP3    H2  864   6.379   2.402   6.015
  303TIP3   OH2  865   5.573   0.834   2.890
  303TIP3    H1  866   5.501   0.864   2.834
  303TIP3    H2  867   5.579   0.901   2.958
  304TIP3   OH2  868   6.286   7.776   0.132
  304TIP3    H1  869   6.250   7.799   0.217
  304TIP3    H2  870   6.381   7.772   0.146
  305TIP3   OH2  871   7.254   2.177   0.788
  305TIP3    H1  872   7.186   2.239   0.760
  305TIP3    H2  873   7.318   2.178   0.716
  306TIP3   OH2  874   0.031   0.575   4.416
  306TIP3    H1  875   0.050   0.497   4.467
  306TIP3    H2  876   0.114   0.596   4.373
  307TIP3   OH2  877   4.440   6.301   1.090
  307TIP3    H1  878   4.477   6.252   1.163
  307TIP3    H2  879   4.479   6.261   1.012
  308TIP3   OH2  880   6.818   2.789   1.717
  308TIP3    H1  881   6.816   2.746   1.802
  308TIP3    H2  882   6.901   2.762   1.678
  309TIP3   OH2  883   7.883   0.477   5.693
  309TIP3    H1  884   7.953   0.425   5.656
  309TIP3    H2  885   7.851   0.424   5.767
  310TIP3   OH2  886   3.142   2.547   4.853
  310TIP3    H1  887   3.104   2.469   4.814
  310TIP3    H2  888   3.069   2.592   4.895
  311TIP3   OH2  889   6.211   6.849   1.087
  311TIP3    H1  890   6.130   6.871   1.040
  311TIP3    H2  891   6.272   6.919   1.065
  312TIP3   OH2  892   4.528   0.643   2.821
  312TIP3    H1  893   4.483   0.613   2.900
  312TIP3    H2  894   4.619   0.616   2.834
  313TIP3   OH2  895   1.833   4.057   0.098
  313TIP3    H1  896   1.847   4.077   0.005
  313TIP3    H2  897   1.851   4.139   0.143
  314TIP3   OH2  898   0.973   2.675   1.568
  314TIP3    H1  899   0.935   2.739   1.628
  314TIP3    H2  900   1.005   2.728   1.495
  315TIP3   OH2  901   5.180   7.849   3.735
  315TIP3    H1  902   5.222   7.886   3.659
  315TIP3    H2  903   5.232   7.879   3.810
  316TIP3   OH2  904   4.014   7.176   4.521
  316TIP3    H1  905   4.015   7.272   4.518
  316TIP3    H2  906   4.072   7.154   4.594
  317TIP3   OH2  907   2.703   5.384   4.267
  317TIP3    H1  908   2.794   5.355   4.269
  317TIP3    H2  909   2.653   5.309   4.302
  318TIP3   OH2  910   3.562   3.274   4.396
  318TIP3    H1  911   3.491   3.212   4.382
  318TIP3    H2  912   3.523   3.359   4.376
  319TIP3   OH2  913   0.069   7.227   1.330
  319TIP3    H1  914  -0.016   7.246   1.291
  319TIP3    H2  915   0.052   7.221   1.424
  320TIP3   OH2  916   3.275   2.443   6.769
  320TIP3    H1  917   3.312   2.387   6.701
  320TIP3    H2  918   3.336   2.435   6.842
  321TIP3   OH2  919   3.591   0.051   0.377
  321TIP3    H1  920   3.655   0.107   0.421
  321TIP3    H2  921   3.608   0.064   0.284
  322TIP3   OH2  922   5.637   2.358   5.924
  322TIP3    H1  923   5.624   2.341   5.831
  322TIP3    H2  924   5.725   2.325   5.942
  323TIP3   OH2  925   2.447   3.170   4.437
  323TIP3    H1  926   2.405   3.232   4.378
  323TIP3    H2  927   2.530   3.211   4.460
  324TIP3   OH2  928   0.366   3.323   4.640
  324TIP3    H1  929   0.286   3.303   4.689
  324TIP3    H2  930   0.402   3.238   4.618
  325TIP3   OH2  931   8.142   2.564   1.404
  325TIP3    H1  932   8.166   2.611   1.324
  325TIP3    H2  933   8.125   2.475   1.374
  326TIP3   OH2  934   2.730   6.324   2.313
  326TIP3    H1  935   2.699   6.372   2.237
  326TIP3    H2  936   2.705   6.233   2.297
  327TIP3   OH2  937   0.325   4.980   6.585
  327TIP3    H1  938   0.329   5.074   6.572
  327TIP3    H2  939   0.416   4.951   6.586
  328TIP3   OH2  940   2.597   5.233   6.471
  328TIP3    H1  941   2.654   5.157   6.475
  328TIP3    H2  942   2.592   5.255   6.378
  329TIP3   OH2  943   3.617   3.574   1.565
  329TIP3    H1  944   3.548   3.545   1.625
  329TIP3    H2  945   3.691   3.594   1.622
  330TIP3   OH2  946   2.956   1.904   0.734
  330TIP3    H1  947   3.045   1.894   0.769
  330TIP3    H2  948   2.968   1.917   0.640
  331TIP3   OH2  949   7.177   0.376   5.393
  331TIP3    H1  950   7.083   0.368   5.374
  331TIP3    H2  951   7.181   0.417   5.479
  332TIP3   OH2  952   5.850   4.848   1.192
  332TIP3    H1  953   5.856   4.933   1.235
  332TIP3    H2  954   5.766   4.812   1.220
  333TIP3   OH2  955   2.834   1.390   6.055
  333TIP3    H1  956   2.843   1.435   6.138
  333TIP3    H2  957   2.751   1.343   6.062
  334TIP3   OH2  958   4.538   6.599   4.961
  334TIP3    H1  959   4.513   6.671   4.902
  334TIP3    H2  960   4.460   6.544   4.965
  335TIP3   OH2  961   7.910   4.823   5.186
  335TIP3    H1  962   7.926   4.906   5.231
  335TIP3    H2  963   7.898   4.759   5.257
  336TIP3   OH2  964   4.332   1.082   5.788
  336TIP3    H1  965   4.391   1.011   5.762
  336TIP3    H2  966   4.262   1.080   5.722
  337TIP3   OH2  967   5.758   4.654   6.467
  337TIP3    H1  968   5.804   4.571   6.455
  337TIP3    H2  969   5.763   4.672   6.561
  338TIP3   OH2  970   1.569   0.624   3.052
  338TIP3    H1  971   1.586   0.650   3.143
  338TIP3    H2  972   1.511   0.548   3.059
  339TIP3   OH2  973   3.227   0.677   3.364
  339TIP3    H1  974   3.244   0.592   3.405
  339TIP3    H2  975   3.288   0.737   3.406
  340TIP3   OH2  976   7.996   2.798   3.400
  340TIP3    H1  977   8.087   2.771   3.389
  340TIP3    H2  978   7.951   2.719   3.431
  341TIP3   OH2  979   8.023   7.047   6.047
  341TIP3    H1  980   7.941   7.080   6.083
  341TIP3    H2  981   8.085   7.052   6.121
  342TIP3   OH2  982   5.627   3.741   6.471
  342TIP3    H1  983   5.580   3.805   6.524
  342TIP3    H2  984   5.639   3.784   6.386
  343TIP3   OH2  985   8.304   7.212   5.944
  343TIP3    H1  986   8.221   7.259   5.936
  343TIP3    H2  987   8.353   7.237   5.865
  344TIP3   OH2  988   7.616   4.925   2.097
  344TIP3    H1  989   7.620   4.999   2.038
  344TIP3    H2  990   7.523   4.915   2.118
  345TIP3   OH2  991   6.719   1.476   6.366
  345TIP3    H1  992   6.728   1.386   6.397
  345TIP3    H2  993   6.807   1.513   6.374
  346TIP3   OH2  994   1.330   2.768   2.647
  346TIP3    H1  995   1.289   2.683   2.664
  346TIP3    H2  996   1.374   2.758   2.563
  347TIP3   OH2  997   0.866   5.675   4.840
  347TIP3    H1  998   0.795   5.673   4.776
  347TIP3    H2  999   0.914   5.756   4.819
  348TIP3   OH2 1000   3.186   4.869   4.169
  348TIP3    H1 1001   3.245   4.875   4.095
  348TIP3    H2 1002   3.112   4.816   4.138
  349TIP3   OH2 1003   0.066   5.919   3.640
  349TIP3    H1 1004   0.010   5.930   3.717
  349TIP3    H2 1005   0.124   5.846   3.662
  350TIP3   OH2 1006   3.305   5.724   5.734
  350TIP3    H1 1007   3.225   5.775   5.717
  350TIP3    H2 1008   3.376   5.787   5.721
  351TIP3   OH2 1009   3.294   4.177   4.200
  351TIP3    H1 1010   3.212   4.225   4.215
  351TIP3    H2 1011   3.270   4.085   4.205
  352TIP3   OH2 1012   6.772   6.029   3.140
  352TIP3    H1 1013   6.828   6.105   3.156
  352TIP3    H2 1014   6.828   5.968   3.092
  353TIP3   OH2 1015   5.922   1.319   4.716
  353TIP3    H1 1016   5.993   1.374   4.681
  353TIP3    H2 1017   5.914   1.345   4.807
  354TIP3   OH2 1018   4.864   2.903   2.216
  354TIP3    H1 1019   4.903   2.845   2.151
  354TIP3    H2 1020   4.912   2.986   2.207
  355TIP3   OH2 1021   2.529   2.170   6.367
  355TIP3    H1 1022   2.485   2.205   6.290
  355TIP3    H2 1023   2.458   2.148   6.427
  356TIP3   OH2 1024   4.930   2.099   6.088
  356TIP3    H1 1025   4.848   2.076   6.043
  356TIP3    H2 1026   4.952   2.022   6.140
  357TIP3   OH2 1027   7.345   1.985   1.239
  357TIP3    H1 1028   7.325   2.047   1.309
  357TIP3    H2 1029   7.311   2.026   1.160
  358TIP3   OH2 1030   5.793   1.566   4.589
  358TIP3    H1 1031   5.873   1.618   4.601
  358TIP3    H2 1032   5.744   1.612   4.521
  359TIP3   OH2 1033   5.865   4.660   2.517
  359TIP3    H1 1034   5.845   4.727   2.581
  359TIP3    H2 1035   5.843   4.699   2.432
  360TIP3   OH2 1036   4.394   5.434   3.817
  360TIP3    H1 1037   4.398   5.381   3.737
  360TIP3    H2 1038   4.434   5.379   3.884
  361TIP3   OH2 1039   1.223   5.952   1.022
  361TIP3    H1 1040   1.168   5.880   1.051
  361TIP3    H2 1041   1.250   5.997   1.102
  362TIP3   OH2 1042   2.744   5.326   4.608
  362TIP3    H1 1043   2.744   5.420   4.587
  362TIP3    H2 1044   2.691   5.286   4.540
  363TIP3   OH2 1045   2.637   4.159   1.074
  363TIP3    H1 1046   2.542   4.153   1.064
  363TIP3    H2 1047   2.662   4.077   1.116
  364TIP3   OH2 1048   4.212   1.897   0.629
  364TIP3    H1 1049   4.174   1.971   0.675
  364TIP3    H2 1050   4.170   1.898   0.543
  365TIP3   OH2 1051   3.713   5.882   0.991
  365TIP3    H1 1052   3.683   5.798   0.957
  365TIP3    H2 1053   3.659   5.897   1.069
  366TIP3   OH2 1054   3.740   4.283   6.798
  366TIP3    H1 1055   3.737   4.209   6.737
  366TIP3    H2 1056   3.671   4.264   6.862
  367TIP3   OH2 1057   8.049   4.549   6.524
  367TIP3    H1 1058   7.955   4.559   6.540
  367TIP3    H2 1059   8.078   4.637   6.499
  368TIP3   OH2 1060   7.466   5.049   4.841
  368TIP3    H1 1061   7.432   4.999   4.915
  368TIP3    H2 1062   7.395   5.046   4.776
  369TIP3   OH2 1063   2.658   3.403   1.966
  369TIP3    H1 1064   2.643   3.489   2.007
  369TIP3    H2 1065   2.655   3.421   1.872
  370TIP3   OH2 1066   0.704   2.541   2.801
  370TIP3    H1 1067   0.708   2.630   2.834
  370TIP3    H2 1068   0.785   2.500   2.830
  371TIP3   OH2 1069   2.163   5.640   5.914
  371TIP3    H1 1070   2.144   5.551   5.887
  371TIP3    H2 1071   2.257   5.639   5.933
  372TIP3   OH2 1072   3.771   6.192   5.984
  372TIP3    H1 1073   3.779   6.187   5.888
  372TIP3    H2 1074   3.767   6.101   6.012
  373TIP3   OH2 1075   6.626   1.910   0.077
  373TIP3    H1 1076   6.710   1.869   0.096
  373TIP3    H2 1077   6.583   1.850   0.016
  374TIP3   OH2 1078   7.008   3.816   2.054
  374TIP3    H1 1079   6.979   3.746   2.112
  374TIP3    H2 1080   6.927   3.853   2.018
  375TIP3   OH2 1081   0.493   2.587   5.796
  375TIP3    H1 1082   0.451   2.578   5.711
  375TIP3    H2 1083   0.500   2.498   5.829
  376TIP3   OH2 1084   2.184   1.632   6.221
  376TIP3    H1 1085   2.202   1.618   6.314
  376TIP3    H2 1086   2.093   1.661   6.218
  377TIP3   OH2 1087   0.773   4.321   0.375
  377TIP3    H1 1088   0.786   4.240   0.425
  377TIP3    H2 1089   0.810   4.301   0.289
  378TIP3   OH2 1090   5.467   4.483   6.615
  378TIP3    H1 1091   5.472   4.511   6.524
  378TIP3    H2 1092   5.383   4.518   6.646
  379TIP3   OH2 1093   4.755   5.222   4.050
  379TIP3    H1 1094   4.769   5.135   4.087
  379TIP3    H2 1095   4.814   5.225   3.975
  380TIP3   OH2 1096   5.180   7.559   5.331
  380TIP3    H1 1097   5.107   7.591   5.385
  380TIP3    H2 1098   5.196   7.630   5.268
  381TIP3   OH2 1099   4.086   1.579   3.437
  381TIP3    H1 1100   4.167   1.606   3.480
  381TIP3    H2 1101   4.032   1.658   3.435
  382TIP3   OH2 1102   4.140   4.247   5.782
  382TIP3    H1 1103   4.062   4.298   5.763
  382TIP3    H2 1104   4.107   4.160   5.806
  383TIP3   OH2 1105   0.367   1.343   4.932
  383TIP3    H1 1106   0.391   1.416   4.989
  383TIP3    H2 1107   0.433   1.344   4.863
  384TIP3   OH2 1108   2.572   3.651   2.022
  384TIP3    H1 1109   2.572   3.695   1.937
  384TIP3    H2 1110   2.526   3.711   2.080
  385TIP3   OH2 1111   8.018   3.768   4.595
  385TIP3    H1 1112   8.026   3.721   4.512
  385TIP3    H2 1113   8.038   3.859   4.574
  386TIP3   OH2 1114   3.603   5.427   5.771
  386TIP3    H1 1115   3.679   5.483   5.784
  386TIP3    H2 1116   3.547   5.444   5.846
  387TIP3   OH2 1117   5.805   0.620   3.866
  387TIP3    H1 1118   5.833   0.624   3.774
  387TIP3    H2 1119   5.879   0.583   3.912
  388TIP3   OH2 1120   5.201   0.150   1.994
  388TIP3    H1 1121   5.263   0.095   1.947
  388TIP3    H2 1122   5.203   0.117   2.084
  389TIP3   OH2 1123   7.265   7.689   0.849
  389TIP3    H1 1124   7.351   7.652   0.832
  389TIP3    H2 1125   7.283   7.780   0.874
  390TIP3   OH2 1126   7.054   5.794   2.562
  390TIP3    H1 1127   6.987   5.863   2.555
  390TIP3    H2 1128   7.135   5.837   2.533
  391TIP3   OH2 1129   4.707   1.477   5.387
  391TIP3    H1 1130   4.689   1.509   5.475
  391TIP3    H2 1131   4.723   1.383   5.398
  392TIP3   OH2 1132   4.152   3.714   5.039
  392TIP3    H1 1133   4.096   3.640   5.017
  392TIP3    H2 1134   4.101   3.791   5.013
  393TIP3   OH2 1135   0.342   2.551   2.392
  393TIP3    H1 1136   0.298   2.618   2.340
  393TIP3    H2 1137   0.301   2.556   2.478
  394TIP3   OH2 1138   3.438   5.541   6.003
  394TIP3    H1 1139   3.379   5.589   6.061
  394TIP3    H2 1140   3.509   5.603   5.984
  395TIP3   OH2 1141   7.475   4.489   6.355
  395TIP3    H1 1142   7.513   4.576   6.367
  395TIP3    H2 1143   7.380   4.504   6.356
  396TIP3   OH2 1144   3.420   1.738   3.525
  396TIP3    H1 1145   3.432   1.775   3.437
  396TIP3    H2 1146   3.366   1.660   3.511
  397TIP3   OH2 1147   1.338   3.173   2.208
  397TIP3    H1 1148   1.263   3.194   2.264
  397TIP3    H2 1149   1.383   3.256   2.197
  398TIP3   OH2 1150   4.205   1.748   0.962
  398TIP3    H1 1151   4.228   1.841   0.950
  398TIP3    H2 1152   4.110   1.745   0.952
  399TIP3   OH2 1153   6.368   7.159   5.010
  399TIP3    H1 1154   6.384   7.082   4.956
  399TIP3    H2 1155   6.334   7.125   5.092
  400TIP3   OH2 1156   7.228   7.121   3.728
  400TIP3    H1 1157   7.298   7.085   3.674
  400TIP3    H2 1158   7.222   7.060   3.802
  401TIP3   OH2 1159   2.762   6.935   2.790
  401TIP3    H1 1160   2.852   6.907   2.769
  401TIP3    H2 1161   2.757   6.929   2.886
  402TIP3   OH2 1162   7.834   3.873   5.303
  402TIP3    H1 1163   7.802   3.820   5.230
  402TIP3    H2 1164   7.928   3.860   5.303
  403TIP3   OH2 1165   0.991   5.601   4.124
  403TIP3    H1 1166   0.910   5.603   4.073
  403TIP3    H2 1167   1.059   5.628   4.063
  404TIP3   OH2 1168   1.201   6.938   0.509
  404TIP3    H1 1169   1.137   6.976   0.570
  404TIP3    H2 1170   1.284   6.978   0.534
  405TIP3   OH2 1171   6.464   0.002   5.747
  405TIP3    H1 1172   6.373   0.028   5.761
  405TIP3    H2 1173   6.506   0.013   5.832
  406TIP3   OH2 1174   6.872   3.654   4.389
  406TIP3    H1 1175   6.878   3.745   4.360
  406TIP3    H2 1176   6.956   3.637   4.431
  407TIP3   OH2 1177   1.288   0.376   0.222
  407TIP3    H1 1178   1.239   0.439   0.274
  407TIP3    H2 1179   1.225   0.307   0.202
  408TIP3   OH2 1180   6.476   7.690   2.724
  408TIP3    H1 1181   6.431   7.767   2.760
  408TIP3    H2 1182   6.464   7.622   2.791
  409TIP3   OH2 1183   7.896   7.260   4.308
  409TIP3    H1 1184   7.851   7.345   4.307
  409TIP3    H2 1185   7.837   7.201   4.263
  410TIP3   OH2 1186   2.970   5.256   0.875
  410TIP3    H1 1187   2.907   5.309   0.826
  410TIP3    H2 1188   2.923   5.231   0.955
  411TIP3   OH2 1189   8.112   1.155   3.503
  411TIP3    H1 1190   8.112   1.220   3.573
  411TIP3    H2 1191   8.198   1.115   3.507
  412TIP3   OH2 1192   7.093   2.017   4.109
  412TIP3    H1 1193   7.188   2.027   4.122
  412TIP3    H2 1194   7.064   1.970   4.187
  413TIP3   OH2 1195   3.910   4.609   4.321
  413TIP3    H1 1196   3.920   4.539   4.256
  413TIP3    H2 1197   3.864   4.567   4.394
  414TIP3   OH2 1198   3.912   3.554   5.021
  414TIP3    H1 1199   3.828   3.597   5.038
  414TIP3    H2 1200   3.932   3.575   4.930
  415TIP3   OH2 1201   3.497   6.616   2.137
  415TIP3    H1 1202   3.508   6.582   2.048
  415TIP3    H2 1203   3.407   6.647   2.140
  416TIP3   OH2 1204   6.665   5.923   1.172
  416TIP3    H1 1205   6.687   5.977   1.096
  416TIP3    H2 1206   6.706   5.968   1.246
  417TIP3   OH2 1207   1.592   2.989   1.905
  417TIP3    H1 1208   1.519   2.945   1.948
  417TIP3    H2 1209   1.652   3.011   1.977
  418TIP3   OH2 1210   6.175   1.864   1.646
  418TIP3    H1 1211   6.118   1.862   1.723
  418TIP3    H2 1212   6.235   1.937   1.662
  419TIP3   OH2 1213   1.648   3.163   4.359
  419TIP3    H1 1214   1.590   3.206   4.296
  419TIP3    H2 1215   1.721   3.223   4.369
  420TIP3   OH2 1216   7.286   7.649   3.104
  420TIP3    H1 1217   7.285   7.565   3.059
  420TIP3    H2 1218   7.275   7.714   3.034
  421TIP3   OH2 1219   8.281   7.477   4.268
  421TIP3    H1 1220   8.262   7.533   4.343
  421TIP3    H2 1221   8.257   7.389   4.297
  422TIP3   OH2 1222   4.286   3.784   6.225
  422TIP3    H1 1223   4.292   3.761   6.318
  422TIP3    H2 1224   4.315   3.705   6.179
  423TIP3   OH2 1225   1.095   2.593   5.343
  423TIP3    H1 1226   1.162   2.658   5.364
  423TIP3    H2 1227   1.026   2.608   5.407
  424TIP3   OH2 1228   1.877   5.771   0.432
  424TIP3    H1 1229   1.864   5.685   0.473
  424TIP3    H2 1230   1.912   5.826   0.502
  425TIP3   OH2 1231   4.380   6.775   4.271
  425TIP3    H1 1232   4.472   6.797   4.286
  425TIP3    H2 1233   4.338   6.859   4.255
  426TIP3   OH2 1234   3.536   1.005   1.281
  426TIP3    H1 1235   3.532   1.036   1.371
  426TIP3    H2 1236   3.572   1.079   1.232
  427TIP3   OH2 1237   0.627   6.882   3.751
  427TIP3    H1 1238   0.603   6.789   3.756
  427TIP3    H2 1239   0.545   6.929   3.762
  428TIP3   OH2 1240   2.790   7.239   5.897
  428TIP3    H1 1241   2.885   7.255   5.901
  428TIP3    H2 1242   2.753   7.295   5.964
  429TIP3   OH2 1243   7.009   1.229   3.846
  429TIP3    H1 1244   7.059   1.311   3.848
  429TIP3    H2 1245   6.919   1.256   3.865
  430TIP3   OH2 1246   1.504   1.678   3.709
  430TIP3    H1 1247   1.583   1.714   3.750
  430TIP3    H2 1248   1.436   1.743   3.728
  431TIP3   OH2 1249   1.869   1.778   6.030
  431TIP3    H1 1250   1.874   1.684   6.048
  431TIP3    H2 1251   1.850   1.818   6.114
  432TIP3   OH2 1252   3.666   5.845   6.650
  432TIP3    H1 1253   3.681   5.861   6.743
  432TIP3    H2 1254   3.597   5.778   6.649
  433TIP3   OH2 1255   4.684   7.661   0.714
  433TIP3    H1 1256   4.776   7.633   0.718
  433TIP3    H2 1257   4.683   7.730   0.648
  434TIP3   OH2 1258   3.791   7.141   3.313
  434TIP3    H1 1259   3.821   7.102   3.395
  434TIP3    H2 1260   3.851   7.214   3.298
  435TIP3   OH2 1261   4.970   0.954   2.132
  435TIP3    H1 1262   4.965   1.001   2.049
  435TIP3    H2 1263   4.912   0.879   2.120
  436TIP3   OH2 1264   4.614   7.540   5.722
  436TIP3    H1 1265   4.594   7.521   5.631
  436TIP3    H2 1266   4.627   7.635   5.724
  437TIP3   OH2 1267   6.059   0.217   2.409
  437TIP3    H1 1268   6.051   0.262   2.325
  437TIP3    H2 1269   5.969   0.209   2.441
  438TIP3   OH2 1270   8.259   6.324   3.750
  438TIP3    H1 1271   8.169   6.298   3.770
  438TIP3    H2 1272   8.298   6.343   3.836
  439TIP3   OH2 1273   3.274   2.789   2.094
  439TIP3    H1 1274   3.269   2.884   2.088
  439TIP3    H2 1275   3.219   2.766   2.168
  440TIP3   OH2 1276   3.568   0.897   4.862
  440TIP3    H1 1277   3.646   0.860   4.904
  440TIP3    H2 1278   3.599   0.980   4.824
  441TIP3   OH2 1279   5.891   1.102   0.106
  441TIP3    H1 1280   5.846   1.069   0.029
  441TIP3    H2 1281   5.951   1.032   0.132
  442TIP3   OH2 1282   2.180   5.041   6.265
  442TIP3    H1 1283   2.253   4.980   6.278
  442TIP3    H2 1284   2.118   5.020   6.335
  443TIP3   OH2 1285   5.787   2.775   0.468
  443TIP3    H1 1286   5.744   2.858   0.447
  443TIP3    H2 1287   5.861   2.800   0.523
  444TIP3   OH2 1288   5.484   0.889   6.337
  444TIP3    H1 1289   5.539   0.947   6.285
  444TIP3    H2 1290   5.443   0.830   6.274
  445TIP3   OH2 1291   8.046   4.945   0.079
  445TIP3    H1 1292   7.985   4.982   0.015
  445TIP3    H2 1293   8.003   4.866   0.111
  446TIP3   OH2 1294   4.291   5.183   3.036
  446TIP3    H1 1295   4.267   5.138   2.955
  446TIP3    H2 1296   4.331   5.116   3.091
  447TIP3   OH2 1297   5.356   2.921   4.236
  447TIP3    H1 1298   5.290   2.892   4.299
  447TIP3    H2 1299   5.438   2.919   4.284
  448TIP3   OH2 1300   3.015   5.542   3.081
  448TIP3    H1 1301   2.991   5.521   3.171
  448TIP3    H2 1302   3.043   5.633   3.084
  449TIP3   OH2 1303   7.400   3.467   0.135
  449TIP3    H1 1304   7.419   3.541   0.077
  449TIP3    H2 1305   7.434   3.391   0.088
  450TIP3   OH2 1306   1.353   0.250   5.295
  450TIP3    H1 1307   1.368   0.342   5.273
  450TIP3    H2 1308   1.437   0.208   5.276
  451TIP3   OH2 1309   6.564   7.563   5.350
  451TIP3    H1 1310   6.514   7.631   5.305
  451TIP3    H2 1311   6.646   7.558   5.301
  452TIP3   OH2 1312   2.800   6.750   3.527
  452TIP3    H1 1313   2.782   6.843   3.519
  452TIP3    H2 1314   2.894   6.744   3.544
  453TIP3   OH2 1315   0.414   6.406   4.365
  453TIP3    H1 1316   0.489   6.427   4.419
  453TIP3    H2 1317   0.429   6.315   4.337
  454TIP3   OH2 1318   6.054   3.144   5.670
  454TIP3    H1 1319   6.144   3.138   5.702
  454TIP3    H2 1320   6.045   3.235   5.642
  455TIP3   OH2 1321   1.926   1.295   2.168
  455TIP3    H1 1322   1.926   1.268   2.260
  455TIP3    H2 1323   1.969   1.223   2.123
  456TIP3   OH2 1324   0.935   3.403   5.008
  456TIP3    H1 1325   0.905   3.383   5.097
  456TIP3    H2 1326   0.863   3.452   4.969
  457TIP3   OH2 1327   8.038   4.309   1.799
  457TIP3    H1 1328   7.971   4.259   1.753
  457TIP3    H2 1329   8.106   4.324   1.733
  458TIP3   OH2 1330   6.021   6.383   1.764
  458TIP3    H1 1331   6.067   6.435   1.830
  458TIP3    H2 1332   5.928   6.397   1.784
  459TIP3   OH2 1333   1.568   5.001   0.243
  459TIP3    H1 1334   1.534   4.940   0.308
  459TIP3    H2 1335   1.494   5.020   0.185
  460TIP3   OH2 1336   7.788   0.887   6.044
  460TIP3    H1 1337   7.827   0.970   6.019
  460TIP3    H2 1338   7.853   0.821   6.019
  461TIP3   OH2 1339   4.094   6.046   4.972
  461TIP3    H1 1340   4.086   6.134   4.936
  461TIP3    H2 1341   4.188   6.026   4.966
  462TIP3   OH2 1342   7.826   0.726   6.368
  462TIP3    H1 1343   7.769   0.798   6.340
  462TIP3    H2 1344   7.778   0.647   6.345
  463TIP3   OH2 1345   8.122   2.968   5.386
  463TIP3    H1 1346   8.041   2.940   5.428
  463TIP3    H2 1347   8.112   3.063   5.377
  464TIP3   OH2 1348   2.794   0.744   5.933
  464TIP3    H1 1349   2.722   0.711   5.988
  464TIP3    H2 1350   2.870   0.744   5.990
  465TIP3   OH2 1351   6.338   5.785   6.675
  465TIP3    H1 1352   6.402   5.855   6.674
  465TIP3    H2 1353   6.255   5.828   6.653
  466TIP3   OH2 1354   7.744   0.433   0.429
  466TIP3    H1 1355   7.831   0.397   0.451
  466TIP3    H2 1356   7.683   0.376   0.476
  467TIP3   OH2 1357   1.043   0.765   0.665
  467TIP3    H1 1358   0.971   0.826   0.656
  467TIP3    H2 1359   1.005   0.688   0.708
  468TIP3   OH2 1360   6.979   3.137   1.607
  468TIP3    H1 1361   6.918   3.110   1.676
  468TIP3    H2 1362   7.040   3.196   1.651
  469TIP3   OH2 1363   1.655   2.330   4.231
  469TIP3    H1 1364   1.621   2.242   4.216
  469TIP3    H2 1365   1.748   2.317   4.248
  470TIP3   OH2 1366   4.988   5.427   2.911
  470TIP3    H1 1367   4.966   5.387   2.995
  470TIP3    H2 1368   4.926   5.388   2.849
  471TIP3   OH2 1369   1.534   3.172   4.055
  471TIP3    H1 1370   1.610   3.213   4.015
  471TIP3    H2 1371   1.543   3.079   4.034
  472TIP3   OH2 1372   6.991   0.648   6.045
  472TIP3    H1 1373   6.997   0.575   5.984
  472TIP3    H2 1374   7.046   0.716   6.007
  473TIP3   OH2 1375   7.309   3.257   3.419
  473TIP3    H1 1376   7.394   3.266   3.376
  473TIP3    H2 1377   7.318   3.179   3.474
  474TIP3   OH2 1378   3.137   3.293   4.260
  474TIP3    H1 1379   3.041   3.292   4.269
  474TIP3    H2 1380   3.167   3.349   4.332
  475TIP3   OH2 1381   0.416   4.497   3.764
  475TIP3    H1 1382   0.512   4.495   3.764
  475TIP3    H2 1383   0.394   4.590   3.762
  476TIP3   OH2 1384   7.288   4.269   6.593
  476TIP3    H1 1385   7.324   4.355   6.572
  476TIP3    H2 1386   7.288   4.266   6.689
  477TIP3   OH2 1387   6.294   5.927   5.149
  477TIP3    H1 1388   6.305   5.839   5.185
  477TIP3    H2 1389   6.265   5.980   5.223
  478TIP3   OH2 1390   5.324   6.599   2.949
  478TIP3    H1 1391   5.317   6.673   2.889
  478TIP3    H2 1392   5.234   6.572   2.966
  479TIP3   OH2 1393   4.727   2.429   1.547
  479TIP3    H1 1394   4.670   2.491   1.503
  479TIP3    H2 1395   4.757   2.474   1.626
  480TIP3   OH2 1396   0.024   6.674   5.322
  480TIP3    H1 1397  -0.039   6.731   5.277
  480TIP3    H2 1398   0.107   6.721   5.319
  481TIP3   OH2 1399   3.213   1.845   1.247
  481TIP3    H1 1400   3.280   1.899   1.288
  481TIP3    H2 1401   3.234   1.755   1.274
  482TIP3   OH2 1402   1.625   1.085   6.005
  482TIP3    H1 1403   1.711   1.117   6.031
  482TIP3    H2 1404   1.642   1.029   5.929
  483TIP3   OH2 1405   3.472   6.365   1.328
  483TIP3    H1 1406   3.446   6.304   1.398
  483TIP3    H2 1407   3.542   6.417   1.367
  484TIP3   OH2 1408   2.960   4.257   1.707
  484TIP3    H1 1409   2.916   4.317   1.647
  484TIP3    H2 1410   2.934   4.288   1.794
  485TIP3   OH2 1411   2.252   7.581   2.284
  485TIP3    H1 1412   2.274   7.553   2.373
  485TIP3    H2 1413   2.332   7.623   2.252
  486TIP3   OH2 1414   8.194   1.191   2.511
  486TIP3    H1 1415   8.128   1.230   2.568
  486TIP3    H2 1416   8.254   1.263   2.492
  487TIP3   OH2 1417   6.033   2.593   1.080
  487TIP3    H1 1418   6.099   2.662   1.079
  487TIP3    H2 1419   5.950   2.638   1.063
  488TIP3   OH2 1420   6.785   5.104   2.890
  488TIP3    H1 1421   6.795   5.171   2.958
  488TIP3    H2 1422   6.800   5.021   2.936
  489TIP3   OH2 1423   2.243   2.535   4.658
  489TIP3    H1 1424   2.201   2.456   4.692
  489TIP3    H2 1425   2.331   2.506   4.634
  490TIP3   OH2 1426   8.001   7.145   0.941
  490TIP3    H1 1427   8.053   7.071   0.910
  490TIP3    H2 1428   7.984   7.197   0.862
  491TIP3   OH2 1429   0.357   1.240   0.552
  491TIP3    H1 1430   0.336   1.282   0.635
  491TIP3    H2 1431   0.312   1.156   0.556
  492TIP3   OH2 1432   2.507   3.789   1.760
  492TIP3    H1 1433   2.550   3.723   1.706
  492TIP3    H2 1434   2.414   3.766   1.758
  493TIP3   OH2 1435   2.319   6.273   4.910
  493TIP3    H1 1436   2.240   6.307   4.867
  493TIP3    H2 1437   2.337   6.337   4.979
  494TIP3   OH2 1438   4.100   1.092   0.610
  494TIP3    H1 1439   4.153   1.113   0.687
  494TIP3    H2 1440   4.150   1.126   0.536
  495TIP3   OH2 1441   0.798   6.315   6.283
  495TIP3    H1 1442   0.856   6.387   6.306
  495TIP3    H2 1443   0.835   6.239   6.328
  496TIP3   OH2 1444   6.971   7.341   5.728
  496TIP3    H1 1445   6.940   7.401   5.796
  496TIP3    H2 1446   6.937   7.256   5.754
  497TIP3   OH2 1447   5.402   1.762   2.904
  497TIP3    H1 1448   5.381   1.711   2.826
  497TIP3    H2 1449   5.317   1.793   2.937
  498TIP3   OH2 1450   7.920   2.900   0.941
  498TIP3    H1 1451   7.874   2.929   1.020
  498TIP3    H2 1452   7.865   2.830   0.906
  499TIP3   OH2 1453   5.665   7.087   4.814
  499TIP3    H1 1454   5.737   7.114   4.871
  499TIP3    H2 1455   5.608   7.034   4.869
  500TIP3   OH2 1456   2.634   6.593   4.239
  500TIP3    H1 1457   2.713   6.630   4.276
  500TIP3    H2 1458   2.612   6.651   4.166
  501TIP3   OH2 1459   0.743   1.021   0.250
  501TIP3    H1 1460   0.705   0.946   0.295
  501TIP3    H2 1461   0.698   1.097   0.287
  502TIP3   OH2 1462   2.807   2.469   0.367
  502TIP3    H1 1463   2.857   2.470   0.285
  502TIP3    H2 1464   2.732   2.526   0.349
  503TIP3   OH2 1465   1.880   6.264   3.214
  503TIP3    H1 1466   1.860   6.254   3.307
  503TIP3    H2 1467   1.806   6.312   3.178
  504TIP3   OH2 1468   4.925   3.178   2.201
  504TIP3    H1 1469   4.986   3.202   2.271
  504TIP3    H2 1470   4.841   3.216   2.228
  505TIP3   OH2 1471   4.192   7.456   1.683
  505TIP3    H1 1472   4.266   7.403   1.651
  505TIP3    H2 1473   4.126   7.391   1.710
  506TIP3   OH2 1474   2.399   6.411   1.143
  506TIP3    H1 1475   2.454   6.394   1.067
  506TIP3    H2 1476   2.436   6.357   1.213
  507TIP3   OH2 1477   3.042   0.420   4.304
  507TIP3    H1 1478   3.013   0.351   4.364
  507TIP3    H2 1479   3.038   0.381   4.217
  508TIP3   OH2 1480   4.522   7.016   5.694
  508TIP3    H1 1481   4.449   6.957   5.674
  508TIP3    H2 1482   4.480   7.102   5.706
  509TIP3   OH2 1483   0.771   6.508   5.474
  509TIP3    H1 1484   0.796   6.600   5.477
  509TIP3    H2 1485   0.787   6.481   5.383
  510TIP3   OH2 1486   1.116   3.084   3.588
  510TIP3    H1 1487   1.104   2.999   3.546
  510TIP3    H2 1488   1.211   3.092   3.600
  511TIP3   OH2 1489   2.033   5.463   4.012
  511TIP3    H1 1490   2.075   5.540   3.973
  511TIP3    H2 1491   1.975   5.499   4.079
  512TIP3   OH2 1492   2.118   0.055   0.808
  512TIP3    H1 1493   2.185  -0.012   0.795
  512TIP3    H2 1494   2.165   0.138   0.799
  513TIP3   OH2 1495   6.641   3.237   2.476
  513TIP3    H1 1496   6.721   3.215   2.523
  513TIP3    H2 1497   6.574   3.241   2.544
  514TIP3   OH2 1498   0.267   3.508   6.198
  514TIP3    H1 1499   0.209   3.431   6.191
  514TIP3    H2 1500   0.208   3.583   6.193
  515TIP3   OH2 1501   2.289   5.128   3.864
  515TIP3    H1 1502   2.284   5.052   3.807
  515TIP3    H2 1503   2.343   5.099   3.938
  516TIP3   OH2 1504   7.594   1.603   4.047
  516TIP3    H1 1505   7.640   1.522   4.025
  516TIP3    H2 1506   7.658   1.654   4.096
  517TIP3   OH2 1507   0.335   7.549   0.795
  517TIP3    H1 1508   0.296   7.612   0.856
  517TIP3    H2 1509   0.421   7.530   0.832
  518TIP3   OH2 1510   4.718   1.963   4.934
  518TIP3    H1 1511   4.813   1.949   4.932
  518TIP3    H2 1512   4.706   2.043   4.985
  519TIP3   OH2 1513   1.182   1.081   2.018
  519TIP3    H1 1514   1.122   1.010   2.037
  519TIP3    H2 1515   1.203   1.120   2.103
  520TIP3   OH2 1516   1.377   3.929   5.336
  520TIP3    H1 1517   1.319   3.887   5.272
  520TIP3    H2 1518   1.322   3.994   5.379
  521TIP3   OH2 1519   7.178   7.149   0.620
  521TIP3    H1 1520   7.223   7.208   0.680
  521TIP3    H2 1521   7.085   7.159   0.641
  522TIP3   OH2 1522   6.554   5.475   0.492
  522TIP3    H1 1523   6.553   5.522   0.409
  522TIP3    H2 1524   6.503   5.530   0.551
  523TIP3   OH2 1525   5.552   5.545   2.453
  523TIP3    H1 1526   5.523   5.454   2.452
  523TIP3    H2 1527   5.493   5.590   2.513
  524TIP3   OH2 1528   3.238   5.932   6.285
  524TIP3    H1 1529   3.157   5.926   6.336
  524TIP3    H2 1530   3.296   5.986   6.339
  525TIP3   OH2 1531   8.266   0.117   1.420
  525TIP3    H1 1532   8.343   0.121   1.363
  525TIP3    H2 1533   8.231   0.206   1.420
  526TIP3   OH2 1534   2.796   2.045   0.457
  526TIP3    H1 1535   2.855   2.021   0.386
  526TIP3    H2 1536   2.839   2.119   0.501
  527TIP3   OH2 1537   2.054   3.048   5.621
  527TIP3    H1 1538   2.091   3.127   5.581
  527TIP3    H2 1539   1.960   3.065   5.626
  528TIP3   OH2 1540   6.761   3.063   1.776
  528TIP3    H1 1541   6.736   3.032   1.863
  528TIP3    H2 1542   6.750   2.986   1.720
  529TIP3   OH2 1543   2.912   5.564   5.807
  529TIP3    H1 1544   2.987   5.567   5.867
  529TIP3    H2 1545   2.948   5.534   5.724
  530TIP3   OH2 1546   0.498   2.365   1.537
  530TIP3    H1 1547   0.471   2.293   1.593
  530TIP3    H2 1548   0.416   2.404   1.506
  531TIP3   OH2 1549   7.501   4.933   6.064
  531TIP3    H1 1550   7.478   4.840   6.062
  531TIP3    H2 1551   7.510   4.957   5.972
  532TIP3   OH2 1552   2.810   5.947   1.331
  532TIP3    H1 1553   2.866   6.023   1.345
  532TIP3    H2 1554   2.820   5.895   1.410
  533TIP3   OH2 1555   2.975   3.427   0.483
  533TIP3    H1 1556   3.023   3.489   0.429
  533TIP3    H2 1557   3.005   3.444   0.573
  534TIP3   OH2 1558   6.717   3.201   0.231
  534TIP3    H1 1559   6.731   3.132   0.296
  534TIP3    H2 1560   6.780   3.183   0.162
  535TIP3   OH2 1561   3.427   2.816   5.289
  535TIP3    H1 1562   3.510   2.853   5.259
  535TIP3    H2 1563   3.365   2.888   5.283
  536TIP3   OH2 1564   3.847   2.227   4.360
  536TIP3    H1 1565   3.836   2.135   4.384
  536TIP3    H2 1566   3.851   2.227   4.265
  537TIP3   OH2 1567   2.328   0.266   0.985
  537TIP3    H1 1568   2.357   0.334   1.046
  537TIP3    H2 1569   2.303   0.193   1.042
  538TIP3   OH2 1570   5.965   3.461   1.176
  538TIP3    H1 1571   5.972   3.406   1.098
  538TIP3    H2 1572   5.993   3.405   1.248
  539TIP3   OH2 1573   3.335   3.107   2.446
  539TIP3    H1 1574   3.351   3.020   2.484
  539TIP3    H2 1575   3.346   3.094   2.352
  540TIP3   OH2 1576   5.487   2.988   1.191
  540TIP3    H1 1577   5.569   3.034   1.174
  540TIP3    H2 1578   5.478   2.990   1.286
  541TIP3   OH2 1579   5.764   3.457   0.289
  541TIP3    H1 1580   5.850   3.428   0.257
  541TIP3    H2 1581   5.756   3.546   0.257
  542TIP3   OH2 1582   7.648   0.947   6.580
  542TIP3    H1 1583   7.711   1.015   6.604
  542TIP3    H2 1584   7.653   0.942   6.485
  543TIP3   OH2 1585   6.981   4.454   3.589
  543TIP3    H1 1586   7.002   4.421   3.502
  543TIP3    H2 1587   7.046   4.412   3.646
  544TIP3   OH2 1588   6.068   3.785   2.464
  544TIP3    H1 1589   6.036   3.781   2.554
  544TIP3    H2 1590   6.076   3.694   2.436
  545TIP3   OH2 1591   4.475   4.563   6.278
  545TIP3    H1 1592   4.541   4.503   6.314
  545TIP3    H2 1593   4.392   4.517   6.289
  546TIP3   OH2 1594   4.447   2.672   3.359
  546TIP3    H1 1595   4.367   2.642   3.316
  546TIP3    H2 1596   4.486   2.734   3.296
  547TIP3   OH2 1597   2.963   1.262   4.797
  547TIP3    H1 1598   3.046   1.222   4.823
  547TIP3    H2 1599   2.918   1.280   4.880
  548TIP3   OH2 1600   5.310   4.102   0.831
  548TIP3    H1 1601   5.403   4.112   0.809
  548TIP3    H2 1602   5.273   4.052   0.758
  549TIP3   OH2 1603   3.603   7.154   5.234
  549TIP3    H1 1604   3.620   7.248   5.227
  549TIP3    H2 1605   3.685   7.113   5.205
  550TIP3   OH2 1606   7.595   5.892   6.119
  550TIP3    H1 1607   7.523   5.857   6.067
  550TIP3    H2 1608   7.660   5.822   6.121
  551TIP3   OH2 1609   6.121   6.848   6.399
  551TIP3    H1 1610   6.044   6.826   6.346
  551TIP3    H2 1611   6.085   6.872   6.484
  552TIP3   OH2 1612   6.835   7.120   1.369
  552TIP3    H1 1613   6.756   7.143   1.321
  552TIP3    H2 1614   6.808   7.115   1.461
  553TIP3   OH2 1615   6.676   2.996   1.012
  553TIP3    H1 1616   6.719   3.001   0.927
  553TIP3    H2 1617   6.731   3.049   1.070
  554TIP3   OH2 1618   7.702   7.579   1.960
  554TIP3    H1 1619   7.675   7.616   1.876
  554TIP3    H2 1620   7.698   7.484   1.946
  555TIP3   OH2 1621   4.570   5.749   3.188
  555TIP3    H1 1622   4.653   5.705   3.171
  555TIP3    H2 1623   4.536   5.706   3.266
  556TIP3   OH2 1624   5.264   5.849   2.902
  556TIP3    H1 1625   5.234   5.763   2.870
  556TIP3    H2 1626   5.184   5.902   2.905
  557TIP3   OH2 1627   4.094   4.809   6.089
  557TIP3    H1 1628   4.094   4.756   6.009
  557TIP3    H2 1629   4.014   4.783   6.135
  558TIP3   OH2 1630   1.031   2.669   4.258
  558TIP3    H1 1631   1.044   2.600   4.193
  558TIP3    H2 1632   1.076   2.639   4.336
  559TIP3   OH2 1633   4.965   1.044   5.900
  559TIP3    H1 1634   5.026   1.063   5.829
  559TIP3    H2 1635   4.896   0.992   5.860
  560TIP3   OH2 1636   7.014   5.477   2.566
  560TIP3    H1 1637   7.058   5.559   2.589
  560TIP3    H2 1638   6.955   5.501   2.494
  561TIP3   OH2 1639   6.864   7.312   0.450
  561TIP3    H1 1640   6.866   7.223   0.485
  561TIP3    H2 1641   6.777   7.344   0.471
  562TIP3   OH2 1642   8.145   5.226   3.256
  562TIP3    H1 1643   8.166   5.317   3.276
  562TIP3    H2 1644   8.050   5.221   3.262
  563TIP3   OH2 1645   4.101   7.454   0.161
  563TIP3    H1 1646   4.076   7.424   0.074
  563TIP3    H2 1647   4.177   7.402   0.184
  564TIP3   OH2 1648   1.342   2.793   0.591
  564TIP3    H1 1649   1.250   2.798   0.566
  564TIP3    H2 1650   1.352   2.706   0.630
  565TIP3   OH2 1651   4.958   5.087   0.026
  565TIP3    H1 1652   4.972   4.993   0.042
  565TIP3    H2 1653   4.973   5.128   0.111
  566TIP3   OH2 1654   0.399   5.751   1.510
  566TIP3    H1 1655   0.458   5.678   1.527
  566TIP3    H2 1656   0.311   5.715   1.523
  567TIP3   OH2 1657   3.282   4.636   3.854
  567TIP3    H1 1658   3.281   4.687   3.773
  567TIP3    H2 1659   3.201   4.661   3.899
  568TIP3   OH2 1660   4.905   0.331   4.558
  568TIP3    H1 1661   4.871   0.314   4.470
  568TIP3    H2 1662   4.856   0.271   4.614
  569TIP3   OH2 1663   5.341   3.170   5.566
  569TIP3    H1 1664   5.403   3.222   5.617
  569TIP3    H2 1665   5.348   3.204   5.477
  570TIP3   OH2 1666   1.821   3.081   3.673
  570TIP3    H1 1667   1.791   3.042   3.591
  570TIP3    H2 1668   1.905   3.121   3.650
  571TIP3   OH2 1669   3.329   4.877   6.524
  571TIP3    H1 1670   3.329   4.953   6.466
  571TIP3    H2 1671   3.254   4.825   6.495
  572TIP3   OH2 1672   4.613   4.189   3.981
  572TIP3    H1 1673   4.596   4.271   3.935
  572TIP3    H2 1674   4.704   4.168   3.962
  573TIP3   OH2 1675   7.973   6.687   0.967
  573TIP3    H1 1676   8.025   6.724   1.039
  573TIP3    H2 1677   8.038   6.657   0.904
  574TIP3   OH2 1678   5.683   0.475   5.755
  574TIP3    H1 1679   5.762   0.456   5.806
  574TIP3    H2 1680   5.621   0.511   5.819
  575TIP3   OH2 1681   7.084   0.379   4.674
  575TIP3    H1 1682   7.059   0.433   4.599
  575TIP3    H2 1683   7.174   0.403   4.693
  576TIP3   OH2 1684   1.176   3.994   1.795
  576TIP3    H1 1685   1.112   3.923   1.792
  576TIP3    H2 1686   1.231   3.973   1.870
  577TIP3   OH2 1687   0.803   1.650   5.252
  577TIP3    H1 1688   0.846   1.566   5.239
  577TIP3    H2 1689   0.748   1.638   5.329
  578TIP3   OH2 1690   2.355   7.692   4.633
  578TIP3    H1 1691   2.302   7.706   4.555
  578TIP3    H2 1692   2.441   7.667   4.599
  579TIP3   OH2 1693   3.260   0.038   1.410
  579TIP3    H1 1694   3.243   0.015   1.318
  579TIP3    H2 1695   3.340   0.091   1.406
  580TIP3   OH2 1696   0.309   5.033  -0.005
  580TIP3    H1 1697   0.393   5.026  -0.050
  580TIP3    H2 1698   0.288   4.943   0.020
  581TIP3   OH2 1699   5.648   7.215   2.830
  581TIP3    H1 1700   5.647   7.122   2.851
  581TIP3    H2 1701   5.741   7.240   2.835
  582TIP3   OH2 1702   7.227   3.181   5.265
  582TIP3    H1 1703   7.277   3.213   5.190
  582TIP3    H2 1704   7.141   3.159   5.228
  583TIP3   OH2 1705   1.979   5.825   1.712
  583TIP3    H1 1706   1.966   5.913   1.748
  583TIP3    H2 1707   2.025   5.839   1.629
  584TIP3   OH2 1708   5.172   0.363   4.654
  584TIP3    H1 1709   5.199   0.275   4.680
  584TIP3    H2 1710   5.085   0.351   4.615
  585TIP3   OH2 1711   0.128   5.809   0.664
  585TIP3    H1 1712   0.137   5.754   0.586
  585TIP3    H2 1713   0.176   5.889   0.642
  586TIP3   OH2 1714   0.016   6.273   2.166
  586TIP3    H1 1715   0.089   6.212   2.165
  586TIP3    H2 1716   0.047   6.350   2.118
  587TIP3   OH2 1717   2.090   3.063   6.248
  587TIP3    H1 1718   2.003   3.087   6.281
  587TIP3    H2 1719   2.083   3.075   6.154
  588TIP3   OH2 1720   7.828   6.835   0.762
  588TIP3    H1 1721   7.857   6.817   0.851
  588TIP3    H2 1722   7.779   6.757   0.736
  589TIP3   OH2 1723   6.541   0.820   2.493
  589TIP3    H1 1724   6.625   0.780   2.475
  589TIP3    H2 1725   6.556   0.914   2.482
  590TIP3   OH2 1726   0.996   7.675   3.033
  590TIP3    H1 1727   1.062   7.607   3.021
  590TIP3    H2 1728   1.029   7.728   3.105
  591TIP3   OH2 1729   2.865   7.005   1.249
  591TIP3    H1 1730   2.911   6.922   1.262
  591TIP3    H2 1731   2.869   7.048   1.334
  592TIP3   OH2 1732   5.252   4.510   5.136
  592TIP3    H1 1733   5.254   4.550   5.049
  592TIP3    H2 1734   5.281   4.420   5.121
  593TIP3   OH2 1735   1.006   5.294   5.080
  593TIP3    H1 1736   1.099   5.300   5.061
  593TIP3    H2 1737   0.980   5.383   5.104
  594TIP3   OH2 1738   3.910   6.949   0.982
  594TIP3    H1 1739   3.906   7.012   0.910
  594TIP3    H2 1740   3.897   7.001   1.061
  595TIP3   OH2 1741   0.967   7.312   0.848
  595TIP3    H1 1742   1.050   7.360   0.844
  595TIP3    H2 1743   0.982   7.243   0.912
  596TIP3   OH2 1744   5.744   6.492   2.466
  596TIP3    H1 1745   5.713   6.404   2.446
  596TIP3    H2 1746   5.673   6.531   2.518
  597TIP3   OH2 1747   0.497   6.232   2.912
  597TIP3    H1 1748   0.522   6.212   2.822
  597TIP3    H2 1749   0.499   6.147   2.956
  598TIP3   OH2 1750   1.198   5.322   3.543
  598TIP3    H1 1751   1.200   5.325   3.447
  598TIP3    H2 1752   1.236   5.237   3.565
  599TIP3   OH2 1753   7.489   5.696   0.683
  599TIP3    H1 1754   7.463   5.621   0.736
  599TIP3    H2 1755   7.416   5.758   0.692
  600TIP3   OH2 1756   4.347   1.572   0.406
  600TIP3    H1 1757   4.362   1.635   0.477
  600TIP3    H2 1758   4.268   1.525   0.432
  601TIP3   OH2 1759   8.196   3.781   3.928
  601TIP3    H1 1760   8.281   3.736   3.930
  601TIP3    H2 1761   8.198   3.832   3.848
  602TIP3   OH2 1762   5.756   4.740   3.100
  602TIP3    H1 1763   5.689   4.764   3.036
  602TIP3    H2 1764   5.722   4.772   3.184
  603TIP3   OH2 1765   7.974   0.068   6.431
  603TIP3    H1 1766   7.882   0.093   6.441
  603TIP3    H2 1767   7.971  -0.022   6.396
  604TIP3   OH2 1768   7.211   3.514   5.328
  604TIP3    H1 1769   7.174   3.593   5.288
  604TIP3    H2 1770   7.201   3.447   5.261
  605TIP3   OH2 1771   6.011   3.097   2.250
  605TIP3    H1 1772   5.969   3.144   2.323
  605TIP3    H2 1773   6.074   3.039   2.293
  606TIP3   OH2 1774   3.987   2.886   1.032
  606TIP3    H1 1775   3.951   2.950   0.971
  606TIP3    H2 1776   4.076   2.916   1.049
  607TIP3   OH2 1777   3.849   5.431   5.325
  607TIP3    H1 1778   3.901   5.463   5.398
  607TIP3    H2 1779   3.805   5.353   5.360
  608TIP3   OH2 1780   4.085   3.600   5.786
  608TIP3    H1 1781   4.029   3.551   5.725
  608TIP3    H2 1782   4.040   3.683   5.800
  609TIP3   OH2 1783   7.219   3.373   4.747
  609TIP3    H1 1784   7.160   3.329   4.685
  609TIP3    H2 1785   7.172   3.374   4.829
  610TIP3   OH2 1786   3.851   2.815   0.148
  610TIP3    H1 1787   3.903   2.893   0.164
  610TIP3    H2 1788   3.881   2.782   0.064
  611TIP3   OH2 1789   1.220   4.444   5.512
  611TIP3    H1 1790   1.229   4.446   5.417
  611TIP3    H2 1791   1.215   4.536   5.538
  612TIP3   OH2 1792   4.610   2.021   2.931
  612TIP3    H1 1793   4.693   1.986   2.900
  612TIP3    H2 1794   4.544   1.974   2.880
  613TIP3   OH2 1795   0.476   4.102   3.291
  613TIP3    H1 1796   0.570   4.096   3.307
  613TIP3    H2 1797   0.441   4.021   3.327
  614TIP3   OH2 1798   4.368   1.262   0.683
  614TIP3    H1 1799   4.445   1.211   0.659
  614TIP3    H2 1800   4.325   1.281   0.600
  615TIP3   OH2 1801   1.990   0.413   3.764
  615TIP3    H1 1802   1.901   0.414   3.799
  615TIP3    H2 1803   2.035   0.483   3.811
  616TIP3   OH2 1804   0.286   7.412   0.134
  616TIP3    H1 1805   0.359   7.421   0.196
  616TIP3    H2 1806   0.248   7.326   0.154
  617TIP3   OH2 1807   7.016   0.406   3.699
  617TIP3    H1 1808   7.091   0.441   3.747
  617TIP3    H2 1809   6.974   0.345   3.761
  618TIP3   OH2 1810   4.897   0.121   4.733
  618TIP3    H1 1811   4.831   0.055   4.752
  618TIP3    H2 1812   4.949   0.084   4.662
  619TIP3   OH2 1813   7.080   3.938   0.885
  619TIP3    H1 1814   7.074   3.853   0.841
  619TIP3    H2 1815   7.031   3.925   0.966
  620TIP3   OH2 1816   8.253   7.627   4.537
  620TIP3    H1 1817   8.279   7.695   4.598
  620TIP3    H2 1818   8.163   7.604   4.564
  621TIP3   OH2 1819   2.366   0.722   6.780
  621TIP3    H1 1820   2.446   0.719   6.728
  621TIP3    H2 1821   2.346   0.631   6.800
  622TIP3   OH2 1822   3.034   6.574   3.833
  622TIP3    H1 1823   3.110   6.545   3.883
  622TIP3    H2 1824   2.960   6.535   3.878
  623TIP3   OH2 1825   7.204   4.548   5.441
  623TIP3    H1 1826   7.119   4.539   5.485
  623TIP3    H2 1827   7.268   4.525   5.509
  624TIP3   OH2 1828   4.092   4.713   0.963
  624TIP3    H1 1829   4.002   4.743   0.969
  624TIP3    H2 1830   4.099   4.644   1.029
  625TIP3   OH2 1831   3.710   7.488   2.651
  625TIP3    H1 1832   3.700   7.583   2.654
  625TIP3    H2 1833   3.805   7.475   2.640
  626TIP3   OH2 1834   0.535   2.293   5.844
  626TIP3    H1 1835   0.494   2.263   5.925
  626TIP3    H2 1836   0.554   2.213   5.795
  627TIP3   OH2 1837   6.546   2.906   0.008
  627TIP3    H1 1838   6.496   2.827  -0.009
  627TIP3    H2 1839   6.618   2.877   0.064
  628TIP3   OH2 1840   4.194   5.406   4.926
  628TIP3    H1 1841   4.126   5.401   4.993
  628TIP3    H2 1842   4.158   5.360   4.850
  629TIP3   OH2 1843   5.175   1.264   4.375
  629TIP3    H1 1844   5.149   1.355   4.361
  629TIP3    H2 1845   5.248   1.269   4.436
  630TIP3   OH2 1846   3.880   2.145   0.044
  630TIP3    H1 1847   3.947   2.177  -0.017
  630TIP3    H2 1848   3.929   2.112   0.119
  631TIP3   OH2 1849   1.349   6.478   1.457
  631TIP3    H1 1850   1.355   6.572   1.472
  631TIP3    H2 1851   1.281   6.469   1.390
  632TIP3   OH2 1852   4.262   3.644   4.727
  632TIP3    H1 1853   4.237   3.736   4.723
  632TIP3    H2 1854   4.192   3.598   4.680
  633TIP3   OH2 1855   5.322   0.447   1.044
  633TIP3    H1 1856   5.362   0.483   0.965
  633TIP3    H2 1857   5.233   0.424   1.017
  634TIP3   OH2 1858   0.253   6.288   0.567
  634TIP3    H1 1859   0.268   6.365   0.512
  634TIP3    H2 1860   0.290   6.311   0.652
  635TIP3   OH2 1861   8.273   6.699   6.151
  635TIP3    H1 1862   8.285   6.789   6.122
  635TIP3    H2 1863   8.212   6.706   6.225
  636TIP3   OH2 1864   4.599   6.763   0.334
  636TIP3    H1 1865   4.529   6.751   0.271
  636TIP3    H2 1866   4.555   6.767   0.419
  637TIP3   OH2 1867   5.224   3.756   5.567
  637TIP3    H1 1868   5.197   3.668   5.537
  637TIP3    H2 1869   5.253   3.800   5.487
  638TIP3   OH2 1870   2.815   7.037   1.530
  638TIP3    H1 1871   2.844   7.121   1.566
  638TIP3    H2 1872   2.818   6.977   1.605
  639TIP3   OH2 1873   6.819   0.926   2.362
  639TIP3    H1 1874   6.868   0.861   2.411
  639TIP3    H2 1875   6.743   0.878   2.329
  640TIP3   OH2 1876   4.289   5.972   6.712
  640TIP3    H1 1877   4.216   5.955   6.771
  640TIP3    H2 1878   4.249   5.976   6.625
  641TIP3   OH2 1879   0.160   6.114   0.212
  641TIP3    H1 1880   0.123   6.154   0.134
  641TIP3    H2 1881   0.101   6.141   0.283
  642TIP3   OH2 1882   5.835   1.984   3.918
  642TIP3    H1 1883   5.766   1.964   3.855
  642TIP3    H2 1884   5.901   1.915   3.904
  643TIP3   OH2 1885   7.235   4.410   0.637
  643TIP3    H1 1886   7.235   4.316   0.655
  643TIP3    H2 1887   7.165   4.422   0.573
  644TIP3   OH2 1888   5.697   2.365   5.556
  644TIP3    H1 1889   5.751   2.422   5.611
  644TIP3    H2 1890   5.757   2.296   5.528
  645TIP3   OH2 1891   2.118   1.723   0.091
  645TIP3    H1 1892   2.159   1.806   0.067
  645TIP3    H2 1893   2.171   1.657   0.046
  646TIP3   OH2 1894   8.011   0.568   2.674
  646TIP3    H1 1895   8.032   0.475   2.680
  646TIP3    H2 1896   8.090   0.607   2.635
  647TIP3   OH2 1897   3.644   6.030   0.765
  647TIP3    H1 1898   3.674   5.996   0.850
  647TIP3    H2 1899   3.573   6.091   0.787
  648TIP3   OH2 1900   6.586   1.945   0.986
  648TIP3    H1 1901   6.598   2.022   1.042
  648TIP3    H2 1902   6.674   1.922   0.957
  649TIP3   OH2 1903   4.580   5.184   2.087
  649TIP3    H1 1904   4.659   5.216   2.131
  649TIP3    H2 1905   4.587   5.219   1.997
  650TIP3   OH2 1906   3.101   0.927   1.042
  650TIP3    H1 1907   3.049   0.866   1.094
  650TIP3    H2 1908   3.192   0.907   1.065
  651TIP3   OH2 1909   6.157   4.522   4.219
  651TIP3    H1 1910   6.221   4.592   4.232
  651TIP3    H2 1911   6.172   4.491   4.130
  652TIP3   OH2 1912   4.645   4.274   3.713
  652TIP3    H1 1913   4.673   4.366   3.714
  652TIP3    H2 1914   4.706   4.231   3.653
  653TIP3   OH2 1915   3.858   4.489   4.972
  653TIP3    H1 1916   3.802   4.551   4.925
  653TIP3    H2 1917   3.922   4.544   5.018
  654TIP3   OH2 1918   5.835   0.289   4.390
  654TIP3    H1 1919   5.928   0.310   4.404
  654TIP3    H2 1920   5.790   0.373   4.400
  655TIP3   OH2 1921   5.398   1.993   3.181
  655TIP3    H1 1922   5.488   1.993   3.212
  655TIP3    H2 1923   5.358   1.917   3.222
  656TIP3   OH2 1924   1.386   7.647   6.584
  656TIP3    H1 1925   1.343   7.719   6.539
  656TIP3    H2 1926   1.319   7.578   6.588
  657TIP3   OH2 1927   2.137   5.054   5.029
  657TIP3    H1 1928   2.229   5.028   5.032
  657TIP3    H2 1929   2.101   5.022   5.112
  658TIP3   OH2 1930   2.801   3.766   2.337
  658TIP3    H1 1931   2.756   3.820   2.402
  658TIP3    H2 1932   2.890   3.757   2.370
  659TIP3   OH2 1933   5.015   5.147   2.752
  659TIP3    H1 1934   5.002   5.134   2.658
  659TIP3    H2 1935   4.963   5.079   2.794
  660TIP3   OH2 1936   7.591   6.335   3.936
  660TIP3    H1 1937   7.511   6.388   3.942
  660TIP3    H2 1938   7.633   6.346   4.021
  661TIP3   OH2 1939   0.295   5.896   0.349
  661TIP3    H1 1940   0.250   5.969   0.307
  661TIP3    H2 1941   0.359   5.867   0.283
  662TIP3   OH2 1942   3.955   5.420   5.062
  662TIP3    H1 1943   3.922   5.430   5.151
  662TIP3    H2 1944   3.893   5.470   5.008
  663TIP3   OH2 1945   0.064   6.209   5.539
  663TIP3    H1 1946   0.051   6.137   5.600
  663TIP3    H2 1947   0.159   6.215   5.529
  664TIP3   OH2 1948   2.072   2.818   2.304
  664TIP3    H1 1949   2.007   2.805   2.236
  664TIP3    H2 1950   2.087   2.731   2.341
  665TIP3   OH2 1951   4.441   0.808   2.616
  665TIP3    H1 1952   4.478   0.748   2.681
  665TIP3    H2 1953   4.356   0.833   2.652
  666TIP3   OH2 1954   3.504   7.876   6.403
  666TIP3    H1 1955   3.457   7.801   6.367
  666TIP3    H2 1956   3.548   7.841   6.480
  667TIP3   OH2 1957   7.381   5.582   6.783
  667TIP3    H1 1958   7.297   5.536   6.790
  667TIP3    H2 1959   7.443   5.515   6.756
  668TIP3   OH2 1960   1.823   3.591   1.392
  668TIP3    H1 1961   1.733   3.574   1.365
  668TIP3    H2 1962   1.818   3.670   1.445
  669TIP3   OH2 1963   7.110   5.792   4.737
  669TIP3    H1 1964   7.069   5.873   4.766
  669TIP3    H2 1965   7.053   5.722   4.769
  670TIP3   OH2 1966   6.477   7.750   0.523
  670TIP3    H1 1967   6.429   7.667   0.520
  670TIP3    H2 1968   6.559   7.731   0.476
  671TIP3   OH2 1969   5.737   7.829   2.527
  671TIP3    H1 1970   5.650   7.789   2.519
  671TIP3    H2 1971   5.769   7.833   2.437
  672TIP3   OH2 1972   5.122   3.761   3.068
  672TIP3    H1 1973   5.065   3.826   3.110
  672TIP3    H2 1974   5.189   3.742   3.135
  673TIP3   OH2 1975   5.804   0.162   1.131
  673TIP3    H1 1976   5.865   0.125   1.195
  673TIP3    H2 1977   5.718   0.158   1.174
  674TIP3   OH2 1978   2.661   2.537   6.147
  674TIP3    H1 1979   2.590   2.529   6.211
  674TIP3    H2 1980   2.671   2.632   6.135
  675TIP3   OH2 1981   4.024   0.969   5.338
  675TIP3    H1 1982   4.022   1.020   5.258
  675TIP3    H2 1983   3.937   0.930   5.345
  676TIP3   OH2 1984   5.370   3.593   5.175
  676TIP3    H1 1985   5.366   3.590   5.079
  676TIP3    H2 1986   5.453   3.638   5.194
  677TIP3   OH2 1987   5.629   6.469   6.355
  677TIP3    H1 1988   5.594   6.548   6.396
  677TIP3    H2 1989   5.597   6.397   6.409
  678TIP3   OH2 1990   3.710   6.432   5.413
  678TIP3    H1 1991   3.670   6.400   5.332
  678TIP3    H2 1992   3.681   6.523   5.419
  679TIP3   OH2 1993   2.572   5.160   4.363
  679TIP3    H1 1994   2.495   5.140   4.311
  679TIP3    H2 1995   2.549   5.131   4.452
  680TIP3   OH2 1996   1.240   3.755   5.849
  680TIP3    H1 1997   1.266   3.719   5.934
  680TIP3    H2 1998   1.150   3.786   5.863
  681TIP3   OH2 1999   5.484   7.294   5.172
  681TIP3    H1 2000   5.463   7.387   5.173
  681TIP3    H2 2001   5.579   7.291   5.185
  682TIP3   OH2 2002   6.473   0.936   3.126
  682TIP3    H1 2003   6.409   0.883   3.174
  682TIP3    H2 2004   6.424   1.012   3.095
  683TIP3   OH2 2005   5.096   1.602   4.169
  683TIP3    H1 2006   5.189   1.618   4.184
  683TIP3    H2 2007   5.067   1.560   4.250
  684TIP3   OH2 2008   5.795   1.935   3.534
  684TIP3    H1 2009   5.863   1.882   3.577
  684TIP3    H2 2010   5.834   2.022   3.525
  685TIP3   OH2 2011   4.813   1.398   5.811
  685TIP3    H1 2012   4.888   1.366   5.861
  685TIP3    H2 2013   4.831   1.373   5.721
  686TIP3   OH2 2014   5.144   3.709   4.478
  686TIP3    H1 2015   5.075   3.726   4.543
  686TIP3    H2 2016   5.101   3.654   4.412
  687TIP3   OH2 2017   8.015   2.549   5.925
  687TIP3    H1 2018   8.082   2.498   5.878
  687TIP3    H2 2019   7.937   2.494   5.922
  688TIP3   OH2 2020   1.308   1.418   0.411
  688TIP3    H1 2021   1.286   1.337   0.364
  688TIP3    H2 2022   1.291   1.398   0.503
  689TIP3   OH2 2023   5.866   4.797   2.224
  689TIP3    H1 2024   5.917   4.726   2.184
  689TIP3    H2 2025   5.929   4.869   2.232
  690TIP3   OH2 2026   6.176   5.089   4.040
  690TIP3    H1 2027   6.200   5.145   4.113
  690TIP3    H2 2028   6.191   5.000   4.073
  691TIP3   OH2 2029   1.966   6.335   1.230
  691TIP3    H1 2030   1.953   6.414   1.282
  691TIP3    H2 2031   1.903   6.272   1.266
  692TIP3   OH2 2032   1.579   4.338   1.360
  692TIP3    H1 2033   1.504   4.308   1.411
  692TIP3    H2 2034   1.545   4.350   1.271
  693TIP3   OH2 2035   5.847   2.494   0.830
  693TIP3    H1 2036   5.867   2.414   0.879
  693TIP3    H2 2037   5.769   2.529   0.873
  694TIP3   OH2 2038   1.240   7.501   3.469
  694TIP3    H1 2039   1.195   7.437   3.414
  694TIP3    H2 2040   1.328   7.467   3.479
  695TIP3   OH2 2041   2.337   1.637   4.776
  695TIP3    H1 2042   2.277   1.573   4.738
  695TIP3    H2 2043   2.322   1.631   4.870
  696TIP3   OH2 2044   1.474   4.326   4.129
  696TIP3    H1 2045   1.532   4.400   4.145
  696TIP3    H2 2046   1.507   4.257   4.187
  697TIP3   OH2 2047   8.016   7.733   5.283
  697TIP3    H1 2048   8.051   7.695   5.364
  697TIP3    H2 2049   8.047   7.824   5.283
  698TIP3   OH2 2050   4.783   1.591   6.219
  698TIP3    H1 2051   4.763   1.676   6.258
  698TIP3    H2 2052   4.701   1.542   6.224
  699TIP3   OH2 2053   4.871   6.557   4.220
  699TIP3    H1 2054   4.963   6.531   4.208
  699TIP3    H2 2055   4.851   6.532   4.310
  700TIP3   OH2 2056   5.054   0.451   2.586
  700TIP3    H1 2057   5.036   0.455   2.492
  700TIP3    H2 2058   5.015   0.368   2.614
  701TIP3   OH2 2059   1.810   3.048   0.765
  701TIP3    H1 2060   1.813   3.116   0.697
  701TIP3    H2 2061   1.879   2.986   0.739
  702TIP3   OH2 2062   5.417   4.297   5.644
  702TIP3    H1 2063   5.379   4.216   5.609
  702TIP3    H2 2064   5.346   4.361   5.637
  703TIP3   OH2 2065   6.305   7.058   5.240
  703TIP3    H1 2066   6.244   7.001   5.287
  703TIP3    H2 2067   6.391   7.018   5.255
  704TIP3   OH2 2068   7.224   6.273   5.374
  704TIP3    H1 2069   7.284   6.313   5.437
  704TIP3    H2 2070   7.281   6.233   5.309
  705TIP3   OH2 2071   6.319   4.604   0.559
  705TIP3    H1 2072   6.340   4.538   0.625
  705TIP3    H2 2073   6.377   4.678   0.579
  706TIP3   OH2 2074   4.508   2.284   5.950
  706TIP3    H1 2075   4.559   2.216   5.994
  706TIP3    H2 2076   4.546   2.291   5.863
  707TIP3   OH2 2077   1.229   0.408   0.699
  707TIP3    H1 2078   1.181   0.478   0.742
  707TIP3    H2 2079   1.164   0.338   0.687
  708TIP3   OH2 2080   7.772   4.602   6.573
  708TIP3    H1 2081   7.762   4.665   6.644
  708TIP3    H2 2082   7.690   4.609   6.524
  709TIP3   OH2 2083   3.140   2.977   3.070
  709TIP3    H1 2084   3.065   2.994   3.013
  709TIP3    H2 2085   3.167   2.888   3.049
  710TIP3   OH2 2086   5.402   1.985   6.354
  710TIP3    H1 2087   5.329   2.047   6.351
  710TIP3    H2 2088   5.474   2.031   6.311
  711TIP3   OH2 2089   0.248   2.903   6.570
  711TIP3    H1 2090   0.310   2.854   6.516
  711TIP3    H2 2091   0.292   2.914   6.654
  712TIP3   OH2 2092   6.750   6.449   4.430
  712TIP3    H1 2093   6.751   6.537   4.468
  712TIP3    H2 2094   6.675   6.450   4.370
  713TIP3   OH2 2095   1.527   2.372   2.184
  713TIP3    H1 2096   1.448   2.318   2.191
  713TIP3    H2 2097   1.494   2.460   2.169
  714TIP3   OH2 2098   2.952   7.654   5.074
  714TIP3    H1 2099   2.898   7.577   5.090
  714TIP3    H2 2100   2.944   7.706   5.154
  715TIP3   OH2 2101   0.304   5.580   3.504
  715TIP3    H1 2102   0.261   5.663   3.524
  715TIP3    H2 2103   0.327   5.587   3.411
  716TIP3   OH2 2104   1.069   6.219   0.061
  716TIP3    H1 2105   1.149   6.192   0.106
  716TIP3    H2 2106   1.011   6.248   0.131
  717TIP3   OH2 2107   3.204   0.013   0.854
  717TIP3    H1 2108   3.127   0.034   0.801
  717TIP3    H2 2109   3.236  -0.070   0.819
  718TIP3   OH2 2110   4.274   4.499   2.483
  718TIP3    H1 2111   4.265   4.468   2.573
  718TIP3    H2 2112   4.339   4.569   2.488
  719TIP3   OH2 2113   1.452   6.121   1.786
  719TIP3    H1 2114   1.487   6.033   1.775
  719TIP3    H2 2115   1.364   6.108   1.821
  720TIP3   OH2 2116   5.712   6.913   0.589
  720TIP3    H1 2117   5.624   6.879   0.602
  720TIP3    H2 2118   5.713   6.996   0.636
  721TIP3   OH2 2119   0.898   6.385   6.681
  721TIP3    H1 2120   0.976   6.383   6.625
  721TIP3    H2 2121   0.902   6.304   6.730
  722TIP3   OH2 2122   7.415   4.318   5.480
  722TIP3    H1 2123   7.335   4.274   5.509
  722TIP3    H2 2124   7.477   4.305   5.552
  723TIP3   OH2 2125   1.194   2.038   6.109
  723TIP3    H1 2126   1.172   2.093   6.185
  723TIP3    H2 2127   1.279   2.000   6.131
  724TIP3   OH2 2128   0.347   2.141   0.980
  724TIP3    H1 2129   0.351   2.202   1.053
  724TIP3    H2 2130   0.357   2.054   1.020
  725TIP3   OH2 2131   4.749   5.595   0.256
  725TIP3    H1 2132   4.789   5.585   0.170
  725TIP3    H2 2133   4.660   5.562   0.246
  726TIP3   OH2 2134   4.722   4.555   2.617
  726TIP3    H1 2135   4.755   4.517   2.536
  726TIP3    H2 2136   4.712   4.648   2.599
  727TIP3   OH2 2137   2.679   5.547   3.606
  727TIP3    H1 2138   2.771   5.533   3.628
  727TIP3    H2 2139   2.669   5.507   3.519
  728TIP3   OH2 2140   3.555   3.803   1.812
  728TIP3    H1 2141   3.526   3.812   1.721
  728TIP3    H2 2142   3.583   3.891   1.837
  729TIP3   OH2 2143   6.752   3.361   4.692
  729TIP3    H1 2144   6.671   3.315   4.715
  729TIP3    H2 2145   6.737   3.394   4.603
  730TIP3   OH2 2146   7.537   2.500   5.267
  730TIP3    H1 2147   7.576   2.423   5.227
  730TIP3    H2 2148   7.571   2.574   5.217
  731TIP3   OH2 2149   7.427   0.454   4.709
  731TIP3    H1 2150   7.427   0.478   4.802
  731TIP3    H2 2151   7.405   0.535   4.663
  732TIP3   OH2 2152   0.112   3.907   5.536
  732TIP3    H1 2153   0.163   3.826   5.536
  732TIP3    H2 2154   0.132   3.948   5.620
  733TIP3   OH2 2155   0.133   1.158   3.255
  733TIP3    H1 2156   0.108   1.169   3.347
  733TIP3    H2 2157   0.065   1.203   3.206
  734TIP3   OH2 2158   4.531   6.182   1.350
  734TIP3    H1 2159   4.592   6.117   1.316
  734TIP3    H2 2160   4.478   6.134   1.413
  735TIP3   OH2 2161   2.996   5.701   4.013
  735TIP3    H1 2162   3.057   5.693   4.087
  735TIP3    H2 2163   2.910   5.706   4.054
  736TIP3   OH2 2164   2.760   7.259   4.031
  736TIP3    H1 2165   2.699   7.201   4.077
  736TIP3    H2 2166   2.717   7.277   3.948
  737TIP3   OH2 2167   4.150   6.540   3.304
  737TIP3    H1 2168   4.178   6.623   3.341
  737TIP3    H2 2169   4.135   6.559   3.211
  738TIP3   OH2 2170   1.351   5.575   1.804
  738TIP3    H1 2171   1.417   5.644   1.801
  738TIP3    H2 2172   1.345   5.543   1.714
  739TIP3   OH2 2173   3.888   6.022   3.092
  739TIP3    H1 2174   3.811   6.080   3.092
  739TIP3    H2 2175   3.954   6.070   3.141
  740TIP3   OH2 2176   5.503   7.282   0.497
  740TIP3    H1 2177   5.438   7.329   0.445
  740TIP3    H2 2178   5.458   7.263   0.579
  741TIP3   OH2 2179   3.347   4.099   2.689
  741TIP3    H1 2180   3.394   4.115   2.607
  741TIP3    H2 2181   3.397   4.029   2.731
  742TIP3   OH2 2182   3.556   4.091   4.146
  742TIP3    H1 2183   3.550   4.045   4.062
  742TIP3    H2 2184   3.481   4.151   4.147
  743TIP3   OH2 2185   6.279   3.214   1.600
  743TIP3    H1 2186   6.345   3.283   1.597
  743TIP3    H2 2187   6.200   3.257   1.632
  744TIP3   OH2 2188   4.537   6.702   5.623
  744TIP3    H1 2189   4.457   6.739   5.660
  744TIP3    H2 2190   4.586   6.778   5.592
  745TIP3   OH2 2191   1.360   1.979   0.136
  745TIP3    H1 2192   1.272   2.007   0.160
  745TIP3    H2 2193   1.415   2.006   0.209
  746TIP3   OH2 2194   7.391   4.571   3.038
  746TIP3    H1 2195   7.467   4.514   3.049
  746TIP3    H2 2196   7.323   4.530   3.091
  747TIP3   OH2 2197   3.347   4.388   4.828
  747TIP3    H1 2198   3.417   4.357   4.772
  747TIP3    H2 2199   3.328   4.315   4.886
  748TIP3   OH2 2200   2.281   4.676  -0.009
  748TIP3    H1 2201   2.251   4.765   0.008
  748TIP3    H2 2202   2.201   4.623  -0.003
  749TIP3   OH2 2203   3.769   4.559   5.526
  749TIP3    H1 2204   3.840   4.621   5.508
  749TIP3    H2 2205   3.745   4.524   5.440
  750TIP3   OH2 2206   1.286   3.159   1.914
  750TIP3    H1 2207   1.259   3.071   1.888
  750TIP3    H2 2208   1.303   3.153   2.008
  751TIP3   OH2 2209   7.738   7.409   1.157
  751TIP3    H1 2210   7.719   7.353   1.081
  751TIP3    H2 2211   7.666   7.393   1.217
  752TIP3   OH2 2212   4.444   6.028   2.017
  752TIP3    H1 2213   4.432   6.014   1.923
  752TIP3    H2 2214   4.409   6.116   2.032
  753TIP3   OH2 2215   6.569   5.012   5.481
  753TIP3    H1 2216   6.505   4.974   5.421
  753TIP3    H2 2217   6.598   4.939   5.535
  754TIP3   OH2 2218   2.469   5.685   3.291
  754TIP3    H1 2219   2.545   5.738   3.312
  754TIP3    H2 2220   2.395   5.734   3.327
  755TIP3   OH2 2221   5.301   4.421   1.561
  755TIP3    H1 2222   5.326   4.396   1.471
  755TIP3    H2 2223   5.256   4.343   1.595
  756TIP3   OH2 2224   6.944   4.559   3.097
  756TIP3    H1 2225   6.855   4.538   3.126
  756TIP3    H2 2226   6.972   4.480   3.050
  757TIP3   OH2 2227   6.395   1.273   4.524
  757TIP3    H1 2228   6.490   1.265   4.529
  757TIP3    H2 2229   6.380   1.347   4.465
  758TIP3   OH2 2230   7.775   7.140   6.124
  758TIP3    H1 2231   7.706   7.169   6.064
  758TIP3    H2 2232   7.746   7.054   6.154
  759TIP3   OH2 2233   7.251   0.885   6.463
  759TIP3    H1 2234   7.241   0.830   6.541
  759TIP3    H2 2235   7.170   0.936   6.459
  760TIP3   OH2 2236   7.339   2.935   5.578
  760TIP3    H1 2237   7.347   2.930   5.483
  760TIP3    H2 2238   7.400   2.869   5.611
  761TIP3   OH2 2239   8.183   0.043   3.565
  761TIP3    H1 2240   8.158   0.128   3.528
  761TIP3    H2 2241   8.209  -0.009   3.489
  762TIP3   OH2 2242   6.018   0.318   2.133
  762TIP3    H1 2243   5.994   0.233   2.098
  762TIP3    H2 2244   5.937   0.369   2.132
  763TIP3   OH2 2245   0.890   7.344   3.990
  763TIP3    H1 2246   0.876   7.432   4.025
  763TIP3    H2 2247   0.984   7.341   3.971
  764TIP3   OH2 2248   7.482   7.615   4.085
  764TIP3    H1 2249   7.429   7.557   4.031
  764TIP3    H2 2250   7.513   7.682   4.024
  765TIP3   OH2 2251   2.996   1.472   1.798
  765TIP3    H1 2252   3.027   1.557   1.767
  765TIP3    H2 2253   3.047   1.408   1.748
  766TIP3   OH2 2254   0.857   1.186   5.810
  766TIP3    H1 2255   0.830   1.189   5.901
  766TIP3    H2 2256   0.929   1.249   5.804
  767TIP3   OH2 2257   1.547   3.146   4.900
  767TIP3    H1 2258   1.638   3.175   4.908
  767TIP3    H2 2259   1.544   3.098   4.817
  768TIP3   OH2 2260   2.420   0.395   0.051
  768TIP3    H1 2261   2.398   0.304   0.070
  768TIP3    H2 2262   2.514   0.401   0.068
  769TIP3   OH2 2263   5.665   3.237   0.132
  769TIP3    H1 2264   5.757   3.223   0.108
  769TIP3    H2 2265   5.663   3.323   0.173
  770TIP3   OH2 2266   0.829   5.674   1.271
  770TIP3    H1 2267   0.871   5.588   1.273
  770TIP3    H2 2268   0.740   5.656   1.242
  771TIP3   OH2 2269   1.471   1.417   4.144
  771TIP3    H1 2270   1.512   1.356   4.082
  771TIP3    H2 2271   1.411   1.469   4.090
  772TIP3   OH2 2272   1.902   5.623   1.453
  772TIP3    H1 2273   1.813   5.647   1.480
  772TIP3    H2 2274   1.947   5.707   1.443
  773TIP3   OH2 2275   2.173   0.659   5.156
  773TIP3    H1 2276   2.113   0.732   5.140
  773TIP3    H2 2277   2.187   0.622   5.069
  774TIP3   OH2 2278   3.829   0.646   1.635
  774TIP3    H1 2279   3.849   0.695   1.555
  774TIP3    H2 2280   3.735   0.633   1.633
  775TIP3   OH2 2281   3.210   6.873   2.653
  775TIP3    H1 2282   3.286   6.841   2.701
  775TIP3    H2 2283   3.136   6.858   2.712
  776TIP3   OH2 2284   7.008   1.379   4.118
  776TIP3    H1 2285   7.048   1.295   4.097
  776TIP3    H2 2286   7.004   1.380   4.214
  777TIP3   OH2 2287   1.544   6.736   2.005
  777TIP3    H1 2288   1.508   6.649   1.987
  777TIP3    H2 2289   1.568   6.735   2.097
  778TIP3   OH2 2290   1.642   3.895   2.645
  778TIP3    H1 2291   1.680   3.922   2.562
  778TIP3    H2 2292   1.551   3.872   2.623
  779TIP3   OH2 2293   6.445   2.143   0.417
  779TIP3    H1 2294   6.413   2.054   0.427
  779TIP3    H2 2295   6.541   2.135   0.419
  780TIP3   OH2 2296   5.377   6.099   5.113
  780TIP3    H1 2297   5.395   6.068   5.024
  780TIP3    H2 2298   5.287   6.129   5.110
  781TIP3   OH2 2299   2.401   4.897   6.306
  781TIP3    H1 2300   2.435   4.865   6.390
  781TIP3    H2 2301   2.467   4.869   6.242
  782TIP3   OH2 2302   2.837   4.758   2.006
  782TIP3    H1 2303   2.914   4.800   2.044
  782TIP3    H2 2304   2.793   4.717   2.080
  783TIP3   OH2 2305   1.319   1.684   2.686
  783TIP3    H1 2306   1.407   1.678   2.649
  783TIP3    H2 2307   1.329   1.735   2.766
  784TIP3   OH2 2308   3.618   1.188   2.083
  784TIP3    H1 2309   3.562   1.152   2.152
  784TIP3    H2 2310   3.568   1.262   2.048
  785TIP3   OH2 2311   2.195   5.670   3.879
  785TIP3    H1 2312   2.252   5.745   3.866
  785TIP3    H2 2313   2.251   5.594   3.868
  786TIP3   OH2 2314   0.330   7.753   3.660
  786TIP3    H1 2315   0.261   7.817   3.645
  786TIP3    H2 2316   0.300   7.703   3.736
  787TIP3   OH2 2317   7.753   5.479   5.807
  787TIP3    H1 2318   7.671   5.497   5.760
  787TIP3    H2 2319   7.737   5.512   5.896
  788TIP3   OH2 2320   6.158   2.865   6.450
  788TIP3    H1 2321   6.142   2.816   6.531
  788TIP3    H2 2322   6.072   2.872   6.408
  789TIP3   OH2 2323   0.058   3.350   2.796
  789TIP3    H1 2324   0.044   3.289   2.723
  789TIP3    H2 2325   0.153   3.353   2.807
  790TIP3   OH2 2326   5.875   6.537   4.202
  790TIP3    H1 2327   5.877   6.475   4.130
  790TIP3    H2 2328   5.923   6.494   4.273
  791TIP3   OH2 2329   7.453   4.559   3.633
  791TIP3    H1 2330   7.508   4.564   3.710
  791TIP3    H2 2331   7.369   4.525   3.666
  792TIP3   OH2 2332   1.292   6.581   0.817
  792TIP3    H1 2333   1.249   6.542   0.742
  792TIP3    H2 2334   1.386   6.571   0.799
  793TIP3   OH2 2335   1.814   7.489   3.402
  793TIP3    H1 2336   1.844   7.399   3.414
  793TIP3    H2 2337   1.888   7.543   3.430
  794TIP3   OH2 2338   5.772   1.577   3.156
  794TIP3    H1 2339   5.853   1.535   3.126
  794TIP3    H2 2340   5.789   1.671   3.150
  795TIP3   OH2 2341   6.442   4.104   0.910
  795TIP3    H1 2342   6.477   4.169   0.971
  795TIP3    H2 2343   6.414   4.032   0.967
  796TIP3   OH2 2344   2.165   1.423   6.621
  796TIP3    H1 2345   2.190   1.338   6.658
  796TIP3    H2 2346   2.147   1.404   6.529
  797TIP3   OH2 2347   5.184   5.408   5.217
  797TIP3    H1 2348   5.138   5.491   5.229
  797TIP3    H2 2349   5.122   5.341   5.246
  798TIP3   OH2 2350   4.534   0.569   6.204
  798TIP3    H1 2351   4.513   0.597   6.115
  798TIP3    H2 2352   4.603   0.629   6.232
  799TIP3   OH2 2353   8.045   3.577   0.669
  799TIP3    H1 2354   8.084   3.513   0.729
  799TIP3    H2 2355   7.988   3.524   0.612
  800TIP3   OH2 2356   1.217   2.780   6.471
  800TIP3    H1 2357   1.212   2.828   6.389
  800TIP3    H2 2358   1.309   2.753   6.477
  801TIP3   OH2 2359   5.371   3.508   2.419
  801TIP3    H1 2360   5.457   3.467   2.433
  801TIP3    H2 2361   5.337   3.466   2.341
  802TIP3   OH2 2362   4.333   5.265   6.006
  802TIP3    H1 2363   4.328   5.171   5.990
  802TIP3    H2 2364   4.337   5.273   6.102
  803TIP3   OH2 2365   4.993   2.968   0.174
  803TIP3    H1 2366   4.924   3.011   0.224
  803TIP3    H2 2367   4.983   2.875   0.194
  804TIP3   OH2 2368   0.471   2.554   6.676
  804TIP3    H1 2369   0.397   2.548   6.736
  804TIP3    H2 2370   0.547   2.534   6.731
  805TIP3   OH2 2371   4.103   6.371   3.631
  805TIP3    H1 2372   4.196   6.377   3.612
  805TIP3    H2 2373   4.073   6.295   3.582
  806TIP3   OH2 2374   2.851   3.716   0.116
  806TIP3    H1 2375   2.868   3.700   0.023
  806TIP3    H2 2376   2.765   3.677   0.131
  807TIP3   OH2 2377   4.771   6.290   3.304
  807TIP3    H1 2378   4.766   6.236   3.383
  807TIP3    H2 2379   4.694   6.347   3.309
  808TIP3   OH2 2380   6.169   4.953   6.140
  808TIP3    H1 2381   6.153   4.965   6.234
  808TIP3    H2 2382   6.102   4.891   6.112
  809TIP3   OH2 2383   0.873   6.622   4.106
  809TIP3    H1 2384   0.952   6.675   4.096
  809TIP3    H2 2385   0.836   6.618   4.018
  810TIP3   OH2 2386   7.496   7.588   0.716
  810TIP3    H1 2387   7.429   7.545   0.662
  810TIP3    H2 2388   7.579   7.561   0.677
  811TIP3   OH2 2389   6.924   0.105   2.013
  811TIP3    H1 2390   6.925   0.149   1.928
  811TIP3    H2 2391   7.000   0.140   2.059
  812TIP3   OH2 2392   3.139   0.167   5.206
  812TIP3    H1 2393   3.168   0.245   5.160
  812TIP3    H2 2394   3.219   0.115   5.218
  813TIP3   OH2 2395   4.885   7.757   0.354
  813TIP3    H1 2396   4.795   7.777   0.326
  813TIP3    H2 2397   4.939   7.819   0.306
  814TIP3   OH2 2398   0.612   7.363   5.361
  814TIP3    H1 2399   0.648   7.285   5.319
  814TIP3    H2 2400   0.659   7.436   5.321
  815TIP3   OH2 2401   3.490   0.202   1.772
  815TIP3    H1 2402   3.454   0.263   1.837
  815TIP3    H2 2403   3.452   0.231   1.689
  816TIP3   OH2 2404   3.556   6.626   3.631
  816TIP3    H1 2405   3.492   6.646   3.700
  816TIP3    H2 2406   3.636   6.671   3.658
  817TIP3   OH2 2407   5.170   5.887   4.980
  817TIP3    H1 2408   5.173   5.890   5.076
  817TIP3    H2 2409   5.208   5.801   4.958
  818TIP3   OH2 2410   3.024   3.540   1.338
  818TIP3    H1 2411   3.009   3.503   1.251
  818TIP3    H2 2412   3.102   3.594   1.328
  819TIP3   OH2 2413   3.657   6.787   2.759
  819TIP3    H1 2414   3.653   6.801   2.854
  819TIP3    H2 2415   3.697   6.867   2.725
  820TIP3   OH2 2416   6.808   6.231   0.704
  820TIP3    H1 2417   6.800   6.238   0.609
  820TIP3    H2 2418   6.848   6.145   0.717
  821TIP3   OH2 2419   6.976   5.503   5.196
  821TIP3    H1 2420   6.970   5.470   5.285
  821TIP3    H2 2421   6.985   5.425   5.141
  822TIP3   OH2 2422   6.501   0.347   2.586
  822TIP3    H1 2423   6.595   0.358   2.572
  822TIP3    H2 2424   6.461   0.410   2.526
  823TIP3   OH2 2425   0.415   1.332   3.606
  823TIP3    H1 2426   0.438   1.378   3.525
  823TIP3    H2 2427   0.459   1.381   3.675
  824TIP3   OH2 2428   2.224   3.606   2.909
  824TIP3    H1 2429   2.271   3.601   2.826
  824TIP3    H2 2430   2.225   3.517   2.942
  825TIP3   OH2 2431   1.288   1.295   4.333
  825TIP3    H1 2432   1.273   1.212   4.287
  825TIP3    H2 2433   1.345   1.344   4.274
  826TIP3   OH2 2434   8.087   5.852   0.606
  826TIP3    H1 2435   8.063   5.838   0.698
  826TIP3    H2 2436   8.160   5.791   0.592
  827TIP3   OH2 2437   1.738   0.396   1.877
  827TIP3    H1 2438   1.741   0.389   1.782
  827TIP3    H2 2439   1.803   0.333   1.908
  828TIP3   OH2 2440   3.636   3.873   4.823
  828TIP3    H1 2441   3.551   3.917   4.825
  828TIP3    H2 2442   3.614   3.779   4.822
  829TIP3   OH2 2443   0.119   7.441   4.656
  829TIP3    H1 2444   0.072   7.502   4.599
  829TIP3    H2 2445   0.061   7.428   4.731
  830TIP3   OH2 2446   2.264   3.425   4.944
  830TIP3    H1 2447   2.270   3.435   5.039
  830TIP3    H2 2448   2.355   3.430   4.914
  831TIP3   OH2 2449   7.865   6.902   1.585
  831TIP3    H1 2450   7.850   6.965   1.514
  831TIP3    H2 2451   7.950   6.863   1.563
  832TIP3   OH2 2452   8.114   2.965   3.190
  832TIP3    H1 2453   8.058   2.931   3.259
  832TIP3    H2 2454   8.072   2.937   3.108
  833TIP3   OH2 2455   3.147   4.337   6.014
  833TIP3    H1 2456   3.087   4.376   5.950
  833TIP3    H2 2457   3.229   4.384   6.001
  834TIP3   OH2 2458   4.983   3.533   3.584
  834TIP3    H1 2459   4.971   3.566   3.673
  834TIP3    H2 2460   4.916   3.465   3.574
  835TIP3   OH2 2461   1.554   6.587   0.263
  835TIP3    H1 2462   1.604   6.586   0.182
  835TIP3    H2 2463   1.608   6.538   0.325
  836TIP3   OH2 2464   0.192   0.293   2.323
  836TIP3    H1 2465   0.241   0.299   2.405
  836TIP3    H2 2466   0.249   0.332   2.258
  837TIP3   OH2 2467   4.174   1.883   0.346
  837TIP3    H1 2468   4.143   1.895   0.257
  837TIP3    H2 2469   4.265   1.855   0.337
  838TIP3   OH2 2470   0.342   5.333   3.178
  838TIP3    H1 2471   0.355   5.393   3.104
  838TIP3    H2 2472   0.254   5.299   3.165
  839TIP3   OH2 2473   5.917   4.268   5.690
  839TIP3    H1 2474   5.850   4.302   5.630
  839TIP3    H2 2475   5.956   4.194   5.643
  840TIP3   OH2 2476   5.521   1.678   3.422
  840TIP3    H1 2477   5.587   1.609   3.432
  840TIP3    H2 2478   5.478   1.683   3.508
  841TIP3   OH2 2479   5.387   3.170   1.665
  841TIP3    H1 2480   5.313   3.213   1.708
  841TIP3    H2 2481   5.432   3.241   1.618
  842TIP3   OH2 2482   3.067   5.440   2.841
  842TIP3    H1 2483   3.100   5.505   2.779
  842TIP3    H2 2484   3.032   5.492   2.914
  843TIP3   OH2 2485   3.131   3.722   4.611
  843TIP3    H1 2486   3.131   3.806   4.567
  843TIP3    H2 2487   3.162   3.741   4.700
  844TIP3   OH2 2488   6.654   2.093   4.659
  844TIP3    H1 2489   6.669   2.159   4.591
  844TIP3    H2 2490   6.737   2.086   4.705
  845TIP3   OH2 2491   3.100   6.561   6.493
  845TIP3    H1 2492   3.047   6.624   6.541
  845TIP3    H2 2493   3.178   6.548   6.547
  846TIP3   OH2 2494   0.153   4.606   5.684
  846TIP3    H1 2495   0.075   4.661   5.674
  846TIP3    H2 2496   0.164   4.564   5.599
  847TIP3   OH2 2497   1.120   6.570   5.143
  847TIP3    H1 2498   1.196   6.608   5.187
  847TIP3    H2 2499   1.086   6.640   5.087
  848TIP3   OH2 2500   2.740   6.134   5.829
  848TIP3    H1 2501   2.745   6.198   5.757
  848TIP3    H2 2502   2.752   6.049   5.786
  849TIP3   OH2 2503   5.579   0.847   2.431
  849TIP3    H1 2504   5.648   0.796   2.472
  849TIP3    H2 2505   5.539   0.788   2.367
  850TIP3   OH2 2506   7.967   4.634   0.835
  850TIP3    H1 2507   7.899   4.675   0.781
  850TIP3    H2 2508   7.929   4.551   0.864
  851TIP3   OH2 2509   3.665   4.916   4.049
  851TIP3    H1 2510   3.687   4.825   4.028
  851TIP3    H2 2511   3.741   4.948   4.099
  852TIP3   OH2 2512   2.280   2.852   5.432
  852TIP3    H1 2513   2.335   2.774   5.438
  852TIP3    H2 2514   2.227   2.851   5.512
  853TIP3   OH2 2515   7.558   3.349   3.322
  853TIP3    H1 2516   7.637   3.302   3.294
  853TIP3    H2 2517   7.592   3.423   3.372
  854TIP3   OH2 2518   1.426   6.876   3.225
  854TIP3    H1 2519   1.401   6.822   3.150
  854TIP3    H2 2520   1.353   6.868   3.286
  855TIP3   OH2 2521   0.080   3.336   3.228
  855TIP3    H1 2522   0.094   3.431   3.229
  855TIP3    H2 2523   0.142   3.304   3.162
  856TIP3   OH2 2524   4.196   7.377   4.356
  856TIP3    H1 2525   4.130   7.434   4.395
  856TIP3    H2 2526   4.233   7.428   4.284
  857TIP3   OH2 2527   1.572   4.727   0.109
  857TIP3    H1 2528   1.659   4.749   0.140
  857TIP3    H2 2529   1.523   4.809   0.114
  858TIP3   OH2 2530   6.022   1.772   3.972
  858TIP3    H1 2531   6.068   1.725   3.902
  858TIP3    H2 2532   6.028   1.714   4.048
  859TIP3   OH2 2533   4.872   6.620   6.177
  859TIP3    H1 2534   4.952   6.601   6.226
  859TIP3    H2 2535   4.894   6.599   6.087
  860TIP3   OH2 2536   4.730   4.821   6.625
  860TIP3    H1 2537   4.665   4.889   6.644
  860TIP3    H2 2538   4.808   4.850   6.672
  861TIP3   OH2 2539   8.209   4.340   6.195
  861TIP3    H1 2540   8.226   4.434   6.205
  861TIP3    H2 2541   8.263   4.314   6.121
  862TIP3   OH2 2542   1.367   0.481   4.776
  862TIP3    H1 2543   1.341   0.545   4.843
  862TIP3    H2 2544   1.359   0.529   4.693
  863TIP3   OH2 2545   7.045   4.718   2.754
  863TIP3    H1 2546   7.080   4.629   2.749
  863TIP3    H2 2547   7.069   4.757   2.670
  864TIP3   OH2 2548   5.636   1.048   6.146
  864TIP3    H1 2549   5.576   1.122   6.134
  864TIP3    H2 2550   5.627   0.996   6.067
  865TIP3   OH2 2551   3.062   7.073   6.421
  865TIP3    H1 2552   3.124   7.012   6.461
  865TIP3    H2 2553   3.061   7.149   6.480
  866TIP3   OH2 2554   5.039   5.395   3.974
  866TIP3    H1 2555   5.014   5.484   3.996
  866TIP3    H2 2556   5.131   5.388   4.001
  867TIP3   OH2 2557   4.935   7.712   2.967
  867TIP3    H1 2558   4.933   7.705   2.871
  867TIP3    H2 2559   4.851   7.677   2.996
  868TIP3   OH2 2560   4.645   6.676   1.828
  868TIP3    H1 2561   4.608   6.681   1.740
  868TIP3    H2 2562   4.655   6.582   1.844
  869TIP3   OH2 2563   0.259   0.237   0.802
  869TIP3    H1 2564   0.226   0.174   0.867
  869TIP3    H2 2565   0.344   0.202   0.776
  870TIP3   OH2 2566   3.273   1.797   1.983
  870TIP3    H1 2567   3.212   1.778   1.912
  870TIP3    H2 2568   3.291   1.711   2.022
  871TIP3   OH2 2569   7.148   5.472   4.370
  871TIP3    H1 2570   7.163   5.440   4.281
  871TIP3    H2 2571   7.067   5.521   4.365
  872TIP3   OH2 2572   0.164   7.269   5.270
  872TIP3    H1 2573   0.209   7.314   5.341
  872TIP3    H2 2574   0.219   7.285   5.193
  873TIP3   OH2 2575   6.088   1.781   0.078
  873TIP3    H1 2576   6.036   1.812   0.152
  873TIP3    H2 2577   6.179   1.801   0.102
  874TIP3   OH2 2578   1.347   7.484   4.848
  874TIP3    H1 2579   1.442   7.488   4.854
  874TIP3    H2 2580   1.316   7.520   4.931
  875TIP3   OH2 2581   5.388   3.741   2.893
  875TIP3    H1 2582   5.365   3.704   2.807
  875TIP3    H2 2583   5.434   3.669   2.938
  876TIP3   OH2 2584   4.208   2.742   1.168
  876TIP3    H1 2585   4.139   2.724   1.231
  876TIP3    H2 2586   4.275   2.675   1.186
  877TIP3   OH2 2587   3.455   3.369   6.709
  877TIP3    H1 2588   3.464   3.338   6.799
  877TIP3    H2 2589   3.460   3.290   6.656
  878TIP3   OH2 2590   2.755   5.385   3.969
  878TIP3    H1 2591   2.851   5.379   3.964
  878TIP3    H2 2592   2.735   5.472   3.934
  879TIP3   OH2 2593   7.404   7.576   4.870
  879TIP3    H1 2594   7.470   7.507   4.883
  879TIP3    H2 2595   7.409   7.630   4.949
  880TIP3   OH2 2596   2.677   4.530   3.205
  880TIP3    H1 2597   2.691   4.436   3.199
  880TIP3    H2 2598   2.755   4.563   3.250
  881TIP3   OH2 2599   3.258   3.298   3.114
  881TIP3    H1 2600   3.342   3.343   3.125
  881TIP3    H2 2601   3.277   3.227   3.053
  882TIP3   OH2 2602   8.021   6.253   6.725
  882TIP3    H1 2603   8.116   6.266   6.733
  882TIP3    H2 2604   7.995   6.311   6.653
  883TIP3   OH2 2605   2.076   5.484   2.995
  883TIP3    H1 2606   2.128   5.556   2.958
  883TIP3    H2 2607   2.061   5.510   3.086
  884TIP3   OH2 2608   6.278   5.424   5.529
  884TIP3    H1 2609   6.304   5.366   5.457
  884TIP3    H2 2610   6.358   5.472   5.551
  885TIP3   OH2 2611   7.828   3.893   6.089
  885TIP3    H1 2612   7.791   3.813   6.053
  885TIP3    H2 2613   7.781   3.907   6.171
  886TIP3   OH2 2614   5.928   4.669   4.748
  886TIP3    H1 2615   5.918   4.760   4.720
  886TIP3    H2 2616   5.890   4.618   4.676
  887TIP3   OH2 2617   0.268   0.635   4.315
  887TIP3    H1 2618   0.323   0.590   4.251
  887TIP3    H2 2619   0.330   0.676   4.375
  888TIP3   OH2 2620   7.571   3.666   2.909
  888TIP3    H1 2621   7.650   3.720   2.904
  888TIP3    H2 2622   7.540   3.662   2.818
  889TIP3   OH2 2623   6.217   4.502   1.512
  889TIP3    H1 2624   6.228   4.516   1.418
  889TIP3    H2 2625   6.264   4.574   1.553
  890TIP3   OH2 2626   6.344   4.703   4.990
  890TIP3    H1 2627   6.379   4.771   4.933
  890TIP3    H2 2628   6.263   4.674   4.946
  891TIP3   OH2 2629   1.031   2.746   3.527
  891TIP3    H1 2630   1.101   2.726   3.589
  891TIP3    H2 2631   1.071   2.732   3.441
  892TIP3   OH2 2632   3.685   7.012   1.604
  892TIP3    H1 2633   3.607   7.062   1.581
  892TIP3    H2 2634   3.671   6.988   1.696
  893TIP3   OH2 2635   6.035   6.857   1.896
  893TIP3    H1 2636   5.949   6.822   1.919
  893TIP3    H2 2637   6.089   6.780   1.880
  894TIP3   OH2 2638   6.460   4.847   5.316
  894TIP3    H1 2639   6.404   4.853   5.239
  894TIP3    H2 2640   6.456   4.755   5.342
  895TIP3   OH2 2641   5.911   5.359   4.258
  895TIP3    H1 2642   5.890   5.387   4.169
  895TIP3    H2 2643   5.832   5.377   4.309
  896TIP3   OH2 2644   1.714   7.723   1.594
  896TIP3    H1 2645   1.648   7.654   1.596
  896TIP3    H2 2646   1.797   7.676   1.586
  897TIP3   OH2 2647   5.328   1.889   4.687
  897TIP3    H1 2648   5.252   1.935   4.650
  897TIP3    H2 2649   5.290   1.811   4.728
  898TIP3   OH2 2650   5.603   6.109   6.588
  898TIP3    H1 2651   5.550   6.033   6.612
  898TIP3    H2 2652   5.671   6.074   6.531
  899TIP3   OH2 2653   1.594   2.010   3.661
  899TIP3    H1 2654   1.517   1.958   3.641
  899TIP3    H2 2655   1.662   1.946   3.680
  900TIP3   OH2 2656   1.986   1.134   2.763
  900TIP3    H1 2657   1.920   1.204   2.756
  900TIP3    H2 2658   1.937   1.053   2.746
  901TIP3   OH2 2659   2.474   0.242   2.218
  901TIP3    H1 2660   2.524   0.170   2.258
  901TIP3    H2 2661   2.385   0.207   2.208
  902TIP3   OH2 2662   3.741   6.571   0.277
  902TIP3    H1 2663   3.809   6.575   0.210
  902TIP3    H2 2664   3.670   6.625   0.241
  903TIP3   OH2 2665   3.533   3.510   1.309
  903TIP3    H1 2666   3.599   3.515   1.377
  903TIP3    H2 2667   3.504   3.419   1.308
  904TIP3   OH2 2668   2.039   0.012   3.960
  904TIP3    H1 2669   2.107   0.049   4.016
  904TIP3    H2 2670   2.077   0.014   3.872
  905TIP3   OH2 2671   2.898   6.999   5.663
  905TIP3    H1 2672   2.924   7.087   5.636
  905TIP3    H2 2673   2.954   6.940   5.612
  906TIP3   OH2 2674   6.967   0.001   4.545
  906TIP3    H1 2675   7.021  -0.029   4.472
  906TIP3    H2 2676   6.978   0.096   4.545
  907TIP3   OH2 2677   1.359   0.517   4.279
  907TIP3    H1 2678   1.407   0.440   4.311
  907TIP3    H2 2679   1.274   0.512   4.321
  908TIP3   OH2 2680   6.688   3.431   4.432
  908TIP3    H1 2681   6.622   3.501   4.442
  908TIP3    H2 2682   6.770   3.478   4.416
  909TIP3   OH2 2683   7.076   4.697   4.651
  909TIP3    H1 2684   7.158   4.652   4.631
  909TIP3    H2 2685   7.033   4.706   4.566
  910TIP3   OH2 2686   2.843   3.715   2.069
  910TIP3    H1 2687   2.760   3.685   2.033
  910TIP3    H2 2688   2.822   3.742   2.158
  911TIP3   OH2 2689   3.611   4.296   4.968
  911TIP3    H1 2690   3.636   4.387   4.954
  911TIP3    H2 2691   3.561   4.297   5.050
  912TIP3   OH2 2692   7.393   2.444   3.264
  912TIP3    H1 2693   7.311   2.467   3.221
  912TIP3    H2 2694   7.366   2.400   3.345
  913TIP3   OH2 2695   4.533   1.115   5.173
  913TIP3    H1 2696   4.514   1.170   5.097
  913TIP3    H2 2697   4.460   1.052   5.175
  914TIP3   OH2 2698   3.554   5.413   1.613
  914TIP3    H1 2699   3.557   5.488   1.671
  914TIP3    H2 2700   3.645   5.387   1.601
  915TIP3   OH2 2701   0.527   6.408   5.854
  915TIP3    H1 2702   0.547   6.461   5.931
  915TIP3    H2 2703   0.524   6.470   5.781
  916TIP3   OH2 2704   4.499   4.048   4.428
  916TIP3    H1 2705   4.488   4.143   4.431
  916TIP3    H2 2706   4.483   4.024   4.337
  917TIP3   OH2 2707   4.780   2.722   0.827
  917TIP3    H1 2708   4.685   2.717   0.830
  917TIP3    H2 2709   4.810   2.648   0.880
  918TIP3   OH2 2710   4.330   5.754   4.021
  918TIP3    H1 2711   4.421   5.754   3.991
  918TIP3    H2 2712   4.314   5.843   4.050
  919TIP3   OH2 2713   7.496   6.538   6.545
  919TIP3    H1 2714   7.562   6.608   6.541
  919TIP3    H2 2715   7.488   6.508   6.454
  920TIP3   OH2 2716   2.145   3.211   3.534
  920TIP3    H1 2717   2.066   3.237   3.486
  920TIP3    H2 2718   2.141   3.261   3.616
  921TIP3   OH2 2719   3.023   0.364   0.144
  921TIP3    H1 2720   3.053   0.306   0.214
  921TIP3    H2 2721   3.079   0.342   0.069
  922TIP3   OH2 2722   5.531   6.725   3.144
  922TIP3    H1 2723   5.511   6.653   3.084
  922TIP3    H2 2724   5.616   6.702   3.181
  923TIP3   OH2 2725   4.504   4.249   0.349
  923TIP3    H1 2726   4.479   4.317   0.286
  923TIP3    H2 2727   4.436   4.182   0.340
  924TIP3   OH2 2728   1.828   3.225   4.862
  924TIP3    H1 2729   1.917   3.194   4.877
  924TIP3    H2 2730   1.818   3.223   4.766
  925TIP3   OH2 2731   6.118   6.394   1.254
  925TIP3    H1 2732   6.088   6.457   1.188
  925TIP3    H2 2733   6.127   6.445   1.334
  926TIP3   OH2 2734   6.655   1.697   6.743
  926TIP3    H1 2735   6.627   1.669   6.656
  926TIP3    H2 2736   6.681   1.789   6.731
  927TIP3   OH2 2737   5.445   1.580   5.593
  927TIP3    H1 2738   5.534   1.543   5.595
  927TIP3    H2 2739   5.421   1.579   5.501
  928TIP3   OH2 2740   6.970   4.752   0.317
  928TIP3    H1 2741   7.002   4.730   0.229
  928TIP3    H2 2742   7.043   4.729   0.375
  929TIP3   OH2 2743   1.788   6.826   4.361
  929TIP3    H1 2744   1.802   6.735   4.336
  929TIP3    H2 2745   1.848   6.875   4.304
  930TIP3   OH2 2746   5.274   4.908   4.345
  930TIP3    H1 2747   5.331   4.930   4.419
  930TIP3    H2 2748   5.334   4.896   4.272
  931TIP3   OH2 2749   7.184   6.559   4.985
  931TIP3    H1 2750   7.102   6.605   4.997
  931TIP3    H2 2751   7.165   6.468   5.010
  932TIP3   OH2 2752   4.449   0.216   6.288
  932TIP3    H1 2753   4.391   0.224   6.212
  932TIP3    H2 2754   4.422   0.135   6.331
  933TIP3   OH2 2755   0.971   2.679   6.445
  933TIP3    H1 2756   0.931   2.761   6.416
  933TIP3    H2 2757   1.057   2.704   6.477
  934TIP3   OH2 2758   2.684   4.990   1.258
  934TIP3    H1 2759   2.740   4.913   1.261
  934TIP3    H2 2760   2.609   4.968   1.312
  935TIP3   OH2 2761   2.825   2.910   1.344
  935TIP3    H1 2762   2.865   2.994   1.368
  935TIP3    H2 2763   2.877   2.844   1.388
  936TIP3   OH2 2764   2.201   0.054   3.206
  936TIP3    H1 2765   2.117   0.073   3.163
  936TIP3    H2 2766   2.266   0.058   3.136
  937TIP3   OH2 2767   3.991   0.688   4.699
  937TIP3    H1 2768   3.916   0.714   4.646
  937TIP3    H2 2769   4.062   0.745   4.671
  938TIP3   OH2 2770   1.870   0.073   0.934
  938TIP3    H1 2771   1.846   0.132   0.863
  938TIP3    H2 2772   1.956   0.039   0.908
  939TIP3   OH2 2773   8.229   0.041   2.707
  939TIP3    H1 2774   8.242  -0.038   2.654
  939TIP3    H2 2775   8.144   0.028   2.749
  940TIP3   OH2 2776   0.973   7.662   2.771
  940TIP3    H1 2777   0.965   7.681   2.864
  940TIP3    H2 2778   1.063   7.632   2.760
  941TIP3   OH2 2779   4.714   5.485   1.907
  941TIP3    H1 2780   4.801   5.493   1.946
  941TIP3    H2 2781   4.658   5.458   1.980
  942TIP3   OH2 2782   1.716   3.876   2.328
  942TIP3    H1 2783   1.768   3.795   2.327
  942TIP3    H2 2784   1.742   3.921   2.248
  943TIP3   OH2 2785   7.939   0.784   0.057
  943TIP3    H1 2786   7.887   0.865   0.048
  943TIP3    H2 2787   7.886   0.729   0.115
  944TIP3   OH2 2788   5.482   7.104   2.087
  944TIP3    H1 2789   5.478   7.071   1.997
  944TIP3    H2 2790   5.544   7.045   2.131
  945TIP3   OH2 2791   5.594   4.264   5.270
  945TIP3    H1 2792   5.676   4.261   5.320
  945TIP3    H2 2793   5.575   4.172   5.250
  946TIP3   OH2 2794   3.490   6.896   6.643
  946TIP3    H1 2795   3.528   6.914   6.729
  946TIP3    H2 2796   3.556   6.841   6.600
  947TIP3   OH2 2797   1.218   3.678   1.760
  947TIP3    H1 2798   1.200   3.626   1.838
  947TIP3    H2 2799   1.133   3.716   1.736
  948TIP3   OH2 2800   8.093   2.794   6.048
  948TIP3    H1 2801   8.046   2.737   5.988
  948TIP3    H2 2802   8.173   2.746   6.068
  949TIP3   OH2 2803   0.105   0.546   2.511
  949TIP3    H1 2804   0.070   0.617   2.566
  949TIP3    H2 2805   0.030   0.519   2.457
  950TIP3   OH2 2806   0.345   2.508   5.108
  950TIP3    H1 2807   0.259   2.542   5.131
  950TIP3    H2 2808   0.332   2.413   5.102
  951TIP3   OH2 2809   0.385   6.775   0.529
  951TIP3    H1 2810   0.329   6.703   0.501
  951TIP3    H2 2811   0.330   6.825   0.589
  952TIP3   OH2 2812   1.865   0.042   6.735
  952TIP3    H1 2813   1.887   0.082   6.819
  952TIP3    H2 2814   1.930   0.077   6.674
  953TIP3   OH2 2815   0.558   5.594   0.605
  953TIP3    H1 2816   0.570   5.683   0.637
  953TIP3    H2 2817   0.599   5.538   0.671
  954TIP3   OH2 2818   2.837   3.719   6.265
  954TIP3    H1 2819   2.851   3.648   6.202
  954TIP3    H2 2820   2.823   3.796   6.211
  955TIP3   OH2 2821   4.976   1.962   4.971
  955TIP3    H1 2822   4.977   2.006   5.056
  955TIP3    H2 2823   5.060   1.916   4.967
  956TIP3   OH2 2824   3.733   5.201   5.437
  956TIP3    H1 2825   3.657   5.145   5.452
  956TIP3    H2 2826   3.793   5.146   5.385
  957TIP3   OH2 2827   7.299   2.653   0.965
  957TIP3    H1 2828   7.210   2.628   0.940
  957TIP3    H2 2829   7.333   2.577   1.012
  958TIP3   OH2 2830   3.813   0.288   0.283
  958TIP3    H1 2831   3.877   0.358   0.271
  958TIP3    H2 2832   3.865   0.207   0.283
  959TIP3   OH2 2833   1.491   7.330   6.742
  959TIP3    H1 2834   1.496   7.261   6.808
  959TIP3    H2 2835   1.570   7.317   6.688
  960TIP3   OH2 2836   5.473   5.184   6.375
  960TIP3    H1 2837   5.529   5.160   6.302
  960TIP3    H2 2838   5.409   5.113   6.381
  961TIP3   OH2 2839   8.287   4.947   6.710
  961TIP3    H1 2840   8.297   4.959   6.616
  961TIP3    H2 2841   8.274   5.036   6.744
  962TIP3   OH2 2842   2.570   1.880   4.840
  962TIP3    H1 2843   2.657   1.853   4.811
  962TIP3    H2 2844   2.523   1.900   4.759
  963TIP3   OH2 2845   3.427   3.761   4.300
  963TIP3    H1 2846   3.471   3.823   4.357
  963TIP3    H2 2847   3.498   3.712   4.258
  964TIP3   OH2 2848   7.251   3.712   1.557
  964TIP3    H1 2849   7.307   3.685   1.484
  964TIP3    H2 2850   7.293   3.789   1.593
  965TIP3   OH2 2851   3.302   3.403   4.859
  965TIP3    H1 2852   3.273   3.436   4.944
  965TIP3    H2 2853   3.221   3.375   4.816
  966TIP3   OH2 2854   5.304   3.539   3.093
  966TIP3    H1 2855   5.252   3.514   3.169
  966TIP3    H2 2856   5.245   3.594   3.041
  967TIP3   OH2 2857   7.792   5.175   5.443
  967TIP3    H1 2858   7.715   5.211   5.397
  967TIP3    H2 2859   7.790   5.216   5.529
  968TIP3   OH2 2860   0.632   3.458   6.531
  968TIP3    H1 2861   0.548   3.425   6.564
  968TIP3    H2 2862   0.614   3.549   6.506
  969TIP3   OH2 2863   5.137   6.351   6.144
  969TIP3    H1 2864   5.134   6.441   6.175
  969TIP3    H2 2865   5.230   6.326   6.151
  970TIP3   OH2 2866   6.742   5.539   5.997
  970TIP3    H1 2867   6.688   5.503   5.927
  970TIP3    H2 2868   6.768   5.626   5.964
  971TIP3   OH2 2869   8.057   6.834   2.118
  971TIP3    H1 2870   7.981   6.853   2.174
  971TIP3    H2 2871   8.089   6.750   2.150
  972TIP3   OH2 2872   0.286   3.394   6.789
  972TIP3    H1 2873   0.213   3.440   6.749
  972TIP3    H2 2874   0.363   3.445   6.763
  973TIP3   OH2 2875   1.428   4.194   2.720
  973TIP3    H1 2876   1.436   4.289   2.710
  973TIP3    H2 2877   1.408   4.163   2.632
  974TIP3   OH2 2878   7.064   3.956   1.166
  974TIP3    H1 2879   7.121   3.892   1.211
  974TIP3    H2 2880   7.006   3.987   1.235
  975TIP3   OH2 2881   2.555   5.468   6.162
  975TIP3    H1 2882   2.505   5.386   6.162
  975TIP3    H2 2883   2.627   5.452   6.101
  976TIP3   OH2 2884   4.562   7.001   6.302
  976TIP3    H1 2885   4.574   6.931   6.238
  976TIP3    H2 2886   4.593   7.080   6.258
  977TIP3   OH2 2887   1.621   6.504   3.951
  977TIP3    H1 2888   1.628   6.592   3.914
  977TIP3    H2 2889   1.533   6.474   3.927
  978TIP3   OH2 2890   5.679   1.060   4.009
  978TIP3    H1 2891   5.725   0.980   4.034
  978TIP3    H2 2892   5.593   1.052   4.050
  979TIP3   OH2 2893   5.826   0.065   5.405
  979TIP3    H1 2894   5.755   0.023   5.453
  979TIP3    H2 2895   5.783   0.118   5.338
  980TIP3   OH2 2896   5.053   3.103   5.545
  980TIP3    H1 2897   5.005   3.142   5.618
  980TIP3    H2 2898   5.145   3.124   5.563
  981TIP3   OH2 2899   6.450   2.906   4.791
  981TIP3    H1 2900   6.422   2.845   4.859
  981TIP3    H2 2901   6.522   2.955   4.829
  982TIP3   OH2 2902   1.379   7.708   1.384
  982TIP3    H1 2903   1.417   7.764   1.317
  982TIP3    H2 2904   1.300   7.755   1.412
  983TIP3   OH2 2905   1.295   3.216   0.837
  983TIP3    H1 2906   1.214   3.167   0.822
  983TIP3    H2 2907   1.359   3.177   0.777
  984TIP3   OH2 2908   4.102   7.286   6.329
  984TIP3    H1 2909   4.158   7.240   6.266
  984TIP3    H2 2910   4.164   7.322   6.394
  985TIP3   OH2 2911   5.559   5.293   0.047
  985TIP3    H1 2912   5.611   5.299   0.127
  985TIP3    H2 2913   5.539   5.383   0.024
  986TIP3   OH2 2914   3.084   5.158   6.734
  986TIP3    H1 2915   3.174   5.138   6.708
  986TIP3    H2 2916   3.049   5.208   6.660
  987TIP3   OH2 2917   0.919   6.963   0.271
  987TIP3    H1 2918   0.998   6.993   0.316
  987TIP3    H2 2919   0.904   7.028   0.202
  988TIP3   OH2 2920   6.071   4.129   2.454
  988TIP3    H1 2921   6.057   4.153   2.546
  988TIP3    H2 2922   6.161   4.096   2.451
  989TIP3   OH2 2923   2.007   4.466   3.234
  989TIP3    H1 2924   1.960   4.462   3.318
  989TIP3    H2 2925   1.950   4.518   3.177
  990TIP3   OH2 2926   0.634   5.404   3.673
  990TIP3    H1 2927   0.668   5.315   3.683
  990TIP3    H2 2928   0.649   5.425   3.581
  991TIP3   OH2 2929   1.883   3.536   6.752
  991TIP3    H1 2930   1.882   3.611   6.812
  991TIP3    H2 2931   1.811   3.553   6.691
  992TIP3   OH2 2932   7.973   4.577   5.904
  992TIP3    H1 2933   8.063   4.607   5.892
  992TIP3    H2 2934   7.981   4.490   5.942
  993TIP3   OH2 2935   1.792   1.524   4.591
  993TIP3    H1 2936   1.753   1.537   4.677
  993TIP3    H2 2937   1.862   1.589   4.585
  994TIP3   OH2 2938   3.251   2.176   4.622
  994TIP3    H1 2939   3.169   2.222   4.603
  994TIP3    H2 2940   3.265   2.121   4.544
  995TIP3   OH2 2941   4.444   5.705   1.847
  995TIP3    H1 2942   4.447   5.748   1.762
  995TIP3    H2 2943   4.535   5.702   1.876
  996TIP3   OH2 2944   4.189   3.266   5.404
  996TIP3    H1 2945   4.207   3.329   5.335
  996TIP3    H2 2946   4.263   3.274   5.464
  997TIP3   OH2 2947   2.020   7.235   2.955
  997TIP3    H1 2948   2.056   7.202   3.037
  997TIP3    H2 2949   2.096   7.264   2.905
  998TIP3   OH2 2950   6.492   5.977   4.647
  998TIP3    H1 2951   6.554   6.049   4.657
  998TIP3    H2 2952   6.407   6.014   4.671
  999TIP3   OH2 2953   5.655   1.750   1.339
  999TIP3    H1 2954   5.617   1.704   1.415
  999TIP3    H2 2955   5.673   1.838   1.371
 1000TIP3   OH2 2956   2.056   5.398   1.541
 1000TIP3    H1 2957   2.119   5.438   1.602
 1000TIP3    H2 2958   1.989   5.465   1.528
 1001TIP3   OH2 2959   6.336   7.412   0.825
 1001TIP3    H1 2960   6.300   7.452   0.747
 1001TIP3    H2 2961   6.282   7.334   0.840
 1002TIP3   OH2 2962   6.231   6.878   3.088
 1002TIP3    H1 2963   6.231   6.905   2.996
 1002TIP3    H2 2964   6.157   6.925   3.127
 1003TIP3   OH2 2965   5.949   7.453   5.664
 1003TIP3    H1 2966   5.978   7.516   5.598
 1003TIP3    H2 2967   5.857   7.475   5.680
 1004TIP3   OH2 2968   7.419   7.480   1.727
 1004TIP3    H1 2969   7.378   7.530   1.657
 1004TIP3    H2 2970   7.512   7.479   1.706
 1005TIP3   OH2 2971   5.703   3.263   6.367
 1005TIP3    H1 2972   5.650   3.204   6.313
 1005TIP3    H2 2973   5.657   3.346   6.364
 1006TIP3   OH2 2974   4.770   3.869   5.279
 1006TIP3    H1 2975   4.750   3.847   5.188
 1006TIP3    H2 2976   4.685   3.866   5.323
 1007TIP3   OH2 2977   7.269   7.454   4.006
 1007TIP3    H1 2978   7.279   7.425   3.915
 1007TIP3    H2 2979   7.178   7.482   4.013
 1008TIP3   OH2 2980   0.822   2.816   2.193
 1008TIP3    H1 2981   0.730   2.808   2.172
 1008TIP3    H2 2982   0.855   2.883   2.133
 1009TIP3   OH2 2983   7.480   0.450   1.906
 1009TIP3    H1 2984   7.463   0.538   1.872
 1009TIP3    H2 2985   7.559   0.422   1.860
 1010TIP3   OH2 2986   0.322   1.721   2.966
 1010TIP3    H1 2987   0.266   1.657   3.010
 1010TIP3    H2 2988   0.402   1.673   2.944
 1011TIP3   OH2 2989   6.112   0.038   4.215
 1011TIP3    H1 2990   6.140   0.109   4.157
 1011TIP3    H2 2991   6.193  -0.006   4.240
 1012TIP3   OH2 2992   5.423   2.566   5.872
 1012TIP3    H1 2993   5.394   2.495   5.929
 1012TIP3    H2 2994   5.408   2.533   5.783
 1013TIP3   OH2 2995   5.666   6.270   2.361
 1013TIP3    H1 2996   5.750   6.224   2.366
 1013TIP3    H2 2997   5.604   6.213   2.408
 1014TIP3   OH2 2998   2.088   7.138   2.551
 1014TIP3    H1 2999   2.014   7.189   2.582
 1014TIP3    H2 3000   2.129   7.193   2.484
 1015TIP3   OH2 3001   7.459   6.916   6.459
 1015TIP3    H1 3002   7.545   6.882   6.433
 1015TIP3    H2 3003   7.474   6.952   6.547
 1016TIP3   OH2 3004   2.438   7.237   0.968
 1016TIP3    H1 3005   2.503   7.173   0.999
 1016TIP3    H2 3006   2.424   7.295   1.043
 1017TIP3   OH2 3007   3.519   4.164   0.846
 1017TIP3    H1 3008   3.433   4.164   0.803
 1017TIP3    H2 3009   3.504   4.120   0.930
 1018TIP3   OH2 3010   3.622   6.707   0.031
 1018TIP3    H1 3011   3.622   6.711  -0.065
 1018TIP3    H2 3012   3.546   6.758   0.057
 1019TIP3   OH2 3013   7.746   0.648   4.204
 1019TIP3    H1 3014   7.655   0.642   4.232
 1019TIP3    H2 3015   7.784   0.717   4.259
 1020TIP3   OH2 3016   2.290   2.003   3.114
 1020TIP3    H1 3017   2.385   1.990   3.110
 1020TIP3    H2 3018   2.276   2.090   3.076
 1021TIP3   OH2 3019   2.752   6.035   2.755
 1021TIP3    H1 3020   2.801   6.087   2.818
 1021TIP3    H2 3021   2.662   6.035   2.789
 1022TIP3   OH2 3022   5.573   3.334   5.251
 1022TIP3    H1 3023   5.535   3.355   5.166
 1022TIP3    H2 3024   5.569   3.415   5.301
 1023TIP3   OH2 3025   4.505   1.888   4.000
 1023TIP3    H1 3026   4.470   1.800   3.985
 1023TIP3    H2 3027   4.454   1.944   3.942
 1024TIP3   OH2 3028   3.500   6.201   0.921
 1024TIP3    H1 3029   3.431   6.256   0.958
 1024TIP3    H2 3030   3.570   6.203   0.986
 1025TIP3   OH2 3031   4.672   0.384   3.751
 1025TIP3    H1 3032   4.762   0.361   3.774
 1025TIP3    H2 3033   4.622   0.305   3.772
 1026TIP3   OH2 3034   7.775   2.050   3.136
 1026TIP3    H1 3035   7.720   2.022   3.062
 1026TIP3    H2 3036   7.731   2.127   3.171
 1027TIP3   OH2 3037   2.360   6.801   5.013
 1027TIP3    H1 3038   2.431   6.745   4.983
 1027TIP3    H2 3039   2.385   6.825   5.102
 1028TIP3   OH2 3040   5.283   5.086   2.660
 1028TIP3    H1 3041   5.200   5.121   2.691
 1028TIP3    H2 3042   5.260   5.038   2.580
 1029TIP3   OH2 3043   4.856   5.235   1.053
 1029TIP3    H1 3044   4.910   5.306   1.090
 1029TIP3    H2 3045   4.919   5.167   1.030
 1030TIP3   OH2 3046   3.988   6.115   4.643
 1030TIP3    H1 3047   4.045   6.047   4.607
 1030TIP3    H2 3048   3.903   6.072   4.654
 1031TIP3   OH2 3049   0.359   4.698   6.798
 1031TIP3    H1 3050   0.373   4.677   6.706
 1031TIP3    H2 3051   0.447   4.706   6.835
 1032TIP3   OH2 3052   0.509   6.603   1.944
 1032TIP3    H1 3053   0.581   6.591   2.007
 1032TIP3    H2 3054   0.546   6.660   1.877
 1033TIP3   OH2 3055   0.563   6.815   6.044
 1033TIP3    H1 3056   0.586   6.765   6.123
 1033TIP3    H2 3057   0.520   6.751   5.987
 1034TIP3   OH2 3058   6.770   4.964   4.592
 1034TIP3    H1 3059   6.728   4.990   4.674
 1034TIP3    H2 3060   6.726   4.883   4.566
 1035TIP3   OH2 3061   3.945   2.958   6.453
 1035TIP3    H1 3062   4.024   2.953   6.399
 1035TIP3    H2 3063   3.971   2.921   6.537
 1036TIP3   OH2 3064   4.396   7.688   4.370
 1036TIP3    H1 3065   4.472   7.746   4.362
 1036TIP3    H2 3066   4.426   7.616   4.424
 1037TIP3   OH2 3067   7.505   5.927   1.962
 1037TIP3    H1 3068   7.477   6.011   1.924
 1037TIP3    H2 3069   7.600   5.934   1.968
 1038TIP3   OH2 3070   0.845   5.012   5.555
 1038TIP3    H1 3071   0.865   5.072   5.483
 1038TIP3    H2 3072   0.786   4.947   5.516
 1039TIP3   OH2 3073   5.160   0.304   3.320
 1039TIP3    H1 3074   5.097   0.339   3.384
 1039TIP3    H2 3075   5.139   0.351   3.239
 1040TIP3   OH2 3076   3.560   7.050   2.347
 1040TIP3    H1 3077   3.624   7.119   2.364
 1040TIP3    H2 3078   3.547   7.008   2.432
 1041TIP3   OH2 3079   3.231   3.802   4.914
 1041TIP3    H1 3080   3.138   3.827   4.917
 1041TIP3    H2 3081   3.247   3.759   4.998
 1042TIP3   OH2 3082   4.641   5.092   4.706
 1042TIP3    H1 3083   4.590   5.021   4.666
 1042TIP3    H2 3084   4.575   5.146   4.750
 1043TIP3   OH2 3085   1.135   6.150   3.858
 1043TIP3    H1 3086   1.073   6.114   3.794
 1043TIP3    H2 3087   1.108   6.242   3.868
 1044TIP3   OH2 3088   4.678   6.709   2.337
 1044TIP3    H1 3089   4.772   6.710   2.318
 1044TIP3    H2 3090   4.636   6.703   2.252
 1045TIP3   OH2 3091   0.505   6.961   4.346
 1045TIP3    H1 3092   0.417   6.926   4.333
 1045TIP3    H2 3093   0.561   6.884   4.353
 1046TIP3   OH2 3094   1.779   4.795   5.300
 1046TIP3    H1 3095   1.800   4.710   5.260
 1046TIP3    H2 3096   1.723   4.838   5.236
 1047TIP3   OH2 3097   0.488   4.522   1.563
 1047TIP3    H1 3098   0.470   4.573   1.642
 1047TIP3    H2 3099   0.583   4.518   1.558
 1048TIP3   OH2 3100   6.396   0.272   3.883
 1048TIP3    H1 3101   6.391   0.176   3.880
 1048TIP3    H2 3102   6.326   0.302   3.825
 1049TIP3   OH2 3103   0.164   6.955   0.821
 1049TIP3    H1 3104   0.202   6.895   0.758
 1049TIP3    H2 3105   0.238   7.007   0.852
 1050TIP3   OH2 3106   4.019   1.512   5.596
 1050TIP3    H1 3107   4.060   1.595   5.617
 1050TIP3    H2 3108   4.069   1.447   5.645
 1051TIP3   OH2 3109   7.844   0.139   4.072
 1051TIP3    H1 3110   7.760   0.182   4.058
 1051TIP3    H2 3111   7.908   0.210   4.072
 1052TIP3   OH2 3112   4.938   0.034   3.824
 1052TIP3    H1 3113   4.845   0.022   3.804
 1052TIP3    H2 3114   4.954  -0.022   3.900
 1053TIP3   OH2 3115   3.126   3.975   3.429
 1053TIP3    H1 3116   3.067   3.900   3.425
 1053TIP3    H2 3117   3.088   4.032   3.497
 1054TIP3   OH2 3118   4.373   5.413   4.217
 1054TIP3    H1 3119   4.301   5.422   4.155
 1054TIP3    H2 3120   4.385   5.319   4.226
 1055TIP3   OH2 3121   1.220   1.269   3.082
 1055TIP3    H1 3122   1.312   1.271   3.111
 1055TIP3    H2 3123   1.184   1.191   3.122
 1056TIP3   OH2 3124   1.820   5.626   4.114
 1056TIP3    H1 3125   1.812   5.670   4.029
 1056TIP3    H2 3126   1.741   5.651   4.162
 1057TIP3   OH2 3127   3.860   5.089   6.687
 1057TIP3    H1 3128   3.924   5.064   6.620
 1057TIP3    H2 3129   3.779   5.103   6.638
 1058TIP3   OH2 3130   2.984   6.223   5.957
 1058TIP3    H1 3131   3.058   6.224   5.896
 1058TIP3    H2 3132   2.908   6.201   5.903
 1059TIP3   OH2 3133   8.104   2.433   0.253
 1059TIP3    H1 3134   8.074   2.519   0.282
 1059TIP3    H2 3135   8.174   2.410   0.315
 1060TIP3   OH2 3136   0.478   1.001   0.898
 1060TIP3    H1 3137   0.388   0.989   0.866
 1060TIP3    H2 3138   0.468   1.051   0.979
 1061TIP3   OH2 3139   0.191   5.022   1.832
 1061TIP3    H1 3140   0.142   5.063   1.903
 1061TIP3    H2 3141   0.270   4.987   1.873
 1062TIP3   OH2 3142   0.885   4.792   0.465
 1062TIP3    H1 3143   0.964   4.785   0.520
 1062TIP3    H2 3144   0.819   4.742   0.513
 1063TIP3   OH2 3145   6.560   3.209   2.028
 1063TIP3    H1 3146   6.637   3.217   2.084
 1063TIP3    H2 3147   6.497   3.159   2.080
 1064TIP3   OH2 3148   0.664   1.955   4.415
 1064TIP3    H1 3149   0.603   2.026   4.397
 1064TIP3    H2 3150   0.750   1.990   4.390
 1065TIP3   OH2 3151   0.833   1.059   1.085
 1065TIP3    H1 3152   0.797   1.001   1.018
 1065TIP3    H2 3153   0.907   1.011   1.122
 1066TIP3   OH2 3154   6.571   6.923   5.946
 1066TIP3    H1 3155   6.484   6.886   5.955
 1066TIP3    H2 3156   6.629   6.847   5.933
 1067TIP3   OH2 3157   6.025   1.323   6.287
 1067TIP3    H1 3158   5.966   1.354   6.219
 1067TIP3    H2 3159   6.023   1.227   6.280
 1068TIP3   OH2 3160   3.319   4.833   3.652
 1068TIP3    H1 3161   3.264   4.906   3.681
 1068TIP3    H2 3162   3.401   4.875   3.626
 1069TIP3   OH2 3163   4.971   5.256   3.124
 1069TIP3    H1 3164   4.925   5.310   3.188
 1069TIP3    H2 3165   4.904   5.197   3.089
 1070TIP3   OH2 3166   8.259   2.717   2.753
 1070TIP3    H1 3167   8.273   2.807   2.781
 1070TIP3    H2 3168   8.265   2.666   2.834
 1071TIP3   OH2 3169   5.841   5.631   5.240
 1071TIP3    H1 3170   5.803   5.717   5.254
 1071TIP3    H2 3171   5.780   5.587   5.180
 1072TIP3   OH2 3172   3.201   4.194   5.722
 1072TIP3    H1 3173   3.172   4.107   5.750
 1072TIP3    H2 3174   3.192   4.248   5.801
 1073TIP3   OH2 3175   0.926   2.460   6.639
 1073TIP3    H1 3176   0.951   2.541   6.594
 1073TIP3    H2 3177   0.864   2.418   6.580
 1074TIP3   OH2 3178   4.145   2.644   3.983
 1074TIP3    H1 3179   4.158   2.738   3.987
 1074TIP3    H2 3180   4.230   2.607   4.005
 1075TIP3   OH2 3181   6.440   1.576   6.238
 1075TIP3    H1 3182   6.432   1.566   6.143
 1075TIP3    H2 3183   6.522   1.532   6.259
 1076TIP3   OH2 3184   1.899   2.344   1.614
 1076TIP3    H1 3185   1.833   2.368   1.678
 1076TIP3    H2 3186   1.960   2.417   1.613
 1077TIP3   OH2 3187   5.814   2.743   1.136
 1077TIP3    H1 3188   5.802   2.750   1.230
 1077TIP3    H2 3189   5.727   2.719   1.103
 1078TIP3   OH2 3190   2.595   2.273   2.170
 1078TIP3    H1 3191   2.507   2.246   2.197
 1078TIP3    H2 3192   2.594   2.368   2.179
 1079TIP3   OH2 3193   5.861   3.922   4.100
 1079TIP3    H1 3194   5.861   3.947   4.008
 1079TIP3    H2 3195   5.784   3.866   4.111
 1080TIP3   OH2 3196   4.187   3.661   1.325
 1080TIP3    H1 3197   4.163   3.596   1.391
 1080TIP3    H2 3198   4.122   3.649   1.255
 1081TIP3   OH2 3199   2.143   0.447   0.325
 1081TIP3    H1 3200   2.153   0.443   0.230
 1081TIP3    H2 3201   2.058   0.407   0.342
 1082TIP3   OH2 3202   1.093   0.207   0.255
 1082TIP3    H1 3203   1.037   0.244   0.323
 1082TIP3    H2 3204   1.037   0.145   0.208
 1083TIP3   OH2 3205   7.653   5.256   2.689
 1083TIP3    H1 3206   7.743   5.223   2.691
 1083TIP3    H2 3207   7.608   5.198   2.628
 1084TIP3   OH2 3208   0.707   1.627   2.509
 1084TIP3    H1 3209   0.797   1.595   2.503
 1084TIP3    H2 3210   0.684   1.618   2.601
 1085TIP3   OH2 3211   3.228   1.829   4.395
 1085TIP3    H1 3212   3.201   1.789   4.313
 1085TIP3    H2 3213   3.157   1.810   4.456
 1086TIP3   OH2 3214   6.519   3.816   6.486
 1086TIP3    H1 3215   6.533   3.864   6.568
 1086TIP3    H2 3216   6.425   3.819   6.472
 1087TIP3   OH2 3217   0.179   5.279   5.566
 1087TIP3    H1 3218   0.179   5.324   5.481
 1087TIP3    H2 3219   0.088   5.253   5.579
 1088TIP3   OH2 3220   2.588   2.978   4.190
 1088TIP3    H1 3221   2.677   3.009   4.207
 1088TIP3    H2 3222   2.557   3.032   4.117
 1089TIP3   OH2 3223   5.394   5.782   6.397
 1089TIP3    H1 3224   5.353   5.790   6.310
 1089TIP3    H2 3225   5.325   5.746   6.453
 1090TIP3   OH2 3226   6.960   6.919   2.615
 1090TIP3    H1 3227   6.936   6.912   2.707
 1090TIP3    H2 3228   7.030   6.985   2.613
 1091TIP3   OH2 3229   7.757   7.655   1.013
 1091TIP3    H1 3230   7.751   7.568   1.051
 1091TIP3    H2 3231   7.758   7.640   0.918
 1092TIP3   OH2 3232   7.029   3.535   3.468
 1092TIP3    H1 3233   6.971   3.505   3.538
 1092TIP3    H2 3234   6.970   3.569   3.401
 1093TIP3   OH2 3235   6.508   5.396   4.934
 1093TIP3    H1 3236   6.519   5.445   4.853
 1093TIP3    H2 3237   6.596   5.388   4.970
 1094TIP3   OH2 3238   5.498   4.599   2.210
 1094TIP3    H1 3239   5.560   4.664   2.177
 1094TIP3    H2 3240   5.503   4.527   2.147
 1095TIP3   OH2 3241   4.988   2.499   6.320
 1095TIP3    H1 3242   4.913   2.457   6.361
 1095TIP3    H2 3243   5.061   2.481   6.378
 1096TIP3   OH2 3244   4.211   5.493   4.010
 1096TIP3    H1 3245   4.240   5.459   3.925
 1096TIP3    H2 3246   4.254   5.578   4.018
 1097TIP3   OH2 3247   1.505   4.833   1.833
 1097TIP3    H1 3248   1.577   4.883   1.796
 1097TIP3    H2 3249   1.427   4.886   1.815
 1098TIP3   OH2 3250   7.904   2.825   3.032
 1098TIP3    H1 3251   7.925   2.804   2.941
 1098TIP3    H2 3252   7.854   2.906   3.027
 1099TIP3   OH2 3253   1.373   0.616   1.231
 1099TIP3    H1 3254   1.302   0.668   1.193
 1099TIP3    H2 3255   1.450   0.673   1.223
 1100TIP3   OH2 3256   5.104   2.720   0.562
 1100TIP3    H1 3257   5.052   2.640   0.568
 1100TIP3    H2 3258   5.050   2.787   0.604
 1101TIP3   OH2 3259   5.211   3.475   3.351
 1101TIP3    H1 3260   5.296   3.510   3.380
 1101TIP3    H2 3261   5.165   3.453   3.432
 1102TIP3   OH2 3262   6.201   6.570   2.216
 1102TIP3    H1 3263   6.287   6.542   2.184
 1102TIP3    H2 3264   6.148   6.490   2.212
 1103TIP3   OH2 3265   6.172   2.936   3.536
 1103TIP3    H1 3266   6.086   2.975   3.550
 1103TIP3    H2 3267   6.233   3.010   3.536
 1104TIP3   OH2 3268   6.928   6.106   1.737
 1104TIP3    H1 3269   6.848   6.154   1.757
 1104TIP3    H2 3270   6.964   6.083   1.822
 1105TIP3   OH2 3271   7.645   2.480   4.024
 1105TIP3    H1 3272   7.609   2.430   4.098
 1105TIP3    H2 3273   7.686   2.414   3.968
 1106TIP3   OH2 3274   8.064   5.436   4.232
 1106TIP3    H1 3275   8.099   5.493   4.302
 1106TIP3    H2 3276   8.108   5.352   4.246
 1107TIP3   OH2 3277   4.946   4.569   5.767
 1107TIP3    H1 3278   4.987   4.483   5.767
 1107TIP3    H2 3279   4.955   4.600   5.677
 1108TIP3   OH2 3280   6.080   0.304   0.197
 1108TIP3    H1 3281   6.005   0.307   0.256
 1108TIP3    H2 3282   6.056   0.362   0.125
 1109TIP3   OH2 3283   3.489   5.602   6.522
 1109TIP3    H1 3284   3.416   5.586   6.462
 1109TIP3    H2 3285   3.450   5.601   6.609
 1110TIP3   OH2 3286   2.264   7.233   5.261
 1110TIP3    H1 3287   2.266   7.303   5.326
 1110TIP3    H2 3288   2.211   7.164   5.302
 1111TIP3   OH2 3289   7.963   5.284   2.392
 1111TIP3    H1 3290   8.018   5.278   2.314
 1111TIP3    H2 3291   7.974   5.200   2.436
 1112TIP3   OH2 3292   6.736   6.712   5.911
 1112TIP3    H1 3293   6.807   6.743   5.967
 1112TIP3    H2 3294   6.684   6.654   5.967
 1113TIP3   OH2 3295   1.867   1.218   6.082
 1113TIP3    H1 3296   1.838   1.233   6.172
 1113TIP3    H2 3297   1.962   1.231   6.085
 1114TIP3   OH2 3298   8.038   1.896   3.587
 1114TIP3    H1 3299   7.992   1.874   3.506
 1114TIP3    H2 3300   8.114   1.838   3.588
 1115TIP3   OH2 3301   4.002   1.404   0.664
 1115TIP3    H1 3302   3.988   1.337   0.598
 1115TIP3    H2 3303   4.036   1.479   0.615
 1116TIP3   OH2 3304   8.304   1.450   1.925
 1116TIP3    H1 3305   8.257   1.378   1.966
 1116TIP3    H2 3306   8.364   1.408   1.864
 1117TIP3   OH2 3307   1.186   7.461   0.942
 1117TIP3    H1 3308   1.240   7.401   0.993
 1117TIP3    H2 3309   1.233   7.544   0.946
 1118TIP3   OH2 3310   3.822   1.863   4.839
 1118TIP3    H1 3311   3.787   1.894   4.756
 1118TIP3    H2 3312   3.914   1.889   4.838
 1119TIP3   OH2 3313   6.480   2.152   3.261
 1119TIP3    H1 3314   6.538   2.187   3.329
 1119TIP3    H2 3315   6.535   2.149   3.182
 1120TIP3   OH2 3316   1.922   2.885   6.536
 1120TIP3    H1 3317   1.894   2.976   6.529
 1120TIP3    H2 3318   1.907   2.863   6.628
 1121TIP3   OH2 3319   7.329   6.070   6.680
 1121TIP3    H1 3320   7.262   6.051   6.614
 1121TIP3    H2 3321   7.380   6.141   6.641
 1122TIP3   OH2 3322   0.971   6.667   4.741
 1122TIP3    H1 3323   1.059   6.653   4.776
 1122TIP3    H2 3324   0.983   6.727   4.668
 1123TIP3   OH2 3325   6.347   2.805   3.873
 1123TIP3    H1 3326   6.318   2.896   3.872
 1123TIP3    H2 3327   6.268   2.755   3.895
 1124TIP3   OH2 3328   2.289   4.608   1.746
 1124TIP3    H1 3329   2.335   4.684   1.784
 1124TIP3    H2 3330   2.294   4.541   1.814
 1125TIP3   OH2 3331   5.147   3.752   0.034
 1125TIP3    H1 3332   5.194   3.829   0.002
 1125TIP3    H2 3333   5.114   3.779   0.120
 1126TIP3   OH2 3334   2.069   2.509   3.061
 1126TIP3    H1 3335   2.011   2.440   3.093
 1126TIP3    H2 3336   2.158   2.475   3.074
 1127TIP3   OH2 3337   7.971   6.927   2.365
 1127TIP3    H1 3338   8.030   6.908   2.438
 1127TIP3    H2 3339   7.970   7.022   2.358
 1128TIP3   OH2 3340   6.244   2.974   6.220
 1128TIP3    H1 3341   6.272   2.892   6.181
 1128TIP3    H2 3342   6.215   2.950   6.308
 1129TIP3   OH2 3343   6.149   1.280   3.874
 1129TIP3    H1 3344   6.155   1.242   3.961
 1129TIP3    H2 3345   6.158   1.374   3.888
 1130TIP3   OH2 3346   5.143   1.474   1.801
 1130TIP3    H1 3347   5.199   1.434   1.734
 1130TIP3    H2 3348   5.176   1.437   1.883
 1131TIP3   OH2 3349   8.033   5.151   6.044
 1131TIP3    H1 3350   7.938   5.157   6.030
 1131TIP3    H2 3351   8.056   5.064   6.011
 1132TIP3   OH2 3352   4.868   6.145   0.593
 1132TIP3    H1 3353   4.804   6.089   0.549
 1132TIP3    H2 3354   4.927   6.172   0.523
 1133TIP3   OH2 3355   3.679   5.780   1.998
 1133TIP3    H1 3356   3.619   5.799   2.070
 1133TIP3    H2 3357   3.761   5.756   2.041
 1134TIP3   OH2 3358   5.979   2.393   3.607
 1134TIP3    H1 3359   6.039   2.395   3.681
 1134TIP3    H2 3360   5.900   2.350   3.641
 1135TIP3   OH2 3361   5.681   0.608   6.181
 1135TIP3    H1 3362   5.648   0.602   6.091
 1135TIP3    H2 3363   5.766   0.650   6.172
 1136TIP3   OH2 3364   6.704   2.594   0.458
 1136TIP3    H1 3365   6.624   2.571   0.411
 1136TIP3    H2 3366   6.759   2.637   0.393
 1137TIP3   OH2 3367   5.882   6.539   0.147
 1137TIP3    H1 3368   5.831   6.472   0.192
 1137TIP3    H2 3369   5.922   6.493   0.073
 1138TIP3   OH2 3370   2.985   7.357   4.925
 1138TIP3    H1 3371   2.897   7.386   4.901
 1138TIP3    H2 3372   3.038   7.378   4.848
 1139TIP3   OH2 3373   3.515   6.888   5.346
 1139TIP3    H1 3374   3.527   6.983   5.336
 1139TIP3    H2 3375   3.534   6.852   5.260
 1140TIP3   OH2 3376   7.387   3.574   5.519
 1140TIP3    H1 3377   7.338   3.567   5.601
 1140TIP3    H2 3378   7.329   3.537   5.453
 1141TIP3   OH2 3379   4.613   7.056   2.166
 1141TIP3    H1 3380   4.595   6.985   2.106
 1141TIP3    H2 3381   4.539   7.057   2.227
 1142TIP3   OH2 3382   1.249   7.200   2.734
 1142TIP3    H1 3383   1.285   7.114   2.709
 1142TIP3    H2 3384   1.326   7.258   2.735
 1143TIP3   OH2 3385   2.143   6.562   1.684
 1143TIP3    H1 3386   2.093   6.532   1.760
 1143TIP3    H2 3387   2.200   6.489   1.662
 1144TIP3   OH2 3388   8.123   3.323   2.904
 1144TIP3    H1 3389   8.076   3.400   2.872
 1144TIP3    H2 3390   8.212   3.333   2.872
 1145TIP3   OH2 3391   3.866   2.232   2.638
 1145TIP3    H1 3392   3.785   2.235   2.587
 1145TIP3    H2 3393   3.893   2.324   2.645
 1146TIP3   OH2 3394   4.675   7.276   6.676
 1146TIP3    H1 3395   4.607   7.304   6.615
 1146TIP3    H2 3396   4.681   7.348   6.740
 1147TIP3   OH2 3397   4.078   0.853   3.510
 1147TIP3    H1 3398   4.121   0.855   3.425
 1147TIP3    H2 3399   3.992   0.813   3.493
 1148TIP3   OH2 3400   3.918   1.047   3.703
 1148TIP3    H1 3401   3.969   1.089   3.772
 1148TIP3    H2 3402   3.984   1.006   3.646
 1149TIP3   OH2 3403   1.833   2.377   5.188
 1149TIP3    H1 3404   1.752   2.408   5.227
 1149TIP3    H2 3405   1.864   2.450   5.134
 1150TIP3   OH2 3406   0.862   7.583   1.708
 1150TIP3    H1 3407   0.851   7.659   1.765
 1150TIP3    H2 3408   0.773   7.549   1.695
 1151TIP3   OH2 3409   8.234   0.989   2.062
 1151TIP3    H1 3410   8.291   0.912   2.053
 1151TIP3    H2 3411   8.294   1.063   2.069
 1152TIP3   OH2 3412   4.477   0.230   2.046
 1152TIP3    H1 3413   4.412   0.279   1.995
 1152TIP3    H2 3414   4.525   0.179   1.981
 1153TIP3   OH2 3415   6.933   3.491   3.120
 1153TIP3    H1 3416   6.866   3.424   3.133
 1153TIP3    H2 3417   7.012   3.455   3.159
 1154TIP3   OH2 3418   8.120   4.348   3.909
 1154TIP3    H1 3419   8.105   4.319   3.999
 1154TIP3    H2 3420   8.138   4.442   3.916
 1155TIP3   OH2 3421   2.330   1.997   5.476
 1155TIP3    H1 3422   2.373   2.060   5.535
 1155TIP3    H2 3423   2.372   1.914   5.495
 1156TIP3   OH2 3424   2.428   5.943   5.686
 1156TIP3    H1 3425   2.384   5.994   5.753
 1156TIP3    H2 3426   2.413   5.991   5.605
 1157TIP3   OH2 3427   7.586   2.512   4.469
 1157TIP3    H1 3428   7.633   2.443   4.422
 1157TIP3    H2 3429   7.548   2.566   4.399
 1158TIP3   OH2 3430   3.614   2.003   2.911
 1158TIP3    H1 3431   3.667   2.081   2.924
 1158TIP3    H2 3432   3.598   1.969   2.999
 1159TIP3   OH2 3433   6.063   2.403   6.689
 1159TIP3    H1 3434   6.049   2.318   6.729
 1159TIP3    H2 3435   6.042   2.390   6.596
 1160TIP3   OH2 3436   5.657   2.715   1.946
 1160TIP3    H1 3437   5.611   2.799   1.955
 1160TIP3    H2 3438   5.750   2.738   1.949
 1161TIP3   OH2 3439   0.702   0.110   2.223
 1161TIP3    H1 3440   0.657   0.185   2.184
 1161TIP3    H2 3441   0.767   0.084   2.157
 1162TIP3   OH2 3442   4.584   1.122   5.557
 1162TIP3    H1 3443   4.636   1.175   5.618
 1162TIP3    H2 3444   4.639   1.113   5.480
 1163TIP3   OH2 3445   7.307   3.550   5.992
 1163TIP3    H1 3446   7.312   3.645   6.000
 1163TIP3    H2 3447   7.317   3.517   6.082
 1164TIP3   OH2 3448   5.821   6.206   2.926
 1164TIP3    H1 3449   5.845   6.257   2.849
 1164TIP3    H2 3450   5.832   6.115   2.900
 1165TIP3   OH2 3451   4.370   1.699   3.887
 1165TIP3    H1 3452   4.373   1.604   3.874
 1165TIP3    H2 3453   4.298   1.728   3.831
 1166TIP3   OH2 3454   3.286   4.456   0.628
 1166TIP3    H1 3455   3.272   4.410   0.711
 1166TIP3    H2 3456   3.206   4.509   0.616
 1167TIP3   OH2 3457   5.217   3.349   1.215
 1167TIP3    H1 3458   5.135   3.386   1.183
 1167TIP3    H2 3459   5.191   3.288   1.284
 1168TIP3   OH2 3460   1.525   1.444   1.327
 1168TIP3    H1 3461   1.542   1.444   1.421
 1168TIP3    H2 3462   1.542   1.534   1.300
 1169TIP3   OH2 3463   0.146   6.507   6.089
 1169TIP3    H1 3464   0.136   6.490   5.995
 1169TIP3    H2 3465   0.078   6.571   6.109
 1170TIP3   OH2 3466   7.335   0.000   6.035
 1170TIP3    H1 3467   7.337  -0.077   5.979
 1170TIP3    H2 3468   7.383   0.067   5.985
 1171TIP3   OH2 3469   5.833   6.805   4.249
 1171TIP3    H1 3470   5.868   6.733   4.197
 1171TIP3    H2 3471   5.790   6.862   4.185
 1172TIP3   OH2 3472   0.861   5.501   0.496
 1172TIP3    H1 3473   0.852   5.502   0.400
 1172TIP3    H2 3474   0.944   5.456   0.511
 1173TIP3   OH2 3475   2.576   3.890   1.433
 1173TIP3    H1 3476   2.664   3.924   1.450
 1173TIP3    H2 3477   2.518   3.953   1.476
 1174TIP3   OH2 3478   6.212   4.015   2.157
 1174TIP3    H1 3479   6.235   3.990   2.247
 1174TIP3    H2 3480   6.122   3.984   2.146
 1175TIP3   OH2 3481   2.089   2.412   2.768
 1175TIP3    H1 3482   2.056   2.502   2.758
 1175TIP3    H2 3483   2.049   2.364   2.696
 1176TIP3   OH2 3484   2.482   7.744   5.407
 1176TIP3    H1 3485   2.388   7.763   5.416
 1176TIP3    H2 3486   2.524   7.830   5.405
 1177TIP3   OH2 3487   2.863   1.710   0.190
 1177TIP3    H1 3488   2.827   1.654   0.258
 1177TIP3    H2 3489   2.807   1.693   0.113
 1178TIP3   OH2 3490   5.956   1.392   0.972
 1178TIP3    H1 3491   5.864   1.415   0.985
 1178TIP3    H2 3492   5.954   1.327   0.901
 1179TIP3   OH2 3493   7.400   3.418   3.103
 1179TIP3    H1 3494   7.469   3.384   3.160
 1179TIP3    H2 3495   7.397   3.512   3.122
 1180TIP3   OH2 3496   5.411   3.023   6.424
 1180TIP3    H1 3497   5.495   3.020   6.471
 1180TIP3    H2 3498   5.433   2.995   6.335
 1181TIP3   OH2 3499   6.702   5.614   3.589
 1181TIP3    H1 3500   6.744   5.548   3.534
 1181TIP3    H2 3501   6.661   5.674   3.526
 1182TIP3   OH2 3502   4.583   0.062   3.020
 1182TIP3    H1 3503   4.649   0.119   2.979
 1182TIP3    H2 3504   4.634   0.007   3.080
 1183TIP3   OH2 3505   0.384   3.429   1.208
 1183TIP3    H1 3506   0.449   3.463   1.270
 1183TIP3    H2 3507   0.307   3.410   1.261
 1184TIP3   OH2 3508   2.544   1.579   5.612
 1184TIP3    H1 3509   2.539   1.591   5.707
 1184TIP3    H2 3510   2.551   1.484   5.600
 1185TIP3   OH2 3511   1.517   1.666   1.756
 1185TIP3    H1 3512   1.506   1.616   1.837
 1185TIP3    H2 3513   1.570   1.742   1.782
 1186TIP3   OH2 3514   5.928   0.494   4.845
 1186TIP3    H1 3515   5.896   0.422   4.792
 1186TIP3    H2 3516   5.969   0.554   4.783
 1187TIP3   OH2 3517   3.581   2.130   1.125
 1187TIP3    H1 3518   3.669   2.149   1.157
 1187TIP3    H2 3519   3.548   2.062   1.184
 1188TIP3   OH2 3520   1.407   2.250   3.677
 1188TIP3    H1 3521   1.489   2.205   3.655
 1188TIP3    H2 3522   1.346   2.225   3.608
 1189TIP3   OH2 3523   7.398   7.108   1.175
 1189TIP3    H1 3524   7.304   7.093   1.177
 1189TIP3    H2 3525   7.431   7.064   1.253
 1190TIP3   OH2 3526   7.760   2.451   4.997
 1190TIP3    H1 3527   7.722   2.378   5.046
 1190TIP3    H2 3528   7.744   2.430   4.905
 1191TIP3   OH2 3529   2.264   1.812   0.929
 1191TIP3    H1 3530   2.342   1.850   0.889
 1191TIP3    H2 3531   2.236   1.875   0.995
 1192TIP3   OH2 3532   3.024   5.481   1.780
 1192TIP3    H1 3533   2.953   5.538   1.750
 1192TIP3    H2 3534   3.094   5.496   1.716
 1193TIP3   OH2 3535   8.286   3.296   4.684
 1193TIP3    H1 3536   8.299   3.238   4.609
 1193TIP3    H2 3537   8.195   3.280   4.711
 1194TIP3   OH2 3538   3.090   3.332   5.212
 1194TIP3    H1 3539   3.185   3.321   5.214
 1194TIP3    H2 3540   3.064   3.308   5.123
 1195TIP3   OH2 3541   7.036   1.602   5.609
 1195TIP3    H1 3542   7.025   1.608   5.703
 1195TIP3    H2 3543   7.070   1.688   5.584
 1196TIP3   OH2 3544   4.480   0.576   1.411
 1196TIP3    H1 3545   4.400   0.607   1.368
 1196TIP3    H2 3546   4.494   0.488   1.376
 1197TIP3   OH2 3547   2.831   7.492   3.234
 1197TIP3    H1 3548   2.923   7.513   3.252
 1197TIP3    H2 3549   2.782   7.546   3.295
 1198TIP3   OH2 3550   3.082   2.839   4.605
 1198TIP3    H1 3551   3.020   2.861   4.536
 1198TIP3    H2 3552   3.026   2.807   4.677
 1199TIP3   OH2 3553   1.069   6.688   3.114
 1199TIP3    H1 3554   1.031   6.626   3.052
 1199TIP3    H2 3555   1.159   6.701   3.084
 1200TIP3   OH2 3556   2.345   5.106   4.182
 1200TIP3    H1 3557   2.271   5.165   4.170
 1200TIP3    H2 3558   2.319   5.025   4.138
 1201TIP3   OH2 3559   6.441   4.139   2.005
 1201TIP3    H1 3560   6.358   4.129   2.053
 1201TIP3    H2 3561   6.508   4.107   2.066
 1202TIP3   OH2 3562   1.695   2.742   5.503
 1202TIP3    H1 3563   1.760   2.671   5.504
 1202TIP3    H2 3564   1.738   2.812   5.454
 1203TIP3   OH2 3565   0.771   5.490   3.422
 1203TIP3    H1 3566   0.828   5.493   3.345
 1203TIP3    H2 3567   0.682   5.489   3.387
 1204TIP3   OH2 3568   3.063   3.618   0.310
 1204TIP3    H1 3569   3.042   3.701   0.351
 1204TIP3    H2 3570   3.014   3.618   0.228
 1205TIP3   OH2 3571   6.616   7.092   0.528
 1205TIP3    H1 3572   6.600   7.018   0.586
 1205TIP3    H2 3573   6.594   7.169   0.580
 1206TIP3   OH2 3574   3.655   1.554   3.904
 1206TIP3    H1 3575   3.679   1.611   3.976
 1206TIP3    H2 3576   3.560   1.544   3.912
 1207TIP3   OH2 3577   2.852   6.548   1.354
 1207TIP3    H1 3578   2.769   6.572   1.314
 1207TIP3    H2 3579   2.896   6.495   1.288
 1208TIP3   OH2 3580   8.242   2.965   6.587
 1208TIP3    H1 3581   8.336   2.950   6.574
 1208TIP3    H2 3582   8.204   2.957   6.499
 1209TIP3   OH2 3583   2.181   4.790   0.835
 1209TIP3    H1 3584   2.116   4.795   0.905
 1209TIP3    H2 3585   2.130   4.767   0.757
 1210TIP3   OH2 3586   5.912   4.180   0.215
 1210TIP3    H1 3587   5.871   4.266   0.220
 1210TIP3    H2 3588   5.920   4.152   0.306
 1211TIP3   OH2 3589   4.672   4.957   2.270
 1211TIP3    H1 3590   4.623   5.040   2.271
 1211TIP3    H2 3591   4.659   4.921   2.358
 1212TIP3   OH2 3592   7.596   6.239   2.017
 1212TIP3    H1 3593   7.637   6.173   2.074
 1212TIP3    H2 3594   7.662   6.307   2.008
 1213TIP3   OH2 3595   7.623   2.298   6.655
 1213TIP3    H1 3596   7.668   2.330   6.577
 1213TIP3    H2 3597   7.643   2.363   6.722
 1214TIP3   OH2 3598   3.581   5.616   1.195
 1214TIP3    H1 3599   3.586   5.602   1.100
 1214TIP3    H2 3600   3.488   5.628   1.212
 1215TIP3   OH2 3601   3.874   4.666   6.185
 1215TIP3    H1 3602   3.786   4.698   6.166
 1215TIP3    H2 3603   3.862   4.599   6.252
 1216TIP3   OH2 3604   4.010   7.309   2.835
 1216TIP3    H1 3605   4.045   7.305   2.923
 1216TIP3    H2 3606   4.061   7.245   2.785
 1217TIP3   OH2 3607   4.033   4.188   1.625
 1217TIP3    H1 3608   3.993   4.252   1.684
 1217TIP3    H2 3609   3.989   4.106   1.644
 1218TIP3   OH2 3610   4.716   7.024   1.509
 1218TIP3    H1 3611   4.708   7.118   1.521
 1218TIP3    H2 3612   4.626   6.991   1.521
 1219TIP3   OH2 3613   0.402   6.964   6.457
 1219TIP3    H1 3614   0.355   7.019   6.520
 1219TIP3    H2 3615   0.335   6.908   6.418
 1220TIP3   OH2 3616   2.261   2.965   3.665
 1220TIP3    H1 3617   2.223   2.896   3.611
 1220TIP3    H2 3618   2.193   3.033   3.669
 1221TIP3   OH2 3619   1.015   4.444   1.572
 1221TIP3    H1 3620   1.068   4.367   1.597
 1221TIP3    H2 3621   1.052   4.516   1.623
 1222TIP3   OH2 3622   3.506   7.337   0.068
 1222TIP3    H1 3623   3.552   7.341   0.151
 1222TIP3    H2 3624   3.574   7.351   0.002
 1223TIP3   OH2 3625   7.060   5.992   0.632
 1223TIP3    H1 3626   7.023   6.043   0.705
 1223TIP3    H2 3627   6.984   5.967   0.580
 1224TIP3   OH2 3628   3.408   5.550   0.068
 1224TIP3    H1 3629   3.434   5.566  -0.023
 1224TIP3    H2 3630   3.471   5.599   0.120
 1225TIP3   OH2 3631   4.136   0.299   2.316
 1225TIP3    H1 3632   4.145   0.224   2.257
 1225TIP3    H2 3633   4.226   0.324   2.337
 1226TIP3   OH2 3634   7.413   3.553   2.580
 1226TIP3    H1 3635   7.394   3.632   2.631
 1226TIP3    H2 3636   7.477   3.582   2.515
 1227TIP3   OH2 3637   2.377   3.777   3.087
 1227TIP3    H1 3638   2.453   3.834   3.092
 1227TIP3    H2 3639   2.313   3.827   3.035
 1228TIP3   OH2 3640   4.561   6.114   0.415
 1228TIP3    H1 3641   4.556   6.184   0.479
 1228TIP3    H2 3642   4.596   6.039   0.464
 1229TIP3   OH2 3643   3.656   7.597   4.015
 1229TIP3    H1 3644   3.624   7.526   3.960
 1229TIP3    H2 3645   3.634   7.677   3.968
 1230TIP3   OH2 3646   3.997   7.454   4.556
 1230TIP3    H1 3647   4.077   7.475   4.606
 1230TIP3    H2 3648   3.959   7.540   4.537
 1231TIP3   OH2 3649   5.381   0.997   3.354
 1231TIP3    H1 3650   5.305   0.966   3.402
 1231TIP3    H2 3651   5.346   1.023   3.268
 1232TIP3   OH2 3652   0.136   1.151   6.105
 1232TIP3    H1 3653   0.214   1.151   6.049
 1232TIP3    H2 3654   0.171   1.135   6.193
 1233TIP3   OH2 3655   8.218   7.061   0.463
 1233TIP3    H1 3656   8.139   7.013   0.488
 1233TIP3    H2 3657   8.282   6.992   0.445
 1234TIP3   OH2 3658   0.161   1.077   5.449
 1234TIP3    H1 3659   0.251   1.047   5.434
 1234TIP3    H2 3660   0.162   1.111   5.538
 1235TIP3   OH2 3661   5.926   7.683   1.432
 1235TIP3    H1 3662   5.929   7.594   1.467
 1235TIP3    H2 3663   5.842   7.718   1.462
 1236TIP3   OH2 3664   8.133   6.658   4.710
 1236TIP3    H1 3665   8.051   6.628   4.671
 1236TIP3    H2 3666   8.173   6.713   4.643
 1237TIP3   OH2 3667   2.269   4.275   6.703
 1237TIP3    H1 3668   2.222   4.263   6.786
 1237TIP3    H2 3669   2.201   4.267   6.636
 1238TIP3   OH2 3670   6.931   1.921   5.058
 1238TIP3    H1 3671   6.847   1.875   5.069
 1238TIP3    H2 3672   6.947   1.918   4.964
 1239TIP3   OH2 3673   8.000   5.615   6.802
 1239TIP3    H1 3674   8.052   5.671   6.859
 1239TIP3    H2 3675   8.061   5.586   6.734
 1240TIP3   OH2 3676   6.196   3.510   3.856
 1240TIP3    H1 3677   6.212   3.525   3.949
 1240TIP3    H2 3678   6.230   3.422   3.840
 1241TIP3   OH2 3679   3.139   5.162   6.237
 1241TIP3    H1 3680   3.094   5.212   6.170
 1241TIP3    H2 3681   3.227   5.148   6.202
 1242TIP3   OH2 3682   1.950   1.191   2.424
 1242TIP3    H1 3683   1.961   1.096   2.431
 1242TIP3    H2 3684   1.877   1.211   2.482
 1243TIP3   OH2 3685   2.756   0.676   0.913
 1243TIP3    H1 3686   2.831   0.624   0.883
 1243TIP3    H2 3687   2.789   0.765   0.919
 1244TIP3   OH2 3688   1.766   7.410   6.161
 1244TIP3    H1 3689   1.851   7.432   6.201
 1244TIP3    H2 3690   1.755   7.317   6.176
 1245TIP3   OH2 3691   3.119   0.275   5.892
 1245TIP3    H1 3692   3.054   0.256   5.824
 1245TIP3    H2 3693   3.075   0.336   5.951
 1246TIP3   OH2 3694   3.398   6.958   5.091
 1246TIP3    H1 3695   3.343   6.986   5.018
 1246TIP3    H2 3696   3.421   7.039   5.136
 1247TIP3   OH2 3697   4.137   6.881   2.844
 1247TIP3    H1 3698   4.171   6.881   2.754
 1247TIP3    H2 3699   4.213   6.858   2.897
 1248TIP3   OH2 3700   0.810   4.430   4.763
 1248TIP3    H1 3701   0.745   4.389   4.820
 1248TIP3    H2 3702   0.764   4.441   4.679
 1249TIP3   OH2 3703   4.089   2.190   3.775
 1249TIP3    H1 3704   4.104   2.282   3.752
 1249TIP3    H2 3705   4.012   2.165   3.725
 1250TIP3   OH2 3706   7.219   2.070   3.735
 1250TIP3    H1 3707   7.301   2.029   3.706
 1250TIP3    H2 3708   7.236   2.164   3.727
 1251TIP3   OH2 3709   6.526   3.436   5.034
 1251TIP3    H1 3710   6.608   3.456   4.989
 1251TIP3    H2 3711   6.533   3.483   5.118
 1252TIP3   OH2 3712   2.849   2.894   4.835
 1252TIP3    H1 3713   2.799   2.833   4.781
 1252TIP3    H2 3714   2.876   2.841   4.910
 1253TIP3   OH2 3715   0.643   5.577   1.740
 1253TIP3    H1 3716   0.598   5.543   1.663
 1253TIP3    H2 3717   0.721   5.621   1.704
 1254TIP3   OH2 3718   6.811   3.719   6.381
 1254TIP3    H1 3719   6.885   3.749   6.328
 1254TIP3    H2 3720   6.747   3.789   6.377
 1255TIP3   OH2 3721   2.389   0.553   6.260
 1255TIP3    H1 3722   2.371   0.521   6.171
 1255TIP3    H2 3723   2.448   0.488   6.297
 1256TIP3   OH2 3724   6.326   7.017   4.530
 1256TIP3    H1 3725   6.250   7.042   4.478
 1256TIP3    H2 3726   6.370   7.100   4.549
 1257TIP3   OH2 3727   2.584   7.120  -0.015
 1257TIP3    H1 3728   2.575   7.077   0.070
 1257TIP3    H2 3729   2.623   7.054  -0.072
 1258TIP3   OH2 3730   5.726   5.157   4.807
 1258TIP3    H1 3731   5.728   5.141   4.713
 1258TIP3    H2 3732   5.644   5.203   4.822
 1259TIP3   OH2 3733   3.439   2.374   4.062
 1259TIP3    H1 3734   3.348   2.361   4.087
 1259TIP3    H2 3735   3.445   2.466   4.037
 1260TIP3   OH2 3736   2.478   2.074   1.219
 1260TIP3    H1 3737   2.430   1.998   1.253
 1260TIP3    H2 3738   2.562   2.037   1.191
 1261TIP3   OH2 3739   5.678   5.305   0.628
 1261TIP3    H1 3740   5.714   5.394   0.633
 1261TIP3    H2 3741   5.611   5.311   0.560
 1262TIP3   OH2 3742   7.025   4.736   0.628
 1262TIP3    H1 3743   6.944   4.785   0.626
 1262TIP3    H2 3744   7.061   4.752   0.716
 1263TIP3   OH2 3745   5.980   2.359   1.577
 1263TIP3    H1 3746   6.036   2.344   1.500
 1263TIP3    H2 3747   5.944   2.446   1.563
 1264TIP3   OH2 3748   1.857   4.053   2.817
 1264TIP3    H1 3749   1.844   4.010   2.732
 1264TIP3    H2 3750   1.948   4.083   2.814
 1265TIP3   OH2 3751   6.509   6.270   2.339
 1265TIP3    H1 3752   6.478   6.321   2.264
 1265TIP3    H2 3753   6.600   6.297   2.351
 1266TIP3   OH2 3754   0.921   0.312   4.555
 1266TIP3    H1 3755   0.881   0.282   4.637
 1266TIP3    H2 3756   0.937   0.231   4.506
 1267TIP3   OH2 3757   6.254   1.467   4.331
 1267TIP3    H1 3758   6.251   1.402   4.261
 1267TIP3    H2 3759   6.337   1.512   4.319
 1268TIP3   OH2 3760   1.726   2.233   2.345
 1268TIP3    H1 3761   1.703   2.291   2.418
 1268TIP3    H2 3762   1.672   2.265   2.272
 1269TIP3   OH2 3763   6.361   1.207   1.813
 1269TIP3    H1 3764   6.455   1.211   1.833
 1269TIP3    H2 3765   6.343   1.288   1.767
 1270TIP3   OH2 3766   2.222   1.465   1.870
 1270TIP3    H1 3767   2.237   1.424   1.955
 1270TIP3    H2 3768   2.160   1.405   1.827
 1271TIP3   OH2 3769   0.458   0.470   2.275
 1271TIP3    H1 3770   0.534   0.470   2.333
 1271TIP3    H2 3771   0.480   0.409   2.206
 1272TIP3   OH2 3772   2.539   6.567   1.782
 1272TIP3    H1 3773   2.622   6.557   1.736
 1272TIP3    H2 3774   2.560   6.549   1.874
 1273TIP3   OH2 3775   2.954   4.552   1.512
 1273TIP3    H1 3776   2.907   4.591   1.586
 1273TIP3    H2 3777   3.044   4.585   1.521
 1274TIP3   OH2 3778   2.362   4.919   3.669
 1274TIP3    H1 3779   2.334   4.997   3.622
 1274TIP3    H2 3780   2.329   4.846   3.616
 1275TIP3   OH2 3781   6.722   1.753   5.059
 1275TIP3    H1 3782   6.754   1.667   5.087
 1275TIP3    H2 3783   6.630   1.739   5.040
 1276TIP3   OH2 3784   2.691   4.259   3.191
 1276TIP3    H1 3785   2.722   4.284   3.104
 1276TIP3    H2 3786   2.764   4.210   3.229
 1277TIP3   OH2 3787   1.878   0.408   5.896
 1277TIP3    H1 3788   1.951   0.420   5.956
 1277TIP3    H2 3789   1.881   0.316   5.873
 1278TIP3   OH2 3790   0.930   6.033   3.680
 1278TIP3    H1 3791   0.905   6.108   3.626
 1278TIP3    H2 3792   0.852   6.014   3.733
 1279TIP3   OH2 3793   3.985   6.858   0.338
 1279TIP3    H1 3794   3.914   6.815   0.386
 1279TIP3    H2 3795   4.003   6.938   0.386
 1280TIP3   OH2 3796   1.723   5.358   5.147
 1280TIP3    H1 3797   1.659   5.355   5.219
 1280TIP3    H2 3798   1.753   5.449   5.146
 1281TIP3   OH2 3799   1.593   1.743   5.945
 1281TIP3    H1 3800   1.541   1.784   5.876
 1281TIP3    H2 3801   1.676   1.790   5.944
 1282TIP3   OH2 3802   3.854   3.070   3.685
 1282TIP3    H1 3803   3.826   3.007   3.751
 1282TIP3    H2 3804   3.919   3.124   3.729
 1283TIP3   OH2 3805   1.098   5.192   1.779
 1283TIP3    H1 3806   1.094   5.262   1.844
 1283TIP3    H2 3807   1.055   5.117   1.820
 1284TIP3   OH2 3808   0.589   4.069   2.961
 1284TIP3    H1 3809   0.638   4.112   2.891
 1284TIP3    H2 3810   0.598   4.128   3.037
 1285TIP3   OH2 3811   7.715   4.909   6.238
 1285TIP3    H1 3812   7.661   4.946   6.169
 1285TIP3    H2 3813   7.732   4.982   6.298
 1286TIP3   OH2 3814   3.853   7.736   6.318
 1286TIP3    H1 3815   3.890   7.675   6.255
 1286TIP3    H2 3816   3.817   7.807   6.263
 1287TIP3   OH2 3817   7.781   1.671   4.594
 1287TIP3    H1 3818   7.751   1.740   4.654
 1287TIP3    H2 3819   7.854   1.711   4.547
 1288TIP3   OH2 3820   7.026   1.071   6.531
 1288TIP3    H1 3821   7.039   1.115   6.447
 1288TIP3    H2 3822   6.949   1.017   6.518
 1289TIP3   OH2 3823   1.277   0.294   1.983
 1289TIP3    H1 3824   1.304   0.333   1.900
 1289TIP3    H2 3825   1.357   0.290   2.035
 1290TIP3   OH2 3826   4.001   7.361   5.799
 1290TIP3    H1 3827   3.941   7.432   5.776
 1290TIP3    H2 3828   4.080   7.379   5.748
 1291TIP3   OH2 3829   5.606   5.279   2.157
 1291TIP3    H1 3830   5.598   5.233   2.073
 1291TIP3    H2 3831   5.564   5.221   2.221
 1292TIP3   OH2 3832   7.769   1.593   5.682
 1292TIP3    H1 3833   7.707   1.649   5.728
 1292TIP3    H2 3834   7.804   1.534   5.750
 1293TIP3   OH2 3835   2.604   6.853   4.681
 1293TIP3    H1 3836   2.552   6.842   4.601
 1293TIP3    H2 3837   2.694   6.839   4.652
 1294TIP3   OH2 3838   3.935   2.475   4.099
 1294TIP3    H1 3839   3.999   2.544   4.081
 1294TIP3    H2 3840   3.879   2.473   4.022
 1295TIP3   OH2 3841   5.113   2.698   0.263
 1295TIP3    H1 3842   5.086   2.717   0.353
 1295TIP3    H2 3843   5.154   2.612   0.269
 1296TIP3   OH2 3844   0.092   2.689   4.749
 1296TIP3    H1 3845   0.042   2.768   4.768
 1296TIP3    H2 3846   0.071   2.669   4.658
 1297TIP3   OH2 3847   6.971   2.570   2.814
 1297TIP3    H1 3848   6.990   2.476   2.810
 1297TIP3    H2 3849   7.034   2.604   2.878
 1298TIP3   OH2 3850   5.217   3.644   6.286
 1298TIP3    H1 3851   5.194   3.608   6.200
 1298TIP3    H2 3852   5.271   3.577   6.327
 1299TIP3   OH2 3853   6.535   2.886   5.835
 1299TIP3    H1 3854   6.554   2.831   5.760
 1299TIP3    H2 3855   6.444   2.914   5.823
 1300TIP3   OH2 3856   4.971   1.297   6.015
 1300TIP3    H1 3857   4.931   1.298   6.102
 1300TIP3    H2 3858   4.971   1.205   5.989
 1301TIP3   OH2 3859   0.043   7.767   2.595
 1301TIP3    H1 3860   0.088   7.849   2.616
 1301TIP3    H2 3861   0.047   7.716   2.676
 1302TIP3   OH2 3862   0.518   0.699   1.939
 1302TIP3    H1 3863   0.473   0.744   2.010
 1302TIP3    H2 3864   0.455   0.634   1.908
 1303TIP3   OH2 3865   0.488   5.940   2.891
 1303TIP3    H1 3866   0.419   5.880   2.865
 1303TIP3    H2 3867   0.498   5.998   2.816
 1304TIP3   OH2 3868   3.844   6.574   3.003
 1304TIP3    H1 3869   3.794   6.654   2.988
 1304TIP3    H2 3870   3.917   6.580   2.942
 1305TIP3   OH2 3871   4.864   4.408   0.232
 1305TIP3    H1 3872   4.834   4.458   0.156
 1305TIP3    H2 3873   4.864   4.472   0.304
 1306TIP3   OH2 3874   5.897   1.462   2.156
 1306TIP3    H1 3875   5.824   1.401   2.166
 1306TIP3    H2 3876   5.856   1.549   2.154
 1307TIP3   OH2 3877   6.214   5.471  -0.025
 1307TIP3    H1 3878   6.201   5.520  -0.106
 1307TIP3    H2 3879   6.307   5.478  -0.006
 1308TIP3   OH2 3880   2.929   3.602   5.069
 1308TIP3    H1 3881   3.010   3.567   5.031
 1308TIP3    H2 3882   2.958   3.665   5.135
 1309TIP3   OH2 3883   3.407   1.591   1.244
 1309TIP3    H1 3884   3.420   1.502   1.212
 1309TIP3    H2 3885   3.479   1.641   1.207
 1310TIP3   OH2 3886   1.565   1.177   2.827
 1310TIP3    H1 3887   1.488   1.232   2.843
 1310TIP3    H2 3888   1.529   1.088   2.818
 1311TIP3   OH2 3889   6.267   0.358   2.049
 1311TIP3    H1 3890   6.184   0.346   2.095
 1311TIP3    H2 3891   6.268   0.288   1.983
 1312TIP3   OH2 3892   5.845   6.210   5.777
 1312TIP3    H1 3893   5.840   6.121   5.810
 1312TIP3    H2 3894   5.754   6.241   5.775
 1313TIP3   OH2 3895   5.819   7.631   2.763
 1313TIP3    H1 3896   5.788   7.714   2.726
 1313TIP3    H2 3897   5.828   7.573   2.688
 1314TIP3   OH2 3898   7.552   5.340   2.906
 1314TIP3    H1 3899   7.584   5.304   2.823
 1314TIP3    H2 3900   7.473   5.290   2.925
 1315TIP3   OH2 3901   4.430   3.613   1.104
 1315TIP3    H1 3902   4.407   3.704   1.084
 1315TIP3    H2 3903   4.421   3.607   1.200
 1316TIP3   OH2 3904   4.221   5.679   4.775
 1316TIP3    H1 3905   4.227   5.584   4.774
 1316TIP3    H2 3906   4.258   5.705   4.859
 1317TIP3   OH2 3907   2.312   5.784   0.761
 1317TIP3    H1 3908   2.386   5.724   0.750
 1317TIP3    H2 3909   2.332   5.858   0.704
 1318TIP3   OH2 3910   8.063   0.524   4.300
 1318TIP3    H1 3911   8.034   0.559   4.384
 1318TIP3    H2 3912   8.157   0.545   4.297
 1319TIP3   OH2 3913   4.080   0.448   6.632
 1319TIP3    H1 3914   4.011   0.406   6.684
 1319TIP3    H2 3915   4.058   0.541   6.635
 1320TIP3   OH2 3916   7.764   1.985   5.068
 1320TIP3    H1 3917   7.680   2.002   5.026
 1320TIP3    H2 3918   7.800   1.909   5.021
 1321TIP3   OH2 3919   4.645   7.600   0.191
 1321TIP3    H1 3920   4.584   7.590   0.264
 1321TIP3    H2 3921   4.683   7.686   0.204
 1322TIP3   OH2 3922   7.484   0.638   4.322
 1322TIP3    H1 3923   7.408   0.582   4.304
 1322TIP3    H2 3924   7.457   0.725   4.292
 1323TIP3   OH2 3925   7.910   5.349   6.474
 1323TIP3    H1 3926   7.999   5.384   6.484
 1323TIP3    H2 3927   7.920   5.255   6.488
 1324TIP3   OH2 3928   3.157   5.834   2.546
 1324TIP3    H1 3929   3.237   5.783   2.533
 1324TIP3    H2 3930   3.173   5.884   2.626
 1325TIP3   OH2 3931   8.246   6.631   2.725
 1325TIP3    H1 3932   8.198   6.713   2.736
 1325TIP3    H2 3933   8.251   6.594   2.813
 1326TIP3   OH2 3934   3.072   0.606   6.759
 1326TIP3    H1 3935   3.041   0.663   6.690
 1326TIP3    H2 3936   3.168   0.612   6.754
 1327TIP3   OH2 3937   3.543   0.133   5.908
 1327TIP3    H1 3938   3.589   0.198   5.961
 1327TIP3    H2 3939   3.570   0.049   5.945
 1328TIP3   OH2 3940   6.673   6.982   5.113
 1328TIP3    H1 3941   6.654   7.064   5.158
 1328TIP3    H2 3942   6.764   6.990   5.085
 1329TIP3   OH2 3943   7.584   6.982   1.006
 1329TIP3    H1 3944   7.546   6.906   0.961
 1329TIP3    H2 3945   7.507   7.031   1.037
 1330TIP3   OH2 3946   2.337   5.804   2.106
 1330TIP3    H1 3947   2.284   5.837   2.033
 1330TIP3    H2 3948   2.316   5.711   2.111
 1331TIP3   OH2 3949   3.367   0.179   6.210
 1331TIP3    H1 3950   3.402   0.117   6.275
 1331TIP3    H2 3951   3.439   0.240   6.195
 1332TIP3   OH2 3952   7.836   2.034   0.220
 1332TIP3    H1 3953   7.835   2.095   0.147
 1332TIP3    H2 3954   7.910   1.976   0.202
 1333TIP3   OH2 3955   4.712   0.521   4.859
 1333TIP3    H1 3956   4.621   0.494   4.845
 1333TIP3    H2 3957   4.749   0.452   4.914
 1334TIP3   OH2 3958   3.410   4.067   3.036
 1334TIP3    H1 3959   3.441   4.009   2.966
 1334TIP3    H2 3960   3.489   4.111   3.067
 1335TIP3   OH2 3961   0.839   3.321   4.295
 1335TIP3    H1 3962   0.760   3.268   4.283
 1335TIP3    H2 3963   0.810   3.411   4.279
 1336TIP3   OH2 3964   2.022   7.143   4.007
 1336TIP3    H1 3965   2.093   7.207   4.008
 1336TIP3    H2 3966   1.943   7.194   3.988
 1337TIP3   OH2 3967   0.778   6.765   3.568
 1337TIP3    H1 3968   0.714   6.806   3.627
 1337TIP3    H2 3969   0.793   6.831   3.500
 1338TIP3   OH2 3970   7.283   5.332   3.233
 1338TIP3    H1 3971   7.248   5.344   3.321
 1338TIP3    H2 3972   7.318   5.417   3.209
 1339TIP3   OH2 3973   4.499   1.621   5.640
 1339TIP3    H1 3974   4.584   1.599   5.679
 1339TIP3    H2 3975   4.439   1.555   5.675
 1340TIP3   OH2 3976   2.862   4.643   6.525
 1340TIP3    H1 3977   2.803   4.703   6.570
 1340TIP3    H2 3978   2.949   4.670   6.552
 1341TIP3   OH2 3979   2.325   2.193   6.607
 1341TIP3    H1 3980   2.325   2.117   6.666
 1341TIP3    H2 3981   2.283   2.162   6.527
 1342TIP3   OH2 3982   4.598   3.644   6.274
 1342TIP3    H1 3983   4.515   3.618   6.234
 1342TIP3    H2 3984   4.662   3.581   6.241
 1343TIP3   OH2 3985   5.670   7.407   1.391
 1343TIP3    H1 3986   5.610   7.353   1.340
 1343TIP3    H2 3987   5.706   7.470   1.329
 1344TIP3   OH2 3988   5.093   6.592   5.721
 1344TIP3    H1 3989   5.162   6.628   5.777
 1344TIP3    H2 3990   5.128   6.599   5.632
 1345TIP3   OH2 3991   6.561   7.268   0.731
 1345TIP3    H1 3992   6.591   7.217   0.807
 1345TIP3    H2 3993   6.490   7.322   0.765
 1346TIP3   OH2 3994   6.977   1.109   2.937
 1346TIP3    H1 3995   7.056   1.122   2.990
 1346TIP3    H2 3996   7.006   1.126   2.848
 1347TIP3   OH2 3997   4.981   5.146   3.890
 1347TIP3    H1 3998   5.003   5.239   3.893
 1347TIP3    H2 3999   5.064   5.101   3.901
 1348TIP3   OH2 4000   0.621   3.350   4.917
 1348TIP3    H1 4001   0.651   3.426   4.967
 1348TIP3    H2 4002   0.660   3.362   4.830
 1349TIP3   OH2 4003   0.651   1.495   0.344
 1349TIP3    H1 4004   0.659   1.435   0.418
 1349TIP3    H2 4005   0.740   1.507   0.313
 1350TIP3   OH2 4006   5.783   3.844   4.694
 1350TIP3    H1 4007   5.784   3.753   4.722
 1350TIP3    H2 4008   5.807   3.841   4.601
 1351TIP3   OH2 4009   4.992   0.205   5.745
 1351TIP3    H1 4010   4.904   0.216   5.780
 1351TIP3    H2 4011   5.012   0.113   5.758
 1352TIP3   OH2 4012   5.571   1.977   4.429
 1352TIP3    H1 4013   5.510   1.997   4.358
 1352TIP3    H2 4014   5.657   1.981   4.388
 1353TIP3   OH2 4015   4.204   0.213   5.012
 1353TIP3    H1 4016   4.264   0.209   4.937
 1353TIP3    H2 4017   4.144   0.141   4.998
 1354TIP3   OH2 4018   4.925   0.583   3.565
 1354TIP3    H1 4019   4.946   0.490   3.565
 1354TIP3    H2 4020   4.887   0.600   3.652
 1355TIP3   OH2 4021   5.453   5.294   2.538
 1355TIP3    H1 4022   5.501   5.340   2.606
 1355TIP3    H2 4023   5.429   5.210   2.577
 1356TIP3   OH2 4024   3.252   5.796   1.467
 1356TIP3    H1 4025   3.228   5.774   1.377
 1356TIP3    H2 4026   3.345   5.773   1.473
 1357TIP3   OH2 4027   3.922   0.708   4.305
 1357TIP3    H1 4028   3.863   0.670   4.241
 1357TIP3    H2 4029   3.976   0.768   4.253
 1358TIP3   OH2 4030   7.336   0.830   5.064
 1358TIP3    H1 4031   7.298   0.903   5.016
 1358TIP3    H2 4032   7.410   0.867   5.111
 1359TIP3   OH2 4033   5.153   2.261   5.051
 1359TIP3    H1 4034   5.150   2.168   5.072
 1359TIP3    H2 4035   5.196   2.265   4.966
 1360TIP3   OH2 4036   3.271   2.762   4.422
 1360TIP3    H1 4037   3.287   2.672   4.449
 1360TIP3    H2 4038   3.210   2.796   4.487
 1361TIP3   OH2 4039   3.223   7.326   1.639
 1361TIP3    H1 4040   3.204   7.419   1.648
 1361TIP3    H2 4041   3.289   7.321   1.570
 1362TIP3   OH2 4042   4.208   1.658   6.520
 1362TIP3    H1 4043   4.118   1.670   6.549
 1362TIP3    H2 4044   4.237   1.576   6.560
 1363TIP3   OH2 4045   2.407   2.660   5.183
 1363TIP3    H1 4046   2.472   2.600   5.146
 1363TIP3    H2 4047   2.325   2.611   5.180
 1364TIP3   OH2 4048   2.165   7.044   0.012
 1364TIP3    H1 4049   2.244   7.089  -0.015
 1364TIP3    H2 4050   2.160   7.060   0.107
 1365TIP3   OH2 4051   8.261   2.700   0.092
 1365TIP3    H1 4052   8.264   2.605   0.088
 1365TIP3    H2 4053   8.168   2.721   0.099
 1366TIP3   OH2 4054   7.434   0.275   2.181
 1366TIP3    H1 4055   7.484   0.357   2.184
 1366TIP3    H2 4056   7.374   0.286   2.108
 1367TIP3   OH2 4057   2.533   1.744   1.928
 1367TIP3    H1 4058   2.558   1.834   1.904
 1367TIP3    H2 4059   2.614   1.694   1.919
 1368TIP3   OH2 4060   7.187   1.458   3.925
 1368TIP3    H1 4061   7.101   1.496   3.941
 1368TIP3    H2 4062   7.242   1.533   3.905
 1369TIP3   OH2 4063   0.983   7.653   3.796
 1369TIP3    H1 4064   1.020   7.642   3.883
 1369TIP3    H2 4065   1.058   7.668   3.739
 1370TIP3   OH2 4066   5.243   4.927   1.486
 1370TIP3    H1 4067   5.299   4.974   1.424
 1370TIP3    H2 4068   5.299   4.856   1.518
 1371TIP3   OH2 4069   4.589   1.240   1.197
 1371TIP3    H1 4070   4.559   1.207   1.112
 1371TIP3    H2 4071   4.596   1.334   1.185
 1372TIP3   OH2 4072   2.891   7.214   3.221
 1372TIP3    H1 4073   2.848   7.297   3.202
 1372TIP3    H2 4074   2.976   7.219   3.177
 1373TIP3   OH2 4075   4.305   0.155   0.706
 1373TIP3    H1 4076   4.234   0.148   0.770
 1373TIP3    H2 4077   4.303   0.247   0.678
 1374TIP3   OH2 4078   5.654   5.690   6.383
 1374TIP3    H1 4079   5.650   5.598   6.408
 1374TIP3    H2 4080   5.562   5.716   6.375
 1375TIP3   OH2 4081   4.455   3.360   5.826
 1375TIP3    H1 4082   4.546   3.380   5.849
 1375TIP3    H2 4083   4.409   3.356   5.909
 1376TIP3   OH2 4084   3.376   1.936   5.080
 1376TIP3    H1 4085   3.336   2.006   5.029
 1376TIP3    H2 4086   3.460   1.971   5.108
 1377TIP3   OH2 4087   5.337   4.350   1.306
 1377TIP3    H1 4088   5.290   4.409   1.247
 1377TIP3    H2 4089   5.359   4.274   1.252
 1378TIP3   OH2 4090   6.411   3.764   5.050
 1378TIP3    H1 4091   6.434   3.854   5.072
 1378TIP3    H2 4092   6.468   3.710   5.106
 1379TIP3   OH2 4093   0.463   1.880   3.227
 1379TIP3    H1 4094   0.448   1.842   3.314
 1379TIP3    H2 4095   0.377   1.880   3.186
 1380TIP3   OH2 4096   4.678   3.563   4.267
 1380TIP3    H1 4097   4.602   3.569   4.324
 1380TIP3    H2 4098   4.661   3.627   4.198
 1381TIP3   OH2 4099   1.759   2.438   3.132
 1381TIP3    H1 4100   1.684   2.488   3.164
 1381TIP3    H2 4101   1.721   2.378   3.067
 1382TIP3   OH2 4102   4.213   2.532   5.222
 1382TIP3    H1 4103   4.176   2.468   5.282
 1382TIP3    H2 4104   4.230   2.609   5.277
 1383TIP3   OH2 4105   7.669   4.246   3.712
 1383TIP3    H1 4106   7.748   4.300   3.719
 1383TIP3    H2 4107   7.684   4.174   3.774
 1384TIP3   OH2 4108   3.956   5.942   3.652
 1384TIP3    H1 4109   4.015   5.894   3.710
 1384TIP3    H2 4110   3.878   5.887   3.648
 1385TIP3   OH2 4111   4.541   5.334   5.833
 1385TIP3    H1 4112   4.611   5.354   5.896
 1385TIP3    H2 4113   4.465   5.312   5.888
 1386TIP3   OH2 4114   4.185   5.134   5.517
 1386TIP3    H1 4115   4.252   5.105   5.578
 1386TIP3    H2 4116   4.227   5.205   5.467
 1387TIP3   OH2 4117   4.153   0.826   4.175
 1387TIP3    H1 4118   4.159   0.885   4.100
 1387TIP3    H2 4119   4.213   0.754   4.154
 1388TIP3   OH2 4120   0.698   3.251   3.995
 1388TIP3    H1 4121   0.676   3.210   4.078
 1388TIP3    H2 4122   0.781   3.211   3.969
 1389TIP3   OH2 4123   6.115   2.384   3.363
 1389TIP3    H1 4124   6.152   2.297   3.380
 1389TIP3    H2 4125   6.062   2.403   3.441
 1390TIP3   OH2 4126   1.357   5.131   1.866
 1390TIP3    H1 4127   1.429   5.184   1.832
 1390TIP3    H2 4128   1.282   5.155   1.811
 1391TIP3   OH2 4129   0.323   2.817   1.005
 1391TIP3    H1 4130   0.371   2.780   0.931
 1391TIP3    H2 4131   0.231   2.815   0.978
 1392TIP3   OH2 4132   6.459   3.624   1.518
 1392TIP3    H1 4133   6.428   3.533   1.521
 1392TIP3    H2 4134   6.435   3.660   1.604
 1393TIP3   OH2 4135   7.244   6.552   3.414
 1393TIP3    H1 4136   7.157   6.513   3.422
 1393TIP3    H2 4137   7.301   6.491   3.461
 1394TIP3   OH2 4138   5.850   3.310   5.071
 1394TIP3    H1 4139   5.921   3.373   5.077
 1394TIP3    H2 4140   5.793   3.330   5.145
 1395TIP3   OH2 4141   1.569   0.359   0.594
 1395TIP3    H1 4142   1.485   0.383   0.632
 1395TIP3    H2 4143   1.582   0.421   0.522
 1396TIP3   OH2 4144   1.633   4.508   3.071
 1396TIP3    H1 4145   1.706   4.567   3.092
 1396TIP3    H2 4146   1.578   4.510   3.149
 1397TIP3   OH2 4147   7.138   4.983   2.843
 1397TIP3    H1 4148   7.110   4.902   2.800
 1397TIP3    H2 4149   7.234   4.983   2.833
 1398TIP3   OH2 4150   6.784   4.507   0.241
 1398TIP3    H1 4151   6.867   4.519   0.195
 1398TIP3    H2 4152   6.717   4.527   0.175
 1399TIP3   OH2 4153   7.091   7.156   4.825
 1399TIP3    H1 4154   7.176   7.112   4.825
 1399TIP3    H2 4155   7.097   7.219   4.752
 1400TIP3   OH2 4156   1.599   1.173   5.247
 1400TIP3    H1 4157   1.566   1.237   5.310
 1400TIP3    H2 4158   1.523   1.152   5.192
 1401TIP3   OH2 4159   0.447   1.383   4.490
 1401TIP3    H1 4160   0.471   1.381   4.398
 1401TIP3    H2 4161   0.366   1.333   4.496
 1402TIP3   OH2 4162   1.326   4.651   3.491
 1402TIP3    H1 4163   1.312   4.683   3.402
 1402TIP3    H2 4164   1.357   4.727   3.539
 1403TIP3   OH2 4165   3.594   1.638   3.147
 1403TIP3    H1 4166   3.577   1.730   3.166
 1403TIP3    H2 4167   3.670   1.616   3.202
 1404TIP3   OH2 4168   1.219   4.514   3.920
 1404TIP3    H1 4169   1.225   4.533   4.013
 1404TIP3    H2 4170   1.220   4.418   3.915
 1405TIP3   OH2 4171   6.152   1.482   0.000
 1405TIP3    H1 4172   6.176   1.422   0.071
 1405TIP3    H2 4173   6.059   1.463  -0.017
 1406TIP3   OH2 4174   6.697   0.929   2.729
 1406TIP3    H1 4175   6.616   0.967   2.762
 1406TIP3    H2 4176   6.668   0.860   2.669
 1407TIP3   OH2 4177   5.574   5.059   1.956
 1407TIP3    H1 4178   5.575   5.015   2.041
 1407TIP3    H2 4179   5.550   4.990   1.894
 1408TIP3   OH2 4180   6.579   4.461   3.999
 1408TIP3    H1 4181   6.543   4.461   4.087
 1408TIP3    H2 4182   6.552   4.376   3.963
 1409TIP3   OH2 4183   7.444   2.200   0.566
 1409TIP3    H1 4184   7.519   2.183   0.508
 1409TIP3    H2 4185   7.413   2.287   0.540
 1410TIP3   OH2 4186   5.350   1.087   1.336
 1410TIP3    H1 4187   5.273   1.101   1.391
 1410TIP3    H2 4188   5.409   1.034   1.390
 1411TIP3   OH2 4189   4.914   5.355   5.259
 1411TIP3    H1 4190   4.898   5.394   5.174
 1411TIP3    H2 4191   4.859   5.276   5.260
 1412TIP3   OH2 4192   4.227   2.696   0.888
 1412TIP3    H1 4193   4.211   2.603   0.903
 1412TIP3    H2 4194   4.225   2.735   0.975
 1413TIP3   OH2 4195   6.815   3.153   4.393
 1413TIP3    H1 4196   6.738   3.163   4.337
 1413TIP3    H2 4197   6.833   3.242   4.425
 1414TIP3   OH2 4198   4.715   7.494   5.355
 1414TIP3    H1 4199   4.805   7.508   5.384
 1414TIP3    H2 4200   4.677   7.582   5.352
 1415TIP3   OH2 4201   8.190   1.769   1.241
 1415TIP3    H1 4202   8.232   1.760   1.326
 1415TIP3    H2 4203   8.169   1.863   1.234
 1416TIP3   OH2 4204   2.486   4.395   6.429
 1416TIP3    H1 4205   2.472   4.409   6.523
 1416TIP3    H2 4206   2.581   4.394   6.419
 1417TIP3   OH2 4207   7.559   1.112   2.673
 1417TIP3    H1 4208   7.649   1.102   2.703
 1417TIP3    H2 4209   7.527   1.190   2.718
 1418TIP3   OH2 4210   3.253   4.533   6.247
 1418TIP3    H1 4211   3.235   4.485   6.328
 1418TIP3    H2 4212   3.167   4.543   6.206
 1419TIP3   OH2 4213   4.153   4.477   1.092
 1419TIP3    H1 4214   4.096   4.404   1.116
 1419TIP3    H2 4215   4.231   4.436   1.056
 1420TIP3   OH2 4216   5.342   5.601   4.759
 1420TIP3    H1 4217   5.263   5.565   4.798
 1420TIP3    H2 4218   5.399   5.621   4.833
 1421TIP3   OH2 4219   1.683   0.105   6.267
 1421TIP3    H1 4220   1.604   0.137   6.310
 1421TIP3    H2 4221   1.744   0.179   6.269
 1422TIP3   OH2 4222   2.546   7.550   4.815
 1422TIP3    H1 4223   2.550   7.594   4.730
 1422TIP3    H2 4224   2.599   7.471   4.804
 1423TIP3   OH2 4225   4.946   3.307   6.356
 1423TIP3    H1 4226   4.985   3.393   6.370
 1423TIP3    H2 4227   4.865   3.308   6.407
 1424TIP3   OH2 4228   1.105   1.625   3.242
 1424TIP3    H1 4229   1.011   1.640   3.246
 1424TIP3    H2 4230   1.126   1.633   3.149
 1425TIP3   OH2 4231   6.118   3.267   1.042
 1425TIP3    H1 4232   6.178   3.221   1.100
 1425TIP3    H2 4233   6.058   3.199   1.010
 1426TIP3   OH2 4234   7.378   6.313   2.229
 1426TIP3    H1 4235   7.425   6.397   2.225
 1426TIP3    H2 4236   7.368   6.288   2.137
 1427TIP3   OH2 4237   7.784   0.860   1.758
 1427TIP3    H1 4238   7.727   0.923   1.715
 1427TIP3    H2 4239   7.851   0.840   1.693
 1428TIP3   OH2 4240   3.233   4.141   1.720
 1428TIP3    H1 4241   3.242   4.113   1.811
 1428TIP3    H2 4242   3.170   4.212   1.723
 1429TIP3   OH2 4243   2.786   4.725   1.291
 1429TIP3    H1 4244   2.781   4.702   1.384
 1429TIP3    H2 4245   2.815   4.645   1.249
 1430TIP3   OH2 4246   1.399   3.609   4.785
 1430TIP3    H1 4247   1.394   3.700   4.815
 1430TIP3    H2 4248   1.327   3.564   4.830
 1431TIP3   OH2 4249   0.277   1.269   2.946
 1431TIP3    H1 4250   0.329   1.254   3.025
 1431TIP3    H2 4251   0.292   1.192   2.892
 1432TIP3   OH2 4252   7.997   1.898   1.504
 1432TIP3    H1 4253   8.043   1.939   1.577
 1432TIP3    H2 4254   8.037   1.936   1.426
 1433TIP3   OH2 4255   6.236   3.863   6.497
 1433TIP3    H1 4256   6.166   3.799   6.509
 1433TIP3    H2 4257   6.195   3.936   6.450
 1434TIP3   OH2 4258   3.912   1.956   2.152
 1434TIP3    H1 4259   3.871   1.870   2.151
 1434TIP3    H2 4260   3.992   1.945   2.101
 1435TIP3   OH2 4261   7.536   0.483   6.708
 1435TIP3    H1 4262   7.628   0.462   6.698
 1435TIP3    H2 4263   7.524   0.562   6.654
 1436TIP3   OH2 4264   6.117   4.108   5.523
 1436TIP3    H1 4265   6.193   4.167   5.523
 1436TIP3    H2 4266   6.085   4.109   5.433
 1437TIP3   OH2 4267   2.585   7.647   1.274
 1437TIP3    H1 4268   2.637   7.693   1.339
 1437TIP3    H2 4269   2.571   7.711   1.204
 1438TIP3   OH2 4270   4.550   3.746   4.082
 1438TIP3    H1 4271   4.608   3.819   4.102
 1438TIP3    H2 4272   4.465   3.786   4.067
 1439TIP3   OH2 4273   4.429   3.169   3.384
 1439TIP3    H1 4274   4.427   3.263   3.402
 1439TIP3    H2 4275   4.362   3.156   3.317
 1440TIP3   OH2 4276   1.545   3.261   0.517
 1440TIP3    H1 4277   1.488   3.338   0.516
 1440TIP3    H2 4278   1.511   3.206   0.587
 1441TIP3   OH2 4279   2.513   4.523   4.490
 1441TIP3    H1 4280   2.491   4.551   4.579
 1441TIP3    H2 4281   2.592   4.469   4.501
 1442TIP3   OH2 4282   4.150   0.696   0.279
 1442TIP3    H1 4283   4.214   0.689   0.209
 1442TIP3    H2 4284   4.092   0.768   0.251
 1443TIP3   OH2 4285   6.570   0.133   5.240
 1443TIP3    H1 4286   6.576   0.113   5.334
 1443TIP3    H2 4287   6.512   0.065   5.205
 1444TIP3   OH2 4288   7.800   6.611   2.270
 1444TIP3    H1 4289   7.791   6.698   2.309
 1444TIP3    H2 4290   7.879   6.575   2.310
 1445TIP3   OH2 4291   8.235   0.743   2.650
 1445TIP3    H1 4292   8.237   0.781   2.562
 1445TIP3    H2 4293   8.218   0.817   2.708
 1446TIP3   OH2 4294   3.473   7.296   1.246
 1446TIP3    H1 4295   3.515   7.362   1.191
 1446TIP3    H2 4296   3.510   7.213   1.217
 1447TIP3   OH2 4297   2.556   4.155   6.085
 1447TIP3    H1 4298   2.487   4.125   6.025
 1447TIP3    H2 4299   2.515   4.154   6.171
 1448TIP3   OH2 4300   1.268   6.216   4.654
 1448TIP3    H1 4301   1.358   6.224   4.622
 1448TIP3    H2 4302   1.221   6.171   4.584
 1449TIP3   OH2 4303   4.509   0.547   3.449
 1449TIP3    H1 4304   4.592   0.535   3.403
 1449TIP3    H2 4305   4.533   0.591   3.531
 1450TIP3   OH2 4306   4.922   2.211   5.424
 1450TIP3    H1 4307   4.875   2.293   5.410
 1450TIP3    H2 4308   4.920   2.197   5.518
 1451TIP3   OH2 4309   5.719   4.022   0.147
 1451TIP3    H1 4310   5.750   3.959   0.083
 1451TIP3    H2 4311   5.796   4.073   0.171
 1452TIP3   OH2 4312   2.584   5.466   1.173
 1452TIP3    H1 4313   2.598   5.402   1.243
 1452TIP3    H2 4314   2.601   5.418   1.092
 1453TIP3   OH2 4315   4.196   7.528   3.171
 1453TIP3    H1 4316   4.273   7.579   3.194
 1453TIP3    H2 4317   4.135   7.591   3.132
 1454TIP3   OH2 4318   3.162   4.018   5.264
 1454TIP3    H1 4319   3.152   4.070   5.344
 1454TIP3    H2 4320   3.254   3.992   5.264
 1455TIP3   OH2 4321   7.142   5.463   5.669
 1455TIP3    H1 4322   7.061   5.440   5.714
 1455TIP3    H2 4323   7.210   5.454   5.735
 1456TIP3   OH2 4324   5.503   0.159   2.539
 1456TIP3    H1 4325   5.521   0.205   2.457
 1456TIP3    H2 4326   5.447   0.219   2.588
 1457TIP3   OH2 4327   4.155   0.965   4.395
 1457TIP3    H1 4328   4.159   1.043   4.339
 1457TIP3    H2 4329   4.119   0.897   4.339
 1458TIP3   OH2 4330   5.152   2.672   2.293
 1458TIP3    H1 4331   5.183   2.744   2.238
 1458TIP3    H2 4332   5.149   2.596   2.235
 1459TIP3   OH2 4333   0.066   7.496   4.000
 1459TIP3    H1 4334   0.026   7.505   4.087
 1459TIP3    H2 4335  -0.003   7.522   3.939
 1460TIP3   OH2 4336   6.188   3.018   2.439
 1460TIP3    H1 4337   6.265   3.035   2.493
 1460TIP3    H2 4338   6.121   2.992   2.503
 1461TIP3   OH2 4339   1.956   4.563   0.369
 1461TIP3    H1 4340   1.912   4.627   0.313
 1461TIP3    H2 4341   1.885   4.518   0.415
 1462TIP3   OH2 4342   3.622   1.742   3.709
 1462TIP3    H1 4343   3.662   1.677   3.767
 1462TIP3    H2 4344   3.530   1.716   3.703
 1463TIP3   OH2 4345   1.224   5.193   2.109
 1463TIP3    H1 4346   1.229   5.121   2.172
 1463TIP3    H2 4347   1.284   5.168   2.038
 1464TIP3   OH2 4348   4.296   2.592   3.046
 1464TIP3    H1 4349   4.313   2.535   2.971
 1464TIP3    H2 4350   4.243   2.539   3.105
 1465TIP3   OH2 4351   2.976   2.447   3.582
 1465TIP3    H1 4352   2.998   2.468   3.492
 1465TIP3    H2 4353   2.887   2.413   3.578
 1466TIP3   OH2 4354   0.118   4.262   1.218
 1466TIP3    H1 4355   0.206   4.244   1.184
 1466TIP3    H2 4356   0.091   4.179   1.258
 1467TIP3   OH2 4357   2.375   0.296   2.585
 1467TIP3    H1 4358   2.364   0.381   2.628
 1467TIP3    H2 4359   2.309   0.240   2.626
 1468TIP3   OH2 4360   8.333   5.060   4.594
 1468TIP3    H1 4361   8.257   5.061   4.536
 1468TIP3    H2 4362   8.302   5.015   4.673
 1469TIP3   OH2 4363   3.972   0.084   4.860
 1469TIP3    H1 4364   3.885   0.092   4.899
 1469TIP3    H2 4365   3.971   0.144   4.785
 1470TIP3   OH2 4366   8.218   0.759   6.638
 1470TIP3    H1 4367   8.270   0.763   6.557
 1470TIP3    H2 4368   8.249   0.679   6.681
 1471TIP3   OH2 4369   5.363   6.419   6.640
 1471TIP3    H1 4370   5.449   6.462   6.644
 1471TIP3    H2 4371   5.371   6.357   6.568
 1472TIP3   OH2 4372   2.067   3.715   2.587
 1472TIP3    H1 4373   2.026   3.646   2.534
 1472TIP3    H2 4374   2.010   3.724   2.663
 1473TIP3   OH2 4375   1.116   6.309   6.024
 1473TIP3    H1 4376   1.179   6.380   6.033
 1473TIP3    H2 4377   1.112   6.292   5.930
 1474TIP3   OH2 4378   4.527   1.406   0.239
 1474TIP3    H1 4379   4.484   1.465   0.177
 1474TIP3    H2 4380   4.469   1.404   0.315
 1475TIP3   OH2 4381   0.825   5.632   1.562
 1475TIP3    H1 4382   0.908   5.589   1.580
 1475TIP3    H2 4383   0.838   5.674   1.476
 1476TIP3   OH2 4384   4.154   1.369   1.182
 1476TIP3    H1 4385   4.127   1.441   1.240
 1476TIP3    H2 4386   4.139   1.403   1.094
 1477TIP3   OH2 4387   2.968   6.245   6.407
 1477TIP3    H1 4388   3.030   6.262   6.477
 1477TIP3    H2 4389   2.892   6.206   6.451
 1478TIP3   OH2 4390   6.289   1.201   2.089
 1478TIP3    H1 4391   6.227   1.269   2.117
 1478TIP3    H2 4392   6.275   1.193   1.995
 1479TIP3   OH2 4393   0.178   2.121   1.874
 1479TIP3    H1 4394   0.200   2.116   1.781
 1479TIP3    H2 4395   0.112   2.191   1.879
 1480TIP3   OH2 4396   5.050   4.728   3.348
 1480TIP3    H1 4397   5.058   4.633   3.356
 1480TIP3    H2 4398   5.138   4.757   3.324
 1481TIP3   OH2 4399   5.575   4.082   0.723
 1481TIP3    H1 4400   5.634   4.050   0.655
 1481TIP3    H2 4401   5.580   4.016   0.793
 1482TIP3   OH2 4402   5.812   1.079   2.541
 1482TIP3    H1 4403   5.799   1.021   2.465
 1482TIP3    H2 4404   5.758   1.156   2.521
 1483TIP3   OH2 4405   7.702   1.707   0.449
 1483TIP3    H1 4406   7.783   1.676   0.410
 1483TIP3    H2 4407   7.728   1.747   0.532
 1484TIP3   OH2 4408   4.594   2.194   1.683
 1484TIP3    H1 4409   4.643   2.245   1.747
 1484TIP3    H2 4410   4.631   2.221   1.598
 1485TIP3   OH2 4411   3.112   6.275   3.332
 1485TIP3    H1 4412   3.152   6.354   3.368
 1485TIP3    H2 4413   3.155   6.203   3.378
 1486TIP3   OH2 4414   0.629   2.127   3.442
 1486TIP3    H1 4415   0.617   2.040   3.402
 1486TIP3    H2 4416   0.656   2.183   3.370
 1487TIP3   OH2 4417   4.234   7.372   5.621
 1487TIP3    H1 4418   4.250   7.466   5.622
 1487TIP3    H2 4419   4.301   7.335   5.678
 1488TIP3   OH2 4420   2.165   0.345   2.417
 1488TIP3    H1 4421   2.102   0.275   2.405
 1488TIP3    H2 4422   2.239   0.304   2.463
 1489TIP3   OH2 4423   3.192   0.483   2.939
 1489TIP3    H1 4424   3.272   0.450   2.900
 1489TIP3    H2 4425   3.195   0.577   2.924
 1490TIP3   OH2 4426   0.338   0.479   6.720
 1490TIP3    H1 4427   0.300   0.499   6.805
 1490TIP3    H2 4428   0.342   0.383   6.718
 1491TIP3   OH2 4429   0.990   3.842   1.053
 1491TIP3    H1 4430   0.955   3.868   1.138
 1491TIP3    H2 4431   0.917   3.799   1.009
 1492TIP3   OH2 4432   0.879   0.470   1.570
 1492TIP3    H1 4433   0.889   0.533   1.641
 1492TIP3    H2 4434   0.785   0.471   1.550
 1493TIP3   OH2 4435   8.175   3.003   2.770
 1493TIP3    H1 4436   8.216   3.071   2.717
 1493TIP3    H2 4437   8.240   2.984   2.838
 1494TIP3   OH2 4438   8.270   7.178   2.804
 1494TIP3    H1 4439   8.246   7.197   2.894
 1494TIP3    H2 4440   8.366   7.176   2.805
 1495TIP3   OH2 4441   4.248   1.744   6.266
 1495TIP3    H1 4442   4.265   1.706   6.352
 1495TIP3    H2 4443   4.326   1.797   6.247
 1496TIP3   OH2 4444   8.259   5.872   3.936
 1496TIP3    H1 4445   8.237   5.827   4.017
 1496TIP3    H2 4446   8.185   5.931   3.920
 1497TIP3   OH2 4447   7.853   1.037   2.807
 1497TIP3    H1 4448   7.883   0.954   2.846
 1497TIP3    H2 4449   7.916   1.102   2.838
 1498TIP3   OH2 4450   6.174   6.595   3.707
 1498TIP3    H1 4451   6.188   6.523   3.768
 1498TIP3    H2 4452   6.244   6.657   3.726
 1499TIP3   OH2 4453   3.657   2.282   2.473
 1499TIP3    H1 4454   3.588   2.336   2.513
 1499TIP3    H2 4455   3.629   2.271   2.382
 1500TIP3   OH2 4456   2.860   1.034   6.422
 1500TIP3    H1 4457   2.818   1.031   6.508
 1500TIP3    H2 4458   2.799   0.988   6.364
 1501TIP3   OH2 4459   8.058   5.060   4.369
 1501TIP3    H1 4460   7.996   5.059   4.442
 1501TIP3    H2 4461   8.101   5.145   4.374
 1502TIP3   OH2 4462   4.352   5.811   5.811
 1502TIP3    H1 4463   4.371   5.889   5.862
 1502TIP3    H2 4464   4.426   5.753   5.828
 1503TIP3   OH2 4465   0.424   5.254   4.200
 1503TIP3    H1 4466   0.475   5.307   4.262
 1503TIP3    H2 4467   0.384   5.318   4.141
 1504TIP3   OH2 4468   1.199   3.032   1.461
 1504TIP3    H1 4469   1.284   2.993   1.482
 1504TIP3    H2 4470   1.221   3.115   1.419
 1505TIP3   OH2 4471   3.913   6.758   3.250
 1505TIP3    H1 4472   3.934   6.772   3.158
 1505TIP3    H2 4473   3.992   6.783   3.297
 1506TIP3   OH2 4474   7.833   1.853   4.376
 1506TIP3    H1 4475   7.923   1.844   4.407
 1506TIP3    H2 4476   7.810   1.944   4.395
 1507TIP3   OH2 4477   6.382   1.439   5.667
 1507TIP3    H1 4478   6.416   1.351   5.678
 1507TIP3    H2 4479   6.460   1.494   5.655
 1508TIP3   OH2 4480   1.495   1.485   0.849
 1508TIP3    H1 4481   1.499   1.408   0.793
 1508TIP3    H2 4482   1.411   1.477   0.895
 1509TIP3   OH2 4483   6.093   5.908   6.093
 1509TIP3    H1 4484   6.144   5.878   6.018
 1509TIP3    H2 4485   6.159   5.941   6.155
 1510TIP3   OH2 4486   6.175   7.305   2.685
 1510TIP3    H1 4487   6.141   7.218   2.661
 1510TIP3    H2 4488   6.160   7.310   2.780
 1511TIP3   OH2 4489   7.367   1.792   0.229
 1511TIP3    H1 4490   7.395   1.875   0.268
 1511TIP3    H2 4491   7.292   1.765   0.283
 1512TIP3   OH2 4492   3.608   0.676   1.156
 1512TIP3    H1 4493   3.636   0.640   1.240
 1512TIP3    H2 4494   3.688   0.713   1.118
 1513TIP3   OH2 4495   6.346   7.603   6.106
 1513TIP3    H1 4496   6.297   7.684   6.118
 1513TIP3    H2 4497   6.376   7.606   6.015
 1514TIP3   OH2 4498   0.718   6.954   4.736
 1514TIP3    H1 4499   0.639   6.901   4.732
 1514TIP3    H2 4500   0.710   7.014   4.661
 1515TIP3   OH2 4501   5.176   1.215   2.547
 1515TIP3    H1 4502   5.234   1.274   2.498
 1515TIP3    H2 4503   5.110   1.187   2.483
 1516TIP3   OH2 4504   1.252   2.503   4.777
 1516TIP3    H1 4505   1.244   2.522   4.684
 1516TIP3    H2 4506   1.268   2.588   4.818
 1517TIP3   OH2 4507   4.912   1.821   5.891
 1517TIP3    H1 4508   4.832   1.770   5.906
 1517TIP3    H2 4509   4.969   1.797   5.964
 1518TIP3   OH2 4510   0.637   4.660   5.062
 1518TIP3    H1 4511   0.560   4.716   5.068
 1518TIP3    H2 4512   0.632   4.622   4.974
 1519TIP3   OH2 4513   6.038   6.955   4.736
 1519TIP3    H1 4514   5.971   6.904   4.782
 1519TIP3    H2 4515   6.037   7.040   4.779
 1520TIP3   OH2 4516   4.636   7.760   5.392
 1520TIP3    H1 4517   4.552   7.789   5.428
 1520TIP3    H2 4518   4.694   7.755   5.468
 1521TIP3   OH2 4519   1.270   3.385   3.047
 1521TIP3    H1 4520   1.310   3.466   3.014
 1521TIP3    H2 4521   1.219   3.351   2.973
 1522TIP3   OH2 4522   5.102   6.580   0.217
 1522TIP3    H1 4523   5.162   6.648   0.185
 1522TIP3    H2 4524   5.023   6.627   0.242
 1523TIP3   OH2 4525   6.351   3.106   4.450
 1523TIP3    H1 4526   6.284   3.067   4.507
 1523TIP3    H2 4527   6.434   3.086   4.494
 1524TIP3   OH2 4528   0.795   4.831   3.285
 1524TIP3    H1 4529   0.777   4.882   3.205
 1524TIP3    H2 4530   0.891   4.831   3.291
 1525TIP3   OH2 4531   7.990   5.773   5.225
 1525TIP3    H1 4532   7.939   5.809   5.298
 1525TIP3    H2 4533   7.962   5.823   5.149
 1526TIP3   OH2 4534   4.358   1.388   5.728
 1526TIP3    H1 4535   4.412   1.337   5.789
 1526TIP3    H2 4536   4.270   1.352   5.739
 1527TIP3   OH2 4537   3.579   5.973   2.583
 1527TIP3    H1 4538   3.636   5.931   2.648
 1527TIP3    H2 4539   3.635   5.986   2.507
 1528TIP3   OH2 4540   0.301   0.591   3.253
 1528TIP3    H1 4541   0.319   0.623   3.341
 1528TIP3    H2 4542   0.374   0.625   3.200
 1529TIP3   OH2 4543   0.570   1.082   1.851
 1529TIP3    H1 4544   0.653   1.037   1.863
 1529TIP3    H2 4545   0.577   1.123   1.764
 1530TIP3   OH2 4546   4.201   3.016   1.176
 1530TIP3    H1 4547   4.264   3.018   1.104
 1530TIP3    H2 4548   4.216   2.932   1.218
 1531TIP3   OH2 4549   5.707   1.463   5.598
 1531TIP3    H1 4550   5.765   1.509   5.537
 1531TIP3    H2 4551   5.757   1.386   5.625
 1532TIP3   OH2 4552   3.219   4.617   4.430
 1532TIP3    H1 4553   3.274   4.609   4.507
 1532TIP3    H2 4554   3.280   4.628   4.357
 1533TIP3   OH2 4555   5.934   0.580   0.851
 1533TIP3    H1 4556   6.009   0.640   0.855
 1533TIP3    H2 4557   5.864   0.626   0.898
 1534TIP3   OH2 4558   7.164   5.691   6.523
 1534TIP3    H1 4559   7.122   5.621   6.473
 1534TIP3    H2 4560   7.232   5.647   6.574
 1535TIP3   OH2 4561   1.107   5.664   6.145
 1535TIP3    H1 4562   1.040   5.675   6.213
 1535TIP3    H2 4563   1.144   5.752   6.134
 1536TIP3   OH2 4564   6.168   6.594   6.576
 1536TIP3    H1 4565   6.189   6.632   6.491
 1536TIP3    H2 4566   6.169   6.668   6.637
 1537TIP3   OH2 4567   6.864   7.175   0.200
 1537TIP3    H1 4568   6.839   7.087   0.226
 1537TIP3    H2 4569   6.877   7.221   0.283
 1538TIP3   OH2 4570   0.674   4.644   3.001
 1538TIP3    H1 4571   0.616   4.658   2.926
 1538TIP3    H2 4572   0.696   4.732   3.031
 1539TIP3   OH2 4573   6.546   7.615   2.089
 1539TIP3    H1 4574   6.601   7.552   2.042
 1539TIP3    H2 4575   6.490   7.653   2.022
 1540TIP3   OH2 4576   0.830   3.998   1.959
 1540TIP3    H1 4577   0.736   4.014   1.964
 1540TIP3    H2 4578   0.861   4.059   1.891
 1541TIP3   OH2 4579   1.960   5.702   5.507
 1541TIP3    H1 4580   1.920   5.694   5.594
 1541TIP3    H2 4581   2.051   5.725   5.526
 1542TIP3   OH2 4582   0.056   2.684   4.487
 1542TIP3    H1 4583   0.102   2.665   4.404
 1542TIP3    H2 4584  -0.036   2.667   4.467
 1543TIP3   OH2 4585   1.276   3.897   0.866
 1543TIP3    H1 4586   1.209   3.841   0.906
 1543TIP3    H2 4587   1.233   3.982   0.855
 1544TIP3   OH2 4588   0.391   1.385   6.719
 1544TIP3    H1 4589   0.439   1.453   6.673
 1544TIP3    H2 4590   0.305   1.382   6.676
 1545TIP3   OH2 4591   4.314   5.201   2.117
 1545TIP3    H1 4592   4.283   5.280   2.161
 1545TIP3    H2 4593   4.409   5.212   2.113
 1546TIP3   OH2 4594   3.773   2.286   4.783
 1546TIP3    H1 4595   3.701   2.251   4.731
 1546TIP3    H2 4596   3.849   2.286   4.724
 1547TIP3   OH2 4597   7.194   6.865   1.352
 1547TIP3    H1 4598   7.275   6.898   1.389
 1547TIP3    H2 4599   7.139   6.943   1.340
 1548TIP3   OH2 4600   5.297   7.390   3.744
 1548TIP3    H1 4601   5.374   7.410   3.797
 1548TIP3    H2 4602   5.285   7.295   3.754
 1549TIP3   OH2 4603   7.716   1.426   4.741
 1549TIP3    H1 4604   7.808   1.413   4.767
 1549TIP3    H2 4605   7.720   1.489   4.669
 1550TIP3   OH2 4606   0.860   6.862   6.100
 1550TIP3    H1 4607   0.838   6.876   6.192
 1550TIP3    H2 4608   0.778   6.874   6.054
 1551TIP3   OH2 4609   1.278   5.948   1.379
 1551TIP3    H1 4610   1.254   5.922   1.467
 1551TIP3    H2 4611   1.369   5.920   1.369
 1552TIP3   OH2 4612   5.625   1.340   0.646
 1552TIP3    H1 4613   5.642   1.327   0.740
 1552TIP3    H2 4614   5.685   1.280   0.602
 1553TIP3   OH2 4615   8.259   6.623   1.543
 1553TIP3    H1 4616   8.233   6.710   1.514
 1553TIP3    H2 4617   8.185   6.593   1.597
 1554TIP3   OH2 4618   2.097   4.704   5.734
 1554TIP3    H1 4619   2.131   4.781   5.689
 1554TIP3    H2 4620   2.017   4.682   5.686
 1555TIP3   OH2 4621   6.892   6.978   3.356
 1555TIP3    H1 4622   6.798   6.975   3.376
 1555TIP3    H2 4623   6.904   7.060   3.309
 1556TIP3   OH2 4624   8.218   2.723   3.649
 1556TIP3    H1 4625   8.135   2.712   3.697
 1556TIP3    H2 4626   8.282   2.674   3.701
 1557TIP3   OH2 4627   3.260   1.029   4.504
 1557TIP3    H1 4628   3.251   0.969   4.430
 1557TIP3    H2 4629   3.180   1.018   4.555
 1558TIP3   OH2 4630   6.097   6.952   5.386
 1558TIP3    H1 4631   6.107   6.857   5.377
 1558TIP3    H2 4632   6.026   6.974   5.326
 1559TIP3   OH2 4633   1.446   3.094   2.512
 1559TIP3    H1 4634   1.520   3.040   2.539
 1559TIP3    H2 4635   1.481   3.183   2.508
 1560TIP3   OH2 4636   6.471   5.248   3.641
 1560TIP3    H1 4637   6.418   5.207   3.709
 1560TIP3    H2 4638   6.509   5.174   3.593
 1561TIP3   OH2 4639   2.524   5.995   3.154
 1561TIP3    H1 4640   2.581   6.005   3.230
 1561TIP3    H2 4641   2.449   5.947   3.187
 1562TIP3   OH2 4642   4.694   6.886   0.654
 1562TIP3    H1 4643   4.633   6.949   0.693
 1562TIP3    H2 4644   4.751   6.940   0.598
 1563TIP3   OH2 4645   5.284   5.651   5.575
 1563TIP3    H1 4646   5.270   5.560   5.600
 1563TIP3    H2 4647   5.196   5.684   5.556
 1564TIP3   OH2 4648   4.013   4.575   0.036
 1564TIP3    H1 4649   3.973   4.509   0.093
 1564TIP3    H2 4650   4.082   4.614   0.089
 1565TIP3   OH2 4651   2.580   3.857   4.274
 1565TIP3    H1 4652   2.553   3.794   4.208
 1565TIP3    H2 4653   2.501   3.874   4.325
 1566TIP3   OH2 4654   0.950   6.314   0.557
 1566TIP3    H1 4655   0.985   6.226   0.576
 1566TIP3    H2 4656   0.994   6.371   0.619
 1567TIP3   OH2 4657   0.157   6.002   1.695
 1567TIP3    H1 4658   0.071   5.962   1.695
 1567TIP3    H2 4659   0.140   6.096   1.687
 1568TIP3   OH2 4660   7.595   1.359   5.913
 1568TIP3    H1 4661   7.529   1.421   5.944
 1568TIP3    H2 4662   7.581   1.281   5.968
 1569TIP3   OH2 4663   6.920   3.345   3.704
 1569TIP3    H1 4664   6.925   3.319   3.797
 1569TIP3    H2 4665   6.826   3.354   3.687
 1570TIP3   OH2 4666   5.422   4.571   3.349
 1570TIP3    H1 4667   5.387   4.655   3.319
 1570TIP3    H2 4668   5.419   4.515   3.271
 1571TIP3   OH2 4669   0.650   7.118   4.527
 1571TIP3    H1 4670   0.725   7.106   4.468
 1571TIP3    H2 4671   0.578   7.072   4.485
 1572TIP3   OH2 4672   3.860   3.182   6.764
 1572TIP3    H1 4673   3.840   3.237   6.688
 1572TIP3    H2 4674   3.952   3.158   6.753
 1573TIP3   OH2 4675   1.249   6.875   3.439
 1573TIP3    H1 4676   1.320   6.822   3.473
 1573TIP3    H2 4677   1.169   6.833   3.472
 1574TIP3   OH2 4678   1.135   4.370   2.836
 1574TIP3    H1 4679   1.173   4.287   2.865
 1574TIP3    H2 4680   1.090   4.348   2.754
 1575TIP3   OH2 4681   2.270   2.141   4.491
 1575TIP3    H1 4682   2.265   2.053   4.529
 1575TIP3    H2 4683   2.362   2.166   4.502
 1576TIP3   OH2 4684   6.621   4.043   3.681
 1576TIP3    H1 4685   6.604   4.019   3.590
 1576TIP3    H2 4686   6.711   4.077   3.681
 1577TIP3   OH2 4687   7.008   1.358   0.188
 1577TIP3    H1 4688   6.944   1.427   0.176
 1577TIP3    H2 4689   6.977   1.311   0.266
 1578TIP3   OH2 4690   6.003   7.153   3.757
 1578TIP3    H1 4691   5.948   7.160   3.679
 1578TIP3    H2 4692   6.091   7.173   3.726
 1579TIP3   OH2 4693   5.115   2.814   6.396
 1579TIP3    H1 4694   5.105   2.895   6.347
 1579TIP3    H2 4695   5.026   2.780   6.405
 1580TIP3   OH2 4696   1.959   1.112   5.350
 1580TIP3    H1 4697   1.895   1.064   5.402
 1580TIP3    H2 4698   2.040   1.062   5.358
 1581TIP3   OH2 4699   6.358   4.802   0.914
 1581TIP3    H1 4700   6.370   4.847   0.998
 1581TIP3    H2 4701   6.280   4.844   0.876
 1582TIP3   OH2 4702   2.142   3.776   3.293
 1582TIP3    H1 4703   2.227   3.735   3.309
 1582TIP3    H2 4704   2.139   3.850   3.354
 1583TIP3   OH2 4705   5.138   2.762   5.209
 1583TIP3    H1 4706   5.091   2.749   5.292
 1583TIP3    H2 4707   5.139   2.675   5.169
 1584TIP3   OH2 4708   4.243   2.491   1.363
 1584TIP3    H1 4709   4.309   2.514   1.428
 1584TIP3    H2 4710   4.185   2.566   1.359
 1585TIP3   OH2 4711   0.610   7.413   1.754
 1585TIP3    H1 4712   0.605   7.334   1.807
 1585TIP3    H2 4713   0.598   7.485   1.816
 1586TIP3   OH2 4714   0.425   2.821   6.795
 1586TIP3    H1 4715   0.512   2.858   6.810
 1586TIP3    H2 4716   0.442   2.731   6.768
 1587TIP3   OH2 4717   6.157   0.567   3.404
 1587TIP3    H1 4718   6.113   0.643   3.444
 1587TIP3    H2 4719   6.085   0.515   3.368
 1588TIP3   OH2 4720   4.173   3.887   2.511
 1588TIP3    H1 4721   4.232   3.839   2.453
 1588TIP3    H2 4722   4.111   3.930   2.452
 1589TIP3   OH2 4723   6.453   5.436   1.622
 1589TIP3    H1 4724   6.405   5.513   1.591
 1589TIP3    H2 4725   6.465   5.382   1.543
 1590TIP3   OH2 4726   2.012   3.307   1.022
 1590TIP3    H1 4727   1.990   3.222   1.060
 1590TIP3    H2 4728   2.108   3.312   1.029
 1591TIP3   OH2 4729   3.893   6.191   2.619
 1591TIP3    H1 4730   3.876   6.102   2.650
 1591TIP3    H2 4731   3.890   6.245   2.698
 1592TIP3   OH2 4732   5.561   5.699   0.736
 1592TIP3    H1 4733   5.527   5.635   0.800
 1592TIP3    H2 4734   5.486   5.718   0.680
 1593TIP3   OH2 4735   0.415   6.403   1.439
 1593TIP3    H1 4736   0.406   6.312   1.465
 1593TIP3    H2 4737   0.326   6.438   1.440
 1594TIP3   OH2 4738   3.093   6.418   5.137
 1594TIP3    H1 4739   3.181   6.413   5.176
 1594TIP3    H2 4740   3.079   6.512   5.124
 1595TIP3   OH2 4741   3.675   3.390   5.709
 1595TIP3    H1 4742   3.599   3.435   5.747
 1595TIP3    H2 4743   3.654   3.297   5.716
 1596TIP3   OH2 4744   7.552   3.046   4.929
 1596TIP3    H1 4745   7.608   2.970   4.916
 1596TIP3    H2 4746   7.587   3.112   4.868
 1597TIP3   OH2 4747   1.976   4.199   0.988
 1597TIP3    H1 4748   1.894   4.152   0.978
 1597TIP3    H2 4749   1.961   4.283   0.947
 1598TIP3   OH2 4750   6.308   1.281   6.286
 1598TIP3    H1 4751   6.219   1.315   6.276
 1598TIP3    H2 4752   6.348   1.293   6.201
 1599TIP3   OH2 4753   0.939   2.955   6.414
 1599TIP3    H1 4754   0.899   3.013   6.350
 1599TIP3    H2 4755   0.873   2.945   6.483
 1600TIP3   OH2 4756   3.251   5.640   0.932
 1600TIP3    H1 4757   3.288   5.689   0.858
 1600TIP3    H2 4758   3.283   5.550   0.919
 1601TIP3   OH2 4759   7.861   1.067   3.189
 1601TIP3    H1 4760   7.908   0.985   3.179
 1601TIP3    H2 4761   7.895   1.123   3.119
 1602TIP3   OH2 4762   4.596   2.002   3.663
 1602TIP3    H1 4763   4.595   2.043   3.749
 1602TIP3    H2 4764   4.689   1.991   3.642
 1603TIP3   OH2 4765   6.401   6.161   0.777
 1603TIP3    H1 4766   6.377   6.236   0.724
 1603TIP3    H2 4767   6.473   6.120   0.730
 1604TIP3   OH2 4768   1.440   5.160   3.199
 1604TIP3    H1 4769   1.464   5.074   3.233
 1604TIP3    H2 4770   1.347   5.152   3.177
 1605TIP3   OH2 4771   4.959   2.875   4.330
 1605TIP3    H1 4772   4.872   2.841   4.348
 1605TIP3    H2 4773   4.992   2.904   4.415
 1606TIP3   OH2 4774   7.949   2.131   3.714
 1606TIP3    H1 4775   7.966   2.214   3.670
 1606TIP3    H2 4776   7.945   2.066   3.644
 1607TIP3   OH2 4777   2.947   3.684   0.949
 1607TIP3    H1 4778   2.930   3.778   0.944
 1607TIP3    H2 4779   3.037   3.678   0.979
 1608TIP3   OH2 4780   1.008   3.128   6.093
 1608TIP3    H1 4781   0.926   3.106   6.136
 1608TIP3    H2 4782   0.986   3.130   5.999
 1609TIP3   OH2 4783   2.662   7.377   2.460
 1609TIP3    H1 4784   2.697   7.315   2.396
 1609TIP3    H2 4785   2.673   7.463   2.420
 1610TIP3   OH2 4786   5.255   4.520   3.988
 1610TIP3    H1 4787   5.208   4.584   4.041
 1610TIP3    H2 4788   5.301   4.572   3.923
 1611TIP3   OH2 4789   2.090   0.980   6.421
 1611TIP3    H1 4790   2.177   0.953   6.450
 1611TIP3    H2 4791   2.052   1.025   6.496
 1612TIP3   OH2 4792   3.100   0.920   3.460
 1612TIP3    H1 4793   3.167   0.854   3.477
 1612TIP3    H2 4794   3.149   0.995   3.426
 1613TIP3   OH2 4795   7.351   7.362   5.888
 1613TIP3    H1 4796   7.282   7.380   5.953
 1613TIP3    H2 4797   7.328   7.417   5.814
 1614TIP3   OH2 4798   8.191   5.514   2.464
 1614TIP3    H1 4799   8.105   5.543   2.433
 1614TIP3    H2 4800   8.197   5.549   2.553
 1615TIP3   OH2 4801   4.894   6.419   1.680
 1615TIP3    H1 4802   4.840   6.420   1.759
 1615TIP3    H2 4803   4.963   6.355   1.699
 1616TIP3   OH2 4804   3.800   4.155   5.570
 1616TIP3    H1 4805   3.818   4.104   5.648
 1616TIP3    H2 4806   3.887   4.175   5.534
 1617TIP3   OH2 4807   3.988   5.092   0.803
 1617TIP3    H1 4808   4.057   5.108   0.738
 1617TIP3    H2 4809   3.910   5.074   0.751
 1618TIP3   OH2 4810   0.655   3.092   5.831
 1618TIP3    H1 4811   0.661   3.035   5.754
 1618TIP3    H2 4812   0.745   3.118   5.848
 1619TIP3   OH2 4813   6.520   0.602   0.147
 1619TIP3    H1 4814   6.447   0.655   0.179
 1619TIP3    H2 4815   6.533   0.535   0.215
 1620TIP3   OH2 4816   1.489   0.494   4.006
 1620TIP3    H1 4817   1.466   0.587   4.006
 1620TIP3    H2 4818   1.456   0.461   4.089
 1621TIP3   OH2 4819   0.030   2.216   0.415
 1621TIP3    H1 4820   0.105   2.161   0.394
 1621TIP3    H2 4821  -0.037   2.192   0.352
 1622TIP3   OH2 4822   4.158   0.008   3.938
 1622TIP3    H1 4823   4.214   0.028   3.863
 1622TIP3    H2 4824   4.091  -0.050   3.903
 1623TIP3   OH2 4825   1.878   7.339   2.604
 1623TIP3    H1 4826   1.823   7.377   2.536
 1623TIP3    H2 4827   1.932   7.411   2.634
 1624TIP3   OH2 4828   3.598   7.370   3.867
 1624TIP3    H1 4829   3.568   7.285   3.900
 1624TIP3    H2 4830   3.568   7.371   3.776
 1625TIP3   OH2 4831   5.976   5.667   5.788
 1625TIP3    H1 4832   5.887   5.682   5.821
 1625TIP3    H2 4833   5.967   5.593   5.729
 1626TIP3   OH2 4834   2.355   1.242   0.430
 1626TIP3    H1 4835   2.427   1.304   0.425
 1626TIP3    H2 4836   2.330   1.241   0.522
 1627TIP3   OH2 4837   7.441   6.584   4.847
 1627TIP3    H1 4838   7.460   6.490   4.846
 1627TIP3    H2 4839   7.354   6.590   4.887
 1628TIP3   OH2 4840   7.759   7.803   5.734
 1628TIP3    H1 4841   7.703   7.745   5.682
 1628TIP3    H2 4842   7.800   7.745   5.798
 1629TIP3   OH2 4843   6.149   1.391   5.961
 1629TIP3    H1 4844   6.243   1.377   5.967
 1629TIP3    H2 4845   6.134   1.418   5.871
 1630TIP3   OH2 4846   7.306   4.477   4.558
 1630TIP3    H1 4847   7.370   4.542   4.587
 1630TIP3    H2 4848   7.308   4.409   4.626
 1631TIP3   OH2 4849   0.972   7.213   4.766
 1631TIP3    H1 4850   0.973   7.213   4.862
 1631TIP3    H2 4851   0.891   7.259   4.743
 1632TIP3   OH2 4852   7.622   4.333   5.702
 1632TIP3    H1 4853   7.589   4.418   5.671
 1632TIP3    H2 4854   7.686   4.356   5.769
 1633TIP3   OH2 4855   8.205   4.138   6.777
 1633TIP3    H1 4856   8.212   4.167   6.686
 1633TIP3    H2 4857   8.205   4.042   6.772
 1634TIP3   OH2 4858   3.359   7.453   0.676
 1634TIP3    H1 4859   3.308   7.533   0.666
 1634TIP3    H2 4860   3.384   7.451   0.768
 1635TIP3   OH2 4861   6.787   1.932   3.800
 1635TIP3    H1 4862   6.864   1.978   3.832
 1635TIP3    H2 4863   6.719   1.950   3.865
 1636TIP3   OH2 4864   2.712   0.885   2.295
 1636TIP3    H1 4865   2.760   0.962   2.324
 1636TIP3    H2 4866   2.776   0.814   2.298
 1637TIP3   OH2 4867   4.630   3.161   2.752
 1637TIP3    H1 4868   4.606   3.252   2.732
 1637TIP3    H2 4869   4.678   3.166   2.834
 1638TIP3   OH2 4870   4.083   7.513   1.967
 1638TIP3    H1 4871   4.014   7.447   1.953
 1638TIP3    H2 4872   4.163   7.462   1.975
 1639TIP3   OH2 4873   6.741   0.469   5.642
 1639TIP3    H1 4874   6.688   0.547   5.628
 1639TIP3    H2 4875   6.752   0.465   5.737
 1640TIP3   OH2 4876   1.921   4.284   6.228
 1640TIP3    H1 4877   1.874   4.289   6.145
 1640TIP3    H2 4878   2.013   4.299   6.205
 1641TIP3   OH2 4879   2.828   6.406   3.899
 1641TIP3    H1 4880   2.740   6.438   3.917
 1641TIP3    H2 4881   2.839   6.331   3.958
 1642TIP3   OH2 4882   5.901   6.973   5.178
 1642TIP3    H1 4883   5.813   7.004   5.197
 1642TIP3    H2 4884   5.914   6.991   5.084
 1643TIP3   OH2 4885   5.865   7.825   5.918
 1643TIP3    H1 4886   5.878   7.889   5.987
 1643TIP3    H2 4887   5.878   7.740   5.961
 1644TIP3   OH2 4888   2.163   0.067   5.036
 1644TIP3    H1 4889   2.185   0.065   4.943
 1644TIP3    H2 4890   2.164  -0.024   5.063
 1645TIP3   OH2 4891   3.605   1.141   5.915
 1645TIP3    H1 4892   3.516   1.129   5.880
 1645TIP3    H2 4893   3.617   1.069   5.976
 1646TIP3   OH2 4894   4.308   1.933   2.456
 1646TIP3    H1 4895   4.236   1.870   2.453
 1646TIP3    H2 4896   4.294   1.988   2.379
 1647TIP3   OH2 4897   7.474   1.948   3.682
 1647TIP3    H1 4898   7.475   1.932   3.777
 1647TIP3    H2 4899   7.550   1.901   3.649
 1648TIP3   OH2 4900   6.814   1.894   6.290
 1648TIP3    H1 4901   6.738   1.913   6.235
 1648TIP3    H2 4902   6.785   1.824   6.348
 1649TIP3   OH2 4903   5.389   4.192   2.561
 1649TIP3    H1 4904   5.337   4.273   2.558
 1649TIP3    H2 4905   5.455   4.203   2.493
 1650TIP3   OH2 4906   4.572   4.446   6.032
 1650TIP3    H1 4907   4.574   4.510   6.104
 1650TIP3    H2 4908   4.518   4.375   6.064
 1651TIP3   OH2 4909   4.077   6.150   3.953
 1651TIP3    H1 4910   4.140   6.126   3.885
 1651TIP3    H2 4911   4.094   6.242   3.971
 1652TIP3   OH2 4912   3.595   7.413   3.590
 1652TIP3    H1 4913   3.623   7.325   3.565
 1652TIP3    H2 4914   3.636   7.471   3.525
 1653TIP3   OH2 4915   8.249   3.870   6.734
 1653TIP3    H1 4916   8.291   3.809   6.795
 1653TIP3    H2 4917   8.157   3.844   6.734
 1654TIP3   OH2 4918   1.393   3.153   3.655
 1654TIP3    H1 4919   1.383   3.136   3.562
 1654TIP3    H2 4920   1.456   3.225   3.660
 1655TIP3   OH2 4921   1.908   4.405   5.348
 1655TIP3    H1 4922   1.872   4.332   5.398
 1655TIP3    H2 4923   1.978   4.367   5.296
 1656TIP3   OH2 4924   2.803   7.824   6.166
 1656TIP3    H1 4925   2.730   7.860   6.116
 1656TIP3    H2 4926   2.763   7.786   6.244
 1657TIP3   OH2 4927   7.156   7.569   4.306
 1657TIP3    H1 4928   7.192   7.632   4.243
 1657TIP3    H2 4929   7.080   7.531   4.262
 1658TIP3   OH2 4930   0.626   6.669   2.859
 1658TIP3    H1 4931   0.531   6.674   2.854
 1658TIP3    H2 4932   0.644   6.634   2.946
 1659TIP3   OH2 4933   5.575   6.860   5.327
 1659TIP3    H1 4934   5.633   6.935   5.318
 1659TIP3    H2 4935   5.518   6.882   5.401
 1660TIP3   OH2 4936   7.873   1.859   5.505
 1660TIP3    H1 4937   7.857   1.794   5.574
 1660TIP3    H2 4938   7.960   1.838   5.472
 1661TIP3   OH2 4939   1.481   5.081   4.469
 1661TIP3    H1 4940   1.549   5.110   4.530
 1661TIP3    H2 4941   1.485   5.144   4.397
 1662TIP3   OH2 4942   5.180   4.106   0.080
 1662TIP3    H1 4943   5.246   4.056   0.127
 1662TIP3    H2 4944   5.217   4.118  -0.007
 1663TIP3   OH2 4945   5.015   2.187  -0.021
 1663TIP3    H1 4946   5.097   2.236  -0.014
 1663TIP3    H2 4947   4.947   2.255  -0.016
 1664TIP3   OH2 4948   2.451   1.099   2.931
 1664TIP3    H1 4949   2.386   1.077   2.864
 1664TIP3    H2 4950   2.464   1.193   2.922
 1665TIP3   OH2 4951   7.439   2.721   3.151
 1665TIP3    H1 4952   7.479   2.648   3.199
 1665TIP3    H2 4953   7.400   2.775   3.219
 1666TIP3   OH2 4954   2.812   0.484   1.344
 1666TIP3    H1 4955   2.755   0.543   1.296
 1666TIP3    H2 4956   2.754   0.412   1.372
 1667TIP3   OH2 4957   1.571   0.013   1.315
 1667TIP3    H1 4958   1.565   0.098   1.356
 1667TIP3    H2 4959   1.606   0.030   1.227
 1668TIP3   OH2 4960   6.621   5.450   4.373
 1668TIP3    H1 4961   6.617   5.362   4.336
 1668TIP3    H2 4962   6.711   5.460   4.402
 1669TIP3   OH2 4963   0.794   5.083   4.439
 1669TIP3    H1 4964   0.821   4.991   4.437
 1669TIP3    H2 4965   0.699   5.080   4.440
 1670TIP3   OH2 4966   5.207   1.309   3.463
 1670TIP3    H1 4967   5.247   1.333   3.380
 1670TIP3    H2 4968   5.178   1.219   3.452
 1671TIP3   OH2 4969   0.378   1.852   5.180
 1671TIP3    H1 4970   0.471   1.866   5.163
 1671TIP3    H2 4971   0.360   1.901   5.260
 1672TIP3   OH2 4972   0.312   5.242   6.465
 1672TIP3    H1 4973   0.224   5.231   6.428
 1672TIP3    H2 4974   0.370   5.242   6.389
 1673TIP3   OH2 4975   3.785   4.378   3.707
 1673TIP3    H1 4976   3.731   4.389   3.785
 1673TIP3    H2 4977   3.830   4.462   3.696
 1674TIP3   OH2 4978   1.142   1.700   6.624
 1674TIP3    H1 4979   1.160   1.608   6.603
 1674TIP3    H2 4980   1.057   1.718   6.584
 1675TIP3   OH2 4981   4.745   5.506   4.002
 1675TIP3    H1 4982   4.831   5.542   4.024
 1675TIP3    H2 4983   4.752   5.412   4.023
 1676TIP3   OH2 4984   6.011   2.511   6.426
 1676TIP3    H1 4985   6.025   2.592   6.473
 1676TIP3    H2 4986   6.017   2.535   6.333
 1677TIP3   OH2 4987   4.060   2.568   4.903
 1677TIP3    H1 4988   4.072   2.562   4.808
 1677TIP3    H2 4989   3.978   2.616   4.914
 1678TIP3   OH2 4990   7.122   6.009   1.551
 1678TIP3    H1 4991   7.056   6.048   1.610
 1678TIP3    H2 4992   7.137   5.922   1.588
 1679TIP3   OH2 4993   4.034   5.914   2.882
 1679TIP3    H1 4994   4.046   5.830   2.927
 1679TIP3    H2 4995   3.988   5.969   2.946
 1680TIP3   OH2 4996   3.375   4.003   4.846
 1680TIP3    H1 4997   3.313   3.932   4.861
 1680TIP3    H2 4998   3.341   4.076   4.898
 1681TIP3   OH2 4999   0.131   4.669   4.790
 1681TIP3    H1 5000   0.094   4.713   4.713
 1681TIP3    H2 5001   0.177   4.738   4.837
 1682TIP3   OH2 5002   4.249   0.517   4.833
 1682TIP3    H1 5003   4.311   0.451   4.861
 1682TIP3    H2 5004   4.269   0.531   4.740
 1683TIP3   OH2 5005   1.289   4.559   6.143
 1683TIP3    H1 5006   1.264   4.524   6.228
 1683TIP3    H2 5007   1.361   4.504   6.114
 1684TIP3   OH2 5008   6.443   6.492   5.788
 1684TIP3    H1 5009   6.424   6.399   5.781
 1684TIP3    H2 5010   6.496   6.500   5.868
 1685TIP3   OH2 5011   1.405   5.682   1.061
 1685TIP3    H1 5012   1.324   5.692   1.013
 1685TIP3    H2 5013   1.465   5.745   1.021
 1686TIP3   OH2 5014   8.014   0.028   4.919
 1686TIP3    H1 5015   8.008   0.120   4.945
 1686TIP3    H2 5016   7.997   0.028   4.825
 1687TIP3   OH2 5017   0.316   5.650   3.254
 1687TIP3    H1 5018   0.291   5.738   3.282
 1687TIP3    H2 5019   0.250   5.626   3.189
 1688TIP3   OH2 5020   5.059   4.317   5.853
 1688TIP3    H1 5021   4.969   4.301   5.881
 1688TIP3    H2 5022   5.111   4.304   5.932
 1689TIP3   OH2 5023   4.056   6.430   0.917
 1689TIP3    H1 5024   4.003   6.500   0.879
 1689TIP3    H2 5025   4.132   6.474   0.955
 1690TIP3   OH2 5026   6.817   7.441   5.521
 1690TIP3    H1 5027   6.727   7.416   5.542
 1690TIP3    H2 5028   6.868   7.409   5.595
 1691TIP3   OH2 5029   5.771   7.163   1.019
 1691TIP3    H1 5030   5.820   7.244   1.035
 1691TIP3    H2 5031   5.692   7.173   1.073
 1692TIP3   OH2 5032   1.505   7.426   3.438
 1692TIP3    H1 5033   1.512   7.335   3.407
 1692TIP3    H2 5034   1.589   7.466   3.413
 1693TIP3   OH2 5035   7.182   2.290   4.861
 1693TIP3    H1 5036   7.187   2.195   4.862
 1693TIP3    H2 5037   7.088   2.310   4.862
 1694TIP3   OH2 5038   3.428   1.132   0.568
 1694TIP3    H1 5039   3.499   1.121   0.630
 1694TIP3    H2 5040   3.352   1.155   0.622
 1695TIP3   OH2 5041   6.132   5.464   1.922
 1695TIP3    H1 5042   6.139   5.382   1.873
 1695TIP3    H2 5043   6.165   5.442   2.010
 1696TIP3   OH2 5044   3.223   3.044   3.752
 1696TIP3    H1 5045   3.138   3.003   3.736
 1696TIP3    H2 5046   3.212   3.089   3.836
 1697TIP3   OH2 5047   3.543   4.918   3.252
 1697TIP3    H1 5048   3.483   4.982   3.289
 1697TIP3    H2 5049   3.630   4.952   3.271
 1698TIP3   OH2 5050   6.441   0.994   4.513
 1698TIP3    H1 5051   6.420   1.085   4.493
 1698TIP3    H2 5052   6.474   0.996   4.603
 1699TIP3   OH2 5053   7.823   0.889   4.326
 1699TIP3    H1 5054   7.912   0.920   4.307
 1699TIP3    H2 5055   7.767   0.942   4.269
 1700TIP3   OH2 5056   7.454   6.275   5.527
 1700TIP3    H1 5057   7.516   6.316   5.588
 1700TIP3    H2 5058   7.479   6.182   5.526
 1701TIP3   OH2 5059   6.789   3.295   1.455
 1701TIP3    H1 5060   6.837   3.221   1.491
 1701TIP3    H2 5061   6.858   3.356   1.428
 1702TIP3   OH2 5062   2.591   2.342   1.234
 1702TIP3    H1 5063   2.573   2.248   1.242
 1702TIP3    H2 5064   2.567   2.378   1.319
 1703TIP3   OH2 5065   4.913   1.891   2.715
 1703TIP3    H1 5066   4.981   1.898   2.782
 1703TIP3    H2 5067   4.914   1.977   2.671
 1704TIP3   OH2 5068   2.019   1.455   1.031
 1704TIP3    H1 5069   1.951   1.442   1.097
 1704TIP3    H2 5070   1.989   1.406   0.955
 1705TIP3   OH2 5071   4.896   4.167   4.010
 1705TIP3    H1 5072   4.951   4.148   4.086
 1705TIP3    H2 5073   4.941   4.238   3.965
 1706TIP3   OH2 5074   2.448   2.357   0.071
 1706TIP3    H1 5075   2.519   2.405   0.029
 1706TIP3    H2 5076   2.428   2.286   0.010
 1707TIP3   OH2 5077   0.655   6.409   4.111
 1707TIP3    H1 5078   0.688   6.413   4.201
 1707TIP3    H2 5079   0.658   6.500   4.081
 1708TIP3   OH2 5080   4.836   2.571   1.816
 1708TIP3    H1 5081   4.755   2.612   1.846
 1708TIP3    H2 5082   4.840   2.487   1.862
 1709TIP3   OH2 5083   6.373   1.662   1.233
 1709TIP3    H1 5084   6.322   1.741   1.251
 1709TIP3    H2 5085   6.463   1.694   1.220
 1710TIP3   OH2 5086   6.436   4.916   4.521
 1710TIP3    H1 5087   6.440   4.932   4.615
 1710TIP3    H2 5088   6.517   4.869   4.503
 1711TIP3   OH2 5089   7.058   1.429   6.148
 1711TIP3    H1 5090   7.127   1.408   6.211
 1711TIP3    H2 5091   7.064   1.360   6.082
 1712TIP3   OH2 5092   7.261   4.141   1.247
 1712TIP3    H1 5093   7.283   4.114   1.336
 1712TIP3    H2 5094   7.166   4.133   1.242
 1713TIP3   OH2 5095   3.423   0.277   0.459
 1713TIP3    H1 5096   3.489   0.209   0.443
 1713TIP3    H2 5097   3.390   0.258   0.547
 1714TIP3   OH2 5098   4.573   1.292   5.903
 1714TIP3    H1 5099   4.662   1.312   5.874
 1714TIP3    H2 5100   4.582   1.209   5.950
 1715TIP3   OH2 5101   1.363   3.125   5.764
 1715TIP3    H1 5102   1.411   3.161   5.838
 1715TIP3    H2 5103   1.315   3.050   5.800
 1716TIP3   OH2 5104   0.884   4.527   5.828
 1716TIP3    H1 5105   0.877   4.434   5.805
 1716TIP3    H2 5106   0.794   4.559   5.823
 1717TIP3   OH2 5107   7.051   4.497   1.343
 1717TIP3    H1 5108   7.048   4.461   1.255
 1717TIP3    H2 5109   7.139   4.534   1.351
 1718TIP3   OH2 5110   2.294   6.938   3.721
 1718TIP3    H1 5111   2.316   7.028   3.696
 1718TIP3    H2 5112   2.205   6.945   3.757
 1719TIP3   OH2 5113   2.829   4.409   4.030
 1719TIP3    H1 5114   2.889   4.482   4.013
 1719TIP3    H2 5115   2.800   4.423   4.120
 1720TIP3   OH2 5116   3.504   0.101   1.220
 1720TIP3    H1 5117   3.492   0.084   1.126
 1720TIP3    H2 5118   3.572   0.169   1.223
 1721TIP3   OH2 5119   6.768   6.556   4.066
 1721TIP3    H1 5120   6.814   6.473   4.052
 1721TIP3    H2 5121   6.725   6.574   3.982
 1722TIP3   OH2 5122   6.474   3.930   0.364
 1722TIP3    H1 5123   6.387   3.939   0.403
 1722TIP3    H2 5124   6.512   3.854   0.408
 1723TIP3   OH2 5125   4.269   5.569   6.543
 1723TIP3    H1 5126   4.328   5.493   6.549
 1723TIP3    H2 5127   4.267   5.604   6.632
 1724TIP3   OH2 5128   6.356   0.780   3.996
 1724TIP3    H1 5129   6.353   0.684   3.995
 1724TIP3    H2 5130   6.265   0.807   3.991
 1725TIP3   OH2 5131   7.852   7.470   4.934
 1725TIP3    H1 5132   7.907   7.397   4.907
 1725TIP3    H2 5133   7.898   7.548   4.904
 1726TIP3   OH2 5134   0.034   0.629   1.049
 1726TIP3    H1 5135   0.105   0.574   1.015
 1726TIP3    H2 5136  -0.039   0.568   1.061
 1727TIP3   OH2 5137   3.327   5.808   5.163
 1727TIP3    H1 5138   3.368   5.723   5.181
 1727TIP3    H2 5139   3.348   5.825   5.071
 1728TIP3   OH2 5140   6.567   5.919   0.904
 1728TIP3    H1 5141   6.507   5.980   0.947
 1728TIP3    H2 5142   6.510   5.862   0.852
 1729TIP3   OH2 5143   2.211   6.089   6.559
 1729TIP3    H1 5144   2.286   6.034   6.539
 1729TIP3    H2 5145   2.153   6.078   6.484
 1730TIP3   OH2 5146   2.419   4.902   1.355
 1730TIP3    H1 5147   2.369   4.835   1.402
 1730TIP3    H2 5148   2.404   4.881   1.262
 1731TIP3   OH2 5149   6.850   5.230   3.114
 1731TIP3    H1 5150   6.816   5.188   3.193
 1731TIP3    H2 5151   6.821   5.321   3.120
 1732TIP3   OH2 5152   2.216   7.380   1.867
 1732TIP3    H1 5153   2.183   7.420   1.787
 1732TIP3    H2 5154   2.289   7.436   1.893
 1733TIP3   OH2 5155   8.093   1.003   0.712
 1733TIP3    H1 5156   8.130   0.939   0.773
 1733TIP3    H2 5157   8.030   0.953   0.660
 1734TIP3   OH2 5158   4.637   7.567   3.876
 1734TIP3    H1 5159   4.570   7.632   3.855
 1734TIP3    H2 5160   4.678   7.547   3.792
 1735TIP3   OH2 5161   7.648   6.168   5.794
 1735TIP3    H1 5162   7.644   6.158   5.889
 1735TIP3    H2 5163   7.674   6.259   5.781
 1736TIP3   OH2 5164   2.899   4.402   1.958
 1736TIP3    H1 5165   2.894   4.477   1.897
 1736TIP3    H2 5166   2.807   4.382   1.978
 1737TIP3   OH2 5167   7.963   1.020   4.634
 1737TIP3    H1 5168   7.868   1.021   4.631
 1737TIP3    H2 5169   7.984   0.951   4.697
 1738TIP3   OH2 5170   1.803   0.908   5.172
 1738TIP3    H1 5171   1.729   0.859   5.207
 1738TIP3    H2 5172   1.773   0.999   5.170
 1739TIP3   OH2 5173   4.810   1.998   0.014
 1739TIP3    H1 5174   4.724   2.040   0.002
 1739TIP3    H2 5175   4.873   2.066  -0.009
 1740TIP3   OH2 5176   4.880   4.935   4.663
 1740TIP3    H1 5177   4.865   4.860   4.720
 1740TIP3    H2 5178   4.802   4.990   4.675
 1741TIP3   OH2 5179   7.709   1.836   3.602
 1741TIP3    H1 5180   7.794   1.878   3.613
 1741TIP3    H2 5181   7.718   1.784   3.522
 1742TIP3   OH2 5182   7.178   0.864   5.968
 1742TIP3    H1 5183   7.232   0.807   5.913
 1742TIP3    H2 5184   7.239   0.900   6.032
 1743TIP3   OH2 5185   0.779   2.704   3.678
 1743TIP3    H1 5186   0.845   2.702   3.608
 1743TIP3    H2 5187   0.820   2.657   3.750
 1744TIP3   OH2 5188   3.350   0.596   6.691
 1744TIP3    H1 5189   3.399   0.582   6.773
 1744TIP3    H2 5190   3.397   0.667   6.648
 1745TIP3   OH2 5191   1.985   1.581   5.214
 1745TIP3    H1 5192   1.987   1.486   5.217
 1745TIP3    H2 5193   1.896   1.603   5.185
 1746TIP3   OH2 5194   2.993   0.211   6.244
 1746TIP3    H1 5195   3.063   0.260   6.285
 1746TIP3    H2 5196   3.036   0.165   6.171
 1747TIP3   OH2 5197   0.416   7.090   0.907
 1747TIP3    H1 5198   0.489   7.044   0.866
 1747TIP3    H2 5199   0.457   7.144   0.975
 1748TIP3   OH2 5200   1.894   6.238   3.999
 1748TIP3    H1 5201   1.862   6.158   3.958
 1748TIP3    H2 5202   1.907   6.299   3.927
 1749TIP3   OH2 5203   5.917   0.412   0.625
 1749TIP3    H1 5204   5.923   0.331   0.676
 1749TIP3    H2 5205   5.923   0.482   0.690
 1750TIP3   OH2 5206   8.088   5.409   2.854
 1750TIP3    H1 5207   8.121   5.480   2.910
 1750TIP3    H2 5208   8.013   5.448   2.810
 1751TIP3   OH2 5209   2.365   3.574   2.662
 1751TIP3    H1 5210   2.453   3.540   2.651
 1751TIP3    H2 5211   2.321   3.556   2.578
 1752TIP3   OH2 5212   2.062   0.899   5.066
 1752TIP3    H1 5213   2.062   0.992   5.044
 1752TIP3    H2 5214   1.986   0.888   5.123
 1753TIP3   OH2 5215   7.232   7.189   2.283
 1753TIP3    H1 5216   7.251   7.283   2.278
 1753TIP3    H2 5217   7.245   7.158   2.194
 1754TIP3   OH2 5218   7.355   0.142   1.257
 1754TIP3    H1 5219   7.318   0.138   1.169
 1754TIP3    H2 5220   7.426   0.206   1.250
 1755TIP3   OH2 5221   5.747   4.438   6.665
 1755TIP3    H1 5222   5.669   4.420   6.613
 1755TIP3    H2 5223   5.820   4.425   6.605
 1756TIP3   OH2 5224   3.473   4.059   1.541
 1756TIP3    H1 5225   3.396   4.103   1.577
 1756TIP3    H2 5226   3.534   4.130   1.522
 1757TIP3   OH2 5227   4.161   7.348   0.419
 1757TIP3    H1 5228   4.076   7.371   0.380
 1757TIP3    H2 5229   4.200   7.433   0.443
 1758TIP3   OH2 5230   7.486   2.034   2.094
 1758TIP3    H1 5231   7.418   2.101   2.093
 1758TIP3    H2 5232   7.525   2.037   2.007
 1759TIP3   OH2 5233   2.658   6.980   2.242
 1759TIP3    H1 5234   2.707   6.901   2.223
 1759TIP3    H2 5235   2.620   6.965   2.329
 1760TIP3   OH2 5236   6.011   2.997   1.172
 1760TIP3    H1 5237   5.947   2.927   1.161
 1760TIP3    H2 5238   6.096   2.952   1.177
 1761TIP3   OH2 5239   2.851   3.965   1.161
 1761TIP3    H1 5240   2.835   3.878   1.195
 1761TIP3    H2 5241   2.829   4.024   1.233
 1762TIP3   OH2 5242   5.022   7.328   5.939
 1762TIP3    H1 5243   5.045   7.246   5.894
 1762TIP3    H2 5244   5.018   7.393   5.869
 1763TIP3   OH2 5245   7.142   6.549   2.470
 1763TIP3    H1 5246   7.122   6.460   2.442
 1763TIP3    H2 5247   7.058   6.594   2.469
 1764TIP3   OH2 5248   7.397   2.821   3.451
 1764TIP3    H1 5249   7.395   2.874   3.531
 1764TIP3    H2 5250   7.449   2.744   3.475
 1765TIP3   OH2 5251   5.114   3.819   5.985
 1765TIP3    H1 5252   5.181   3.847   5.922
 1765TIP3    H2 5253   5.129   3.725   5.995
 1766TIP3   OH2 5254   7.030   0.732   5.247
 1766TIP3    H1 5255   7.064   0.744   5.158
 1766TIP3    H2 5256   6.946   0.687   5.235
 1767TIP3   OH2 5257   8.044   1.475   0.791
 1767TIP3    H1 5258   8.066   1.431   0.873
 1767TIP3    H2 5259   8.128   1.507   0.758
 1768TIP3   OH2 5260   1.620   3.331   2.448
 1768TIP3    H1 5261   1.709   3.331   2.413
 1768TIP3    H2 5262   1.630   3.355   2.540
 1769TIP3   OH2 5263   7.001   3.427   1.285
 1769TIP3    H1 5264   7.018   3.402   1.194
 1769TIP3    H2 5265   7.087   3.435   1.325
 1770TIP3   OH2 5266   0.211   0.093   0.107
 1770TIP3    H1 5267   0.147   0.045   0.056
 1770TIP3    H2 5268   0.295   0.056   0.081
 1771TIP3   OH2 5269   4.208   3.996   1.711
 1771TIP3    H1 5270   4.146   3.932   1.676
 1771TIP3    H2 5271   4.180   4.079   1.674
 1772TIP3   OH2 5272   6.106   2.484   2.397
 1772TIP3    H1 5273   6.059   2.440   2.467
 1772TIP3    H2 5274   6.189   2.512   2.436
 1773TIP3   OH2 5275   0.708   0.845   0.461
 1773TIP3    H1 5276   0.712   0.862   0.555
 1773TIP3    H2 5277   0.779   0.782   0.445
 1774TIP3   OH2 5278   7.571   6.694   5.612
 1774TIP3    H1 5279   7.564   6.714   5.519
 1774TIP3    H2 5280   7.640   6.751   5.644
 1775TIP3   OH2 5281   4.582   7.390   4.835
 1775TIP3    H1 5282   4.572   7.406   4.929
 1775TIP3    H2 5283   4.572   7.295   4.826
 1776TIP3   OH2 5284   4.482   1.873   0.804
 1776TIP3    H1 5285   4.406   1.902   0.855
 1776TIP3    H2 5286   4.501   1.785   0.837
 1777TIP3   OH2 5287   8.142   3.903   5.536
 1777TIP3    H1 5288   8.129   3.815   5.502
 1777TIP3    H2 5289   8.237   3.913   5.543
 1778TIP3   OH2 5290   3.519   5.184   1.945
 1778TIP3    H1 5291   3.461   5.253   1.913
 1778TIP3    H2 5292   3.514   5.116   1.879
 1779TIP3   OH2 5293   5.123   0.447   5.201
 1779TIP3    H1 5294   5.145   0.418   5.290
 1779TIP3    H2 5295   5.162   0.381   5.144
 1780TIP3   OH2 5296   7.501   6.080   2.642
 1780TIP3    H1 5297   7.548   6.014   2.693
 1780TIP3    H2 5298   7.408   6.061   2.657
 1781TIP3   OH2 5299   6.413   2.013   2.970
 1781TIP3    H1 5300   6.466   1.949   3.018
 1781TIP3    H2 5301   6.323   1.988   2.989
 1782TIP3   OH2 5302   3.308   2.247   2.851
 1782TIP3    H1 5303   3.383   2.238   2.792
 1782TIP3    H2 5304   3.331   2.321   2.907
 1783TIP3   OH2 5305   5.976   0.168   4.689
 1783TIP3    H1 5306   5.982   0.164   4.594
 1783TIP3    H2 5307   5.884   0.150   4.709
 1784TIP3   OH2 5308   6.737   0.625   2.402
 1784TIP3    H1 5309   6.709   0.571   2.476
 1784TIP3    H2 5310   6.801   0.572   2.356
 1785TIP3   OH2 5311   3.852   5.504   6.287
 1785TIP3    H1 5312   3.820   5.439   6.225
 1785TIP3    H2 5313   3.933   5.467   6.321
 1786TIP3   OH2 5314   7.478   0.398   2.589
 1786TIP3    H1 5315   7.478   0.435   2.677
 1786TIP3    H2 5316   7.535   0.455   2.538
 1787TIP3   OH2 5317   2.708   0.336   3.187
 1787TIP3    H1 5318   2.726   0.426   3.213
 1787TIP3    H2 5319   2.633   0.310   3.241
 1788TIP3   OH2 5320   5.415   6.353   6.168
 1788TIP3    H1 5321   5.425   6.421   6.234
 1788TIP3    H2 5322   5.490   6.364   6.110
 1789TIP3   OH2 5323   7.554   6.250   0.536
 1789TIP3    H1 5324   7.476   6.229   0.588
 1789TIP3    H2 5325   7.616   6.180   0.556
 1790TIP3   OH2 5326   0.234   6.773   2.867
 1790TIP3    H1 5327   0.143   6.775   2.839
 1790TIP3    H2 5328   0.230   6.748   2.960
 1791TIP3   OH2 5329   7.223   6.527   5.557
 1791TIP3    H1 5330   7.188   6.596   5.614
 1791TIP3    H2 5331   7.199   6.445   5.602
 1792TIP3   OH2 5332   0.514   7.480   2.621
 1792TIP3    H1 5333   0.471   7.464   2.537
 1792TIP3    H2 5334   0.606   7.495   2.599
 1793TIP3   OH2 5335   4.346   1.799   2.773
 1793TIP3    H1 5336   4.335   1.894   2.765
 1793TIP3    H2 5337   4.440   1.784   2.763
 1794TIP3   OH2 5338   1.219   0.959   4.411
 1794TIP3    H1 5339   1.166   0.887   4.445
 1794TIP3    H2 5340   1.236   0.936   4.319
 1795TIP3   OH2 5341   3.991   0.004   6.455
 1795TIP3    H1 5342   3.982   0.082   6.400
 1795TIP3    H2 5343   3.904  -0.035   6.456
 1796TIP3   OH2 5344   5.016   0.847   0.058
 1796TIP3    H1 5345   5.101   0.807   0.045
 1796TIP3    H2 5346   4.964   0.780   0.102
 1797TIP3   OH2 5347   3.336   6.382   1.098
 1797TIP3    H1 5348   3.375   6.385   1.186
 1797TIP3    H2 5349   3.259   6.326   1.108
 1798TIP3   OH2 5350   6.732   2.285   3.791
 1798TIP3    H1 5351   6.797   2.245   3.849
 1798TIP3    H2 5352   6.766   2.272   3.703
 1799TIP3   OH2 5353   2.583   3.414   1.324
 1799TIP3    H1 5354   2.558   3.324   1.344
 1799TIP3    H2 5355   2.657   3.406   1.264
 1800TIP3   OH2 5356   2.091   3.013   2.839
 1800TIP3    H1 5357   2.006   2.978   2.813
 1800TIP3    H2 5358   2.134   2.940   2.885
 1801TIP3   OH2 5359   2.328   7.059   4.850
 1801TIP3    H1 5360   2.387   7.061   4.925
 1801TIP3    H2 5361   2.304   6.967   4.841
 1802TIP3   OH2 5362   0.503   4.262   4.693
 1802TIP3    H1 5363   0.470   4.172   4.691
 1802TIP3    H2 5364   0.537   4.272   4.782
 1803TIP3   OH2 5365   1.968   1.120   3.821
 1803TIP3    H1 5366   2.040   1.180   3.838
 1803TIP3    H2 5367   1.903   1.172   3.775
 1804TIP3   OH2 5368   6.199   5.676   0.360
 1804TIP3    H1 5369   6.147   5.742   0.314
 1804TIP3    H2 5370   6.146   5.597   0.355
 1805TIP3   OH2 5371   3.839   5.294   4.326
 1805TIP3    H1 5372   3.846   5.369   4.268
 1805TIP3    H2 5373   3.925   5.286   4.366
 1806TIP3   OH2 5374   8.004   7.552   4.334
 1806TIP3    H1 5375   8.057   7.507   4.268
 1806TIP3    H2 5376   7.941   7.603   4.283
 1807TIP3   OH2 5377   6.283   2.340   6.466
 1807TIP3    H1 5378   6.349   2.397   6.506
 1807TIP3    H2 5379   6.305   2.252   6.497
 1808TIP3   OH2 5380   2.684   5.883   0.658
 1808TIP3    H1 5381   2.674   5.891   0.563
 1808TIP3    H2 5382   2.657   5.794   0.678
 1809TIP3   OH2 5383   1.329   5.050   5.780
 1809TIP3    H1 5384   1.265   5.020   5.715
 1809TIP3    H2 5385   1.277   5.101   5.842
 1810TIP3   OH2 5386   3.653   7.536   4.750
 1810TIP3    H1 5387   3.704   7.528   4.830
 1810TIP3    H2 5388   3.672   7.625   4.719
 1811TIP3   OH2 5389   3.114   6.484   1.484
 1811TIP3    H1 5390   3.190   6.505   1.431
 1811TIP3    H2 5391   3.046   6.544   1.453
 1812TIP3   OH2 5392   5.780   7.160   2.025
 1812TIP3    H1 5393   5.723   7.177   1.951
 1812TIP3    H2 5394   5.729   7.103   2.083
 1813TIP3   OH2 5395   0.693   1.354   5.152
 1813TIP3    H1 5396   0.644   1.429   5.117
 1813TIP3    H2 5397   0.681   1.285   5.087
 1814TIP3   OH2 5398   1.421   4.120   3.734
 1814TIP3    H1 5399   1.345   4.148   3.785
 1814TIP3    H2 5400   1.493   4.175   3.767
 1815TIP3   OH2 5401   6.123   5.523   5.146
 1815TIP3    H1 5402   6.170   5.590   5.195
 1815TIP3    H2 5403   6.034   5.558   5.138
 1816TIP3   OH2 5404   4.344   1.549   1.858
 1816TIP3    H1 5405   4.354   1.517   1.948
 1816TIP3    H2 5406   4.310   1.473   1.810
 1817TIP3   OH2 5407   2.475   7.218   2.623
 1817TIP3    H1 5408   2.524   7.272   2.561
 1817TIP3    H2 5409   2.477   7.130   2.585
 1818TIP3   OH2 5410   7.648   2.242   0.787
 1818TIP3    H1 5411   7.734   2.201   0.799
 1818TIP3    H2 5412   7.595   2.174   0.744
 1819TIP3   OH2 5413   6.237   6.932   3.403
 1819TIP3    H1 5414   6.321   6.978   3.398
 1819TIP3    H2 5415   6.172   7.000   3.384
 1820TIP3   OH2 5416   3.651   2.887   2.622
 1820TIP3    H1 5417   3.658   2.981   2.635
 1820TIP3    H2 5418   3.684   2.849   2.704
 1821TIP3   OH2 5419   6.850   4.228   4.145
 1821TIP3    H1 5420   6.897   4.288   4.088
 1821TIP3    H2 5421   6.823   4.282   4.220
 1822TIP3   OH2 5422   2.202   2.791   1.546
 1822TIP3    H1 5423   2.239   2.788   1.634
 1822TIP3    H2 5424   2.252   2.727   1.496
 1823TIP3   OH2 5425   1.296   2.786   5.250
 1823TIP3    H1 5426   1.383   2.756   5.225
 1823TIP3    H2 5427   1.243   2.774   5.171
 1824TIP3   OH2 5428   2.115   0.367   1.869
 1824TIP3    H1 5429   2.047   0.331   1.926
 1824TIP3    H2 5430   2.157   0.291   1.830
 1825TIP3   OH2 5431   6.398   4.296   3.413
 1825TIP3    H1 5432   6.477   4.242   3.410
 1825TIP3    H2 5433   6.337   4.253   3.354
 1826TIP3   OH2 5434   7.229   1.853   0.556
 1826TIP3    H1 5435   7.172   1.871   0.632
 1826TIP3    H2 5436   7.168   1.838   0.484
 1827TIP3   OH2 5437   6.461   5.601   0.276
 1827TIP3    H1 5438   6.391   5.652   0.316
 1827TIP3    H2 5439   6.425   5.513   0.267
 1828TIP3   OH2 5440   6.831   6.975   6.509
 1828TIP3    H1 5441   6.746   6.957   6.549
 1828TIP3    H2 5442   6.894   6.928   6.562
 1829TIP3   OH2 5443   2.391   4.038   3.690
 1829TIP3    H1 5444   2.354   3.950   3.697
 1829TIP3    H2 5445   2.374   4.064   3.600
 1830TIP3   OH2 5446   4.644   0.093   6.542
 1830TIP3    H1 5447   4.719   0.035   6.553
 1830TIP3    H2 5448   4.683   0.180   6.532
 1831TIP3   OH2 5449   2.589   7.043   4.078
 1831TIP3    H1 5450   2.506   7.050   4.125
 1831TIP3    H2 5451   2.612   6.950   4.084
 1832TIP3   OH2 5452   3.663   5.032   0.382
 1832TIP3    H1 5453   3.753   5.022   0.353
 1832TIP3    H2 5454   3.631   5.109   0.335
 1833TIP3   OH2 5455   1.047   6.422   3.918
 1833TIP3    H1 5456   1.096   6.462   3.847
 1833TIP3    H2 5457   1.065   6.478   3.994
 1834TIP3   OH2 5458   7.335   4.044   0.995
 1834TIP3    H1 5459   7.243   4.028   0.974
 1834TIP3    H2 5460   7.335   4.060   1.089
 1835TIP3   OH2 5461   0.309   1.674   3.771
 1835TIP3    H1 5462   0.399   1.702   3.753
 1835TIP3    H2 5463   0.285   1.622   3.695
 1836TIP3   OH2 5464   3.944   0.253   4.612
 1836TIP3    H1 5465   4.009   0.321   4.591
 1836TIP3    H2 5466   3.861   0.287   4.579
 1837TIP3   OH2 5467   3.428   3.190   1.979
 1837TIP3    H1 5468   3.495   3.122   1.984
 1837TIP3    H2 5469   3.441   3.230   1.894
 1838TIP3   OH2 5470   0.448   0.813   0.448
 1838TIP3    H1 5471   0.449   0.721   0.472
 1838TIP3    H2 5472   0.540   0.838   0.441
 1839TIP3   OH2 5473   8.017   4.893   1.369
 1839TIP3    H1 5474   8.047   4.896   1.279
 1839TIP3    H2 5475   7.929   4.856   1.364
 1840TIP3   OH2 5476   0.836   1.696   4.567
 1840TIP3    H1 5477   0.804   1.635   4.633
 1840TIP3    H2 5478   0.785   1.675   4.488
 1841TIP3   OH2 5479   6.715   6.283   3.366
 1841TIP3    H1 5480   6.623   6.309   3.362
 1841TIP3    H2 5481   6.717   6.195   3.329
 1842TIP3   OH2 5482   7.611   6.096   0.911
 1842TIP3    H1 5483   7.619   6.078   0.818
 1842TIP3    H2 5484   7.519   6.119   0.924
 1843TIP3   OH2 5485   7.759   7.721   0.289
 1843TIP3    H1 5486   7.814   7.741   0.364
 1843TIP3    H2 5487   7.820   7.721   0.214
 1844TIP3   OH2 5488   5.310   4.832   6.037
 1844TIP3    H1 5489   5.221   4.808   6.012
 1844TIP3    H2 5490   5.354   4.853   5.954
 1845TIP3   OH2 5491   4.583   3.752   2.356
 1845TIP3    H1 5492   4.571   3.711   2.270
 1845TIP3    H2 5493   4.640   3.691   2.404
 1846TIP3   OH2 5494   5.036   6.152   2.701
 1846TIP3    H1 5495   5.008   6.087   2.766
 1846TIP3    H2 5496   5.130   6.136   2.690
 1847TIP3   OH2 5497   5.315   4.035   3.722
 1847TIP3    H1 5498   5.279   3.984   3.795
 1847TIP3    H2 5499   5.244   4.039   3.658
 1848TIP3   OH2 5500   0.386   2.998   4.180
 1848TIP3    H1 5501   0.371   3.053   4.104
 1848TIP3    H2 5502   0.302   2.996   4.226
 1849TIP3   OH2 5503   7.479   3.236   4.438
 1849TIP3    H1 5504   7.517   3.217   4.352
 1849TIP3    H2 5505   7.405   3.294   4.419
 1850TIP3   OH2 5506   2.843   6.706   4.337
 1850TIP3    H1 5507   2.927   6.728   4.296
 1850TIP3    H2 5508   2.841   6.759   4.417
 1851TIP3   OH2 5509   5.874   3.638   6.292
 1851TIP3    H1 5510   5.807   3.571   6.277
 1851TIP3    H2 5511   5.940   3.620   6.226
 1852TIP3   OH2 5512   2.035   0.934   4.292
 1852TIP3    H1 5513   2.040   1.019   4.247
 1852TIP3    H2 5514   1.941   0.920   4.305
 1853TIP3   OH2 5515   5.447   6.891   3.906
 1853TIP3    H1 5516   5.371   6.913   3.852
 1853TIP3    H2 5517   5.450   6.795   3.904
 1854TIP3   OH2 5518   7.467   1.091   2.380
 1854TIP3    H1 5519   7.489   1.137   2.300
 1854TIP3    H2 5520   7.475   1.157   2.449
 1855TIP3   OH2 5521   4.334   0.586   4.551
 1855TIP3    H1 5522   4.366   0.670   4.517
 1855TIP3    H2 5523   4.255   0.569   4.500
 1856TIP3   OH2 5524   3.286   7.233   4.103
 1856TIP3    H1 5525   3.199   7.268   4.083
 1856TIP3    H2 5526   3.269   7.151   4.150
 1857TIP3   OH2 5527   0.048   2.519   3.794
 1857TIP3    H1 5528   0.116   2.473   3.744
 1857TIP3    H2 5529   0.028   2.460   3.867
 1858TIP3   OH2 5530   3.386   1.908   4.714
 1858TIP3    H1 5531   3.387   1.906   4.809
 1858TIP3    H2 5532   3.340   1.989   4.692
 1859TIP3   OH2 5533   5.347   0.397   2.615
 1859TIP3    H1 5534   5.350   0.472   2.555
 1859TIP3    H2 5535   5.254   0.379   2.626
 1860TIP3   OH2 5536   0.763   3.284   2.155
 1860TIP3    H1 5537   0.702   3.322   2.092
 1860TIP3    H2 5538   0.823   3.356   2.177
 1861TIP3   OH2 5539   3.427   6.647   1.051
 1861TIP3    H1 5540   3.507   6.607   1.016
 1861TIP3    H2 5541   3.377   6.574   1.088
 1862TIP3   OH2 5542   1.944   7.802   3.686
 1862TIP3    H1 5543   1.940   7.836   3.596
 1862TIP3    H2 5544   1.956   7.708   3.676
 1863TIP3   OH2 5545   2.840   5.219   3.327
 1863TIP3    H1 5546   2.804   5.170   3.253
 1863TIP3    H2 5547   2.918   5.261   3.293
 1864TIP3   OH2 5548   3.176   1.997   1.008
 1864TIP3    H1 5549   3.219   2.003   1.094
 1864TIP3    H2 5550   3.179   1.904   0.986
 1865TIP3   OH2 5551   0.732   5.785   2.721
 1865TIP3    H1 5552   0.736   5.753   2.811
 1865TIP3    H2 5553   0.781   5.867   2.723
 1866TIP3   OH2 5554   4.369   4.733   1.952
 1866TIP3    H1 5555   4.345   4.777   2.033
 1866TIP3    H2 5556   4.411   4.802   1.899
 1867TIP3   OH2 5557   7.580   2.249   3.186
 1867TIP3    H1 5558   7.539   2.188   3.248
 1867TIP3    H2 5559   7.513   2.316   3.171
 1868TIP3   OH2 5560   1.600   7.173   3.837
 1868TIP3    H1 5561   1.544   7.208   3.906
 1868TIP3    H2 5562   1.540   7.127   3.779
 1869TIP3   OH2 5563   6.759   4.259   1.636
 1869TIP3    H1 5564   6.674   4.289   1.668
 1869TIP3    H2 5565   6.744   4.169   1.608
 1870TIP3   OH2 5566   4.703   1.243   2.626
 1870TIP3    H1 5567   4.647   1.230   2.549
 1870TIP3    H2 5568   4.646   1.223   2.700
 1871TIP3   OH2 5569   1.792   1.889   5.185
 1871TIP3    H1 5570   1.741   1.966   5.209
 1871TIP3    H2 5571   1.876   1.924   5.154
 1872TIP3   OH2 5572   5.942   6.051   1.861
 1872TIP3    H1 5573   5.902   6.105   1.793
 1872TIP3    H2 5574   5.878   6.051   1.933
 1873TIP3   OH2 5575   0.058   6.024   3.178
 1873TIP3    H1 5576   0.095   6.042   3.091
 1873TIP3    H2 5577   0.128   5.978   3.225
 1874TIP3   OH2 5578   4.241   7.310   2.456
 1874TIP3    H1 5579   4.234   7.260   2.537
 1874TIP3    H2 5580   4.151   7.341   2.440
 1875TIP3   OH2 5581   2.926   3.567   4.587
 1875TIP3    H1 5582   3.006   3.619   4.589
 1875TIP3    H2 5583   2.877   3.600   4.511
 1876TIP3   OH2 5584   4.563   2.980   3.565
 1876TIP3    H1 5585   4.506   3.043   3.520
 1876TIP3    H2 5586   4.506   2.905   3.582
 1877TIP3   OH2 5587   6.950   6.992   3.846
 1877TIP3    H1 5588   6.890   7.031   3.909
 1877TIP3    H2 5589   6.934   7.041   3.765
 1878TIP3   OH2 5590   6.475   2.764   4.431
 1878TIP3    H1 5591   6.498   2.849   4.467
 1878TIP3    H2 5592   6.380   2.759   4.441
 1879TIP3   OH2 5593   1.612   3.411   4.210
 1879TIP3    H1 5594   1.571   3.379   4.129
 1879TIP3    H2 5595   1.618   3.506   4.198
 1880TIP3   OH2 5596   7.075   2.969   4.114
 1880TIP3    H1 5597   7.024   2.892   4.141
 1880TIP3    H2 5598   7.148   2.973   4.175
 1881TIP3   OH2 5599   1.501   2.882   4.031
 1881TIP3    H1 5600   1.466   2.905   4.117
 1881TIP3    H2 5601   1.425   2.885   3.973
 1882TIP3   OH2 5602   8.083   0.326   2.798
 1882TIP3    H1 5603   8.059   0.357   2.886
 1882TIP3    H2 5604   8.033   0.246   2.787
 1883TIP3   OH2 5605   4.153   3.760   1.938
 1883TIP3    H1 5606   4.208   3.714   1.874
 1883TIP3    H2 5607   4.110   3.829   1.887
 1884TIP3   OH2 5608   1.986   7.142   2.100
 1884TIP3    H1 5609   2.058   7.101   2.051
 1884TIP3    H2 5610   2.029   7.206   2.157
 1885TIP3   OH2 5611   6.830   6.462   0.953
 1885TIP3    H1 5612   6.803   6.376   0.985
 1885TIP3    H2 5613   6.748   6.509   0.936
 1886TIP3   OH2 5614   1.638   7.163   2.590
 1886TIP3    H1 5615   1.578   7.201   2.654
 1886TIP3    H2 5616   1.723   7.204   2.609
 1887TIP3   OH2 5617   5.541   2.824   5.244
 1887TIP3    H1 5618   5.549   2.907   5.291
 1887TIP3    H2 5619   5.631   2.797   5.228
 1888TIP3   OH2 5620   6.787   3.271   6.694
 1888TIP3    H1 5621   6.863   3.254   6.638
 1888TIP3    H2 5622   6.731   3.329   6.642
 1889TIP3   OH2 5623   1.838   1.929   4.059
 1889TIP3    H1 5624   1.882   1.855   4.102
 1889TIP3    H2 5625   1.893   2.004   4.080
 1890TIP3   OH2 5626   7.774   0.082   2.250
 1890TIP3    H1 5627   7.717   0.111   2.322
 1890TIP3    H2 5628   7.829   0.014   2.289
 1891TIP3   OH2 5629   2.322   6.416   0.315
 1891TIP3    H1 5630   2.413   6.413   0.344
 1891TIP3    H2 5631   2.294   6.506   0.332
 1892TIP3   OH2 5632   7.953   5.499   5.482
 1892TIP3    H1 5633   7.943   5.456   5.397
 1892TIP3    H2 5634   8.011   5.442   5.532
 1893TIP3   OH2 5635   3.584   7.751   6.067
 1893TIP3    H1 5636   3.607   7.661   6.046
 1893TIP3    H2 5637   3.508   7.770   6.011
 1894TIP3   OH2 5638   2.890   6.245   2.878
 1894TIP3    H1 5639   2.905   6.339   2.873
 1894TIP3    H2 5640   2.879   6.227   2.972
 1895TIP3   OH2 5641   6.624   5.983   5.156
 1895TIP3    H1 5642   6.626   6.076   5.181
 1895TIP3    H2 5643   6.670   5.980   5.073
 1896TIP3   OH2 5644   2.008   2.480   2.202
 1896TIP3    H1 5645   1.925   2.525   2.217
 1896TIP3    H2 5646   1.999   2.439   2.116
 1897TIP3   OH2 5647   2.954   0.076   3.096
 1897TIP3    H1 5648   2.914  -0.011   3.087
 1897TIP3    H2 5649   2.881   0.133   3.123
 1898TIP3   OH2 5650   3.177   3.933   3.825
 1898TIP3    H1 5651   3.104   3.924   3.887
 1898TIP3    H2 5652   3.190   4.027   3.817
 1899TIP3   OH2 5653   1.452   3.417   5.540
 1899TIP3    H1 5654   1.516   3.437   5.472
 1899TIP3    H2 5655   1.504   3.395   5.617
 1900TIP3   OH2 5656   4.850   0.531   1.732
 1900TIP3    H1 5657   4.853   0.579   1.648
 1900TIP3    H2 5658   4.802   0.451   1.712
 1901TIP3   OH2 5659   5.558   0.311   1.965
 1901TIP3    H1 5660   5.516   0.344   1.885
 1901TIP3    H2 5661   5.647   0.346   1.961
 1902TIP3   OH2 5662   8.351   7.588   0.046
 1902TIP3    H1 5663   8.285   7.556  -0.016
 1902TIP3    H2 5664   8.302   7.604   0.126
 1903TIP3   OH2 5665   5.563   1.395   4.354
 1903TIP3    H1 5666   5.477   1.395   4.312
 1903TIP3    H2 5667   5.606   1.316   4.322
 1904TIP3   OH2 5668   3.752   4.739   1.948
 1904TIP3    H1 5669   3.688   4.708   2.012
 1904TIP3    H2 5670   3.707   4.736   1.864
 1905TIP3   OH2 5671   0.600   7.760   3.502
 1905TIP3    H1 5672   0.666   7.762   3.572
 1905TIP3    H2 5673   0.516   7.761   3.548
 1906TIP3   OH2 5674   7.957   4.208   5.701
 1906TIP3    H1 5675   7.893   4.182   5.634
 1906TIP3    H2 5676   7.979   4.127   5.746
 1907TIP3   OH2 5677   6.888   1.472   5.240
 1907TIP3    H1 5678   6.967   1.484   5.292
 1907TIP3    H2 5679   6.817   1.502   5.296
 1908TIP3   OH2 5680   2.286   0.302   0.508
 1908TIP3    H1 5681   2.227   0.363   0.464
 1908TIP3    H2 5682   2.281   0.327   0.601
 1909TIP3   OH2 5683   7.207   5.108   5.394
 1909TIP3    H1 5684   7.273   5.042   5.371
 1909TIP3    H2 5685   7.258   5.185   5.419
 1910TIP3   OH2 5686   0.083   5.716   5.527
 1910TIP3    H1 5687   0.151   5.766   5.572
 1910TIP3    H2 5688   0.015   5.704   5.594
 1911TIP3   OH2 5689   0.679   2.197   2.267
 1911TIP3    H1 5690   0.629   2.279   2.264
 1911TIP3    H2 5691   0.767   2.224   2.293
 1912TIP3   OH2 5692   7.740   4.129   5.479
 1912TIP3    H1 5693   7.727   4.098   5.390
 1912TIP3    H2 5694   7.656   4.115   5.522
 1913TIP3   OH2 5695   7.619   6.681   4.363
 1913TIP3    H1 5696   7.581   6.765   4.335
 1913TIP3    H2 5697   7.568   6.656   4.440
 1914TIP3   OH2 5698   1.717   7.192   1.168
 1914TIP3    H1 5699   1.760   7.109   1.150
 1914TIP3    H2 5700   1.788   7.251   1.194
 1915TIP3   OH2 5701   4.417   5.304   6.270
 1915TIP3    H1 5702   4.501   5.266   6.294
 1915TIP3    H2 5703   4.432   5.398   6.267
 1916TIP3   OH2 5704   3.914   6.922   4.477
 1916TIP3    H1 5705   3.935   7.015   4.481
 1916TIP3    H2 5706   3.887   6.899   4.566
 1917TIP3   OH2 5707   3.013   2.700   5.938
 1917TIP3    H1 5708   2.952   2.765   5.973
 1917TIP3    H2 5709   3.023   2.636   6.009
 1918TIP3   OH2 5710   5.116   3.553   2.531
 1918TIP3    H1 5711   5.195   3.532   2.481
 1918TIP3    H2 5712   5.148   3.603   2.606
 1919TIP3   OH2 5713   4.271   1.027   1.765
 1919TIP3    H1 5714   4.207   0.975   1.717
 1919TIP3    H2 5715   4.236   1.033   1.854
 1920TIP3   OH2 5716   2.467   1.722   0.216
 1920TIP3    H1 5717   2.426   1.670   0.147
 1920TIP3    H2 5718   2.428   1.690   0.297
 1921TIP3   OH2 5719   1.463   0.898   4.584
 1921TIP3    H1 5720   1.532   0.944   4.537
 1921TIP3    H2 5721   1.392   0.962   4.592
 1922TIP3   OH2 5722   0.524   0.455   0.002
 1922TIP3    H1 5723   0.440   0.409  -0.007
 1922TIP3    H2 5724   0.557   0.428   0.088
 1923TIP3   OH2 5725   2.135   7.028   0.639
 1923TIP3    H1 5726   2.058   7.045   0.693
 1923TIP3    H2 5727   2.138   6.933   0.629
 1924TIP3   OH2 5728   7.294   0.736   5.735
 1924TIP3    H1 5729   7.336   0.691   5.662
 1924TIP3    H2 5730   7.251   0.812   5.696
 1925TIP3   OH2 5731   4.871   6.769   5.442
 1925TIP3    H1 5732   4.825   6.821   5.507
 1925TIP3    H2 5733   4.943   6.825   5.412
 1926TIP3   OH2 5734   2.477   0.708   2.104
 1926TIP3    H1 5735   2.439   0.685   2.019
 1926TIP3    H2 5736   2.570   0.722   2.085
 1927TIP3   OH2 5737   5.263   5.008   4.894
 1927TIP3    H1 5738   5.277   5.096   4.928
 1927TIP3    H2 5739   5.222   5.021   4.809
 1928TIP3   OH2 5740   2.362   1.229   4.895
 1928TIP3    H1 5741   2.449   1.261   4.919
 1928TIP3    H2 5742   2.379   1.158   4.833
 1929TIP3   OH2 5743   3.171   3.817   2.078
 1929TIP3    H1 5744   3.133   3.754   2.140
 1929TIP3    H2 5745   3.225   3.763   2.020
 1930TIP3   OH2 5746   1.142   7.746   5.844
 1930TIP3    H1 5747   1.165   7.808   5.913
 1930TIP3    H2 5748   1.213   7.756   5.779
 1931TIP3   OH2 5749   5.114   3.010   1.670
 1931TIP3    H1 5750   5.193   2.957   1.655
 1931TIP3    H2 5751   5.042   2.956   1.637
 1932TIP3   OH2 5752   6.588   5.830   4.397
 1932TIP3    H1 5753   6.651   5.888   4.353
 1932TIP3    H2 5754   6.563   5.878   4.476
 1933TIP3   OH2 5755   7.728   5.612   1.123
 1933TIP3    H1 5756   7.769   5.671   1.059
 1933TIP3    H2 5757   7.669   5.668   1.173
 1934TIP3   OH2 5758   5.651   0.510   3.249
 1934TIP3    H1 5759   5.571   0.457   3.252
 1934TIP3    H2 5760   5.619   0.599   3.234
 1935TIP3   OH2 5761   2.441   7.613   1.904
 1935TIP3    H1 5762   2.488   7.695   1.886
 1935TIP3    H2 5763   2.480   7.550   1.843
 1936TIP3   OH2 5764   4.477   7.375   0.911
 1936TIP3    H1 5765   4.567   7.348   0.894
 1936TIP3    H2 5766   4.482   7.426   0.991
 1937TIP3   OH2 5767   1.381   0.498   2.361
 1937TIP3    H1 5768   1.468   0.497   2.321
 1937TIP3    H2 5769   1.321   0.506   2.286
 1938TIP3   OH2 5770   1.219   7.127   1.413
 1938TIP3    H1 5771   1.299   7.152   1.368
 1938TIP3    H2 5772   1.179   7.060   1.357
 1939TIP3   OH2 5773   3.098   4.982   5.024
 1939TIP3    H1 5774   3.092   4.921   4.951
 1939TIP3    H2 5775   3.154   4.938   5.088
 1940TIP3   OH2 5776   4.925   0.657   0.315
 1940TIP3    H1 5777   5.015   0.677   0.287
 1940TIP3    H2 5778   4.882   0.627   0.235
 1941TIP3   OH2 5779   2.271   4.440   4.224
 1941TIP3    H1 5780   2.231   4.468   4.306
 1941TIP3    H2 5781   2.362   4.420   4.248
 1942TIP3   OH2 5782   0.156   2.771   3.167
 1942TIP3    H1 5783   0.144   2.698   3.227
 1942TIP3    H2 5784   0.184   2.843   3.223
 1943TIP3   OH2 5785   0.197   1.187   5.730
 1943TIP3    H1 5786   0.149   1.227   5.803
 1943TIP3    H2 5787   0.241   1.112   5.770
 1944TIP3   OH2 5788   1.146   0.810   4.803
 1944TIP3    H1 5789   1.184   0.894   4.777
 1944TIP3    H2 5790   1.136   0.761   4.721
 1945TIP3   OH2 5791   1.610   5.434   1.373
 1945TIP3    H1 5792   1.600   5.457   1.466
 1945TIP3    H2 5793   1.611   5.519   1.328
 1946TIP3   OH2 5794   6.757   0.623   4.626
 1946TIP3    H1 5795   6.722   0.707   4.597
 1946TIP3    H2 5796   6.838   0.612   4.576
 1947TIP3   OH2 5797   2.760   3.219   3.619
 1947TIP3    H1 5798   2.731   3.162   3.690
 1947TIP3    H2 5799   2.682   3.270   3.596
 1948TIP3   OH2 5800   7.600   4.669   1.477
 1948TIP3    H1 5801   7.580   4.596   1.536
 1948TIP3    H2 5802   7.612   4.744   1.536
 1949TIP3   OH2 5803   0.735   3.088   1.814
 1949TIP3    H1 5804   0.658   3.144   1.824
 1949TIP3    H2 5805   0.765   3.104   1.725
 1950TIP3   OH2 5806   7.616   6.911   2.604
 1950TIP3    H1 5807   7.597   6.850   2.675
 1950TIP3    H2 5808   7.659   6.985   2.648
 1951TIP3   OH2 5809   3.897   1.774   2.885
 1951TIP3    H1 5810   3.991   1.767   2.902
 1951TIP3    H2 5811   3.872   1.859   2.922
 1952TIP3   OH2 5812   0.232   4.492   1.492
 1952TIP3    H1 5813   0.325   4.509   1.504
 1952TIP3    H2 5814   0.190   4.578   1.498
 1953TIP3   OH2 5815   2.336   7.238   3.701
 1953TIP3    H1 5816   2.422   7.250   3.739
 1953TIP3    H2 5817   2.326   7.310   3.638
 1954TIP3   OH2 5818   7.611   4.162   3.205
 1954TIP3    H1 5819   7.683   4.121   3.156
 1954TIP3    H2 5820   7.643   4.166   3.295
 1955TIP3   OH2 5821   0.278   0.810   1.101
 1955TIP3    H1 5822   0.194   0.796   1.146
 1955TIP3    H2 5823   0.269   0.763   1.018
 1956TIP3   OH2 5824   0.045   1.939   0.642
 1956TIP3    H1 5825   0.119   1.911   0.696
 1956TIP3    H2 5826   0.085   1.970   0.561
 1957TIP3   OH2 5827   3.787   3.302   1.152
 1957TIP3    H1 5828   3.829   3.340   1.229
 1957TIP3    H2 5829   3.704   3.269   1.185
 1958TIP3   OH2 5830   7.672   7.621   1.676
 1958TIP3    H1 5831   7.731   7.546   1.674
 1958TIP3    H2 5832   7.678   7.660   1.589
 1959TIP3   OH2 5833   8.073   3.948   1.694
 1959TIP3    H1 5834   8.141   3.987   1.639
 1959TIP3    H2 5835   8.112   3.943   1.781
 1960TIP3   OH2 5836   4.464   6.908   0.128
 1960TIP3    H1 5837   4.456   6.973   0.198
 1960TIP3    H2 5838   4.386   6.920   0.074
 1961TIP3   OH2 5839   6.375   0.613   2.123
 1961TIP3    H1 5840   6.301   0.644   2.174
 1961TIP3    H2 5841   6.338   0.546   2.065
 1962TIP3   OH2 5842   6.721   5.420   0.788
 1962TIP3    H1 5843   6.664   5.462   0.723
 1962TIP3    H2 5844   6.743   5.490   0.849
 1963TIP3   OH2 5845   2.104   7.534   5.281
 1963TIP3    H1 5846   2.141   7.504   5.198
 1963TIP3    H2 5847   2.028   7.477   5.295
 1964TIP3   OH2 5848   7.839   3.881   0.426
 1964TIP3    H1 5849   7.856   3.934   0.348
 1964TIP3    H2 5850   7.743   3.882   0.435
 1965TIP3   OH2 5851   6.910   6.383   2.966
 1965TIP3    H1 5852   6.980   6.363   2.904
 1965TIP3    H2 5853   6.952   6.434   3.035
 1966TIP3   OH2 5854   0.595   4.132   1.633
 1966TIP3    H1 5855   0.630   4.182   1.559
 1966TIP3    H2 5856   0.523   4.186   1.666
 1967TIP3   OH2 5857   1.332   1.086   4.128
 1967TIP3    H1 5858   1.400   1.137   4.085
 1967TIP3    H2 5859   1.377   1.007   4.159
 1968TIP3   OH2 5860   6.152   3.469   4.566
 1968TIP3    H1 5861   6.245   3.452   4.581
 1968TIP3    H2 5862   6.107   3.413   4.630
 1969TIP3   OH2 5863   4.415   2.985   4.877
 1969TIP3    H1 5864   4.375   3.057   4.827
 1969TIP3    H2 5865   4.342   2.927   4.897
 1970TIP3   OH2 5866   2.603   1.230   1.823
 1970TIP3    H1 5867   2.513   1.248   1.794
 1970TIP3    H2 5868   2.657   1.260   1.751
 1971TIP3   OH2 5869   3.204   1.746   0.889
 1971TIP3    H1 5870   3.223   1.659   0.855
 1971TIP3    H2 5871   3.242   1.806   0.824
 1972TIP3   OH2 5872   6.317   6.848   2.041
 1972TIP3    H1 5873   6.236   6.899   2.036
 1972TIP3    H2 5874   6.383   6.910   2.073
 1973TIP3   OH2 5875   6.318   6.159   6.049
 1973TIP3    H1 5876   6.351   6.070   6.038
 1973TIP3    H2 5877   6.316   6.195   5.961
 1974TIP3   OH2 5878   1.396   3.353   4.406
 1974TIP3    H1 5879   1.418   3.414   4.336
 1974TIP3    H2 5880   1.346   3.284   4.363
 1975TIP3   OH2 5881   7.033   4.387   1.074
 1975TIP3    H1 5882   6.968   4.445   1.036
 1975TIP3    H2 5883   7.116   4.413   1.034
 1976TIP3   OH2 5884   3.145   7.544   1.976
 1976TIP3    H1 5885   3.150   7.636   1.947
 1976TIP3    H2 5886   3.236   7.522   1.996
 1977TIP3   OH2 5887   0.868   1.402   1.981
 1977TIP3    H1 5888   0.940   1.440   2.031
 1977TIP3    H2 5889   0.867   1.310   2.007
 1978TIP3   OH2 5890   4.463   0.607   5.603
 1978TIP3    H1 5891   4.374   0.610   5.569
 1978TIP3    H2 5892   4.492   0.517   5.587
 1979TIP3   OH2 5893   2.778   6.964   0.239
 1979TIP3    H1 5894   2.837   7.025   0.282
 1979TIP3    H2 5895   2.691   7.004   0.249
 1980TIP3   OH2 5896   6.472   4.251   1.688
 1980TIP3    H1 5897   6.430   4.331   1.722
 1980TIP3    H2 5898   6.406   4.214   1.629
 1981TIP3   OH2 5899   5.805   1.293   6.087
 1981TIP3    H1 5900   5.762   1.267   6.169
 1981TIP3    H2 5901   5.838   1.212   6.049
 1982TIP3   OH2 5902   1.591   3.445   5.819
 1982TIP3    H1 5903   1.658   3.384   5.848
 1982TIP3    H2 5904   1.604   3.523   5.873
 1983TIP3   OH2 5905   2.877   7.372   3.705
 1983TIP3    H1 5906   2.899   7.446   3.647
 1983TIP3    H2 5907   2.886   7.295   3.649
 1984TIP3   OH2 5908   4.184   6.631   0.182
 1984TIP3    H1 5909   4.221   6.636   0.094
 1984TIP3    H2 5910   4.095   6.666   0.173
 1985TIP3   OH2 5911   3.705   3.236   2.246
 1985TIP3    H1 5912   3.632   3.233   2.308
 1985TIP3    H2 5913   3.771   3.290   2.288
 1986TIP3   OH2 5914   4.874   3.188   1.237
 1986TIP3    H1 5915   4.845   3.177   1.147
 1986TIP3    H2 5916   4.956   3.139   1.242
 1987TIP3   OH2 5917   5.178   3.677   1.221
 1987TIP3    H1 5918   5.105   3.619   1.201
 1987TIP3    H2 5919   5.164   3.702   1.313
 1988TIP3   OH2 5920   5.230   2.519   4.113
 1988TIP3    H1 5921   5.318   2.557   4.108
 1988TIP3    H2 5922   5.245   2.426   4.125
 1989TIP3   OH2 5923   5.858   7.617   0.074
 1989TIP3    H1 5924   5.930   7.559   0.050
 1989TIP3    H2 5925   5.785   7.590   0.019
 1990TIP3   OH2 5926   5.700   2.428   2.980
 1990TIP3    H1 5927   5.699   2.351   2.923
 1990TIP3    H2 5928   5.765   2.406   3.047
 1991TIP3   OH2 5929   7.781   5.506   3.750
 1991TIP3    H1 5930   7.874   5.486   3.758
 1991TIP3    H2 5931   7.779   5.602   3.739
 1992TIP3   OH2 5932   7.360   6.148   5.182
 1992TIP3    H1 5933   7.453   6.125   5.180
 1992TIP3    H2 5934   7.315   6.071   5.148
 1993TIP3   OH2 5935   4.666   3.958   1.022
 1993TIP3    H1 5936   4.706   3.942   0.936
 1993TIP3    H2 5937   4.739   3.955   1.083
 1994TIP3   OH2 5938   1.953   7.755   4.795
 1994TIP3    H1 5939   1.981   7.676   4.749
 1994TIP3    H2 5940   1.944   7.728   4.886
 1995TIP3   OH2 5941   5.542   6.495   5.653
 1995TIP3    H1 5942   5.630   6.528   5.636
 1995TIP3    H2 5943   5.554   6.422   5.713
 1996TIP3   OH2 5944   8.142   6.475   3.309
 1996TIP3    H1 5945   8.225   6.428   3.306
 1996TIP3    H2 5946   8.076   6.406   3.320
 1997TIP3   OH2 5947   7.917   2.014   2.819
 1997TIP3    H1 5948   7.831   2.054   2.831
 1997TIP3    H2 5949   7.903   1.944   2.755
 1998TIP3   OH2 5950   4.322   4.545   4.482
 1998TIP3    H1 5951   4.324   4.488   4.405
 1998TIP3    H2 5952   4.230   4.547   4.508
 1999TIP3   OH2 5953   5.824   2.061   1.171
 1999TIP3    H1 5954   5.803   2.152   1.148
 1999TIP3    H2 5955   5.774   2.044   1.251
 2000TIP3   OH2 5956   4.759   6.132   1.843
 2000TIP3    H1 5957   4.735   6.047   1.807
 2000TIP3    H2 5958   4.773   6.115   1.937
 2001TIP3   OH2 5959   0.326   4.419   4.018
 2001TIP3    H1 5960   0.258   4.354   4.003
 2001TIP3    H2 5961   0.319   4.479   3.944
 2002TIP3   OH2 5962   1.723   7.511   5.559
 2002TIP3    H1 5963   1.748   7.426   5.523
 2002TIP3    H2 5964   1.640   7.496   5.604
 2003TIP3   OH2 5965   0.813   6.540   1.916
 2003TIP3    H1 5966   0.811   6.516   1.824
 2003TIP3    H2 5967   0.830   6.635   1.915
 2004TIP3   OH2 5968   8.149   2.809   2.206
 2004TIP3    H1 5969   8.179   2.803   2.116
 2004TIP3    H2 5970   8.165   2.722   2.243
 2005TIP3   OH2 5971   2.298   4.644   5.381
 2005TIP3    H1 5972   2.323   4.600   5.462
 2005TIP3    H2 5973   2.219   4.598   5.353
 2006TIP3   OH2 5974   2.689   7.482   1.064
 2006TIP3    H1 5975   2.775   7.456   1.097
 2006TIP3    H2 5976   2.654   7.540   1.132
 2007TIP3   OH2 5977   0.393   6.965   1.543
 2007TIP3    H1 5978   0.376   7.059   1.543
 2007TIP3    H2 5979   0.440   6.950   1.461
 2008TIP3   OH2 5980   6.325   1.360   0.208
 2008TIP3    H1 5981   6.326   1.407   0.292
 2008TIP3    H2 5982   6.361   1.274   0.228
 2009TIP3   OH2 5983   4.809   7.088   6.157
 2009TIP3    H1 5984   4.811   7.059   6.248
 2009TIP3    H2 5985   4.892   7.057   6.120
 2010TIP3   OH2 5986   6.452   1.308   4.978
 2010TIP3    H1 5987   6.407   1.275   4.900
 2010TIP3    H2 5988   6.545   1.302   4.957
 2011TIP3   OH2 5989   0.931   7.033   3.200
 2011TIP3    H1 5990   0.907   6.943   3.223
 2011TIP3    H2 5991   0.851   7.083   3.218
 2012TIP3   OH2 5992  -0.025   2.733   0.958
 2012TIP3    H1 5993  -0.077   2.771   1.029
 2012TIP3    H2 5994  -0.013   2.805   0.896
 2013TIP3   OH2 5995   5.064   7.658   1.482
 2013TIP3    H1 5996   4.997   7.624   1.542
 2013TIP3    H2 5997   5.095   7.580   1.435
 2014TIP3   OH2 5998   6.999   0.130   3.211
 2014TIP3    H1 5999   7.054   0.180   3.149
 2014TIP3    H2 6000   6.947   0.197   3.255
 2015TIP3   OH2 6001   2.485   4.485   6.683
 2015TIP3    H1 6002   2.478   4.559   6.744
 2015TIP3    H2 6003   2.432   4.416   6.723
 2016TIP3   OH2 6004   7.791   5.378   6.226
 2016TIP3    H1 6005   7.756   5.307   6.174
 2016TIP3    H2 6006   7.850   5.336   6.289
 2017TIP3   OH2 6007   6.015   2.356   4.795
 2017TIP3    H1 6008   6.049   2.305   4.722
 2017TIP3    H2 6009   6.092   2.396   4.834
 2018TIP3   OH2 6010   6.197   5.041   2.054
 2018TIP3    H1 6011   6.222   5.099   2.127
 2018TIP3    H2 6012   6.215   4.953   2.086
 2019TIP3   OH2 6013   3.057   3.476   3.004
 2019TIP3    H1 6014   3.106   3.494   2.924
 2019TIP3    H2 6015   3.120   3.432   3.061
 2020TIP3   OH2 6016   5.883   3.770   3.340
 2020TIP3    H1 6017   5.936   3.733   3.269
 2020TIP3    H2 6018   5.883   3.864   3.324
 2021TIP3   OH2 6019   0.575   6.704   2.546
 2021TIP3    H1 6020   0.564   6.712   2.451
 2021TIP3    H2 6021   0.492   6.665   2.575
 2022TIP3   OH2 6022   1.866   7.647   4.503
 2022TIP3    H1 6023   1.798   7.692   4.453
 2022TIP3    H2 6024   1.845   7.554   4.494
 2023TIP3   OH2 6025   6.476   7.757   5.869
 2023TIP3    H1 6026   6.546   7.801   5.820
 2023TIP3    H2 6027   6.486   7.665   5.846
 2024TIP3   OH2 6028   6.563   6.840   0.649
 2024TIP3    H1 6029   6.515   6.790   0.582
 2024TIP3    H2 6030   6.544   6.795   0.731
 2025TIP3   OH2 6031   3.776   6.933   6.642
 2025TIP3    H1 6032   3.820   6.974   6.717
 2025TIP3    H2 6033   3.762   7.004   6.580
 2026TIP3   OH2 6034   0.535   7.215   0.033
 2026TIP3    H1 6035   0.565   7.188   0.120
 2026TIP3    H2 6036   0.591   7.290   0.010
 2027TIP3   OH2 6037   6.641   4.132   2.187
 2027TIP3    H1 6038   6.710   4.198   2.196
 2027TIP3    H2 6039   6.608   4.120   2.275
 2028TIP3   OH2 6040   2.496   4.154   2.360
 2028TIP3    H1 6041   2.553   4.127   2.287
 2028TIP3    H2 6042   2.530   4.107   2.436
 2029TIP3   OH2 6043   5.246   7.334   5.509
 2029TIP3    H1 6044   5.262   7.402   5.443
 2029TIP3    H2 6045   5.161   7.298   5.485
 2030TIP3   OH2 6046   2.709   4.936   1.585
 2030TIP3    H1 6047   2.619   4.906   1.571
 2030TIP3    H2 6048   2.717   4.944   1.680
 2031TIP3   OH2 6049   7.433   5.088   3.102
 2031TIP3    H1 6050   7.408   4.996   3.115
 2031TIP3    H2 6051   7.528   5.084   3.087
 2032TIP3   OH2 6052   6.247   0.759   2.299
 2032TIP3    H1 6053   6.192   0.744   2.375
 2032TIP3    H2 6054   6.296   0.838   2.320
 2033TIP3   OH2 6055   2.748   6.646   5.961
 2033TIP3    H1 6056   2.807   6.721   5.966
 2033TIP3    H2 6057   2.751   6.607   6.049
 2034TIP3   OH2 6058   4.780   0.477   1.981
 2034TIP3    H1 6059   4.819   0.474   1.894
 2034TIP3    H2 6060   4.830   0.414   2.033
 2035TIP3   OH2 6061   5.588   7.234   6.388
 2035TIP3    H1 6062   5.536   7.157   6.411
 2035TIP3    H2 6063   5.557   7.303   6.445
 2036TIP3   OH2 6064   2.023   5.220   2.393
 2036TIP3    H1 6065   2.045   5.186   2.307
 2036TIP3    H2 6066   2.039   5.147   2.453
 2037TIP3   OH2 6067   5.814   4.786   5.371
 2037TIP3    H1 6068   5.798   4.696   5.399
 2037TIP3    H2 6069   5.727   4.825   5.363
 2038TIP3   OH2 6070   5.168   6.790   2.281
 2038TIP3    H1 6071   5.116   6.826   2.209
 2038TIP3    H2 6072   5.212   6.714   2.244
 2039TIP3   OH2 6073   3.524   6.846   6.219
 2039TIP3    H1 6074   3.508   6.920   6.278
 2039TIP3    H2 6075   3.443   6.839   6.167
 2040TIP3   OH2 6076   4.278   3.899   4.675
 2040TIP3    H1 6077   4.369   3.894   4.646
 2040TIP3    H2 6078   4.278   3.967   4.743
 2041TIP3   OH2 6079   3.058   1.063   0.522
 2041TIP3    H1 6080   2.984   1.118   0.497
 2041TIP3    H2 6081   3.040   0.979   0.479
 2042TIP3   OH2 6082   5.163   1.830   3.073
 2042TIP3    H1 6083   5.220   1.808   3.146
 2042TIP3    H2 6084   5.076   1.800   3.101
 2043TIP3   OH2 6085   5.806   3.913   6.291
 2043TIP3    H1 6086   5.818   3.943   6.201
 2043TIP3    H2 6087   5.828   3.820   6.289
 2044TIP3   OH2 6088   3.762   0.883   6.447
 2044TIP3    H1 6089   3.772   0.968   6.490
 2044TIP3    H2 6090   3.807   0.893   6.363
 2045TIP3   OH2 6091   5.170   2.873   3.717
 2045TIP3    H1 6092   5.102   2.805   3.717
 2045TIP3    H2 6093   5.186   2.892   3.809
 2046TIP3   OH2 6094   7.359   3.279   5.484
 2046TIP3    H1 6095   7.447   3.293   5.451
 2046TIP3    H2 6096   7.318   3.221   5.420
 2047TIP3   OH2 6097   1.693   2.898   0.505
 2047TIP3    H1 6098   1.614   2.861   0.545
 2047TIP3    H2 6099   1.730   2.953   0.574
 2048TIP3   OH2 6100   6.844   6.739   3.830
 2048TIP3    H1 6101   6.889   6.823   3.830
 2048TIP3    H2 6102   6.912   6.675   3.853
 2049TIP3   OH2 6103   0.300   7.269   1.844
 2049TIP3    H1 6104   0.311   7.273   1.749
 2049TIP3    H2 6105   0.275   7.358   1.869
 2050TIP3   OH2 6106   4.768   1.437   0.443
 2050TIP3    H1 6107   4.857   1.406   0.425
 2050TIP3    H2 6108   4.724   1.435   0.358
 2051TIP3   OH2 6109   0.063   2.660   0.635
 2051TIP3    H1 6110   0.120   2.585   0.620
 2051TIP3    H2 6111  -0.025   2.629   0.612
 2052TIP3   OH2 6112   7.964   0.696   4.047
 2052TIP3    H1 6113   7.907   0.703   4.124
 2052TIP3    H2 6114   8.045   0.657   4.080
 2053TIP3   OH2 6115   6.603   3.264   3.669
 2053TIP3    H1 6116   6.541   3.303   3.732
 2053TIP3    H2 6117   6.600   3.170   3.688
 2054TIP3   OH2 6118   7.505   0.268   3.734
 2054TIP3    H1 6119   7.472   0.311   3.813
 2054TIP3    H2 6120   7.438   0.203   3.713
 2055TIP3   OH2 6121   0.291   3.897   6.298
 2055TIP3    H1 6122   0.260   3.889   6.388
 2055TIP3    H2 6123   0.216   3.931   6.250
 2056TIP3   OH2 6124   6.489   1.625   3.828
 2056TIP3    H1 6125   6.432   1.693   3.793
 2056TIP3    H2 6126   6.472   1.549   3.772
 2057TIP3   OH2 6127   6.781   1.450   3.279
 2057TIP3    H1 6128   6.845   1.380   3.262
 2057TIP3    H2 6129   6.814   1.525   3.229
 2058TIP3   OH2 6130   0.151   0.480   5.572
 2058TIP3    H1 6131   0.187   0.534   5.642
 2058TIP3    H2 6132   0.225   0.427   5.542
 2059TIP3   OH2 6133   3.098   3.959   1.539
 2059TIP3    H1 6134   3.141   4.028   1.589
 2059TIP3    H2 6135   3.153   3.948   1.461
 2060TIP3   OH2 6136   3.738   0.191   0.542
 2060TIP3    H1 6137   3.781   0.262   0.493
 2060TIP3    H2 6138   3.761   0.209   0.634
 2061TIP3   OH2 6139   7.592   2.039   1.848
 2061TIP3    H1 6140   7.683   2.011   1.848
 2061TIP3    H2 6141   7.563   2.028   1.757
 2062TIP3   OH2 6142   0.713   2.128   5.264
 2062TIP3    H1 6143   0.773   2.066   5.306
 2062TIP3    H2 6144   0.758   2.212   5.269
 2063TIP3   OH2 6145   8.130   2.141   0.600
 2063TIP3    H1 6146   8.164   2.171   0.516
 2063TIP3    H2 6147   8.203   2.091   0.638
 2064TIP3   OH2 6148   0.205   5.099   5.923
 2064TIP3    H1 6149   0.200   5.023   5.865
 2064TIP3    H2 6150   0.122   5.145   5.910
 2065TIP3   OH2 6151   6.498   0.021   3.625
 2065TIP3    H1 6152   6.530   0.101   3.582
 2065TIP3    H2 6153   6.538  -0.050   3.576
 2066TIP3   OH2 6154   1.920   0.137   5.951
 2066TIP3    H1 6155   1.938   0.043   5.959
 2066TIP3    H2 6156   1.970   0.177   6.022
 2067TIP3   OH2 6157   1.020   4.829   4.467
 2067TIP3    H1 6158   0.943   4.811   4.414
 2067TIP3    H2 6159   0.987   4.878   4.542
 2068TIP3   OH2 6160   3.327   5.988   0.645
 2068TIP3    H1 6161   3.308   6.041   0.568
 2068TIP3    H2 6162   3.269   6.023   0.713
 2069TIP3   OH2 6163   3.974   3.466   5.261
 2069TIP3    H1 6164   4.040   3.531   5.286
 2069TIP3    H2 6165   3.937   3.500   5.180
 2070TIP3   OH2 6166   7.081   0.150   5.040
 2070TIP3    H1 6167   7.070   0.057   5.061
 2070TIP3    H2 6168   7.172   0.169   5.065
 2071TIP3   OH2 6169   0.888   5.037   1.437
 2071TIP3    H1 6170   0.902   4.944   1.453
 2071TIP3    H2 6171   0.877   5.044   1.342
 2072TIP3   OH2 6172   3.180   5.531   6.204
 2072TIP3    H1 6173   3.117   5.519   6.275
 2072TIP3    H2 6174   3.243   5.595   6.238
 2073TIP3   OH2 6175   8.306   1.379   0.947
 2073TIP3    H1 6176   8.284   1.472   0.945
 2073TIP3    H2 6177   8.259   1.345   1.023
 2074TIP3   OH2 6178   1.320   3.952   1.171
 2074TIP3    H1 6179   1.266   4.022   1.133
 2074TIP3    H2 6180   1.300   3.875   1.118
 2075TIP3   OH2 6181   5.341   7.492   1.182
 2075TIP3    H1 6182   5.387   7.409   1.190
 2075TIP3    H2 6183   5.324   7.519   1.273
 2076TIP3   OH2 6184   4.650   7.472   1.820
 2076TIP3    H1 6185   4.584   7.466   1.890
 2076TIP3    H2 6186   4.668   7.566   1.813
 2077TIP3   OH2 6187   7.035   1.296   2.668
 2077TIP3    H1 6188   6.997   1.221   2.622
 2077TIP3    H2 6189   7.130   1.286   2.657
 2078TIP3   OH2 6190   8.302   5.273   2.290
 2078TIP3    H1 6191   8.294   5.346   2.352
 2078TIP3    H2 6192   8.212   5.255   2.262
 2079TIP3   OH2 6193   1.584   1.259   1.109
 2079TIP3    H1 6194   1.506   1.233   1.059
 2079TIP3    H2 6195   1.550   1.312   1.181
 2080TIP3   OH2 6196   8.121   7.434   3.571
 2080TIP3    H1 6197   8.130   7.340   3.585
 2080TIP3    H2 6198   8.205   7.470   3.601
 2081TIP3   OH2 6199   7.515   1.624   1.928
 2081TIP3    H1 6200   7.465   1.695   1.969
 2081TIP3    H2 6201   7.603   1.632   1.966
 2082TIP3   OH2 6202   7.829   2.107   4.473
 2082TIP3    H1 6203   7.831   2.131   4.566
 2082TIP3    H2 6204   7.917   2.126   4.441
 2083TIP3   OH2 6205   4.629   1.200   3.826
 2083TIP3    H1 6206   4.610   1.290   3.801
 2083TIP3    H2 6207   4.660   1.206   3.916
 2084TIP3   OH2 6208   3.678   2.467   3.135
 2084TIP3    H1 6209   3.599   2.419   3.161
 2084TIP3    H2 6210   3.692   2.531   3.205
 2085TIP3   OH2 6211   7.068   1.919   6.657
 2085TIP3    H1 6212   7.069   1.983   6.728
 2085TIP3    H2 6213   7.060   1.834   6.700
 2086TIP3   OH2 6214   3.872   4.492   1.575
 2086TIP3    H1 6215   3.954   4.507   1.623
 2086TIP3    H2 6216   3.814   4.562   1.605
 2087TIP3   OH2 6217   4.419   7.824   2.551
 2087TIP3    H1 6218   4.455   7.749   2.599
 2087TIP3    H2 6219   4.393   7.788   2.466
 2088TIP3   OH2 6220   6.483   2.950   0.421
 2088TIP3    H1 6221   6.470   2.934   0.514
 2088TIP3    H2 6222   6.578   2.957   0.411
 2089TIP3   OH2 6223   2.748   6.742   0.626
 2089TIP3    H1 6224   2.712   6.820   0.668
 2089TIP3    H2 6225   2.774   6.771   0.539
 2090TIP3   OH2 6226   2.703   1.660   1.109
 2090TIP3    H1 6227   2.622   1.609   1.100
 2090TIP3    H2 6228   2.675   1.751   1.108
 2091TIP3   OH2 6229   1.888   0.190   1.960
 2091TIP3    H1 6230   1.903   0.115   1.902
 2091TIP3    H2 6231   1.804   0.172   2.002
 2092TIP3   OH2 6232   6.715   1.850   0.598
 2092TIP3    H1 6233   6.790   1.820   0.649
 2092TIP3    H2 6234   6.750   1.920   0.542
 2093TIP3   OH2 6235   6.912   6.130   6.659
 2093TIP3    H1 6236   6.931   6.084   6.577
 2093TIP3    H2 6237   6.909   6.222   6.634
 2094TIP3   OH2 6238   2.656   0.081   2.335
 2094TIP3    H1 6239   2.650   0.092   2.430
 2094TIP3    H2 6240   2.735   0.128   2.310
 2095TIP3   OH2 6241   4.567   1.886   4.509
 2095TIP3    H1 6242   4.606   1.830   4.577
 2095TIP3    H2 6243   4.589   1.975   4.536
 2096TIP3   OH2 6244   2.289   2.272   5.034
 2096TIP3    H1 6245   2.338   2.218   5.096
 2096TIP3    H2 6246   2.244   2.337   5.088
 2097TIP3   OH2 6247   0.985   4.166   2.362
 2097TIP3    H1 6248   1.025   4.085   2.395
 2097TIP3    H2 6249   0.929   4.137   2.290
 2098TIP3   OH2 6250   0.978   7.276   6.589
 2098TIP3    H1 6251   0.908   7.226   6.630
 2098TIP3    H2 6252   0.947   7.367   6.589
 2099TIP3   OH2 6253   3.441   5.934   2.096
 2099TIP3    H1 6254   3.375   5.876   2.134
 2099TIP3    H2 6255   3.451   6.004   2.159
 2100TIP3   OH2 6256   1.367   5.197   4.112
 2100TIP3    H1 6257   1.295   5.177   4.172
 2100TIP3    H2 6258   1.427   5.123   4.120
 2101TIP3   OH2 6259   3.429   4.508   5.073
 2101TIP3    H1 6260   3.377   4.542   5.145
 2101TIP3    H2 6261   3.372   4.445   5.029
 2102TIP3   OH2 6262   6.958   1.013   0.917
 2102TIP3    H1 6263   6.951   1.018   0.822
 2102TIP3    H2 6264   7.042   0.969   0.933
 2103TIP3   OH2 6265   2.135   1.917   2.246
 2103TIP3    H1 6266   2.056   1.970   2.256
 2103TIP3    H2 6267   2.108   1.829   2.270
 2104TIP3   OH2 6268   3.748   1.394   5.107
 2104TIP3    H1 6269   3.700   1.456   5.162
 2104TIP3    H2 6270   3.735   1.426   5.018
 2105TIP3   OH2 6271   7.339   5.189   0.887
 2105TIP3    H1 6272   7.257   5.170   0.932
 2105TIP3    H2 6273   7.401   5.127   0.922
 2106TIP3   OH2 6274   5.610   2.741   5.557
 2106TIP3    H1 6275   5.521   2.774   5.566
 2106TIP3    H2 6276   5.614   2.708   5.467
 2107TIP3   OH2 6277   4.798   5.037   6.409
 2107TIP3    H1 6278   4.763   4.948   6.420
 2107TIP3    H2 6279   4.891   5.025   6.394
 2108TIP3   OH2 6280   6.066   1.767   1.396
 2108TIP3    H1 6281   6.113   1.840   1.356
 2108TIP3    H2 6282   6.074   1.782   1.490
 2109TIP3   OH2 6283   7.051   6.513   5.334
 2109TIP3    H1 6284   7.054   6.423   5.303
 2109TIP3    H2 6285   7.103   6.512   5.415
 2110TIP3   OH2 6286   4.762   1.521   2.724
 2110TIP3    H1 6287   4.789   1.430   2.708
 2110TIP3    H2 6288   4.684   1.533   2.671
 2111TIP3   OH2 6289   1.207   5.579   1.470
 2111TIP3    H1 6290   1.150   5.547   1.540
 2111TIP3    H2 6291   1.218   5.672   1.488
 2112TIP3   OH2 6292   0.371   0.998   2.917
 2112TIP3    H1 6293   0.346   0.962   3.002
 2112TIP3    H2 6294   0.350   0.929   2.854
 2113TIP3   OH2 6295   8.227   4.951   4.823
 2113TIP3    H1 6296   8.189   5.010   4.888
 2113TIP3    H2 6297   8.317   4.936   4.853
 2114TIP3   OH2 6298   6.185   0.413   5.959
 2114TIP3    H1 6299   6.211   0.341   6.016
 2114TIP3    H2 6300   6.268   0.454   5.932
 2115TIP3   OH2 6301   7.128   2.110   5.427
 2115TIP3    H1 6302   7.123   2.177   5.359
 2115TIP3    H2 6303   7.104   2.029   5.382
 2116TIP3   OH2 6304   3.555   3.142   5.725
 2116TIP3    H1 6305   3.604   3.105   5.798
 2116TIP3    H2 6306   3.523   3.065   5.677
 2117TIP3   OH2 6307   5.889   3.735   5.187
 2117TIP3    H1 6308   5.929   3.686   5.258
 2117TIP3    H2 6309   5.956   3.797   5.160
 2118TIP3   OH2 6310   3.329   6.403   2.250
 2118TIP3    H1 6311   3.295   6.492   2.251
 2118TIP3    H2 6312   3.365   6.390   2.338
 2119TIP3   OH2 6313   5.896   7.571   6.039
 2119TIP3    H1 6314   5.897   7.572   6.134
 2119TIP3    H2 6315   5.899   7.478   6.016
 2120TIP3   OH2 6316   5.326   2.747   1.983
 2120TIP3    H1 6317   5.275   2.784   2.056
 2120TIP3    H2 6318   5.404   2.801   1.979
 2121TIP3   OH2 6319   1.723   5.981   2.784
 2121TIP3    H1 6320   1.751   5.894   2.756
 2121TIP3    H2 6321   1.663   6.010   2.715
 2122TIP3   OH2 6322   3.970   6.510   6.333
 2122TIP3    H1 6323   3.957   6.560   6.413
 2122TIP3    H2 6324   4.043   6.451   6.353
 2123TIP3   OH2 6325   1.276   0.159   2.594
 2123TIP3    H1 6326   1.277   0.176   2.500
 2123TIP3    H2 6327   1.226   0.232   2.632
 2124TIP3   OH2 6328   6.858   3.347   0.940
 2124TIP3    H1 6329   6.845   3.438   0.969
 2124TIP3    H2 6330   6.797   3.336   0.868
 2125TIP3   OH2 6331   0.216   6.788   1.668
 2125TIP3    H1 6332   0.144   6.789   1.604
 2125TIP3    H2 6333   0.289   6.829   1.621
 2126TIP3   OH2 6334   2.162   4.047   3.009
 2126TIP3    H1 6335   2.136   4.103   3.081
 2126TIP3    H2 6336   2.133   3.959   3.035
 2127TIP3   OH2 6337   6.237   1.309   0.869
 2127TIP3    H1 6338   6.310   1.355   0.910
 2127TIP3    H2 6339   6.208   1.247   0.935
 2128TIP3   OH2 6340   4.471   0.263   4.244
 2128TIP3    H1 6341   4.392   0.316   4.226
 2128TIP3    H2 6342   4.543   0.315   4.209
 2129TIP3   OH2 6343   0.248   1.058   1.625
 2129TIP3    H1 6344   0.259   0.979   1.572
 2129TIP3    H2 6345   0.295   1.038   1.706
 2130TIP3   OH2 6346   3.833   4.643   3.670
 2130TIP3    H1 6347   3.780   4.652   3.590
 2130TIP3    H2 6348   3.890   4.720   3.668
 2131TIP3   OH2 6349   5.822   2.455   2.132
 2131TIP3    H1 6350   5.750   2.414   2.084
 2131TIP3    H2 6351   5.885   2.478   2.064
 2132TIP3   OH2 6352   1.930   2.073   2.300
 2132TIP3    H1 6353   1.953   2.057   2.392
 2132TIP3    H2 6354   1.860   2.138   2.304
 2133TIP3   OH2 6355   7.376   1.049   6.035
 2133TIP3    H1 6356   7.379   0.999   6.117
 2133TIP3    H2 6357   7.464   1.087   6.027
 2134TIP3   OH2 6358   7.585   3.789   5.789
 2134TIP3    H1 6359   7.511   3.849   5.776
 2134TIP3    H2 6360   7.643   3.807   5.714
 2135TIP3   OH2 6361   6.054   1.276   0.267
 2135TIP3    H1 6362   6.075   1.203   0.326
 2135TIP3    H2 6363   6.008   1.235   0.194
 2136TIP3   OH2 6364   2.412   7.532   3.893
 2136TIP3    H1 6365   2.330   7.579   3.886
 2136TIP3    H2 6366   2.453   7.565   3.973
 2137TIP3   OH2 6367   0.172   4.794   0.178
 2137TIP3    H1 6368   0.113   4.743   0.234
 2137TIP3    H2 6369   0.113   4.851   0.128
 2138TIP3   OH2 6370   1.391   1.200   3.709
 2138TIP3    H1 6371   1.435   1.285   3.714
 2138TIP3    H2 6372   1.310   1.212   3.760
 2139TIP3   OH2 6373   2.562   6.399   3.009
 2139TIP3    H1 6374   2.627   6.340   2.971
 2139TIP3    H2 6375   2.479   6.369   2.974
 2140TIP3   OH2 6376   2.962   7.758   3.020
 2140TIP3    H1 6377   2.926   7.721   2.939
 2140TIP3    H2 6378   3.039   7.703   3.039
 2141TIP3   OH2 6379   2.611   3.063   4.859
 2141TIP3    H1 6380   2.590   3.062   4.953
 2141TIP3    H2 6381   2.700   3.029   4.854
 2142TIP3   OH2 6382   1.684   0.261   4.875
 2142TIP3    H1 6383   1.590   0.275   4.884
 2142TIP3    H2 6384   1.704   0.294   4.787
 2143TIP3   OH2 6385   1.039   3.895   2.119
 2143TIP3    H1 6386   0.964   3.926   2.068
 2143TIP3    H2 6387   1.003   3.880   2.206
 2144TIP3   OH2 6388   7.853   4.094   0.973
 2144TIP3    H1 6389   7.860   4.000   0.957
 2144TIP3    H2 6390   7.758   4.109   0.979
 2145TIP3   OH2 6391   4.910   2.100   2.523
 2145TIP3    H1 6392   4.958   2.039   2.466
 2145TIP3    H2 6393   4.918   2.184   2.478
 2146TIP3   OH2 6394   0.634   5.953   4.204
 2146TIP3    H1 6395   0.602   5.875   4.158
 2146TIP3    H2 6396   0.723   5.930   4.231
 2147TIP3   OH2 6397   4.409   1.443   2.093
 2147TIP3    H1 6398   4.428   1.484   2.177
 2147TIP3    H2 6399   4.480   1.380   2.080
 2148TIP3   OH2 6400   5.842   1.457   2.592
 2148TIP3    H1 6401   5.851   1.400   2.668
 2148TIP3    H2 6402   5.929   1.458   2.552
 2149TIP3   OH2 6403   5.620   2.592   3.266
 2149TIP3    H1 6404   5.541   2.556   3.225
 2149TIP3    H2 6405   5.679   2.517   3.274
 2150TIP3   OH2 6406   1.905   1.076   0.311
 2150TIP3    H1 6407   1.878   1.113   0.396
 2150TIP3    H2 6408   1.922   1.153   0.256
 2151TIP3   OH2 6409   3.845   5.311   0.623
 2151TIP3    H1 6410   3.874   5.340   0.537
 2151TIP3    H2 6411   3.839   5.215   0.616
 2152TIP3   OH2 6412   5.125   0.688   6.225
 2152TIP3    H1 6413   5.102   0.743   6.301
 2152TIP3    H2 6414   5.083   0.604   6.243
 2153TIP3   OH2 6415   1.095   7.724   2.433
 2153TIP3    H1 6416   1.116   7.633   2.453
 2153TIP3    H2 6417   1.134   7.739   2.347
 2154TIP3   OH2 6418   5.981   2.681   3.331
 2154TIP3    H1 6419   5.954   2.678   3.423
 2154TIP3    H2 6420   5.974   2.773   3.307
 2155TIP3   OH2 6421   3.360   0.244   2.592
 2155TIP3    H1 6422   3.300   0.189   2.642
 2155TIP3    H2 6423   3.410   0.291   2.659
 2156TIP3   OH2 6424   2.127   3.400   3.731
 2156TIP3    H1 6425   2.061   3.466   3.750
 2156TIP3    H2 6426   2.211   3.442   3.751
 2157TIP3   OH2 6427   6.327   4.559   4.623
 2157TIP3    H1 6428   6.262   4.522   4.683
 2157TIP3    H2 6429   6.411   4.542   4.665
 2158TIP3   OH2 6430   0.451   7.791   2.396
 2158TIP3    H1 6431   0.492   7.772   2.480
 2158TIP3    H2 6432   0.364   7.753   2.402
 2159TIP3   OH2 6433   3.318   0.915   3.981
 2159TIP3    H1 6434   3.332   0.886   3.891
 2159TIP3    H2 6435   3.292   0.836   4.028
 2160TIP3   OH2 6436   5.466   5.510   0.459
 2160TIP3    H1 6437   5.472   5.599   0.424
 2160TIP3    H2 6438   5.373   5.497   0.475
 2161TIP3   OH2 6439   8.063   1.318   6.357
 2161TIP3    H1 6440   8.016   1.269   6.289
 2161TIP3    H2 6441   8.019   1.292   6.439
 2162TIP3   OH2 6442   1.090   6.344   5.746
 2162TIP3    H1 6443   1.028   6.283   5.707
 2162TIP3    H2 6444   1.165   6.343   5.687
 2163TIP3   OH2 6445   8.240   1.177   5.321
 2163TIP3    H1 6446   8.329   1.163   5.353
 2163TIP3    H2 6447   8.209   1.254   5.368
 2164TIP3   OH2 6448   7.073   1.832   1.583
 2164TIP3    H1 6449   7.094   1.880   1.663
 2164TIP3    H2 6450   7.151   1.781   1.564
 2165TIP3   OH2 6451   2.932   1.877   1.966
 2165TIP3    H1 6452   2.845   1.914   1.955
 2165TIP3    H2 6453   2.946   1.874   2.060
 2166TIP3   OH2 6454   2.389   0.551   0.265
 2166TIP3    H1 6455   2.390   0.498   0.185
 2166TIP3    H2 6456   2.311   0.523   0.312
 2167TIP3   OH2 6457   2.685   1.359   0.836
 2167TIP3    H1 6458   2.663   1.285   0.779
 2167TIP3    H2 6459   2.667   1.328   0.925
 2168TIP3   OH2 6460   6.128   7.819   6.346
 2168TIP3    H1 6461   6.113   7.743   6.290
 2168TIP3    H2 6462   6.209   7.798   6.393
 2169TIP3   OH2 6463   3.626   0.976   3.603
 2169TIP3    H1 6464   3.705   1.029   3.593
 2169TIP3    H2 6465   3.563   1.034   3.645
 2170TIP3   OH2 6466   3.245   7.659   5.421
 2170TIP3    H1 6467   3.216   7.592   5.358
 2170TIP3    H2 6468   3.220   7.742   5.380
 2171TIP3   OH2 6469   3.002   0.149   0.721
 2171TIP3    H1 6470   2.976   0.241   0.723
 2171TIP3    H2 6471   2.923   0.103   0.692
 2172TIP3   OH2 6472   6.366   2.621   0.899
 2172TIP3    H1 6473   6.372   2.586   0.987
 2172TIP3    H2 6474   6.456   2.640   0.873
 2173TIP3   OH2 6475   5.095   1.797   6.115
 2173TIP3    H1 6476   5.049   1.841   6.186
 2173TIP3    H2 6477   5.100   1.705   6.143
 2174TIP3   OH2 6478   6.920   0.809   5.484
 2174TIP3    H1 6479   6.853   0.827   5.418
 2174TIP3    H2 6480   6.993   0.772   5.435
 2175TIP3   OH2 6481   5.095   6.793   1.733
 2175TIP3    H1 6482   5.073   6.770   1.643
 2175TIP3    H2 6483   5.133   6.880   1.726
 2176TIP3   OH2 6484   4.368   5.829   6.321
 2176TIP3    H1 6485   4.413   5.914   6.319
 2176TIP3    H2 6486   4.275   5.851   6.325
 2177TIP3   OH2 6487   3.736   5.313   1.073
 2177TIP3    H1 6488   3.666   5.275   1.019
 2177TIP3    H2 6489   3.798   5.348   1.009
 2178TIP3   OH2 6490   1.700   3.349   6.145
 2178TIP3    H1 6491   1.620   3.370   6.194
 2178TIP3    H2 6492   1.771   3.358   6.209
 2179TIP3   OH2 6493   2.324   6.761   1.749
 2179TIP3    H1 6494   2.257   6.699   1.721
 2179TIP3    H2 6495   2.406   6.712   1.747
 2180TIP3   OH2 6496   2.268   0.302   5.141
 2180TIP3    H1 6497   2.250   0.211   5.161
 2180TIP3    H2 6498   2.316   0.334   5.217
 2181TIP3   OH2 6499   2.339   4.544   5.648
 2181TIP3    H1 6500   2.255   4.563   5.689
 2181TIP3    H2 6501   2.369   4.464   5.692
 2182TIP3   OH2 6502   8.133   3.130   0.380
 2182TIP3    H1 6503   8.170   3.138   0.292
 2182TIP3    H2 6504   8.038   3.125   0.366
 2183TIP3   OH2 6505   8.278   1.082   6.524
 2183TIP3    H1 6506   8.192   1.053   6.494
 2183TIP3    H2 6507   8.297   1.160   6.473
 2184TIP3   OH2 6508   1.403   0.628   4.543
 2184TIP3    H1 6509   1.438   0.605   4.457
 2184TIP3    H2 6510   1.425   0.720   4.554
 2185TIP3   OH2 6511   0.663   6.095   0.724
 2185TIP3    H1 6512   0.580   6.140   0.742
 2185TIP3    H2 6513   0.712   6.100   0.806
 2186TIP3   OH2 6514   6.336   7.691   3.396
 2186TIP3    H1 6515   6.333   7.667   3.303
 2186TIP3    H2 6516   6.336   7.786   3.396
 2187TIP3   OH2 6517   3.259   7.602   6.029
 2187TIP3    H1 6518   3.163   7.613   6.030
 2187TIP3    H2 6519   3.288   7.657   5.957
 2188TIP3   OH2 6520   5.758   0.665   2.846
 2188TIP3    H1 6521   5.828   0.684   2.908
 2188TIP3    H2 6522   5.683   0.715   2.878
 2189TIP3   OH2 6523   3.002   6.706   0.893
 2189TIP3    H1 6524   2.974   6.732   0.806
 2189TIP3    H2 6525   2.922   6.674   0.935
 2190TIP3   OH2 6526   6.544   0.417   1.089
 2190TIP3    H1 6527   6.563   0.511   1.085
 2190TIP3    H2 6528   6.514   0.402   1.178
 2191TIP3   OH2 6529   0.525   0.659   6.761
 2191TIP3    H1 6530   0.484   0.582   6.722
 2191TIP3    H2 6531   0.452   0.712   6.792
 2192TIP3   OH2 6532   5.825   7.781   5.630
 2192TIP3    H1 6533   5.842   7.787   5.724
 2192TIP3    H2 6534   5.901   7.823   5.590
 2193TIP3   OH2 6535   1.894   4.743   5.008
 2193TIP3    H1 6536   1.871   4.704   5.092
 2193TIP3    H2 6537   1.839   4.698   4.944
 2194TIP3   OH2 6538   3.198   4.396   0.360
 2194TIP3    H1 6539   3.250   4.370   0.437
 2194TIP3    H2 6540   3.259   4.389   0.287
 2195TIP3   OH2 6541   6.312   2.107   4.882
 2195TIP3    H1 6542   6.391   2.071   4.922
 2195TIP3    H2 6543   6.250   2.114   4.955
 2196TIP3   OH2 6544   4.802   0.927   1.893
 2196TIP3    H1 6545   4.794   0.843   1.938
 2196TIP3    H2 6546   4.814   0.904   1.801
 2197TIP3   OH2 6547   6.419   0.983   1.336
 2197TIP3    H1 6548   6.494   1.034   1.305
 2197TIP3    H2 6549   6.438   0.968   1.429
 2198TIP3   OH2 6550   5.650   6.394   6.648
 2198TIP3    H1 6551   5.642   6.300   6.634
 2198TIP3    H2 6552   5.744   6.412   6.643
 2199TIP3   OH2 6553   2.298   2.886   0.037
 2199TIP3    H1 6554   2.235   2.833   0.085
 2199TIP3    H2 6555   2.269   2.976   0.051
 2200TIP3   OH2 6556   0.692   3.115   5.025
 2200TIP3    H1 6557   0.667   3.195   4.980
 2200TIP3    H2 6558   0.714   3.053   4.955
 2201TIP3   OH2 6559   5.229   5.515   0.593
 2201TIP3    H1 6560   5.227   5.475   0.680
 2201TIP3    H2 6561   5.137   5.534   0.573
 2202TIP3   OH2 6562   0.535   2.677   2.612
 2202TIP3    H1 6563   0.555   2.738   2.541
 2202TIP3    H2 6564   0.477   2.726   2.670
 2203TIP3   OH2 6565   7.772   4.020   1.373
 2203TIP3    H1 6566   7.785   4.113   1.388
 2203TIP3    H2 6567   7.697   4.015   1.314
 2204TIP3   OH2 6568   2.441   3.901   0.200
 2204TIP3    H1 6569   2.365   3.930   0.249
 2204TIP3    H2 6570   2.446   3.960   0.125
 2205TIP3   OH2 6571   4.695   0.924   4.184
 2205TIP3    H1 6572   4.692   0.974   4.266
 2205TIP3    H2 6573   4.788   0.917   4.164
 2206TIP3   OH2 6574   2.262   1.071   2.704
 2206TIP3    H1 6575   2.181   1.120   2.693
 2206TIP3    H2 6576   2.264   1.013   2.627
 2207TIP3   OH2 6577   2.604   0.532   2.575
 2207TIP3    H1 6578   2.590   0.527   2.481
 2207TIP3    H2 6579   2.541   0.470   2.612
 2208TIP3   OH2 6580   3.318   3.787   3.606
 2208TIP3    H1 6581   3.228   3.781   3.573
 2208TIP3    H2 6582   3.347   3.874   3.578
 2209TIP3   OH2 6583   7.455   4.573   0.594
 2209TIP3    H1 6584   7.369   4.536   0.574
 2209TIP3    H2 6585   7.511   4.543   0.522
 2210TIP3   OH2 6586   8.246   2.138   5.106
 2210TIP3    H1 6587   8.269   2.046   5.115
 2210TIP3    H2 6588   8.150   2.138   5.099
 2211TIP3   OH2 6589   4.716   3.329   6.152
 2211TIP3    H1 6590   4.639   3.319   6.208
 2211TIP3    H2 6591   4.724   3.245   6.106
 2212TIP3   OH2 6592   6.251   0.259   4.118
 2212TIP3    H1 6593   6.327   0.241   4.062
 2212TIP3    H2 6594   6.287   0.267   4.206
 2213TIP3   OH2 6595   3.467   4.259   5.919
 2213TIP3    H1 6596   3.396   4.205   5.885
 2213TIP3    H2 6597   3.516   4.284   5.841
 2214TIP3   OH2 6598   4.377   1.841   6.623
 2214TIP3    H1 6599   4.309   1.774   6.621
 2214TIP3    H2 6600   4.383   1.866   6.716
 2215TIP3   OH2 6601   7.207   1.683   5.151
 2215TIP3    H1 6602   7.129   1.727   5.187
 2215TIP3    H2 6603   7.199   1.694   5.057
 2216TIP3   OH2 6604   3.400   7.387   4.726
 2216TIP3    H1 6605   3.312   7.390   4.687
 2216TIP3    H2 6606   3.406   7.468   4.776
 2217TIP3   OH2 6607   4.343   4.192   3.486
 2217TIP3    H1 6608   4.316   4.192   3.578
 2217TIP3    H2 6609   4.352   4.285   3.464
 2218TIP3   OH2 6610   1.316   5.916   5.263
 2218TIP3    H1 6611   1.329   6.001   5.220
 2218TIP3    H2 6612   1.226   5.892   5.241
 2219TIP3   OH2 6613   7.154   2.599   3.360
 2219TIP3    H1 6614   7.095   2.554   3.421
 2219TIP3    H2 6615   7.209   2.654   3.415
 2220TIP3   OH2 6616   4.105   6.972   5.152
 2220TIP3    H1 6617   4.101   7.059   5.111
 2220TIP3    H2 6618   4.198   6.962   5.176
 2221TIP3   OH2 6619   2.552   1.937   0.486
 2221TIP3    H1 6620   2.551   1.992   0.565
 2221TIP3    H2 6621   2.633   1.960   0.441
 2222TIP3   OH2 6622   4.423   4.341   4.754
 2222TIP3    H1 6623   4.332   4.360   4.731
 2222TIP3    H2 6624   4.463   4.316   4.671
 2223TIP3   OH2 6625   6.120   2.182   1.795
 2223TIP3    H1 6626   6.175   2.257   1.773
 2223TIP3    H2 6627   6.060   2.174   1.721
 2224TIP3   OH2 6628   1.545   4.788   2.099
 2224TIP3    H1 6629   1.613   4.845   2.135
 2224TIP3    H2 6630   1.540   4.811   2.007
 2225TIP3   OH2 6631   2.317   1.443   1.332
 2225TIP3    H1 6632   2.363   1.495   1.266
 2225TIP3    H2 6633   2.381   1.430   1.402
 2226TIP3   OH2 6634   3.264   1.782   3.967
 2226TIP3    H1 6635   3.188   1.837   3.949
 2226TIP3    H2 6636   3.247   1.744   4.053
 2227TIP3   OH2 6637   5.689   1.244   3.809
 2227TIP3    H1 6638   5.689   1.168   3.868
 2227TIP3    H2 6639   5.776   1.241   3.768
 2228TIP3   OH2 6640   7.018   7.508   2.424
 2228TIP3    H1 6641   6.958   7.569   2.381
 2228TIP3    H2 6642   6.961   7.438   2.457
 2229TIP3   OH2 6643   4.315   2.671   5.884
 2229TIP3    H1 6644   4.345   2.593   5.929
 2229TIP3    H2 6645   4.243   2.704   5.938
 2230TIP3   OH2 6646   5.809   5.482   6.747
 2230TIP3    H1 6647   5.728   5.513   6.787
 2230TIP3    H2 6648   5.878   5.530   6.792
 2231TIP3   OH2 6649   0.755   1.534   4.792
 2231TIP3    H1 6650   0.754   1.612   4.847
 2231TIP3    H2 6651   0.831   1.485   4.822
 2232TIP3   OH2 6652   3.560   1.601   6.139
 2232TIP3    H1 6653   3.590   1.511   6.151
 2232TIP3    H2 6654   3.604   1.631   6.060
 2233TIP3   OH2 6655   6.692   2.017   4.382
 2233TIP3    H1 6656   6.723   1.931   4.351
 2233TIP3    H2 6657   6.610   2.031   4.337
 2234TIP3   OH2 6658   2.392   0.341   1.560
 2234TIP3    H1 6659   2.378   0.347   1.655
 2234TIP3    H2 6660   2.329   0.275   1.531
 2235TIP3   OH2 6661   6.800   6.005   5.439
 2235TIP3    H1 6662   6.829   5.998   5.530
 2235TIP3    H2 6663   6.798   5.914   5.408
 2236TIP3   OH2 6664   7.922   5.101   0.333
 2236TIP3    H1 6665   7.973   5.115   0.253
 2236TIP3    H2 6666   7.862   5.175   0.336
 2237TIP3   OH2 6667   6.928   4.006   4.890
 2237TIP3    H1 6668   6.890   3.935   4.838
 2237TIP3    H2 6669   6.912   4.085   4.837
 2238TIP3   OH2 6670   0.600   6.729   6.284
 2238TIP3    H1 6671   0.559   6.644   6.301
 2238TIP3    H2 6672   0.637   6.754   6.368
 2239TIP3   OH2 6673   2.430   7.617   0.612
 2239TIP3    H1 6674   2.469   7.537   0.648
 2239TIP3    H2 6675   2.346   7.625   0.656
 2240TIP3   OH2 6676   2.662   4.405   5.964
 2240TIP3    H1 6677   2.690   4.479   6.017
 2240TIP3    H2 6678   2.620   4.346   6.026
 2241TIP3   OH2 6679   5.869   6.334   5.419
 2241TIP3    H1 6680   5.811   6.398   5.460
 2241TIP3    H2 6681   5.956   6.356   5.452
 2242TIP3   OH2 6682   4.351   1.971   5.675
 2242TIP3    H1 6683   4.373   2.043   5.615
 2242TIP3    H2 6684   4.297   2.013   5.743
 2243TIP3   OH2 6685   5.420   4.083   2.053
 2243TIP3    H1 6686   5.350   4.145   2.032
 2243TIP3    H2 6687   5.407   4.011   1.991
 2244TIP3   OH2 6688   0.876   1.487   2.731
 2244TIP3    H1 6689   0.799   1.539   2.755
 2244TIP3    H2 6690   0.903   1.446   2.813
 2245TIP3   OH2 6691   0.094   7.005   1.128
 2245TIP3    H1 6692   0.064   7.081   1.078
 2245TIP3    H2 6693   0.135   6.948   1.062
 2246TIP3   OH2 6694   0.184   0.960   5.215
 2246TIP3    H1 6695   0.158   0.871   5.236
 2246TIP3    H2 6696   0.141   1.014   5.281
 2247TIP3   OH2 6697   7.067   4.907   6.531
 2247TIP3    H1 6698   7.138   4.886   6.470
 2247TIP3    H2 6699   6.990   4.916   6.475
 2248TIP3   OH2 6700   3.031   7.450   5.541
 2248TIP3    H1 6701   3.043   7.504   5.463
 2248TIP3    H2 6702   3.120   7.433   5.572
 2249TIP3   OH2 6703   3.285   1.868   2.667
 2249TIP3    H1 6704   3.204   1.919   2.658
 2249TIP3    H2 6705   3.258   1.788   2.711
 2250TIP3   OH2 6706   6.259   0.496   0.302
 2250TIP3    H1 6707   6.327   0.457   0.357
 2250TIP3    H2 6708   6.202   0.423   0.279
 2251TIP3   OH2 6709   0.784   3.807   3.311
 2251TIP3    H1 6710   0.749   3.878   3.365
 2251TIP3    H2 6711   0.808   3.739   3.374
 2252TIP3   OH2 6712   6.752   3.309   3.997
 2252TIP3    H1 6713   6.663   3.303   4.033
 2252TIP3    H2 6714   6.750   3.386   3.941
 2253TIP3   OH2 6715   0.910   3.421   0.475
 2253TIP3    H1 6716   0.835   3.367   0.450
 2253TIP3    H2 6717   0.872   3.499   0.516
 2254TIP3   OH2 6718   5.520   1.580   6.658
 2254TIP3    H1 6719   5.509   1.669   6.625
 2254TIP3    H2 6720   5.600   1.584   6.711
 2255TIP3   OH2 6721   2.573   2.554   3.204
 2255TIP3    H1 6722   2.623   2.616   3.258
 2255TIP3    H2 6723   2.602   2.468   3.234
 2256TIP3   OH2 6724   7.935   0.776   5.740
 2256TIP3    H1 6725   7.987   0.777   5.821
 2256TIP3    H2 6726   7.864   0.714   5.758
 2257TIP3   OH2 6727   2.650   0.201   2.608
 2257TIP3    H1 6728   2.573   0.244   2.570
 2257TIP3    H2 6729   2.619   0.167   2.692
 2258TIP3   OH2 6730   7.036   7.590   2.895
 2258TIP3    H1 6731   6.942   7.605   2.893
 2258TIP3    H2 6732   7.071   7.647   2.827
 2259TIP3   OH2 6733   7.888   6.857   2.764
 2259TIP3    H1 6734   7.865   6.949   2.777
 2259TIP3    H2 6735   7.965   6.859   2.708
 2260TIP3   OH2 6736   7.607   3.099   1.607
 2260TIP3    H1 6737   7.685   3.101   1.663
 2260TIP3    H2 6738   7.542   3.150   1.654
 2261TIP3   OH2 6739   0.595   2.202   6.503
 2261TIP3    H1 6740   0.633   2.215   6.589
 2261TIP3    H2 6741   0.597   2.108   6.489
 2262TIP3   OH2 6742   0.396   1.057   1.151
 2262TIP3    H1 6743   0.382   0.963   1.140
 2262TIP3    H2 6744   0.311   1.090   1.179
 2263TIP3   OH2 6745   5.959   4.327   2.281
 2263TIP3    H1 6746   5.873   4.359   2.308
 2263TIP3    H2 6747   5.985   4.265   2.349
 2264TIP3   OH2 6748   1.759   4.790   0.331
 2264TIP3    H1 6749   1.746   4.883   0.317
 2264TIP3    H2 6750   1.768   4.781   0.426
 2265TIP3   OH2 6751   4.500   4.964   2.859
 2265TIP3    H1 6752   4.430   5.015   2.819
 2265TIP3    H2 6753   4.564   4.952   2.790
 2266TIP3   OH2 6754   1.416   2.722   0.249
 2266TIP3    H1 6755   1.373   2.731   0.334
 2266TIP3    H2 6756   1.471   2.800   0.240
 2267TIP3   OH2 6757   6.090   6.233   1.016
 2267TIP3    H1 6758   6.104   6.246   1.110
 2267TIP3    H2 6759   6.015   6.174   1.011
 2268TIP3   OH2 6760   7.106   6.325   2.327
 2268TIP3    H1 6761   7.200   6.325   2.307
 2268TIP3    H2 6762   7.066   6.280   2.252
 2269TIP3   OH2 6763   2.351   6.060   2.580
 2269TIP3    H1 6764   2.441   6.082   2.557
 2269TIP3    H2 6765   2.358   6.018   2.666
 2270TIP3   OH2 6766   4.797   7.841   5.169
 2270TIP3    H1 6767   4.745   7.821   5.247
 2270TIP3    H2 6768   4.844   7.760   5.150
 2271TIP3   OH2 6769   7.052   0.763   3.223
 2271TIP3    H1 6770   7.099   0.747   3.306
 2271TIP3    H2 6771   7.118   0.803   3.167
 2272TIP3   OH2 6772   3.144   1.027   5.574
 2272TIP3    H1 6773   3.133   0.934   5.551
 2272TIP3    H2 6774   3.148   1.072   5.489
 2273TIP3   OH2 6775   6.464   4.096   5.772
 2273TIP3    H1 6776   6.470   4.143   5.688
 2273TIP3    H2 6777   6.428   4.160   5.833
 2274TIP3   OH2 6778   6.843   4.667   4.806
 2274TIP3    H1 6779   6.799   4.586   4.783
 2274TIP3    H2 6780   6.922   4.668   4.751
 2275TIP3   OH2 6781   1.185   7.426   2.875
 2275TIP3    H1 6782   1.221   7.429   2.964
 2275TIP3    H2 6783   1.216   7.343   2.839
 2276TIP3   OH2 6784   2.901   1.792   6.711
 2276TIP3    H1 6785   2.821   1.845   6.705
 2276TIP3    H2 6786   2.916   1.783   6.805
 2277TIP3   OH2 6787   4.555   0.363   3.136
 2277TIP3    H1 6788   4.545   0.458   3.131
 2277TIP3    H2 6789   4.475   0.332   3.178
 2278TIP3   OH2 6790   1.438   1.094   0.500
 2278TIP3    H1 6791   1.488   1.038   0.559
 2278TIP3    H2 6792   1.359   1.044   0.480
 2279TIP3   OH2 6793   2.081   6.375   4.422
 2279TIP3    H1 6794   1.999   6.349   4.462
 2279TIP3    H2 6795   2.074   6.347   4.331
 2280TIP3   OH2 6796   0.883   3.615   3.489
 2280TIP3    H1 6797   0.904   3.701   3.525
 2280TIP3    H2 6798   0.901   3.554   3.561
 2281TIP3   OH2 6799   3.245   1.821   3.289
 2281TIP3    H1 6800   3.164   1.854   3.328
 2281TIP3    H2 6801   3.236   1.726   3.291
 2282TIP3   OH2 6802   0.089   3.724   6.166
 2282TIP3    H1 6803   0.064   3.710   6.258
 2282TIP3    H2 6804   0.078   3.818   6.152
 2283TIP3   OH2 6805   0.440   3.058   0.210
 2283TIP3    H1 6806   0.397   3.045   0.294
 2283TIP3    H2 6807   0.417   3.147   0.185
 2284TIP3   OH2 6808   0.984   6.961   3.737
 2284TIP3    H1 6809   1.037   6.898   3.687
 2284TIP3    H2 6810   0.949   7.021   3.671
 2285TIP3   OH2 6811   5.658   2.903   3.188
 2285TIP3    H1 6812   5.673   2.837   3.256
 2285TIP3    H2 6813   5.611   2.974   3.233
 2286TIP3   OH2 6814   4.001   4.455   4.044
 2286TIP3    H1 6815   4.051   4.504   3.979
 2286TIP3    H2 6816   3.910   4.459   4.013
 2287TIP3   OH2 6817   1.690   0.922   5.801
 2287TIP3    H1 6818   1.770   0.975   5.795
 2287TIP3    H2 6819   1.697   0.860   5.728
 2288TIP3   OH2 6820   5.060   2.352   5.683
 2288TIP3    H1 6821   4.970   2.385   5.685
 2288TIP3    H2 6822   5.051   2.258   5.667
 2289TIP3   OH2 6823   5.497   4.520   5.281
 2289TIP3    H1 6824   5.408   4.521   5.246
 2289TIP3    H2 6825   5.530   4.432   5.263
 2290TIP3   OH2 6826   3.842   6.256   2.093
 2290TIP3    H1 6827   3.798   6.319   2.150
 2290TIP3    H2 6828   3.935   6.280   2.099
 2291TIP3   OH2 6829   1.614   6.319   5.308
 2291TIP3    H1 6830   1.611   6.306   5.213
 2291TIP3    H2 6831   1.536   6.369   5.328
 2292TIP3   OH2 6832   5.913   6.027   1.014
 2292TIP3    H1 6833   5.853   5.973   0.963
 2292TIP3    H2 6834   5.856   6.076   1.074
 2293TIP3   OH2 6835   3.408   4.122   3.901
 2293TIP3    H1 6836   3.412   4.176   3.822
 2293TIP3    H2 6837   3.326   4.146   3.943
 2294TIP3   OH2 6838   5.691   1.123   1.863
 2294TIP3    H1 6839   5.677   1.049   1.922
 2294TIP3    H2 6840   5.615   1.122   1.805
 2295TIP3   OH2 6841   0.711   4.946   3.056
 2295TIP3    H1 6842   0.670   4.967   2.972
 2295TIP3    H2 6843   0.685   5.017   3.114
 2296TIP3   OH2 6844   2.727   5.351   5.152
 2296TIP3    H1 6845   2.632   5.339   5.148
 2296TIP3    H2 6846   2.752   5.371   5.062
 2297TIP3   OH2 6847   5.608   0.115   5.762
 2297TIP3    H1 6848   5.618   0.176   5.835
 2297TIP3    H2 6849   5.527   0.069   5.780
 2298TIP3   OH2 6850   0.286   7.236   6.103
 2298TIP3    H1 6851   0.355   7.173   6.126
 2298TIP3    H2 6852   0.246   7.260   6.187
 2299TIP3   OH2 6853   0.193   0.232   1.626
 2299TIP3    H1 6854   0.244   0.305   1.590
 2299TIP3    H2 6855   0.257   0.179   1.674
 2300TIP3   OH2 6856   2.523   0.171   5.358
 2300TIP3    H1 6857   2.456   0.236   5.378
 2300TIP3    H2 6858   2.603   0.222   5.345
 2301TIP3   OH2 6859   5.498   2.598   4.824
 2301TIP3    H1 6860   5.486   2.623   4.733
 2301TIP3    H2 6861   5.437   2.654   4.873
 2302TIP3   OH2 6862   4.572   4.471   3.923
 2302TIP3    H1 6863   4.610   4.559   3.928
 2302TIP3    H2 6864   4.481   4.483   3.949
 2303TIP3   OH2 6865   8.035   7.442   5.641
 2303TIP3    H1 6866   8.126   7.466   5.654
 2303TIP3    H2 6867   7.986   7.518   5.673
 2304TIP3   OH2 6868   5.249   2.749   4.904
 2304TIP3    H1 6869   5.160   2.782   4.916
 2304TIP3    H2 6870   5.242   2.683   4.836
 2305TIP3   OH2 6871   7.472   2.016   0.356
 2305TIP3    H1 6872   7.427   2.035   0.438
 2305TIP3    H2 6873   7.562   2.044   0.370
 2306TIP3   OH2 6874   0.052   1.317   0.030
 2306TIP3    H1 6875   0.130   1.308   0.085
 2306TIP3    H2 6876   0.033   1.228   0.001
 2307TIP3   OH2 6877   6.079   0.406   4.450
 2307TIP3    H1 6878   6.067   0.461   4.528
 2307TIP3    H2 6879   6.152   0.349   4.472
 2308TIP3   OH2 6880   2.208   6.085   0.779
 2308TIP3    H1 6881   2.138   6.051   0.723
 2308TIP3    H2 6882   2.190   6.048   0.865
 2309TIP3   OH2 6883   6.857   1.896   2.848
 2309TIP3    H1 6884   6.778   1.910   2.796
 2309TIP3    H2 6885   6.914   1.844   2.790
 2310TIP3   OH2 6886   4.863   4.900   2.072
 2310TIP3    H1 6887   4.816   4.899   2.155
 2310TIP3    H2 6888   4.804   4.859   2.010
 2311TIP3   OH2 6889   8.087   3.021   4.529
 2311TIP3    H1 6890   8.050   3.090   4.584
 2311TIP3    H2 6891   8.012   2.966   4.505
 2312TIP3   OH2 6892   6.950   1.095   6.811
 2312TIP3    H1 6893   6.878   1.159   6.813
 2312TIP3    H2 6894   6.978   1.094   6.719
 2313TIP3   OH2 6895   5.321   7.185   1.722
 2313TIP3    H1 6896   5.321   7.171   1.627
 2313TIP3    H2 6897   5.351   7.275   1.733
 2314TIP3   OH2 6898   1.073   2.737   5.083
 2314TIP3    H1 6899   1.010   2.719   5.013
 2314TIP3    H2 6900   1.055   2.670   5.149
 2315TIP3   OH2 6901   4.264   3.318   6.565
 2315TIP3    H1 6902   4.221   3.235   6.587
 2315TIP3    H2 6903   4.296   3.352   6.648
 2316TIP3   OH2 6904   1.795   4.582   4.749
 2316TIP3    H1 6905   1.838   4.666   4.735
 2316TIP3    H2 6906   1.865   4.517   4.739
 2317TIP3   OH2 6907   5.115   1.055   6.605
 2317TIP3    H1 6908   5.110   1.108   6.525
 2317TIP3    H2 6909   5.033   1.073   6.650
 2318TIP3   OH2 6910   6.708   2.401   6.283
 2318TIP3    H1 6911   6.709   2.453   6.363
 2318TIP3    H2 6912   6.796   2.362   6.279
 2319TIP3   OH2 6913   1.577   3.741   5.344
 2319TIP3    H1 6914   1.563   3.689   5.423
 2319TIP3    H2 6915   1.506   3.805   5.344
 2320TIP3   OH2 6916   1.192   5.399   5.472
 2320TIP3    H1 6917   1.137   5.454   5.528
 2320TIP3    H2 6918   1.278   5.401   5.514
 2321TIP3   OH2 6919   3.117   4.604   6.654
 2321TIP3    H1 6920   3.052   4.634   6.717
 2321TIP3    H2 6921   3.198   4.596   6.705
 2322TIP3   OH2 6922   2.732   2.593   2.710
 2322TIP3    H1 6923   2.799   2.549   2.763
 2322TIP3    H2 6924   2.754   2.686   2.717
 2323TIP3   OH2 6925   7.314   0.864   4.232
 2323TIP3    H1 6926   7.293   0.917   4.155
 2323TIP3    H2 6927   7.343   0.927   4.297
 2324TIP3   OH2 6928   3.013   2.517   6.520
 2324TIP3    H1 6929   3.097   2.556   6.542
 2324TIP3    H2 6930   3.026   2.423   6.531
 2325TIP3   OH2 6931   0.632   7.357   4.239
 2325TIP3    H1 6932   0.587   7.413   4.176
 2325TIP3    H2 6933   0.606   7.268   4.215
 2326TIP3   OH2 6934   6.038   7.650   0.494
 2326TIP3    H1 6935   5.995   7.629   0.577
 2326TIP3    H2 6936   5.967   7.679   0.437
 2327TIP3   OH2 6937   2.928   4.147   0.170
 2327TIP3    H1 6938   2.921   4.242   0.178
 2327TIP3    H2 6939   2.841   4.115   0.195
 2328TIP3   OH2 6940   1.811   6.781   0.419
 2328TIP3    H1 6941   1.750   6.841   0.377
 2328TIP3    H2 6942   1.890   6.784   0.364
 2329TIP3   OH2 6943   0.449   7.808   1.137
 2329TIP3    H1 6944   0.464   7.796   1.043
 2329TIP3    H2 6945   0.385   7.741   1.160
 2330TIP3   OH2 6946   6.014   5.400   4.841
 2330TIP3    H1 6947   6.018   5.313   4.880
 2330TIP3    H2 6948   6.089   5.446   4.879
 2331TIP3   OH2 6949   2.556   2.203   4.481
 2331TIP3    H1 6950   2.617   2.129   4.475
 2331TIP3    H2 6951   2.581   2.261   4.410
 2332TIP3   OH2 6952   6.838   6.440   1.889
 2332TIP3    H1 6953   6.807   6.367   1.943
 2332TIP3    H2 6954   6.773   6.446   1.818
 2333TIP3   OH2 6955   0.326   0.264   2.000
 2333TIP3    H1 6956   0.309   0.182   1.953
 2333TIP3    H2 6957   0.239   0.300   2.016
 2334TIP3   OH2 6958   1.092   1.731   4.739
 2334TIP3    H1 6959   1.040   1.810   4.723
 2334TIP3    H2 6960   1.044   1.660   4.697
 2335TIP3   OH2 6961   1.263   3.489   1.018
 2335TIP3    H1 6962   1.267   3.513   1.111
 2335TIP3    H2 6963   1.282   3.395   1.017
 2336TIP3   OH2 6964   7.732   5.582   6.678
 2336TIP3    H1 6965   7.693   5.595   6.765
 2336TIP3    H2 6966   7.826   5.586   6.693
 2337TIP3   OH2 6967   1.362   6.667   3.041
 2337TIP3    H1 6968   1.350   6.580   3.002
 2337TIP3    H2 6969   1.437   6.656   3.100
 2338TIP3   OH2 6970   7.332   6.479   1.374
 2338TIP3    H1 6971   7.406   6.496   1.316
 2338TIP3    H2 6972   7.364   6.506   1.461
 2339TIP3   OH2 6973   2.737   4.344   1.513
 2339TIP3    H1 6974   2.801   4.401   1.471
 2339TIP3    H2 6975   2.657   4.357   1.462
 2340TIP3   OH2 6976   5.059   3.024   2.955
 2340TIP3    H1 6977   4.974   2.981   2.966
 2340TIP3    H2 6978   5.123   2.958   2.981
 2341TIP3   OH2 6979   0.720   6.171   1.506
 2341TIP3    H1 6980   0.667   6.096   1.480
 2341TIP3    H2 6981   0.660   6.229   1.552
 2342TIP3   OH2 6982   5.230   7.452   2.045
 2342TIP3    H1 6983   5.300   7.456   1.980
 2342TIP3    H2 6984   5.180   7.375   2.022
 2343TIP3   OH2 6985   7.157   4.985   1.994
 2343TIP3    H1 6986   7.143   4.894   1.966
 2343TIP3    H2 6987   7.071   5.015   2.022
 2344TIP3   OH2 6988   0.633   4.315   4.951
 2344TIP3    H1 6989   0.582   4.378   5.002
 2344TIP3    H2 6990   0.654   4.245   5.013
 2345TIP3   OH2 6991   4.234   4.867   4.480
 2345TIP3    H1 6992   4.201   4.796   4.536
 2345TIP3    H2 6993   4.167   4.877   4.412
 2346TIP3   OH2 6994   6.635   5.090   4.801
 2346TIP3    H1 6995   6.610   5.175   4.765
 2346TIP3    H2 6996   6.680   5.110   4.883
 2347TIP3   OH2 6997   5.422   7.367   4.222
 2347TIP3    H1 6998   5.441   7.278   4.251
 2347TIP3    H2 6999   5.496   7.419   4.252
 2348TIP3   OH2 7000   7.815   6.168   4.092
 2348TIP3    H1 7001   7.730   6.129   4.072
 2348TIP3    H2 7002   7.857   6.106   4.151
 2349TIP3   OH2 7003   1.697   2.159   3.422
 2349TIP3    H1 7004   1.743   2.090   3.374
 2349TIP3    H2 7005   1.651   2.112   3.492
 2350TIP3   OH2 7006   8.095   6.563   0.726
 2350TIP3    H1 7007   8.162   6.495   0.733
 2350TIP3    H2 7008   8.014   6.516   0.708
 2351TIP3   OH2 7009   7.481   5.847   1.643
 2351TIP3    H1 7010   7.518   5.815   1.561
 2351TIP3    H2 7011   7.532   5.804   1.712
 2352TIP3   OH2 7012   2.188   3.059   5.286
 2352TIP3    H1 7013   2.203   3.141   5.334
 2352TIP3    H2 7014   2.212   2.990   5.347
 2353TIP3   OH2 7015   6.169   7.257   6.735
 2353TIP3    H1 7016   6.113   7.289   6.665
 2353TIP3    H2 7017   6.246   7.222   6.691
 2354TIP3   OH2 7018   1.601   2.253   0.365
 2354TIP3    H1 7019   1.564   2.165   0.356
 2354TIP3    H2 7020   1.692   2.237   0.392
 2355TIP3   OH2 7021   1.270   6.448   4.127
 2355TIP3    H1 7022   1.208   6.384   4.162
 2355TIP3    H2 7023   1.298   6.498   4.203
 2356TIP3   OH2 7024   6.161   3.921   3.546
 2356TIP3    H1 7025   6.167   4.014   3.568
 2356TIP3    H2 7026   6.233   3.881   3.596
 2357TIP3   OH2 7027   7.741   0.543   1.138
 2357TIP3    H1 7028   7.824   0.520   1.180
 2357TIP3    H2 7029   7.690   0.461   1.140
 2358TIP3   OH2 7030   1.844   1.809   1.195
 2358TIP3    H1 7031   1.784   1.746   1.157
 2358TIP3    H2 7032   1.926   1.761   1.206
 2359TIP3   OH2 7033   7.808   4.322   2.025
 2359TIP3    H1 7034   7.762   4.400   1.993
 2359TIP3    H2 7035   7.898   4.334   1.996
 2360TIP3   OH2 7036   1.309   0.159   2.927
 2360TIP3    H1 7037   1.215   0.161   2.946
 2360TIP3    H2 7038   1.315   0.173   2.832
 2361TIP3   OH2 7039   7.431   6.831   6.084
 2361TIP3    H1 7040   7.351   6.779   6.091
 2361TIP3    H2 7041   7.401   6.919   6.064
 2362TIP3   OH2 7042   7.020   0.401   5.891
 2362TIP3    H1 7043   7.055   0.314   5.911
 2362TIP3    H2 7044   6.930   0.399   5.923
 2363TIP3   OH2 7045   3.127   5.644   4.337
 2363TIP3    H1 7046   3.081   5.686   4.410
 2363TIP3    H2 7047   3.156   5.560   4.371
 2364TIP3   OH2 7048   5.773   2.294   0.070
 2364TIP3    H1 7049   5.754   2.234   0.143
 2364TIP3    H2 7050   5.858   2.332   0.093
 2365TIP3   OH2 7051   5.353   2.081   0.162
 2365TIP3    H1 7052   5.385   2.171   0.151
 2365TIP3    H2 7053   5.395   2.032   0.091
 2366TIP3   OH2 7054   1.906   7.530   3.953
 2366TIP3    H1 7055   1.862   7.567   3.877
 2366TIP3    H2 7056   1.869   7.442   3.961
 2367TIP3   OH2 7057   1.227   6.576   4.809
 2367TIP3    H1 7058   1.262   6.581   4.720
 2367TIP3    H2 7059   1.305   6.568   4.865
 2368TIP3   OH2 7060   7.954   3.776   0.038
 2368TIP3    H1 7061   8.022   3.773   0.106
 2368TIP3    H2 7062   7.898   3.850   0.063
 2369TIP3   OH2 7063   2.307   6.984   6.629
 2369TIP3    H1 7064   2.343   7.056   6.680
 2369TIP3    H2 7065   2.385   6.938   6.595
 2370TIP3   OH2 7066   6.220   5.076   4.932
 2370TIP3    H1 7067   6.125   5.077   4.932
 2370TIP3    H2 7068   6.246   5.168   4.943
 2371TIP3   OH2 7069   7.130   6.770   0.103
 2371TIP3    H1 7070   7.224   6.766   0.087
 2371TIP3    H2 7071   7.097   6.831   0.036
 2372TIP3   OH2 7072   3.142   5.207   4.833
 2372TIP3    H1 7073   3.117   5.122   4.870
 2372TIP3    H2 7074   3.165   5.187   4.742
 2373TIP3   OH2 7075   1.792   7.539   2.135
 2373TIP3    H1 7076   1.762   7.547   2.226
 2373TIP3    H2 7077   1.882   7.572   2.137
 2374TIP3   OH2 7078   6.636   3.076   5.007
 2374TIP3    H1 7079   6.574   3.103   5.074
 2374TIP3    H2 7080   6.712   3.044   5.057
 2375TIP3   OH2 7081   2.051   0.739   0.838
 2375TIP3    H1 7082   2.114   0.746   0.766
 2375TIP3    H2 7083   1.978   0.689   0.801
 2376TIP3   OH2 7084   1.315   0.554   2.644
 2376TIP3    H1 7085   1.398   0.530   2.685
 2376TIP3    H2 7086   1.325   0.527   2.552
 2377TIP3   OH2 7087   6.349   5.942   4.279
 2377TIP3    H1 7088   6.310   5.953   4.366
 2377TIP3    H2 7089   6.436   5.906   4.296
 2378TIP3   OH2 7090   6.949   7.449   3.592
 2378TIP3    H1 7091   7.023   7.446   3.652
 2378TIP3    H2 7092   6.932   7.542   3.579
 2379TIP3   OH2 7093   7.824   4.882   5.449
 2379TIP3    H1 7094   7.850   4.833   5.527
 2379TIP3    H2 7095   7.823   4.974   5.477
 2380TIP3   OH2 7096   2.265   1.827   2.543
 2380TIP3    H1 7097   2.357   1.807   2.528
 2380TIP3    H2 7098   2.232   1.853   2.457
 2381TIP3   OH2 7099   6.944   1.036   2.643
 2381TIP3    H1 7100   6.873   0.988   2.685
 2381TIP3    H2 7101   6.972   0.979   2.571
 2382TIP3   OH2 7102   8.248   2.026   2.536
 2382TIP3    H1 7103   8.336   1.990   2.539
 2382TIP3    H2 7104   8.217   2.008   2.447
 2383TIP3   OH2 7105   5.731   1.610   0.921
 2383TIP3    H1 7106   5.707   1.537   0.979
 2383TIP3    H2 7107   5.647   1.650   0.898
 2384TIP3   OH2 7108   7.862   2.862   0.339
 2384TIP3    H1 7109   7.939   2.878   0.394
 2384TIP3    H2 7110   7.818   2.947   0.334
 2385TIP3   OH2 7111   5.982   5.086   2.256
 2385TIP3    H1 7112   6.074   5.061   2.272
 2385TIP3    H2 7113   5.987   5.174   2.221
 2386TIP3   OH2 7114   3.267   7.489   0.028
 2386TIP3    H1 7115   3.285   7.574   0.066
 2386TIP3    H2 7116   3.347   7.438   0.042
 2387TIP3   OH2 7117   0.177   5.081   2.447
 2387TIP3    H1 7118   0.130   5.013   2.494
 2387TIP3    H2 7119   0.109   5.132   2.402
 2388TIP3   OH2 7120   7.070   2.340   3.607
 2388TIP3    H1 7121   6.993   2.288   3.581
 2388TIP3    H2 7122   7.034   2.410   3.662
 2389TIP3   OH2 7123   6.509   3.948   6.254
 2389TIP3    H1 7124   6.551   3.911   6.332
 2389TIP3    H2 7125   6.493   3.872   6.197
 2390TIP3   OH2 7126   7.519   3.717   1.379
 2390TIP3    H1 7127   7.579   3.668   1.435
 2390TIP3    H2 7128   7.513   3.803   1.419
 2391TIP3   OH2 7129   3.293   0.111   4.124
 2391TIP3    H1 7130   3.303   0.106   4.029
 2391TIP3    H2 7131   3.377   0.146   4.155
 2392TIP3   OH2 7132   3.210   2.653   5.207
 2392TIP3    H1 7133   3.197   2.705   5.128
 2392TIP3    H2 7134   3.286   2.693   5.249
 2393TIP3   OH2 7135   4.724   3.108   1.022
 2393TIP3    H1 7136   4.700   3.031   1.075
 2393TIP3    H2 7137   4.650   3.168   1.033
 2394TIP3   OH2 7138   0.285   1.950   4.493
 2394TIP3    H1 7139   0.286   1.874   4.435
 2394TIP3    H2 7140   0.352   2.008   4.457
 2395TIP3   OH2 7141   5.622   6.598   5.331
 2395TIP3    H1 7142   5.668   6.579   5.413
 2395TIP3    H2 7143   5.603   6.691   5.335
 2396TIP3   OH2 7144   0.355   1.996   3.970
 2396TIP3    H1 7145   0.380   2.053   3.897
 2396TIP3    H2 7146   0.259   1.997   3.970
 2397TIP3   OH2 7147   2.904   3.186   1.364
 2397TIP3    H1 7148   2.844   3.231   1.304
 2397TIP3    H2 7149   2.987   3.182   1.316
 2398TIP3   OH2 7150   3.902   5.268   5.644
 2398TIP3    H1 7151   3.937   5.355   5.627
 2398TIP3    H2 7152   3.828   5.259   5.584
 2399TIP3   OH2 7153   7.042   2.427   5.103
 2399TIP3    H1 7154   7.117   2.371   5.124
 2399TIP3    H2 7155   6.969   2.387   5.151
 2400TIP3   OH2 7156   6.459   0.810   3.707
 2400TIP3    H1 7157   6.536   0.757   3.728
 2400TIP3    H2 7158   6.413   0.821   3.790
 2401TIP3   OH2 7159   5.255   4.117   5.505
 2401TIP3    H1 7160   5.265   4.159   5.420
 2401TIP3    H2 7161   5.162   4.093   5.509
 2402TIP3   OH2 7162   7.739   5.259   4.062
 2402TIP3    H1 7163   7.794   5.242   3.985
 2402TIP3    H2 7164   7.701   5.345   4.045
 2403TIP3   OH2 7165   1.482   3.730   2.162
 2403TIP3    H1 7166   1.511   3.641   2.181
 2403TIP3    H2 7167   1.550   3.786   2.201
 2404TIP3   OH2 7168   2.409   0.702   5.856
 2404TIP3    H1 7169   2.484   0.713   5.798
 2404TIP3    H2 7170   2.333   0.705   5.797
 2405TIP3   OH2 7171   5.879   3.630   5.534
 2405TIP3    H1 7172   5.909   3.644   5.624
 2405TIP3    H2 7173   5.786   3.648   5.537
 2406TIP3   OH2 7174   7.531   5.595   1.838
 2406TIP3    H1 7175   7.580   5.568   1.760
 2406TIP3    H2 7176   7.443   5.560   1.824
 2407TIP3   OH2 7177   6.886   0.943   0.176
 2407TIP3    H1 7178   6.806   0.966   0.129
 2407TIP3    H2 7179   6.950   0.927   0.106
 2408TIP3   OH2 7180   0.658   3.449   2.746
 2408TIP3    H1 7181   0.676   3.435   2.654
 2408TIP3    H2 7182   0.692   3.536   2.765
 2409TIP3   OH2 7183   4.412   6.647   6.030
 2409TIP3    H1 7184   4.456   6.576   5.982
 2409TIP3    H2 7185   4.358   6.690   5.963
 2410TIP3   OH2 7186   1.249   5.256   2.432
 2410TIP3    H1 7187   1.295   5.240   2.349
 2410TIP3    H2 7188   1.319   5.268   2.495
 2411TIP3   OH2 7189   7.132   5.527   0.172
 2411TIP3    H1 7190   7.159   5.493   0.257
 2411TIP3    H2 7191   7.037   5.510   0.168
 2412TIP3   OH2 7192   0.067   3.615   5.564
 2412TIP3    H1 7193  -0.010   3.617   5.506
 2412TIP3    H2 7194   0.066   3.527   5.601
 2413TIP3   OH2 7195   8.154   5.665   4.394
 2413TIP3    H1 7196   8.250   5.658   4.391
 2413TIP3    H2 7197   8.135   5.690   4.484
 2414TIP3   OH2 7198   5.750   6.666   0.963
 2414TIP3    H1 7199   5.662   6.682   0.996
 2414TIP3    H2 7200   5.738   6.614   0.884
 2415TIP3   OH2 7201   0.522   6.165   4.067
 2415TIP3    H1 7202   0.539   6.259   4.073
 2415TIP3    H2 7203   0.593   6.124   4.116
 2416TIP3   OH2 7204   4.373   2.686   6.202
 2416TIP3    H1 7205   4.356   2.598   6.166
 2416TIP3    H2 7206   4.468   2.697   6.193
 2417TIP3   OH2 7207   0.639   2.792   2.862
 2417TIP3    H1 7208   0.609   2.831   2.944
 2417TIP3    H2 7209   0.624   2.859   2.796
 2418TIP3   OH2 7210   6.350   4.400   3.749
 2418TIP3    H1 7211   6.274   4.410   3.806
 2418TIP3    H2 7212   6.400   4.328   3.787
 2419TIP3   OH2 7213   3.752   5.794   5.008
 2419TIP3    H1 7214   3.677   5.739   4.987
 2419TIP3    H2 7215   3.824   5.756   4.957
 2420TIP3   OH2 7216   0.438   6.247   1.967
 2420TIP3    H1 7217   0.450   6.342   1.960
 2420TIP3    H2 7218   0.490   6.222   2.043
 2421TIP3   OH2 7219   7.998   5.530   1.410
 2421TIP3    H1 7220   7.986   5.622   1.384
 2421TIP3    H2 7221   7.976   5.480   1.331
 2422TIP3   OH2 7222   7.127   5.180   4.574
 2422TIP3    H1 7223   7.195   5.247   4.569
 2422TIP3    H2 7224   7.169   5.100   4.541
 2423TIP3   OH2 7225   0.400   3.930   5.051
 2423TIP3    H1 7226   0.380   4.009   5.102
 2423TIP3    H2 7227   0.393   3.858   5.115
 2424TIP3   OH2 7228   5.865   1.544   1.428
 2424TIP3    H1 7229   5.813   1.594   1.491
 2424TIP3    H2 7230   5.865   1.455   1.462
 2425TIP3   OH2 7231   3.066   6.951   6.738
 2425TIP3    H1 7232   3.096   6.890   6.806
 2425TIP3    H2 7233   3.128   6.940   6.666
 2426TIP3   OH2 7234   2.992   3.345   2.476
 2426TIP3    H1 7235   3.022   3.375   2.390
 2426TIP3    H2 7236   2.897   3.341   2.468
 2427TIP3   OH2 7237   7.841   1.927   2.325
 2427TIP3    H1 7238   7.893   1.914   2.404
 2427TIP3    H2 7239   7.763   1.873   2.338
 2428TIP3   OH2 7240   1.935   5.056   4.787
 2428TIP3    H1 7241   1.947   5.124   4.720
 2428TIP3    H2 7242   2.006   5.072   4.850
 2429TIP3   OH2 7243   4.926   7.032   1.129
 2429TIP3    H1 7244   4.989   7.028   1.201
 2429TIP3    H2 7245   4.980   7.046   1.051
 2430TIP3   OH2 7246   2.655   3.115   1.954
 2430TIP3    H1 7247   2.671   3.209   1.964
 2430TIP3    H2 7248   2.595   3.093   2.025
 2431TIP3   OH2 7249   3.773   5.700   3.600
 2431TIP3    H1 7250   3.784   5.608   3.625
 2431TIP3    H2 7251   3.730   5.696   3.514
 2432TIP3   OH2 7252   3.684   4.093   3.076
 2432TIP3    H1 7253   3.734   4.013   3.090
 2432TIP3    H2 7254   3.742   4.163   3.108
 2433TIP3   OH2 7255   7.229   6.760   3.866
 2433TIP3    H1 7256   7.255   6.832   3.923
 2433TIP3    H2 7257   7.138   6.743   3.888
 2434TIP3   OH2 7258   7.034   6.096   0.931
 2434TIP3    H1 7259   7.083   6.179   0.929
 2434TIP3    H2 7260   7.097   6.032   0.963
 2435TIP3   OH2 7261   4.143   2.023   1.527
 2435TIP3    H1 7262   4.070   2.046   1.470
 2435TIP3    H2 7263   4.220   2.026   1.470
 2436TIP3   OH2 7264   1.266   4.544   1.360
 2436TIP3    H1 7265   1.188   4.574   1.406
 2436TIP3    H2 7266   1.263   4.590   1.276
 2437TIP3   OH2 7267   0.476   1.121   6.625
 2437TIP3    H1 7268   0.407   1.187   6.625
 2437TIP3    H2 7269   0.543   1.155   6.683
 2438TIP3   OH2 7270   7.199   1.025   0.065
 2438TIP3    H1 7271   7.176   0.956   0.003
 2438TIP3    H2 7272   7.133   1.093   0.051
 2439TIP3   OH2 7273   4.737   3.406   2.585
 2439TIP3    H1 7274   4.642   3.420   2.583
 2439TIP3    H2 7275   4.774   3.486   2.547
 2440TIP3   OH2 7276   4.879   6.652   2.560
 2440TIP3    H1 7277   4.896   6.740   2.526
 2440TIP3    H2 7278   4.826   6.609   2.493
 2441TIP3   OH2 7279   2.271   5.927   3.267
 2441TIP3    H1 7280   2.244   5.924   3.359
 2441TIP3    H2 7281   2.190   5.913   3.218
 2442TIP3   OH2 7282   2.989   4.788   3.399
 2442TIP3    H1 7283   3.025   4.719   3.344
 2442TIP3    H2 7284   2.989   4.751   3.487
 2443TIP3   OH2 7285   0.937   6.430   4.862
 2443TIP3    H1 7286   1.009   6.438   4.925
 2443TIP3    H2 7287   0.951   6.502   4.801
 2444TIP3   OH2 7288   3.896   7.001   6.249
 2444TIP3    H1 7289   3.938   6.963   6.326
 2444TIP3    H2 7290   3.815   7.038   6.282
 2445TIP3   OH2 7291   4.050   3.275   0.927
 2445TIP3    H1 7292   3.963   3.236   0.934
 2445TIP3    H2 7293   4.095   3.249   1.008
 2446TIP3   OH2 7294   1.196   6.332   2.130
 2446TIP3    H1 7295   1.109   6.322   2.092
 2446TIP3    H2 7296   1.180   6.337   2.225
 2447TIP3   OH2 7297   3.320   5.705   2.868
 2447TIP3    H1 7298   3.337   5.789   2.826
 2447TIP3    H2 7299   3.225   5.693   2.859
 2448TIP3   OH2 7300   2.506   0.929   4.227
 2448TIP3    H1 7301   2.536   1.019   4.213
 2448TIP3    H2 7302   2.555   0.899   4.303
 2449TIP3   OH2 7303   1.466   0.207   6.409
 2449TIP3    H1 7304   1.419   0.276   6.363
 2449TIP3    H2 7305   1.398   0.157   6.453
 2450TIP3   OH2 7306   6.132   5.780   0.694
 2450TIP3    H1 7307   6.154   5.867   0.727
 2450TIP3    H2 7308   6.211   5.751   0.650
 2451TIP3   OH2 7309   6.940   0.132   5.781
 2451TIP3    H1 7310   6.910   0.140   5.691
 2451TIP3    H2 7311   6.874   0.177   5.833
 2452TIP3   OH2 7312   5.560   7.514   1.635
 2452TIP3    H1 7313   5.612   7.594   1.628
 2452TIP3    H2 7314   5.570   7.470   1.551
 2453TIP3   OH2 7315   3.928   2.502   2.638
 2453TIP3    H1 7316   3.916   2.541   2.552
 2453TIP3    H2 7317   4.015   2.530   2.665
 2454TIP3   OH2 7318   2.652   1.364   4.947
 2454TIP3    H1 7319   2.714   1.351   5.019
 2454TIP3    H2 7320   2.668   1.290   4.888
 2455TIP3   OH2 7321   3.491   7.734   2.637
 2455TIP3    H1 7322   3.535   7.792   2.575
 2455TIP3    H2 7323   3.536   7.748   2.720
 2456TIP3   OH2 7324   0.126   6.890   6.563
 2456TIP3    H1 7325   0.200   6.839   6.596
 2456TIP3    H2 7326   0.072   6.906   6.641
 2457TIP3   OH2 7327   2.259   1.554   0.794
 2457TIP3    H1 7328   2.235   1.562   0.886
 2457TIP3    H2 7329   2.353   1.574   0.792
 2458TIP3   OH2 7330   4.579   3.515   2.145
 2458TIP3    H1 7331   4.674   3.513   2.151
 2458TIP3    H2 7332   4.559   3.461   2.068
 2459TIP3   OH2 7333   0.835   2.497   5.753
 2459TIP3    H1 7334   0.804   2.586   5.769
 2459TIP3    H2 7335   0.776   2.462   5.686
 2460TIP3   OH2 7336   8.283   6.655   3.623
 2460TIP3    H1 7337   8.197   6.621   3.598
 2460TIP3    H2 7338   8.322   6.584   3.675
 2461TIP3   OH2 7339   3.111   2.259   5.869
 2461TIP3    H1 7340   3.109   2.338   5.923
 2461TIP3    H2 7341   3.019   2.239   5.853
 2462TIP3   OH2 7342   6.022   1.796   2.287
 2462TIP3    H1 7343   6.011   1.857   2.360
 2462TIP3    H2 7344   6.098   1.743   2.312
 2463TIP3   OH2 7345   5.874   5.523   1.046
 2463TIP3    H1 7346   5.915   5.597   1.088
 2463TIP3    H2 7347   5.945   5.479   1.000
 2464TIP3   OH2 7348   6.590   2.178   2.808
 2464TIP3    H1 7349   6.554   2.145   2.891
 2464TIP3    H2 7350   6.570   2.271   2.808
 2465TIP3   OH2 7351   4.824   0.833   1.042
 2465TIP3    H1 7352   4.873   0.836   0.960
 2465TIP3    H2 7353   4.885   0.865   1.108
 2466TIP3   OH2 7354   2.719   1.832   3.475
 2466TIP3    H1 7355   2.711   1.833   3.570
 2466TIP3    H2 7356   2.631   1.854   3.444
 2467TIP3   OH2 7357   2.368   6.097   4.337
 2467TIP3    H1 7358   2.455   6.104   4.376
 2467TIP3    H2 7359   2.309   6.088   4.412
 2468TIP3   OH2 7360   1.013   5.270   1.444
 2468TIP3    H1 7361   1.086   5.282   1.504
 2468TIP3    H2 7362   0.989   5.177   1.453
 2469TIP3   OH2 7363   1.447   4.461   4.502
 2469TIP3    H1 7364   1.461   4.535   4.561
 2469TIP3    H2 7365   1.535   4.436   4.474
 2470TIP3   OH2 7366   5.222   2.273   4.759
 2470TIP3    H1 7367   5.153   2.340   4.765
 2470TIP3    H2 7368   5.174   2.193   4.739
 2471TIP3   OH2 7369   2.329   7.686   0.995
 2471TIP3    H1 7370   2.282   7.607   0.968
 2471TIP3    H2 7371   2.304   7.699   1.086
 2472TIP3   OH2 7372   7.594   2.526   1.381
 2472TIP3    H1 7373   7.523   2.583   1.354
 2472TIP3    H2 7374   7.654   2.583   1.429
 2473TIP3   OH2 7375   5.134   7.375   1.415
 2473TIP3    H1 7376   5.083   7.329   1.481
 2473TIP3    H2 7377   5.069   7.412   1.355
 2474TIP3   OH2 7378   4.280   6.154   5.431
 2474TIP3    H1 7379   4.227   6.171   5.353
 2474TIP3    H2 7380   4.366   6.131   5.397
 2475TIP3   OH2 7381   6.272   4.483   0.127
 2475TIP3    H1 7382   6.325   4.555   0.161
 2475TIP3    H2 7383   6.308   4.405   0.169
 2476TIP3   OH2 7384   2.740   3.722   2.867
 2476TIP3    H1 7385   2.713   3.669   2.942
 2476TIP3    H2 7386   2.774   3.803   2.906
 2477TIP3   OH2 7387   6.634   5.748   3.343
 2477TIP3    H1 7388   6.730   5.753   3.339
 2477TIP3    H2 7389   6.605   5.839   3.342
 2478TIP3   OH2 7390   6.460   0.574   5.178
 2478TIP3    H1 7391   6.386   0.563   5.238
 2478TIP3    H2 7392   6.446   0.661   5.140
 2479TIP3   OH2 7393   3.664   6.604   6.227
 2479TIP3    H1 7394   3.625   6.687   6.198
 2479TIP3    H2 7395   3.591   6.542   6.226
 2480TIP3   OH2 7396   7.240   1.039   4.012
 2480TIP3    H1 7397   7.197   1.003   3.934
 2480TIP3    H2 7398   7.190   1.118   4.033
 2481TIP3   OH2 7399   0.481   5.742   6.595
 2481TIP3    H1 7400   0.540   5.755   6.669
 2481TIP3    H2 7401   0.413   5.683   6.630
 2482TIP3   OH2 7402   2.792   4.342   2.933
 2482TIP3    H1 7403   2.831   4.278   2.874
 2482TIP3    H2 7404   2.793   4.424   2.884
 2483TIP3   OH2 7405   4.503   7.383   2.489
 2483TIP3    H1 7406   4.490   7.467   2.533
 2483TIP3    H2 7407   4.415   7.349   2.474
 2484TIP3   OH2 7408   0.428   2.560   1.153
 2484TIP3    H1 7409   0.488   2.629   1.180
 2484TIP3    H2 7410   0.362   2.604   1.099
 2485TIP3   OH2 7411   3.063   0.209   1.178
 2485TIP3    H1 7412   3.127   0.140   1.158
 2485TIP3    H2 7413   2.984   0.183   1.130
 2486TIP3   OH2 7414   5.327   1.326   6.011
 2486TIP3    H1 7415   5.266   1.316   5.938
 2486TIP3    H2 7416   5.335   1.238   6.049
 2487TIP3   OH2 7417   1.666   6.595   1.179
 2487TIP3    H1 7418   1.624   6.510   1.191
 2487TIP3    H2 7419   1.750   6.587   1.226
 2488TIP3   OH2 7420   0.258   6.483   2.346
 2488TIP3    H1 7421   0.185   6.504   2.404
 2488TIP3    H2 7422   0.267   6.559   2.290
 2489TIP3   OH2 7423   1.823   4.313   0.466
 2489TIP3    H1 7424   1.872   4.305   0.384
 2489TIP3    H2 7425   1.791   4.225   0.484
 2490TIP3   OH2 7426   4.051   3.358   0.649
 2490TIP3    H1 7427   4.007   3.291   0.596
 2490TIP3    H2 7428   4.031   3.335   0.739
 2491TIP3   OH2 7429   1.650   2.178   4.632
 2491TIP3    H1 7430   1.623   2.241   4.699
 2491TIP3    H2 7431   1.743   2.196   4.619
 2492TIP3   OH2 7432   2.582   2.598   0.294
 2492TIP3    H1 7433   2.495   2.564   0.316
 2492TIP3    H2 7434   2.571   2.635   0.206
 2493TIP3   OH2 7435   6.880   1.161   0.350
 2493TIP3    H1 7436   6.794   1.196   0.373
 2493TIP3    H2 7437   6.861   1.084   0.296
 2494TIP3   OH2 7438   2.136   1.673   5.741
 2494TIP3    H1 7439   2.114   1.582   5.761
 2494TIP3    H2 7440   2.130   1.679   5.646
 2495TIP3   OH2 7441   1.432   0.889   6.306
 2495TIP3    H1 7442   1.463   0.857   6.222
 2495TIP3    H2 7443   1.406   0.980   6.289
 2496TIP3   OH2 7444   3.555   7.348   0.889
 2496TIP3    H1 7445   3.523   7.437   0.904
 2496TIP3    H2 7446   3.629   7.339   0.949
 2497TIP3   OH2 7447   5.605   0.160   6.403
 2497TIP3    H1 7448   5.639   0.117   6.325
 2497TIP3    H2 7449   5.631   0.252   6.394
 2498TIP3   OH2 7450   6.247   0.729   4.877
 2498TIP3    H1 7451   6.210   0.663   4.935
 2498TIP3    H2 7452   6.200   0.718   4.795
 2499TIP3   OH2 7453   6.919   4.638   5.925
 2499TIP3    H1 7454   6.983   4.619   5.994
 2499TIP3    H2 7455   6.968   4.689   5.860
 2500TIP3   OH2 7456   3.883   2.150   6.461
 2500TIP3    H1 7457   3.963   2.101   6.440
 2500TIP3    H2 7458   3.865   2.126   6.552
 2501TIP3   OH2 7459   5.800   2.041   4.655
 2501TIP3    H1 7460   5.862   2.008   4.590
 2501TIP3    H2 7461   5.773   2.127   4.621
 2502TIP3   OH2 7462   6.030   2.934   0.199
 2502TIP3    H1 7463   6.047   2.960   0.290
 2502TIP3    H2 7464   6.117   2.931   0.158
 2503TIP3   OH2 7465   7.996   6.842   6.627
 2503TIP3    H1 7466   7.924   6.795   6.670
 2503TIP3    H2 7467   8.054   6.867   6.699
 2504TIP3   OH2 7468   5.730   0.160   0.139
 2504TIP3    H1 7469   5.646   0.203   0.118
 2504TIP3    H2 7470   5.755   0.197   0.224
 2505TIP3   OH2 7471   2.725   1.326  -0.005
 2505TIP3    H1 7472   2.783   1.282   0.057
 2505TIP3    H2 7473   2.677   1.255  -0.047
 2506TIP3   OH2 7474   0.544   6.140   2.216
 2506TIP3    H1 7475   0.473   6.184   2.264
 2506TIP3    H2 7476   0.510   6.054   2.196
 2507TIP3   OH2 7477   0.025   7.615   1.373
 2507TIP3    H1 7478   0.051   7.703   1.400
 2507TIP3    H2 7479   0.107   7.574   1.345
 2508TIP3   OH2 7480   2.733   6.603   0.969
 2508TIP3    H1 7481   2.712   6.582   1.060
 2508TIP3    H2 7482   2.678   6.544   0.918
 2509TIP3   OH2 7483   6.606   2.364   5.185
 2509TIP3    H1 7484   6.603   2.347   5.091
 2509TIP3    H2 7485   6.646   2.285   5.222
 2510TIP3   OH2 7486   7.378   0.081   4.238
 2510TIP3    H1 7487   7.437   0.080   4.162
 2510TIP3    H2 7488   7.433   0.052   4.311
 2511TIP3   OH2 7489   3.843   0.387   3.138
 2511TIP3    H1 7490   3.824   0.317   3.075
 2511TIP3    H2 7491   3.874   0.460   3.084
 2512TIP3   OH2 7492   3.695   1.391   4.689
 2512TIP3    H1 7493   3.681   1.475   4.646
 2512TIP3    H2 7494   3.627   1.334   4.652
 2513TIP3   OH2 7495   0.182   3.158   6.728
 2513TIP3    H1 7496   0.139   3.107   6.797
 2513TIP3    H2 7497   0.221   3.233   6.774
 2514TIP3   OH2 7498   0.753   2.563   3.163
 2514TIP3    H1 7499   0.752   2.625   3.090
 2514TIP3    H2 7500   0.837   2.517   3.155
 2515TIP3   OH2 7501   2.082   7.177   1.579
 2515TIP3    H1 7502   2.020   7.196   1.649
 2515TIP3    H2 7503   2.144   7.116   1.618
 2516TIP3   OH2 7504   3.176   2.478   3.883
 2516TIP3    H1 7505   3.181   2.571   3.905
 2516TIP3    H2 7506   3.236   2.467   3.809
 2517TIP3   OH2 7507   1.879   7.022   5.466
 2517TIP3    H1 7508   1.962   7.063   5.487
 2517TIP3    H2 7509   1.875   6.944   5.521
 2518TIP3   OH2 7510   3.078   5.920   5.697
 2518TIP3    H1 7511   3.133   5.986   5.654
 2518TIP3    H2 7512   3.038   5.872   5.624
 2519TIP3   OH2 7513   0.145   7.335   0.874
 2519TIP3    H1 7514   0.058   7.310   0.843
 2519TIP3    H2 7515   0.188   7.371   0.796
 2520TIP3   OH2 7516   6.293   0.134   1.834
 2520TIP3    H1 7517   6.239   0.126   1.755
 2520TIP3    H2 7518   6.289   0.048   1.875
 2521TIP3   OH2 7519   2.684   7.324   4.888
 2521TIP3    H1 7520   2.680   7.228   4.887
 2521TIP3    H2 7521   2.644   7.349   4.971
 2522TIP3   OH2 7522   2.939   5.423   1.197
 2522TIP3    H1 7523   2.859   5.379   1.167
 2522TIP3    H2 7524   2.908   5.496   1.250
 2523TIP3   OH2 7525   6.363   0.287   3.146
 2523TIP3    H1 7526   6.435   0.346   3.169
 2523TIP3    H2 7527   6.379   0.208   3.199
 2524TIP3   OH2 7528   2.807   2.350   0.725
 2524TIP3    H1 7529   2.847   2.367   0.810
 2524TIP3    H2 7530   2.736   2.414   0.719
 2525TIP3   OH2 7531   7.932   0.718   2.406
 2525TIP3    H1 7532   7.932   0.785   2.474
 2525TIP3    H2 7533   7.947   0.766   2.324
 2526TIP3   OH2 7534   7.180   5.352   4.102
 2526TIP3    H1 7535   7.268   5.318   4.086
 2526TIP3    H2 7536   7.121   5.281   4.075
 2527TIP3   OH2 7537   2.717   7.251   1.978
 2527TIP3    H1 7538   2.785   7.217   2.036
 2527TIP3    H2 7539   2.653   7.180   1.972
 2528TIP3   OH2 7540   4.928   2.283   0.292
 2528TIP3    H1 7541   4.873   2.301   0.216
 2528TIP3    H2 7542   4.895   2.201   0.327
 2529TIP3   OH2 7543   6.503   6.661   2.679
 2529TIP3    H1 7544   6.575   6.682   2.738
 2529TIP3    H2 7545   6.529   6.699   2.595
 2530TIP3   OH2 7546   1.809   0.560   5.300
 2530TIP3    H1 7547   1.796   0.465   5.302
 2530TIP3    H2 7548   1.751   0.594   5.368
 2531TIP3   OH2 7549   0.434   0.796   4.508
 2531TIP3    H1 7550   0.407   0.713   4.547
 2531TIP3    H2 7551   0.461   0.849   4.582
 2532TIP3   OH2 7552   5.136   2.501   2.841
 2532TIP3    H1 7553   5.148   2.528   2.750
 2532TIP3    H2 7554   5.216   2.528   2.886
 2533TIP3   OH2 7555   3.642   1.586   2.860
 2533TIP3    H1 7556   3.581   1.599   2.933
 2533TIP3    H2 7557   3.692   1.668   2.857
 2534TIP3   OH2 7558   2.899   0.158   6.532
 2534TIP3    H1 7559   2.954   0.151   6.454
 2534TIP3    H2 7560   2.907   0.250   6.559
 2535TIP3   OH2 7561   0.018   0.346   3.650
 2535TIP3    H1 7562   0.040   0.270   3.705
 2535TIP3    H2 7563   0.068   0.418   3.688
 2536TIP3   OH2 7564   6.677   5.797   2.633
 2536TIP3    H1 7565   6.602   5.738   2.635
 2536TIP3    H2 7566   6.733   5.767   2.705
 2537TIP3   OH2 7567   4.753   2.462   4.232
 2537TIP3    H1 7568   4.809   2.539   4.221
 2537TIP3    H2 7569   4.756   2.418   4.147
 2538TIP3   OH2 7570   8.310   5.112   1.345
 2538TIP3    H1 7571   8.287   5.178   1.280
 2538TIP3    H2 7572   8.228   5.096   1.393
 2539TIP3   OH2 7573   2.457   3.312   6.245
 2539TIP3    H1 7574   2.374   3.351   6.276
 2539TIP3    H2 7575   2.504   3.384   6.205
 2540TIP3   OH2 7576   7.055   1.194   1.315
 2540TIP3    H1 7577   7.145   1.183   1.284
 2540TIP3    H2 7578   7.064   1.223   1.405
 2541TIP3   OH2 7579   5.815   5.194   5.387
 2541TIP3    H1 7580   5.868   5.270   5.363
 2541TIP3    H2 7581   5.868   5.146   5.450
 2542TIP3   OH2 7582   1.216   0.515   3.848
 2542TIP3    H1 7583   1.185   0.476   3.930
 2542TIP3    H2 7584   1.308   0.492   3.844
 2543TIP3   OH2 7585   3.860   6.455   6.027
 2543TIP3    H1 7586   3.812   6.373   6.033
 2543TIP3    H2 7587   3.904   6.452   5.942
 2544TIP3   OH2 7588   5.232   0.053   0.562
 2544TIP3    H1 7589   5.222  -0.036   0.594
 2544TIP3    H2 7590   5.310   0.086   0.607
 2545TIP3   OH2 7591   7.756   7.237   3.673
 2545TIP3    H1 7592   7.694   7.309   3.663
 2545TIP3    H2 7593   7.799   7.229   3.588
 2546TIP3   OH2 7594   1.127   2.929   2.087
 2546TIP3    H1 7595   1.107   2.912   2.179
 2546TIP3    H2 7596   1.049   2.974   2.054
 2547TIP3   OH2 7597   5.267   2.888   1.075
 2547TIP3    H1 7598   5.346   2.937   1.098
 2547TIP3    H2 7599   5.285   2.799   1.105
 2548TIP3   OH2 7600   7.740   1.165   0.567
 2548TIP3    H1 7601   7.766   1.078   0.598
 2548TIP3    H2 7602   7.815   1.221   0.587
 2549TIP3   OH2 7603   2.619   3.759   5.283
 2549TIP3    H1 7604   2.607   3.669   5.313
 2549TIP3    H2 7605   2.714   3.773   5.288
 2550TIP3   OH2 7606   6.427   3.381   3.352
 2550TIP3    H1 7607   6.360   3.427   3.302
 2550TIP3    H2 7608   6.445   3.438   3.427
 2551TIP3   OH2 7609   0.493   3.503   0.861
 2551TIP3    H1 7610   0.506   3.425   0.916
 2551TIP3    H2 7611   0.507   3.472   0.771
 2552TIP3   OH2 7612   0.734   3.212   0.421
 2552TIP3    H1 7613   0.811   3.223   0.365
 2552TIP3    H2 7614   0.706   3.121   0.406
 2553TIP3   OH2 7615   5.632   1.922   2.843
 2553TIP3    H1 7616   5.572   1.872   2.899
 2553TIP3    H2 7617   5.587   1.928   2.759
 2554TIP3   OH2 7618   1.386   7.198   5.551
 2554TIP3    H1 7619   1.391   7.140   5.626
 2554TIP3    H2 7620   1.301   7.240   5.558
 2555TIP3   OH2 7621   5.460   3.497   4.699
 2555TIP3    H1 7622   5.446   3.591   4.699
 2555TIP3    H2 7623   5.433   3.469   4.611
 2556TIP3   OH2 7624   4.520   5.781   6.558
 2556TIP3    H1 7625   4.487   5.790   6.469
 2556TIP3    H2 7626   4.441   5.769   6.611
 2557TIP3   OH2 7627   6.431   6.244   3.853
 2557TIP3    H1 7628   6.360   6.271   3.795
 2557TIP3    H2 7629   6.508   6.290   3.818
 2558TIP3   OH2 7630   2.751   2.088   2.328
 2558TIP3    H1 7631   2.739   2.124   2.416
 2558TIP3    H2 7632   2.688   2.136   2.274
 2559TIP3   OH2 7633   0.172   4.038   5.807
 2559TIP3    H1 7634   0.194   3.946   5.823
 2559TIP3    H2 7635   0.169   4.077   5.894
 2560TIP3   OH2 7636   3.408   2.035   1.995
 2560TIP3    H1 7637   3.466   2.006   2.065
 2560TIP3    H2 7638   3.371   1.954   1.959
 2561TIP3   OH2 7639   0.320   4.381   4.926
 2561TIP3    H1 7640   0.296   4.301   4.880
 2561TIP3    H2 7641   0.411   4.397   4.901
 2562TIP3   OH2 7642   4.044   2.414   6.047
 2562TIP3    H1 7643   3.975   2.465   6.003
 2562TIP3    H2 7644   4.005   2.388   6.130
 2563TIP3   OH2 7645   6.031   1.623   4.215
 2563TIP3    H1 7646   6.078   1.557   4.266
 2563TIP3    H2 7647   5.958   1.650   4.270
 2564TIP3   OH2 7648   2.399   6.702   0.697
 2564TIP3    H1 7649   2.443   6.634   0.646
 2564TIP3    H2 7650   2.470   6.753   0.736
 2565TIP3   OH2 7651   3.144   3.894   2.873
 2565TIP3    H1 7652   3.178   3.978   2.843
 2565TIP3    H2 7653   3.128   3.844   2.793
 2566TIP3   OH2 7654   4.887   1.896   3.791
 2566TIP3    H1 7655   4.965   1.841   3.793
 2566TIP3    H2 7656   4.899   1.950   3.712
 2567TIP3   OH2 7657   3.867   2.651   1.793
 2567TIP3    H1 7658   3.836   2.676   1.880
 2567TIP3    H2 7659   3.796   2.599   1.756
 2568TIP3   OH2 7660   4.222   4.870   4.028
 2568TIP3    H1 7661   4.275   4.808   4.080
 2568TIP3    H2 7662   4.226   4.836   3.939
 2569TIP3   OH2 7663   2.072   4.013   5.743
 2569TIP3    H1 7664   2.132   3.946   5.776
 2569TIP3    H2 7665   2.117   4.051   5.668
 2570TIP3   OH2 7666   8.044   0.984   6.422
 2570TIP3    H1 7667   7.980   1.054   6.433
 2570TIP3    H2 7668   8.020   0.941   6.340
 2571TIP3   OH2 7669   0.449   4.627   2.821
 2571TIP3    H1 7670   0.421   4.583   2.740
 2571TIP3    H2 7671   0.440   4.720   2.802
 2572TIP3   OH2 7672   1.869   2.653   2.929
 2572TIP3    H1 7673   1.911   2.583   2.979
 2572TIP3    H2 7674   1.861   2.618   2.840
 2573TIP3   OH2 7675   4.888   6.559   4.503
 2573TIP3    H1 7676   4.904   6.507   4.581
 2573TIP3    H2 7677   4.964   6.617   4.497
 2574TIP3   OH2 7678   5.115   7.332   5.183
 2574TIP3    H1 7679   5.120   7.379   5.099
 2574TIP3    H2 7680   5.125   7.401   5.249
 2575TIP3   OH2 7681   2.493   1.478   3.185
 2575TIP3    H1 7682   2.398   1.466   3.180
 2575TIP3    H2 7683   2.527   1.431   3.110
 2576TIP3   OH2 7684   2.796   4.475   3.502
 2576TIP3    H1 7685   2.708   4.442   3.484
 2576TIP3    H2 7686   2.796   4.495   3.595
 2577TIP3   OH2 7687   1.067   7.604   1.174
 2577TIP3    H1 7688   1.127   7.616   1.100
 2577TIP3    H2 7689   1.100   7.525   1.218
 2578TIP3   OH2 7690   6.380   4.804   5.605
 2578TIP3    H1 7691   6.364   4.717   5.569
 2578TIP3    H2 7692   6.296   4.849   5.597
 2579TIP3   OH2 7693   1.555   3.942   4.087
 2579TIP3    H1 7694   1.549   3.923   3.993
 2579TIP3    H2 7695   1.635   3.994   4.097
 2580TIP3   OH2 7696   1.938   5.806   4.413
 2580TIP3    H1 7697   1.906   5.878   4.358
 2580TIP3    H2 7698   1.961   5.738   4.350
 2581TIP3   OH2 7699   6.295   2.956   0.190
 2581TIP3    H1 7700   6.324   2.965   0.281
 2581TIP3    H2 7701   6.366   2.908   0.148
 2582TIP3   OH2 7702   0.003   0.739   0.168
 2582TIP3    H1 7703  -0.065   0.782   0.116
 2582TIP3    H2 7704   0.085   0.777   0.138
 2583TIP3   OH2 7705   0.015   2.266   4.527
 2583TIP3    H1 7706   0.047   2.208   4.596
 2583TIP3    H2 7707   0.081   2.258   4.458
 2584TIP3   OH2 7708   7.956   3.432   5.550
 2584TIP3    H1 7709   7.879   3.377   5.559
 2584TIP3    H2 7710   7.955   3.488   5.628
 2585TIP3   OH2 7711   6.470   2.859   6.585
 2585TIP3    H1 7712   6.400   2.802   6.617
 2585TIP3    H2 7713   6.462   2.938   6.639
 2586TIP3   OH2 7714   5.980   4.327   4.382
 2586TIP3    H1 7715   6.055   4.354   4.330
 2586TIP3    H2 7716   5.911   4.312   4.317
 2587TIP3   OH2 7717   6.322   7.290   1.652
 2587TIP3    H1 7718   6.286   7.378   1.643
 2587TIP3    H2 7719   6.402   7.302   1.704
 2588TIP3   OH2 7720   8.006   2.734   0.135
 2588TIP3    H1 7721   7.944   2.766   0.200
 2588TIP3    H2 7722   7.951   2.690   0.070
 2589TIP3   OH2 7723   7.707   3.419   3.006
 2589TIP3    H1 7724   7.657   3.500   2.996
 2589TIP3    H2 7725   7.727   3.392   2.917
 2590TIP3   OH2 7726   3.107   0.793   5.387
 2590TIP3    H1 7727   3.016   0.769   5.368
 2590TIP3    H2 7728   3.144   0.715   5.428
 2591TIP3   OH2 7729   6.057   4.816   5.561
 2591TIP3    H1 7730   6.031   4.809   5.469
 2591TIP3    H2 7731   5.990   4.768   5.609
 2592TIP3   OH2 7732   3.956   1.258   5.983
 2592TIP3    H1 7733   3.911   1.254   6.067
 2592TIP3    H2 7734   4.046   1.232   6.004
 2593TIP3   OH2 7735   3.766   1.509   3.405
 2593TIP3    H1 7736   3.834   1.505   3.338
 2593TIP3    H2 7737   3.753   1.603   3.421
 2594TIP3   OH2 7738   5.555   1.394   3.630
 2594TIP3    H1 7739   5.598   1.346   3.701
 2594TIP3    H2 7740   5.621   1.401   3.562
 2595TIP3   OH2 7741   4.001   6.224   1.667
 2595TIP3    H1 7742   3.988   6.178   1.750
 2595TIP3    H2 7743   4.022   6.314   1.692
 2596TIP3   OH2 7744  -0.037   5.251   4.292
 2596TIP3    H1 7745  -0.018   5.299   4.211
 2596TIP3    H2 7746  -0.040   5.318   4.360
 2597TIP3   OH2 7747   6.356   4.695   3.622
 2597TIP3    H1 7748   6.311   4.617   3.590
 2597TIP3    H2 7749   6.421   4.715   3.554
 2598TIP3   OH2 7750   4.202   2.504   3.336
 2598TIP3    H1 7751   4.141   2.553   3.392
 2598TIP3    H2 7752   4.149   2.436   3.296
 2599TIP3   OH2 7753   2.677   5.916   6.034
 2599TIP3    H1 7754   2.672   5.942   5.942
 2599TIP3    H2 7755   2.587   5.923   6.066
 2600TIP3   OH2 7756   7.157   5.773   3.436
 2600TIP3    H1 7757   7.137   5.754   3.528
 2600TIP3    H2 7758   7.141   5.867   3.426
 2601TIP3   OH2 7759   1.443   6.371   1.024
 2601TIP3    H1 7760   1.468   6.439   0.962
 2601TIP3    H2 7761   1.385   6.313   0.974
 2602TIP3   OH2 7762   4.192   5.936   5.636
 2602TIP3    H1 7763   4.208   6.017   5.589
 2602TIP3    H2 7764   4.173   5.962   5.725
 2603TIP3   OH2 7765   6.778   2.408   2.065
 2603TIP3    H1 7766   6.722   2.359   2.126
 2603TIP3    H2 7767   6.854   2.351   2.052
 2604TIP3   OH2 7768   6.230   0.707   0.711
 2604TIP3    H1 7769   6.180   0.741   0.785
 2604TIP3    H2 7770   6.254   0.618   0.737
 2605TIP3   OH2 7771   5.021   3.763   2.781
 2605TIP3    H1 7772   4.963   3.693   2.811
 2605TIP3    H2 7773   5.081   3.776   2.855
 2606TIP3   OH2 7774   5.066   7.681   4.134
 2606TIP3    H1 7775   5.087   7.766   4.096
 2606TIP3    H2 7776   5.047   7.700   4.226
 2607TIP3   OH2 7777   0.396   1.809   6.436
 2607TIP3    H1 7778   0.334   1.822   6.508
 2607TIP3    H2 7779   0.373   1.878   6.373
 2608TIP3   OH2 7780   0.450   5.110   3.783
 2608TIP3    H1 7781   0.484   5.162   3.710
 2608TIP3    H2 7782   0.500   5.028   3.779
 2609TIP3   OH2 7783   7.252   3.714   2.338
 2609TIP3    H1 7784   7.207   3.797   2.321
 2609TIP3    H2 7785   7.276   3.719   2.430
 2610TIP3   OH2 7786   6.884   2.095   4.818
 2610TIP3    H1 7787   6.880   2.190   4.822
 2610TIP3    H2 7788   6.977   2.074   4.820
 2611TIP3   OH2 7789   4.866   0.817   0.636
 2611TIP3    H1 7790   4.912   0.768   0.703
 2611TIP3    H2 7791   4.935   0.866   0.590
 2612TIP3   OH2 7792   6.240   4.558   0.902
 2612TIP3    H1 7793   6.161   4.590   0.860
 2612TIP3    H2 7794   6.306   4.626   0.886
 2613TIP3   OH2 7795   5.752   2.347   3.246
 2613TIP3    H1 7796   5.664   2.312   3.233
 2613TIP3    H2 7797   5.767   2.341   3.340
 2614TIP3   OH2 7798   0.336   3.339   3.547
 2614TIP3    H1 7799   0.422   3.316   3.513
 2614TIP3    H2 7800   0.333   3.301   3.635
 2615TIP3   OH2 7801   4.998   3.360   4.549
 2615TIP3    H1 7802   4.921   3.303   4.543
 2615TIP3    H2 7803   5.065   3.315   4.497
 2616TIP3   OH2 7804   2.837   6.462   4.625
 2616TIP3    H1 7805   2.814   6.554   4.638
 2616TIP3    H2 7806   2.815   6.445   4.534
 2617TIP3   OH2 7807   4.753   1.582   4.048
 2617TIP3    H1 7808   4.845   1.606   4.064
 2617TIP3    H2 7809   4.704   1.661   4.071
 2618TIP3   OH2 7810   7.040   4.581   1.802
 2618TIP3    H1 7811   7.019   4.556   1.892
 2618TIP3    H2 7812   6.965   4.550   1.751
 2619TIP3   OH2 7813   4.888   5.644   3.102
 2619TIP3    H1 7814   4.979   5.644   3.130
 2619TIP3    H2 7815   4.891   5.648   3.007
 2620TIP3   OH2 7816   7.645   0.377   0.152
 2620TIP3    H1 7817   7.675   0.391   0.242
 2620TIP3    H2 7818   7.617   0.286   0.151
 2621TIP3   OH2 7819   0.610   7.252   6.247
 2621TIP3    H1 7820   0.662   7.284   6.174
 2621TIP3    H2 7821   0.571   7.170   6.216
 2622TIP3   OH2 7822   6.050   5.683   4.680
 2622TIP3    H1 7823   6.057   5.597   4.637
 2622TIP3    H2 7824   6.141   5.710   4.694
 2623TIP3   OH2 7825   5.866   5.984   5.120
 2623TIP3    H1 7826   5.927   6.019   5.184
 2623TIP3    H2 7827   5.779   6.003   5.156
 2624TIP3   OH2 7828   7.620   7.303   5.956
 2624TIP3    H1 7829   7.530   7.322   5.927
 2624TIP3    H2 7830   7.666   7.278   5.876
 2625TIP3   OH2 7831   6.512   2.084   4.174
 2625TIP3    H1 7832   6.558   2.013   4.128
 2625TIP3    H2 7833   6.520   2.159   4.116
 2626TIP3   OH2 7834   0.993   2.130   2.270
 2626TIP3    H1 7835   1.032   2.044   2.253
 2626TIP3    H2 7836   0.994   2.174   2.185
 2627TIP3   OH2 7837   5.009   2.567   2.057
 2627TIP3    H1 7838   4.932   2.517   2.083
 2627TIP3    H2 7839   4.975   2.643   2.010
 2628TIP3   OH2 7840   7.889   6.174   4.574
 2628TIP3    H1 7841   7.814   6.155   4.631
 2628TIP3    H2 7842   7.851   6.220   4.500
 2629TIP3   OH2 7843   6.467   3.747   6.054
 2629TIP3    H1 7844   6.457   3.661   6.096
 2629TIP3    H2 7845   6.433   3.735   5.966
 2630TIP3   OH2 7846   1.961   3.239   2.042
 2630TIP3    H1 7847   2.026   3.190   1.993
 2630TIP3    H2 7848   1.995   3.328   2.045
 2631TIP3   OH2 7849   3.628   3.549   3.694
 2631TIP3    H1 7850   3.568   3.479   3.666
 2631TIP3    H2 7851   3.666   3.582   3.613
 2632TIP3   OH2 7852   6.708   0.251   0.791
 2632TIP3    H1 7853   6.703   0.345   0.803
 2632TIP3    H2 7854   6.780   0.223   0.847
 2633TIP3   OH2 7855   1.341   2.103   2.737
 2633TIP3    H1 7856   1.435   2.120   2.724
 2633TIP3    H2 7857   1.324   2.025   2.685
 2634TIP3   OH2 7858   2.522   5.687   6.350
 2634TIP3    H1 7859   2.596   5.662   6.405
 2634TIP3    H2 7860   2.527   5.627   6.275
 2635TIP3   OH2 7861   0.813   3.707   0.842
 2635TIP3    H1 7862   0.773   3.677   0.761
 2635TIP3    H2 7863   0.900   3.668   0.841
 2636TIP3   OH2 7864   7.411   1.069   4.631
 2636TIP3    H1 7865   7.472   1.024   4.689
 2636TIP3    H2 7866   7.440   1.160   4.631
 2637TIP3   OH2 7867   2.447   1.416   4.503
 2637TIP3    H1 7868   2.482   1.448   4.586
 2637TIP3    H2 7869   2.431   1.323   4.518
 2638TIP3   OH2 7870   1.592   1.015   2.490
 2638TIP3    H1 7871   1.574   0.924   2.515
 2638TIP3    H2 7872   1.627   1.008   2.401
 2639TIP3   OH2 7873   0.912   4.042   2.857
 2639TIP3    H1 7874   0.901   4.134   2.882
 2639TIP3    H2 7875   0.895   3.993   2.937
 2640TIP3   OH2 7876   5.302   7.420   0.346
 2640TIP3    H1 7877   5.355   7.495   0.318
 2640TIP3    H2 7878   5.218   7.459   0.371
 2641TIP3   OH2 7879   2.945   1.488   1.462
 2641TIP3    H1 7880   2.973   1.575   1.491
 2641TIP3    H2 7881   3.021   1.453   1.415
 2642TIP3   OH2 7882   4.619   3.161   3.784
 2642TIP3    H1 7883   4.565   3.104   3.839
 2642TIP3    H2 7884   4.593   3.140   3.695
 2643TIP3   OH2 7885   4.697   0.804   5.080
 2643TIP3    H1 7886   4.670   0.799   5.171
 2643TIP3    H2 7887   4.758   0.731   5.068
 2644TIP3   OH2 7888   2.145   6.759   0.623
 2644TIP3    H1 7889   2.088   6.734   0.696
 2644TIP3    H2 7890   2.230   6.721   0.646
 2645TIP3   OH2 7891   1.727   6.403   4.732
 2645TIP3    H1 7892   1.762   6.485   4.767
 2645TIP3    H2 7893   1.707   6.350   4.809
 2646TIP3   OH2 7894   1.583   4.019   1.194
 2646TIP3    H1 7895   1.490   4.024   1.173
 2646TIP3    H2 7896   1.589   4.053   1.284
 2647TIP3   OH2 7897   2.962   5.049   0.250
 2647TIP3    H1 7898   2.892   5.057   0.185
 2647TIP3    H2 7899   3.014   5.129   0.237
 2648TIP3   OH2 7900   4.637   4.462   5.745
 2648TIP3    H1 7901   4.724   4.473   5.783
 2648TIP3    H2 7902   4.576   4.483   5.817
 2649TIP3   OH2 7903   5.703   7.101   5.316
 2649TIP3    H1 7904   5.711   7.189   5.277
 2649TIP3    H2 7905   5.697   7.117   5.410
 2650TIP3   OH2 7906   5.092   0.819   3.809
 2650TIP3    H1 7907   5.148   0.897   3.807
 2650TIP3    H2 7908   5.027   0.835   3.741
 2651TIP3   OH2 7909   0.543   7.419   4.945
 2651TIP3    H1 7910   0.550   7.365   4.866
 2651TIP3    H2 7911   0.597   7.496   4.926
 2652TIP3   OH2 7912   2.815   5.755   1.101
 2652TIP3    H1 7913   2.727   5.721   1.084
 2652TIP3    H2 7914   2.822   5.754   1.197
 2653TIP3   OH2 7915   4.284   1.896   3.500
 2653TIP3    H1 7916   4.379   1.881   3.498
 2653TIP3    H2 7917   4.275   1.989   3.478
 2654TIP3   OH2 7918   3.160   5.351   1.056
 2654TIP3    H1 7919   3.090   5.369   1.118
 2654TIP3    H2 7920   3.116   5.330   0.974
 2655TIP3   OH2 7921   5.359   2.851   5.561
 2655TIP3    H1 7922   5.317   2.936   5.545
 2655TIP3    H2 7923   5.312   2.790   5.504
 2656TIP3   OH2 7924   7.840   3.159   5.102
 2656TIP3    H1 7925   7.790   3.185   5.025
 2656TIP3    H2 7926   7.931   3.162   5.074
 2657TIP3   OH2 7927   5.979   3.802   0.287
 2657TIP3    H1 7928   6.049   3.766   0.340
 2657TIP3    H2 7929   5.912   3.829   0.350
 2658TIP3   OH2 7930   3.158   6.826   3.835
 2658TIP3    H1 7931   3.113   6.893   3.886
 2658TIP3    H2 7932   3.111   6.745   3.855
 2659TIP3   OH2 7933   7.628   1.711   0.172
 2659TIP3    H1 7934   7.649   1.740   0.261
 2659TIP3    H2 7935   7.534   1.727   0.164
 2660TIP3   OH2 7936   4.039   2.817   1.616
 2660TIP3    H1 7937   3.992   2.752   1.668
 2660TIP3    H2 7938   3.996   2.900   1.639
 2661TIP3   OH2 7939   7.817   2.225   4.732
 2661TIP3    H1 7940   7.722   2.236   4.736
 2661TIP3    H2 7941   7.851   2.312   4.711
 2662TIP3   OH2 7942   1.437   5.481   4.567
 2662TIP3    H1 7943   1.355   5.436   4.552
 2662TIP3    H2 7944   1.427   5.520   4.655
 2663TIP3   OH2 7945   7.382   5.368   6.564
 2663TIP3    H1 7946   7.382   5.381   6.469
 2663TIP3    H2 7947   7.471   5.339   6.585
 2664TIP3   OH2 7948   6.760   1.210   1.712
 2664TIP3    H1 7949   6.777   1.272   1.783
 2664TIP3    H2 7950   6.706   1.142   1.753
 2665TIP3   OH2 7951   5.495   7.361   0.899
 2665TIP3    H1 7952   5.514   7.337   0.990
 2665TIP3    H2 7953   5.498   7.279   0.851
 2666TIP3   OH2 7954   3.610   0.095   0.093
 2666TIP3    H1 7955   3.572   0.009   0.077
 2666TIP3    H2 7956   3.539   0.157   0.074
 2667TIP3   OH2 7957   5.832   2.725   0.210
 2667TIP3    H1 7958   5.904   2.787   0.215
 2667TIP3    H2 7959   5.802   2.714   0.300
 2668TIP3   OH2 7960   1.850   2.489   4.567
 2668TIP3    H1 7961   1.893   2.404   4.581
 2668TIP3    H2 7962   1.909   2.553   4.607
 2669TIP3   OH2 7963   1.750   7.058   6.169
 2669TIP3    H1 7964   1.782   7.103   6.247
 2669TIP3    H2 7965   1.829   7.025   6.126
 2670TIP3   OH2 7966   4.427   1.584   5.966
 2670TIP3    H1 7967   4.350   1.636   5.986
 2670TIP3    H2 7968   4.396   1.519   5.902
 2671TIP3   OH2 7969   1.403   0.844   0.062
 2671TIP3    H1 7970   1.445   0.770   0.019
 2671TIP3    H2 7971   1.309   0.826   0.055
 2672TIP3   OH2 7972   3.025   5.300   2.561
 2672TIP3    H1 7973   3.019   5.394   2.541
 2672TIP3    H2 7974   3.040   5.258   2.477
 2673TIP3   OH2 7975   5.785   6.183   1.635
 2673TIP3    H1 7976   5.703   6.191   1.587
 2673TIP3    H2 7977   5.852   6.213   1.574
 2674TIP3   OH2 7978   2.947   2.012   4.202
 2674TIP3    H1 7979   3.006   2.013   4.127
 2674TIP3    H2 7980   2.928   1.919   4.215
 2675TIP3   OH2 7981   1.988   4.612   1.507
 2675TIP3    H1 7982   2.022   4.525   1.484
 2675TIP3    H2 7983   1.897   4.611   1.475
 2676TIP3   OH2 7984   5.557   1.020   4.453
 2676TIP3    H1 7985   5.630   1.077   4.431
 2676TIP3    H2 7986   5.536   1.041   4.544
 2677TIP3   OH2 7987   5.041   6.954   6.068
 2677TIP3    H1 7988   5.098   6.962   5.992
 2677TIP3    H2 7989   5.075   7.017   6.131
 2678TIP3   OH2 7990   4.708   1.745   2.247
 2678TIP3    H1 7991   4.711   1.751   2.151
 2678TIP3    H2 7992   4.795   1.715   2.272
 2679TIP3   OH2 7993   6.776   3.132   6.228
 2679TIP3    H1 7994   6.722   3.114   6.151
 2679TIP3    H2 7995   6.715   3.131   6.301
 2680TIP3   OH2 7996   5.756   4.677   0.226
 2680TIP3    H1 7997   5.849   4.695   0.212
 2680TIP3    H2 7998   5.749   4.662   0.321
 2681TIP3   OH2 7999   5.919   0.486   3.295
 2681TIP3    H1 8000   5.824   0.495   3.294
 2681TIP3    H2 8001   5.941   0.447   3.210
 2682TIP3   OH2 8002   0.658   3.337   0.099
 2682TIP3    H1 8003   0.567   3.344   0.128
 2682TIP3    H2 8004   0.694   3.425   0.112
 2683TIP3   OH2 8005   5.506   0.731   3.289
 2683TIP3    H1 8006   5.456   0.812   3.283
 2683TIP3    H2 8007   5.463   0.681   3.358
 2684TIP3   OH2 8008   6.152   5.030   1.615
 2684TIP3    H1 8009   6.223   5.078   1.571
 2684TIP3    H2 8010   6.102   4.991   1.544
 2685TIP3   OH2 8011   2.750   2.066   0.828
 2685TIP3    H1 8012   2.750   2.152   0.787
 2685TIP3    H2 8013   2.830   2.025   0.796
 2686TIP3   OH2 8014   4.938   5.482   6.480
 2686TIP3    H1 8015   4.916   5.537   6.556
 2686TIP3    H2 8016   4.924   5.540   6.405
 2687TIP3   OH2 8017   6.418   3.234   2.966
 2687TIP3    H1 8018   6.470   3.156   2.985
 2687TIP3    H2 8019   6.332   3.200   2.941
 2688TIP3   OH2 8020   1.640   5.615   3.651
 2688TIP3    H1 8021   1.621   5.706   3.629
 2688TIP3    H2 8022   1.554   5.576   3.668
 2689TIP3   OH2 8023   7.880   0.745   5.478
 2689TIP3    H1 8024   7.927   0.760   5.560
 2689TIP3    H2 8025   7.788   0.738   5.505
 2690TIP3   OH2 8026   6.299   4.266   2.238
 2690TIP3    H1 8027   6.294   4.171   2.227
 2690TIP3    H2 8028   6.288   4.280   2.332
 2691TIP3   OH2 8029   0.058   4.578   0.985
 2691TIP3    H1 8030   0.022   4.610   1.067
 2691TIP3    H2 8031   0.007   4.499   0.965
 2692TIP3   OH2 8032   7.721   5.074   4.476
 2692TIP3    H1 8033   7.741   5.166   4.491
 2692TIP3    H2 8034   7.705   5.038   4.563
 2693TIP3   OH2 8035   7.583   2.835   1.225
 2693TIP3    H1 8036   7.490   2.822   1.203
 2693TIP3    H2 8037   7.585   2.836   1.320
 2694TIP3   OH2 8038   1.015   0.918   6.546
 2694TIP3    H1 8039   1.009   0.967   6.464
 2694TIP3    H2 8040   1.108   0.919   6.568
 2695TIP3   OH2 8041   2.728   6.562   3.173
 2695TIP3    H1 8042   2.681   6.483   3.146
 2695TIP3    H2 8043   2.676   6.597   3.245
 2696TIP3   OH2 8044   1.136   4.150   5.310
 2696TIP3    H1 8045   1.150   4.240   5.279
 2696TIP3    H2 8046   1.138   4.157   5.406
 2697TIP3   OH2 8047   7.494   5.740   6.582
 2697TIP3    H1 8048   7.548   5.803   6.630
 2697TIP3    H2 8049   7.469   5.675   6.648
 2698TIP3   OH2 8050   1.312   5.691   2.777
 2698TIP3    H1 8051   1.375   5.708   2.708
 2698TIP3    H2 8052   1.333   5.603   2.809
 2699TIP3   OH2 8053   1.673   5.882   6.656
 2699TIP3    H1 8054   1.592   5.884   6.708
 2699TIP3    H2 8055   1.702   5.791   6.660
 2700TIP3   OH2 8056   7.411   7.582   3.332
 2700TIP3    H1 8057   7.464   7.660   3.349
 2700TIP3    H2 8058   7.360   7.604   3.254
 2701TIP3   OH2 8059   5.475   6.746   1.123
 2701TIP3    H1 8060   5.432   6.791   1.195
 2701TIP3    H2 8061   5.404   6.705   1.074
 2702TIP3   OH2 8062   2.372   2.464   1.874
 2702TIP3    H1 8063   2.352   2.532   1.939
 2702TIP3    H2 8064   2.306   2.397   1.889
 2703TIP3   OH2 8065   6.776   0.641   1.241
 2703TIP3    H1 8066   6.776   0.550   1.271
 2703TIP3    H2 8067   6.762   0.693   1.320
 2704TIP3   OH2 8068   5.108   1.246   2.213
 2704TIP3    H1 8069   5.088   1.207   2.128
 2704TIP3    H2 8070   5.022   1.263   2.252
 2705TIP3   OH2 8071   6.468   3.786   3.280
 2705TIP3    H1 8072   6.498   3.732   3.207
 2705TIP3    H2 8073   6.448   3.724   3.349
 2706TIP3   OH2 8074   0.737   4.517   0.083
 2706TIP3    H1 8075   0.746   4.439   0.138
 2706TIP3    H2 8076   0.791   4.583   0.127
 2707TIP3   OH2 8077   2.142   7.032   6.409
 2707TIP3    H1 8078   2.176   7.014   6.497
 2707TIP3    H2 8079   2.124   6.946   6.372
 2708TIP3   OH2 8080   1.100   6.048   6.695
 2708TIP3    H1 8081   1.011   6.083   6.706
 2708TIP3    H2 8082   1.105   5.974   6.755
 2709TIP3   OH2 8083   3.131   4.726   2.400
 2709TIP3    H1 8084   3.039   4.748   2.416
 2709TIP3    H2 8085   3.146   4.648   2.454
 2710TIP3   OH2 8086   4.889   4.382   6.183
 2710TIP3    H1 8087   4.935   4.433   6.250
 2710TIP3    H2 8088   4.798   4.380   6.213
 2711TIP3   OH2 8089   7.013   6.445   4.318
 2711TIP3    H1 8090   7.057   6.527   4.296
 2711TIP3    H2 8091   6.920   6.466   4.319
 2712TIP3   OH2 8092   0.831   7.126   1.238
 2712TIP3    H1 8093   0.777   7.097   1.164
 2712TIP3    H2 8094   0.770   7.132   1.311
 2713TIP3   OH2 8095   4.521   6.040   5.525
 2713TIP3    H1 8096   4.530   5.963   5.468
 2713TIP3    H2 8097   4.468   6.010   5.599
 2714TIP3   OH2 8098   6.229   3.055   2.973
 2714TIP3    H1 8099   6.259   2.991   2.909
 2714TIP3    H2 8100   6.152   3.014   3.014
 2715TIP3   OH2 8101   2.242   5.880   3.522
 2715TIP3    H1 8102   2.285   5.810   3.570
 2715TIP3    H2 8103   2.224   5.947   3.588
 2716TIP3   OH2 8104   3.154   7.674   4.643
 2716TIP3    H1 8105   3.073   7.715   4.672
 2716TIP3    H2 8106   3.175   7.717   4.560
 2717TIP3   OH2 8107   2.907   3.153   5.069
 2717TIP3    H1 8108   2.845   3.225   5.077
 2717TIP3    H2 8109   2.928   3.150   4.976
 2718TIP3   OH2 8110   0.784   5.052   5.830
 2718TIP3    H1 8111   0.835   4.986   5.877
 2718TIP3    H2 8112   0.805   5.037   5.738
 2719TIP3   OH2 8113   2.748   0.855   3.449
 2719TIP3    H1 8114   2.700   0.899   3.379
 2719TIP3    H2 8115   2.814   0.802   3.403
 2720TIP3   OH2 8116   2.174   2.052   4.831
 2720TIP3    H1 8117   2.256   2.094   4.807
 2720TIP3    H2 8118   2.199   1.965   4.862
 2721TIP3   OH2 8119   8.126   1.034   0.090
 2721TIP3    H1 8120   8.098   1.119   0.126
 2721TIP3    H2 8121   8.071   0.970   0.136
 2722TIP3   OH2 8122   5.407   2.368   0.426
 2722TIP3    H1 8123   5.426   2.346   0.335
 2722TIP3    H2 8124   5.322   2.413   0.422
 2723TIP3   OH2 8125   7.113   4.563   6.110
 2723TIP3    H1 8126   7.061   4.561   6.190
 2723TIP3    H2 8127   7.146   4.474   6.101
 2724TIP3   OH2 8128   5.966   0.553   6.428
 2724TIP3    H1 8129   5.969   0.587   6.517
 2724TIP3    H2 8130   6.021   0.475   6.429
 2725TIP3   OH2 8131   4.012   5.111   5.842
 2725TIP3    H1 8132   3.970   5.153   5.766
 2725TIP3    H2 8133   3.994   5.171   5.915
 2726TIP3   OH2 8134   6.106   6.002   0.172
 2726TIP3    H1 8135   6.109   5.999   0.267
 2726TIP3    H2 8136   6.159   6.078   0.148
 2727TIP3   OH2 8137   0.471   0.061   5.036
 2727TIP3    H1 8138   0.462   0.044   4.942
 2727TIP3    H2 8139   0.443   0.152   5.047
 2728TIP3   OH2 8140   0.750   0.839   6.575
 2728TIP3    H1 8141   0.744   0.795   6.660
 2728TIP3    H2 8142   0.842   0.867   6.569
 2729TIP3   OH2 8143   6.905   0.889   2.068
 2729TIP3    H1 8144   6.977   0.950   2.085
 2729TIP3    H2 8145   6.840   0.910   2.136
 2730TIP3   OH2 8146   6.481   4.700   2.725
 2730TIP3    H1 8147   6.559   4.667   2.770
 2730TIP3    H2 8148   6.494   4.795   2.722
 2731TIP3   OH2 8149   2.545   7.270   4.393
 2731TIP3    H1 8150   2.477   7.301   4.333
 2731TIP3    H2 8151   2.498   7.216   4.457
 2732TIP3   OH2 8152   6.924   5.408   5.811
 2732TIP3    H1 8153   6.887   5.321   5.795
 2732TIP3    H2 8154   6.929   5.415   5.906
 2733TIP3   OH2 8155   3.493   1.026   6.255
 2733TIP3    H1 8156   3.544   0.986   6.184
 2733TIP3    H2 8157   3.517   0.975   6.333
 2734TIP3   OH2 8158   7.430   4.606   1.044
 2734TIP3    H1 8159   7.411   4.521   1.083
 2734TIP3    H2 8160   7.368   4.614   0.971
 2735TIP3   OH2 8161   4.792   0.418   6.437
 2735TIP3    H1 8162   4.827   0.494   6.390
 2735TIP3    H2 8163   4.727   0.455   6.497
 2736TIP3   OH2 8164   1.804   5.618   0.819
 2736TIP3    H1 8165   1.857   5.694   0.842
 2736TIP3    H2 8166   1.847   5.545   0.862
 2737TIP3   OH2 8167   5.981   5.661   1.826
 2737TIP3    H1 8168   6.016   5.574   1.846
 2737TIP3    H2 8169   5.958   5.656   1.733
 2738TIP3   OH2 8170   7.381   6.709   0.609
 2738TIP3    H1 8171   7.322   6.719   0.683
 2738TIP3    H2 8172   7.357   6.780   0.550
 2739TIP3   OH2 8173   2.444   7.227   5.510
 2739TIP3    H1 8174   2.409   7.140   5.492
 2739TIP3    H2 8175   2.522   7.212   5.563
 2740TIP3   OH2 8176   2.184   6.269   2.468
 2740TIP3    H1 8177   2.198   6.179   2.496
 2740TIP3    H2 8178   2.248   6.283   2.397
 2741TIP3   OH2 8179   1.651   5.868   1.761
 2741TIP3    H1 8180   1.703   5.948   1.765
 2741TIP3    H2 8181   1.587   5.877   1.832
 2742TIP3   OH2 8182   3.810   5.254   4.766
 2742TIP3    H1 8183   3.901   5.268   4.790
 2742TIP3    H2 8184   3.809   5.167   4.725
 2743TIP3   OH2 8185   1.639   0.224   5.935
 2743TIP3    H1 8186   1.576   0.153   5.924
 2743TIP3    H2 8187   1.724   0.185   5.916
 2744TIP3   OH2 8188   6.389   5.143   0.556
 2744TIP3    H1 8189   6.483   5.150   0.544
 2744TIP3    H2 8190   6.368   5.212   0.620
 2745TIP3   OH2 8191   5.445   5.916   2.122
 2745TIP3    H1 8192   5.438   5.940   2.215
 2745TIP3    H2 8193   5.481   5.828   2.124
 2746TIP3   OH2 8194   4.729   3.002   6.369
 2746TIP3    H1 8195   4.775   2.955   6.438
 2746TIP3    H2 8196   4.766   3.091   6.371
 2747TIP3   OH2 8197   6.427   0.366   0.492
 2747TIP3    H1 8198   6.416   0.390   0.584
 2747TIP3    H2 8199   6.468   0.279   0.494
 2748TIP3   OH2 8200   5.083   7.562   3.850
 2748TIP3    H1 8201   5.152   7.513   3.805
 2748TIP3    H2 8202   5.076   7.645   3.802
 2749TIP3   OH2 8203   6.037   0.946   2.599
 2749TIP3    H1 8204   5.975   1.010   2.562
 2749TIP3    H2 8205   6.020   0.866   2.549
 2750TIP3   OH2 8206   0.239   1.016   2.602
 2750TIP3    H1 8207   0.227   1.008   2.508
 2750TIP3    H2 8208   0.234   1.110   2.619
 2751TIP3   OH2 8209   3.538   1.005   2.552
 2751TIP3    H1 8210   3.609   1.020   2.614
 2751TIP3    H2 8211   3.458   1.012   2.606
 2752TIP3   OH2 8212   6.912   2.912   3.254
 2752TIP3    H1 8213   6.902   3.005   3.275
 2752TIP3    H2 8214   6.976   2.880   3.318
 2753TIP3   OH2 8215   3.835   5.514   4.603
 2753TIP3    H1 8216   3.788   5.527   4.521
 2753TIP3    H2 8217   3.808   5.426   4.632
 2754TIP3   OH2 8218   7.365   3.597   4.688
 2754TIP3    H1 8219   7.329   3.530   4.745
 2754TIP3    H2 8220   7.429   3.643   4.742
 2755TIP3   OH2 8221   7.124   1.736   3.410
 2755TIP3    H1 8222   7.035   1.741   3.445
 2755TIP3    H2 8223   7.171   1.806   3.455
 2756TIP3   OH2 8224   0.501   4.237   2.001
 2756TIP3    H1 8225   0.560   4.306   2.032
 2756TIP3    H2 8226   0.495   4.252   1.906
 2757TIP3   OH2 8227   7.028   3.854   1.721
 2757TIP3    H1 8228   7.095   3.786   1.713
 2757TIP3    H2 8229   6.947   3.806   1.736
 2758TIP3   OH2 8230   6.034   5.509   0.655
 2758TIP3    H1 8231   5.960   5.504   0.595
 2758TIP3    H2 8232   6.034   5.600   0.685
 2759TIP3   OH2 8233   4.383   7.382   0.126
 2759TIP3    H1 8234   4.465   7.409   0.167
 2759TIP3    H2 8235   4.366   7.450   0.061
 2760TIP3   OH2 8236   6.810   7.294   6.005
 2760TIP3    H1 8237   6.846   7.207   6.021
 2760TIP3    H2 8238   6.748   7.282   5.934
 2761TIP3   OH2 8239   1.848   5.482   2.814
 2761TIP3    H1 8240   1.764   5.492   2.860
 2761TIP3    H2 8241   1.913   5.482   2.884
 2762TIP3   OH2 8242   6.982   1.400   4.966
 2762TIP3    H1 8243   7.071   1.369   4.979
 2762TIP3    H2 8244   6.968   1.462   5.038
 2763TIP3   OH2 8245   7.832   0.703   0.805
 2763TIP3    H1 8246   7.787   0.720   0.887
 2763TIP3    H2 8247   7.809   0.613   0.783
 2764TIP3   OH2 8248   5.893   7.438   1.542
 2764TIP3    H1 8249   5.893   7.424   1.636
 2764TIP3    H2 8250   5.802   7.423   1.515
 2765TIP3   OH2 8251   8.126   6.543   5.951
 2765TIP3    H1 8252   8.105   6.636   5.962
 2765TIP3    H2 8253   8.186   6.541   5.876
 2766TIP3   OH2 8254   1.344   3.577   4.182
 2766TIP3    H1 8255   1.338   3.486   4.153
 2766TIP3    H2 8256   1.260   3.615   4.158
 2767TIP3   OH2 8257   7.958   2.414   1.040
 2767TIP3    H1 8258   7.948   2.467   0.961
 2767TIP3    H2 8259   7.999   2.333   1.009
 2768TIP3   OH2 8260   5.620   3.044   4.552
 2768TIP3    H1 8261   5.589   3.034   4.642
 2768TIP3    H2 8262   5.570   3.119   4.518
 2769TIP3   OH2 8263   3.255   5.430   4.457
 2769TIP3    H1 8264   3.301   5.348   4.441
 2769TIP3    H2 8265   3.209   5.416   4.540
 2770TIP3   OH2 8266   0.867   3.120   2.537
 2770TIP3    H1 8267   0.959   3.146   2.534
 2770TIP3    H2 8268   0.823   3.180   2.478
 2771TIP3   OH2 8269   4.599   3.872   0.462
 2771TIP3    H1 8270   4.527   3.820   0.425
 2771TIP3    H2 8271   4.667   3.869   0.395
 2772TIP3   OH2 8272   8.271   6.667   1.842
 2772TIP3    H1 8273   8.315   6.736   1.892
 2772TIP3    H2 8274   8.339   6.631   1.786
 2773TIP3   OH2 8275   5.879   1.958   5.542
 2773TIP3    H1 8276   5.797   1.991   5.504
 2773TIP3    H2 8277   5.853   1.879   5.589
 2774TIP3   OH2 8278   1.403   5.453   2.045
 2774TIP3    H1 8279   1.316   5.470   2.080
 2774TIP3    H2 8280   1.404   5.497   1.960
 2775TIP3   OH2 8281   0.895   6.570   0.012
 2775TIP3    H1 8282   0.832   6.573   0.084
 2775TIP3    H2 8283   0.967   6.626   0.041
 2776TIP3   OH2 8284   2.193   0.526   1.065
 2776TIP3    H1 8285   2.132   0.600   1.066
 2776TIP3    H2 8286   2.138   0.450   1.083
 2777TIP3   OH2 8287   4.293   3.618   1.762
 2777TIP3    H1 8288   4.267   3.533   1.798
 2777TIP3    H2 8289   4.277   3.610   1.668
 2778TIP3   OH2 8290   1.283   0.419   6.618
 2778TIP3    H1 8291   1.212   0.452   6.673
 2778TIP3    H2 8292   1.261   0.452   6.530
 2779TIP3   OH2 8293   2.115   5.392   5.811
 2779TIP3    H1 8294   2.022   5.397   5.787
 2779TIP3    H2 8295   2.146   5.312   5.769
 2780TIP3   OH2 8296   2.684   2.936   2.316
 2780TIP3    H1 8297   2.712   2.992   2.389
 2780TIP3    H2 8298   2.625   2.992   2.265
 2781TIP3   OH2 8299   7.285   6.995   5.217
 2781TIP3    H1 8300   7.263   6.931   5.285
 2781TIP3    H2 8301   7.376   7.017   5.235
 2782TIP3   OH2 8302   4.051   1.087   3.927
 2782TIP3    H1 8303   4.134   1.040   3.924
 2782TIP3    H2 8304   4.015   1.066   4.013
 2783TIP3   OH2 8305   2.257   1.233   5.541
 2783TIP3    H1 8306   2.259   1.201   5.631
 2783TIP3    H2 8307   2.164   1.252   5.524
 2784TIP3   OH2 8308   7.718   6.300   4.392
 2784TIP3    H1 8309   7.739   6.373   4.333
 2784TIP3    H2 8310   7.660   6.244   4.341
 2785TIP3   OH2 8311   5.186   0.500   4.426
 2785TIP3    H1 8312   5.219   0.433   4.486
 2785TIP3    H2 8313   5.203   0.583   4.471
 2786TIP3   OH2 8314   4.360   6.570   4.673
 2786TIP3    H1 8315   4.447   6.573   4.634
 2786TIP3    H2 8316   4.367   6.503   4.741
 2787TIP3   OH2 8317   5.324   2.305   3.471
 2787TIP3    H1 8318   5.245   2.350   3.441
 2787TIP3    H2 8319   5.395   2.368   3.457
 2788TIP3   OH2 8320   5.341   5.350   3.746
 2788TIP3    H1 8321   5.353   5.365   3.840
 2788TIP3    H2 8322   5.291   5.269   3.741
 2789TIP3   OH2 8323   0.724   0.826   2.657
 2789TIP3    H1 8324   0.675   0.876   2.722
 2789TIP3    H2 8325   0.667   0.824   2.580
 2790TIP3   OH2 8326   4.821   5.854   0.806
 2790TIP3    H1 8327   4.752   5.831   0.868
 2790TIP3    H2 8328   4.844   5.944   0.827
 2791TIP3   OH2 8329   8.035   5.120   0.870
 2791TIP3    H1 8330   7.941   5.136   0.884
 2791TIP3    H2 8331   8.041   5.094   0.778
 2792TIP3   OH2 8332   0.211   6.701   3.118
 2792TIP3    H1 8333   0.248   6.640   3.182
 2792TIP3    H2 8334   0.131   6.734   3.160
 2793TIP3   OH2 8335   5.844   5.941   2.830
 2793TIP3    H1 8336   5.841   5.934   2.735
 2793TIP3    H2 8337   5.934   5.921   2.853
 2794TIP3   OH2 8338   3.229   5.613   6.500
 2794TIP3    H1 8339   3.191   5.689   6.543
 2794TIP3    H2 8340   3.154   5.560   6.473
 2795TIP3   OH2 8341   6.216   0.693   0.096
 2795TIP3    H1 8342   6.226   0.651   0.010
 2795TIP3    H2 8343   6.215   0.621   0.158
 2796TIP3   OH2 8344   5.896   3.165   6.081
 2796TIP3    H1 8345   5.845   3.224   6.138
 2796TIP3    H2 8346   5.872   3.192   5.992
 2797TIP3   OH2 8347   3.771   1.861   6.039
 2797TIP3    H1 8348   3.812   1.800   5.977
 2797TIP3    H2 8349   3.743   1.935   5.985
 2798TIP3   OH2 8350   2.513   1.482   4.240
 2798TIP3    H1 8351   2.605   1.501   4.259
 2798TIP3    H2 8352   2.475   1.462   4.326
 2799TIP3   OH2 8353   6.114   0.757   0.952
 2799TIP3    H1 8354   6.039   0.795   0.998
 2799TIP3    H2 8355   6.181   0.746   1.020
 2800TIP3   OH2 8356   3.405   3.896   5.301
 2800TIP3    H1 8357   3.493   3.919   5.270
 2800TIP3    H2 8358   3.420   3.830   5.368
 2801TIP3   OH2 8359   1.153   7.011   0.791
 2801TIP3    H1 8360   1.087   7.001   0.860
 2801TIP3    H2 8361   1.232   6.970   0.827
 2802TIP3   OH2 8362   7.560   2.213   1.430
 2802TIP3    H1 8363   7.547   2.209   1.335
 2802TIP3    H2 8364   7.608   2.295   1.444
 2803TIP3   OH2 8365   0.959   2.685   4.673
 2803TIP3    H1 8366   1.005   2.614   4.628
 2803TIP3    H2 8367   1.028   2.735   4.717
 2804TIP3   OH2 8368   7.125   4.828   2.253
 2804TIP3    H1 8369   7.153   4.765   2.187
 2804TIP3    H2 8370   7.030   4.818   2.257
 2805TIP3   OH2 8371   8.042   4.863   2.833
 2805TIP3    H1 8372   8.073   4.848   2.922
 2805TIP3    H2 8373   8.054   4.780   2.788
 2806TIP3   OH2 8374   3.352   5.303   6.113
 2806TIP3    H1 8375   3.266   5.341   6.132
 2806TIP3    H2 8376   3.400   5.374   6.070
 2807TIP3   OH2 8377   3.611   6.889   1.854
 2807TIP3    H1 8378   3.619   6.888   1.950
 2807TIP3    H2 8379   3.517   6.881   1.838
 2808TIP3   OH2 8380   1.542   6.242   4.589
 2808TIP3    H1 8381   1.592   6.167   4.556
 2808TIP3    H2 8382   1.602   6.287   4.649
 2809TIP3   OH2 8383   1.021   7.687   5.119
 2809TIP3    H1 8384   0.952   7.681   5.053
 2809TIP3    H2 8385   0.979   7.724   5.196
 2810TIP3   OH2 8386   4.871   6.217   5.952
 2810TIP3    H1 8387   4.949   6.193   5.902
 2810TIP3    H2 8388   4.798   6.183   5.900
 2811TIP3   OH2 8389   0.187   5.986   5.989
 2811TIP3    H1 8390   0.261   6.015   5.935
 2811TIP3    H2 8391   0.227   5.952   6.068
 2812TIP3   OH2 8392   2.072   6.281   3.565
 2812TIP3    H1 8393   2.080   6.326   3.649
 2812TIP3    H2 8394   1.986   6.308   3.532
 2813TIP3   OH2 8395   0.877   5.995   2.787
 2813TIP3    H1 8396   0.949   5.973   2.728
 2813TIP3    H2 8397   0.878   6.091   2.791
 2814TIP3   OH2 8398   7.833   4.564   5.301
 2814TIP3    H1 8399   7.858   4.477   5.331
 2814TIP3    H2 8400   7.744   4.576   5.336
 2815TIP3   OH2 8401   3.184   7.078   5.336
 2815TIP3    H1 8402   3.171   7.096   5.243
 2815TIP3    H2 8403   3.101   7.101   5.377
 2816TIP3   OH2 8404   2.586   3.575   3.600
 2816TIP3    H1 8405   2.666   3.542   3.642
 2816TIP3    H2 8406   2.590   3.542   3.511
 2817TIP3   OH2 8407   2.482   1.015   2.270
 2817TIP3    H1 8408   2.519   1.103   2.280
 2817TIP3    H2 8409   2.555   0.956   2.290
 2818TIP3   OH2 8410   5.320   4.252   5.015
 2818TIP3    H1 8411   5.387   4.214   4.959
 2818TIP3    H2 8412   5.239   4.244   4.964
 2819TIP3   OH2 8413   6.255   3.427   4.993
 2819TIP3    H1 8414   6.240   3.432   5.087
 2819TIP3    H2 8415   6.350   3.429   4.983
 2820TIP3   OH2 8416   3.690   6.578   5.716
 2820TIP3    H1 8417   3.680   6.633   5.638
 2820TIP3    H2 8418   3.772   6.530   5.701
 2821TIP3   OH2 8419   2.869   4.804   2.505
 2821TIP3    H1 8420   2.814   4.750   2.561
 2821TIP3    H2 8421   2.866   4.891   2.544
 2822TIP3   OH2 8422   2.310   6.198   3.418
 2822TIP3    H1 8423   2.214   6.197   3.420
 2822TIP3    H2 8424   2.334   6.118   3.372
 2823TIP3   OH2 8425   6.591   7.427   0.485
 2823TIP3    H1 8426   6.539   7.386   0.554
 2823TIP3    H2 8427   6.544   7.405   0.404
 2824TIP3   OH2 8428   5.493   0.041   2.193
 2824TIP3    H1 8429   5.553   0.107   2.157
 2824TIP3    H2 8430   5.432   0.092   2.246
 2825TIP3   OH2 8431   4.227   4.720   5.766
 2825TIP3    H1 8432   4.280   4.722   5.845
 2825TIP3    H2 8433   4.223   4.627   5.741
 2826TIP3   OH2 8434   6.086   5.083   6.390
 2826TIP3    H1 8435   5.997   5.118   6.386
 2826TIP3    H2 8436   6.142   5.160   6.390
 2827TIP3   OH2 8437   7.474   5.120   3.816
 2827TIP3    H1 8438   7.435   5.194   3.771
 2827TIP3    H2 8439   7.437   5.123   3.904
 2828TIP3   OH2 8440   3.388   2.382   4.368
 2828TIP3    H1 8441   3.302   2.391   4.410
 2828TIP3    H2 8442   3.383   2.439   4.291
 2829TIP3   OH2 8443   0.787   6.717   0.641
 2829TIP3    H1 8444   0.837   6.721   0.560
 2829TIP3    H2 8445   0.726   6.645   0.627
 2830TIP3   OH2 8446   0.311   7.465   5.936
 2830TIP3    H1 8447   0.332   7.391   5.993
 2830TIP3    H2 8448   0.386   7.524   5.944
 2831TIP3   OH2 8449   0.638   5.676   2.238
 2831TIP3    H1 8450   0.605   5.598   2.193
 2831TIP3    H2 8451   0.623   5.658   2.331
 2832TIP3   OH2 8452   1.415   6.397   5.904
 2832TIP3    H1 8453   1.399   6.369   5.814
 2832TIP3    H2 8454   1.396   6.491   5.903
 2833TIP3   OH2 8455   3.142   6.900   2.056
 2833TIP3    H1 8456   3.174   6.824   2.105
 2833TIP3    H2 8457   3.112   6.961   2.124
 2834TIP3   OH2 8458   6.187   7.162   5.990
 2834TIP3    H1 8459   6.208   7.127   6.077
 2834TIP3    H2 8460   6.191   7.086   5.932
 2835TIP3   OH2 8461   2.314   7.531   5.720
 2835TIP3    H1 8462   2.397   7.566   5.688
 2835TIP3    H2 8463   2.338   7.479   5.797
 2836TIP3   OH2 8464   2.667   1.866   2.811
 2836TIP3    H1 8465   2.630   1.806   2.876
 2836TIP3    H2 8466   2.760   1.845   2.809
 2837TIP3   OH2 8467   8.034   6.204   3.924
 2837TIP3    H1 8468   7.948   6.214   3.964
 2837TIP3    H2 8469   8.093   6.186   3.998
 2838TIP3   OH2 8470   5.476   1.750   4.513
 2838TIP3    H1 8471   5.420   1.781   4.583
 2838TIP3    H2 8472   5.504   1.829   4.467
 2839TIP3   OH2 8473   8.063   3.502   5.009
 2839TIP3    H1 8474   8.113   3.581   5.030
 2839TIP3    H2 8475   7.983   3.511   5.060
 2840TIP3   OH2 8476   3.661   1.825   5.222
 2840TIP3    H1 8477   3.633   1.903   5.268
 2840TIP3    H2 8478   3.671   1.853   5.131
 2841TIP3   OH2 8479   1.535   6.746   3.554
 2841TIP3    H1 8480   1.627   6.744   3.528
 2841TIP3    H2 8481   1.507   6.655   3.552
 2842TIP3   OH2 8482   3.029   3.008   2.811
 2842TIP3    H1 8483   3.069   3.062   2.742
 2842TIP3    H2 8484   3.001   2.928   2.766
 2843TIP3   OH2 8485   2.690   0.089   5.883
 2843TIP3    H1 8486   2.604   0.126   5.900
 2843TIP3    H2 8487   2.729   0.080   5.970
 2844TIP3   OH2 8488   7.620   7.231   4.626
 2844TIP3    H1 8489   7.525   7.219   4.619
 2844TIP3    H2 8490   7.657   7.149   4.593
 2845TIP3   OH2 8491   1.181   5.193   0.120
 2845TIP3    H1 8492   1.133   5.271   0.092
 2845TIP3    H2 8493   1.168   5.189   0.215
 2846TIP3   OH2 8494   4.670   5.647   5.848
 2846TIP3    H1 8495   4.744   5.595   5.879
 2846TIP3    H2 8496   4.673   5.727   5.900
 2847TIP3   OH2 8497   4.752   5.516   6.188
 2847TIP3    H1 8498   4.664   5.485   6.167
 2847TIP3    H2 8499   4.807   5.476   6.120
 2848TIP3   OH2 8500   6.206   7.143   5.566
 2848TIP3    H1 8501   6.125   7.164   5.612
 2848TIP3    H2 8502   6.178   7.097   5.487
 2849TIP3   OH2 8503   2.147   3.985   0.553
 2849TIP3    H1 8504   2.134   3.891   0.567
 2849TIP3    H2 8505   2.191   4.015   0.633
 2850TIP3   OH2 8506   2.850   5.879   4.259
 2850TIP3    H1 8507   2.797   5.799   4.269
 2850TIP3    H2 8508   2.795   5.937   4.206
 2851TIP3   OH2 8509   3.114   2.366   5.525
 2851TIP3    H1 8510   3.092   2.374   5.618
 2851TIP3    H2 8511   3.156   2.450   5.504
 2852TIP3   OH2 8512   7.254   7.042   2.050
 2852TIP3    H1 8513   7.227   6.965   2.001
 2852TIP3    H2 8514   7.286   7.103   1.984
 2853TIP3   OH2 8515   3.615   7.015   0.667
 2853TIP3    H1 8516   3.551   7.071   0.712
 2853TIP3    H2 8517   3.617   7.048   0.577
 2854TIP3   OH2 8518   0.186   4.417   2.466
 2854TIP3    H1 8519   0.183   4.409   2.370
 2854TIP3    H2 8520   0.171   4.327   2.498
 2855TIP3   OH2 8521   6.063   0.756   1.651
 2855TIP3    H1 8522   6.142   0.795   1.688
 2855TIP3    H2 8523   5.993   0.784   1.709
 2856TIP3   OH2 8524   1.157   6.947   2.966
 2856TIP3    H1 8525   1.062   6.961   2.964
 2856TIP3    H2 8526   1.172   6.871   2.909
 2857TIP3   OH2 8527   4.450   4.597   1.362
 2857TIP3    H1 8528   4.368   4.647   1.370
 2857TIP3    H2 8529   4.431   4.529   1.298
 2858TIP3   OH2 8530   5.914   3.868   3.623
 2858TIP3    H1 8531   5.877   3.841   3.539
 2858TIP3    H2 8532   6.003   3.895   3.603
 2859TIP3   OH2 8533   4.063   0.737   6.614
 2859TIP3    H1 8534   4.064   0.774   6.526
 2859TIP3    H2 8535   4.036   0.811   6.670
 2860TIP3   OH2 8536   2.838   3.940   0.859
 2860TIP3    H1 8537   2.848   3.953   0.953
 2860TIP3    H2 8538   2.810   4.026   0.826
 2861TIP3   OH2 8539   2.995   4.919   6.605
 2861TIP3    H1 8540   3.006   5.014   6.609
 2861TIP3    H2 8541   3.033   4.895   6.521
 2862TIP3   OH2 8542   5.024   2.063   5.226
 2862TIP3    H1 8543   4.968   2.123   5.274
 2862TIP3    H2 8544   5.060   2.005   5.292
 2863TIP3   OH2 8545   5.352   7.186   6.523
 2863TIP3    H1 8546   5.270   7.178   6.571
 2863TIP3    H2 8547   5.352   7.276   6.491
 2864TIP3   OH2 8548   0.368   3.404   5.023
 2864TIP3    H1 8549   0.306   3.346   4.979
 2864TIP3    H2 8550   0.451   3.387   4.979
 2865TIP3   OH2 8551   1.938   5.431   0.971
 2865TIP3    H1 8552   2.033   5.423   0.977
 2865TIP3    H2 8553   1.908   5.432   1.062
 2866TIP3   OH2 8554   3.896   3.612   4.741
 2866TIP3    H1 8555   3.808   3.587   4.714
 2866TIP3    H2 8556   3.940   3.638   4.660
 2867TIP3   OH2 8557   0.064   0.858   0.416
 2867TIP3    H1 8558   0.073   0.828   0.325
 2867TIP3    H2 8559  -0.015   0.815   0.448
 2868TIP3   OH2 8560   7.076   6.568   1.782
 2868TIP3    H1 8561   7.059   6.616   1.701
 2868TIP3    H2 8562   7.006   6.503   1.786
 2869TIP3   OH2 8563   4.446   5.150   5.640
 2869TIP3    H1 8564   4.443   5.057   5.664
 2869TIP3    H2 8565   4.491   5.192   5.714
 2870TIP3   OH2 8566   1.553   1.421   5.750
 2870TIP3    H1 8567   1.477   1.386   5.796
 2870TIP3    H2 8568   1.527   1.508   5.722
 2871TIP3   OH2 8569   2.664   3.477   5.646
 2871TIP3    H1 8570   2.578   3.467   5.687
 2871TIP3    H2 8571   2.646   3.472   5.552
 2872TIP3   OH2 8572   3.774   2.863   3.868
 2872TIP3    H1 8573   3.777   2.786   3.811
 2872TIP3    H2 8574   3.829   2.839   3.943
 2873TIP3   OH2 8575   5.284   2.990   0.132
 2873TIP3    H1 8576   5.300   2.908   0.178
 2873TIP3    H2 8577   5.189   3.003   0.136
 2874TIP3   OH2 8578   0.916   5.609   3.613
 2874TIP3    H1 8579   0.846   5.633   3.673
 2874TIP3    H2 8580   0.871   5.575   3.536
 2875TIP3   OH2 8581   6.405   6.518   0.066
 2875TIP3    H1 8582   6.317   6.502   0.099
 2875TIP3    H2 8583   6.392   6.553  -0.022
 2876TIP3   OH2 8584   6.253   0.144   0.035
 2876TIP3    H1 8585   6.275   0.067   0.088
 2876TIP3    H2 8586   6.199   0.198   0.092
 2877TIP3   OH2 8587   4.471   2.685   4.674
 2877TIP3    H1 8588   4.459   2.711   4.582
 2877TIP3    H2 8589   4.412   2.743   4.723
 2878TIP3   OH2 8590   4.900   0.190   6.553
 2878TIP3    H1 8591   4.889   0.284   6.568
 2878TIP3    H2 8592   4.922   0.184   6.460
 2879TIP3   OH2 8593   6.865   4.699   1.417
 2879TIP3    H1 8594   6.848   4.727   1.327
 2879TIP3    H2 8595   6.897   4.609   1.409
 2880TIP3   OH2 8596   5.412   6.913   5.568
 2880TIP3    H1 8597   5.442   6.937   5.656
 2880TIP3    H2 8598   5.383   6.995   5.529
 2881TIP3   OH2 8599   2.169   0.689   5.719
 2881TIP3    H1 8600   2.160   0.610   5.665
 2881TIP3    H2 8601   2.080   0.713   5.743
 2882TIP3   OH2 8602   1.531   3.454   2.213
 2882TIP3    H1 8603   1.544   3.387   2.146
 2882TIP3    H2 8604   1.544   3.408   2.296
 2883TIP3   OH2 8605   3.506   4.386   4.456
 2883TIP3    H1 8606   3.501   4.430   4.371
 2883TIP3    H2 8607   3.468   4.448   4.518
 2884TIP3   OH2 8608   5.368   7.668   4.400
 2884TIP3    H1 8609   5.454   7.708   4.412
 2884TIP3    H2 8610   5.317   7.733   4.353
 2885TIP3   OH2 8611   6.285   6.193   5.267
 2885TIP3    H1 8612   6.321   6.236   5.345
 2885TIP3    H2 8613   6.277   6.263   5.203
 2886TIP3   OH2 8614   3.527   0.265   6.614
 2886TIP3    H1 8615   3.434   0.286   6.608
 2886TIP3    H2 8616   3.539   0.190   6.556
 2887TIP3   OH2 8617   3.548   4.490   6.200
 2887TIP3    H1 8618   3.453   4.488   6.189
 2887TIP3    H2 8619   3.571   4.582   6.190
 2888TIP3   OH2 8620   4.254   1.758   5.342
 2888TIP3    H1 8621   4.253   1.664   5.360
 2888TIP3    H2 8622   4.170   1.790   5.375
 2889TIP3   OH2 8623   5.560   4.394   2.025
 2889TIP3    H1 8624   5.515   4.359   1.948
 2889TIP3    H2 8625   5.653   4.396   1.999
 2890TIP3   OH2 8626   5.506   7.053   6.709
 2890TIP3    H1 8627   5.465   7.097   6.634
 2890TIP3    H2 8628   5.583   7.009   6.672
 2891TIP3   OH2 8629   6.141   1.373   2.254
 2891TIP3    H1 8630   6.175   1.458   2.278
 2891TIP3    H2 8631   6.054   1.391   2.218
 2892TIP3   OH2 8632   0.952   4.417   1.084
 2892TIP3    H1 8633   0.882   4.416   1.149
 2892TIP3    H2 8634   0.920   4.363   1.012
 2893TIP3   OH2 8635   5.231   2.838   1.411
 2893TIP3    H1 8636   5.268   2.778   1.346
 2893TIP3    H2 8637   5.143   2.806   1.426
 2894TIP3   OH2 8638   3.129   1.193   1.079
 2894TIP3    H1 8639   3.139   1.098   1.083
 2894TIP3    H2 8640   3.185   1.227   1.148
 2895TIP3   OH2 8641   5.319   6.042   1.034
 2895TIP3    H1 8642   5.309   5.981   1.108
 2895TIP3    H2 8643   5.330   5.985   0.958
 2896TIP3   OH2 8644   4.823   2.362   3.230
 2896TIP3    H1 8645   4.797   2.449   3.199
 2896TIP3    H2 8646   4.753   2.335   3.289
 2897TIP3   OH2 8647   2.967   7.625   6.063
 2897TIP3    H1 8648   2.917   7.618   5.982
 2897TIP3    H2 8649   2.938   7.708   6.102
 2898TIP3   OH2 8650   7.284   2.481   2.337
 2898TIP3    H1 8651   7.292   2.546   2.267
 2898TIP3    H2 8652   7.374   2.468   2.368
 2899TIP3   OH2 8653   1.888   1.101   5.817
 2899TIP3    H1 8654   1.850   1.139   5.737
 2899TIP3    H2 8655   1.881   1.171   5.881
 2900TIP3   OH2 8656   5.329   6.364   0.150
 2900TIP3    H1 8657   5.250   6.417   0.163
 2900TIP3    H2 8658   5.399   6.428   0.140
 2901TIP3   OH2 8659   1.302   2.509   6.764
 2901TIP3    H1 8660   1.235   2.565   6.725
 2901TIP3    H2 8661   1.267   2.421   6.756
 2902TIP3   OH2 8662   1.372   1.932   3.223
 2902TIP3    H1 8663   1.283   1.941   3.188
 2902TIP3    H2 8664   1.362   1.886   3.306
 2903TIP3   OH2 8665   7.628   6.087   5.224
 2903TIP3    H1 8666   7.649   6.118   5.313
 2903TIP3    H2 8667   7.667   6.153   5.167
 2904TIP3   OH2 8668   8.175   3.979   1.231
 2904TIP3    H1 8669   8.119   4.057   1.224
 2904TIP3    H2 8670   8.222   3.976   1.147
 2905TIP3   OH2 8671   0.446   5.642   5.110
 2905TIP3    H1 8672   0.396   5.606   5.037
 2905TIP3    H2 8673   0.393   5.623   5.188
 2906TIP3   OH2 8674   2.405   1.037   3.194
 2906TIP3    H1 8675   2.378   1.051   3.103
 2906TIP3    H2 8676   2.323   1.042   3.244
 2907TIP3   OH2 8677   1.185   3.461   4.532
 2907TIP3    H1 8678   1.198   3.415   4.615
 2907TIP3    H2 8679   1.268   3.451   4.486
 2908TIP3   OH2 8680   4.044   5.114   2.544
 2908TIP3    H1 8681   4.116   5.170   2.575
 2908TIP3    H2 8682   3.986   5.173   2.497
 2909TIP3   OH2 8683   8.006   3.949   3.496
 2909TIP3    H1 8684   7.937   3.991   3.547
 2909TIP3    H2 8685   8.050   4.022   3.451
 2910TIP3   OH2 8686   5.910   0.571   1.505
 2910TIP3    H1 8687   5.855   0.627   1.451
 2910TIP3    H2 8688   5.973   0.631   1.546
 2911TIP3   OH2 8689   6.886   3.805   3.742
 2911TIP3    H1 8690   6.974   3.786   3.775
 2911TIP3    H2 8691   6.894   3.889   3.699
 2912TIP3   OH2 8692   5.502   0.611   5.584
 2912TIP3    H1 8693   5.569   0.599   5.651
 2912TIP3    H2 8694   5.436   0.666   5.626
 2913TIP3   OH2 8695   6.271   0.748   5.847
 2913TIP3    H1 8696   6.323   0.740   5.926
 2913TIP3    H2 8697   6.265   0.659   5.813
 2914TIP3   OH2 8698   0.099   4.198   2.669
 2914TIP3    H1 8699   0.035   4.260   2.704
 2914TIP3    H2 8700   0.070   4.113   2.703
 2915TIP3   OH2 8701   3.193   0.067   6.041
 2915TIP3    H1 8702   3.201   0.136   5.974
 2915TIP3    H2 8703   3.262   0.088   6.104
 2916TIP3   OH2 8704   6.434   2.933   1.698
 2916TIP3    H1 8705   6.465   3.017   1.732
 2916TIP3    H2 8706   6.457   2.869   1.765
 2917TIP3   OH2 8707   0.007   2.009   2.250
 2917TIP3    H1 8708   0.014   1.924   2.293
 2917TIP3    H2 8709   0.015   1.991   2.157
 2918TIP3   OH2 8710   6.634   4.533   4.984
 2918TIP3    H1 8711   6.635   4.496   4.896
 2918TIP3    H2 8712   6.625   4.627   4.970
 2919TIP3   OH2 8713   5.964   2.133   2.269
 2919TIP3    H1 8714   6.005   2.080   2.338
 2919TIP3    H2 8715   6.027   2.202   2.251
 2920TIP3   OH2 8716   5.796   6.573   5.564
 2920TIP3    H1 8717   5.802   6.602   5.655
 2920TIP3    H2 8718   5.876   6.607   5.523
 2921TIP3   OH2 8719   8.130   6.169   4.401
 2921TIP3    H1 8720   8.078   6.118   4.463
 2921TIP3    H2 8721   8.204   6.201   4.454
 2922TIP3   OH2 8722   2.032   3.499   2.000
 2922TIP3    H1 8723   2.056   3.585   2.035
 2922TIP3    H2 8724   1.943   3.511   1.966
 2923TIP3   OH2 8725   3.701   3.560   3.418
 2923TIP3    H1 8726   3.734   3.628   3.360
 2923TIP3    H2 8727   3.765   3.489   3.412
 2924TIP3   OH2 8728   1.308   7.019   4.595
 2924TIP3    H1 8729   1.285   6.975   4.676
 2924TIP3    H2 8730   1.402   7.038   4.604
 2925TIP3   OH2 8731   2.206   6.640   0.342
 2925TIP3    H1 8732   2.157   6.661   0.422
 2925TIP3    H2 8733   2.163   6.691   0.274
 2926TIP3   OH2 8734   4.148   2.196   2.569
 2926TIP3    H1 8735   4.112   2.139   2.501
 2926TIP3    H2 8736   4.073   2.214   2.626
 2927TIP3   OH2 8737   1.903   1.543  -0.020
 2927TIP3    H1 8738   1.974   1.590   0.024
 2927TIP3    H2 8739   1.826   1.563   0.033
 2928TIP3   OH2 8740   3.272   0.760   2.900
 2928TIP3    H1 8741   3.364   0.770   2.927
 2928TIP3    H2 8742   3.223   0.812   2.963
 2929TIP3   OH2 8743   1.821   7.042   4.658
 2929TIP3    H1 8744   1.816   7.014   4.749
 2929TIP3    H2 8745   1.857   6.968   4.611
 2930TIP3   OH2 8746   6.616   6.586   5.183
 2930TIP3    H1 8747   6.626   6.609   5.090
 2930TIP3    H2 8748   6.687   6.632   5.227
 2931TIP3   OH2 8749   2.590   2.713   0.542
 2931TIP3    H1 8750   2.673   2.760   0.537
 2931TIP3    H2 8751   2.584   2.665   0.459
 2932TIP3   OH2 8752   1.092   6.114   0.640
 2932TIP3    H1 8753   1.081   6.026   0.603
 2932TIP3    H2 8754   1.186   6.131   0.634
 2933TIP3   OH2 8755   7.568   1.151   2.120
 2933TIP3    H1 8756   7.566   1.213   2.047
 2933TIP3    H2 8757   7.660   1.124   2.126
 2934TIP3   OH2 8758   2.359   1.626   3.814
 2934TIP3    H1 8759   2.426   1.568   3.780
 2934TIP3    H2 8760   2.279   1.573   3.816
 2935TIP3   OH2 8761   4.363   0.372   2.465
 2935TIP3    H1 8762   4.382   0.339   2.553
 2935TIP3    H2 8763   4.422   0.447   2.454
 2936TIP3   OH2 8764   1.127   4.848   2.768
 2936TIP3    H1 8765   1.185   4.804   2.706
 2936TIP3    H2 8766   1.069   4.778   2.799
 2937TIP3   OH2 8767   8.191   1.585   6.401
 2937TIP3    H1 8768   8.240   1.665   6.382
 2937TIP3    H2 8769   8.209   1.568   6.494
 2938TIP3   OH2 8770   5.627   5.410   1.114
 2938TIP3    H1 8771   5.716   5.445   1.104
 2938TIP3    H2 8772   5.638   5.315   1.106
 2939TIP3   OH2 8773   8.069   1.339   5.762
 2939TIP3    H1 8774   8.020   1.311   5.685
 2939TIP3    H2 8775   8.002   1.374   5.821
 2940TIP3   OH2 8776   5.275   6.694   5.480
 2940TIP3    H1 8777   5.347   6.725   5.534
 2940TIP3    H2 8778   5.233   6.774   5.448
 2941TIP3   OH2 8779   3.763   7.327   5.052
 2941TIP3    H1 8780   3.788   7.415   5.080
 2941TIP3    H2 8781   3.690   7.340   4.992
 2942TIP3   OH2 8782   2.998   3.715   2.673
 2942TIP3    H1 8783   2.996   3.738   2.581
 2942TIP3    H2 8784   2.906   3.715   2.700
 2943TIP3   OH2 8785   1.364   7.090   6.519
 2943TIP3    H1 8786   1.288   7.093   6.576
 2943TIP3    H2 8787   1.435   7.060   6.575
 2944TIP3   OH2 8788   3.073   0.502   2.301
 2944TIP3    H1 8789   3.073   0.416   2.344
 2944TIP3    H2 8790   3.060   0.482   2.208
 2945TIP3   OH2 8791   5.097   2.829   6.684
 2945TIP3    H1 8792   5.118   2.808   6.593
 2945TIP3    H2 8793   5.047   2.911   6.678
 2946TIP3   OH2 8794   6.177   1.212   0.618
 2946TIP3    H1 8795   6.195   1.244   0.706
 2946TIP3    H2 8796   6.217   1.278   0.560
 2947TIP3   OH2 8797   7.906   1.639   4.196
 2947TIP3    H1 8798   7.991   1.613   4.229
 2947TIP3    H2 8799   7.898   1.732   4.220
 2948TIP3   OH2 8800   5.939   5.925   4.520
 2948TIP3    H1 8801   5.847   5.916   4.546
 2948TIP3    H2 8802   5.975   5.836   4.528
 2949TIP3   OH2 8803   0.780   0.397   2.944
 2949TIP3    H1 8804   0.692   0.359   2.950
 2949TIP3    H2 8805   0.814   0.394   3.033
 2950TIP3   OH2 8806   2.902   3.879   5.550
 2950TIP3    H1 8807   2.855   3.841   5.624
 2950TIP3    H2 8808   2.842   3.946   5.516
 2951TIP3   OH2 8809   0.642   1.017   4.404
 2951TIP3    H1 8810   0.692   0.983   4.478
 2951TIP3    H2 8811   0.556   0.976   4.413
 2952TIP3   OH2 8812   1.970   0.215   4.850
 2952TIP3    H1 8813   1.887   0.213   4.897
 2952TIP3    H2 8814   2.027   0.269   4.905
 2953TIP3   OH2 8815   5.247   4.313   2.851
 2953TIP3    H1 8816   5.241   4.407   2.869
 2953TIP3    H2 8817   5.265   4.308   2.757
 2954TIP3   OH2 8818   1.570   7.028   6.677
 2954TIP3    H1 8819   1.594   7.045   6.768
 2954TIP3    H2 8820   1.626   7.086   6.626
 2955TIP3   OH2 8821   6.839   6.488   0.553
 2955TIP3    H1 8822   6.799   6.477   0.639
 2955TIP3    H2 8823   6.920   6.535   0.570
 2956TIP3   OH2 8824   5.990   2.442   1.918
 2956TIP3    H1 8825   5.995   2.348   1.900
 2956TIP3    H2 8826   5.974   2.482   1.832
 2957TIP3   OH2 8827   0.596   5.855   1.901
 2957TIP3    H1 8828   0.508   5.817   1.898
 2957TIP3    H2 8829   0.654   5.779   1.903
 2958TIP3   OH2 8830   2.350   6.396   6.472
 2958TIP3    H1 8831   2.361   6.479   6.518
 2958TIP3    H2 8832   2.287   6.415   6.403
 2959TIP3   OH2 8833   1.100   1.724   5.126
 2959TIP3    H1 8834   1.032   1.657   5.115
 2959TIP3    H2 8835   1.175   1.675   5.160
 2960TIP3   OH2 8836   4.554   7.109   1.750
 2960TIP3    H1 8837   4.491   7.037   1.753
 2960TIP3    H2 8838   4.639   7.066   1.751
 2961TIP3   OH2 8839   6.632   3.112   3.209
 2961TIP3    H1 8840   6.641   3.068   3.294
 2961TIP3    H2 8841   6.566   3.061   3.163
 2962TIP3   OH2 8842   2.241   2.276   1.284
 2962TIP3    H1 8843   2.288   2.196   1.261
 2962TIP3    H2 8844   2.232   2.272   1.379
 2963TIP3   OH2 8845   2.798   5.646   2.780
 2963TIP3    H1 8846   2.763   5.702   2.849
 2963TIP3    H2 8847   2.770   5.689   2.698
 2964TIP3   OH2 8848   2.821   2.874   0.631
 2964TIP3    H1 8849   2.884   2.815   0.592
 2964TIP3    H2 8850   2.835   2.866   0.725
 2965TIP3   OH2 8851   1.867   3.230   5.670
 2965TIP3    H1 8852   1.780   3.204   5.639
 2965TIP3    H2 8853   1.894   3.298   5.610
 2966TIP3   OH2 8854   0.165   6.933   1.390
 2966TIP3    H1 8855   0.183   7.004   1.451
 2966TIP3    H2 8856   0.145   6.976   1.307
 2967TIP3   OH2 8857   1.776   0.833   4.320
 2967TIP3    H1 8858   1.754   0.824   4.413
 2967TIP3    H2 8859   1.795   0.743   4.292
 2968TIP3   OH2 8860   5.897   5.294   6.490
 2968TIP3    H1 8861   5.942   5.378   6.492
 2968TIP3    H2 8862   5.902   5.263   6.580
 2969TIP3   OH2 8863   1.988   3.872   5.160
 2969TIP3    H1 8864   1.996   3.836   5.248
 2969TIP3    H2 8865   2.042   3.816   5.106
 2970TIP3   OH2 8866   0.729   7.232   2.468
 2970TIP3    H1 8867   0.773   7.216   2.551
 2970TIP3    H2 8868   0.757   7.320   2.442
 2971TIP3   OH2 8869   3.267   1.431   5.403
 2971TIP3    H1 8870   3.298   1.485   5.331
 2971TIP3    H2 8871   3.347   1.397   5.444
 2972TIP3   OH2 8872   2.641   1.317   1.094
 2972TIP3    H1 8873   2.660   1.247   1.156
 2972TIP3    H2 8874   2.683   1.394   1.131
 2973TIP3   OH2 8875   5.922   4.734   2.813
 2973TIP3    H1 8876   5.908   4.751   2.906
 2973TIP3    H2 8877   5.855   4.670   2.789
 2974TIP3   OH2 8878   1.439   7.446   1.253
 2974TIP3    H1 8879   1.347   7.432   1.272
 2974TIP3    H2 8880   1.452   7.540   1.262
 2975TIP3   OH2 8881   0.151   2.319   1.237
 2975TIP3    H1 8882   0.077   2.292   1.292
 2975TIP3    H2 8883   0.140   2.414   1.229
 2976TIP3   OH2 8884   5.361   0.579   1.947
 2976TIP3    H1 8885   5.345   0.539   1.862
 2976TIP3    H2 8886   5.293   0.544   2.004
 2977TIP3   OH2 8887   7.373   2.265   1.850
 2977TIP3    H1 8888   7.464   2.294   1.855
 2977TIP3    H2 8889   7.337   2.311   1.775
 2978TIP3   OH2 8890   5.905   7.086   6.104
 2978TIP3    H1 8891   5.917   7.074   6.010
 2978TIP3    H2 8892   5.959   7.018   6.144
 2979TIP3   OH2 8893   0.172   0.544   3.746
 2979TIP3    H1 8894   0.125   0.581   3.671
 2979TIP3    H2 8895   0.206   0.620   3.793
 2980TIP3   OH2 8896   3.919   5.703   2.109
 2980TIP3    H1 8897   3.900   5.623   2.159
 2980TIP3    H2 8898   4.013   5.700   2.093
 2981TIP3   OH2 8899   7.371   0.889   2.666
 2981TIP3    H1 8900   7.454   0.931   2.642
 2981TIP3    H2 8901   7.341   0.937   2.743
 2982TIP3   OH2 8902   2.172   5.160   5.456
 2982TIP3    H1 8903   2.168   5.156   5.552
 2982TIP3    H2 8904   2.132   5.244   5.434
 2983TIP3   OH2 8905   3.252   2.138   5.641
 2983TIP3    H1 8906   3.208   2.165   5.721
 2983TIP3    H2 8907   3.239   2.211   5.581
 2984TIP3   OH2 8908   5.809   5.444   0.147
 2984TIP3    H1 8909   5.805   5.538   0.168
 2984TIP3    H2 8910   5.851   5.441   0.061
 2985TIP3   OH2 8911   0.239   3.076   1.406
 2985TIP3    H1 8912   0.193   3.141   1.354
 2985TIP3    H2 8913   0.241   3.112   1.495
 2986TIP3   OH2 8914   0.002   0.832   6.373
 2986TIP3    H1 8915   0.068   0.846   6.306
 2986TIP3    H2 8916  -0.043   0.916   6.381
 2987TIP3   OH2 8917   0.562   7.468   3.116
 2987TIP3    H1 8918   0.560   7.372   3.120
 2987TIP3    H2 8919   0.608   7.495   3.194
 2988TIP3   OH2 8920   8.238   3.643   1.308
 2988TIP3    H1 8921   8.255   3.603   1.223
 2988TIP3    H2 8922   8.145   3.629   1.323
 2989TIP3   OH2 8923   7.741   3.768   5.567
 2989TIP3    H1 8924   7.768   3.824   5.494
 2989TIP3    H2 8925   7.689   3.699   5.527
 2990TIP3   OH2 8926   1.812   5.075   0.994
 2990TIP3    H1 8927   1.901   5.087   0.962
 2990TIP3    H2 8928   1.762   5.148   0.957
 2991TIP3   OH2 8929   7.572   7.221   3.412
 2991TIP3    H1 8930   7.565   7.227   3.316
 2991TIP3    H2 8931   7.663   7.193   3.427
 2992TIP3   OH2 8932   3.179   3.421   4.514
 2992TIP3    H1 8933   3.182   3.338   4.560
 2992TIP3    H2 8934   3.096   3.461   4.539
 2993TIP3   OH2 8935   3.713   1.561   0.932
 2993TIP3    H1 8936   3.635   1.511   0.909
 2993TIP3    H2 8937   3.680   1.641   0.972
 2994TIP3   OH2 8938   1.581   7.274   4.882
 2994TIP3    H1 8939   1.585   7.253   4.789
 2994TIP3    H2 8940   1.620   7.361   4.889
 2995TIP3   OH2 8941   0.664   5.774   5.073
 2995TIP3    H1 8942   0.600   5.705   5.090
 2995TIP3    H2 8943   0.745   5.741   5.113
 2996TIP3   OH2 8944   0.302   4.917   5.483
 2996TIP3    H1 8945   0.336   5.006   5.478
 2996TIP3    H2 8946   0.219   4.920   5.435
 2997TIP3   OH2 8947   2.819   5.022   2.682
 2997TIP3    H1 8948   2.883   5.087   2.710
 2997TIP3    H2 8949   2.802   4.969   2.759
 2998TIP3   OH2 8950   1.643   4.714   6.672
 2998TIP3    H1 8951   1.601   4.736   6.588
 2998TIP3    H2 8952   1.737   4.723   6.655
 2999TIP3   OH2 8953   5.531   1.710   1.097
 2999TIP3    H1 8954   5.547   1.618   1.078
 2999TIP3    H2 8955   5.563   1.722   1.186
 3000TIP3   OH2 8956   7.240   3.822   4.047
 3000TIP3    H1 8957   7.161   3.874   4.058
 3000TIP3    H2 8958   7.306   3.868   4.098
 3001TIP3   OH2 8959   3.536   1.374   1.746
 3001TIP3    H1 8960   3.491   1.328   1.675
 3001TIP3    H2 8961   3.500   1.335   1.826
 3002TIP3   OH2 8962   3.680   3.088   5.964
 3002TIP3    H1 8963   3.625   3.060   6.037
 3002TIP3    H2 8964   3.740   3.152   6.002
 3003TIP3   OH2 8965   4.616   2.741   0.534
 3003TIP3    H1 8966   4.552   2.808   0.513
 3003TIP3    H2 8967   4.688   2.788   0.575
 3004TIP3   OH2 8968   2.315   3.866   2.630
 3004TIP3    H1 8969   2.371   3.811   2.575
 3004TIP3    H2 8970   2.256   3.804   2.674
 3005TIP3   OH2 8971   4.640   5.171   0.844
 3005TIP3    H1 8972   4.716   5.207   0.890
 3005TIP3    H2 8973   4.644   5.077   0.862
 3006TIP3   OH2 8974   3.170   1.167   0.227
 3006TIP3    H1 8975   3.171   1.074   0.246
 3006TIP3    H2 8976   3.256   1.199   0.255
 3007TIP3   OH2 8977   7.973   4.047   2.880
 3007TIP3    H1 8978   7.981   3.975   2.817
 3007TIP3    H2 8979   8.060   4.056   2.918
 3008TIP3   OH2 8980   1.842   4.636   2.649
 3008TIP3    H1 8981   1.804   4.683   2.723
 3008TIP3    H2 8982   1.847   4.701   2.579
 3009TIP3   OH2 8983   2.800   7.776   3.925
 3009TIP3    H1 8984   2.857   7.741   3.994
 3009TIP3    H2 8985   2.725   7.813   3.971
 3010TIP3   OH2 8986   3.659   5.905   3.750
 3010TIP3    H1 8987   3.696   5.817   3.748
 3010TIP3    H2 8988   3.671   5.933   3.841
 3011TIP3   OH2 8989   6.745   2.994   0.434
 3011TIP3    H1 8990   6.732   2.995   0.528
 3011TIP3    H2 8991   6.815   2.929   0.420
 3012TIP3   OH2 8992   0.679   4.702   0.640
 3012TIP3    H1 8993   0.639   4.675   0.557
 3012TIP3    H2 8994   0.604   4.723   0.696
 3013TIP3   OH2 8995   5.079   7.092   1.838
 3013TIP3    H1 8996   5.160   7.108   1.790
 3013TIP3    H2 8997   5.108   7.060   1.923
 3014TIP3   OH2 8998   4.743   6.148   4.568
 3014TIP3    H1 8999   4.738   6.180   4.658
 3014TIP3    H2 9000   4.652   6.147   4.538
 3015TIP3   OH2 9001   3.536   7.653   1.737
 3015TIP3    H1 9002   3.591   7.577   1.718
 3015TIP3    H2 9003   3.543   7.665   1.831
 3016TIP3   OH2 9004   5.138   3.565   1.495
 3016TIP3    H1 9005   5.096   3.620   1.562
 3016TIP3    H2 9006   5.108   3.476   1.515
 3017TIP3   OH2 9007   6.374   7.828   6.497
 3017TIP3    H1 9008   6.368   7.740   6.533
 3017TIP3    H2 9009   6.460   7.832   6.456
 3018TIP3   OH2 9010   7.298   1.709   1.284
 3018TIP3    H1 9011   7.291   1.678   1.194
 3018TIP3    H2 9012   7.325   1.800   1.276
 3019TIP3   OH2 9013   4.520   3.614   4.736
 3019TIP3    H1 9014   4.540   3.696   4.690
 3019TIP3    H2 9015   4.429   3.625   4.765
 3020TIP3   OH2 9016   5.088   2.991   4.114
 3020TIP3    H1 9017   5.030   2.972   4.188
 3020TIP3    H2 9018   5.173   3.007   4.154
 3021TIP3   OH2 9019   6.061   1.540   0.281
 3021TIP3    H1 9020   6.041   1.447   0.275
 3021TIP3    H2 9021   6.095   1.564   0.195
 3022TIP3   OH2 9022   2.072   2.719   1.001
 3022TIP3    H1 9023   2.077   2.638   1.053
 3022TIP3    H2 9024   2.153   2.766   1.021
 3023TIP3   OH2 9025   4.160   2.772   2.441
 3023TIP3    H1 9026   4.187   2.699   2.497
 3023TIP3    H2 9027   4.243   2.817   2.421
 3024TIP3   OH2 9028   3.075   6.186   0.244
 3024TIP3    H1 9029   2.992   6.184   0.291
 3024TIP3    H2 9030   3.137   6.225   0.305
 3025TIP3   OH2 9031   7.892   5.393   1.182
 3025TIP3    H1 9032   7.820   5.448   1.154
 3025TIP3    H2 9033   7.860   5.304   1.172
 3026TIP3   OH2 9034   1.828   3.219   4.581
 3026TIP3    H1 9035   1.872   3.152   4.530
 3026TIP3    H2 9036   1.835   3.298   4.528
 3027TIP3   OH2 9037   6.285   3.227   3.571
 3027TIP3    H1 9038   6.321   3.261   3.653
 3027TIP3    H2 9039   6.325   3.281   3.503
 3028TIP3   OH2 9040   3.077   2.994   5.830
 3028TIP3    H1 9041   3.150   2.951   5.786
 3028TIP3    H2 9042   2.999   2.960   5.787
 3029TIP3   OH2 9043   4.611   4.697   0.612
 3029TIP3    H1 9044   4.623   4.608   0.579
 3029TIP3    H2 9045   4.530   4.727   0.572
 3030TIP3   OH2 9046   2.111   3.638   0.923
 3030TIP3    H1 9047   2.147   3.549   0.927
 3030TIP3    H2 9048   2.025   3.630   0.965
 3031TIP3   OH2 9049   6.392   2.120   5.838
 3031TIP3    H1 9050   6.359   2.174   5.767
 3031TIP3    H2 9051   6.383   2.175   5.916
 3032TIP3   OH2 9052   0.951   4.650   2.948
 3032TIP3    H1 9053   0.989   4.593   3.015
 3032TIP3    H2 9054   0.861   4.663   2.975
 3033TIP3   OH2 9055   4.072   5.303   4.703
 3033TIP3    H1 9056   4.105   5.225   4.660
 3033TIP3    H2 9057   4.052   5.364   4.632
 3034TIP3   OH2 9058   6.701   2.370   2.352
 3034TIP3    H1 9059   6.759   2.444   2.363
 3034TIP3    H2 9060   6.745   2.297   2.395
 3035TIP3   OH2 9061   2.351   6.989   1.589
 3035TIP3    H1 9062   2.336   6.913   1.645
 3035TIP3    H2 9063   2.285   6.981   1.520
 3036TIP3   OH2 9064   0.866   6.496   5.820
 3036TIP3    H1 9065   0.948   6.459   5.786
 3036TIP3    H2 9066   0.833   6.429   5.880
 3037TIP3   OH2 9067   6.647   4.153   4.458
 3037TIP3    H1 9068   6.722   4.096   4.439
 3037TIP3    H2 9069   6.676   4.240   4.431
 3038TIP3   OH2 9070   2.343   0.851   0.111
 3038TIP3    H1 9071   2.353   0.869   0.204
 3038TIP3    H2 9072   2.253   0.822   0.101
 3039TIP3   OH2 9073   3.371   0.098   4.756
 3039TIP3    H1 9074   3.467   0.095   4.757
 3039TIP3    H2 9075   3.349   0.122   4.666
 3040TIP3   OH2 9076   0.392   7.093   4.662
 3040TIP3    H1 9077   0.438   7.010   4.652
 3040TIP3    H2 9078   0.456   7.159   4.635
 3041TIP3   OH2 9079   7.984   2.680   1.163
 3041TIP3    H1 9080   7.896   2.698   1.129
 3041TIP3    H2 9081   7.991   2.585   1.162
 3042TIP3   OH2 9082   0.150   7.208   3.297
 3042TIP3    H1 9083   0.144   7.300   3.269
 3042TIP3    H2 9084   0.072   7.194   3.351
 3043TIP3   OH2 9085   5.179   2.170   4.401
 3043TIP3    H1 9086   5.085   2.183   4.388
 3043TIP3    H2 9087   5.189   2.075   4.408
 3044TIP3   OH2 9088   0.631   1.503   5.550
 3044TIP3    H1 9089   0.657   1.422   5.593
 3044TIP3    H2 9090   0.554   1.479   5.498
 3045TIP3   OH2 9091   0.567   4.770   6.019
 3045TIP3    H1 9092   0.570   4.679   6.050
 3045TIP3    H2 9093   0.587   4.764   5.926
 3046TIP3   OH2 9094   2.097   3.430   0.685
 3046TIP3    H1 9095   2.048   3.396   0.610
 3046TIP3    H2 9096   2.030   3.465   0.743
 3047TIP3   OH2 9097   3.779   2.202   3.007
 3047TIP3    H1 9098   3.786   2.197   3.102
 3047TIP3    H2 9099   3.766   2.295   2.988
 3048TIP3   OH2 9100   0.974   6.412   4.268
 3048TIP3    H1 9101   0.949   6.476   4.200
 3048TIP3    H2 9102   0.978   6.463   4.349
 3049TIP3   OH2 9103   5.803   7.307   0.732
 3049TIP3    H1 9104   5.790   7.265   0.817
 3049TIP3    H2 9105   5.718   7.298   0.688
 3050TIP3   OH2 9106   1.467   6.052   6.138
 3050TIP3    H1 9107   1.479   6.067   6.231
 3050TIP3    H2 9108   1.421   6.130   6.106
 3051TIP3   OH2 9109   2.915   0.571   5.707
 3051TIP3    H1 9110   2.848   0.599   5.770
 3051TIP3    H2 9111   2.866   0.533   5.635
 3052TIP3   OH2 9112   6.806   1.776   0.964
 3052TIP3    H1 9113   6.866   1.712   1.002
 3052TIP3    H2 9114   6.755   1.727   0.901
 3053TIP3   OH2 9115   1.354   3.188   6.646
 3053TIP3    H1 9116   1.318   3.149   6.725
 3053TIP3    H2 9117   1.422   3.127   6.617
 3054TIP3   OH2 9118   3.544   7.248   2.644
 3054TIP3    H1 9119   3.461   7.268   2.601
 3054TIP3    H2 9120   3.586   7.333   2.656
 3055TIP3   OH2 9121   0.525   2.428   2.241
 3055TIP3    H1 9122   0.501   2.411   2.150
 3055TIP3    H2 9123   0.454   2.483   2.274
 3056TIP3   OH2 9124   7.378   2.022   2.536
 3056TIP3    H1 9125   7.372   1.957   2.607
 3056TIP3    H2 9126   7.415   2.099   2.578
 3057TIP3   OH2 9127   6.421   3.421   4.624
 3057TIP3    H1 9128   6.451   3.364   4.695
 3057TIP3    H2 9129   6.430   3.510   4.660
 3058TIP3   OH2 9130   4.414   6.777   3.218
 3058TIP3    H1 9131   4.495   6.746   3.258
 3058TIP3    H2 9132   4.412   6.871   3.237
 3059TIP3   OH2 9133   6.426   4.923   4.840
 3059TIP3    H1 9134   6.497   4.988   4.839
 3059TIP3    H2 9135   6.348   4.973   4.864
 3060TIP3   OH2 9136   2.982   6.562   3.401
 3060TIP3    H1 9137   3.031   6.535   3.479
 3060TIP3    H2 9138   2.899   6.515   3.408
 3061TIP3   OH2 9139   3.968   7.641   1.722
 3061TIP3    H1 9140   4.042   7.591   1.755
 3061TIP3    H2 9141   3.892   7.606   1.769
 3062TIP3   OH2 9142   2.462   3.668   0.577
 3062TIP3    H1 9143   2.474   3.655   0.482
 3062TIP3    H2 9144   2.435   3.582   0.609
 3063TIP3   OH2 9145   1.299   3.580   3.592
 3063TIP3    H1 9146   1.236   3.576   3.664
 3063TIP3    H2 9147   1.253   3.539   3.519
 3064TIP3   OH2 9148   4.277   5.803   0.940
 3064TIP3    H1 9149   4.320   5.726   0.904
 3064TIP3    H2 9150   4.240   5.847   0.864
 3065TIP3   OH2 9151   6.354   0.097   1.166
 3065TIP3    H1 9152   6.413   0.111   1.092
 3065TIP3    H2 9153   6.284   0.161   1.154
 3066TIP3   OH2 9154   2.025   7.643   2.607
 3066TIP3    H1 9155   2.090   7.575   2.586
 3066TIP3    H2 9156   2.027   7.702   2.532
 3067TIP3   OH2 9157   8.098   7.254   3.029
 3067TIP3    H1 9158   8.042   7.178   3.043
 3067TIP3    H2 9159   8.145   7.266   3.112
 3068TIP3   OH2 9160   0.045   4.710   3.758
 3068TIP3    H1 9161   0.127   4.676   3.794
 3068TIP3    H2 9162  -0.022   4.682   3.819
 3069TIP3   OH2 9163   5.651   3.655   1.006
 3069TIP3    H1 9164   5.704   3.687   1.079
 3069TIP3    H2 9165   5.706   3.591   0.962
 3070TIP3   OH2 9166   7.522   6.721   0.240
 3070TIP3    H1 9167   7.511   6.653   0.307
 3070TIP3    H2 9168   7.579   6.681   0.175
 3071TIP3   OH2 9169   3.614   7.745   4.235
 3071TIP3    H1 9170   3.644   7.698   4.157
 3071TIP3    H2 9171   3.608   7.677   4.303
 3072TIP3   OH2 9172   5.066   4.912   0.548
 3072TIP3    H1 9173   5.024   4.833   0.512
 3072TIP3    H2 9174   5.081   4.968   0.471
 3073TIP3   OH2 9175   5.162   2.429   0.270
 3073TIP3    H1 9176   5.077   2.387   0.285
 3073TIP3    H2 9177   5.210   2.367   0.214
 3074TIP3   OH2 9178   7.999   2.573   6.731
 3074TIP3    H1 9179   8.043   2.627   6.797
 3074TIP3    H2 9180   7.995   2.486   6.771
 3075TIP3   OH2 9181   5.322   4.687   3.775
 3075TIP3    H1 9182   5.261   4.658   3.706
 3075TIP3    H2 9183   5.349   4.775   3.748
 3076TIP3   OH2 9184   0.716   7.678   3.023
 3076TIP3    H1 9185   0.810   7.679   3.040
 3076TIP3    H2 9186   0.688   7.589   3.045
 3077TIP3   OH2 9187   6.655   1.249   0.066
 3077TIP3    H1 9188   6.687   1.184   0.003
 3077TIP3    H2 9189   6.638   1.199   0.146
 3078TIP3   OH2 9190   4.910   6.971   2.943
 3078TIP3    H1 9191   4.938   7.019   2.865
 3078TIP3    H2 9192   4.970   6.896   2.948
 3079TIP3   OH2 9193   5.162   1.530   0.234
 3079TIP3    H1 9194   5.201   1.567   0.155
 3079TIP3    H2 9195   5.178   1.596   0.301
 3080TIP3   OH2 9196   1.520   3.671   2.798
 3080TIP3    H1 9197   1.454   3.637   2.737
 3080TIP3    H2 9198   1.568   3.736   2.746
 3081TIP3   OH2 9199   3.328   1.530   2.560
 3081TIP3    H1 9200   3.262   1.559   2.498
 3081TIP3    H2 9201   3.411   1.559   2.522
 3082TIP3   OH2 9202   4.519   2.463   6.355
 3082TIP3    H1 9203   4.426   2.467   6.379
 3082TIP3    H2 9204   4.548   2.554   6.356
 3083TIP3   OH2 9205   8.176   3.376   6.077
 3083TIP3    H1 9206   8.114   3.403   6.145
 3083TIP3    H2 9207   8.185   3.281   6.090
 3084TIP3   OH2 9208   5.628   1.705   4.140
 3084TIP3    H1 9209   5.610   1.665   4.055
 3084TIP3    H2 9210   5.673   1.637   4.190
 3085TIP3   OH2 9211   1.969   2.658   5.803
 3085TIP3    H1 9212   1.930   2.625   5.723
 3085TIP3    H2 9213   1.938   2.598   5.872
 3086TIP3   OH2 9214   7.308   2.100   6.612
 3086TIP3    H1 9215   7.403   2.094   6.614
 3086TIP3    H2 9216   7.278   2.009   6.613
 3087TIP3   OH2 9217   4.269   7.141   6.152
 3087TIP3    H1 9218   4.362   7.123   6.157
 3087TIP3    H2 9219   4.227   7.055   6.145
 3088TIP3   OH2 9220   2.054   3.043   5.973
 3088TIP3    H1 9221   2.020   3.129   5.946
 3088TIP3    H2 9222   1.978   2.985   5.966
 3089TIP3   OH2 9223   3.292   5.355   3.771
 3089TIP3    H1 9224   3.367   5.387   3.721
 3089TIP3    H2 9225   3.236   5.432   3.781
 3090TIP3   OH2 9226   5.369   3.560   1.687
 3090TIP3    H1 9227   5.317   3.510   1.749
 3090TIP3    H2 9228   5.310   3.576   1.613
 3091TIP3   OH2 9229   6.804   4.195   5.783
 3091TIP3    H1 9230   6.802   4.134   5.857
 3091TIP3    H2 9231   6.821   4.281   5.822
 3092TIP3   OH2 9232   6.584   2.035   4.958
 3092TIP3    H1 9233   6.675   2.035   4.928
 3092TIP3    H2 9234   6.575   1.954   5.007
 3093TIP3   OH2 9235   5.952   7.289   0.482
 3093TIP3    H1 9236   5.896   7.303   0.558
 3093TIP3    H2 9237   5.905   7.329   0.409
 3094TIP3   OH2 9238   1.323   1.913   3.658
 3094TIP3    H1 9239   1.301   1.947   3.571
 3094TIP3    H2 9240   1.277   1.971   3.718
 3095TIP3   OH2 9241   3.898   2.035   3.503
 3095TIP3    H1 9242   3.875   1.965   3.564
 3095TIP3    H2 9243   3.820   2.046   3.449
 3096TIP3   OH2 9244  -0.032   5.293   3.697
 3096TIP3    H1 9245  -0.022   5.198   3.695
 3096TIP3    H2 9246   0.016   5.325   3.621
 3097TIP3   OH2 9247   5.437   0.751   2.145
 3097TIP3    H1 9248   5.429   0.709   2.059
 3097TIP3    H2 9249   5.354   0.797   2.157
 3098TIP3   OH2 9250   7.459   7.089   4.085
 3098TIP3    H1 9251   7.496   7.121   4.002
 3098TIP3    H2 9252   7.444   7.169   4.136
 3099TIP3   OH2 9253   7.906   6.182   1.850
 3099TIP3    H1 9254   7.955   6.139   1.920
 3099TIP3    H2 9255   7.871   6.261   1.890
 3100TIP3   OH2 9256   1.754   3.816   5.714
 3100TIP3    H1 9257   1.829   3.761   5.740
 3100TIP3    H2 9258   1.791   3.879   5.653
 3101TIP3   OH2 9259   3.472   5.387   2.170
 3101TIP3    H1 9260   3.448   5.348   2.254
 3101TIP3    H2 9261   3.399   5.366   2.113
 3102TIP3   OH2 9262   5.072   2.279   1.842
 3102TIP3    H1 9263   5.027   2.197   1.863
 3102TIP3    H2 9264   5.014   2.348   1.875
 3103TIP3   OH2 9265   6.983   6.667   1.093
 3103TIP3    H1 9266   6.919   6.699   1.156
 3103TIP3    H2 9267   6.943   6.589   1.056
 3104TIP3   OH2 9268   6.349   3.131   0.852
 3104TIP3    H1 9269   6.305   3.052   0.883
 3104TIP3    H2 9270   6.282   3.199   0.854
 3105TIP3   OH2 9271   8.147   3.361   2.200
 3105TIP3    H1 9272   8.068   3.313   2.174
 3105TIP3    H2 9273   8.142   3.364   2.296
 3106TIP3   OH2 9274   0.963   6.942   4.838
 3106TIP3    H1 9275   0.995   7.017   4.789
 3106TIP3    H2 9276   0.875   6.926   4.804
 3107TIP3   OH2 9277   2.786   5.118   3.095
 3107TIP3    H1 9278   2.785   5.024   3.108
 3107TIP3    H2 9279   2.742   5.132   3.011
 3108TIP3   OH2 9280   1.679   5.993   5.708
 3108TIP3    H1 9281   1.619   5.985   5.634
 3108TIP3    H2 9282   1.625   5.972   5.784
 3109TIP3   OH2 9283   7.217   6.654   4.203
 3109TIP3    H1 9284   7.264   6.736   4.188
 3109TIP3    H2 9285   7.126   6.673   4.181
 3110TIP3   OH2 9286   6.555   4.000   5.079
 3110TIP3    H1 9287   6.643   3.994   5.116
 3110TIP3    H2 9288   6.568   4.000   4.984
 3111TIP3   OH2 9289   6.506   7.010   3.087
 3111TIP3    H1 9290   6.538   6.985   3.173
 3111TIP3    H2 9291   6.465   6.931   3.052
 3112TIP3   OH2 9292   1.554   2.995   6.628
 3112TIP3    H1 9293   1.564   2.970   6.536
 3112TIP3    H2 9294   1.517   2.917   6.670
 3113TIP3   OH2 9295   3.611   0.629   3.467
 3113TIP3    H1 9296   3.573   0.545   3.441
 3113TIP3    H2 9297   3.614   0.681   3.386
 3114TIP3   OH2 9298   3.026   2.953   3.321
 3114TIP3    H1 9299   3.000   3.041   3.348
 3114TIP3    H2 9300   3.061   2.965   3.232
 3115TIP3   OH2 9301   4.201   4.071   4.118
 3115TIP3    H1 9302   4.162   4.006   4.060
 3115TIP3    H2 9303   4.128   4.103   4.171
 3116TIP3   OH2 9304   7.820   0.903   0.597
 3116TIP3    H1 9305   7.757   0.860   0.539
 3116TIP3    H2 9306   7.850   0.833   0.656
 3117TIP3   OH2 9307   5.013   3.260   6.097
 3117TIP3    H1 9308   4.994   3.337   6.044
 3117TIP3    H2 9309   4.991   3.286   6.187
 3118TIP3   OH2 9310   2.281   5.064   2.490
 3118TIP3    H1 9311   2.331   5.051   2.409
 3118TIP3    H2 9312   2.211   4.998   2.486
 3119TIP3   OH2 9313   5.257   5.205   0.077
 3119TIP3    H1 9314   5.272   5.256   0.157
 3119TIP3    H2 9315   5.285   5.116   0.099
 3120TIP3   OH2 9316   4.519   7.067   0.756
 3120TIP3    H1 9317   4.462   7.081   0.831
 3120TIP3    H2 9318   4.467   7.093   0.680
 3121TIP3   OH2 9319   1.880   4.957   2.742
 3121TIP3    H1 9320   1.846   4.890   2.802
 3121TIP3    H2 9321   1.805   5.016   2.727
 3122TIP3   OH2 9322   3.960   5.989   1.830
 3122TIP3    H1 9323   3.878   5.952   1.862
 3122TIP3    H2 9324   4.028   5.929   1.860
 3123TIP3   OH2 9325   0.942   0.357   3.175
 3123TIP3    H1 9326   0.898   0.284   3.219
 3123TIP3    H2 9327   0.951   0.424   3.243
 3124TIP3   OH2 9328   2.546   1.794   2.521
 3124TIP3    H1 9329   2.625   1.824   2.567
 3124TIP3    H2 9330   2.580   1.745   2.446
 3125TIP3   OH2 9331   0.700   0.304   5.903
 3125TIP3    H1 9332   0.772   0.302   5.841
 3125TIP3    H2 9333   0.639   0.238   5.871
 3126TIP3   OH2 9334   6.628   0.405   2.105
 3126TIP3    H1 9335   6.550   0.458   2.121
 3126TIP3    H2 9336   6.618   0.374   2.015
 3127TIP3   OH2 9337   0.926   7.428   1.413
 3127TIP3    H1 9338   0.898   7.513   1.447
 3127TIP3    H2 9339   0.860   7.366   1.444
 3128TIP3   OH2 9340   4.910   3.944   1.646
 3128TIP3    H1 9341   4.862   3.982   1.719
 3128TIP3    H2 9342   4.889   4.000   1.571
 3129TIP3   OH2 9343   5.520   2.246   4.933
 3129TIP3    H1 9344   5.526   2.179   4.865
 3129TIP3    H2 9345   5.469   2.316   4.893
 3130TIP3   OH2 9346   1.074   1.906   0.194
 3130TIP3    H1 9347   1.106   1.821   0.164
 3130TIP3    H2 9348   1.071   1.898   0.290
 3131TIP3   OH2 9349   5.737   7.617   6.633
 3131TIP3    H1 9350   5.708   7.703   6.602
 3131TIP3    H2 9351   5.829   7.612   6.608
 3132TIP3   OH2 9352   3.721   2.132   1.746
 3132TIP3    H1 9353   3.637   2.172   1.768
 3132TIP3    H2 9354   3.786   2.197   1.772
 3133TIP3   OH2 9355   3.841   6.262   6.720
 3133TIP3    H1 9356   3.778   6.242   6.650
 3133TIP3    H2 9357   3.842   6.184   6.774
 3134TIP3   OH2 9358   2.728   6.260   4.782
 3134TIP3    H1 9359   2.775   6.305   4.711
 3134TIP3    H2 9360   2.792   6.251   4.852
 3135TIP3   OH2 9361   1.753   1.493   5.953
 3135TIP3    H1 9362   1.707   1.577   5.950
 3135TIP3    H2 9363   1.721   1.446   5.876
 3136TIP3   OH2 9364   4.593   4.283   3.120
 3136TIP3    H1 9365   4.597   4.230   3.200
 3136TIP3    H2 9366   4.621   4.223   3.051
 3137TIP3   OH2 9367   0.243   2.276   5.653
 3137TIP3    H1 9368   0.248   2.223   5.733
 3137TIP3    H2 9369   0.152   2.305   5.650
 3138TIP3   OH2 9370   1.581   4.371   0.179
 3138TIP3    H1 9371   1.536   4.286   0.173
 3138TIP3    H2 9372   1.512   4.435   0.161
 3139TIP3   OH2 9373   1.497   5.751   4.915
 3139TIP3    H1 9374   1.591   5.732   4.912
 3139TIP3    H2 9375   1.492   5.846   4.901
 3140TIP3   OH2 9376   1.293   6.113   0.157
 3140TIP3    H1 9377   1.293   6.127   0.252
 3140TIP3    H2 9378   1.363   6.049   0.143
 3141TIP3   OH2 9379   4.945   6.747   1.176
 3141TIP3    H1 9380   4.911   6.830   1.142
 3141TIP3    H2 9381   4.874   6.712   1.230
 3142TIP3   OH2 9382   4.412   0.447   6.414
 3142TIP3    H1 9383   4.448   0.501   6.343
 3142TIP3    H2 9384   4.426   0.357   6.385
 3143TIP3   OH2 9385   4.957   7.203   1.562
 3143TIP3    H1 9386   4.883   7.263   1.574
 3143TIP3    H2 9387   4.955   7.148   1.640
 3144TIP3   OH2 9388   5.403   2.758   2.867
 3144TIP3    H1 9389   5.375   2.811   2.942
 3144TIP3    H2 9390   5.462   2.692   2.904
 3145TIP3   OH2 9391   4.395   6.012   1.738
 3145TIP3    H1 9392   4.332   5.956   1.692
 3145TIP3    H2 9393   4.468   5.954   1.758
 3146TIP3   OH2 9394   5.729   1.483   3.404
 3146TIP3    H1 9395   5.726   1.534   3.323
 3146TIP3    H2 9396   5.764   1.398   3.377
 3147TIP3   OH2 9397   4.216   0.316   3.589
 3147TIP3    H1 9398   4.218   0.322   3.494
 3147TIP3    H2 9399   4.149   0.379   3.616
 3148TIP3   OH2 9400   7.620   2.833   1.491
 3148TIP3    H1 9401   7.624   2.928   1.502
 3148TIP3    H2 9402   7.702   2.800   1.528
 3149TIP3   OH2 9403   3.653   4.604   0.781
 3149TIP3    H1 9404   3.737   4.598   0.736
 3149TIP3    H2 9405   3.632   4.514   0.804
 3150TIP3   OH2 9406   3.399   3.315   6.333
 3150TIP3    H1 9407   3.453   3.355   6.265
 3150TIP3    H2 9408   3.334   3.382   6.354
 3151TIP3   OH2 9409   0.900   2.087   6.684
 3151TIP3    H1 9410   0.913   2.083   6.589
 3151TIP3    H2 9411   0.985   2.113   6.719
 3152TIP3   OH2 9412   3.712   7.260   2.914
 3152TIP3    H1 9413   3.638   7.260   2.854
 3152TIP3    H2 9414   3.786   7.288   2.860
 3153TIP3   OH2 9415   7.329   2.947   0.263
 3153TIP3    H1 9416   7.304   2.885   0.332
 3153TIP3    H2 9417   7.361   2.892   0.192
 3154TIP3   OH2 9418   1.077   2.203   1.512
 3154TIP3    H1 9419   1.091   2.278   1.453
 3154TIP3    H2 9420   0.999   2.227   1.562
 3155TIP3   OH2 9421   0.938   7.352   2.899
 3155TIP3    H1 9422   1.028   7.383   2.896
 3155TIP3    H2 9423   0.897   7.388   2.820
 3156TIP3   OH2 9424   3.214   5.212   1.805
 3156TIP3    H1 9425   3.158   5.135   1.793
 3156TIP3    H2 9426   3.217   5.254   1.720
 3157TIP3   OH2 9427   5.265   0.586   1.647
 3157TIP3    H1 9428   5.236   0.497   1.667
 3157TIP3    H2 9429   5.353   0.576   1.612
 3158TIP3   OH2 9430   6.701   4.716   5.335
 3158TIP3    H1 9431   6.719   4.735   5.243
 3158TIP3    H2 9432   6.665   4.798   5.370
 3159TIP3   OH2 9433   6.967   0.630   1.991
 3159TIP3    H1 9434   7.038   0.683   1.955
 3159TIP3    H2 9435   6.916   0.690   2.045
 3160TIP3   OH2 9436   0.162   3.790   1.349
 3160TIP3    H1 9437   0.100   3.718   1.340
 3160TIP3    H2 9438   0.182   3.816   1.259
 3161TIP3   OH2 9439   8.005   5.799   1.855
 3161TIP3    H1 9440   8.053   5.717   1.862
 3161TIP3    H2 9441   8.072   5.867   1.849
 3162TIP3   OH2 9442   6.621   5.475   0.081
 3162TIP3    H1 9443   6.573   5.513   0.155
 3162TIP3    H2 9444   6.687   5.419   0.122
 3163TIP3   OH2 9445   4.080   5.043   5.125
 3163TIP3    H1 9446   3.995   5.078   5.100
 3163TIP3    H2 9447   4.122   5.020   5.041
 3164TIP3   OH2 9448   6.385   7.496   6.381
 3164TIP3    H1 9449   6.306   7.453   6.350
 3164TIP3    H2 9450   6.413   7.551   6.308
 3165TIP3   OH2 9451   2.595   7.612   5.646
 3165TIP3    H1 9452   2.542   7.619   5.566
 3165TIP3    H2 9453   2.569   7.688   5.698
 3166TIP3   OH2 9454   0.809   1.593   6.573
 3166TIP3    H1 9455   0.722   1.573   6.539
 3166TIP3    H2 9456   0.842   1.662   6.515
 3167TIP3   OH2 9457   4.960   3.513   1.215
 3167TIP3    H1 9458   4.889   3.556   1.167
 3167TIP3    H2 9459   4.921   3.488   1.299
 3168TIP3   OH2 9460   6.950   7.186   5.315
 3168TIP3    H1 9461   7.001   7.266   5.300
 3168TIP3    H2 9462   6.968   7.132   5.238
 3169TIP3   OH2 9463   3.226   6.582   0.282
 3169TIP3    H1 9464   3.227   6.678   0.276
 3169TIP3    H2 9465   3.164   6.554   0.214
 3170TIP3   OH2 9466   1.793   3.340   1.626
 3170TIP3    H1 9467   1.749   3.337   1.541
 3170TIP3    H2 9468   1.878   3.382   1.607
 3171TIP3   OH2 9469   7.517   1.926   5.968
 3171TIP3    H1 9470   7.585   1.980   5.929
 3171TIP3    H2 9471   7.478   1.981   6.036
 3172TIP3   OH2 9472   1.002   5.236   0.864
 3172TIP3    H1 9473   0.996   5.168   0.931
 3172TIP3    H2 9474   0.941   5.209   0.796
 3173TIP3   OH2 9475   5.833   1.556   1.843
 3173TIP3    H1 9476   5.928   1.549   1.855
 3173TIP3    H2 9477   5.801   1.594   1.924
 3174TIP3   OH2 9478   1.645   6.332   2.603
 3174TIP3    H1 9479   1.708   6.333   2.530
 3174TIP3    H2 9480   1.632   6.239   2.622
 3175TIP3   OH2 9481   0.904   5.619   6.317
 3175TIP3    H1 9482   0.865   5.539   6.352
 3175TIP3    H2 9483   0.836   5.657   6.262
 3176TIP3   OH2 9484   3.502   6.403   6.327
 3176TIP3    H1 9485   3.407   6.397   6.336
 3176TIP3    H2 9486   3.521   6.360   6.243
 3177TIP3   OH2 9487   1.786   6.997   2.197
 3177TIP3    H1 9488   1.716   7.049   2.159
 3177TIP3    H2 9489   1.866   7.047   2.180
 3178TIP3   OH2 9490   7.900   4.206   3.877
 3178TIP3    H1 9491   7.993   4.224   3.863
 3178TIP3    H2 9492   7.895   4.181   3.970
 3179TIP3   OH2 9493   7.018   4.796   5.263
 3179TIP3    H1 9494   7.077   4.855   5.311
 3179TIP3    H2 9495   6.953   4.854   5.223
 3180TIP3   OH2 9496   8.167   1.298   1.173
 3180TIP3    H1 9497   8.186   1.333   1.260
 3180TIP3    H2 9498   8.076   1.321   1.157
 3181TIP3   OH2 9499   3.359   2.456   5.672
 3181TIP3    H1 9500   3.381   2.501   5.590
 3181TIP3    H2 9501   3.321   2.524   5.727
 3182TIP3   OH2 9502   5.872   7.242   2.483
 3182TIP3    H1 9503   5.861   7.332   2.515
 3182TIP3    H2 9504   5.783   7.212   2.465
 3183TIP3   OH2 9505   3.402   5.013   5.090
 3183TIP3    H1 9506   3.476   5.053   5.045
 3183TIP3    H2 9507   3.372   5.080   5.152
 3184TIP3   OH2 9508   2.211   3.352   3.066
 3184TIP3    H1 9509   2.273   3.392   3.127
 3184TIP3    H2 9510   2.173   3.279   3.116
 3185TIP3   OH2 9511   2.787   7.398   2.922
 3185TIP3    H1 9512   2.733   7.476   2.938
 3185TIP3    H2 9513   2.869   7.415   2.968
 3186TIP3   OH2 9514   7.384   2.835   1.908
 3186TIP3    H1 9515   7.334   2.860   1.830
 3186TIP3    H2 9516   7.318   2.833   1.978
 3187TIP3   OH2 9517   4.670   0.735   0.426
 3187TIP3    H1 9518   4.708   0.748   0.513
 3187TIP3    H2 9519   4.738   0.763   0.365
 3188TIP3   OH2 9520   6.097   4.839   3.724
 3188TIP3    H1 9521   6.118   4.812   3.813
 3188TIP3    H2 9522   6.118   4.762   3.670
 3189TIP3   OH2 9523   4.763   7.635   1.111
 3189TIP3    H1 9524   4.720   7.673   1.188
 3189TIP3    H2 9525   4.814   7.561   1.146
 3190TIP3   OH2 9526   0.471   7.030   6.188
 3190TIP3    H1 9527   0.502   6.953   6.141
 3190TIP3    H2 9528   0.470   7.004   6.280
 3191TIP3   OH2 9529   1.083   5.386   6.213
 3191TIP3    H1 9530   1.016   5.361   6.149
 3191TIP3    H2 9531   1.103   5.477   6.192
 3192TIP3   OH2 9532   7.700   1.342   4.017
 3192TIP3    H1 9533   7.689   1.272   4.082
 3192TIP3    H2 9534   7.792   1.336   3.992
 3193TIP3   OH2 9535   3.712   5.909   5.768
 3193TIP3    H1 9536   3.632   5.884   5.721
 3193TIP3    H2 9537   3.782   5.859   5.726
 3194TIP3   OH2 9538   1.527   3.093   6.014
 3194TIP3    H1 9539   1.566   3.009   6.036
 3194TIP3    H2 9540   1.596   3.140   5.967
 3195TIP3   OH2 9541   7.401   6.321   3.491
 3195TIP3    H1 9542   7.483   6.337   3.538
 3195TIP3    H2 9543   7.422   6.340   3.399
 3196TIP3   OH2 9544   6.054   0.645   6.672
 3196TIP3    H1 9545   6.123   0.632   6.737
 3196TIP3    H2 9546   5.975   0.662   6.723
 3197TIP3   OH2 9547   8.321   3.656   2.814
 3197TIP3    H1 9548   8.267   3.681   2.889
 3197TIP3    H2 9549   8.324   3.560   2.817
 3198TIP3   OH2 9550   2.853   2.837   5.724
 3198TIP3    H1 9551   2.896   2.826   5.639
 3198TIP3    H2 9552   2.883   2.762   5.776
 3199TIP3   OH2 9553   7.508   5.122   0.510
 3199TIP3    H1 9554   7.563   5.178   0.454
 3199TIP3    H2 9555   7.435   5.178   0.536
 3200TIP3   OH2 9556   8.251   0.186   1.773
 3200TIP3    H1 9557   8.330   0.215   1.727
 3200TIP3    H2 9558   8.179   0.218   1.719
 3201TIP3   OH2 9559   2.738   5.382   5.926
 3201TIP3    H1 9560   2.780   5.459   5.888
 3201TIP3    H2 9561   2.708   5.331   5.850
 3202TIP3   OH2 9562   5.159   0.087   3.596
 3202TIP3    H1 9563   5.099   0.074   3.669
 3202TIP3    H2 9564   5.200   0.001   3.583
 3203TIP3   OH2 9565   5.046   2.074   0.846
 3203TIP3    H1 9566   5.004   1.990   0.866
 3203TIP3    H2 9567   5.002   2.137   0.903
 3204TIP3   OH2 9568   0.686   5.336   5.842
 3204TIP3    H1 9569   0.684   5.242   5.826
 3204TIP3    H2 9570   0.595   5.364   5.836
 3205TIP3   OH2 9571   4.650   1.656   1.853
 3205TIP3    H1 9572   4.595   1.689   1.781
 3205TIP3    H2 9573   4.599   1.586   1.892
 3206TIP3   OH2 9574   3.716   3.066   1.620
 3206TIP3    H1 9575   3.718   3.025   1.534
 3206TIP3    H2 9576   3.808   3.073   1.645
 3207TIP3   OH2 9577   1.523   6.789   6.546
 3207TIP3    H1 9578   1.514   6.860   6.610
 3207TIP3    H2 9579   1.568   6.829   6.473
 3208TIP3   OH2 9580   7.949   4.237   1.491
 3208TIP3    H1 9581   7.917   4.327   1.494
 3208TIP3    H2 9582   8.005   4.234   1.413
 3209TIP3   OH2 9583   6.098   3.343   1.777
 3209TIP3    H1 9584   6.009   3.370   1.755
 3209TIP3    H2 9585   6.089   3.298   1.861
 3210TIP3   OH2 9586   7.685   6.820   3.252
 3210TIP3    H1 9587   7.745   6.772   3.309
 3210TIP3    H2 9588   7.685   6.770   3.170
 3211TIP3   OH2 9589   6.718   2.134   3.107
 3211TIP3    H1 9590   6.767   2.146   3.026
 3211TIP3    H2 9591   6.715   2.039   3.119
 3212TIP3   OH2 9592   1.331   1.116   6.539
 3212TIP3    H1 9593   1.264   1.150   6.598
 3212TIP3    H2 9594   1.329   1.021   6.553
 3213TIP3   OH2 9595   8.000   5.690   5.775
 3213TIP3    H1 9596   7.970   5.777   5.802
 3213TIP3    H2 9597   7.922   5.635   5.779
 3214TIP3   OH2 9598   7.321   0.479   1.439
 3214TIP3    H1 9599   7.307   0.517   1.526
 3214TIP3    H2 9600   7.398   0.423   1.450
 3215TIP3   OH2 9601   2.711   5.862   6.702
 3215TIP3    H1 9602   2.778   5.885   6.766
 3215TIP3    H2 9603   2.697   5.942   6.652
 3216TIP3   OH2 9604   5.225   1.301   4.823
 3216TIP3    H1 9605   5.196   1.210   4.831
 3216TIP3    H2 9606   5.175   1.349   4.888
 3217TIP3   OH2 9607   4.860   7.176   3.170
 3217TIP3    H1 9608   4.800   7.222   3.112
 3217TIP3    H2 9609   4.882   7.096   3.121
 3218TIP3   OH2 9610   1.363   0.126   0.387
 3218TIP3    H1 9611   1.346   0.195   0.323
 3218TIP3    H2 9612   1.455   0.136   0.411
 3219TIP3   OH2 9613   5.189   3.080   0.715
 3219TIP3    H1 9614   5.203   2.994   0.753
 3219TIP3    H2 9615   5.250   3.084   0.641
 3220TIP3   OH2 9616   1.419   0.408   3.067
 3220TIP3    H1 9617   1.388   0.333   3.015
 3220TIP3    H2 9618   1.340   0.442   3.109
 3221TIP3   OH2 9619   0.522   6.760   2.282
 3221TIP3    H1 9620   0.461   6.821   2.322
 3221TIP3    H2 9621   0.590   6.815   2.244
 3222TIP3   OH2 9622   4.417   4.699   2.806
 3222TIP3    H1 9623   4.461   4.651   2.876
 3222TIP3    H2 9624   4.472   4.775   2.791
 3223TIP3   OH2 9625   3.251   7.811   5.063
 3223TIP3    H1 9626   3.319   7.815   5.130
 3223TIP3    H2 9627   3.282   7.745   5.001
 3224TIP3   OH2 9628   0.222   0.864   0.062
 3224TIP3    H1 9629   0.217   0.930  -0.007
 3224TIP3    H2 9630   0.271   0.906   0.132
 3225TIP3   OH2 9631   0.926   5.107   0.632
 3225TIP3    H1 9632   0.996   5.044   0.615
 3225TIP3    H2 9633   0.859   5.087   0.566
 3226TIP3   OH2 9634   1.542   2.810   2.802
 3226TIP3    H1 9635   1.542   2.718   2.827
 3226TIP3    H2 9636   1.464   2.819   2.746
 3227TIP3   OH2 9637   6.208   6.934   5.827
 3227TIP3    H1 9638   6.249   6.895   5.750
 3227TIP3    H2 9639   6.251   6.892   5.901
 3228TIP3   OH2 9640   0.637   0.052   1.001
 3228TIP3    H1 9641   0.716   0.089   1.040
 3228TIP3    H2 9642   0.666  -0.030   0.962
 3229TIP3   OH2 9643   6.015   0.806   5.912
 3229TIP3    H1 9644   6.009   0.760   5.996
 3229TIP3    H2 9645   6.103   0.787   5.881
 3230TIP3   OH2 9646   0.249   7.452   3.255
 3230TIP3    H1 9647   0.316   7.435   3.188
 3230TIP3    H2 9648   0.298   7.492   3.327
 3231TIP3   OH2 9649   7.296   1.743   3.067
 3231TIP3    H1 9650   7.284   1.830   3.030
 3231TIP3    H2 9651   7.338   1.757   3.152
 3232TIP3   OH2 9652   2.870   4.266   3.787
 3232TIP3    H1 9653   2.825   4.219   3.857
 3232TIP3    H2 9654   2.822   4.348   3.778
 3233TIP3   OH2 9655   0.530   6.418   0.386
 3233TIP3    H1 9656   0.447   6.458   0.411
 3233TIP3    H2 9657   0.507   6.354   0.319
 3234TIP3   OH2 9658   0.705   4.317   3.167
 3234TIP3    H1 9659   0.746   4.373   3.233
 3234TIP3    H2 9660   0.613   4.342   3.168
 3235TIP3   OH2 9661   6.870   7.716   6.247
 3235TIP3    H1 9662   6.904   7.676   6.328
 3235TIP3    H2 9663   6.852   7.641   6.190
 3236TIP3   OH2 9664   2.195   7.255   6.563
 3236TIP3    H1 9665   2.288   7.256   6.587
 3236TIP3    H2 9666   2.189   7.188   6.494
 3237TIP3   OH2 9667   5.494   0.352   4.743
 3237TIP3    H1 9668   5.544   0.419   4.697
 3237TIP3    H2 9669   5.423   0.329   4.683
 3238TIP3   OH2 9670   2.297   2.853   1.790
 3238TIP3    H1 9671   2.346   2.935   1.782
 3238TIP3    H2 9672   2.344   2.803   1.856
 3239TIP3   OH2 9673   2.458   7.131   3.444
 3239TIP3    H1 9674   2.411   7.209   3.472
 3239TIP3    H2 9675   2.504   7.159   3.364
 3240TIP3   OH2 9676   5.593   0.845   0.733
 3240TIP3    H1 9677   5.590   0.768   0.676
 3240TIP3    H2 9678   5.553   0.915   0.680
 3241TIP3   OH2 9679   2.994   0.073   5.548
 3241TIP3    H1 9680   2.958   0.153   5.509
 3241TIP3    H2 9681   3.008   0.096   5.640
 3242TIP3   OH2 9682   4.930   4.361   1.873
 3242TIP3    H1 9683   4.948   4.455   1.870
 3242TIP3    H2 9684   4.926   4.335   1.781
 3243TIP3   OH2 9685   1.630   2.560   0.510
 3243TIP3    H1 9686   1.596   2.507   0.438
 3243TIP3    H2 9687   1.624   2.503   0.586
 3244TIP3   OH2 9688   7.687   2.003   5.729
 3244TIP3    H1 9689   7.624   1.936   5.702
 3244TIP3    H2 9690   7.762   1.955   5.762
 3245TIP3   OH2 9691   1.113   1.767   5.616
 3245TIP3    H1 9692   1.042   1.730   5.668
 3245TIP3    H2 9693   1.185   1.706   5.625
 3246TIP3   OH2 9694   2.524   0.464   5.237
 3246TIP3    H1 9695   2.454   0.528   5.248
 3246TIP3    H2 9696   2.582   0.478   5.313
 3247TIP3   OH2 9697   8.231   2.939   4.749
 3247TIP3    H1 9698   8.146   2.937   4.794
 3247TIP3    H2 9699   8.210   2.965   4.660
 3248TIP3   OH2 9700   6.488   7.061   0.264
 3248TIP3    H1 9701   6.527   7.058   0.351
 3248TIP3    H2 9702   6.561   7.040   0.205
 3249TIP3   OH2 9703   4.685   7.225   5.272
 3249TIP3    H1 9704   4.712   7.315   5.293
 3249TIP3    H2 9705   4.737   7.202   5.195
 3250TIP3   OH2 9706   6.860   1.912   1.447
 3250TIP3    H1 9707   6.929   1.855   1.482
 3250TIP3    H2 9708   6.900   1.955   1.372
 3251TIP3   OH2 9709   7.478   2.545   3.755
 3251TIP3    H1 9710   7.543   2.544   3.825
 3251TIP3    H2 9711   7.411   2.482   3.784
 3252TIP3   OH2 9712   5.421   7.417   1.858
 3252TIP3    H1 9713   5.478   7.455   1.790
 3252TIP3    H2 9714   5.479   7.366   1.913
 3253TIP3   OH2 9715   0.227   7.161   2.868
 3253TIP3    H1 9716   0.293   7.231   2.872
 3253TIP3    H2 9717   0.277   7.080   2.866
 3254TIP3   OH2 9718   7.573   4.340   1.357
 3254TIP3    H1 9719   7.578   4.351   1.452
 3254TIP3    H2 9720   7.651   4.385   1.324
 3255TIP3   OH2 9721   6.760   3.095   3.523
 3255TIP3    H1 9722   6.698   3.166   3.507
 3255TIP3    H2 9723   6.846   3.139   3.524
 3256TIP3   OH2 9724   4.295   2.049   3.874
 3256TIP3    H1 9725   4.240   2.127   3.866
 3256TIP3    H2 9726   4.246   1.980   3.830
 3257TIP3   OH2 9727   7.317   4.453   5.217
 3257TIP3    H1 9728   7.274   4.501   5.287
 3257TIP3    H2 9729   7.392   4.411   5.258
 3258TIP3   OH2 9730   6.495   0.185   4.196
 3258TIP3    H1 9731   6.572   0.178   4.252
 3258TIP3    H2 9732   6.450   0.101   4.208
 3259TIP3   OH2 9733   6.108   3.570   2.283
 3259TIP3    H1 9734   6.152   3.488   2.307
 3259TIP3    H2 9735   6.165   3.610   2.217
 3260TIP3   OH2 9736   1.413   1.713   4.505
 3260TIP3    H1 9737   1.478   1.782   4.520
 3260TIP3    H2 9738   1.396   1.715   4.411
 3261TIP3   OH2 9739   6.287   3.005   5.826
 3261TIP3    H1 9740   6.268   3.060   5.902
 3261TIP3    H2 9741   6.243   2.922   5.846
 3262TIP3   OH2 9742   5.534   1.076   1.116
 3262TIP3    H1 9743   5.608   1.026   1.149
 3262TIP3    H2 9744   5.484   1.100   1.194
 3263TIP3   OH2 9745   5.291   6.860   4.934
 3263TIP3    H1 9746   5.301   6.956   4.938
 3263TIP3    H2 9747   5.380   6.826   4.946
 3264TIP3   OH2 9748   4.825   4.847   4.397
 3264TIP3    H1 9749   4.878   4.860   4.475
 3264TIP3    H2 9750   4.762   4.779   4.422
 3265TIP3   OH2 9751   0.854   2.311   1.645
 3265TIP3    H1 9752   0.897   2.378   1.699
 3265TIP3    H2 9753   0.817   2.250   1.708
 3266TIP3   OH2 9754   7.076   0.249   4.366
 3266TIP3    H1 9755   7.023   0.305   4.309
 3266TIP3    H2 9756   7.149   0.305   4.393
 3267TIP3   OH2 9757   1.210   6.428   3.388
 3267TIP3    H1 9758   1.229   6.431   3.294
 3267TIP3    H2 9759   1.120   6.397   3.394
 3268TIP3   OH2 9760   6.889   6.466   4.728
 3268TIP3    H1 9761   6.842   6.449   4.647
 3268TIP3    H2 9762   6.980   6.447   4.707
 3269TIP3   OH2 9763   8.138   1.964   3.838
 3269TIP3    H1 9764   8.062   2.021   3.845
 3269TIP3    H2 9765   8.137   1.935   3.746
 3270TIP3   OH2 9766   2.663   3.400   2.289
 3270TIP3    H1 9767   2.672   3.439   2.375
 3270TIP3    H2 9768   2.614   3.319   2.304
 3271TIP3   OH2 9769   1.272   2.190   2.365
 3271TIP3    H1 9770   1.248   2.191   2.272
 3271TIP3    H2 9771   1.231   2.111   2.399
 3272TIP3   OH2 9772   6.965   1.538   1.057
 3272TIP3    H1 9773   7.041   1.479   1.061
 3272TIP3    H2 9774   6.891   1.480   1.040
 3273TIP3   OH2 9775   2.871   1.622   2.191
 3273TIP3    H1 9776   2.935   1.686   2.221
 3273TIP3    H2 9777   2.919   1.539   2.186
 3274TIP3   OH2 9778   4.738   3.372   5.819
 3274TIP3    H1 9779   4.750   3.381   5.913
 3274TIP3    H2 9780   4.818   3.407   5.781
 3275TIP3   OH2 9781   0.807   7.674   1.298
 3275TIP3    H1 9782   0.778   7.765   1.292
 3275TIP3    H2 9783   0.878   7.667   1.235
 3276TIP3   OH2 9784   7.522   2.904   6.167
 3276TIP3    H1 9785   7.607   2.886   6.129
 3276TIP3    H2 9786   7.477   2.819   6.167
 3277TIP3   OH2 9787   1.107   1.767   6.066
 3277TIP3    H1 9788   1.197   1.735   6.061
 3277TIP3    H2 9789   1.115   1.862   6.077
 3278TIP3   OH2 9790   5.239   5.246   1.179
 3278TIP3    H1 9791   5.163   5.193   1.158
 3278TIP3    H2 9792   5.203   5.333   1.198
 3279TIP3   OH2 9793   4.651   2.776   4.163
 3279TIP3    H1 9794   4.713   2.733   4.104
 3279TIP3    H2 9795   4.657   2.869   4.141
 3280TIP3   OH2 9796   0.408   4.241   6.068
 3280TIP3    H1 9797   0.345   4.301   6.026
 3280TIP3    H2 9798   0.466   4.298   6.118
 3281TIP3   OH2 9799   4.471   1.828   0.501
 3281TIP3    H1 9800   4.481   1.920   0.524
 3281TIP3    H2 9801   4.409   1.794   0.565
 3282TIP3   OH2 9802   7.477   6.796   2.830
 3282TIP3    H1 9803   7.480   6.884   2.869
 3282TIP3    H2 9804   7.384   6.777   2.820
 3283TIP3   OH2 9805   1.605   1.112   4.443
 3283TIP3    H1 9806   1.555   1.120   4.362
 3283TIP3    H2 9807   1.672   1.179   4.436
 3284TIP3   OH2 9808   0.367   3.611   0.168
 3284TIP3    H1 9809   0.275   3.636   0.177
 3284TIP3    H2 9810   0.405   3.679   0.111
 3285TIP3   OH2 9811   2.430   5.403   1.792
 3285TIP3    H1 9812   2.450   5.426   1.701
 3285TIP3    H2 9813   2.462   5.313   1.801
 3286TIP3   OH2 9814   7.739   7.242   0.484
 3286TIP3    H1 9815   7.799   7.293   0.539
 3286TIP3    H2 9816   7.682   7.196   0.546
 3287TIP3   OH2 9817   6.746   0.790   0.357
 3287TIP3    H1 9818   6.798   0.824   0.284
 3287TIP3    H2 9819   6.701   0.714   0.321
 3288TIP3   OH2 9820   4.349   3.543   2.263
 3288TIP3    H1 9821   4.428   3.526   2.211
 3288TIP3    H2 9822   4.297   3.463   2.253
 3289TIP3   OH2 9823   5.090   4.575   4.898
 3289TIP3    H1 9824   5.011   4.571   4.951
 3289TIP3    H2 9825   5.070   4.522   4.821
 3290TIP3   OH2 9826   4.950   0.920   4.109
 3290TIP3    H1 9827   5.012   0.848   4.100
 3290TIP3    H2 9828   5.004   0.999   4.100
 3291TIP3   OH2 9829   0.322   6.780   1.056
 3291TIP3    H1 9830   0.356   6.807   0.971
 3291TIP3    H2 9831   0.397   6.741   1.100
 3292TIP3   OH2 9832   6.710   5.375   3.440
 3292TIP3    H1 9833   6.616   5.379   3.426
 3292TIP3    H2 9834   6.746   5.352   3.354
 3293TIP3   OH2 9835   3.478   1.456   4.326
 3293TIP3    H1 9836   3.480   1.430   4.234
 3293TIP3    H2 9837   3.389   1.488   4.340
 3294TIP3   OH2 9838   7.174   0.051   5.476
 3294TIP3    H1 9839   7.080   0.049   5.457
 3294TIP3    H2 9840   7.179   0.034   5.571
 3295TIP3   OH2 9841   7.262   1.234   5.355
 3295TIP3    H1 9842   7.239   1.326   5.371
 3295TIP3    H2 9843   7.351   1.237   5.319
 3296TIP3   OH2 9844   8.184   1.653   5.220
 3296TIP3    H1 9845   8.110   1.691   5.269
 3296TIP3    H2 9846   8.248   1.631   5.288
 3297TIP3   OH2 9847   2.386   3.297   5.329
 3297TIP3    H1 9848   2.417   3.242   5.401
 3297TIP3    H2 9849   2.336   3.367   5.371
 3298TIP3   OH2 9850   8.143   0.276   4.576
 3298TIP3    H1 9851   8.067   0.232   4.539
 3298TIP3    H2 9852   8.107   0.352   4.621
 3299TIP3   OH2 9853   6.831   1.934   1.783
 3299TIP3    H1 9854   6.859   1.898   1.699
 3299TIP3    H2 9855   6.877   2.018   1.790
 3300TIP3   OH2 9856   3.198   4.962   3.356
 3300TIP3    H1 9857   3.131   4.896   3.372
 3300TIP3    H2 9858   3.177   5.033   3.417
 3301TIP3   OH2 9859   3.655   5.611   4.381
 3301TIP3    H1 9860   3.568   5.593   4.345
 3301TIP3    H2 9861   3.683   5.691   4.338
 3302TIP3   OH2 9862   7.186   3.065   5.766
 3302TIP3    H1 9863   7.249   3.017   5.712
 3302TIP3    H2 9864   7.117   3.091   5.705
 3303TIP3   OH2 9865   7.920   3.370   1.483
 3303TIP3    H1 9866   7.911   3.293   1.426
 3303TIP3    H2 9867   7.912   3.445   1.424
 3304TIP3   OH2 9868   4.490   3.049   6.075
 3304TIP3    H1 9869   4.492   3.003   5.990
 3304TIP3    H2 9870   4.407   3.096   6.074
 3305TIP3   OH2 9871   8.142   5.678   3.722
 3305TIP3    H1 9872   8.115   5.766   3.746
 3305TIP3    H2 9873   8.184   5.688   3.636
 3306TIP3   OH2 9874   1.781   5.587   0.097
 3306TIP3    H1 9875   1.701   5.535   0.105
 3306TIP3    H2 9876   1.839   5.534   0.043
 3307TIP3   OH2 9877   3.962   5.043   5.372
 3307TIP3    H1 9878   4.032   5.063   5.435
 3307TIP3    H2 9879   4.008   5.028   5.289
 3308TIP3   OH2 9880   3.931   4.967   0.317
 3308TIP3    H1 9881   3.993   4.938   0.384
 3308TIP3    H2 9882   3.966   5.050   0.286
 3309TIP3   OH2 9883   5.447   0.710   0.335
 3309TIP3    H1 9884   5.482   0.627   0.301
 3309TIP3    H2 9885   5.522   0.753   0.375
 3310TIP3   OH2 9886   4.821   3.207   0.792
 3310TIP3    H1 9887   4.800   3.181   0.881
 3310TIP3    H2 9888   4.737   3.209   0.747
 3311TIP3   OH2 9889   2.370   4.917   5.040
 3311TIP3    H1 9890   2.400   4.869   5.118
 3311TIP3    H2 9891   2.351   4.848   4.976
 3312TIP3   OH2 9892   7.404   5.319   4.792
 3312TIP3    H1 9893   7.455   5.239   4.807
 3312TIP3    H2 9894   7.407   5.332   4.698
 3313TIP3   OH2 9895   5.670   1.335   3.024
 3313TIP3    H1 9896   5.599   1.398   3.020
 3313TIP3    H2 9897   5.692   1.318   2.932
 3314TIP3   OH2 9898   4.793   0.064   5.564
 3314TIP3    H1 9899   4.863   0.026   5.510
 3314TIP3    H2 9900   4.714   0.016   5.538
 3315TIP3   OH2 9901   4.933   5.816   1.895
 3315TIP3    H1 9902   4.919   5.842   1.986
 3315TIP3    H2 9903   4.848   5.825   1.853
 3316TIP3   OH2 9904   4.536   6.533   3.080
 3316TIP3    H1 9905   4.626   6.508   3.060
 3316TIP3    H2 9906   4.535   6.628   3.070
 3317TIP3   OH2 9907   7.941   6.866   3.155
 3317TIP3    H1 9908   7.882   6.913   3.097
 3317TIP3    H2 9909   7.977   6.795   3.101
 3318TIP3   OH2 9910   3.515   4.548   3.694
 3318TIP3    H1 9911   3.519   4.615   3.762
 3318TIP3    H2 9912   3.489   4.595   3.615
 3319TIP3   OH2 9913   1.897   7.184   6.352
 3319TIP3    H1 9914   1.930   7.265   6.391
 3319TIP3    H2 9915   1.972   7.124   6.355
 3320TIP3   OH2 9916   6.540   5.150   6.137
 3320TIP3    H1 9917   6.488   5.226   6.111
 3320TIP3    H2 9918   6.630   5.182   6.138
 3321TIP3   OH2 9919   1.765   2.889   5.088
 3321TIP3    H1 9920   1.773   2.836   5.008
 3321TIP3    H2 9921   1.843   2.945   5.087
 3322TIP3   OH2 9922   6.067   4.028   1.056
 3322TIP3    H1 9923   6.104   4.116   1.048
 3322TIP3    H2 9924   5.995   4.027   0.993
 3323TIP3   OH2 9925   2.338   3.015   4.811
 3323TIP3    H1 9926   2.339   2.957   4.887
 3323TIP3    H2 9927   2.431   3.033   4.793
 3324TIP3   OH2 9928   1.875   2.446   1.100
 3324TIP3    H1 9929   1.832   2.471   1.018
 3324TIP3    H2 9930   1.964   2.422   1.074
 3325TIP3   OH2 9931   2.248   2.191   6.174
 3325TIP3    H1 9932   2.194   2.270   6.176
 3325TIP3    H2 9933   2.245   2.158   6.263
 3326TIP3   OH2 9934   5.494   2.148   6.018
 3326TIP3    H1 9935   5.545   2.228   6.030
 3326TIP3    H2 9936   5.433   2.169   5.948
 3327TIP3   OH2 9937   6.743   4.397   4.401
 3327TIP3    H1 9938   6.710   4.414   4.489
 3327TIP3    H2 9939   6.799   4.472   4.381
 3328TIP3   OH2 9940   7.673   7.313   5.629
 3328TIP3    H1 9941   7.733   7.306   5.554
 3328TIP3    H2 9942   7.595   7.265   5.602
 3329TIP3   OH2 9943   1.317   0.317   1.708
 3329TIP3    H1 9944   1.385   0.374   1.672
 3329TIP3    H2 9945   1.253   0.310   1.638
 3330TIP3   OH2 9946   2.480   6.877   4.403
 3330TIP3    H1 9947   2.490   6.808   4.337
 3330TIP3    H2 9948   2.414   6.936   4.367
 3331TIP3   OH2 9949   3.562   5.168   4.883
 3331TIP3    H1 9950   3.543   5.110   4.809
 3331TIP3    H2 9951   3.608   5.242   4.843
 3332TIP3   OH2 9952   0.615   1.256   5.668
 3332TIP3    H1 9953   0.665   1.233   5.746
 3332TIP3    H2 9954   0.632   1.184   5.607
 3333TIP3   OH2 9955   3.012   3.620   1.854
 3333TIP3    H1 9956   2.954   3.664   1.916
 3333TIP3    H2 9957   3.096   3.665   1.864
 3334TIP3   OH2 9958   2.300   1.219   1.718
 3334TIP3    H1 9959   2.229   1.246   1.660
 3334TIP3    H2 9960   2.264   1.145   1.767
 3335TIP3   OH2 9961   3.499   5.320   2.703
 3335TIP3    H1 9962   3.459   5.233   2.704
 3335TIP3    H2 9963   3.451   5.366   2.634
 3336TIP3   OH2 9964   0.482   1.990   5.376
 3336TIP3    H1 9965   0.552   2.030   5.325
 3336TIP3    H2 9966   0.452   2.059   5.435
 3337TIP3   OH2 9967   4.249   2.372   2.781
 3337TIP3    H1 9968   4.235   2.300   2.719
 3337TIP3    H2 9969   4.337   2.358   2.816
 3338TIP3   OH2 9970   5.438   5.136   2.304
 3338TIP3    H1 9971   5.380   5.063   2.281
 3338TIP3    H2 9972   5.482   5.106   2.384
 3339TIP3   OH2 9973   0.785   5.735   0.144
 3339TIP3    H1 9974   0.756   5.771   0.227
 3339TIP3    H2 9975   0.880   5.744   0.145
 3340TIP3   OH2 9976   4.141   4.245   4.877
 3340TIP3    H1 9977   4.172   4.156   4.892
 3340TIP3    H2 9978   4.123   4.250   4.784
 3341TIP3   OH2 9979   6.221   2.258   5.665
 3341TIP3    H1 9980   6.143   2.205   5.650
 3341TIP3    H2 9981   6.207   2.337   5.614
 3342TIP3   OH2 9982   1.524   0.263   3.364
 3342TIP3    H1 9983   1.455   0.267   3.297
 3342TIP3    H2 9984   1.535   0.170   3.382
 3343TIP3   OH2 9985   5.551   4.495   1.519
 3343TIP3    H1 9986   5.474   4.463   1.566
 3343TIP3    H2 9987   5.618   4.428   1.531
 3344TIP3   OH2 9988   5.788   5.898   3.235
 3344TIP3    H1 9989   5.751   5.818   3.197
 3344TIP3    H2 9990   5.754   5.899   3.325
 3345TIP3   OH2 9991   8.233   0.882   1.187
 3345TIP3    H1 9992   8.143   0.914   1.175
 3345TIP3    H2 9993   8.224   0.809   1.248
 3346TIP3   OH2 9994   1.021   5.603   5.909
 3346TIP3    H1 9995   0.998   5.528   5.964
 3346TIP3    H2 9996   1.054   5.668   5.970
 3347TIP3   OH2 9997   1.130   5.029   3.917
 3347TIP3    H1 9998   1.065   5.093   3.947
 3347TIP3    H2 9999   1.098   5.000   3.832
 3348TIP3   OH210000   3.572   4.929   6.314
 3348TIP3    H110001   3.619   4.996   6.264
 3348TIP3    H210002   3.640   4.868   6.342
 3349TIP3   OH210003   2.040   3.782   6.135
 3349TIP3    H110004   2.115   3.797   6.077
 3349TIP3    H210005   1.993   3.865   6.134
 3350TIP3   OH210006   0.049   2.121   1.511
 3350TIP3    H110007  -0.008   2.099   1.437
 3350TIP3    H210008   0.049   2.216   1.514
 3351TIP3   OH210009   3.676   0.553   4.851
 3351TIP3    H110010   3.769   0.533   4.856
 3351TIP3    H210011   3.665   0.632   4.904
 3352TIP3   OH210012   2.017   4.146   3.932
 3352TIP3    H110013   2.107   4.129   3.906
 3352TIP3    H210014   2.021   4.228   3.981
 3353TIP3   OH210015   1.805   6.206   2.947
 3353TIP3    H110016   1.776   6.129   2.896
 3353TIP3    H210017   1.833   6.170   3.031
 3354TIP3   OH210018   5.692   7.091   1.517
 3354TIP3    H110019   5.610   7.088   1.467
 3354TIP3    H210020   5.761   7.090   1.451
 3355TIP3   OH210021   5.218   1.132   5.459
 3355TIP3    H110022   5.152   1.070   5.491
 3355TIP3    H210023   5.278   1.078   5.408
 3356TIP3   OH210024   7.975   3.081   2.928
 3356TIP3    H110025   8.020   3.162   2.950
 3356TIP3    H210026   8.027   3.043   2.857
 3357TIP3   OH210027   4.434   5.571   5.690
 3357TIP3    H110028   4.522   5.572   5.653
 3357TIP3    H210029   4.437   5.505   5.759
 3358TIP3   OH210030   8.093   2.122   0.304
 3358TIP3    H110031   8.121   2.055   0.242
 3358TIP3    H210032   8.015   2.160   0.264
 3359TIP3   OH210033   7.466   5.215   6.123
 3359TIP3    H110034   7.409   5.271   6.071
 3359TIP3    H210035   7.441   5.126   6.099
 3360TIP3   OH210036   4.148   6.229   5.197
 3360TIP3    H110037   4.105   6.312   5.219
 3360TIP3    H210038   4.077   6.165   5.194
 3361TIP3   OH210039   0.849   0.586   2.619
 3361TIP3    H110040   0.911   0.601   2.547
 3361TIP3    H210041   0.793   0.663   2.619
 3362TIP3   OH210042   4.517   0.964   1.611
 3362TIP3    H110043   4.458   1.038   1.625
 3362TIP3    H210044   4.460   0.887   1.609
 3363TIP3   OH210045   0.839   3.407   1.612
 3363TIP3    H110046   0.828   3.460   1.690
 3363TIP3    H210047   0.933   3.400   1.600
 3364TIP3   OH210048   1.013   3.317   3.497
 3364TIP3    H110049   0.997   3.346   3.586
 3364TIP3    H210050   1.088   3.258   3.504
 3365TIP3   OH210051   1.828   1.686   3.470
 3365TIP3    H110052   1.875   1.610   3.434
 3365TIP3    H210053   1.739   1.677   3.437
 3366TIP3   OH210054   4.665   6.786   0.018
 3366TIP3    H110055   4.659   6.705   0.068
 3366TIP3    H210056   4.599   6.844   0.057
 3367TIP3   OH210057   7.297   1.986   5.074
 3367TIP3    H110058   7.334   1.963   5.159
 3367TIP3    H210059   7.251   2.068   5.088
 3368TIP3   OH210060   7.042   2.480   5.829
 3368TIP3    H110061   6.980   2.425   5.780
 3368TIP3    H210062   7.128   2.443   5.809
 3369TIP3   OH210063   0.238   5.538   1.907
 3369TIP3    H110064   0.306   5.605   1.908
 3369TIP3    H210065   0.188   5.555   1.827
 3370TIP3   OH210066   2.354   0.514   4.970
 3370TIP3    H110067   2.320   0.433   5.009
 3370TIP3    H210068   2.447   0.498   4.958
 3371TIP3   OH210069   7.703   3.422   2.723
 3371TIP3    H110070   7.625   3.382   2.686
 3371TIP3    H210071   7.751   3.456   2.647
 3372TIP3   OH210072   5.827   4.083   6.078
 3372TIP3    H110073   5.736   4.071   6.049
 3372TIP3    H210074   5.829   4.173   6.112
 3373TIP3   OH210075   5.321   0.976   0.957
 3373TIP3    H110076   5.310   0.885   0.984
 3373TIP3    H210077   5.393   1.008   1.011
 3374TIP3   OH210078   6.389   0.075   3.314
 3374TIP3    H110079   6.304   0.110   3.340
 3374TIP3    H210080   6.429   0.044   3.396
 3375TIP3   OH210081   3.224   0.925   5.139
 3375TIP3    H110082   3.295   0.868   5.110
 3375TIP3    H210083   3.195   0.887   5.222
 3376TIP3   OH210084   1.080   1.448   2.933
 3376TIP3    H110085   1.160   1.487   2.898
 3376TIP3    H210086   1.110   1.394   3.006
 3377TIP3   OH210087   6.164   2.655   3.567
 3377TIP3    H110088   6.238   2.594   3.567
 3377TIP3    H210089   6.205   2.742   3.564
 3378TIP3   OH210090   5.030   3.501   4.780
 3378TIP3    H110091   4.953   3.478   4.832
 3378TIP3    H210092   5.033   3.436   4.711
 3379TIP3   OH210093   4.891   3.398   1.943
 3379TIP3    H110094   4.844   3.314   1.934
 3379TIP3    H210095   4.981   3.378   1.918
 3380TIP3   OH210096   5.298   0.265   0.356
 3380TIP3    H110097   5.314   0.203   0.427
 3380TIP3    H210098   5.284   0.210   0.279
 3381TIP3   OH210099   1.378   6.613   4.591
 3381TIP3    H110100   1.466   6.585   4.566
 3381TIP3    H210101   1.329   6.615   4.509
 3382TIP3   OH210102   6.071   3.493   0.544
 3382TIP3    H110103   6.075   3.510   0.638
 3382TIP3    H210104   6.126   3.416   0.531
 3383TIP3   OH210105   6.735   1.389   0.799
 3383TIP3    H110106   6.827   1.367   0.786
 3383TIP3    H210107   6.702   1.321   0.858
 3384TIP3   OH210108   3.522   4.428   1.314
 3384TIP3    H110109   3.436   4.387   1.302
 3384TIP3    H210110   3.503   4.512   1.355
 3385TIP3   OH210111   6.857   7.566   5.877
 3385TIP3    H110112   6.798   7.612   5.817
 3385TIP3    H210113   6.810   7.567   5.961
 3386TIP3   OH210114   6.854   6.239   0.429
 3386TIP3    H110115   6.862   6.332   0.453
 3386TIP3    H210116   6.942   6.214   0.402
 3387TIP3   OH210117   2.028   7.529   3.653
 3387TIP3    H110118   2.106   7.515   3.599
 3387TIP3    H210119   2.008   7.442   3.689
 3388TIP3   OH210120   4.148   1.447   0.920
 3388TIP3    H110121   4.172   1.539   0.931
 3388TIP3    H210122   4.142   1.435   0.825
 3389TIP3   OH210123   0.790   4.176   4.575
 3389TIP3    H110124   0.742   4.259   4.576
 3389TIP3    H210125   0.725   4.110   4.552
 3390TIP3   OH210126   2.195   3.361   1.818
 3390TIP3    H110127   2.132   3.396   1.881
 3390TIP3    H210128   2.227   3.438   1.771
 3391TIP3   OH210129   4.777   5.300   5.981
 3391TIP3    H110130   4.836   5.361   5.937
 3391TIP3    H210131   4.830   5.222   5.998
 3392TIP3   OH210132   6.828   1.540   1.567
 3392TIP3    H110133   6.909   1.529   1.615
 3392TIP3    H210134   6.852   1.593   1.491
 3393TIP3   OH210135   0.343   7.420   5.443
 3393TIP3    H110136   0.430   7.382   5.432
 3393TIP3    H210137   0.359   7.512   5.464
 3394TIP3   OH210138   5.370   2.177   1.592
 3394TIP3    H110139   5.381   2.094   1.544
 3394TIP3    H210140   5.390   2.155   1.683
 3395TIP3   OH210141   4.059   6.859   1.849
 3395TIP3    H110142   4.018   6.932   1.897
 3395TIP3    H210143   3.989   6.825   1.793
 3396TIP3   OH210144   2.357   0.460   6.012
 3396TIP3    H110145   2.382   0.380   5.967
 3396TIP3    H210146   2.409   0.529   5.971
 3397TIP3   OH210147   2.951   6.160   1.428
 3397TIP3    H110148   3.012   6.162   1.354
 3397TIP3    H210149   2.997   6.206   1.499
 3398TIP3   OH210150   4.895   3.181   4.054
 3398TIP3    H110151   4.971   3.229   4.088
 3398TIP3    H210152   4.930   3.094   4.033
 3399TIP3   OH210153   6.392   4.984   1.116
 3399TIP3    H110154   6.345   4.987   1.199
 3399TIP3    H210155   6.330   5.020   1.053
 3400TIP3   OH210156   1.531   1.973   0.381
 3400TIP3    H110157   1.457   1.942   0.433
 3400TIP3    H210158   1.601   1.910   0.400
 3401TIP3   OH210159   3.015   3.881   2.439
 3401TIP3    H110160   2.994   3.950   2.502
 3401TIP3    H210161   3.094   3.912   2.395
 3402TIP3   OH210162   7.370   2.964   4.270
 3402TIP3    H110163   7.370   2.922   4.356
 3402TIP3    H210164   7.434   3.035   4.279
 3403TIP3   OH210165   6.647   6.093   5.918
 3403TIP3    H110166   6.681   6.132   5.999
 3403TIP3    H210167   6.638   6.167   5.858
 3404TIP3   OH210168   8.188   1.414   2.934
 3404TIP3    H110169   8.109   1.462   2.908
 3404TIP3    H210170   8.260   1.465   2.899
 3405TIP3   OH210171   3.814   6.916   1.387
 3405TIP3    H110172   3.760   6.950   1.459
 3405TIP3    H210173   3.751   6.896   1.318
 3406TIP3   OH210174   0.602   7.620   6.569
 3406TIP3    H110175   0.617   7.712   6.549
 3406TIP3    H210176   0.572   7.582   6.486
 3407TIP3   OH210177   1.812   3.167   6.625
 3407TIP3    H110178   1.800   3.251   6.581
 3407TIP3    H210179   1.728   3.122   6.614
 3408TIP3   OH210180   1.782   3.433   5.089
 3408TIP3    H110181   1.695   3.408   5.121
 3408TIP3    H210182   1.798   3.373   5.016
 3409TIP3   OH210183   4.294   7.356   3.909
 3409TIP3    H110184   4.241   7.412   3.853
 3409TIP3    H210185   4.300   7.403   3.992
 3410TIP3   OH210186   7.949   6.171   2.616
 3410TIP3    H110187   7.933   6.223   2.537
 3410TIP3    H210188   8.044   6.171   2.626
 3411TIP3   OH210189   2.504   6.045   2.883
 3411TIP3    H110190   2.457   6.126   2.904
 3411TIP3    H210191   2.513   6.000   2.967
 3412TIP3   OH210192   7.667   7.304   5.224
 3412TIP3    H110193   7.730   7.286   5.154
 3412TIP3    H210194   7.722   7.328   5.299
 3413TIP3   OH210195   0.230   2.005   2.558
 3413TIP3    H110196   0.262   2.069   2.622
 3413TIP3    H210197   0.263   2.037   2.474
 3414TIP3   OH210198   4.581   6.247   6.175
 3414TIP3    H110199   4.547   6.288   6.096
 3414TIP3    H210200   4.670   6.282   6.185
 3415TIP3   OH210201   3.151   2.157   3.328
 3415TIP3    H110202   3.186   2.113   3.250
 3415TIP3    H210203   3.216   2.139   3.396
 3416TIP3   OH210204   1.621   4.208   0.773
 3416TIP3    H110205   1.654   4.155   0.846
 3416TIP3    H210206   1.667   4.174   0.696
 3417TIP3   OH210207   6.856   0.639   3.467
 3417TIP3    H110208   6.933   0.586   3.486
 3417TIP3    H210209   6.786   0.575   3.452
 3418TIP3   OH210210   7.324   6.856   5.773
 3418TIP3    H110211   7.244   6.906   5.789
 3418TIP3    H210212   7.389   6.921   5.748
 3419TIP3   OH210213   8.263   4.694   1.202
 3419TIP3    H110214   8.338   4.754   1.209
 3419TIP3    H210215   8.198   4.743   1.151
 3420TIP3   OH210216   3.109   1.187   5.093
 3420TIP3    H110217   3.166   1.110   5.104
 3420TIP3    H210218   3.159   1.246   5.037
 3421TIP3   OH210219   4.097   0.278   0.182
 3421TIP3    H110220   4.109   0.208   0.245
 3421TIP3    H210221   4.081   0.356   0.235
 3422TIP3   OH210222   2.837   1.819   3.854
 3422TIP3    H110223   2.888   1.766   3.792
 3422TIP3    H210224   2.797   1.755   3.913
 3423TIP3   OH210225   6.521   1.798   3.107
 3423TIP3    H110226   6.463   1.780   3.180
 3423TIP3    H210227   6.561   1.713   3.087
 3424TIP3   OH210228   5.550   4.935   5.405
 3424TIP3    H110229   5.493   4.898   5.338
 3424TIP3    H210230   5.491   4.957   5.477
 3425TIP3   OH210231   6.039   4.395   1.680
 3425TIP3    H110232   6.104   4.381   1.749
 3425TIP3    H210233   6.072   4.469   1.630
 3426TIP3   OH210234   4.199   3.419   2.882
 3426TIP3    H110235   4.184   3.341   2.829
 3426TIP3    H210236   4.293   3.420   2.898
 3427TIP3   OH210237   2.487   1.867   3.331
 3427TIP3    H110238   2.438   1.934   3.380
 3427TIP3    H210239   2.427   1.793   3.327
 3428TIP3   OH210240   2.112   3.133   1.608
 3428TIP3    H110241   2.061   3.213   1.594
 3428TIP3    H210242   2.187   3.162   1.661
 3429TIP3   OH210243   3.793   1.063   4.769
 3429TIP3    H110244   3.811   1.157   4.773
 3429TIP3    H210245   3.857   1.023   4.828
 3430TIP3   OH210246   6.464   7.608   6.651
 3430TIP3    H110247   6.516   7.583   6.574
 3430TIP3    H210248   6.386   7.552   6.645
 3431TIP3   OH210249   7.613   4.649   3.264
 3431TIP3    H110250   7.659   4.698   3.196
 3431TIP3    H210251   7.675   4.644   3.337
 3432TIP3   OH210252   7.582   4.081   6.678
 3432TIP3    H110253   7.522   4.128   6.736
 3432TIP3    H210254   7.661   4.135   6.677
 3433TIP3   OH210255   3.523   2.949   3.431
 3433TIP3    H110256   3.481   2.966   3.347
 3433TIP3    H210257   3.600   3.006   3.432
 3434TIP3   OH210258   4.426   5.157   0.302
 3434TIP3    H110259   4.480   5.220   0.350
 3434TIP3    H210260   4.456   5.071   0.334
 3435TIP3   OH210261   0.741   5.389   1.041
 3435TIP3    H110262   0.684   5.452   1.085
 3435TIP3    H210263   0.829   5.422   1.056
 3436TIP3   OH210264   2.746   1.729   0.773
 3436TIP3    H110265   2.784   1.818   0.772
 3436TIP3    H210266   2.816   1.674   0.807
 3437TIP3   OH210267   4.081   5.154   3.655
 3437TIP3    H110268   4.019   5.227   3.657
 3437TIP3    H210269   4.090   5.127   3.746
 3438TIP3   OH210270   8.100   2.874   0.528
 3438TIP3    H110271   8.168   2.808   0.532
 3438TIP3    H210272   8.143   2.951   0.491
 3439TIP3   OH210273   2.309   0.827   6.219
 3439TIP3    H110274   2.343   0.739   6.237
 3439TIP3    H210275   2.319   0.874   6.302
 3440TIP3   OH210276   6.813   0.589   0.107
 3440TIP3    H110277   6.721   0.563   0.104
 3440TIP3    H210278   6.859   0.512   0.141
 3441TIP3   OH210279   3.327   1.900   2.412
 3441TIP3    H110280   3.308   1.927   2.502
 3441TIP3    H210281   3.270   1.825   2.397
 3442TIP3   OH210282   2.796   5.253   6.221
 3442TIP3    H110283   2.775   5.220   6.134
 3442TIP3    H210284   2.889   5.274   6.217
 3443TIP3   OH210285   8.257   5.801   6.286
 3443TIP3    H110286   8.243   5.751   6.206
 3443TIP3    H210287   8.278   5.889   6.256
 3444TIP3   OH210288   0.655   2.659   5.138
 3444TIP3    H110289   0.631   2.596   5.206
 3444TIP3    H210290   0.742   2.631   5.108
 3445TIP3   OH210291   5.292   0.972   4.087
 3445TIP3    H110292   5.218   0.917   4.115
 3445TIP3    H210293   5.284   0.974   3.991
 3446TIP3   OH210294   2.415   4.818   4.453
 3446TIP3    H110295   2.476   4.882   4.488
 3446TIP3    H210296   2.360   4.794   4.527
 3447TIP3   OH210297   5.809   4.701   4.012
 3447TIP3    H110298   5.803   4.668   4.101
 3447TIP3    H210299   5.719   4.700   3.979
 3448TIP3   OH210300   6.662   0.517   0.396
 3448TIP3    H110301   6.583   0.483   0.439
 3448TIP3    H210302   6.733   0.498   0.457
 3449TIP3   OH210303   5.451   6.255   3.673
 3449TIP3    H110304   5.469   6.224   3.584
 3449TIP3    H210305   5.360   6.283   3.671
 3450TIP3   OH210306   4.949   1.601   2.324
 3450TIP3    H110307   4.960   1.626   2.416
 3450TIP3    H210308   5.036   1.573   2.297
 3451TIP3   OH210309   6.614   5.542   6.735
 3451TIP3    H110310   6.607   5.637   6.729
 3451TIP3    H210311   6.531   5.510   6.701
 3452TIP3   OH210312   5.124   7.510   2.603
 3452TIP3    H110313   5.137   7.455   2.526
 3452TIP3    H210314   5.188   7.479   2.667
 3453TIP3   OH210315   6.832   2.611   2.413
 3453TIP3    H110316   6.924   2.603   2.438
 3453TIP3    H210317   6.793   2.664   2.482
 3454TIP3   OH210318   3.759   1.642   5.427
 3454TIP3    H110319   3.772   1.571   5.364
 3454TIP3    H210320   3.741   1.719   5.374
 3455TIP3   OH210321   0.888   3.491   2.251
 3455TIP3    H110322   0.979   3.469   2.273
 3455TIP3    H210323   0.893   3.579   2.213
 3456TIP3   OH210324   5.384   0.298   2.228
 3456TIP3    H110325   5.461   0.304   2.172
 3456TIP3    H210326   5.316   0.347   2.181
 3457TIP3   OH210327   5.318   0.028   5.773
 3457TIP3    H110328   5.304   0.117   5.741
 3457TIP3    H210329   5.301   0.033   5.867
 3458TIP3   OH210330   5.518   7.805   0.698
 3458TIP3    H110331   5.530   7.710   0.697
 3458TIP3    H210332   5.519   7.828   0.790
 3459TIP3   OH210333   4.874   1.452   1.352
 3459TIP3    H110334   4.848   1.508   1.426
 3459TIP3    H210335   4.970   1.448   1.358
 3460TIP3   OH210336   0.508   6.530   5.595
 3460TIP3    H110337   0.594   6.530   5.553
 3460TIP3    H210338   0.447   6.551   5.524
 3461TIP3   OH210339   8.014   0.918   2.196
 3461TIP3    H110340   8.066   0.935   2.117
 3461TIP3    H210341   7.963   0.998   2.209
 3462TIP3   OH210342   7.577   6.784   1.852
 3462TIP3    H110343   7.644   6.824   1.907
 3462TIP3    H210344   7.546   6.709   1.904
 3463TIP3   OH210345   3.816   3.041   0.868
 3463TIP3    H110346   3.858   3.003   0.791
 3463TIP3    H210347   3.759   3.109   0.833
 3464TIP3   OH210348   2.972   2.516   3.290
 3464TIP3    H110349   3.038   2.583   3.272
 3464TIP3    H210350   2.990   2.446   3.228
 3465TIP3   OH210351   4.727   0.557   0.791
 3465TIP3    H110352   4.773   0.537   0.709
 3465TIP3    H210353   4.762   0.642   0.818
 3466TIP3   OH210354   1.334   4.573   6.596
 3466TIP3    H110355   1.270   4.555   6.665
 3466TIP3    H210356   1.347   4.668   6.600
 3467TIP3   OH210357   0.064   4.779   4.553
 3467TIP3    H110358   0.134   4.743   4.498
 3467TIP3    H210359   0.092   4.868   4.572
 3468TIP3   OH210360   7.950   7.175   4.024
 3468TIP3    H110361   7.919   7.099   3.976
 3468TIP3    H210362   8.034   7.147   4.062
 3469TIP3   OH210363   2.785   6.835   1.741
 3469TIP3    H110364   2.706   6.875   1.778
 3469TIP3    H210365   2.753   6.760   1.690
 3470TIP3   OH210366   2.241   4.835   4.244
 3470TIP3    H110367   2.247   4.755   4.193
 3470TIP3    H210368   2.297   4.820   4.320
 3471TIP3   OH210369   6.715   0.650   3.766
 3471TIP3    H110370   6.767   0.640   3.686
 3471TIP3    H210371   6.780   0.665   3.835
 3472TIP3   OH210372   4.914   0.674   6.458
 3472TIP3    H110373   4.870   0.759   6.457
 3472TIP3    H210374   4.954   0.669   6.545
 3473TIP3   OH210375   5.096   2.435   3.359
 3473TIP3    H110376   5.029   2.421   3.293
 3473TIP3    H210377   5.151   2.505   3.324
 3474TIP3   OH210378   5.135   2.539   4.740
 3474TIP3    H110379   5.152   2.551   4.646
 3474TIP3    H210380   5.044   2.566   4.751
 3475TIP3   OH210381   0.637   1.912   1.560
 3475TIP3    H110382   0.723   1.886   1.594
 3475TIP3    H210383   0.582   1.918   1.638
 3476TIP3   OH210384   4.511   2.656   0.897
 3476TIP3    H110385   4.514   2.561   0.890
 3476TIP3    H210386   4.419   2.678   0.885
 3477TIP3   OH210387   2.129   2.403   1.022
 3477TIP3    H110388   2.088   2.343   0.959
 3477TIP3    H210389   2.168   2.345   1.088
 3478TIP3   OH210390   4.528   2.410   4.918
 3478TIP3    H110391   4.608   2.409   4.865
 3478TIP3    H210392   4.483   2.491   4.892
 3479TIP3   OH210393   1.096   0.306   1.514
 3479TIP3    H110394   1.130   0.332   1.428
 3479TIP3    H210395   1.018   0.360   1.526
 3480TIP3   OH210396   2.098   0.990   4.628
 3480TIP3    H110397   2.132   0.960   4.543
 3480TIP3    H210398   2.099   0.912   4.683
 3481TIP3   OH210399   7.431   1.085   4.366
 3481TIP3    H110400   7.406   1.178   4.366
 3481TIP3    H210401   7.448   1.065   4.458
 3482TIP3   OH210402   2.676   6.991   3.614
 3482TIP3    H110403   2.659   6.901   3.640
 3482TIP3    H210404   2.603   7.014   3.557
 3483TIP3   OH210405   1.951   2.338   2.518
 3483TIP3    H110406   1.983   2.379   2.439
 3483TIP3    H210407   1.863   2.375   2.531
 3484TIP3   OH210408   4.953   4.038   5.116
 3484TIP3    H110409   4.895   4.062   5.044
 3484TIP3    H210410   4.898   4.043   5.194
 3485TIP3   OH210411   1.343   4.535   2.943
 3485TIP3    H110412   1.413   4.492   2.895
 3485TIP3    H210413   1.263   4.493   2.910
 3486TIP3   OH210414   3.451   4.669   1.881
 3486TIP3    H110415   3.455   4.650   1.974
 3486TIP3    H210416   3.443   4.583   1.839
 3487TIP3   OH210417   0.908   3.222   0.704
 3487TIP3    H110418   0.983   3.203   0.761
 3487TIP3    H210419   0.946   3.228   0.616
 3488TIP3   OH210420   7.011   2.246   4.323
 3488TIP3    H110421   6.928   2.207   4.352
 3488TIP3    H210422   7.045   2.184   4.258
 3489TIP3   OH210423   4.377   7.091   6.481
 3489TIP3    H110424   4.430   7.042   6.418
 3489TIP3    H210425   4.430   7.167   6.504
 3490TIP3   OH210426   2.862   2.492   5.158
 3490TIP3    H110427   2.791   2.428   5.161
 3490TIP3    H210428   2.935   2.449   5.202
 3491TIP3   OH210429   4.285   1.890   4.462
 3491TIP3    H110430   4.376   1.861   4.465
 3491TIP3    H210431   4.238   1.830   4.520
 3492TIP3   OH210432   6.684   6.313   5.697
 3492TIP3    H110433   6.673   6.402   5.665
 3492TIP3    H210434   6.628   6.259   5.641
 3493TIP3   OH210435   7.382   3.457   1.564
 3493TIP3    H110436   7.372   3.536   1.617
 3493TIP3    H210437   7.475   3.454   1.542
 3494TIP3   OH210438   5.979   6.166   3.727
 3494TIP3    H110439   6.040   6.098   3.698
 3494TIP3    H210440   5.906   6.161   3.665
 3495TIP3   OH210441   7.155   7.670   0.594
 3495TIP3    H110442   7.171   7.661   0.688
 3495TIP3    H210443   7.231   7.629   0.553
 3496TIP3   OH210444   1.971   0.004   3.408
 3496TIP3    H110445   1.942   0.087   3.371
 3496TIP3    H210446   1.991   0.024   3.500
 3497TIP3   OH210447   2.048   6.061   4.903
 3497TIP3    H110448   1.977   6.054   4.840
 3497TIP3    H210449   2.110   6.123   4.863
 3498TIP3   OH210450   1.384   1.563   5.969
 3498TIP3    H110451   1.408   1.484   6.018
 3498TIP3    H210452   1.449   1.628   5.996
 3499TIP3   OH210453   6.541   3.984   1.779
 3499TIP3    H110454   6.448   3.966   1.763
 3499TIP3    H210455   6.542   4.073   1.813
 3500TIP3   OH210456   1.129   7.010   5.163
 3500TIP3    H110457   1.112   7.048   5.250
 3500TIP3    H210458   1.222   7.023   5.149
 3501TIP3   OH210459   6.447   0.918   5.419
 3501TIP3    H110460   6.423   0.919   5.512
 3501TIP3    H210461   6.365   0.901   5.373
 3502TIP3   OH210462   7.337   6.969   0.513
 3502TIP3    H110463   7.420   6.964   0.560
 3502TIP3    H210464   7.290   7.041   0.555
 3503TIP3   OH210465   7.778   4.950   2.569
 3503TIP3    H110466   7.778   4.856   2.551
 3503TIP3    H210467   7.783   4.991   2.483
 3504TIP3   OH210468   2.422   6.038   6.129
 3504TIP3    H110469   2.333   6.052   6.161
 3504TIP3    H210470   2.433   6.104   6.060
 3505TIP3   OH210471   2.263   2.017   3.996
 3505TIP3    H110472   2.323   2.086   4.026
 3505TIP3    H210473   2.176   2.052   4.015
 3506TIP3   OH210474   2.485   7.199   1.300
 3506TIP3    H110475   2.518   7.127   1.247
 3506TIP3    H210476   2.392   7.203   1.279
 3507TIP3   OH210477   2.232   1.755   3.361
 3507TIP3    H110478   2.173   1.829   3.347
 3507TIP3    H210479   2.179   1.678   3.344
 3508TIP3   OH210480   2.324   1.482   5.421
 3508TIP3    H110481   2.315   1.402   5.472
 3508TIP3    H210482   2.407   1.521   5.450
 3509TIP3   OH210483   7.309   7.695   0.343
 3509TIP3    H110484   7.387   7.730   0.386
 3509TIP3    H210485   7.339   7.669   0.256
 3510TIP3   OH210486   4.115   5.956   6.183
 3510TIP3    H110487   4.172   6.032   6.175
 3510TIP3    H210488   4.054   5.978   6.253
 3511TIP3   OH210489   3.317   0.655   1.633
 3511TIP3    H110490   3.314   0.749   1.614
 3511TIP3    H210491   3.265   0.645   1.713
 3512TIP3   OH210492   7.874   5.934   5.834
 3512TIP3    H110493   7.906   5.961   5.748
 3512TIP3    H210494   7.846   6.016   5.876
 3513TIP3   OH210495   5.680   2.527   5.353
 3513TIP3    H110496   5.685   2.473   5.432
 3513TIP3    H210497   5.606   2.489   5.304
 3514TIP3   OH210498   5.674   4.381   5.587
 3514TIP3    H110499   5.605   4.317   5.598
 3514TIP3    H210500   5.634   4.465   5.610
 3515TIP3   OH210501   1.986   5.466   0.312
 3515TIP3    H110502   2.015   5.557   0.311
 3515TIP3    H210503   1.925   5.460   0.387
 3516TIP3   OH210504   5.672   0.037   0.441
 3516TIP3    H110505   5.598   0.007   0.387
 3516TIP3    H210506   5.638   0.038   0.530
 3517TIP3   OH210507   4.635   6.855   3.047
 3517TIP3    H110508   4.650   6.819   2.959
 3517TIP3    H210509   4.666   6.945   3.041
 3518TIP3   OH210510   3.549   1.589   0.199
 3518TIP3    H110511   3.580   1.501   0.179
 3518TIP3    H210512   3.583   1.606   0.287
 3519TIP3   OH210513   2.960   0.750   1.202
 3519TIP3    H110514   2.989   0.770   1.291
 3519TIP3    H210515   2.870   0.719   1.213
 3520TIP3   OH210516   1.504   7.699   3.270
 3520TIP3    H110517   1.550   7.781   3.286
 3520TIP3    H210518   1.568   7.645   3.222
 3521TIP3   OH210519   0.041   0.463   6.367
 3521TIP3    H110520   0.132   0.478   6.395
 3521TIP3    H210521  -0.009   0.460   6.449
 3522TIP3   OH210522   0.318   5.245   1.661
 3522TIP3    H110523   0.239   5.226   1.712
 3522TIP3    H210524   0.384   5.265   1.727
 3523TIP3   OH210525   6.237   2.021   1.959
 3523TIP3    H110526   6.201   2.088   1.901
 3523TIP3    H210527   6.275   2.070   2.032
 3524TIP3   OH210528   6.349   6.882   4.821
 3524TIP3    H110529   6.286   6.895   4.751
 3524TIP3    H210530   6.433   6.909   4.783
 3525TIP3   OH210531   6.378   0.940   6.306
 3525TIP3    H110532   6.385   0.959   6.212
 3525TIP3    H210533   6.443   0.997   6.347
 3526TIP3   OH210534   2.810   2.850   0.145
 3526TIP3    H110535   2.744   2.850   0.075
 3526TIP3    H210536   2.770   2.900   0.216
 3527TIP3   OH210537   2.728   4.504   0.319
 3527TIP3    H110538   2.664   4.434   0.335
 3527TIP3    H210539   2.775   4.513   0.402
 3528TIP3   OH210540   5.346   1.437   1.344
 3528TIP3    H110541   5.270   1.387   1.315
 3528TIP3    H210542   5.390   1.463   1.262
 3529TIP3   OH210543   1.493   1.329   6.077
 3529TIP3    H110544   1.548   1.263   6.036
 3529TIP3    H210545   1.552   1.375   6.137
 3530TIP3   OH210546   0.551   6.006   6.060
 3530TIP3    H110547   0.594   5.965   5.986
 3530TIP3    H210548   0.532   6.095   6.030
 3531TIP3   OH210549   7.057   2.988   1.992
 3531TIP3    H110550   7.098   2.973   2.077
 3531TIP3    H210551   6.963   2.980   2.008
 3532TIP3   OH210552   4.401   6.129   5.111
 3532TIP3    H110553   4.449   6.180   5.177
 3532TIP3    H210554   4.309   6.149   5.128
 3533TIP3   OH210555   3.685   4.693   3.911
 3533TIP3    H110556   3.653   4.607   3.938
 3533TIP3    H210557   3.735   4.676   3.831
 3534TIP3   OH210558   5.647   5.125   1.133
 3534TIP3    H110559   5.624   5.109   1.041
 3534TIP3    H210560   5.644   5.038   1.174
 3535TIP3   OH210561   5.394   1.449   0.947
 3535TIP3    H110562   5.371   1.486   0.862
 3535TIP3    H210563   5.326   1.384   0.964
 3536TIP3   OH210564   3.244   5.319   2.045
 3536TIP3    H110565   3.232   5.274   1.962
 3536TIP3    H210566   3.194   5.401   2.035
 3537TIP3   OH210567   2.207   5.350   6.275
 3537TIP3    H110568   2.243   5.270   6.315
 3537TIP3    H210569   2.191   5.326   6.184
 3538TIP3   OH210570   5.532   2.519   3.514
 3538TIP3    H110571   5.461   2.574   3.547
 3538TIP3    H210572   5.571   2.570   3.443
 3539TIP3   OH210573  -0.004   6.965   6.082
 3539TIP3    H110574  -0.003   7.035   6.017
 3539TIP3    H210575  -0.008   7.011   6.166
 3540TIP3   OH210576   3.519   3.021   6.185
 3540TIP3    H110577   3.428   3.044   6.202
 3540TIP3    H210578   3.525   2.928   6.207
 3541TIP3   OH210579   7.359   1.796   2.068
 3541TIP3    H110580   7.395   1.884   2.081
 3541TIP3    H210581   7.322   1.773   2.153
 3542TIP3   OH210582   0.689   4.025   1.195
 3542TIP3    H110583   0.624   3.958   1.178
 3542TIP3    H210584   0.665   4.061   1.281
 3543TIP3   OH210585   7.226   1.470   0.107
 3543TIP3    H110586   7.291   1.495   0.173
 3543TIP3    H210587   7.154   1.432   0.157
 3544TIP3   OH210588   6.122   0.270   0.900
 3544TIP3    H110589   6.148   0.179   0.918
 3544TIP3    H210590   6.102   0.307   0.986
 3545TIP3   OH210591   8.132   2.900   1.129
 3545TIP3    H110592   8.085   2.817   1.142
 3545TIP3    H210593   8.086   2.942   1.056
 3546TIP3   OH210594   5.182   5.139   4.242
 3546TIP3    H110595   5.174   5.054   4.285
 3546TIP3    H210596   5.103   5.186   4.269
 3547TIP3   OH210597   5.355   6.578   1.811
 3547TIP3    H110598   5.374   6.628   1.732
 3547TIP3    H210599   5.331   6.645   1.876
 3548TIP3   OH210600   4.788   6.482   2.995
 3548TIP3    H110601   4.764   6.467   2.904
 3548TIP3    H210602   4.882   6.500   2.992
 3549TIP3   OH210603   6.400   0.937   0.801
 3549TIP3    H110604   6.416   0.845   0.821
 3549TIP3    H210605   6.309   0.940   0.773
 3550TIP3   OH210606   5.016   7.105   4.496
 3550TIP3    H110607   5.050   7.115   4.407
 3550TIP3    H210608   4.933   7.153   4.496
 3551TIP3   OH210609   2.929   7.480   1.829
 3551TIP3    H110610   3.018   7.496   1.860
 3551TIP3    H210611   2.873   7.511   1.900
 3552TIP3   OH210612   0.980   0.266   0.702
 3552TIP3    H110613   1.021   0.194   0.751
 3552TIP3    H210614   0.920   0.307   0.764
 3553TIP3   OH210615   7.599   5.832   5.130
 3553TIP3    H110616   7.588   5.916   5.176
 3553TIP3    H210617   7.512   5.814   5.093
 3554TIP3   OH210618   3.885   1.838   3.720
 3554TIP3    H110619   3.883   1.843   3.816
 3554TIP3    H210620   3.794   1.820   3.695
 3555TIP3   OH210621   3.003   2.224   1.015
 3555TIP3    H110622   3.035   2.133   1.016
 3555TIP3    H210623   2.963   2.236   1.101
 3556TIP3   OH210624   4.222   7.066   4.357
 3556TIP3    H110625   4.219   7.005   4.430
 3556TIP3    H210626   4.172   7.142   4.388
 3557TIP3   OH210627   6.894   1.154   5.501
 3557TIP3    H110628   6.952   1.088   5.463
 3557TIP3    H210629   6.819   1.157   5.441
 3558TIP3   OH210630   8.094   1.566   4.386
 3558TIP3    H110631   8.078   1.602   4.473
 3558TIP3    H210632   8.137   1.482   4.402
 3559TIP3   OH210633   4.735   3.653   0.639
 3559TIP3    H110634   4.665   3.704   0.679
 3559TIP3    H210635   4.763   3.592   0.707
 3560TIP3   OH210636   3.532   1.957   0.912
 3560TIP3    H110637   3.528   2.030   0.974
 3560TIP3    H210638   3.446   1.954   0.872
 3561TIP3   OH210639   2.353   6.024   5.109
 3561TIP3    H110640   2.339   6.061   5.196
 3561TIP3    H210641   2.363   6.100   5.052
 3562TIP3   OH210642   7.406   5.743   4.721
 3562TIP3    H110643   7.320   5.766   4.755
 3562TIP3    H210644   7.394   5.741   4.626
 3563TIP3   OH210645   0.835   6.221   1.270
 3563TIP3    H110646   0.787   6.206   1.352
 3563TIP3    H210647   0.849   6.134   1.234
 3564TIP3   OH210648   2.894   3.775   6.523
 3564TIP3    H110649   2.987   3.756   6.540
 3564TIP3    H210650   2.874   3.726   6.444
 3565TIP3   OH210651   4.028   2.498   2.052
 3565TIP3    H110652   4.015   2.485   2.145
 3565TIP3    H210653   3.979   2.578   2.032
 3566TIP3   OH210654   7.987   0.477   4.707
 3566TIP3    H110655   7.927   0.505   4.776
 3566TIP3    H210656   7.983   0.547   4.642
 3567TIP3   OH210657   7.484   5.110   1.286
 3567TIP3    H110658   7.482   5.031   1.233
 3567TIP3    H210659   7.445   5.084   1.370
 3568TIP3   OH210660   3.218   6.286   6.290
 3568TIP3    H110661   3.227   6.272   6.195
 3568TIP3    H210662   3.147   6.349   6.298
 3569TIP3   OH210663   7.086   2.322   0.611
 3569TIP3    H110664   6.997   2.357   0.608
 3569TIP3    H210665   7.117   2.329   0.521
 3570TIP3   OH210666   2.720   1.629   4.005
 3570TIP3    H110667   2.717   1.556   3.943
 3570TIP3    H210668   2.641   1.620   4.057
 3571TIP3   OH210669   4.340   0.793   4.931
 3571TIP3    H110670   4.298   0.709   4.914
 3571TIP3    H210671   4.338   0.802   5.027
 3572TIP3   OH210672   0.302   0.406   2.857
 3572TIP3    H110673   0.336   0.422   2.769
 3572TIP3    H210674   0.218   0.451   2.859
 3573TIP3   OH210675   4.153   1.059   6.683
 3573TIP3    H110676   4.170   1.125   6.750
 3573TIP3    H210677   4.064   1.028   6.701
 3574TIP3   OH210678   4.936   1.670   2.574
 3574TIP3    H110679   4.942   1.743   2.637
 3574TIP3    H210680   4.924   1.592   2.629
 3575TIP3   OH210681   7.428   6.316   4.942
 3575TIP3    H110682   7.519   6.289   4.955
 3575TIP3    H210683   7.378   6.265   5.006
 3576TIP3   OH210684   5.875   2.261   4.365
 3576TIP3    H110685   5.810   2.292   4.428
 3576TIP3    H210686   5.826   2.246   4.284
 3577TIP3   OH210687   2.112   1.737   1.901
 3577TIP3    H110688   2.057   1.726   1.823
 3577TIP3    H210689   2.172   1.663   1.898
 3578TIP3   OH210690   2.281   3.223   0.404
 3578TIP3    H110691   2.370   3.215   0.371
 3578TIP3    H210692   2.241   3.138   0.385
 3579TIP3   OH210693   1.667   5.390   1.977
 3579TIP3    H110694   1.588   5.372   2.027
 3579TIP3    H210695   1.695   5.477   2.005
 3580TIP3   OH210696   5.434   3.154   3.948
 3580TIP3    H110697   5.492   3.224   3.977
 3580TIP3    H210698   5.408   3.108   4.028
 3581TIP3   OH210699   0.190   2.539   2.036
 3581TIP3    H110700   0.096   2.552   2.049
 3581TIP3    H210701   0.230   2.586   2.110
 3582TIP3   OH210702   6.108   5.074   3.607
 3582TIP3    H110703   6.164   5.043   3.535
 3582TIP3    H210704   6.090   4.995   3.658
 3583TIP3   OH210705   3.936   0.416   1.454
 3583TIP3    H110706   3.880   0.355   1.502
 3583TIP3    H210707   3.876   0.480   1.416
 3584TIP3   OH210708   2.494   7.545   5.181
 3584TIP3    H110709   2.462   7.606   5.114
 3584TIP3    H210710   2.467   7.584   5.264
 3585TIP3   OH210711   1.868   7.420   4.369
 3585TIP3    H110712   1.813   7.364   4.315
 3585TIP3    H210713   1.931   7.360   4.410
 3586TIP3   OH210714   7.790   2.626   5.490
 3586TIP3    H110715   7.796   2.588   5.402
 3586TIP3    H210716   7.702   2.601   5.520
 3587TIP3   OH210717   7.092   5.113   3.140
 3587TIP3    H110718   7.014   5.163   3.115
 3587TIP3    H210719   7.070   5.022   3.118
 3588TIP3   OH210720   6.218   3.057   3.839
 3588TIP3    H110721   6.267   3.077   3.759
 3588TIP3    H210722   6.126   3.070   3.815
 3589TIP3   OH210723   0.993   2.237   2.015
 3589TIP3    H110724   1.035   2.280   1.940
 3589TIP3    H210725   0.900   2.259   2.006
 3590TIP3   OH210726   6.946   1.472   2.870
 3590TIP3    H110727   7.023   1.480   2.927
 3590TIP3    H210728   6.978   1.429   2.791
 3591TIP3   OH210729   2.560   3.091   1.155
 3591TIP3    H110730   2.521   3.115   1.239
 3591TIP3    H210731   2.590   3.001   1.168
 3592TIP3   OH210732   5.048   4.604   0.699
 3592TIP3    H110733   4.986   4.531   0.692
 3592TIP3    H210734   5.115   4.584   0.633
 3593TIP3   OH210735   2.695   3.402   5.073
 3593TIP3    H110736   2.763   3.464   5.047
 3593TIP3    H210737   2.618   3.428   5.022
 3594TIP3   OH210738   5.201   4.894   2.444
 3594TIP3    H110739   5.191   4.886   2.349
 3594TIP3    H210740   5.112   4.881   2.478
 3595TIP3   OH210741   5.808   0.966   6.421
 3595TIP3    H110742   5.902   0.962   6.402
 3595TIP3    H210743   5.773   1.025   6.355
 3596TIP3   OH210744   3.187   6.787   1.077
 3596TIP3    H110745   3.122   6.757   1.013
 3596TIP3    H210746   3.269   6.747   1.047
 3597TIP3   OH210747   1.352   1.667   4.760
 3597TIP3    H110748   1.257   1.667   4.770
 3597TIP3    H210749   1.367   1.678   4.667
 3598TIP3   OH210750   6.819   4.869   6.099
 3598TIP3    H110751   6.771   4.854   6.017
 3598TIP3    H210752   6.903   4.906   6.071
 3599TIP3   OH210753   5.651   3.539   5.842
 3599TIP3    H110754   5.649   3.607   5.774
 3599TIP3    H210755   5.661   3.588   5.923
 3600TIP3   OH210756   5.188   1.518   2.225
 3600TIP3    H110757   5.262   1.551   2.275
 3600TIP3    H210758   5.192   1.423   2.237
 3601TIP3   OH210759   0.647   4.200   3.783
 3601TIP3    H110760   0.595   4.121   3.793
 3601TIP3    H210761   0.633   4.249   3.864
 3602TIP3   OH210762   3.983   1.919   5.651
 3602TIP3    H110763   3.902   1.869   5.654
 3602TIP3    H210764   4.000   1.943   5.743
 3603TIP3   OH210765   6.272   2.246   3.100
 3603TIP3    H110766   6.350   2.220   3.149
 3603TIP3    H210767   6.286   2.212   3.012
 3604TIP3   OH210768   6.152   1.815   6.099
 3604TIP3    H110769   6.086   1.833   6.032
 3604TIP3    H210770   6.103   1.786   6.175
 3605TIP3   OH210771   5.037   6.788   4.186
 3605TIP3    H110772   5.034   6.779   4.281
 3605TIP3    H210773   5.084   6.709   4.157
 3606TIP3   OH210774   0.821   2.008   2.569
 3606TIP3    H110775   0.876   1.989   2.646
 3606TIP3    H210776   0.847   2.096   2.542
 3607TIP3   OH210777   5.029   1.007   1.714
 3607TIP3    H110778   4.944   0.984   1.676
 3607TIP3    H210779   5.079   0.925   1.712
 3608TIP3   OH210780   3.486   5.036   4.667
 3608TIP3    H110781   3.571   5.008   4.631
 3608TIP3    H210782   3.441   4.954   4.689
 3609TIP3   OH210783   6.042   1.894   0.566
 3609TIP3    H110784   6.137   1.883   0.560
 3609TIP3    H210785   6.019   1.859   0.652
 3610TIP3   OH210786   2.028   6.102   2.137
 3610TIP3    H110787   1.948   6.117   2.086
 3610TIP3    H210788   2.099   6.125   2.077
 3611TIP3   OH210789   1.311   5.498   4.833
 3611TIP3    H110790   1.237   5.477   4.777
 3611TIP3    H210791   1.350   5.414   4.855
 3612TIP3   OH210792   7.047   3.173   3.534
 3612TIP3    H110793   7.132   3.209   3.509
 3612TIP3    H210794   7.010   3.238   3.594
 3613TIP3   OH210795   3.836   4.042   1.140
 3613TIP3    H110796   3.823   4.036   1.046
 3613TIP3    H210797   3.928   4.017   1.154
 3614TIP3   OH210798   1.289   5.966   0.419
 3614TIP3    H110799   1.216   5.905   0.416
 3614TIP3    H210800   1.367   5.910   0.411
 3615TIP3   OH210801   5.054   7.030   4.758
 3615TIP3    H110802   5.106   7.106   4.783
 3615TIP3    H210803   5.022   7.050   4.670
 3616TIP3   OH210804   1.684   1.644   1.030
 3616TIP3    H110805   1.614   1.584   1.002
 3616TIP3    H210806   1.737   1.657   0.951
 3617TIP3   OH210807   6.495   2.479   3.146
 3617TIP3    H110808   6.401   2.496   3.145
 3617TIP3    H210809   6.526   2.521   3.227
 3618TIP3   OH210810   2.646   3.499   4.691
 3618TIP3    H110811   2.715   3.561   4.668
 3618TIP3    H210812   2.568   3.531   4.646
 3619TIP3   OH210813   5.297   3.132   2.378
 3619TIP3    H110814   5.290   3.101   2.469
 3619TIP3    H210815   5.389   3.157   2.369
 3620TIP3   OH210816   0.314   3.486   5.859
 3620TIP3    H110817   0.385   3.493   5.923
 3620TIP3    H210818   0.237   3.519   5.905
 3621TIP3   OH210819   5.071   2.651   1.675
 3621TIP3    H110820   4.993   2.632   1.728
 3621TIP3    H210821   5.036   2.690   1.595
 3622TIP3   OH210822   7.537   0.903   0.490
 3622TIP3    H110823   7.580   0.966   0.433
 3622TIP3    H210824   7.539   0.821   0.441
 3623TIP3   OH210825   4.587   1.245   1.729
 3623TIP3    H110826   4.589   1.195   1.810
 3623TIP3    H210827   4.679   1.254   1.704
 3624TIP3   OH210828   2.615   5.447   3.343
 3624TIP3    H110829   2.589   5.363   3.305
 3624TIP3    H210830   2.579   5.512   3.283
 3625TIP3   OH210831   4.374   4.476   3.499
 3625TIP3    H110832   4.421   4.518   3.571
 3625TIP3    H210833   4.429   4.489   3.422
 3626TIP3   OH210834   6.461   6.273   1.614
 3626TIP3    H110835   6.393   6.205   1.611
 3626TIP3    H210836   6.455   6.317   1.530
 3627TIP3   OH210837   7.299   1.970   6.306
 3627TIP3    H110838   7.207   1.993   6.318
 3627TIP3    H210839   7.338   2.047   6.265
 3628TIP3   OH210840   4.344   4.038   0.198
 3628TIP3    H110841   4.373   3.954   0.163
 3628TIP3    H210842   4.251   4.042   0.175
 3629TIP3   OH210843   4.057   5.180   1.525
 3629TIP3    H110844   4.102   5.205   1.444
 3629TIP3    H210845   4.118   5.203   1.595
 3630TIP3   OH210846   1.765   6.215   2.030
 3630TIP3    H110847   1.679   6.183   2.056
 3630TIP3    H210848   1.746   6.292   1.976
 3631TIP3   OH210849   1.066   1.004   0.121
 3631TIP3    H110850   1.058   1.056   0.041
 3631TIP3    H210851   0.977   0.997   0.155
 3632TIP3   OH210852   3.178   6.847   0.345
 3632TIP3    H110853   3.150   6.925   0.298
 3632TIP3    H210854   3.170   6.870   0.438
 3633TIP3   OH210855   3.803   6.164   3.688
 3633TIP3    H110856   3.762   6.150   3.773
 3633TIP3    H210857   3.848   6.081   3.670
 3634TIP3   OH210858   4.376   0.398   0.962
 3634TIP3    H110859   4.365   0.493   0.968
 3634TIP3    H210860   4.436   0.377   1.034
 3635TIP3   OH210861   2.433   0.948   5.500
 3635TIP3    H110862   2.508   0.984   5.547
 3635TIP3    H210863   2.412   0.866   5.546
 3636TIP3   OH210864   3.857   0.765   3.821
 3636TIP3    H110865   3.847   0.852   3.781
 3636TIP3    H210866   3.948   0.741   3.805
 3637TIP3   OH210867   5.505   7.437   3.933
 3637TIP3    H110868   5.535   7.527   3.920
 3637TIP3    H210869   5.486   7.432   4.027
 3638TIP3   OH210870   2.241   4.720   4.630
 3638TIP3    H110871   2.184   4.796   4.642
 3638TIP3    H210872   2.288   4.712   4.713
 3639TIP3   OH210873   3.219   2.664   3.557
 3639TIP3    H110874   3.299   2.695   3.598
 3639TIP3    H210875   3.208   2.574   3.589
 3640TIP3   OH210876   5.346   5.401   4.023
 3640TIP3    H110877   5.318   5.395   4.114
 3640TIP3    H210878   5.377   5.491   4.012
 3641TIP3   OH210879   1.974   5.316   6.452
 3641TIP3    H110880   2.007   5.287   6.537
 3641TIP3    H210881   2.049   5.360   6.411
 3642TIP3   OH210882   4.229   1.192   6.050
 3642TIP3    H110883   4.267   1.153   5.970
 3642TIP3    H210884   4.266   1.140   6.121
 3643TIP3   OH210885   0.666   5.995   3.804
 3643TIP3    H110886   0.649   6.055   3.878
 3643TIP3    H210887   0.579   5.960   3.782
 3644TIP3   OH210888   2.578   1.676   1.462
 3644TIP3    H110889   2.609   1.594   1.423
 3644TIP3    H210890   2.522   1.648   1.534
 3645TIP3   OH210891   3.847   5.285   2.437
 3645TIP3    H110892   3.770   5.234   2.411
 3645TIP3    H210893   3.825   5.320   2.523
 3646TIP3   OH210894   3.384   6.851   0.762
 3646TIP3    H110895   3.465   6.890   0.731
 3646TIP3    H210896   3.363   6.898   0.843
 3647TIP3   OH210897   7.348   5.267   2.676
 3647TIP3    H110898   7.375   5.356   2.650
 3647TIP3    H210899   7.332   5.222   2.594
 3648TIP3   OH210900   4.996   5.797   3.884
 3648TIP3    H110901   4.971   5.814   3.793
 3648TIP3    H210902   5.019   5.884   3.919
 3649TIP3   OH210903   6.852   2.395   3.334
 3649TIP3    H110904   6.884   2.314   3.295
 3649TIP3    H210905   6.784   2.425   3.273
 3650TIP3   OH210906   2.406   5.827   3.839
 3650TIP3    H110907   2.426   5.778   3.759
 3650TIP3    H210908   2.490   5.862   3.868
 3651TIP3   OH210909   0.100   2.930   0.583
 3651TIP3    H110910   0.095   2.835   0.594
 3651TIP3    H210911   0.079   2.945   0.491
 3652TIP3   OH210912   2.117   3.183   4.917
 3652TIP3    H110913   2.155   3.270   4.932
 3652TIP3    H210914   2.186   3.133   4.874
 3653TIP3   OH210915   3.018   6.775   4.129
 3653TIP3    H110916   3.098   6.826   4.114
 3653TIP3    H210917   2.947   6.840   4.123
 3654TIP3   OH210918   2.021   4.181   1.638
 3654TIP3    H110919   2.007   4.230   1.720
 3654TIP3    H210920   1.940   4.193   1.589
 3655TIP3   OH210921   4.200   5.871   1.594
 3655TIP3    H110922   4.141   5.908   1.529
 3655TIP3    H210923   4.143   5.816   1.648
 3656TIP3   OH210924   0.859   1.610   0.081
 3656TIP3    H110925   0.926   1.610   0.013
 3656TIP3    H210926   0.797   1.678   0.053
 3657TIP3   OH210927   5.080   1.223   6.391
 3657TIP3    H110928   5.011   1.272   6.346
 3657TIP3    H210929   5.118   1.167   6.323
 3658TIP3   OH210930   8.248   6.255   6.376
 3658TIP3    H110931   8.299   6.232   6.454
 3658TIP3    H210932   8.192   6.178   6.360
 3659TIP3   OH210933   7.620   7.710   4.726
 3659TIP3    H110934   7.552   7.688   4.789
 3659TIP3    H210935   7.616   7.640   4.661
 3660TIP3   OH210936   1.300   7.240   0.788
 3660TIP3    H110937   1.257   7.314   0.745
 3660TIP3    H210938   1.232   7.174   0.797
 3661TIP3   OH210939   3.686   1.783   6.678
 3661TIP3    H110940   3.606   1.836   6.677
 3661TIP3    H210941   3.726   1.803   6.763
 3662TIP3   OH210942   1.572   7.704   1.171
 3662TIP3    H110943   1.619   7.693   1.254
 3662TIP3    H210944   1.617   7.777   1.128
 3663TIP3   OH210945   5.936   7.534   2.492
 3663TIP3    H110946   5.899   7.602   2.436
 3663TIP3    H210947   6.025   7.563   2.512
 3664TIP3   OH210948   1.453   3.995   1.438
 3664TIP3    H110949   1.427   4.088   1.436
 3664TIP3    H210950   1.417   3.959   1.357
 3665TIP3   OH210951   5.595   2.597   1.687
 3665TIP3    H110952   5.604   2.645   1.769
 3665TIP3    H210953   5.500   2.588   1.675
 3666TIP3   OH210954   5.061   0.148   1.162
 3666TIP3    H110955   4.978   0.106   1.140
 3666TIP3    H210956   5.052   0.238   1.131
 3667TIP3   OH210957   6.238   4.423   6.714
 3667TIP3    H110958   6.332   4.418   6.695
 3667TIP3    H210959   6.202   4.475   6.643
 3668TIP3   OH210960   3.211   6.824   5.235
 3668TIP3    H110961   3.289   6.848   5.185
 3668TIP3    H210962   3.177   6.907   5.268
 3669TIP3   OH210963   1.767   5.438   1.698
 3669TIP3    H110964   1.848   5.469   1.738
 3669TIP3    H210965   1.722   5.390   1.767
 3670TIP3   OH210966   2.354   3.038   6.510
 3670TIP3    H110967   2.297   2.962   6.513
 3670TIP3    H210968   2.296   3.113   6.525
 3671TIP3   OH210969   8.111   5.147   1.889
 3671TIP3    H110970   8.024   5.133   1.852
 3671TIP3    H210971   8.151   5.060   1.889
 3672TIP3   OH210972   1.782   4.073   3.779
 3672TIP3    H110973   1.711   4.131   3.807
 3672TIP3    H210974   1.857   4.102   3.831
 3673TIP3   OH210975   6.523   4.865   6.218
 3673TIP3    H110976   6.605   4.836   6.179
 3673TIP3    H210977   6.505   4.950   6.176
 3674TIP3   OH210978   6.285   0.502   4.299
 3674TIP3    H110979   6.204   0.460   4.328
 3674TIP3    H210980   6.299   0.572   4.363
 3675TIP3   OH210981   3.380   0.552   1.350
 3675TIP3    H110982   3.359   0.586   1.437
 3675TIP3    H210983   3.346   0.618   1.290
 3676TIP3   OH210984   0.235   0.650   2.267
 3676TIP3    H110985   0.178   0.614   2.335
 3676TIP3    H210986   0.307   0.587   2.262
 3677TIP3   OH210987   4.149   3.486   0.438
 3677TIP3    H110988   4.089   3.549   0.398
 3677TIP3    H210989   4.101   3.453   0.514
 3678TIP3   OH210990   0.518   2.935   5.093
 3678TIP3    H110991   0.586   3.002   5.084
 3678TIP3    H210992   0.565   2.852   5.082
 3679TIP3   OH210993   4.659   2.029   5.984
 3679TIP3    H110994   4.650   1.982   5.901
 3679TIP3    H210995   4.641   1.964   6.051
 3680TIP3   OH210996   8.180   4.602   2.197
 3680TIP3    H110997   8.102   4.597   2.252
 3680TIP3    H210998   8.186   4.515   2.156
 3681TIP3   OH210999   6.348   4.016   4.026
 3681TIP3    H111000   6.263   4.045   3.994
 3681TIP3    H211001   6.342   4.025   4.122
 3682TIP3   OH211002   5.446   7.233   3.305
 3682TIP3    H111003   5.494   7.160   3.344
 3682TIP3    H211004   5.496   7.256   3.227
 3683TIP3   OH211005   7.132   2.568   0.105
 3683TIP3    H111006   7.172   2.505   0.047
 3683TIP3    H211007   7.058   2.604   0.055
 3684TIP3   OH211008   0.779   6.900   2.757
 3684TIP3    H111009   0.711   6.857   2.704
 3684TIP3    H211010   0.807   6.832   2.818
 3685TIP3   OH211011   0.766   3.813   6.232
 3685TIP3    H111012   0.831   3.742   6.228
 3685TIP3    H211013   0.810   3.887   6.190
 3686TIP3   OH211014   2.701   4.720   2.254
 3686TIP3    H111015   2.713   4.637   2.301
 3686TIP3    H211016   2.739   4.786   2.312
 3687TIP3   OH211017   3.144   1.680   4.816
 3687TIP3    H111018   3.080   1.731   4.865
 3687TIP3    H211019   3.198   1.638   4.883
 3688TIP3   OH211020   1.896   0.057   5.240
 3688TIP3    H111021   1.825   0.007   5.200
 3688TIP3    H211022   1.941   0.099   5.167
 3689TIP3   OH211023   5.483   4.151   0.418
 3689TIP3    H111024   5.572   4.163   0.451
 3689TIP3    H211025   5.430   4.141   0.497
 3690TIP3   OH211026   4.556   2.180   3.150
 3690TIP3    H111027   4.496   2.119   3.193
 3690TIP3    H211028   4.598   2.128   3.082
 3691TIP3   OH211029   7.785   5.063   2.317
 3691TIP3    H111030   7.705   5.022   2.285
 3691TIP3    H211031   7.855   5.021   2.268
 3692TIP3   OH211032   2.441   7.721   1.560
 3692TIP3    H111033   2.490   7.705   1.640
 3692TIP3    H211034   2.508   7.744   1.495
 3693TIP3   OH211035   0.346   4.760   4.446
 3693TIP3    H111036   0.374   4.825   4.511
 3693TIP3    H211037   0.380   4.677   4.480
 3694TIP3   OH211038   7.988   0.813   3.225
 3694TIP3    H111039   8.046   0.797   3.150
 3694TIP3    H211040   8.003   0.739   3.283
 3695TIP3   OH211041   6.155   2.549   1.411
 3695TIP3    H111042   6.199   2.484   1.465
 3695TIP3    H211043   6.198   2.632   1.434
 3696TIP3   OH211044   6.961   6.263   1.343
 3696TIP3    H111045   6.869   6.233   1.342
 3696TIP3    H211046   6.960   6.341   1.399
 3697TIP3   OH211047   7.825   4.713   4.816
 3697TIP3    H111048   7.767   4.778   4.777
 3697TIP3    H211049   7.780   4.687   4.897
 3698TIP3   OH211050   0.168   0.217   4.760
 3698TIP3    H111051   0.148   0.197   4.852
 3698TIP3    H211052   0.150   0.135   4.714
 3699TIP3   OH211053   2.758   1.057   1.194
 3699TIP3    H111054   2.797   1.012   1.119
 3699TIP3    H211055   2.693   0.995   1.227
 3700TIP3   OH211056   1.992   6.039   3.752
 3700TIP3    H111057   1.994   6.079   3.664
 3700TIP3    H211058   1.901   6.015   3.765
 3701TIP3   OH211059   1.094   0.382   4.051
 3701TIP3    H111060   1.051   0.382   4.136
 3701TIP3    H211061   1.031   0.425   3.992
 3702TIP3   OH211062   0.188   3.283   4.868
 3702TIP3    H111063   0.185   3.187   4.876
 3702TIP3    H211064   0.107   3.305   4.821
 3703TIP3   OH211065   4.277   4.887   2.162
 3703TIP3    H111066   4.251   4.894   2.253
 3703TIP3    H211067   4.293   4.977   2.134
 3704TIP3   OH211068   5.364   0.002   1.826
 3704TIP3    H111069   5.445  -0.034   1.862
 3704TIP3    H211070   5.393   0.065   1.760
 3705TIP3   OH211071   2.208   2.458   5.213
 3705TIP3    H111072   2.186   2.427   5.301
 3705TIP3    H211073   2.132   2.510   5.186
 3706TIP3   OH211074   2.171   6.626   1.140
 3706TIP3    H111075   2.253   6.578   1.137
 3706TIP3    H211076   2.147   6.629   1.233
 3707TIP3   OH211077   5.889   6.135   3.186
 3707TIP3    H111078   5.863   6.149   3.094
 3707TIP3    H211079   5.840   6.058   3.213
 3708TIP3   OH211080   1.361   3.154   6.216
 3708TIP3    H111081   1.431   3.116   6.164
 3708TIP3    H211082   1.318   3.217   6.158
 3709TIP3   OH211083   3.679   1.082   5.624
 3709TIP3    H111084   3.651   0.991   5.614
 3709TIP3    H211085   3.738   1.081   5.700
 3710TIP3   OH211086   0.389   2.481   0.557
 3710TIP3    H111087   0.316   2.419   0.564
 3710TIP3    H211088   0.408   2.485   0.463
 3711TIP3   OH211089   4.771   3.523   4.853
 3711TIP3    H111090   4.758   3.428   4.858
 3711TIP3    H211091   4.713   3.551   4.782
 3712TIP3   OH211092   2.215   4.672   3.510
 3712TIP3    H111093   2.254   4.644   3.427
 3712TIP3    H211094   2.142   4.729   3.485
 3713TIP3   OH211095   4.914   5.109   6.094
 3713TIP3    H111096   4.973   5.162   6.148
 3713TIP3    H211097   4.936   5.019   6.115
 3714TIP3   OH211098   7.512   1.024   3.932
 3714TIP3    H111099   7.419   1.030   3.951
 3714TIP3    H211100   7.517   0.975   3.850
 3715TIP3   OH211101   7.723   5.927   0.315
 3715TIP3    H111102   7.811   5.899   0.288
 3715TIP3    H211103   7.700   5.868   0.386
 3716TIP3   OH211104   0.117   0.956   6.714
 3716TIP3    H111105   0.064   0.899   6.771
 3716TIP3    H211106   0.056   0.986   6.647
 3717TIP3   OH211107   0.361   3.367   6.465
 3717TIP3    H111108   0.265   3.377   6.463
 3717TIP3    H211109   0.387   3.371   6.373
 3718TIP3   OH211110   7.567   0.528   2.169
 3718TIP3    H111111   7.542   0.522   2.077
 3718TIP3    H211112   7.566   0.622   2.188
 3719TIP3   OH211113   5.651   1.636   3.869
 3719TIP3    H111114   5.724   1.601   3.818
 3719TIP3    H211115   5.636   1.724   3.833
 3720TIP3   OH211116   1.293   6.906   1.253
 3720TIP3    H111117   1.224   6.840   1.244
 3720TIP3    H211118   1.354   6.868   1.316
 3721TIP3   OH211119   0.897   2.051   5.860
 3721TIP3    H111120   0.872   1.961   5.840
 3721TIP3    H211121   0.889   2.097   5.776
 3722TIP3   OH211122   6.450   3.720   2.355
 3722TIP3    H111123   6.525   3.670   2.387
 3722TIP3    H211124   6.418   3.670   2.280
 3723TIP3   OH211125   7.667   6.086   1.734
 3723TIP3    H111126   7.687   6.017   1.671
 3723TIP3    H211127   7.753   6.115   1.765
 3724TIP3   OH211128   6.775   1.940   6.721
 3724TIP3    H111129   6.743   2.017   6.674
 3724TIP3    H211130   6.867   1.933   6.696
 3725TIP3   OH211131   2.757   5.656   6.499
 3725TIP3    H111132   2.763   5.572   6.543
 3725TIP3    H211133   2.764   5.721   6.570
 3726TIP3   OH211134   0.315   6.067   5.039
 3726TIP3    H111135   0.253   6.050   5.110
 3726TIP3    H211136   0.386   6.005   5.055
 3727TIP3   OH211137   7.086   2.265   6.567
 3727TIP3    H111138   7.031   2.284   6.642
 3727TIP3    H211139   7.160   2.216   6.603
 3728TIP3   OH211140   1.871   4.015   2.527
 3728TIP3    H111141   1.965   3.997   2.528
 3728TIP3    H211142   1.838   3.963   2.453
 3729TIP3   OH211143   0.272   2.858   4.524
 3729TIP3    H111144   0.347   2.799   4.530
 3729TIP3    H211145   0.197   2.806   4.552
 3730TIP3   OH211146   8.004   7.029   4.674
 3730TIP3    H111147   7.949   7.011   4.598
 3730TIP3    H211148   8.069   6.958   4.673
 3731TIP3   OH211149   6.523   7.198   4.623
 3731TIP3    H111150   6.595   7.256   4.600
 3731TIP3    H211151   6.480   7.240   4.697
 3732TIP3   OH211152   2.239   4.541   3.966
 3732TIP3    H111153   2.303   4.515   3.900
 3732TIP3    H211154   2.279   4.515   4.049
 3733TIP3   OH211155   2.277   5.309   4.955
 3733TIP3    H111156   2.227   5.374   4.906
 3733TIP3    H211157   2.218   5.233   4.962
 3734TIP3   OH211158   4.961   7.486   4.780
 3734TIP3    H111159   4.962   7.546   4.705
 3734TIP3    H211160   4.895   7.421   4.758
 3735TIP3   OH211161   4.908   5.905   5.063
 3735TIP3    H111162   4.840   5.962   5.027
 3735TIP3    H211163   4.990   5.936   5.024
 3736TIP3   OH211164   1.640   5.176   5.563
 3736TIP3    H111165   1.602   5.138   5.642
 3736TIP3    H211166   1.727   5.204   5.590
 3737TIP3   OH211167   8.015   4.824   6.397
 3737TIP3    H111168   7.967   4.801   6.318
 3737TIP3    H211169   7.964   4.895   6.437
 3738TIP3   OH211170   7.904   6.936   3.904
 3738TIP3    H111171   7.841   6.865   3.916
 3738TIP3    H211172   7.982   6.908   3.953
 3739TIP3   OH211173   6.960   0.035   3.621
 3739TIP3    H111174   7.045   0.064   3.590
 3739TIP3    H211175   6.918   0.114   3.655
 3740TIP3   OH211176   0.021   1.678   2.882
 3740TIP3    H111177   0.018   1.729   2.964
 3740TIP3    H211178   0.098   1.712   2.836
 3741TIP3   OH211179   3.991   4.219   4.214
 3741TIP3    H111180   4.002   4.288   4.147
 3741TIP3    H211181   3.900   4.229   4.243
 3742TIP3   OH211182   0.611   1.131   1.303
 3742TIP3    H111183   0.659   1.047   1.306
 3742TIP3    H211184   0.551   1.121   1.229
 3743TIP3   OH211185   1.901   0.714   0.300
 3743TIP3    H111186   1.893   0.638   0.242
 3743TIP3    H211187   1.823   0.766   0.282
 3744TIP3   OH211188   0.233   3.182   1.958
 3744TIP3    H111189   0.207   3.274   1.967
 3744TIP3    H211190   0.159   3.133   1.994
 3745TIP3   OH211191   5.380   6.483   1.458
 3745TIP3    H111192   5.385   6.578   1.466
 3745TIP3    H211193   5.287   6.465   1.442
 3746TIP3   OH211194   3.331   4.655   3.442
 3746TIP3    H111195   3.301   4.719   3.507
 3746TIP3    H211196   3.270   4.582   3.450
 3747TIP3   OH211197   2.660   3.232   4.074
 3747TIP3    H111198   2.663   3.228   3.978
 3747TIP3    H211199   2.661   3.326   4.094
 3748TIP3   OH211200   7.961   5.627   6.385
 3748TIP3    H111201   7.885   5.569   6.376
 3748TIP3    H211202   8.005   5.597   6.464
 3749TIP3   OH211203   3.339   6.558   6.623
 3749TIP3    H111204   3.370   6.526   6.707
 3749TIP3    H211205   3.415   6.604   6.586
 3750TIP3   OH211206   4.960   3.962   6.358
 3750TIP3    H111207   4.897   4.032   6.375
 3750TIP3    H211208   4.908   3.891   6.322
 3751TIP3   OH211209   7.709   3.080   2.992
 3751TIP3    H111210   7.781   3.106   2.935
 3751TIP3    H211211   7.725   3.126   3.074
 3752TIP3   OH211212   3.998   5.107   2.818
 3752TIP3    H111213   3.958   5.112   2.731
 3752TIP3    H211214   3.925   5.087   2.877
 3753TIP3   OH211215   2.765   3.988   6.126
 3753TIP3    H111216   2.809   3.997   6.210
 3753TIP3    H211217   2.707   4.065   6.121
 3754TIP3   OH211218   1.193   4.947   3.053
 3754TIP3    H111219   1.179   4.936   3.147
 3754TIP3    H211220   1.105   4.954   3.016
 3755TIP3   OH211221   2.099   6.538   2.437
 3755TIP3    H111222   2.115   6.445   2.454
 3755TIP3    H211223   2.122   6.550   2.345
 3756TIP3   OH211224   1.062   4.749   0.662
 3756TIP3    H111225   1.022   4.722   0.745
 3756TIP3    H211226   1.154   4.724   0.670
 3757TIP3   OH211227   1.395   6.299  -0.016
 3757TIP3    H111228   1.358   6.239   0.049
 3757TIP3    H211229   1.365   6.385   0.010
 3758TIP3   OH211230   7.801   5.912   1.093
 3758TIP3    H111231   7.734   5.966   1.052
 3758TIP3    H211232   7.848   5.972   1.150
 3759TIP3   OH211233   7.733   5.674   5.459
 3759TIP3    H111234   7.793   5.608   5.494
 3759TIP3    H211235   7.787   5.752   5.447
 3760TIP3   OH211236   7.187   6.091   2.939
 3760TIP3    H111237   7.279   6.091   2.913
 3760TIP3    H211238   7.186   6.134   3.024
 3761TIP3   OH211239   2.948   1.185   0.872
 3761TIP3    H111240   3.011   1.209   0.940
 3761TIP3    H211241   2.862   1.196   0.913
 3762TIP3   OH211242   8.162   0.302   4.155
 3762TIP3    H111243   8.218   0.362   4.107
 3762TIP3    H211244   8.112   0.359   4.214
 3763TIP3   OH211245   3.677   7.207   1.944
 3763TIP3    H111246   3.647   7.224   2.033
 3763TIP3    H211247   3.597   7.203   1.892
 3764TIP3   OH211248   6.842   1.581   1.296
 3764TIP3    H111249   6.874   1.554   1.209
 3764TIP3    H211250   6.775   1.646   1.277
 3765TIP3   OH211251   5.903  -0.019   4.390
 3765TIP3    H111252   5.972   0.017   4.334
 3765TIP3    H211253   5.837   0.050   4.393
 3766TIP3   OH211254   7.788   2.075   3.422
 3766TIP3    H111255   7.695   2.056   3.434
 3766TIP3    H211256   7.821   2.003   3.368
 3767TIP3   OH211257   7.928   1.804   3.053
 3767TIP3    H111258   7.952   1.741   2.985
 3767TIP3    H211259   7.885   1.875   3.007
 3768TIP3   OH211260   0.500   4.389   6.770
 3768TIP3    H111261   0.565   4.439   6.721
 3768TIP3    H211262   0.436   4.361   6.705
 3769TIP3   OH211263   0.869   0.629   4.687
 3769TIP3    H111264   0.794   0.677   4.723
 3769TIP3    H211265   0.835   0.541   4.670
 3770TIP3   OH211266   0.772   2.674   4.455
 3770TIP3    H111267   0.835   2.668   4.527
 3770TIP3    H211268   0.809   2.739   4.395
 3771TIP3   OH211269   6.025   1.818   3.608
 3771TIP3    H111270   6.045   1.794   3.699
 3771TIP3    H211271   6.098   1.781   3.557
 3772TIP3   OH211272   0.512   2.194   6.122
 3772TIP3    H111273   0.450   2.265   6.137
 3772TIP3    H211274   0.598   2.236   6.125
 3773TIP3   OH211275   0.209   4.291   4.581
 3773TIP3    H111276   0.253   4.295   4.496
 3773TIP3    H211277   0.245   4.213   4.623
 3774TIP3   OH211278   0.297   5.017   3.434
 3774TIP3    H111279   0.376   4.980   3.395
 3774TIP3    H211280   0.241   5.039   3.360
 3775TIP3   OH211281   1.143   5.683   0.933
 3775TIP3    H111282   1.049   5.692   0.948
 3775TIP3    H211283   1.151   5.672   0.838
 3776TIP3   OH211284   2.711   6.457   6.623
 3776TIP3    H111285   2.656   6.532   6.598
 3776TIP3    H211286   2.797   6.478   6.587
 3777TIP3   OH211287   2.992   2.595   6.248
 3777TIP3    H111288   2.961   2.571   6.335
 3777TIP3    H211289   2.979   2.690   6.243
 3778TIP3   OH211290   1.589   3.948   6.733
 3778TIP3    H111291   1.601   3.881   6.665
 3778TIP3    H211292   1.672   3.996   6.734
 3779TIP3   OH211293   3.442   6.339   2.495
 3779TIP3    H111294   3.425   6.260   2.547
 3779TIP3    H211295   3.451   6.409   2.560
 3780TIP3   OH211296   1.179   0.251   6.195
 3780TIP3    H111297   1.237   0.218   6.126
 3780TIP3    H211298   1.113   0.182   6.205
 3781TIP3   OH211299   0.797   3.176   3.051
 3781TIP3    H111300   0.858   3.182   2.978
 3781TIP3    H211301   0.844   3.125   3.117
 3782TIP3   OH211302   5.809   2.784   3.823
 3782TIP3    H111303   5.785   2.874   3.842
 3782TIP3    H211304   5.727   2.734   3.834
 3783TIP3   OH211305   3.005   5.784   0.896
 3783TIP3    H111306   3.075   5.725   0.923
 3783TIP3    H211307   2.929   5.757   0.948
 3784TIP3   OH211308   8.142   0.813   5.059
 3784TIP3    H111309   8.098   0.824   5.143
 3784TIP3    H211310   8.186   0.729   5.065
 3785TIP3   OH211311   7.491   3.318   0.844
 3785TIP3    H111312   7.422   3.316   0.778
 3785TIP3    H211313   7.506   3.412   0.860
 3786TIP3   OH211314   7.831   2.577   5.226
 3786TIP3    H111315   7.785   2.661   5.233
 3786TIP3    H211316   7.793   2.536   5.149
 3787TIP3   OH211317   2.996   2.877   6.307
 3787TIP3    H111318   2.910   2.918   6.305
 3787TIP3    H211319   3.038   2.912   6.386
 3788TIP3   OH211320   2.379   7.761   0.327
 3788TIP3    H111321   2.402   7.782   0.418
 3788TIP3    H211322   2.334   7.676   0.333
 3789TIP3   OH211323   0.708   5.163   3.236
 3789TIP3    H111324   0.782   5.189   3.290
 3789TIP3    H211325   0.632   5.208   3.274
 3790TIP3   OH211326   6.611   6.200   4.705
 3790TIP3    H111327   6.588   6.193   4.798
 3790TIP3    H211328   6.569   6.281   4.676
 3791TIP3   OH211329   0.166   1.301   1.733
 3791TIP3    H111330   0.167   1.213   1.694
 3791TIP3    H211331   0.248   1.340   1.705
 3792TIP3   OH211332   0.245   7.139   4.055
 3792TIP3    H111333   0.297   7.176   3.984
 3792TIP3    H211334   0.234   7.211   4.117
 3793TIP3   OH211335   2.496   5.136   5.887
 3793TIP3    H111336   2.495   5.225   5.851
 3793TIP3    H211337   2.405   5.108   5.884
 3794TIP3   OH211338   2.950   3.980   4.586
 3794TIP3    H111339   2.891   4.000   4.513
 3794TIP3    H211340   3.038   3.995   4.550
 3795TIP3   OH211341   6.329   1.761   2.021
 3795TIP3    H111342   6.306   1.846   1.984
 3795TIP3    H211343   6.364   1.781   2.108
 3796TIP3   OH211344   2.557   5.615   0.738
 3796TIP3    H111345   2.520   5.557   0.672
 3796TIP3    H211346   2.611   5.558   0.793
 3797TIP3   OH211347   0.641   6.520   2.336
 3797TIP3    H111348   0.663   6.476   2.254
 3797TIP3    H211349   0.585   6.593   2.310
 3798TIP3   OH211350   6.083   5.065   1.116
 3798TIP3    H111351   6.021   5.082   1.045
 3798TIP3    H211352   6.091   4.969   1.119
 3799TIP3   OH211353   0.640   5.952   5.623
 3799TIP3    H111354   0.595   5.883   5.670
 3799TIP3    H211355   0.646   6.024   5.686
 3800TIP3   OH211356   4.489   6.468   2.389
 3800TIP3    H111357   4.466   6.381   2.422
 3800TIP3    H211358   4.539   6.509   2.459
 3801TIP3   OH211359   0.350   6.030   0.600
 3801TIP3    H111360   0.361   6.119   0.566
 3801TIP3    H211361   0.367   5.973   0.524
 3802TIP3   OH211362   2.505   4.821   3.027
 3802TIP3    H111363   2.483   4.828   3.120
 3802TIP3    H211364   2.474   4.903   2.988
 3803TIP3   OH211365   4.018   0.470   0.383
 3803TIP3    H111366   4.087   0.532   0.358
 3803TIP3    H211367   4.038   0.447   0.474
 3804TIP3   OH211368   4.296   4.134   2.107
 3804TIP3    H111369   4.379   4.096   2.136
 3804TIP3    H211370   4.294   4.220   2.147
 3805TIP3   OH211371   6.478   5.943   1.939
 3805TIP3    H111372   6.519   5.934   1.853
 3805TIP3    H211373   6.549   5.924   2.001
 3806TIP3   OH211374   0.517   0.251   0.231
 3806TIP3    H111375   0.441   0.271   0.285
 3806TIP3    H211376   0.565   0.184   0.281
 3807TIP3   OH211377   0.912   3.087   4.082
 3807TIP3    H111378   0.974   3.064   4.013
 3807TIP3    H211379   0.956   3.157   4.131
 3808TIP3   OH211380   3.744   6.150   0.270
 3808TIP3    H111381   3.653   6.178   0.266
 3808TIP3    H211382   3.739   6.055   0.276
 3809TIP3   OH211383   8.146   5.857   6.529
 3809TIP3    H111384   8.151   5.832   6.437
 3809TIP3    H211385   8.053   5.873   6.545
 3810TIP3   OH211386   3.374   0.690   2.643
 3810TIP3    H111387   3.452   0.744   2.628
 3810TIP3    H211388   3.386   0.655   2.731
 3811TIP3   OH211389   5.639   4.747   6.058
 3811TIP3    H111390   5.707   4.807   6.027
 3811TIP3    H211391   5.561   4.773   6.009
 3812TIP3   OH211392   6.967   6.942   2.925
 3812TIP3    H111393   7.029   6.919   2.994
 3812TIP3    H211394   6.953   7.036   2.935
 3813TIP3   OH211395   2.115   6.253   4.680
 3813TIP3    H111396   2.058   6.244   4.604
 3813TIP3    H211397   2.149   6.342   4.674
 3814TIP3   OH211398   5.287   4.920   3.034
 3814TIP3    H111399   5.259   4.866   2.960
 3814TIP3    H211400   5.235   5.001   3.025
 3815TIP3   OH211401   3.105   3.345   3.332
 3815TIP3    H111402   3.041   3.276   3.313
 3815TIP3    H211403   3.172   3.334   3.264
 3816TIP3   OH211404   1.356   3.547   2.429
 3816TIP3    H111405   1.419   3.526   2.361
 3816TIP3    H211406   1.363   3.642   2.441
 3817TIP3   OH211407   0.506   7.427   0.337
 3817TIP3    H111408   0.593   7.388   0.329
 3817TIP3    H211409   0.473   7.396   0.421
 3818TIP3   OH211410   6.801   2.537   4.515
 3818TIP3    H111411   6.758   2.573   4.437
 3818TIP3    H211412   6.798   2.442   4.502
 3819TIP3   OH211413   2.303   3.778   3.647
 3819TIP3    H111414   2.340   3.705   3.697
 3819TIP3    H211415   2.209   3.775   3.665
 3820TIP3   OH211416   1.097   5.797   1.883
 3820TIP3    H111417   1.038   5.725   1.907
 3820TIP3    H211418   1.164   5.797   1.952
 3821TIP3   OH211419   1.937   6.192   0.171
 3821TIP3    H111420   1.884   6.199   0.092
 3821TIP3    H211421   1.993   6.270   0.169
 3822TIP3   OH211422   6.472   1.984   0.708
 3822TIP3    H111423   6.560   1.949   0.697
 3822TIP3    H211424   6.455   1.980   0.802
 3823TIP3   OH211425   4.139   3.913   1.015
 3823TIP3    H111426   4.229   3.886   1.000
 3823TIP3    H211427   4.100   3.918   0.927
 3824TIP3   OH211428   7.437   1.119   3.432
 3824TIP3    H111429   7.516   1.067   3.445
 3824TIP3    H211430   7.392   1.117   3.517
 3825TIP3   OH211431   0.775   3.577   1.089
 3825TIP3    H111432   0.761   3.626   1.008
 3825TIP3    H211433   0.779   3.485   1.061
 3826TIP3   OH211434   1.341   4.804   3.885
 3826TIP3    H111435   1.303   4.716   3.893
 3826TIP3    H211436   1.268   4.863   3.904
 3827TIP3   OH211437   2.961   7.568   3.511
 3827TIP3    H111438   3.049   7.592   3.540
 3827TIP3    H211439   2.906   7.641   3.540
 3828TIP3   OH211440   3.133   1.289  -0.020
 3828TIP3    H111441   3.091   1.374  -0.009
 3828TIP3    H211442   3.109   1.240   0.059
 3829TIP3   OH211443   7.718   4.151   6.326
 3829TIP3    H111444   7.784   4.216   6.350
 3829TIP3    H211445   7.718   4.089   6.399
 3830TIP3   OH211446   1.545   5.630   5.437
 3830TIP3    H111447   1.483   5.655   5.506
 3830TIP3    H211448   1.578   5.714   5.404
 3831TIP3   OH211449   2.858   1.304   2.683
 3831TIP3    H111450   2.835   1.265   2.767
 3831TIP3    H211451   2.954   1.307   2.683
 3832TIP3   OH211452  -0.013   0.904   5.964
 3832TIP3    H111453  -0.021   0.998   5.949
 3832TIP3    H211454   0.068   0.894   6.015
 3833TIP3   OH211455   4.950   5.284   0.682
 3833TIP3    H111456   4.912   5.360   0.726
 3833TIP3    H211457   4.938   5.303   0.589
 3834TIP3   OH211458   2.304   3.303   4.260
 3834TIP3    H111459   2.235   3.239   4.243
 3834TIP3    H211460   2.260   3.374   4.309
 3835TIP3   OH211461   2.583   1.552   4.741
 3835TIP3    H111462   2.622   1.503   4.814
 3835TIP3    H211463   2.496   1.575   4.772
 3836TIP3   OH211464   7.791   5.768   3.715
 3836TIP3    H111465   7.722   5.767   3.649
 3836TIP3    H211466   7.825   5.858   3.713
 3837TIP3   OH211467   5.754   6.049   4.874
 3837TIP3    H111468   5.733   6.139   4.899
 3837TIP3    H211469   5.671   6.014   4.842
 3838TIP3   OH211470   6.512   6.988   2.191
 3838TIP3    H111471   6.586   6.936   2.158
 3838TIP3    H211472   6.553   7.058   2.242
 3839TIP3   OH211473   4.059   3.123   1.375
 3839TIP3    H111474   4.006   3.044   1.386
 3839TIP3    H211475   4.112   3.106   1.296
 3840TIP3   OH211476   0.919   7.126   3.535
 3840TIP3    H111477   0.884   7.101   3.450
 3840TIP3    H211478   0.995   7.180   3.515
 3841TIP3   OH211479   8.233   6.380   4.822
 3841TIP3    H111480   8.271   6.454   4.871
 3841TIP3    H211481   8.152   6.414   4.785
 3842TIP3   OH211482   2.454   5.069   5.401
 3842TIP3    H111483   2.449   5.008   5.327
 3842TIP3    H211484   2.385   5.133   5.385
 3843TIP3   OH211485   6.987   0.408   2.666
 3843TIP3    H111486   7.003   0.402   2.760
 3843TIP3    H211487   7.064   0.368   2.625
 3844TIP3   OH211488   1.685   0.153   1.111
 3844TIP3    H111489   1.756   0.131   1.051
 3844TIP3    H211490   1.706   0.242   1.142
 3845TIP3   OH211491   5.592   5.143   0.827
 3845TIP3    H111492   5.528   5.208   0.855
 3845TIP3    H211493   5.626   5.177   0.745
 3846TIP3   OH211494   1.519   6.878   0.328
 3846TIP3    H111495   1.544   6.796   0.285
 3846TIP3    H211496   1.450   6.914   0.272
 3847TIP3   OH211497   6.479   6.353   2.647
 3847TIP3    H111498   6.455   6.347   2.554
 3847TIP3    H211499   6.517   6.440   2.657
 3848TIP3   OH211500   2.265   0.914   2.102
 3848TIP3    H111501   2.294   0.971   2.172
 3848TIP3    H211502   2.342   0.860   2.082
 3849TIP3   OH211503   3.782   0.643   6.551
 3849TIP3    H111504   3.836   0.688   6.616
 3849TIP3    H211505   3.742   0.713   6.500
 3850TIP3   OH211506   5.729   3.914   5.372
 3850TIP3    H111507   5.794   3.869   5.426
 3850TIP3    H211508   5.763   4.002   5.361
 3851TIP3   OH211509   6.666   5.832   6.650
 3851TIP3    H111510   6.761   5.838   6.666
 3851TIP3    H211511   6.629   5.904   6.701
 3852TIP3   OH211512   5.251   5.093   3.970
 3852TIP3    H111513   5.233   5.118   4.060
 3852TIP3    H211514   5.343   5.115   3.957
 3853TIP3   OH211515   5.258   1.596   0.734
 3853TIP3    H111516   5.166   1.595   0.757
 3853TIP3    H211517   5.262   1.558   0.646
 3854TIP3   OH211518   0.946   2.094   3.886
 3854TIP3    H111519   0.986   2.179   3.876
 3854TIP3    H211520   0.923   2.067   3.797
 3855TIP3   OH211521   3.525   1.824   4.380
 3855TIP3    H111522   3.512   1.825   4.285
 3855TIP3    H211523   3.438   1.808   4.416
 3856TIP3   OH211524   5.088   3.999   3.541
 3856TIP3    H111525   5.088   3.906   3.520
 3856TIP3    H211526   5.005   4.014   3.586
 3857TIP3   OH211527   6.912   5.693   3.318
 3857TIP3    H111528   6.993   5.669   3.274
 3857TIP3    H211529   6.939   5.719   3.406
 3858TIP3   OH211530   4.924   5.189   1.929
 3858TIP3    H111531   4.934   5.275   1.971
 3858TIP3    H211532   4.930   5.126   2.001
 3859TIP3   OH211533   3.814   4.710   1.025
 3859TIP3    H111534   3.810   4.693   1.119
 3859TIP3    H211535   3.787   4.628   0.984
 3860TIP3   OH211536   7.853   1.137   2.130
 3860TIP3    H111537   7.844   1.232   2.145
 3860TIP3    H211538   7.883   1.129   2.040
 3861TIP3   OH211539   7.292   3.336   6.215
 3861TIP3    H111540   7.387   3.326   6.224
 3861TIP3    H211541   7.269   3.282   6.139
 3862TIP3   OH211542   6.093   4.961   3.072
 3862TIP3    H111543   6.153   4.919   3.010
 3862TIP3    H211544   6.029   5.006   3.016
 3863TIP3   OH211545   7.693   4.439   2.442
 3863TIP3    H111546   7.650   4.377   2.383
 3863TIP3    H211547   7.677   4.403   2.529
 3864TIP3   OH211548   2.268   2.699   4.060
 3864TIP3    H111549   2.181   2.738   4.053
 3864TIP3    H211550   2.328   2.774   4.061
 3865TIP3   OH211551   3.643   1.676   0.446
 3865TIP3    H111552   3.615   1.766   0.432
 3865TIP3    H211553   3.612   1.654   0.534
 3866TIP3   OH211554   3.313   7.513   1.384
 3866TIP3    H111555   3.370   7.455   1.333
 3866TIP3    H211556   3.322   7.598   1.342
 3867TIP3   OH211557   4.166   5.871   0.533
 3867TIP3    H111558   4.180   5.908   0.446
 3867TIP3    H211559   4.158   5.947   0.591
 3868TIP3   OH211560   0.393   0.888   2.129
 3868TIP3    H111561   0.444   0.969   2.134
 3868TIP3    H211562   0.374   0.865   2.220
 3869TIP3   OH211563   5.524   3.016   0.573
 3869TIP3    H111564   5.475   2.945   0.533
 3869TIP3    H211565   5.588   3.042   0.506
 3870TIP3   OH211566   6.785   1.856   3.168
 3870TIP3    H111567   6.805   1.776   3.118
 3870TIP3    H211568   6.691   1.868   3.156
 3871TIP3   OH211569   0.702   2.421   4.371
 3871TIP3    H111570   0.623   2.473   4.354
 3871TIP3    H211571   0.764   2.483   4.409
 3872TIP3   OH211572   7.803   7.029   2.073
 3872TIP3    H111573   7.726   6.991   2.115
 3872TIP3    H211574   7.780   7.121   2.058
 3873TIP3   OH211575   8.270   2.019   5.562
 3873TIP3    H111576   8.203   2.072   5.519
 3873TIP3    H211577   8.351   2.038   5.514
 3874TIP3   OH211578   2.868   5.085   2.053
 3874TIP3    H111579   2.873   5.169   2.099
 3874TIP3    H211580   2.915   5.024   2.108
 3875TIP3   OH211581   0.062   3.571   5.945
 3875TIP3    H111582   0.074   3.628   6.022
 3875TIP3    H211583  -0.001   3.505   5.974
 3876TIP3   OH211584   0.336   4.231   0.306
 3876TIP3    H111585   0.338   4.216   0.211
 3876TIP3    H211586   0.269   4.172   0.339
 3877TIP3   OH211587   3.456   4.912   2.285
 3877TIP3    H111588   3.541   4.934   2.325
 3877TIP3    H211589   3.394   4.916   2.357
 3878TIP3   OH211590   3.749   1.904   4.571
 3878TIP3    H111591   3.818   1.940   4.516
 3878TIP3    H211592   3.672   1.903   4.515
 3879TIP3   OH211593   7.837   3.841   0.844
 3879TIP3    H111594   7.775   3.768   0.856
 3879TIP3    H211595   7.807   3.884   0.764
 3880TIP3   OH211596   7.991   2.689   3.811
 3880TIP3    H111597   7.994   2.749   3.886
 3880TIP3    H211598   7.917   2.720   3.759
 3881TIP3   OH211599   7.279   2.308   5.864
 3881TIP3    H111600   7.343   2.266   5.807
 3881TIP3    H211601   7.265   2.246   5.935
 3882TIP3   OH211602   6.981   7.220   3.476
 3882TIP3    H111603   6.967   7.308   3.512
 3882TIP3    H211604   6.995   7.165   3.553
 3883TIP3   OH211605   8.072   6.618   3.062
 3883TIP3    H111606   8.045   6.569   3.140
 3883TIP3    H211607   8.091   6.550   2.997
 3884TIP3   OH211608   3.613   3.818   0.643
 3884TIP3    H111609   3.694   3.769   0.627
 3884TIP3    H211610   3.564   3.810   0.561
 3885TIP3   OH211611   5.202   1.876   4.390
 3885TIP3    H111612   5.201   1.806   4.325
 3885TIP3    H211613   5.171   1.834   4.471
 3886TIP3   OH211614   2.467   1.762   5.436
 3886TIP3    H111615   2.479   1.715   5.354
 3886TIP3    H211616   2.477   1.695   5.504
 3887TIP3   OH211617   3.997   0.548   5.519
 3887TIP3    H111618   3.957   0.625   5.560
 3887TIP3    H211619   3.987   0.478   5.583
 3888TIP3   OH211620   7.312   2.763   5.838
 3888TIP3    H111621   7.263   2.789   5.916
 3888TIP3    H211622   7.403   2.786   5.857
 3889TIP3   OH211623   3.743   4.598   6.627
 3889TIP3    H111624   3.689   4.519   6.638
 3889TIP3    H211625   3.680   4.670   6.629
 3890TIP3   OH211626   0.734   6.994   2.355
 3890TIP3    H111627   0.817   6.967   2.315
 3890TIP3    H211628   0.753   7.077   2.397
 3891TIP3   OH211629   2.111   7.546   4.305
 3891TIP3    H111630   2.028   7.505   4.331
 3891TIP3    H211631   2.109   7.632   4.347
 3892TIP3   OH211632   3.290   3.489   3.571
 3892TIP3    H111633   3.350   3.493   3.498
 3892TIP3    H211634   3.299   3.574   3.615
 3893TIP3   OH211635   2.008   4.967   6.475
 3893TIP3    H111636   1.939   5.022   6.438
 3893TIP3    H211637   2.016   4.997   6.566
 3894TIP3   OH211638   1.208   7.358   3.958
 3894TIP3    H111639   1.221   7.263   3.965
 3894TIP3    H211640   1.276   7.387   3.898
 3895TIP3   OH211641   1.192   4.891   2.241
 3895TIP3    H111642   1.276   4.935   2.243
 3895TIP3    H211643   1.210   4.803   2.273
 3896TIP3   OH211644   7.059   6.750   4.765
 3896TIP3    H111645   7.042   6.758   4.859
 3896TIP3    H211646   7.013   6.671   4.739
 3897TIP3   OH211647   2.910   2.858   5.458
 3897TIP3    H111648   2.922   2.953   5.449
 3897TIP3    H211649   2.824   2.841   5.419
 3898TIP3   OH211650   5.734   5.149   2.706
 3898TIP3    H111651   5.768   5.184   2.623
 3898TIP3    H211652   5.813   5.133   2.759
 3899TIP3   OH211653   0.453   5.133   4.758
 3899TIP3    H111654   0.503   5.142   4.839
 3899TIP3    H211655   0.372   5.182   4.775
 3900TIP3   OH211656   5.328   2.656   3.652
 3900TIP3    H111657   5.278   2.588   3.698
 3900TIP3    H211658   5.274   2.734   3.660
 3901TIP3   OH211659   1.723   0.940   5.458
 3901TIP3    H111660   1.647   0.985   5.497
 3901TIP3    H211661   1.688   0.899   5.379
 3902TIP3   OH211662   7.702   1.508   1.476
 3902TIP3    H111663   7.787   1.469   1.498
 3902TIP3    H211664   7.697   1.586   1.531
 3903TIP3   OH211665   8.074   3.232   5.357
 3903TIP3    H111666   8.041   3.315   5.391
 3903TIP3    H211667   8.058   3.236   5.263
 3904TIP3   OH211668   8.061   3.313   0.722
 3904TIP3    H111669   7.973   3.340   0.749
 3904TIP3    H211670   8.060   3.218   0.729
 3905TIP3   OH211671   0.586   0.713   5.519
 3905TIP3    H111672   0.651   0.779   5.495
 3905TIP3    H211673   0.523   0.713   5.446
 3906TIP3   OH211674   5.884   3.123   6.735
 3906TIP3    H111675   5.950   3.189   6.758
 3906TIP3    H211676   5.892   3.113   6.640
 3907TIP3   OH211677   4.398   6.499   0.291
 3907TIP3    H111678   4.351   6.574   0.256
 3907TIP3    H211679   4.340   6.464   0.359
 3908TIP3   OH211680   3.133   3.961   1.251
 3908TIP3    H111681   3.212   3.908   1.236
 3908TIP3    H211682   3.061   3.903   1.227
 3909TIP3   OH211683   4.128   6.733   5.896
 3909TIP3    H111684   4.044   6.773   5.875
 3909TIP3    H211685   4.157   6.694   5.814
 3910TIP3   OH211686   1.603   1.596   5.376
 3910TIP3    H111687   1.639   1.667   5.429
 3910TIP3    H211688   1.673   1.575   5.314
 3911TIP3   OH211689   5.194   4.695   4.521
 3911TIP3    H111690   5.169   4.688   4.429
 3911TIP3    H211691   5.147   4.624   4.564
 3912TIP3   OH211692   2.207   7.432   0.472
 3912TIP3    H111693   2.188   7.514   0.426
 3912TIP3    H211694   2.226   7.460   0.562
 3913TIP3   OH211695   6.602   5.140   3.255
 3913TIP3    H111696   6.614   5.053   3.218
 3913TIP3    H211697   6.508   5.157   3.247
 3914TIP3   OH211698   7.987   3.424   4.586
 3914TIP3    H111699   7.910   3.372   4.562
 3914TIP3    H211700   8.024   3.380   4.662
 3915TIP3   OH211701   1.504   2.578   3.166
 3915TIP3    H111702   1.484   2.645   3.101
 3915TIP3    H211703   1.430   2.518   3.162
 3916TIP3   OH211704   6.579   7.513   4.436
 3916TIP3    H111705   6.671   7.533   4.418
 3916TIP3    H211706   6.572   7.515   4.532
 3917TIP3   OH211707   5.874   5.957   5.884
 3917TIP3    H111708   5.939   5.924   5.946
 3917TIP3    H211709   5.862   5.886   5.821
 3918TIP3   OH211710   5.753   7.758   2.008
 3918TIP3    H111711   5.765   7.678   2.059
 3918TIP3    H211712   5.661   7.781   2.022
 3919TIP3   OH211713   1.718   2.992   3.143
 3919TIP3    H111714   1.657   2.923   3.118
 3919TIP3    H211715   1.695   3.066   3.087
 3920TIP3   OH211716   0.272   3.930   2.396
 3920TIP3    H111717   0.322   3.966   2.322
 3920TIP3    H211718   0.331   3.866   2.436
 3921TIP3   OH211719   3.726   3.715   6.567
 3921TIP3    H111720   3.637   3.749   6.564
 3921TIP3    H211721   3.722   3.642   6.628
 3922TIP3   OH211722   3.776   7.345   4.394
 3922TIP3    H111723   3.734   7.305   4.470
 3922TIP3    H211724   3.870   7.345   4.415
 3923TIP3   OH211725   4.704   4.241   0.806
 3923TIP3    H111726   4.654   4.292   0.870
 3923TIP3    H211727   4.641   4.215   0.740
 3924TIP3   OH211728   3.111   1.056   6.301
 3924TIP3    H111729   3.090   1.056   6.208
 3924TIP3    H211730   3.026   1.052   6.345
 3925TIP3   OH211731   2.744   5.238   1.120
 3925TIP3    H111732   2.679   5.218   1.053
 3925TIP3    H211733   2.759   5.155   1.164
 3926TIP3   OH211734   4.451   0.895   4.700
 3926TIP3    H111735   4.538   0.862   4.675
 3926TIP3    H211736   4.430   0.847   4.780
 3927TIP3   OH211737   1.097   1.542   4.224
 3927TIP3    H111738   1.071   1.472   4.284
 3927TIP3    H211739   1.053   1.621   4.258
 3928TIP3   OH211740   5.579   2.389   4.327
 3928TIP3    H111741   5.563   2.450   4.399
 3928TIP3    H211742   5.536   2.309   4.353
 3929TIP3   OH211743   5.871   6.811   6.274
 3929TIP3    H111744   5.906   6.722   6.278
 3929TIP3    H211745   5.784   6.804   6.313
 3930TIP3   OH211746   2.953   3.175   4.779
 3930TIP3    H111747   2.936   3.082   4.788
 3930TIP3    H211748   3.031   3.181   4.724
 3931TIP3   OH211749   4.385   5.566   0.801
 3931TIP3    H111750   4.348   5.529   0.721
 3931TIP3    H211751   4.403   5.491   0.856
 3932TIP3   OH211752   4.321   5.768   1.255
 3932TIP3    H111753   4.382   5.694   1.257
 3932TIP3    H211754   4.340   5.817   1.335
 3933TIP3   OH211755   1.350   3.721   4.492
 3933TIP3    H111756   1.315   3.684   4.411
 3933TIP3    H211757   1.295   3.683   4.561
 3934TIP3   OH211758   6.553   6.542   6.048
 3934TIP3    H111759   6.458   6.535   6.037
 3934TIP3    H211760   6.564   6.587   6.131
 3935TIP3   OH211761   7.489   2.476   5.816
 3935TIP3    H111762   7.395   2.478   5.835
 3935TIP3    H211763   7.504   2.390   5.777
 3936TIP3   OH211764   1.332   7.681   5.628
 3936TIP3    H111765   1.304   7.702   5.539
 3936TIP3    H211766   1.385   7.602   5.619
 3937TIP3   OH211767   4.528   7.715   4.783
 3937TIP3    H111768   4.559   7.704   4.873
 3937TIP3    H211769   4.504   7.807   4.777
 3938TIP3   OH211770   1.687   1.691   2.273
 3938TIP3    H111771   1.757   1.651   2.221
 3938TIP3    H211772   1.709   1.668   2.363
 3939TIP3   OH211773   5.678   6.538   4.857
 3939TIP3    H111774   5.760   6.543   4.906
 3939TIP3    H211775   5.614   6.506   4.920
 3940TIP3   OH211776   5.511   7.455   6.572
 3940TIP3    H111777   5.596   7.468   6.614
 3940TIP3    H211778   5.449   7.497   6.631
 3941TIP3   OH211779   6.064   6.587   0.346
 3941TIP3    H111780   6.114   6.668   0.336
 3941TIP3    H211781   6.002   6.587   0.273
 3942TIP3   OH211782   5.869   4.376   6.212
 3942TIP3    H111783   5.943   4.434   6.196
 3942TIP3    H211784   5.798   4.409   6.157
 3943TIP3   OH211785   6.289   2.356   1.556
 3943TIP3    H111786   6.311   2.372   1.648
 3943TIP3    H211787   6.321   2.267   1.539
 3944TIP3   OH211788   4.119   4.364   5.313
 3944TIP3    H111789   4.145   4.400   5.229
 3944TIP3    H211790   4.031   4.331   5.300
 3945TIP3   OH211791   2.799   1.463   5.667
 3945TIP3    H111792   2.749   1.544   5.662
 3945TIP3    H211793   2.733   1.394   5.670
 3946TIP3   OH211794   2.475   3.214   3.865
 3946TIP3    H111795   2.492   3.232   3.773
 3946TIP3    H211796   2.432   3.128   3.865
 3947TIP3   OH211797   3.213   7.689   0.672
 3947TIP3    H111798   3.252   7.736   0.598
 3947TIP3    H211799   3.208   7.755   0.741
 3948TIP3   OH211800   2.928   3.097   1.935
 3948TIP3    H111801   2.956   3.188   1.924
 3948TIP3    H211802   2.835   3.103   1.954
 3949TIP3   OH211803   4.013   2.901   4.568
 3949TIP3    H111804   3.951   2.830   4.550
 3949TIP3    H211805   3.976   2.946   4.644
 3950TIP3   OH211806   6.103   1.048   6.662
 3950TIP3    H111807   6.085   0.984   6.592
 3950TIP3    H211808   6.174   1.101   6.627
 3951TIP3   OH211809   3.823   5.132   5.044
 3951TIP3    H111810   3.839   5.227   5.049
 3951TIP3    H211811   3.753   5.123   4.980
 3952TIP3   OH211812   5.467   3.796   5.932
 3952TIP3    H111813   5.409   3.835   5.867
 3952TIP3    H211814   5.518   3.869   5.967
 3953TIP3   OH211815   7.473   0.207   6.204
 3953TIP3    H111816   7.418   0.131   6.225
 3953TIP3    H211817   7.410   0.278   6.189
 3954TIP3   OH211818   5.186   4.416   5.643
 3954TIP3    H111819   5.148   4.369   5.718
 3954TIP3    H211820   5.132   4.388   5.568
 3955TIP3   OH211821   5.716   2.241   2.321
 3955TIP3    H111822   5.789   2.179   2.315
 3955TIP3    H211823   5.752   2.323   2.287
 3956TIP3   OH211824   2.055   1.618   5.480
 3956TIP3    H111825   2.020   1.635   5.393
 3956TIP3    H211826   2.124   1.553   5.466
 3957TIP3   OH211827   7.792   0.696   0.386
 3957TIP3    H111828   7.745   0.714   0.304
 3957TIP3    H211829   7.770   0.606   0.407
 3958TIP3   OH211830   5.434   2.309   4.574
 3958TIP3    H111831   5.369   2.290   4.506
 3958TIP3    H211832   5.382   2.330   4.651
 3959TIP3   OH211833   3.031   7.522   0.517
 3959TIP3    H111834   3.031   7.539   0.423
 3959TIP3    H211835   3.082   7.593   0.555
 3960TIP3   OH211836   5.384   5.874   4.624
 3960TIP3    H111837   5.394   5.835   4.536
 3960TIP3    H211838   5.338   5.807   4.674
 3961TIP3   OH211839   1.298   6.138   4.119
 3961TIP3    H111840   1.353   6.178   4.052
 3961TIP3    H211841   1.211   6.176   4.104
 3962TIP3   OH211842   5.661   7.291   2.323
 3962TIP3    H111843   5.583   7.338   2.355
 3962TIP3    H211844   5.625   7.221   2.268
 3963TIP3   OH211845   2.893   6.099   1.100
 3963TIP3    H111846   2.861   6.036   1.165
 3963TIP3    H211847   2.879   6.055   1.016
 3964TIP3   OH211848   8.017   7.240   6.334
 3964TIP3    H111849   7.957   7.168   6.356
 3964TIP3    H211850   8.062   7.259   6.416
 3965TIP3   OH211851   6.374   7.174   6.561
 3965TIP3    H111852   6.460   7.215   6.561
 3965TIP3    H211853   6.337   7.197   6.476
 3966TIP3   OH211854   6.927   6.545   3.566
 3966TIP3    H111855   6.839   6.520   3.595
 3966TIP3    H211856   6.972   6.573   3.645
 3967TIP3   OH211857   6.343   4.267   5.499
 3967TIP3    H111858   6.382   4.354   5.492
 3967TIP3    H211859   6.401   4.211   5.449
 3968TIP3   OH211860   2.207   1.223   2.319
 3968TIP3    H111861   2.262   1.294   2.352
 3968TIP3    H211862   2.139   1.212   2.385
 3969TIP3   OH211863   6.795   4.804   2.889
 3969TIP3    H111864   6.750   4.727   2.925
 3969TIP3    H211865   6.865   4.767   2.835
 3970TIP3   OH211866   4.729   5.132   5.217
 3970TIP3    H111867   4.644   5.095   5.242
 3970TIP3    H211868   4.755   5.082   5.140
 3971TIP3   OH211869   2.705   2.015   1.929
 3971TIP3    H111870   2.620   2.059   1.919
 3971TIP3    H211871   2.758   2.048   1.857
 3972TIP3   OH211872   7.725   7.679   6.583
 3972TIP3    H111873   7.734   7.760   6.533
 3972TIP3    H211874   7.797   7.681   6.646
 3973TIP3   OH211875   1.142   1.584   3.621
 3973TIP3    H111876   1.138   1.511   3.559
 3973TIP3    H211877   1.170   1.543   3.704
 3974TIP3   OH211878   2.968   1.803   4.997
 3974TIP3    H111879   2.962   1.736   5.065
 3974TIP3    H211880   3.008   1.878   5.040
 3975TIP3   OH211881   3.994   7.337   3.277
 3975TIP3    H111882   3.970   7.371   3.364
 3975TIP3    H211883   4.048   7.406   3.239
 3976TIP3   OH211884   3.023   5.099   3.526
 3976TIP3    H111885   2.960   5.089   3.598
 3976TIP3    H211886   2.968   5.116   3.450
 3977TIP3   OH211887   2.124   6.441   6.279
 3977TIP3    H111888   2.061   6.417   6.346
 3977TIP3    H211889   2.107   6.380   6.207
 3978TIP3   OH211890   2.153   3.699   2.154
 3978TIP3    H111891   2.213   3.630   2.182
 3978TIP3    H211892   2.171   3.772   2.213
 3979TIP3   OH211893   6.158   1.049   1.393
 3979TIP3    H111894   6.163   1.144   1.395
 3979TIP3    H211895   6.250   1.020   1.397
 3980TIP3   OH211896   2.915   3.767   1.598
 3980TIP3    H111897   2.990   3.818   1.568
 3980TIP3    H211898   2.951   3.681   1.620
 3981TIP3   OH211899   1.774   3.483   1.846
 3981TIP3    H111900   1.772   3.418   1.775
 3981TIP3    H211901   1.793   3.566   1.802
 3982TIP3   OH211902   2.919   0.101   2.258
 3982TIP3    H111903   2.971   0.104   2.338
 3982TIP3    H211904   2.891   0.009   2.251
 3983TIP3   OH211905   5.559   3.534   0.030
 3983TIP3    H111906   5.493   3.500   0.090
 3983TIP3    H211907   5.642   3.524   0.076
 3984TIP3   OH211908   4.515   3.804   5.444
 3984TIP3    H111909   4.584   3.794   5.509
 3984TIP3    H211910   4.474   3.718   5.438
 3985TIP3   OH211911   0.067   1.668   1.519
 3985TIP3    H111912   0.144   1.718   1.546
 3985TIP3    H211913   0.088   1.640   1.430
 3986TIP3   OH211914   2.688   2.053   6.561
 3986TIP3    H111915   2.697   1.979   6.501
 3986TIP3    H211916   2.656   2.125   6.507
 3987TIP3   OH211917   4.887   2.342   5.001
 3987TIP3    H111918   4.873   2.435   5.021
 3987TIP3    H211919   4.969   2.320   5.046
 3988TIP3   OH211920   6.339   3.088   2.153
 3988TIP3    H111921   6.292   3.099   2.236
 3988TIP3    H211922   6.311   3.003   2.121
 3989TIP3   OH211923   7.175   5.771   1.679
 3989TIP3    H111924   7.233   5.780   1.755
 3989TIP3    H211925   7.222   5.712   1.620
 3990TIP3   OH211926   3.901   7.713   0.704
 3990TIP3    H111927   3.812   7.679   0.696
 3990TIP3    H211928   3.952   7.664   0.638
 3991TIP3   OH211929   7.478   5.993   4.820
 3991TIP3    H111930   7.402   6.035   4.779
 3991TIP3    H211931   7.491   5.913   4.770
 3992TIP3   OH211932   6.076   3.561   3.538
 3992TIP3    H111933   6.155   3.604   3.569
 3992TIP3    H211934   6.025   3.631   3.498
 3993TIP3   OH211935   0.387   4.492   0.261
 3993TIP3    H111936   0.356   4.404   0.282
 3993TIP3    H211937   0.350   4.511   0.174
 3994TIP3   OH211938   5.437   6.250   6.427
 3994TIP3    H111939   5.496   6.193   6.477
 3994TIP3    H211940   5.441   6.215   6.338
 3995TIP3   OH211941   4.185   0.152   2.602
 3995TIP3    H111942   4.180   0.176   2.509
 3995TIP3    H211943   4.114   0.202   2.643
 3996TIP3   OH211944   1.551   2.213   3.004
 3996TIP3    H111945   1.588   2.130   3.032
 3996TIP3    H211946   1.550   2.208   2.908
 3997TIP3   OH211947   5.719   5.469   6.069
 3997TIP3    H111948   5.635   5.455   6.111
 3997TIP3    H211949   5.760   5.538   6.121
 3998TIP3   OH211950   6.987   4.576   0.049
 3998TIP3    H111951   6.949   4.602  -0.035
 3998TIP3    H211952   7.075   4.546   0.027
 3999TIP3   OH211953   1.893   3.821   3.928
 3999TIP3    H111954   1.800   3.825   3.903
 3999TIP3    H211955   1.903   3.889   3.994
 4000TIP3   OH211956   0.185   7.687   0.279
 4000TIP3    H111957   0.212   7.651   0.364
 4000TIP3    H211958   0.155   7.775   0.299
 4001TIP3   OH211959   6.262   7.020   6.197
 4001TIP3    H111960   6.351   7.043   6.222
 4001TIP3    H211961   6.225   6.979   6.276
 4002TIP3   OH211962   5.299   4.305   4.706
 4002TIP3    H111963   5.215   4.344   4.683
 4002TIP3    H211964   5.295   4.217   4.667
 4003TIP3   OH211965   7.578   0.936   0.815
 4003TIP3    H111966   7.560   0.905   0.726
 4003TIP3    H211967   7.553   0.862   0.871
 4004TIP3   OH211968   7.003   3.446   4.025
 4004TIP3    H111969   6.957   3.518   4.068
 4004TIP3    H211970   6.933   3.386   3.998
 4005TIP3   OH211971   4.421   2.867   2.405
 4005TIP3    H111972   4.458   2.896   2.322
 4005TIP3    H211973   4.467   2.917   2.472
 4006TIP3   OH211974   1.938   4.399   2.547
 4006TIP3    H111975   1.896   4.485   2.549
 4006TIP3    H211976   1.868   4.337   2.569
 4007TIP3   OH211977   0.434   0.526   0.520
 4007TIP3    H111978   0.426   0.462   0.449
 4007TIP3    H211979   0.519   0.506   0.560
 4008TIP3   OH211980   2.533   0.072   4.435
 4008TIP3    H111981   2.529   0.026   4.351
 4008TIP3    H211982   2.625   0.066   4.461
 4009TIP3   OH211983   3.575   6.319   5.203
 4009TIP3    H111984   3.617   6.360   5.127
 4009TIP3    H211985   3.584   6.225   5.188
 4010TIP3   OH211986   3.869   1.970   0.653
 4010TIP3    H111987   3.945   2.023   0.673
 4010TIP3    H211988   3.897   1.880   0.670
 4011TIP3   OH211989   6.698   0.891   6.173
 4011TIP3    H111990   6.603   0.906   6.168
 4011TIP3    H211991   6.736   0.964   6.124
 4012TIP3   OH211992   4.046   1.851   3.365
 4012TIP3    H111993   3.987   1.919   3.398
 4012TIP3    H211994   4.133   1.879   3.397
 4013TIP3   OH211995   4.100   2.751   6.014
 4013TIP3    H111996   4.086   2.845   6.009
 4013TIP3    H211997   4.062   2.725   6.098
 4014TIP3   OH211998   3.489   5.900   4.257
 4014TIP3    H111999   3.450   5.813   4.252
 4014TIP3    H212000   3.417   5.957   4.282
 4015TIP3   OH212001   6.746   1.601   2.729
 4015TIP3    H112002   6.840   1.597   2.712
 4015TIP3    H212003   6.736   1.570   2.819
 4016TIP3   OH212004   0.207   3.318   0.948
 4016TIP3    H112005   0.188   3.228   0.972
 4016TIP3    H212006   0.284   3.312   0.891
 4017TIP3   OH212007   5.154   2.340   0.605
 4017TIP3    H112008   5.186   2.380   0.686
 4017TIP3    H212009   5.205   2.260   0.596
 4018TIP3   OH212010   6.077   6.090   5.667
 4018TIP3    H112011   6.030   6.091   5.750
 4018TIP3    H212012   6.010   6.068   5.602
 4019TIP3   OH212013   0.128   0.790   1.782
 4019TIP3    H112014   0.213   0.834   1.789
 4019TIP3    H212015   0.094   0.789   1.871
 4020TIP3   OH212016   3.055   0.736   3.990
 4020TIP3    H112017   3.039   0.783   3.909
 4020TIP3    H212018   2.968   0.717   4.024
 4021TIP3   OH212019   3.437   6.057   0.024
 4021TIP3    H112020   3.445   6.027   0.115
 4021TIP3    H212021   3.526   6.051  -0.011
 4022TIP3   OH212022   5.924   0.222   3.783
 4022TIP3    H112023   5.964   0.309   3.789
 4022TIP3    H212024   5.894   0.204   3.872
 4023TIP3   OH212025   3.585   0.799   1.853
 4023TIP3    H112026   3.496   0.815   1.884
 4023TIP3    H212027   3.584   0.828   1.761
 4024TIP3   OH212028   6.575   5.098   3.902
 4024TIP3    H112029   6.654   5.045   3.896
 4024TIP3    H212030   6.509   5.049   3.852
 4025TIP3   OH212031   2.095   6.944   2.986
 4025TIP3    H112032   2.191   6.942   2.989
 4025TIP3    H212033   2.070   7.000   3.059
 4026TIP3   OH212034   0.850   4.656   5.442
 4026TIP3    H112035   0.869   4.664   5.535
 4026TIP3    H212036   0.935   4.652   5.399
 4027TIP3   OH212037   0.861   1.014   3.593
 4027TIP3    H112038   0.862   1.021   3.498
 4027TIP3    H212039   0.830   1.100   3.623
 4028TIP3   OH212040   7.834   0.262   2.555
 4028TIP3    H112041   7.772   0.220   2.615
 4028TIP3    H212042   7.799   0.350   2.541
 4029TIP3   OH212043   6.238   2.871   4.588
 4029TIP3    H112044   6.158   2.900   4.631
 4029TIP3    H212045   6.305   2.877   4.656
 4030TIP3   OH212046   2.656   0.568   3.909
 4030TIP3    H112047   2.731   0.596   3.856
 4030TIP3    H212048   2.686   0.487   3.951
 4031TIP3   OH212049   7.972   5.775   6.164
 4031TIP3    H112050   7.999   5.709   6.228
 4031TIP3    H212051   7.972   5.858   6.213
 4032TIP3   OH212052   3.626   6.596   1.406
 4032TIP3    H112053   3.676   6.523   1.445
 4032TIP3    H212054   3.596   6.647   1.481
 4033TIP3   OH212055   2.163   4.503   4.476
 4033TIP3    H112056   2.210   4.574   4.519
 4033TIP3    H212057   2.127   4.450   4.548
 4034TIP3   OH212058   6.759   3.738   1.480
 4034TIP3    H112059   6.835   3.719   1.424
 4034TIP3    H212060   6.692   3.677   1.451
 4035TIP3   OH212061   5.504   6.653   2.312
 4035TIP3    H112062   5.541   6.740   2.295
 4035TIP3    H212063   5.472   6.624   2.227
 4036TIP3   OH212064   5.555   6.146   1.098
 4036TIP3    H112065   5.577   6.074   1.158
 4036TIP3    H212066   5.472   6.119   1.058
 4037TIP3   OH212067   1.730   7.547   3.148
 4037TIP3    H112068   1.790   7.543   3.073
 4037TIP3    H212069   1.787   7.538   3.224
 4038TIP3   OH212070   7.901   4.402   2.954
 4038TIP3    H112071   7.956   4.324   2.943
 4038TIP3    H212072   7.920   4.432   3.042
 4039TIP3   OH212073   1.735   0.413   1.198
 4039TIP3    H112074   1.801   0.456   1.252
 4039TIP3    H212075   1.743   0.455   1.113
 4040TIP3   OH212076   5.834   4.168   5.336
 4040TIP3    H112077   5.847   4.125   5.252
 4040TIP3    H212078   5.920   4.202   5.360
 4041TIP3   OH212079   6.188   7.000   0.441
 4041TIP3    H112080   6.109   6.946   0.449
 4041TIP3    H212081   6.250   6.944   0.394
 4042TIP3   OH212082   3.150   7.471   5.236
 4042TIP3    H112083   3.109   7.506   5.157
 4042TIP3    H212084   3.216   7.409   5.203
 4043TIP3   OH212085   5.082   6.962   5.631
 4043TIP3    H112086   5.093   6.916   5.548
 4043TIP3    H212087   4.992   6.994   5.629
 4044TIP3   OH212088   8.282   5.359   1.796
 4044TIP3    H112089   8.222   5.289   1.821
 4044TIP3    H212090   8.305   5.340   1.705
 4045TIP3   OH212091   1.849   3.647  -0.030
 4045TIP3    H112092   1.835   3.676   0.060
 4045TIP3    H212093   1.784   3.695  -0.081
 4046TIP3   OH212094   0.073   7.808   4.721
 4046TIP3    H112095   0.140   7.742   4.739
 4046TIP3    H212096   0.043   7.835   4.808
 4047TIP3   OH212097   4.294   7.575   5.338
 4047TIP3    H112098   4.217   7.625   5.364
 4047TIP3    H212099   4.284   7.563   5.243
 4048TIP3   OH212100   0.167   2.084   5.379
 4048TIP3    H112101   0.181   2.171   5.341
 4048TIP3    H212102   0.141   2.029   5.305
 4049TIP3   OH212103   4.963   3.121   5.297
 4049TIP3    H112104   5.009   3.097   5.377
 4049TIP3    H212105   4.944   3.214   5.306
 4050TIP3   OH212106   1.268   6.969   3.810
 4050TIP3    H112107   1.274   6.999   3.901
 4050TIP3    H212108   1.178   6.990   3.784
 4051TIP3   OH212109   1.445   1.247   2.438
 4051TIP3    H112110   1.482   1.184   2.499
 4051TIP3    H212111   1.497   1.326   2.449
 4052TIP3   OH212112   3.067   1.541   5.683
 4052TIP3    H112113   3.097   1.596   5.611
 4052TIP3    H212114   2.978   1.515   5.659
 4053TIP3   OH212115   7.964   1.062   0.363
 4053TIP3    H112116   7.909   1.027   0.433
 4053TIP3    H212117   7.911   1.133   0.325
 4054TIP3   OH212118   1.973   7.567   6.701
 4054TIP3    H112119   2.054   7.617   6.707
 4054TIP3    H212120   1.904   7.634   6.696
 4055TIP3   OH212121   0.009   6.141   0.444
 4055TIP3    H112122  -0.048   6.218   0.438
 4055TIP3    H212123   0.091   6.175   0.480
 4056TIP3   OH212124   3.971   5.384   2.727
 4056TIP3    H112125   3.918   5.459   2.753
 4056TIP3    H212126   3.944   5.314   2.787
 4057TIP3   OH212127   4.730   2.558   2.138
 4057TIP3    H112128   4.666   2.520   2.198
 4057TIP3    H212129   4.682   2.575   2.058
 4058TIP3   OH212130   0.889   2.927   5.370
 4058TIP3    H112131   0.831   2.949   5.298
 4058TIP3    H212132   0.975   2.959   5.342
 4059TIP3   OH212133   1.573   4.780   6.395
 4059TIP3    H112134   1.481   4.763   6.376
 4059TIP3    H212135   1.591   4.863   6.351
 4060TIP3   OH212136   1.254   7.484   3.131
 4060TIP3    H112137   1.298   7.416   3.182
 4060TIP3    H212138   1.240   7.555   3.193
 4061TIP3   OH212139   4.636   0.271   0.091
 4061TIP3    H112140   4.550   0.236   0.071
 4061TIP3    H212141   4.619   0.349   0.144
 4062TIP3   OH212142   6.182   4.823   6.510
 4062TIP3    H112143   6.136   4.907   6.507
 4062TIP3    H212144   6.155   4.783   6.593
 4063TIP3   OH212145   8.269   2.293   1.858
 4063TIP3    H112146   8.263   2.372   1.911
 4063TIP3    H212147   8.262   2.323   1.768
 4064TIP3   OH212148   2.739   7.024   4.427
 4064TIP3    H112149   2.690   7.105   4.410
 4064TIP3    H212150   2.673   6.955   4.420
 4065TIP3   OH212151   6.192   1.644   3.804
 4065TIP3    H112152   6.241   1.725   3.818
 4065TIP3    H212153   6.221   1.586   3.875
 4066TIP3   OH212154   2.813   6.312   3.628
 4066TIP3    H112155   2.768   6.390   3.595
 4066TIP3    H212156   2.831   6.333   3.720
 4067TIP3   OH212157   5.271   3.792   0.532
 4067TIP3    H112158   5.212   3.726   0.570
 4067TIP3    H212159   5.285   3.762   0.442
 4068TIP3   OH212160   3.978   5.668   0.510
 4068TIP3    H112161   4.019   5.754   0.518
 4068TIP3    H212162   4.048   5.610   0.481
 4069TIP3   OH212163   2.858   3.865   4.896
 4069TIP3    H112164   2.901   3.919   4.962
 4069TIP3    H212165   2.876   3.910   4.813
 4070TIP3   OH212166   2.585   5.198   0.518
 4070TIP3    H112167   2.670   5.154   0.511
 4070TIP3    H212168   2.574   5.243   0.434
 4071TIP3   OH212169   3.033   3.388   1.574
 4071TIP3    H112170   3.101   3.332   1.536
 4071TIP3    H212171   2.999   3.438   1.499
 4072TIP3   OH212172   6.843   1.375   2.161
 4072TIP3    H112173   6.907   1.445   2.166
 4072TIP3    H212174   6.844   1.349   2.068
 4073TIP3   OH212175   1.452   3.052   0.671
 4073TIP3    H112176   1.480   3.012   0.754
 4073TIP3    H212177   1.410   2.980   0.623
 4074TIP3   OH212178   6.230   2.130   3.417
 4074TIP3    H112179   6.232   2.038   3.444
 4074TIP3    H212180   6.300   2.136   3.352
 4075TIP3   OH212181   6.395   6.269   1.073
 4075TIP3    H112182   6.389   6.175   1.094
 4075TIP3    H212183   6.326   6.283   1.009
 4076TIP3   OH212184   2.805   0.727   4.134
 4076TIP3    H112185   2.759   0.808   4.158
 4076TIP3    H212186   2.799   0.672   4.211
 4077TIP3   OH212187   4.788   2.786   6.535
 4077TIP3    H112188   4.706   2.738   6.535
 4077TIP3    H212189   4.853   2.723   6.566
 4078TIP3   OH212190   4.696   1.711   1.052
 4078TIP3    H112191   4.762   1.739   1.115
 4078TIP3    H212192   4.704   1.616   1.049
 4079TIP3   OH212193   7.227   0.630   2.733
 4079TIP3    H112194   7.245   0.722   2.717
 4079TIP3    H212195   7.231   0.589   2.647
 4080TIP3   OH212196   3.932   3.887   4.638
 4080TIP3    H112197   3.981   3.812   4.605
 4080TIP3    H212198   3.855   3.848   4.680
 4081TIP3   OH212199   7.077   5.893   5.353
 4081TIP3    H112200   7.133   5.923   5.424
 4081TIP3    H212201   7.128   5.908   5.273
 4082TIP3   OH212202   6.012   5.354   0.869
 4082TIP3    H112203   6.024   5.375   0.776
 4082TIP3    H212204   5.963   5.272   0.868
 4083TIP3   OH212205   4.991   7.018   0.151
 4083TIP3    H112206   5.016   6.991   0.063
 4083TIP3    H212207   5.035   7.102   0.164
 4084TIP3   OH212208   1.666   1.740   6.334
 4084TIP3    H112209   1.758   1.768   6.328
 4084TIP3    H212210   1.633   1.782   6.413
 4085TIP3   OH212211   2.554   0.899   3.660
 4085TIP3    H112212   2.569   0.854   3.744
 4085TIP3    H212213   2.621   0.863   3.602
 4086TIP3   OH212214   7.495   0.220   5.587
 4086TIP3    H112215   7.566   0.278   5.560
 4086TIP3    H212216   7.420   0.249   5.536
 4087TIP3   OH212217   3.809   2.437   3.835
 4087TIP3    H112218   3.891   2.462   3.793
 4087TIP3    H212219   3.741   2.486   3.788
 4088TIP3   OH212220   0.072   7.631   3.128
 4088TIP3    H112221   0.116   7.573   3.190
 4088TIP3    H212222  -0.019   7.631   3.155
 4089TIP3   OH212223   3.855   6.006   1.219
 4089TIP3    H112224   3.823   6.028   1.131
 4089TIP3    H212225   3.785   5.953   1.258
 4090TIP3   OH212226   7.891   0.223   5.067
 4090TIP3    H112227   7.827   0.192   5.131
 4090TIP3    H212228   7.969   0.242   5.119
 4091TIP3   OH212229   2.084   2.108   5.487
 4091TIP3    H112230   2.164   2.059   5.468
 4091TIP3    H212231   2.048   2.129   5.401
 4092TIP3   OH212232   7.285   5.247   0.622
 4092TIP3    H112233   7.323   5.199   0.695
 4092TIP3    H212234   7.199   5.275   0.653
 4093TIP3   OH212235   5.836   4.958   0.074
 4093TIP3    H112236   5.838   5.053   0.068
 4093TIP3    H212237   5.747   4.934   0.047
 4094TIP3   OH212238   2.100   4.413   2.875
 4094TIP3    H112239   2.096   4.329   2.830
 4094TIP3    H212240   2.027   4.410   2.937
 4095TIP3   OH212241   0.902   2.563   2.247
 4095TIP3    H112242   0.886   2.658   2.247
 4095TIP3    H212243   0.862   2.533   2.166
 4096TIP3   OH212244   4.953   3.210   3.740
 4096TIP3    H112245   4.949   3.122   3.701
 4096TIP3    H212246   4.893   3.205   3.815
 4097TIP3   OH212247   1.732   2.505   1.777
 4097TIP3    H112248   1.639   2.499   1.756
 4097TIP3    H212249   1.743   2.593   1.813
 4098TIP3   OH212250   2.516   4.072   2.617
 4098TIP3    H112251   2.507   4.156   2.662
 4098TIP3    H212252   2.468   4.010   2.671
 4099TIP3   OH212253   2.674   5.630   3.907
 4099TIP3    H112254   2.611   5.588   3.848
 4099TIP3    H212255   2.692   5.714   3.866
 4100TIP3   OH212256   0.712   3.569   5.033
 4100TIP3    H112257   0.784   3.632   5.037
 4100TIP3    H212258   0.693   3.548   5.125
 4101TIP3   OH212259   7.085   7.087   1.257
 4101TIP3    H112260   6.998   7.083   1.297
 4101TIP3    H212261   7.080   7.162   1.197
 4102TIP3   OH212262   4.621   6.455   2.163
 4102TIP3    H112263   4.696   6.511   2.183
 4102TIP3    H212264   4.578   6.442   2.248
 4103TIP3   OH212265   0.469   3.457   2.332
 4103TIP3    H112266   0.418   3.377   2.316
 4103TIP3    H212267   0.457   3.509   2.252
 4104TIP3   OH212268   3.771   5.033   0.646
 4104TIP3    H112269   3.712   4.967   0.683
 4104TIP3    H212270   3.745   5.039   0.554
 4105TIP3   OH212271   6.442   4.857   0.660
 4105TIP3    H112272   6.380   4.929   0.646
 4105TIP3    H212273   6.438   4.839   0.754
 4106TIP3   OH212274   1.145   3.403   0.635
 4106TIP3    H112275   1.079   3.402   0.566
 4106TIP3    H212276   1.179   3.314   0.637
 4107TIP3   OH212277   6.181   2.718   5.289
 4107TIP3    H112278   6.092   2.687   5.274
 4107TIP3    H212279   6.218   2.729   5.201
 4108TIP3   OH212280   2.264   1.794   6.534
 4108TIP3    H112281   2.172   1.790   6.558
 4108TIP3    H212282   2.284   1.708   6.499
 4109TIP3   OH212283   5.454   2.991   1.490
 4109TIP3    H112284   5.431   3.036   1.571
 4109TIP3    H212285   5.388   2.922   1.481
 4110TIP3   OH212286   7.828   5.540   0.201
 4110TIP3    H112287   7.847   5.628   0.236
 4110TIP3    H212288   7.908   5.516   0.154
 4111TIP3   OH212289   5.123   6.288   5.609
 4111TIP3    H112290   5.181   6.336   5.549
 4111TIP3    H212291   5.161   6.303   5.696
 4112TIP3   OH212292   5.811   6.571   0.492
 4112TIP3    H112293   5.892   6.544   0.448
 4112TIP3    H212294   5.789   6.655   0.452
 4113TIP3   OH212295   3.848   3.952   0.517
 4113TIP3    H112296   3.778   4.005   0.555
 4113TIP3    H212297   3.852   3.981   0.426
 4114TIP3   OH212298   5.991   0.206   1.735
 4114TIP3    H112299   6.005   0.152   1.812
 4114TIP3    H212300   5.952   0.287   1.769
 4115TIP3   OH212301   0.303   4.327   2.814
 4115TIP3    H112302   0.229   4.289   2.766
 4115TIP3    H212303   0.350   4.252   2.849
 4116TIP3   OH212304   7.079   4.797   0.889
 4116TIP3    H112305   7.125   4.873   0.924
 4116TIP3    H212306   6.990   4.805   0.921
 4117TIP3   OH212307   0.635   2.409   0.657
 4117TIP3    H112308   0.636   2.344   0.728
 4117TIP3    H212309   0.546   2.405   0.623
 4118TIP3   OH212310   7.050   2.606   6.088
 4118TIP3    H112311   7.028   2.549   6.015
 4118TIP3    H212312   7.074   2.547   6.160
 4119TIP3   OH212313   0.675   5.252   2.728
 4119TIP3    H112314   0.687   5.281   2.819
 4119TIP3    H212315   0.760   5.268   2.687
 4120TIP3   OH212316   3.551   3.275   2.492
 4120TIP3    H112317   3.475   3.220   2.475
 4120TIP3    H212318   3.588   3.239   2.573
 4121TIP3   OH212319   0.649   1.114   6.237
 4121TIP3    H112320   0.590   1.039   6.235
 4121TIP3    H212321   0.600   1.184   6.194
 4122TIP3   OH212322   6.181   4.627   2.594
 4122TIP3    H112323   6.236   4.572   2.650
 4122TIP3    H212324   6.125   4.674   2.655
 4123TIP3   OH212325   0.640   0.910   4.117
 4123TIP3    H112326   0.596   0.962   4.184
 4123TIP3    H212327   0.672   0.975   4.054
 4124TIP3   OH212328   4.164   1.206   3.643
 4124TIP3    H112329   4.248   1.192   3.598
 4124TIP3    H212330   4.145   1.299   3.629
 4125TIP3   OH212331   6.503   2.360   5.636
 4125TIP3    H112332   6.416   2.332   5.664
 4125TIP3    H212333   6.529   2.427   5.699
 4126TIP3   OH212334   1.661   3.082   1.192
 4126TIP3    H112335   1.584   3.032   1.163
 4126TIP3    H212336   1.689   3.038   1.272
 4127TIP3   OH212337   0.759   1.351   0.092
 4127TIP3    H112338   0.796   1.337   0.004
 4127TIP3    H212339   0.791   1.437   0.118
 4128TIP3   OH212340   1.357   1.865   6.768
 4128TIP3    H112341   1.316   1.823   6.693
 4128TIP3    H212342   1.293   1.930   6.797
 4129TIP3   OH212343   1.078   3.291   2.163
 4129TIP3    H112344   1.099   3.339   2.083
 4129TIP3    H212345   1.025   3.217   2.133
 4130TIP3   OH212346   4.754   1.452   3.340
 4130TIP3    H112347   4.794   1.397   3.407
 4130TIP3    H212348   4.828   1.502   3.303
 4131TIP3   OH212349   7.815   6.259   6.371
 4131TIP3    H112350   7.817   6.334   6.431
 4131TIP3    H212351   7.722   6.241   6.358
 4132TIP3   OH212352   4.959   2.587   3.665
 4132TIP3    H112353   4.945   2.504   3.620
 4132TIP3    H212354   5.013   2.565   3.741
 4133TIP3   OH212355   7.022   4.857   3.064
 4133TIP3    H112356   7.004   4.766   3.037
 4133TIP3    H212357   7.044   4.901   2.982
 4134TIP3   OH212358   0.656   0.289   1.325
 4134TIP3    H112359   0.749   0.271   1.336
 4134TIP3    H212360   0.620   0.285   1.414
 4135TIP3   OH212361   7.225   2.107   1.041
 4135TIP3    H112362   7.278   2.141   0.969
 4135TIP3    H212363   7.154   2.059   0.998
 4136TIP3   OH212364   6.484   6.718   6.553
 4136TIP3    H112365   6.495   6.664   6.631
 4136TIP3    H212366   6.502   6.808   6.583
 4137TIP3   OH212367   4.935   5.522   5.788
 4137TIP3    H112368   5.017   5.537   5.834
 4137TIP3    H212369   4.960   5.509   5.697
 4138TIP3   OH212370   5.109   7.346   2.368
 4138TIP3    H112371   5.016   7.354   2.347
 4138TIP3    H212372   5.135   7.262   2.330
 4139TIP3   OH212373   5.762   3.420   1.437
 4139TIP3    H112374   5.846   3.440   1.479
 4139TIP3    H212375   5.759   3.478   1.361
 4140TIP3   OH212376   5.726   6.501   1.683
 4140TIP3    H112377   5.749   6.532   1.596
 4140TIP3    H212378   5.678   6.419   1.668
 4141TIP3   OH212379   1.609   0.950   4.835
 4141TIP3    H112380   1.538   0.945   4.772
 4141TIP3    H212381   1.570   0.923   4.919
 4142TIP3   OH212382   0.875   7.533   6.480
 4142TIP3    H112383   0.966   7.549   6.452
 4142TIP3    H212384   0.829   7.613   6.456
 4143TIP3   OH212385   2.575   6.811   0.887
 4143TIP3    H112386   2.532   6.853   0.962
 4143TIP3    H212387   2.645   6.759   0.926
 4144TIP3   OH212388   7.711   2.339   2.805
 4144TIP3    H112389   7.807   2.339   2.805
 4144TIP3    H212390   7.687   2.430   2.822
 4145TIP3   OH212391   1.110   2.679   5.662
 4145TIP3    H112392   1.132   2.585   5.664
 4145TIP3    H212393   1.031   2.684   5.610
 4146TIP3   OH212394   0.940   2.846   0.820
 4146TIP3    H112395   0.971   2.770   0.868
 4146TIP3    H212396   0.851   2.861   0.853
 4147TIP3   OH212397   8.323   1.594   4.231
 4147TIP3    H112398   8.252   1.609   4.293
 4147TIP3    H212399   8.288   1.624   4.147
 4148TIP3   OH212400   1.794   6.114   5.348
 4148TIP3    H112401   1.763   6.203   5.332
 4148TIP3    H212402   1.726   6.058   5.312
 4149TIP3   OH212403   8.178   4.811   2.024
 4149TIP3    H112404   8.201   4.756   2.099
 4149TIP3    H212405   8.137   4.888   2.063
 4150TIP3   OH212406   6.765   2.862   6.598
 4150TIP3    H112407   6.670   2.865   6.614
 4150TIP3    H212408   6.773   2.832   6.508
 4151TIP3   OH212409   1.522   4.363   6.645
 4151TIP3    H112410   1.460   4.297   6.613
 4151TIP3    H212411   1.472   4.445   6.642
 4152TIP3   OH212412   8.131   7.528   3.877
 4152TIP3    H112413   8.143   7.456   3.816
 4152TIP3    H212414   8.055   7.502   3.930
 4153TIP3   OH212415   0.766   0.876   1.350
 4153TIP3    H112416   0.833   0.812   1.328
 4153TIP3    H212417   0.684   0.835   1.321
 4154TIP3   OH212418   4.691   6.788   4.248
 4154TIP3    H112419   4.763   6.726   4.240
 4154TIP3    H212420   4.721   6.867   4.204
 4155TIP3   OH212421   3.843   3.223   0.080
 4155TIP3    H112422   3.854   3.220   0.175
 4155TIP3    H212423   3.814   3.312   0.062
 4156TIP3   OH212424   2.035   2.154   4.084
 4156TIP3    H112425   2.029   2.223   4.017
 4156TIP3    H212426   2.073   2.198   4.160
 4157TIP3   OH212427   2.535   6.430   0.861
 4157TIP3    H112428   2.547   6.476   0.778
 4157TIP3    H212429   2.518   6.340   0.836
 4158TIP3   OH212430   8.167   0.808   1.672
 4158TIP3    H112431   8.168   0.721   1.711
 4158TIP3    H212432   8.242   0.853   1.711
 4159TIP3   OH212433   5.579   0.982   3.719
 4159TIP3    H112434   5.578   1.045   3.647
 4159TIP3    H212435   5.670   0.981   3.749
 4160TIP3   OH212436   3.395   7.065   6.336
 4160TIP3    H112437   3.370   7.080   6.427
 4160TIP3    H212438   3.375   7.147   6.291
 4161TIP3   OH212439   0.486   4.706   2.332
 4161TIP3    H112440   0.488   4.616   2.364
 4161TIP3    H212441   0.452   4.758   2.405
 4162TIP3   OH212442   3.946   4.448   5.708
 4162TIP3    H112443   3.889   4.505   5.657
 4162TIP3    H212444   3.957   4.494   5.792
 4163TIP3   OH212445   2.661   5.176   2.851
 4163TIP3    H112446   2.675   5.106   2.788
 4163TIP3    H212447   2.699   5.254   2.810
 4164TIP3   OH212448   0.042   3.161   5.175
 4164TIP3    H112449   0.134   3.176   5.155
 4164TIP3    H212450   0.031   3.192   5.265
 4165TIP3   OH212451   5.844   3.335   3.940
 4165TIP3    H112452   5.928   3.301   3.972
 4165TIP3    H212453   5.831   3.293   3.855
 4166TIP3   OH212454   2.297   5.361   2.338
 4166TIP3    H112455   2.208   5.337   2.365
 4166TIP3    H212456   2.353   5.293   2.375
 4167TIP3   OH212457   7.921   3.558   3.987
 4167TIP3    H112458   7.874   3.582   4.067
 4167TIP3    H212459   7.989   3.496   4.017
 4168TIP3   OH212460   5.286   2.485   1.999
 4168TIP3    H112461   5.307   2.578   1.989
 4168TIP3    H212462   5.192   2.484   2.018
 4169TIP3   OH212463   5.203   5.170   0.436
 4169TIP3    H112464   5.289   5.139   0.409
 4169TIP3    H212465   5.200   5.262   0.407
 4170TIP3   OH212466   5.089   7.534   6.740
 4170TIP3    H112467   5.112   7.474   6.669
 4170TIP3    H212468   5.007   7.574   6.711
 4171TIP3   OH212469   3.347   0.235   0.743
 4171TIP3    H112470   3.443   0.230   0.748
 4171TIP3    H212471   3.316   0.164   0.799
 4172TIP3   OH212472   3.499   7.241   2.139
 4172TIP3    H112473   3.532   7.300   2.207
 4172TIP3    H212474   3.501   7.154   2.181
 4173TIP3   OH212475   4.018   6.591   2.802
 4173TIP3    H112476   4.110   6.580   2.826
 4173TIP3    H212477   4.007   6.536   2.724
 4174TIP3   OH212478   3.420   4.584   4.641
 4174TIP3    H112479   3.410   4.673   4.673
 4174TIP3    H212480   3.403   4.529   4.718
 4175TIP3   OH212481   8.072   2.200   4.400
 4175TIP3    H112482   8.154   2.168   4.438
 4175TIP3    H212483   8.089   2.292   4.382
 4176TIP3   OH212484   4.378   7.073   1.004
 4176TIP3    H112485   4.441   7.030   1.062
 4176TIP3    H212486   4.319   7.002   0.977
 4177TIP3   OH212487   1.374   6.792   1.521
 4177TIP3    H112488   1.315   6.826   1.589
 4177TIP3    H212489   1.456   6.840   1.534
 4178TIP3   OH212490   7.154   1.273   1.990
 4178TIP3    H112491   7.215   1.257   1.918
 4178TIP3    H212492   7.169   1.364   2.015
 4179TIP3   OH212493   1.768   4.838   4.113
 4179TIP3    H112494   1.853   4.861   4.077
 4179TIP3    H212495   1.769   4.873   4.202
 4180TIP3   OH212496   4.442   7.360   6.598
 4180TIP3    H112497   4.407   7.381   6.684
 4180TIP3    H212498   4.397   7.419   6.538
 4181TIP3   OH212499   2.276   4.716   1.486
 4181TIP3    H112500   2.186   4.720   1.455
 4181TIP3    H212501   2.274   4.657   1.562
 4182TIP3   OH212502   7.432   4.097   0.633
 4182TIP3    H112503   7.340   4.094   0.661
 4182TIP3    H212504   7.450   4.009   0.601
 4183TIP3   OH212505   5.542   7.678   4.955
 4183TIP3    H112506   5.512   7.647   5.040
 4183TIP3    H212507   5.490   7.628   4.892
 4184TIP3   OH212508   6.724   1.330   4.874
 4184TIP3    H112509   6.698   1.417   4.843
 4184TIP3    H212510   6.808   1.344   4.916
 4185TIP3   OH212511   1.994   5.997   0.653
 4185TIP3    H112512   1.969   6.057   0.582
 4185TIP3    H212513   1.964   6.040   0.733
 4186TIP3   OH212514   4.341   6.930   1.765
 4186TIP3    H112515   4.348   6.840   1.796
 4186TIP3    H212516   4.247   6.948   1.764
 4187TIP3   OH212517   0.919   5.352   6.498
 4187TIP3    H112518   0.845   5.408   6.522
 4187TIP3    H212519   0.979   5.359   6.573
 4188TIP3   OH212520   2.625   0.448   0.835
 4188TIP3    H112521   2.649   0.397   0.913
 4188TIP3    H212522   2.589   0.383   0.774
 4189TIP3   OH212523   5.047   3.650   0.616
 4189TIP3    H112524   4.960   3.682   0.592
 4189TIP3    H212525   5.036   3.617   0.705
 4190TIP3   OH212526   6.185   3.657   1.195
 4190TIP3    H112527   6.255   3.712   1.230
 4190TIP3    H212528   6.215   3.568   1.210
 4191TIP3   OH212529   2.942   4.295   6.239
 4191TIP3    H112530   2.932   4.210   6.281
 4191TIP3    H212531   3.023   4.288   6.189
 4192TIP3   OH212532   2.042   2.829   1.290
 4192TIP3    H112533   2.117   2.839   1.348
 4192TIP3    H212534   2.000   2.748   1.318
 4193TIP3   OH212535   6.381   2.141   4.628
 4193TIP3    H112536   6.475   2.131   4.644
 4193TIP3    H212537   6.341   2.136   4.714
 4194TIP3   OH212538   5.209   4.586   1.806
 4194TIP3    H112539   5.129   4.635   1.824
 4194TIP3    H212540   5.208   4.572   1.711
 4195TIP3   OH212541   7.459   1.677   4.792
 4195TIP3    H112542   7.364   1.691   4.787
 4195TIP3    H212543   7.475   1.657   4.884
 4196TIP3   OH212544   3.650   3.016   2.012
 4196TIP3    H112545   3.730   2.995   1.963
 4196TIP3    H212546   3.673   3.096   2.060
 4197TIP3   OH212547   2.794   0.331   2.894
 4197TIP3    H112548   2.885   0.305   2.886
 4197TIP3    H212549   2.779   0.340   2.988
 4198TIP3   OH212550   7.321   0.919   0.632
 4198TIP3    H112551   7.410   0.922   0.599
 4198TIP3    H212552   7.266   0.926   0.554
 4199TIP3   OH212553   6.783   7.331   4.608
 4199TIP3    H112554   6.795   7.403   4.546
 4199TIP3    H212555   6.871   7.299   4.625
 4200TIP3   OH212556   0.593   3.981   6.570
 4200TIP3    H112557   0.661   4.018   6.627
 4200TIP3    H212558   0.512   3.991   6.621
 4201TIP3   OH212559   4.607   4.550   5.461
 4201TIP3    H112560   4.697   4.580   5.472
 4201TIP3    H212561   4.584   4.512   5.546
 4202TIP3   OH212562   0.472   3.259   0.451
 4202TIP3    H112563   0.568   3.256   0.456
 4202TIP3    H212564   0.446   3.167   0.448
 4203TIP3   OH212565   1.302   0.446   6.330
 4203TIP3    H112566   1.255   0.382   6.277
 4203TIP3    H212567   1.267   0.531   6.302
 4204TIP3   OH212568   6.504   1.582   4.339
 4204TIP3    H112569   6.568   1.518   4.307
 4204TIP3    H212570   6.556   1.654   4.373
 4205TIP3   OH212571   0.759   2.253   1.350
 4205TIP3    H112572   0.848   2.254   1.315
 4205TIP3    H212573   0.768   2.289   1.439
 4206TIP3   OH212574   6.192   5.009   5.877
 4206TIP3    H112575   6.212   5.005   5.971
 4206TIP3    H212576   6.124   5.076   5.871
 4207TIP3   OH212577   5.796   3.667   0.104
 4207TIP3    H112578   5.768   3.720   0.029
 4207TIP3    H212579   5.883   3.700   0.126
 4208TIP3   OH212580   7.606   5.514   4.035
 4208TIP3    H112581   7.594   5.531   3.941
 4208TIP3    H212582   7.620   5.601   4.073
 4209TIP3   OH212583   4.740   5.160   2.493
 4209TIP3    H112584   4.736   5.066   2.511
 4209TIP3    H212585   4.650   5.184   2.472
 4210TIP3   OH212586   4.664   3.070   3.312
 4210TIP3    H112587   4.651   2.987   3.358
 4210TIP3    H212588   4.583   3.118   3.325
 4211TIP3   OH212589   4.799   2.062   0.452
 4211TIP3    H112590   4.739   2.022   0.390
 4211TIP3    H212591   4.748   2.071   0.533
 4212TIP3   OH212592   2.269   3.378   0.919
 4212TIP3    H112593   2.290   3.347   0.831
 4212TIP3    H212594   2.341   3.437   0.942
 4213TIP3   OH212595   6.140   7.171   3.230
 4213TIP3    H112596   6.175   7.248   3.274
 4213TIP3    H212597   6.045   7.183   3.233
 4214TIP3   OH212598   6.063   5.943   6.650
 4214TIP3    H112599   6.060   6.008   6.720
 4214TIP3    H212600   5.974   5.905   6.649
 4215TIP3   OH212601   6.702   2.576   6.491
 4215TIP3    H112602   6.616   2.548   6.524
 4215TIP3    H212603   6.757   2.578   6.569
 4216TIP3   OH212604   7.383   1.467   6.045
 4216TIP3    H112605   7.310   1.485   5.985
 4216TIP3    H212606   7.343   1.422   6.119
 4217TIP3   OH212607   6.222   2.801   1.118
 4217TIP3    H112608   6.307   2.766   1.142
 4217TIP3    H212609   6.240   2.859   1.043
 4218TIP3   OH212610   7.289   3.385   4.346
 4218TIP3    H112611   7.203   3.349   4.364
 4218TIP3    H212612   7.306   3.364   4.254
 4219TIP3   OH212613   5.716   4.242   4.237
 4219TIP3    H112614   5.722   4.256   4.143
 4219TIP3    H212615   5.648   4.303   4.266
 4220TIP3   OH212616   5.642   0.578   1.157
 4220TIP3    H112617   5.620   0.620   1.074
 4220TIP3    H212618   5.645   0.485   1.137
 4221TIP3   OH212619   8.055   0.466   1.965
 4221TIP3    H112620   8.004   0.396   2.006
 4221TIP3    H212621   7.989   0.528   1.934
 4222TIP3   OH212622   7.651   5.230   3.367
 4222TIP3    H112623   7.571   5.178   3.371
 4222TIP3    H212624   7.637   5.301   3.429
 4223TIP3   OH212625   6.179  -0.029   2.209
 4223TIP3    H112626   6.104  -0.001   2.156
 4223TIP3    H212627   6.146  -0.031   2.298
 4224TIP3   OH212628   6.938   6.727   5.018
 4224TIP3    H112629   6.855   6.704   4.975
 4224TIP3    H212630   6.919   6.719   5.112
 4225TIP3   OH212631   6.792   2.644   6.760
 4225TIP3    H112632   6.825   2.722   6.715
 4225TIP3    H212633   6.722   2.677   6.817
 4226TIP3   OH212634   2.130   7.107   5.518
 4226TIP3    H112635   2.138   7.140   5.608
 4226TIP3    H212636   2.199   7.042   5.511
 4227TIP3   OH212637   0.343   6.761   6.690
 4227TIP3    H112638   0.422   6.792   6.646
 4227TIP3    H212639   0.374   6.725   6.773
 4228TIP3   OH212640   2.591   3.305   0.969
 4228TIP3    H112641   2.557   3.395   0.964
 4228TIP3    H212642   2.526   3.258   1.021
 4229TIP3   OH212643   5.138   1.953   2.389
 4229TIP3    H112644   5.085   1.941   2.310
 4229TIP3    H212645   5.154   1.865   2.421
 4230TIP3   OH212646   8.249   1.017   2.759
 4230TIP3    H112647   8.343   1.028   2.766
 4230TIP3    H212648   8.230   1.032   2.666
 4231TIP3   OH212649   5.434   7.184   4.445
 4231TIP3    H112650   5.375   7.159   4.515
 4231TIP3    H212651   5.508   7.125   4.453
 4232TIP3   OH212652   8.206   5.874   5.373
 4232TIP3    H112653   8.232   5.807   5.436
 4232TIP3    H212654   8.163   5.825   5.302
 4233TIP3   OH212655   6.358   0.293   5.461
 4233TIP3    H112656   6.300   0.275   5.387
 4233TIP3    H212657   6.445   0.269   5.430
 4234TIP3   OH212658   6.694   5.904   4.861
 4234TIP3    H112659   6.649   5.915   4.777
 4234TIP3    H212660   6.646   5.834   4.905
 4235TIP3   OH212661   1.868   3.742   2.777
 4235TIP3    H112662   1.902   3.777   2.860
 4235TIP3    H212663   1.803   3.807   2.749
 4236TIP3   OH212664   7.271   4.495   2.788
 4236TIP3    H112665   7.297   4.540   2.868
 4236TIP3    H212666   7.332   4.421   2.782
 4237TIP3   OH212667   3.720   1.091   6.714
 4237TIP3    H112668   3.645   1.058   6.765
 4237TIP3    H212669   3.769   1.145   6.776
 4238TIP3   OH212670   4.932   5.669   0.650
 4238TIP3    H112671   4.917   5.744   0.707
 4238TIP3    H212672   4.910   5.593   0.704
 4239TIP3   OH212673   7.632   1.398   2.747
 4239TIP3    H112674   7.597   1.386   2.836
 4239TIP3    H212675   7.722   1.429   2.761
 4240TIP3   OH212676   7.301   5.619   3.238
 4240TIP3    H112677   7.224   5.599   3.185
 4240TIP3    H212678   7.265   5.654   3.320
 4241TIP3   OH212679   1.609   0.463   6.432
 4241TIP3    H112680   1.571   0.381   6.464
 4241TIP3    H212681   1.597   0.459   6.337
 4242TIP3   OH212682   3.568   7.302   5.852
 4242TIP3    H112683   3.634   7.369   5.870
 4242TIP3    H212684   3.580   7.281   5.759
 4243TIP3   OH212685   2.227   7.447   6.208
 4243TIP3    H112686   2.205   7.380   6.144
 4243TIP3    H212687   2.142   7.486   6.232
 4244TIP3   OH212688   2.821   2.566   1.130
 4244TIP3    H112689   2.856   2.523   1.052
 4244TIP3    H212690   2.741   2.518   1.150
 4245TIP3   OH212691   0.576   1.360   2.342
 4245TIP3    H112692   0.536   1.435   2.386
 4245TIP3    H212693   0.632   1.400   2.274
 4246TIP3   OH212694   2.315   4.421   2.054
 4246TIP3    H112695   2.261   4.344   2.071
 4246TIP3    H212696   2.297   4.479   2.128
 4247TIP3   OH212697   8.139   2.059   1.688
 4247TIP3    H112698   8.157   2.026   1.775
 4247TIP3    H212699   8.225   2.077   1.651
 4248TIP3   OH212700   0.070   1.562   2.213
 4248TIP3    H112701   0.024   1.559   2.129
 4248TIP3    H212702   0.162   1.566   2.190
 4249TIP3   OH212703   0.115   6.959   5.764
 4249TIP3    H112704   0.074   6.996   5.686
 4249TIP3    H212705   0.202   7.000   5.767
 4250TIP3   OH212706   7.569   2.607   6.017
 4250TIP3    H112707   7.553   2.559   5.935
 4250TIP3    H212708   7.491   2.591   6.070
 4251TIP3   OH212709   6.729   7.716   5.639
 4251TIP3    H112710   6.771   7.641   5.597
 4251TIP3    H212711   6.657   7.739   5.580
 4252TIP3   OH212712   7.387   1.095   6.363
 4252TIP3    H112713   7.323   1.044   6.412
 4252TIP3    H212714   7.460   1.106   6.424
 4253TIP3   OH212715   7.273   0.513   1.006
 4253TIP3    H112716   7.316   0.567   1.073
 4253TIP3    H212717   7.243   0.435   1.052
 4254TIP3   OH212718   6.796   1.350   5.888
 4254TIP3    H112719   6.711   1.377   5.921
 4254TIP3    H212720   6.855   1.421   5.914
 4255TIP3   OH212721   4.896   5.473   5.004
 4255TIP3    H112722   4.879   5.394   4.953
 4255TIP3    H212723   4.824   5.532   4.982
 4256TIP3   OH212724   5.146   1.819   5.739
 4256TIP3    H112725   5.170   1.729   5.759
 4256TIP3    H212726   5.054   1.826   5.761
 4257TIP3   OH212727   4.451   2.066   0.151
 4257TIP3    H112728   4.489   2.053   0.064
 4257TIP3    H212729   4.444   1.978   0.187
 4258TIP3   OH212730   5.670   4.467   3.774
 4258TIP3    H112731   5.621   4.430   3.699
 4258TIP3    H212732   5.652   4.561   3.770
 4259TIP3   OH212733   5.145   0.118   2.278
 4259TIP3    H112734   5.194   0.183   2.329
 4259TIP3    H212735   5.100   0.064   2.344
 4260TIP3   OH212736   7.696   4.718   1.020
 4260TIP3    H112737   7.704   4.711   0.925
 4260TIP3    H212738   7.624   4.660   1.043
 4261TIP3   OH212739   0.262   4.429   5.441
 4261TIP3    H112740   0.231   4.427   5.350
 4261TIP3    H212741   0.231   4.346   5.478
 4262TIP3   OH212742   0.739   4.101   3.344
 4262TIP3    H112743   0.758   4.172   3.283
 4262TIP3    H212744   0.813   4.102   3.405
 4263TIP3   OH212745   0.283   3.073   5.110
 4263TIP3    H112746   0.233   3.057   5.029
 4263TIP3    H212747   0.361   3.018   5.102
 4264TIP3   OH212748   0.869   6.831   5.491
 4264TIP3    H112749   0.956   6.808   5.524
 4264TIP3    H212750   0.831   6.885   5.561
 4265TIP3   OH212751   7.010   7.458   5.073
 4265TIP3    H112752   7.046   7.447   4.985
 4265TIP3    H212753   7.068   7.406   5.129
 4266TIP3   OH212754   5.788   5.710   0.204
 4266TIP3    H112755   5.880   5.697   0.182
 4266TIP3    H212756   5.786   5.786   0.261
 4267TIP3   OH212757   6.771   4.181   5.514
 4267TIP3    H112758   6.790   4.180   5.608
 4267TIP3    H212759   6.692   4.234   5.505
 4268TIP3   OH212760   6.840   3.799   4.720
 4268TIP3    H112761   6.751   3.810   4.685
 4268TIP3    H212762   6.886   3.748   4.653
 4269TIP3   OH212763   7.600   1.967   2.910
 4269TIP3    H112764   7.523   1.911   2.903
 4269TIP3    H212765   7.575   2.047   2.864
 4270TIP3   OH212766   0.670   3.518   4.029
 4270TIP3    H112767   0.657   3.423   4.032
 4270TIP3    H212768   0.705   3.540   4.115
 4271TIP3   OH212769   0.775   1.909   6.155
 4271TIP3    H112770   0.812   1.998   6.158
 4271TIP3    H212771   0.694   1.919   6.106
 4272TIP3   OH212772   2.795   6.149   2.007
 4272TIP3    H112773   2.753   6.092   2.072
 4272TIP3    H212774   2.754   6.234   2.020
 4273TIP3   OH212775   3.940   2.596   3.255
 4273TIP3    H112776   3.984   2.637   3.180
 4273TIP3    H212777   3.885   2.665   3.292
 4274TIP3   OH212778   1.665   6.229   6.773
 4274TIP3    H112779   1.718   6.153   6.750
 4274TIP3    H212780   1.577   6.206   6.745
 4275TIP3   OH212781   7.054   3.945   6.322
 4275TIP3    H112782   7.139   3.957   6.364
 4275TIP3    H212783   7.067   3.872   6.262
 4276TIP3   OH212784   1.197   1.326   5.058
 4276TIP3    H112785   1.149   1.372   5.127
 4276TIP3    H212786   1.262   1.390   5.027
 4277TIP3   OH212787   2.574   7.430   0.795
 4277TIP3    H112788   2.626   7.458   0.870
 4277TIP3    H212789   2.507   7.372   0.832
 4278TIP3   OH212790   3.210   2.159   2.335
 4278TIP3    H112791   3.198   2.137   2.243
 4278TIP3    H212792   3.263   2.087   2.370
 4279TIP3   OH212793   4.937   5.701   3.435
 4279TIP3    H112794   5.002   5.653   3.384
 4279TIP3    H212795   4.881   5.633   3.473
 4280TIP3   OH212796   3.824   0.525   5.316
 4280TIP3    H112797   3.841   0.481   5.234
 4280TIP3    H212798   3.910   0.533   5.358
 4281TIP3   OH212799   6.305   2.141   3.684
 4281TIP3    H112800   6.224   2.167   3.730
 4281TIP3    H212801   6.288   2.165   3.593
 4282TIP3   OH212802   6.707   4.863   0.024
 4282TIP3    H112803   6.702   4.839   0.116
 4282TIP3    H212804   6.617   4.863  -0.006
 4283TIP3   OH212805   7.323   1.248   1.774
 4283TIP3    H112806   7.411   1.245   1.813
 4283TIP3    H212807   7.307   1.342   1.759
 4284TIP3   OH212808   4.180   3.219   2.685
 4284TIP3    H112809   4.158   3.163   2.610
 4284TIP3    H212810   4.238   3.165   2.739
 4285TIP3   OH212811   8.200   4.690   5.641
 4285TIP3    H112812   8.169   4.778   5.622
 4285TIP3    H212813   8.142   4.633   5.590
 4286TIP3   OH212814   3.959   5.938   0.881
 4286TIP3    H112815   3.926   6.021   0.847
 4286TIP3    H212816   3.887   5.903   0.933
 4287TIP3   OH212817   8.164   1.932   0.836
 4287TIP3    H112818   8.212   1.910   0.755
 4287TIP3    H212819   8.088   1.874   0.835
 4288TIP3   OH212820   6.106   7.679   2.189
 4288TIP3    H112821   6.134   7.770   2.200
 4288TIP3    H212822   6.181   7.636   2.148
 4289TIP3   OH212823   0.205   2.442   4.697
 4289TIP3    H112824   0.187   2.523   4.744
 4289TIP3    H212825   0.147   2.445   4.621
 4290TIP3   OH212826   3.897   6.127   6.276
 4290TIP3    H112827   3.854   6.059   6.327
 4290TIP3    H212828   3.827   6.188   6.253
 4291TIP3   OH212829   6.754   3.190   2.216
 4291TIP3    H112830   6.738   3.198   2.311
 4291TIP3    H212831   6.810   3.265   2.195
 4292TIP3   OH212832   7.722   0.522   2.463
 4292TIP3    H112833   7.699   0.514   2.371
 4292TIP3    H212834   7.800   0.577   2.464
 4293TIP3   OH212835   0.901   5.825   4.241
 4293TIP3    H112836   0.965   5.890   4.212
 4293TIP3    H212837   0.944   5.741   4.226
 4294TIP3   OH212838   0.242   6.966   3.388
 4294TIP3    H112839   0.265   6.931   3.301
 4294TIP3    H212840   0.244   7.061   3.377
 4295TIP3   OH212841   7.173   4.121   0.702
 4295TIP3    H112842   7.150   4.072   0.781
 4295TIP3    H212843   7.136   4.069   0.630
 4296TIP3   OH212844   7.077   7.314   4.583
 4296TIP3    H112845   7.075   7.396   4.633
 4296TIP3    H212846   7.126   7.336   4.504
 4297TIP3   OH212847   0.567   4.764   0.192
 4297TIP3    H112848   0.527   4.687   0.151
 4297TIP3    H212849   0.628   4.728   0.256
 4298TIP3   OH212850   1.837   5.227   6.713
 4298TIP3    H112851   1.796   5.291   6.772
 4298TIP3    H212852   1.783   5.230   6.634
 4299TIP3   OH212853   4.370   3.177   0.119
 4299TIP3    H112854   4.421   3.106   0.081
 4299TIP3    H212855   4.381   3.251   0.059
 4300TIP3   OH212856   5.297   6.953   0.890
 4300TIP3    H112857   5.219   7.005   0.913
 4300TIP3    H212858   5.303   6.888   0.959
 4301TIP3   OH212859   0.421   3.904   4.670
 4301TIP3    H112860   0.488   3.935   4.608
 4301TIP3    H212861   0.471   3.869   4.743
 4302TIP3   OH212862   8.292   1.830   4.766
 4302TIP3    H112863   8.233   1.800   4.834
 4302TIP3    H212864   8.362   1.764   4.763
 4303TIP3   OH212865   7.060   6.635   0.613
 4303TIP3    H112866   7.022   6.695   0.677
 4303TIP3    H212867   7.076   6.688   0.536
 4304TIP3   OH212868   4.512   1.790   5.422
 4304TIP3    H112869   4.504   1.730   5.497
 4304TIP3    H212870   4.423   1.800   5.389
 4305TIP3   OH212871   2.585   6.160   0.829
 4305TIP3    H112872   2.679   6.142   0.820
 4305TIP3    H212873   2.553   6.088   0.885
 4306TIP3   OH212874   6.172   1.692   3.170
 4306TIP3    H112875   6.111   1.640   3.117
 4306TIP3    H212876   6.116   1.742   3.229
 4307TIP3   OH212877   1.896   0.225   0.091
 4307TIP3    H112878   1.939   0.146   0.124
 4307TIP3    H212879   1.804   0.213   0.114
 4308TIP3   OH212880   7.330   4.584   1.398
 4308TIP3    H112881   7.422   4.572   1.375
 4308TIP3    H212882   7.328   4.586   1.493
 4309TIP3   OH212883   0.223   1.739   0.800
 4309TIP3    H112884   0.175   1.773   0.875
 4309TIP3    H212885   0.258   1.655   0.829
 4310TIP3   OH212886   5.169   6.643   6.112
 4310TIP3    H112887   5.213   6.728   6.118
 4310TIP3    H212888   5.119   6.646   6.031
 4311TIP3   OH212889   5.718   0.208   4.744
 4311TIP3    H112890   5.637   0.258   4.754
 4311TIP3    H212891   5.704   0.130   4.798
 4312TIP3   OH212892   2.308   3.869   5.767
 4312TIP3    H112893   2.397   3.863   5.801
 4312TIP3    H212894   2.317   3.849   5.673
 4313TIP3   OH212895   2.549   3.205   0.259
 4313TIP3    H112896   2.641   3.194   0.284
 4313TIP3    H212897   2.511   3.118   0.268
 4314TIP3   OH212898   3.923   7.746   3.392
 4314TIP3    H112899   3.987   7.777   3.456
 4314TIP3    H212900   3.975   7.716   3.318
 4315TIP3   OH212901   5.631   3.006   5.634
 4315TIP3    H112902   5.656   2.921   5.598
 4315TIP3    H212903   5.540   2.995   5.661
 4316TIP3   OH212904   6.979   2.123   2.933
 4316TIP3    H112905   6.980   2.183   2.859
 4316TIP3    H212906   6.926   2.048   2.904
 4317TIP3   OH212907   0.406   2.082   4.882
 4317TIP3    H112908   0.453   2.007   4.845
 4317TIP3    H212909   0.420   2.075   4.976
 4318TIP3   OH212910   2.927   5.440   3.607
 4318TIP3    H112911   3.005   5.454   3.661
 4318TIP3    H212912   2.889   5.358   3.639
 4319TIP3   OH212913   7.482   3.751   5.218
 4319TIP3    H112914   7.394   3.721   5.242
 4319TIP3    H212915   7.540   3.693   5.267
 4320TIP3   OH212916   3.013   5.480   6.436
 4320TIP3    H112917   2.991   5.387   6.445
 4320TIP3    H212918   2.932   5.526   6.458
 4321TIP3   OH212919   2.922   3.492   6.750
 4321TIP3    H112920   2.960   3.413   6.787
 4321TIP3    H212921   2.887   3.464   6.665
 4322TIP3   OH212922   7.863   2.318   0.262
 4322TIP3    H112923   7.946   2.364   0.250
 4322TIP3    H212924   7.829   2.305   0.174
 4323TIP3   OH212925   7.579   0.335   1.533
 4323TIP3    H112926   7.642   0.356   1.601
 4323TIP3    H212927   7.612   0.254   1.493
 4324TIP3   OH212928   2.839   4.888   0.689
 4324TIP3    H112929   2.908   4.934   0.738
 4324TIP3    H212930   2.839   4.930   0.603
 4325TIP3   OH212931   6.587   1.619   5.714
 4325TIP3    H112932   6.568   1.712   5.702
 4325TIP3    H212933   6.648   1.617   5.788
 4326TIP3   OH212934   3.650   5.658   1.724
 4326TIP3    H112935   3.667   5.714   1.799
 4326TIP3    H212936   3.707   5.692   1.655
 4327TIP3   OH212937   8.125   2.514   4.818
 4327TIP3    H112938   8.110   2.420   4.821
 4327TIP3    H212939   8.195   2.529   4.882
 4328TIP3   OH212940   4.377   1.807   4.803
 4328TIP3    H112941   4.420   1.731   4.842
 4328TIP3    H212942   4.407   1.881   4.856
 4329TIP3   OH212943   3.694   2.092   0.372
 4329TIP3    H112944   3.685   2.012   0.320
 4329TIP3    H212945   3.788   2.108   0.375
 4330TIP3   OH212946   5.119   3.230   0.957
 4330TIP3    H112947   5.093   3.169   0.888
 4330TIP3    H212948   5.110   3.180   1.039
 4331TIP3   OH212949   2.404   4.802   0.262
 4331TIP3    H112950   2.360   4.817   0.179
 4331TIP3    H212951   2.368   4.869   0.320
 4332TIP3   OH212952   1.126   3.931   0.138
 4332TIP3    H112953   1.086   3.963   0.057
 4332TIP3    H212954   1.052   3.916   0.197
 4333TIP3   OH212955   3.248   6.112   5.553
 4333TIP3    H112956   3.316   6.125   5.487
 4333TIP3    H212957   3.166   6.123   5.504
 4334TIP3   OH212958   4.929   1.070   2.675
 4334TIP3    H112959   4.870   1.145   2.664
 4334TIP3    H212960   5.017   1.107   2.672
 4335TIP3   OH212961   4.168   5.108   1.861
 4335TIP3    H112962   4.215   5.143   1.937
 4335TIP3    H212963   4.075   5.112   1.886
 4336TIP3   OH212964   5.320   2.216   1.949
 4336TIP3    H112965   5.341   2.301   1.986
 4336TIP3    H212966   5.248   2.234   1.888
 4337TIP3   OH212967   4.182   2.841   6.328
 4337TIP3    H112968   4.101   2.795   6.304
 4337TIP3    H212969   4.251   2.794   6.280
 4338TIP3   OH212970   3.901   6.230   0.040
 4338TIP3    H112971   3.844   6.236   0.117
 4338TIP3    H212972   3.846   6.259  -0.032
 4339TIP3   OH212973   2.583   5.257   1.391
 4339TIP3    H112974   2.563   5.175   1.346
 4339TIP3    H212975   2.666   5.241   1.435
 4340TIP3   OH212976   2.026   3.395   4.088
 4340TIP3    H112977   2.008   3.440   4.006
 4340TIP3    H212978   2.037   3.464   4.152
 4341TIP3   OH212979   8.353   3.121   5.987
 4341TIP3    H112980   8.276   3.111   5.931
 4341TIP3    H212981   8.428   3.109   5.928
 4342TIP3   OH212982   5.749   0.367   6.339
 4342TIP3    H112983   5.830   0.415   6.357
 4342TIP3    H212984   5.703   0.421   6.275
 4343TIP3   OH212985   3.898   2.847   4.840
 4343TIP3    H112986   3.873   2.927   4.886
 4343TIP3    H212987   3.835   2.782   4.871
 4344TIP3   OH212988   1.140   4.191   5.590
 4344TIP3    H112989   1.217   4.174   5.645
 4344TIP3    H212990   1.141   4.286   5.576
 4345TIP3   OH212991   5.592   6.318   5.852
 4345TIP3    H112992   5.529   6.249   5.871
 4345TIP3    H212993   5.605   6.362   5.937
 4346TIP3   OH212994   2.221   2.602   2.442
 4346TIP3    H112995   2.233   2.508   2.425
 4346TIP3    H212996   2.306   2.631   2.474
 4347TIP3   OH212997   6.181   6.040   6.395
 4347TIP3    H112998   6.100   6.090   6.389
 4347TIP3    H212999   6.165   5.978   6.467
 4348TIP3   OH213000   5.291   6.569   2.131
 4348TIP3    H113001   5.353   6.508   2.092
 4348TIP3    H213002   5.213   6.563   2.075
 4349TIP3   OH213003   6.207   2.144   0.190
 4349TIP3    H113004   6.146   2.172   0.123
 4349TIP3    H213005   6.195   2.208   0.261
 4350TIP3   OH213006   7.762   5.113   4.927
 4350TIP3    H113007   7.694   5.170   4.964
 4350TIP3    H213008   7.841   5.168   4.927
 4351TIP3   OH213009   4.740   3.027   4.646
 4351TIP3    H113010   4.698   2.950   4.685
 4351TIP3    H213011   4.686   3.047   4.569
 4352TIP3   OH213012   5.401   1.738   6.214
 4352TIP3    H113013   5.407   1.821   6.262
 4352TIP3    H213014   5.315   1.740   6.173
 4353TIP3   OH213015   4.886  -0.026   6.736
 4353TIP3    H113016   4.851   0.010   6.818
 4353TIP3    H213017   4.876   0.045   6.673
 4354TIP3   OH213018   1.267   4.742   1.187
 4354TIP3    H113019   1.283   4.836   1.190
 4354TIP3    H213020   1.336   4.707   1.130
 4355TIP3   OH213021   8.249   4.640   5.911
 4355TIP3    H113022   8.265   4.675   5.824
 4355TIP3    H213023   8.331   4.656   5.959
 4356TIP3   OH213024   3.898   3.091   4.967
 4356TIP3    H113025   3.914   3.096   5.061
 4356TIP3    H213026   3.954   3.160   4.930
 4357TIP3   OH213027   6.691   2.184   6.621
 4357TIP3    H113028   6.741   2.246   6.567
 4357TIP3    H213029   6.687   2.225   6.707
 4358TIP3   OH213030   6.737   6.153   3.756
 4358TIP3    H113031   6.823   6.110   3.758
 4358TIP3    H213032   6.679   6.087   3.718
 4359TIP3   OH213033   0.462   2.123   0.272
 4359TIP3    H113034   0.498   2.149   0.357
 4359TIP3    H213035   0.431   2.205   0.233
 4360TIP3   OH213036   5.771   5.905   0.378
 4360TIP3    H113037   5.830   5.973   0.345
 4360TIP3    H213038   5.806   5.883   0.464
 4361TIP3   OH213039   3.170   5.893   3.641
 4361TIP3    H113040   3.122   5.975   3.632
 4361TIP3    H213041   3.213   5.900   3.727
 4362TIP3   OH213042   4.225   7.140   1.548
 4362TIP3    H113043   4.172   7.097   1.480
 4362TIP3    H213044   4.161   7.169   1.613
 4363TIP3   OH213045   1.235   7.783   3.220
 4363TIP3    H113046   1.313   7.746   3.262
 4363TIP3    H213047   1.263   7.802   3.131
 4364TIP3   OH213048   2.290   1.643   5.098
 4364TIP3    H113049   2.366   1.633   5.156
 4364TIP3    H213050   2.235   1.708   5.142
 4365TIP3   OH213051   3.571   4.215   2.349
 4365TIP3    H113052   3.548   4.152   2.280
 4365TIP3    H213053   3.605   4.161   2.420
 4366TIP3   OH213054   3.827   2.580   0.772
 4366TIP3    H113055   3.817   2.647   0.705
 4366TIP3    H213056   3.833   2.629   0.854
 4367TIP3   OH213057   0.989   5.049   2.881
 4367TIP3    H113058   0.901   5.014   2.893
 4367TIP3    H213059   1.043   4.973   2.859
 4368TIP3   OH213060   7.982   4.554   1.955
 4368TIP3    H113061   8.008   4.470   1.915
 4368TIP3    H213062   8.044   4.617   1.919
 4369TIP3   OH213063   5.479   5.740   4.374
 4369TIP3    H113064   5.411   5.773   4.316
 4369TIP3    H213065   5.547   5.707   4.315
 4370TIP3   OH213066   1.607   6.908   2.758
 4370TIP3    H113067   1.587   6.971   2.689
 4370TIP3    H213068   1.622   6.962   2.836
 4371TIP3   OH213069   1.090   0.969   1.216
 4371TIP3    H113070   1.129   0.928   1.138
 4371TIP3    H213071   1.033   0.901   1.253
 4372TIP3   OH213072   6.756   5.314   4.023
 4372TIP3    H113073   6.684   5.309   4.086
 4372TIP3    H213074   6.717   5.349   3.943
 4373TIP3   OH213075   4.999   3.160   5.815
 4373TIP3    H113076   4.938   3.088   5.799
 4373TIP3    H213077   5.000   3.171   5.910
 4374TIP3   OH213078   3.271   1.272   5.987
 4374TIP3    H113079   3.186   1.302   5.953
 4374TIP3    H213080   3.305   1.214   5.919
 4375TIP3   OH213081   3.375   0.460   4.603
 4375TIP3    H113082   3.423   0.456   4.520
 4375TIP3    H213083   3.285   0.437   4.581
 4376TIP3   OH213084   0.803   6.963   3.951
 4376TIP3    H113085   0.728   6.946   3.895
 4376TIP3    H213086   0.879   6.942   3.896
 4377TIP3   OH213087   4.696   3.794   5.653
 4377TIP3    H113088   4.766   3.729   5.643
 4377TIP3    H213089   4.737   3.866   5.700
 4378TIP3   OH213090   2.038   1.902   5.856
 4378TIP3    H113091   2.104   1.841   5.823
 4378TIP3    H213092   1.978   1.847   5.907
 4379TIP3   OH213093   1.542   7.845   1.774
 4379TIP3    H113094   1.597   7.792   1.717
 4379TIP3    H213095   1.555   7.809   1.862
 4380TIP3   OH213096   0.129   6.706   1.233
 4380TIP3    H113097   0.194   6.706   1.164
 4380TIP3    H213098   0.140   6.792   1.275
 4381TIP3   OH213099   0.697   5.848   0.376
 4381TIP3    H113100   0.685   5.800   0.458
 4381TIP3    H213101   0.726   5.935   0.403
 4382TIP3   OH213102   5.460   4.847   4.780
 4382TIP3    H113103   5.419   4.917   4.832
 4382TIP3    H213104   5.551   4.845   4.810
 4383TIP3   OH213105   0.426   0.182   3.309
 4383TIP3    H113106   0.520   0.172   3.321
 4383TIP3    H213107   0.389   0.098   3.336
 4384TIP3   OH213108   4.096   1.029   2.550
 4384TIP3    H113109   4.012   1.076   2.555
 4384TIP3    H213110   4.133   1.055   2.466
 4385TIP3   OH213111   6.233   2.499   5.466
 4385TIP3    H113112   6.311   2.555   5.457
 4385TIP3    H213113   6.161   2.555   5.438
 4386TIP3   OH213114   1.978   1.378   3.524
 4386TIP3    H113115   1.998   1.353   3.433
 4386TIP3    H213116   1.897   1.330   3.544
 4387TIP3   OH213117   3.103   1.589   3.304
 4387TIP3    H113118   3.014   1.620   3.320
 4387TIP3    H213119   3.097   1.494   3.315
 4388TIP3   OH213120   3.237   7.360   3.700
 4388TIP3    H113121   3.228   7.309   3.620
 4388TIP3    H213122   3.189   7.441   3.682
 4389TIP3   OH213123   2.835   1.294   3.157
 4389TIP3    H113124   2.921   1.297   3.198
 4389TIP3    H213125   2.782   1.239   3.215
 4390TIP3   OH213126   3.622   2.335   4.467
 4390TIP3    H113127   3.551   2.350   4.404
 4390TIP3    H213128   3.689   2.288   4.417
 4391TIP3   OH213129   1.190   4.962   1.604
 4391TIP3    H113130   1.136   5.040   1.616
 4391TIP3    H213131   1.142   4.892   1.649
 4392TIP3   OH213132   1.138   3.893   3.863
 4392TIP3    H113133   1.105   3.982   3.847
 4392TIP3    H213134   1.192   3.901   3.941
 4393TIP3   OH213135   0.509   5.076   1.279
 4393TIP3    H113136   0.598   5.108   1.298
 4393TIP3    H213137   0.477   5.135   1.211
 4394TIP3   OH213138   4.797   5.436   3.281
 4394TIP3    H113139   4.843   5.510   3.240
 4394TIP3    H213140   4.716   5.428   3.231
 4395TIP3   OH213141   3.682   7.027   4.249
 4395TIP3    H113142   3.643   7.102   4.203
 4395TIP3    H213143   3.755   7.064   4.297
 4396TIP3   OH213144   4.461   1.628   5.014
 4396TIP3    H113145   4.500   1.580   5.088
 4396TIP3    H213146   4.372   1.648   5.044
 4397TIP3   OH213147   2.418   3.808   0.806
 4397TIP3    H113148   2.473   3.885   0.789
 4397TIP3    H213149   2.397   3.775   0.719
 4398TIP3   OH213150   7.204   4.273   6.177
 4398TIP3    H113151   7.288   4.231   6.196
 4398TIP3    H213152   7.167   4.293   6.263
 4399TIP3   OH213153   6.741   2.782   2.218
 4399TIP3    H113154   6.755   2.707   2.276
 4399TIP3    H213155   6.780   2.755   2.135
 4400TIP3   OH213156   1.478   3.876   4.948
 4400TIP3    H113157   1.507   3.924   5.025
 4400TIP3    H213158   1.554   3.825   4.921
 4401TIP3   OH213159   7.643   5.477   2.500
 4401TIP3    H113160   7.608   5.405   2.552
 4401TIP3    H213161   7.667   5.436   2.416
 4402TIP3   OH213162   2.767   7.420   6.709
 4402TIP3    H113163   2.801   7.330   6.716
 4402TIP3    H213164   2.729   7.424   6.621
 4403TIP3   OH213165   5.712   0.180   3.610
 4403TIP3    H113166   5.774   0.208   3.678
 4403TIP3    H213167   5.762   0.185   3.528
 4404TIP3   OH213168   6.200   2.434   0.825
 4404TIP3    H113169   6.250   2.509   0.858
 4404TIP3    H213170   6.123   2.431   0.882
 4405TIP3   OH213171   1.779   6.037   3.569
 4405TIP3    H113172   1.727   6.114   3.592
 4405TIP3    H213173   1.730   5.995   3.498
 4406TIP3   OH213174   4.805   2.380   0.061
 4406TIP3    H113175   4.813   2.464   0.016
 4406TIP3    H213176   4.741   2.396   0.131
 4407TIP3   OH213177   1.738   1.878   2.774
 4407TIP3    H113178   1.750   1.821   2.850
 4407TIP3    H213179   1.815   1.934   2.773
 4408TIP3   OH213180   2.661   7.158   5.674
 4408TIP3    H113181   2.704   7.088   5.625
 4408TIP3    H213182   2.726   7.187   5.738
 4409TIP3   OH213183   8.115   5.010   3.976
 4409TIP3    H113184   8.122   4.947   4.049
 4409TIP3    H213185   8.170   4.972   3.907
 4410TIP3   OH213186   1.896   3.396   2.411
 4410TIP3    H113187   1.916   3.426   2.500
 4410TIP3    H213188   1.960   3.327   2.394
 4411TIP3   OH213189   0.385   5.043   5.178
 4411TIP3    H113190   0.449   5.082   5.119
 4411TIP3    H213191   0.389   4.949   5.160
 4412TIP3   OH213192   2.015   2.307   5.752
 4412TIP3    H113193   1.988   2.244   5.685
 4412TIP3    H213194   2.039   2.252   5.827
 4413TIP3   OH213195   3.967   0.639   6.212
 4413TIP3    H113196   3.983   0.601   6.126
 4413TIP3    H213197   3.936   0.565   6.265
 4414TIP3   OH213198   2.881   6.767   6.608
 4414TIP3    H113199   2.899   6.860   6.617
 4414TIP3    H213200   2.807   6.750   6.666
 4415TIP3   OH213201   1.267   5.788   4.755
 4415TIP3    H113202   1.174   5.796   4.733
 4415TIP3    H213203   1.311   5.850   4.697
 4416TIP3   OH213204   5.520   6.001   0.746
 4416TIP3    H113205   5.573   5.948   0.805
 4416TIP3    H213206   5.471   5.937   0.694
 4417TIP3   OH213207   5.042   3.866   4.069
 4417TIP3    H113208   4.950   3.886   4.084
 4417TIP3    H213209   5.090   3.941   4.105
 4418TIP3   OH213210   0.589   2.611   1.903
 4418TIP3    H113211   0.568   2.690   1.952
 4418TIP3    H213212   0.506   2.582   1.866
 4419TIP3   OH213213   5.528   4.854   6.505
 4419TIP3    H113214   5.576   4.937   6.510
 4419TIP3    H213215   5.596   4.787   6.497
 4420TIP3   OH213216   2.030   6.291   6.579
 4420TIP3    H113217   2.118   6.255   6.570
 4420TIP3    H213218   1.975   6.214   6.598
 4421TIP3   OH213219   5.746   3.278   5.601
 4421TIP3    H113220   5.801   3.312   5.672
 4421TIP3    H213221   5.733   3.186   5.623
 4422TIP3   OH213222   2.782   7.400   4.491
 4422TIP3    H113223   2.832   7.451   4.428
 4422TIP3    H213224   2.730   7.340   4.437
 4423TIP3   OH213225   0.171   6.282   6.234
 4423TIP3    H113226   0.174   6.354   6.171
 4423TIP3    H213227   0.101   6.305   6.294
 4424TIP3   OH213228   7.990   1.429   1.452
 4424TIP3    H113229   8.003   1.524   1.457
 4424TIP3    H213230   8.078   1.393   1.460
 4425TIP3   OH213231   5.923   0.434   5.874
 4425TIP3    H113232   5.882   0.363   5.924
 4425TIP3    H213233   6.014   0.436   5.904
 4426TIP3   OH213234   3.877   2.406   5.172
 4426TIP3    H113235   3.864   2.433   5.263
 4426TIP3    H213236   3.789   2.399   5.136
 4427TIP3   OH213237   4.101   5.236   1.255
 4427TIP3    H113238   4.121   5.258   1.164
 4427TIP3    H213239   4.024   5.180   1.250
 4428TIP3   OH213240   4.846   3.163   1.834
 4428TIP3    H113241   4.904   3.192   1.764
 4428TIP3    H213242   4.809   3.081   1.802
 4429TIP3   OH213243   1.125   0.123   5.228
 4429TIP3    H113244   1.092   0.212   5.214
 4429TIP3    H213245   1.219   0.134   5.242
 4430TIP3   OH213246   6.247   3.423   5.260
 4430TIP3    H113247   6.183   3.493   5.275
 4430TIP3    H213248   6.317   3.440   5.323
 4431TIP3   OH213249   0.090   0.763   2.070
 4431TIP3    H113250   0.155   0.703   2.105
 4431TIP3    H213251   0.013   0.750   2.125
 4432TIP3   OH213252   4.301   3.101   5.759
 4432TIP3    H113253   4.379   3.045   5.760
 4432TIP3    H213254   4.320   3.168   5.693
 4433TIP3   OH213255   1.108   7.380   4.357
 4433TIP3    H113256   1.113   7.462   4.308
 4433TIP3    H213257   1.150   7.398   4.440
 4434TIP3   OH213258   1.576   1.869   6.594
 4434TIP3    H113259   1.585   1.963   6.580
 4434TIP3    H213260   1.489   1.858   6.631
 4435TIP3   OH213261   0.314   0.272   3.769
 4435TIP3    H113262   0.335   0.362   3.747
 4435TIP3    H213263   0.282   0.275   3.859
 4436TIP3   OH213264   6.678   0.517   1.714
 4436TIP3    H113265   6.584   0.509   1.730
 4436TIP3    H213266   6.709   0.427   1.704
 4437TIP3   OH213267   6.651   6.490   5.480
 4437TIP3    H113268   6.590   6.534   5.421
 4437TIP3    H213269   6.708   6.560   5.512
 4438TIP3   OH213270   6.219   0.552   3.005
 4438TIP3    H113271   6.168   0.481   3.044
 4438TIP3    H213272   6.290   0.508   2.959
 4439TIP3   OH213273   0.327   3.279   2.788
 4439TIP3    H113274   0.328   3.239   2.700
 4439TIP3    H213275   0.412   3.257   2.825
 4440TIP3   OH213276   1.195   6.279   4.925
 4440TIP3    H113277   1.221   6.372   4.921
 4440TIP3    H213278   1.219   6.244   4.840
 4441TIP3   OH213279   5.236   3.989   4.365
 4441TIP3    H113280   5.205   3.904   4.395
 4441TIP3    H213281   5.304   4.014   4.427
 4442TIP3   OH213282   3.724   6.471   2.253
 4442TIP3    H113283   3.722   6.451   2.346
 4442TIP3    H213284   3.656   6.536   2.240
 4443TIP3   OH213285   7.675   6.672   1.629
 4443TIP3    H113286   7.730   6.728   1.575
 4443TIP3    H213287   7.652   6.726   1.704
 4444TIP3   OH213288   6.726   4.825   4.129
 4444TIP3    H113289   6.810   4.800   4.167
 4444TIP3    H213290   6.729   4.921   4.127
 4445TIP3   OH213291   6.937   2.729   5.683
 4445TIP3    H113292   6.977   2.792   5.743
 4445TIP3    H213293   6.974   2.644   5.708
 4446TIP3   OH213294   4.119   7.675   2.212
 4446TIP3    H113295   4.123   7.616   2.137
 4446TIP3    H213296   4.208   7.676   2.247
 4447TIP3   OH213297   7.300   6.219   4.703
 4447TIP3    H113298   7.361   6.276   4.750
 4447TIP3    H213299   7.239   6.279   4.661
 4448TIP3   OH213300   4.537   3.859   3.416
 4448TIP3    H113301   4.616   3.805   3.408
 4448TIP3    H213302   4.469   3.807   3.373
 4449TIP3   OH213303   5.079   4.380   0.024
 4449TIP3    H113304   5.133   4.302   0.040
 4449TIP3    H213305   4.999   4.364   0.074
 4450TIP3   OH213306   7.503   2.180   2.761
 4450TIP3    H113307   7.580   2.238   2.766
 4450TIP3    H213308   7.443   2.215   2.827
 4451TIP3   OH213309   1.397   4.675   2.310
 4451TIP3    H113310   1.449   4.714   2.240
 4451TIP3    H213311   1.402   4.580   2.294
 4452TIP3   OH213312   1.934   0.370   0.911
 4452TIP3    H113313   1.963   0.324   0.990
 4452TIP3    H213314   1.862   0.426   0.941
 4453TIP3   OH213315   2.922   6.883   4.919
 4453TIP3    H113316   2.834   6.921   4.910
 4453TIP3    H213317   2.970   6.916   4.843
 4454TIP3   OH213318   8.216   4.965   5.612
 4454TIP3    H113319   8.145   5.029   5.609
 4454TIP3    H213320   8.293   5.015   5.638
 4455TIP3   OH213321   7.335   2.860   1.119
 4455TIP3    H113322   7.314   2.936   1.065
 4455TIP3    H213323   7.314   2.785   1.064
 4456TIP3   OH213324   0.650   2.565   0.985
 4456TIP3    H113325   0.570   2.517   1.009
 4456TIP3    H213326   0.638   2.652   1.023
 4457TIP3   OH213327   1.628   6.948   5.891
 4457TIP3    H113328   1.686   7.024   5.891
 4457TIP3    H213329   1.686   6.873   5.907
 4458TIP3   OH213330   6.210   5.586   2.489
 4458TIP3    H113331   6.115   5.589   2.498
 4458TIP3    H213332   6.235   5.677   2.474
 4459TIP3   OH213333   6.297   7.623   3.131
 4459TIP3    H113334   6.341   7.587   3.054
 4459TIP3    H213335   6.267   7.709   3.104
 4460TIP3   OH213336   4.503   6.518   5.414
 4460TIP3    H113337   4.543   6.580   5.475
 4460TIP3    H213338   4.458   6.573   5.350
 4461TIP3   OH213339   3.603   7.552   4.429
 4461TIP3    H113340   3.677   7.504   4.393
 4461TIP3    H213341   3.603   7.530   4.522
 4462TIP3   OH213342   2.766   5.368   2.690
 4462TIP3    H113343   2.779   5.456   2.727
 4462TIP3    H213344   2.853   5.342   2.661
 4463TIP3   OH213345   8.111   0.990   5.602
 4463TIP3    H113346   8.176   0.928   5.636
 4463TIP3    H213347   8.143   1.013   5.514
 4464TIP3   OH213348   2.584   4.214   4.387
 4464TIP3    H113349   2.632   4.294   4.405
 4464TIP3    H213350   2.523   4.206   4.460
 4465TIP3   OH213351   1.509   4.958   4.076
 4465TIP3    H113352   1.591   4.923   4.111
 4465TIP3    H213353   1.477   4.889   4.017
 4466TIP3   OH213354   4.985   0.663   5.394
 4466TIP3    H113355   4.947   0.742   5.434
 4466TIP3    H213356   4.975   0.677   5.300
 4467TIP3   OH213357   4.934   0.900   3.620
 4467TIP3    H113358   4.865   0.907   3.685
 4467TIP3    H213359   4.895   0.938   3.541
 4468TIP3   OH213360   2.743   3.033   0.435
 4468TIP3    H113361   2.651   3.010   0.424
 4468TIP3    H213362   2.775   2.973   0.502
 4469TIP3   OH213363   8.096   1.273   2.013
 4469TIP3    H113364   8.077   1.264   2.107
 4469TIP3    H213365   8.053   1.197   1.974
 4470TIP3   OH213366   8.213   5.532   5.748
 4470TIP3    H113367   8.127   5.573   5.739
 4470TIP3    H213368   8.211   5.458   5.688
 4471TIP3   OH213369   4.484   3.511   3.953
 4471TIP3    H113370   4.560   3.454   3.969
 4471TIP3    H213371   4.510   3.596   3.989
 4472TIP3   OH213372   2.892   2.819   0.904
 4472TIP3    H113373   2.981   2.825   0.938
 4472TIP3    H213374   2.835   2.832   0.980
 4473TIP3   OH213375   1.825   4.306   5.979
 4473TIP3    H113376   1.805   4.378   5.921
 4473TIP3    H213377   1.855   4.236   5.922
 4474TIP3   OH213378   0.662   6.657   4.818
 4474TIP3    H113379   0.708   6.670   4.901
 4474TIP3    H213380   0.732   6.644   4.754
 4475TIP3   OH213381   2.372   4.022   1.953
 4475TIP3    H113382   2.306   4.007   1.885
 4475TIP3    H213383   2.453   4.037   1.906
 4476TIP3   OH213384   5.670   4.686   1.006
 4476TIP3    H113385   5.578   4.660   1.012
 4476TIP3    H213386   5.694   4.710   1.096
 4477TIP3   OH213387   0.691   4.657   1.880
 4477TIP3    H113388   0.721   4.727   1.822
 4477TIP3    H213389   0.670   4.702   1.962
 4478TIP3   OH213390   0.230   7.347   1.145
 4478TIP3    H113391   0.181   7.291   1.206
 4478TIP3    H213392   0.189   7.331   1.060
 4479TIP3   OH213393   6.061   0.875   5.008
 4479TIP3    H113394   6.138   0.832   4.972
 4479TIP3    H213395   6.010   0.803   5.047
 4480TIP3   OH213396   6.563   5.198   0.879
 4480TIP3    H113397   6.472   5.218   0.901
 4480TIP3    H213398   6.602   5.284   0.862
 4481TIP3   OH213399   4.336   2.146   6.602
 4481TIP3    H113400   4.251   2.112   6.574
 4481TIP3    H213401   4.379   2.072   6.645
 4482TIP3   OH213402   0.674   7.325   6.501
 4482TIP3    H113403   0.670   7.320   6.405
 4482TIP3    H213404   0.698   7.416   6.519
 4483TIP3   OH213405   5.322   0.059   1.104
 4483TIP3    H113406   5.299   0.065   1.011
 4483TIP3    H213407   5.246   0.096   1.150
 4484TIP3   OH213408   4.427   5.414   3.055
 4484TIP3    H113409   4.364   5.481   3.082
 4484TIP3    H213410   4.377   5.332   3.055
 4485TIP3   OH213411   4.181   1.714   5.664
 4485TIP3    H113412   4.150   1.805   5.667
 4485TIP3    H213413   4.276   1.721   5.672
 4486TIP3   OH213414   7.257   7.659   2.346
 4486TIP3    H113415   7.331   7.605   2.374
 4486TIP3    H213416   7.180   7.610   2.373
 4487TIP3   OH213417   6.873   7.632   2.200
 4487TIP3    H113418   6.907   7.555   2.156
 4487TIP3    H213419   6.786   7.646   2.162
 4488TIP3   OH213420   4.480   3.969   5.224
 4488TIP3    H113421   4.406   4.028   5.213
 4488TIP3    H213422   4.467   3.929   5.309
 4489TIP3   OH213423   3.833   5.916   2.676
 4489TIP3    H113424   3.865   5.864   2.602
 4489TIP3    H213425   3.902   5.909   2.742
 4490TIP3   OH213426   3.356   7.652   4.838
 4490TIP3    H113427   3.443   7.684   4.815
 4490TIP3    H213428   3.302   7.670   4.761
 4491TIP3   OH213429   7.448   1.011   2.932
 4491TIP3    H113430   7.465   1.105   2.931
 4491TIP3    H213431   7.522   0.973   2.980
 4492TIP3   OH213432   1.000   6.948   2.602
 4492TIP3    H113433   0.933   6.919   2.664
 4492TIP3    H213434   0.989   7.043   2.600
 4493TIP3   OH213435   3.682   2.511   5.637
 4493TIP3    H113436   3.708   2.599   5.608
 4493TIP3    H213437   3.595   2.523   5.674
 4494TIP3   OH213438   5.953   3.335   2.623
 4494TIP3    H113439   5.866   3.354   2.658
 4494TIP3    H213440   6.006   3.313   2.699
 4495TIP3   OH213441   2.511   4.055   5.213
 4495TIP3    H113442   2.511   3.959   5.214
 4495TIP3    H213443   2.489   4.079   5.123
 4496TIP3   OH213444   0.886   0.750   3.607
 4496TIP3    H113445   0.860   0.842   3.604
 4496TIP3    H213446   0.971   0.750   3.650
 4497TIP3   OH213447   0.745   6.599   3.862
 4497TIP3    H113448   0.792   6.610   3.779
 4497TIP3    H213449   0.654   6.614   3.840
 4498TIP3   OH213450   2.073   5.870   2.614
 4498TIP3    H113451   2.133   5.945   2.610
 4498TIP3    H213452   2.085   5.826   2.530
 4499TIP3   OH213453   6.077   2.765   3.895
 4499TIP3    H113454   5.981   2.763   3.894
 4499TIP3    H213455   6.099   2.839   3.838
 4500TIP3   OH213456   1.379   4.100   0.610
 4500TIP3    H113457   1.437   4.026   0.593
 4500TIP3    H213458   1.424   4.152   0.677
 4501TIP3   OH213459   1.834   4.819   2.415
 4501TIP3    H113460   1.789   4.737   2.396
 4501TIP3    H213461   1.784   4.885   2.367
 4502TIP3   OH213462   1.147   4.215   1.642
 4502TIP3    H113463   1.169   4.147   1.707
 4502TIP3    H213464   1.231   4.251   1.616
 4503TIP3   OH213465   7.720   4.710   4.147
 4503TIP3    H113466   7.626   4.693   4.154
 4503TIP3    H213467   7.728   4.803   4.171
 4504TIP3   OH213468   4.142   7.589   5.937
 4504TIP3    H113469   4.179   7.509   5.973
 4504TIP3    H213470   4.195   7.608   5.860
 4505TIP3   OH213471   2.541   4.874   0.760
 4505TIP3    H113472   2.575   4.962   0.744
 4505TIP3    H213473   2.468   4.866   0.698
 4506TIP3   OH213474   5.485   5.939   4.872
 4506TIP3    H113475   5.480   5.844   4.885
 4506TIP3    H213476   5.410   5.960   4.816
 4507TIP3   OH213477   5.346   6.101   2.783
 4507TIP3    H113478   5.392   6.025   2.818
 4507TIP3    H213479   5.299   6.137   2.858
 4508TIP3   OH213480   0.590   0.176   2.483
 4508TIP3    H113481   0.620   0.128   2.560
 4508TIP3    H213482   0.609   0.118   2.410
 4509TIP3   OH213483   1.497   7.549   1.587
 4509TIP3    H113484   1.449   7.600   1.521
 4509TIP3    H213485   1.429   7.509   1.640
 4510TIP3   OH213486   1.511   4.883   5.109
 4510TIP3    H113487   1.533   4.974   5.131
 4510TIP3    H213488   1.434   4.891   5.053
 4511TIP3   OH213489   3.847   2.461   5.850
 4511TIP3    H113490   3.886   2.548   5.851
 4511TIP3    H213491   3.809   2.453   5.763
 4512TIP3   OH213492   2.694   5.744   3.009
 4512TIP3    H113493   2.599   5.758   3.007
 4512TIP3    H213494   2.724   5.796   3.084
 4513TIP3   OH213495   4.040   1.409   1.563
 4513TIP3    H113496   4.045   1.401   1.658
 4513TIP3    H213497   4.092   1.337   1.529
 4514TIP3   OH213498   0.059   3.614   2.071
 4514TIP3    H113499   0.104   3.684   2.025
 4514TIP3    H213500   0.013   3.658   2.143
 4515TIP3   OH213501   4.941   3.948   0.478
 4515TIP3    H113502   4.957   4.036   0.443
 4515TIP3    H213503   4.847   3.948   0.498
 4516TIP3   OH213504   3.387   1.574   1.611
 4516TIP3    H113505   3.453   1.509   1.632
 4516TIP3    H213506   3.318   1.561   1.677
 4517TIP3   OH213507   6.990   7.054   5.087
 4517TIP3    H113508   7.069   7.011   5.121
 4517TIP3    H213509   7.021   7.108   5.015
 4518TIP3   OH213510   3.715   7.466   3.129
 4518TIP3    H113511   3.652   7.528   3.092
 4518TIP3    H213512   3.726   7.399   3.062
 4519TIP3   OH213513   3.434   0.416   4.858
 4519TIP3    H113514   3.397   0.389   4.774
 4519TIP3    H213515   3.501   0.481   4.835
 4520TIP3   OH213516   5.482   7.044   5.811
 4520TIP3    H113517   5.461   7.019   5.900
 4520TIP3    H213518   5.466   7.138   5.808
 4521TIP3   OH213519   3.274   4.659   0.907
 4521TIP3    H113520   3.229   4.579   0.878
 4521TIP3    H213521   3.322   4.632   0.986
 4522TIP3   OH213522   3.783   3.486   4.354
 4522TIP3    H113523   3.874   3.474   4.380
 4522TIP3    H213524   3.753   3.560   4.407
 4523TIP3   OH213525   8.052   7.323   1.427
 4523TIP3    H113526   8.094   7.393   1.477
 4523TIP3    H213527   8.064   7.350   1.335
 4524TIP3   OH213528   0.040   7.633   3.421
 4524TIP3    H113529   0.072   7.557   3.471
 4524TIP3    H213530  -0.052   7.612   3.404
 4525TIP3   OH213531   6.979   6.603   6.346
 4525TIP3    H113532   6.903   6.567   6.392
 4525TIP3    H213533   7.055   6.570   6.394
 4526TIP3   OH213534   6.465   1.188   5.783
 4526TIP3    H113535   6.553   1.206   5.750
 4526TIP3    H213536   6.444   1.101   5.748
 4527TIP3   OH213537   5.322   6.682   3.344
 4527TIP3    H113538   5.349   6.599   3.383
 4527TIP3    H213539   5.386   6.698   3.275
 4528TIP3   OH213540   8.229   6.897   4.559
 4528TIP3    H113541   8.248   6.950   4.481
 4528TIP3    H213542   8.296   6.923   4.622
 4529TIP3   OH213543   1.033   4.369   4.954
 4529TIP3    H113544   0.997   4.395   4.869
 4529TIP3    H213545   1.007   4.277   4.963
 4530TIP3   OH213546   6.801   1.256   4.371
 4530TIP3    H113547   6.769   1.289   4.454
 4530TIP3    H213548   6.760   1.170   4.362
 4531TIP3   OH213549   3.891   7.302   6.517
 4531TIP3    H113550   3.953   7.356   6.566
 4531TIP3    H213551   3.925   7.304   6.427
 4532TIP3   OH213552   6.760   5.496   3.151
 4532TIP3    H113553   6.716   5.545   3.082
 4532TIP3    H213554   6.794   5.562   3.211
 4533TIP3   OH213555   2.397   5.736   0.419
 4533TIP3    H113556   2.403   5.659   0.475
 4533TIP3    H213557   2.307   5.736   0.387
 4534TIP3   OH213558   4.121   2.757   4.335
 4534TIP3    H113559   4.060   2.692   4.302
 4534TIP3    H213560   4.073   2.799   4.407
 4535TIP3   OH213561   3.885   3.909   1.852
 4535TIP3    H113562   3.812   3.967   1.831
 4535TIP3    H213563   3.944   3.962   1.905
 4536TIP3   OH213564   8.038   1.351   5.155
 4536TIP3    H113565   7.986   1.422   5.117
 4536TIP3    H213566   8.079   1.390   5.232
 4537TIP3   OH213567   7.368   3.074   3.027
 4537TIP3    H113568   7.426   3.115   2.962
 4537TIP3    H213569   7.428   3.042   3.095
 4538TIP3   OH213570   5.828   5.191   1.861
 4538TIP3    H113571   5.742   5.156   1.884
 4538TIP3    H213572   5.886   5.115   1.865
 4539TIP3   OH213573   6.047   1.273   2.834
 4539TIP3    H113574   6.116   1.237   2.889
 4539TIP3    H213575   6.040   1.212   2.760
 4540TIP3   OH213576   1.501   0.749   1.803
 4540TIP3    H113577   1.439   0.708   1.864
 4540TIP3    H213578   1.464   0.836   1.787
 4541TIP3   OH213579   7.515   1.856   6.424
 4541TIP3    H113580   7.437   1.908   6.408
 4541TIP3    H213581   7.560   1.900   6.496
 4542TIP3   OH213582   6.664   5.267   5.345
 4542TIP3    H113583   6.722   5.331   5.388
 4542TIP3    H213584   6.666   5.191   5.402
 4543TIP3   OH213585   1.910   3.743   1.786
 4543TIP3    H113586   1.916   3.776   1.697
 4543TIP3    H213587   1.903   3.821   1.841
 4544TIP3   OH213588   3.943   1.666   4.554
 4544TIP3    H113589   3.990   1.739   4.596
 4544TIP3    H213590   3.854   1.699   4.543
 4545TIP3   OH213591   7.671   6.804   0.485
 4545TIP3    H113592   7.749   6.855   0.464
 4545TIP3    H213593   7.627   6.792   0.401
 4546TIP3   OH213594   3.430   2.805   3.638
 4546TIP3    H113595   3.374   2.864   3.688
 4546TIP3    H213596   3.460   2.858   3.564
 4547TIP3   OH213597   3.543   6.897   3.986
 4547TIP3    H113598   3.566   6.974   3.934
 4547TIP3    H213599   3.606   6.897   4.059
 4548TIP3   OH213600   2.188   0.095   2.643
 4548TIP3    H113601   2.224   0.006   2.643
 4548TIP3    H213602   2.143   0.102   2.559
 4549TIP3   OH213603   5.557   3.719   0.271
 4549TIP3    H113604   5.624   3.697   0.207
 4549TIP3    H213605   5.523   3.804   0.243
 4550TIP3   OH213606   7.625   6.949   4.616
 4550TIP3    H113607   7.601   6.916   4.703
 4550TIP3    H213608   7.542   6.953   4.569
 4551TIP3   OH213609   6.256   6.519   6.059
 4551TIP3    H113610   6.271   6.482   6.146
 4551TIP3    H213611   6.194   6.460   6.018
 4552TIP3   OH213612   7.618   2.415   1.827
 4552TIP3    H113613   7.690   2.384   1.773
 4552TIP3    H213614   7.633   2.510   1.835
 4553TIP3   OH213615   3.040   2.044   0.302
 4553TIP3    H113616   3.075   2.133   0.302
 4553TIP3    H213617   3.060   2.010   0.215
 4554TIP3   OH213618   5.655   3.020   6.231
 4554TIP3    H113619   5.731   2.966   6.212
 4554TIP3    H213620   5.587   2.988   6.172
 4555TIP3   OH213621   0.581   5.351   3.949
 4555TIP3    H113622   0.597   5.355   3.855
 4555TIP3    H213623   0.533   5.269   3.962
 4556TIP3   OH213624   1.372   0.624   0.617
 4556TIP3    H113625   1.327   0.541   0.636
 4556TIP3    H213626   1.338   0.651   0.532
 4557TIP3   OH213627   2.590   4.204   3.670
 4557TIP3    H113628   2.507   4.157   3.676
 4557TIP3    H213629   2.641   4.173   3.745
 4558TIP3   OH213630   2.585   3.333   2.892
 4558TIP3    H113631   2.513   3.345   2.953
 4558TIP3    H213632   2.659   3.376   2.933
 4559TIP3   OH213633   1.077   2.219   2.676
 4559TIP3    H113634   1.054   2.136   2.718
 4559TIP3    H213635   1.173   2.218   2.673
 4560TIP3   OH213636   4.395   2.177   2.317
 4560TIP3    H113637   4.340   2.255   2.324
 4560TIP3    H213638   4.447   2.178   2.397
 4561TIP3   OH213639   4.315   5.389   5.482
 4561TIP3    H113640   4.406   5.377   5.454
 4561TIP3    H213641   4.322   5.422   5.571
 4562TIP3   OH213642   0.274   6.453   0.109
 4562TIP3    H113643   0.218   6.392   0.061
 4562TIP3    H213644   0.337   6.397   0.155
 4563TIP3   OH213645   2.877   7.071   0.857
 4563TIP3    H113646   2.838   7.035   0.936
 4563TIP3    H213647   2.815   7.049   0.787
 4564TIP3   OH213648   7.834   0.623   1.912
 4564TIP3    H113649   7.812   0.697   1.855
 4564TIP3    H213650   7.828   0.659   2.001
 4565TIP3   OH213651   3.712   1.396   5.831
 4565TIP3    H113652   3.672   1.320   5.874
 4565TIP3    H213653   3.802   1.397   5.864
 4566TIP3   OH213654   4.621   4.701   3.019
 4566TIP3    H113655   4.640   4.795   3.014
 4566TIP3    H213656   4.688   4.667   3.079
 4567TIP3   OH213657   0.990   3.778   5.911
 4567TIP3    H113658   0.979   3.851   5.972
 4567TIP3    H213659   0.901   3.755   5.885
 4568TIP3   OH213660   1.081   6.147   2.420
 4568TIP3    H113661   0.992   6.181   2.419
 4568TIP3    H213662   1.137   6.223   2.407
 4569TIP3   OH213663   1.001   4.578   2.370
 4569TIP3    H113664   0.917   4.598   2.330
 4569TIP3    H213665   0.990   4.600   2.462
 4570TIP3   OH213666   6.056   1.934   5.291
 4570TIP3    H113667   6.016   1.860   5.245
 4570TIP3    H213668   5.999   1.948   5.367
 4571TIP3   OH213669   3.080   2.897   1.087
 4571TIP3    H113670   3.127   2.970   1.127
 4571TIP3    H213671   3.089   2.825   1.149
 4572TIP3   OH213672   5.585   3.374   6.653
 4572TIP3    H113673   5.663   3.359   6.705
 4572TIP3    H213674   5.617   3.396   6.566
 4573TIP3   OH213675   4.899   3.496   0.798
 4573TIP3    H113676   4.894   3.407   0.762
 4573TIP3    H213677   4.953   3.486   0.877
 4574TIP3   OH213678   1.088   6.721   3.600
 4574TIP3    H113679   0.994   6.714   3.585
 4574TIP3    H213680   1.111   6.640   3.645
 4575TIP3   OH213681   1.916   4.437   4.352
 4575TIP3    H113682   1.847   4.480   4.404
 4575TIP3    H213683   1.998   4.465   4.393
 4576TIP3   OH213684   7.241   3.536   1.858
 4576TIP3    H113685   7.292   3.614   1.838
 4576TIP3    H213686   7.281   3.502   1.939
 4577TIP3   OH213687   3.021   1.422   2.081
 4577TIP3    H113688   2.995   1.330   2.085
 4577TIP3    H213689   3.018   1.443   1.987
 4578TIP3   OH213690   4.855   1.781   6.461
 4578TIP3    H113691   4.831   1.805   6.550
 4578TIP3    H213692   4.883   1.690   6.467
 4579TIP3   OH213693   7.351   2.644   6.174
 4579TIP3    H113694   7.289   2.624   6.244
 4579TIP3    H213695   7.334   2.736   6.153
 4580TIP3   OH213696   3.789   6.712   3.753
 4580TIP3    H113697   3.791   6.636   3.812
 4580TIP3    H213698   3.835   6.682   3.674
 4581TIP3   OH213699   6.217   7.582   2.577
 4581TIP3    H113700   6.213   7.491   2.609
 4581TIP3    H213701   6.277   7.578   2.503
 4582TIP3   OH213702   3.257   4.374   1.280
 4582TIP3    H113703   3.194   4.406   1.345
 4582TIP3    H213704   3.206   4.364   1.200
 4583TIP3   OH213705   1.693   3.870   5.107
 4583TIP3    H113706   1.787   3.854   5.104
 4583TIP3    H213707   1.661   3.817   5.181
 4584TIP3   OH213708   2.136   3.731   0.664
 4584TIP3    H113709   2.121   3.738   0.758
 4584TIP3    H213710   2.135   3.637   0.647
 4585TIP3   OH213711   1.405   4.834   0.377
 4585TIP3    H113712   1.373   4.909   0.427
 4585TIP3    H213713   1.325   4.791   0.344
 4586TIP3   OH213714   7.254   4.049   3.806
 4586TIP3    H113715   7.231   3.976   3.749
 4586TIP3    H213716   7.328   4.017   3.857
 4587TIP3   OH213717   1.554   7.809   5.745
 4587TIP3    H113718   1.571   7.715   5.751
 4587TIP3    H213719   1.469   7.816   5.701
 4588TIP3   OH213720   7.812   5.788   1.366
 4588TIP3    H113721   7.803   5.801   1.272
 4588TIP3    H213722   7.825   5.876   1.402
 4589TIP3   OH213723   5.031   6.294   2.281
 4589TIP3    H113724   5.062   6.290   2.191
 4589TIP3    H213725   5.110   6.286   2.334
 4590TIP3   OH213726   6.945   5.835   6.635
 4590TIP3    H113727   6.960   5.846   6.729
 4590TIP3    H213728   7.020   5.783   6.606
 4591TIP3   OH213729   4.172   4.788   2.670
 4591TIP3    H113730   4.088   4.756   2.705
 4591TIP3    H213731   4.238   4.740   2.719
 4592TIP3   OH213732   4.608   3.529   5.228
 4592TIP3    H113733   4.514   3.547   5.231
 4592TIP3    H213734   4.648   3.615   5.214
 4593TIP3   OH213735   4.117   1.635   1.244
 4593TIP3    H113736   4.204   1.674   1.233
 4593TIP3    H213737   4.056   1.704   1.219
 4594TIP3   OH213738   6.113   6.509   1.504
 4594TIP3    H113739   6.100   6.461   1.586
 4594TIP3    H213740   6.154   6.592   1.530
 4595TIP3   OH213741   8.226   4.027   4.098
 4595TIP3    H113742   8.288   4.018   4.170
 4595TIP3    H213743   8.215   3.938   4.065
 4596TIP3   OH213744   6.832   4.526   0.955
 4596TIP3    H113745   6.769   4.556   1.021
 4596TIP3    H213746   6.782   4.520   0.874
 4597TIP3   OH213747   1.584   6.068   2.544
 4597TIP3    H113748   1.547   6.108   2.466
 4597TIP3    H213749   1.554   5.977   2.541
 4598TIP3   OH213750   1.437   4.278   1.763
 4598TIP3    H113751   1.443   4.232   1.846
 4598TIP3    H213752   1.528   4.297   1.740
 4599TIP3   OH213753   6.886   3.459   0.518
 4599TIP3    H113754   6.811   3.460   0.459
 4599TIP3    H213755   6.856   3.411   0.596
 4600TIP3   OH213756   3.652   2.351   2.189
 4600TIP3    H113757   3.742   2.319   2.181
 4600TIP3    H213758   3.612   2.330   2.105
 4601TIP3   OH213759   6.179   1.952   4.636
 4601TIP3    H113760   6.255   2.002   4.609
 4601TIP3    H213761   6.180   1.954   4.732
 4602TIP3   OH213762   7.789   7.704   4.200
 4602TIP3    H113763   7.769   7.662   4.116
 4602TIP3    H213764   7.777   7.798   4.183
 4603TIP3   OH213765   2.974   1.683   3.669
 4603TIP3    H113766   2.994   1.600   3.626
 4603TIP3    H213767   2.993   1.749   3.602
 4604TIP3   OH213768   5.798   6.675   3.200
 4604TIP3    H113769   5.823   6.612   3.133
 4604TIP3    H213770   5.879   6.691   3.249
 4605TIP3   OH213771   7.667   5.407   5.333
 4605TIP3    H113772   7.760   5.428   5.325
 4605TIP3    H213773   7.630   5.427   5.247
 4606TIP3   OH213774   5.975   5.051   1.388
 4606TIP3    H113775   5.946   5.101   1.465
 4606TIP3    H213776   5.980   5.116   1.318
 4607TIP3   OH213777   6.877   1.209   1.106
 4607TIP3    H113778   6.934   1.217   1.182
 4607TIP3    H213779   6.908   1.129   1.062
 4608TIP3   OH213780   4.377   2.808   2.779
 4608TIP3    H113781   4.446   2.772   2.833
 4608TIP3    H213782   4.418   2.825   2.694
 4609TIP3   OH213783   3.698   1.362   6.165
 4609TIP3    H113784   3.744   1.284   6.196
 4609TIP3    H213785   3.605   1.344   6.181
 4610TIP3   OH213786   5.108   5.589   4.335
 4610TIP3    H113787   5.175   5.562   4.398
 4610TIP3    H213788   5.082   5.676   4.364
 4611TIP3   OH213789   5.515   1.686   0.742
 4611TIP3    H113790   5.426   1.653   0.753
 4611TIP3    H213791   5.547   1.643   0.663
 4612TIP3   OH213792   6.494   2.936   0.683
 4612TIP3    H113793   6.431   2.974   0.744
 4612TIP3    H213794   6.574   2.927   0.734
 4613TIP3   OH213795   7.114   3.315   0.880
 4613TIP3    H113796   7.026   3.314   0.916
 4613TIP3    H213797   7.149   3.401   0.902
 4614TIP3   OH213798   1.581   0.540   3.455
 4614TIP3    H113799   1.531   0.519   3.534
 4614TIP3    H213800   1.591   0.457   3.410
 4615TIP3   OH213801   5.839   4.450   3.082
 4615TIP3    H113802   5.785   4.526   3.058
 4615TIP3    H213803   5.919   4.489   3.118
 4616TIP3   OH213804   0.281   1.829   6.103
 4616TIP3    H113805   0.327   1.895   6.051
 4616TIP3    H213806   0.309   1.745   6.066
 4617TIP3   OH213807   0.506   5.830   0.155
 4617TIP3    H113808   0.520   5.746   0.111
 4617TIP3    H213809   0.580   5.839   0.215
 4618TIP3   OH213810   6.787   0.977   6.434
 4618TIP3    H113811   6.742   0.928   6.503
 4618TIP3    H213812   6.749   0.944   6.353
 4619TIP3   OH213813   1.798   6.784   3.458
 4619TIP3    H113814   1.874   6.749   3.411
 4619TIP3    H213815   1.770   6.859   3.406
 4620TIP3   OH213816   0.434   5.308   2.366
 4620TIP3    H113817   0.519   5.278   2.335
 4620TIP3    H213818   0.385   5.329   2.286
 4621TIP3   OH213819   1.565   5.835   2.210
 4621TIP3    H113820   1.490   5.836   2.269
 4621TIP3    H213821   1.632   5.886   2.255
 4622TIP3   OH213822   6.208   0.522   5.648
 4622TIP3    H113823   6.191   0.428   5.659
 4622TIP3    H213824   6.122   0.560   5.631
 4623TIP3   OH213825   6.363   4.356   0.713
 4623TIP3    H113826   6.382   4.262   0.706
 4623TIP3    H213827   6.304   4.363   0.788
 4624TIP3   OH213828   4.335   7.721   3.290
 4624TIP3    H113829   4.279   7.798   3.280
 4624TIP3    H213830   4.408   7.737   3.231
 4625TIP3   OH213831   0.861   5.941   1.796
 4625TIP3    H113832   0.767   5.921   1.797
 4625TIP3    H213833   0.901   5.867   1.843
 4626TIP3   OH213834   3.914   1.017   1.346
 4626TIP3    H113835   3.837   1.062   1.380
 4626TIP3    H213836   3.982   1.085   1.343
 4627TIP3   OH213837   5.478   4.965   4.516
 4627TIP3    H113838   5.484   4.906   4.592
 4627TIP3    H213839   5.558   5.018   4.521
 4628TIP3   OH213840   6.593   1.102   2.398
 4628TIP3    H113841   6.624   1.177   2.448
 4628TIP3    H213842   6.624   1.119   2.309
 4629TIP3   OH213843   7.373   7.395   2.201
 4629TIP3    H113844   7.424   7.327   2.157
 4629TIP3    H213845   7.355   7.460   2.133
 4630TIP3   OH213846   7.980   3.025   5.956
 4630TIP3    H113847   7.948   2.986   5.875
 4630TIP3    H213848   8.035   2.957   5.995
 4631TIP3   OH213849   7.197   5.274   2.445
 4631TIP3    H113850   7.124   5.234   2.397
 4631TIP3    H213851   7.156   5.315   2.520
 4632TIP3   OH213852   1.811   5.744   2.667
 4632TIP3    H113853   1.818   5.655   2.701
 4632TIP3    H213854   1.901   5.776   2.665
 4633TIP3   OH213855   0.980   3.647   2.580
 4633TIP3    H113856   1.028   3.591   2.519
 4633TIP3    H213857   0.911   3.591   2.615
 4634TIP3   OH213858   4.459   1.353   3.454
 4634TIP3    H113859   4.546   1.385   3.429
 4634TIP3    H213860   4.461   1.259   3.434
 4635TIP3   OH213861   3.534   7.693   3.119
 4635TIP3    H113862   3.604   7.756   3.141
 4635TIP3    H213863   3.463   7.714   3.180
 4636TIP3   OH213864   7.162   4.163   2.708
 4636TIP3    H113865   7.245   4.127   2.740
 4636TIP3    H213866   7.100   4.091   2.714
 4637TIP3   OH213867   4.142   1.806   4.691
 4637TIP3    H113868   4.107   1.878   4.744
 4637TIP3    H213869   4.237   1.811   4.704
 4638TIP3   OH213870   4.084   0.501   5.934
 4638TIP3    H113871   4.003   0.543   5.905
 4638TIP3    H213872   4.123   0.466   5.853
 4639TIP3   OH213873   1.448   0.947   3.773
 4639TIP3    H113874   1.406   1.031   3.755
 4639TIP3    H213875   1.408   0.887   3.709
 4640TIP3   OH213876   1.951   2.690   4.279
 4640TIP3    H113877   1.891   2.758   4.309
 4640TIP3    H213878   2.002   2.667   4.356
 4641TIP3   OH213879   7.116   6.640   2.190
 4641TIP3    H113880   7.133   6.571   2.126
 4641TIP3    H213881   7.130   6.597   2.275
 4642TIP3   OH213882   4.638   1.767   2.764
 4642TIP3    H113883   4.719   1.716   2.772
 4642TIP3    H213884   4.650   1.820   2.685
 4643TIP3   OH213885   4.610   0.906   1.315
 4643TIP3    H113886   4.680   0.971   1.320
 4643TIP3    H213887   4.562   0.917   1.397
 4644TIP3   OH213888   0.251   3.779   1.914
 4644TIP3    H113889   0.314   3.779   1.842
 4644TIP3    H213890   0.182   3.838   1.885
 4645TIP3   OH213891   5.528   0.595   5.085
 4645TIP3    H113892   5.599   0.642   5.042
 4645TIP3    H213893   5.562   0.506   5.096
 4646TIP3   OH213894   4.522   0.591   2.423
 4646TIP3    H113895   4.527   0.625   2.334
 4646TIP3    H213896   4.493   0.666   2.476
 4647TIP3   OH213897   2.278   2.044   0.524
 4647TIP3    H113898   2.329   2.099   0.583
 4647TIP3    H213899   2.341   1.981   0.489
 4648TIP3   OH213900   0.204   6.613   0.769
 4648TIP3    H113901   0.153   6.668   0.829
 4648TIP3    H213902   0.155   6.532   0.762
 4649TIP3   OH213903   2.831   0.069   1.132
 4649TIP3    H113904   2.853  -0.004   1.075
 4649TIP3    H213905   2.754   0.039   1.181
 4650TIP3   OH213906   7.158   5.796   5.680
 4650TIP3    H113907   7.188   5.862   5.617
 4650TIP3    H213908   7.235   5.740   5.693
 4651TIP3   OH213909   6.748   6.640   2.824
 4651TIP3    H113910   6.770   6.650   2.916
 4651TIP3    H213911   6.802   6.567   2.794
 4652TIP3   OH213912   1.843   5.197   1.521
 4652TIP3    H113913   1.923   5.201   1.469
 4652TIP3    H213914   1.816   5.288   1.532
 4653TIP3   OH213915   5.047   2.241   2.828
 4653TIP3    H113916   5.073   2.327   2.860
 4653TIP3    H213917   5.007   2.257   2.743
 4654TIP3   OH213918   6.959   2.126   3.908
 4654TIP3    H113919   6.994   2.093   3.991
 4654TIP3    H213920   7.033   2.173   3.868
 4655TIP3   OH213921   2.635   0.792   5.139
 4655TIP3    H113922   2.671   0.845   5.210
 4655TIP3    H213923   2.554   0.754   5.176
 4656TIP3   OH213924   0.569   7.575   5.877
 4656TIP3    H113925   0.548   7.546   5.788
 4656TIP3    H213926   0.578   7.670   5.870
 4657TIP3   OH213927   3.700   4.220   1.383
 4657TIP3    H113928   3.644   4.285   1.341
 4657TIP3    H213929   3.752   4.184   1.311
 4658TIP3   OH213930   7.894   1.033   5.775
 4658TIP3    H113931   7.943   1.075   5.704
 4658TIP3    H213932   7.915   0.940   5.767
 4659TIP3   OH213933   3.875   1.522   6.319
 4659TIP3    H113934   3.828   1.459   6.264
 4659TIP3    H213935   3.963   1.526   6.282
 4660TIP3   OH213936   0.339   2.701   6.121
 4660TIP3    H113937   0.434   2.693   6.111
 4660TIP3    H213938   0.316   2.783   6.078
 4661TIP3   OH213939   1.816   7.373   4.736
 4661TIP3    H113940   1.856   7.375   4.649
 4661TIP3    H213941   1.766   7.454   4.741
 4662TIP3   OH213942   0.726   7.271   0.311
 4662TIP3    H113943   0.721   7.195   0.369
 4662TIP3    H213944   0.820   7.289   0.304
 4663TIP3   OH213945   1.303   1.390   6.679
 4663TIP3    H113946   1.264   1.441   6.608
 4663TIP3    H213947   1.240   1.320   6.696
 4664TIP3   OH213948   6.227   6.389   2.990
 4664TIP3    H113949   6.245   6.478   2.960
 4664TIP3    H213950   6.187   6.400   3.076
 4665TIP3   OH213951   1.349   1.160   6.258
 4665TIP3    H113952   1.385   1.234   6.209
 4665TIP3    H213953   1.337   1.193   6.347
 4666TIP3   OH213954   5.915   2.761   3.578
 4666TIP3    H113955   5.885   2.755   3.669
 4666TIP3    H213956   6.010   2.759   3.584
 4667TIP3   OH213957   1.422   4.420   2.515
 4667TIP3    H113958   1.492   4.410   2.451
 4667TIP3    H213959   1.343   4.395   2.467
 4668TIP3   OH213960   7.805   7.112   1.138
 4668TIP3    H113961   7.856   7.155   1.069
 4668TIP3    H213962   7.733   7.070   1.091
 4669TIP3   OH213963   3.632   4.729   3.493
 4669TIP3    H113964   3.685   4.709   3.415
 4669TIP3    H213965   3.551   4.765   3.457
 4670TIP3   OH213966   3.401   3.420   4.232
 4670TIP3    H113967   3.451   3.438   4.152
 4670TIP3    H213968   3.314   3.397   4.200
 4671TIP3   OH213969   0.886   0.183   0.464
 4671TIP3    H113970   0.944   0.109   0.486
 4671TIP3    H213971   0.892   0.241   0.539
 4672TIP3   OH213972   2.109   5.544   6.668
 4672TIP3    H113973   2.088   5.578   6.755
 4672TIP3    H213974   2.047   5.588   6.609
 4673TIP3   OH213975   4.172   4.573   0.740
 4673TIP3    H113976   4.171   4.637   0.811
 4673TIP3    H213977   4.253   4.525   0.752
 4674TIP3   OH213978   3.566   4.524   3.169
 4674TIP3    H113979   3.583   4.479   3.086
 4674TIP3    H213980   3.565   4.453   3.234
 4675TIP3   OH213981   1.614   6.241   0.311
 4675TIP3    H113982   1.687   6.190   0.347
 4675TIP3    H213983   1.635   6.332   0.333
 4676TIP3   OH213984   7.970   7.480   6.549
 4676TIP3    H113985   7.985   7.428   6.629
 4676TIP3    H213986   7.896   7.438   6.507
 4677TIP3   OH213987   5.032   6.150   4.778
 4677TIP3    H113988   5.048   6.131   4.870
 4677TIP3    H213989   5.089   6.225   4.759
 4678TIP3   OH213990   6.438   5.962   1.415
 4678TIP3    H113991   6.358   5.951   1.364
 4678TIP3    H213992   6.503   5.989   1.351
 4679TIP3   OH213993   7.721   2.177   2.168
 4679TIP3    H113994   7.777   2.139   2.236
 4679TIP3    H213995   7.640   2.127   2.172
 4680TIP3   OH213996   6.551   0.274   0.163
 4680TIP3    H113997   6.458   0.286   0.182
 4680TIP3    H213998   6.554   0.196   0.108
 4681TIP3   OH213999   1.907   5.996   6.432
 4681TIP3    H114000   1.817   6.028   6.428
 4681TIP3    H214001   1.899   5.901   6.436
 4682TIP3   OH214002   5.549   7.556   0.288
 4682TIP3    H114003   5.502   7.627   0.331
 4682TIP3    H214004   5.504   7.545   0.204
 4683TIP3   OH214005   1.096   1.960   4.075
 4683TIP3    H114006   1.155   2.026   4.111
 4683TIP3    H214007   1.051   2.006   4.003
 4684TIP3   OH214008   0.926   7.828   6.695
 4684TIP3    H114009   0.900   7.834   6.603
 4684TIP3    H214010   0.843   7.829   6.743
 4685TIP3   OH214011   2.873   7.404   6.253
 4685TIP3    H114012   2.922   7.471   6.205
 4685TIP3    H214013   2.796   7.387   6.199
 4686TIP3   OH214014   8.258   3.630   4.212
 4686TIP3    H114015   8.184   3.618   4.272
 4686TIP3    H214016   8.317   3.689   4.258
 4687TIP3   OH214017   8.058   6.359   0.379
 4687TIP3    H114018   8.015   6.299   0.439
 4687TIP3    H214019   7.991   6.423   0.355
 4688TIP3   OH214020   2.081   1.706   3.017
 4688TIP3    H114021   2.128   1.772   2.966
 4688TIP3    H214022   2.086   1.627   2.963
 4689TIP3   OH214023   0.769   6.523   3.471
 4689TIP3    H114024   0.818   6.491   3.395
 4689TIP3    H214025   0.788   6.616   3.475
 4690TIP3   OH214026   5.581   3.979   4.294
 4690TIP3    H114027   5.514   3.983   4.226
 4690TIP3    H214028   5.632   4.059   4.283
 4691TIP3   OH214029   0.990   6.771   0.840
 4691TIP3    H114030   1.048   6.836   0.800
 4691TIP3    H214031   0.919   6.760   0.777
 4692TIP3   OH214032   0.245   1.367   5.249
 4692TIP3    H114033   0.216   1.418   5.325
 4692TIP3    H214034   0.315   1.311   5.282
 4693TIP3   OH214035   2.101   0.420   6.089
 4693TIP3    H114036   2.170   0.400   6.025
 4693TIP3    H214037   2.146   0.470   6.157
 4694TIP3   OH214038   6.513   1.718   2.399
 4694TIP3    H114039   6.573   1.733   2.327
 4694TIP3    H214040   6.544   1.637   2.439
 4695TIP3   OH214041   3.331   1.091   5.790
 4695TIP3    H114042   3.337   0.997   5.775
 4695TIP3    H214043   3.263   1.121   5.729
 4696TIP3   OH214044   5.371   7.103   2.699
 4696TIP3    H114045   5.416   7.058   2.770
 4696TIP3    H214046   5.372   7.041   2.626
 4697TIP3   OH214047   8.276   6.397   6.731
 4697TIP3    H114048   8.232   6.409   6.647
 4697TIP3    H214049   8.309   6.484   6.753
 4698TIP3   OH214050   2.517   5.638   2.370
 4698TIP3    H114051   2.453   5.584   2.416
 4698TIP3    H214052   2.468   5.716   2.342
 4699TIP3   OH214053   0.178   6.360   5.207
 4699TIP3    H114054   0.121   6.285   5.192
 4699TIP3    H214055   0.183   6.404   5.122
 4700TIP3   OH214056   2.874   3.521   5.796
 4700TIP3    H114057   2.798   3.494   5.745
 4700TIP3    H214058   2.949   3.493   5.744
 4701TIP3   OH214059   1.986   2.457   6.598
 4701TIP3    H114060   2.062   2.452   6.655
 4701TIP3    H214061   2.022   2.459   6.509
 4702TIP3   OH214062   4.979   7.072   2.549
 4702TIP3    H114063   4.922   7.146   2.530
 4702TIP3    H214064   5.011   7.089   2.638
 4703TIP3   OH214065   3.999   3.256   5.795
 4703TIP3    H114066   3.949   3.178   5.770
 4703TIP3    H214067   4.012   3.304   5.713
 4704TIP3   OH214068   0.612   7.095   5.011
 4704TIP3    H114069   0.667   7.125   5.084
 4704TIP3    H214070   0.674   7.079   4.939
 4705TIP3   OH214071   1.461   4.078   2.415
 4705TIP3    H114072   1.421   4.152   2.369
 4705TIP3    H214073   1.549   4.071   2.378
 4706TIP3   OH214074   6.125   2.262   4.527
 4706TIP3    H114075   6.170   2.191   4.574
 4706TIP3    H214076   6.158   2.255   4.438
 4707TIP3   OH214077   0.526   0.046   6.712
 4707TIP3    H114078   0.505   0.053   6.805
 4707TIP3    H214079   0.607   0.096   6.702
 4708TIP3   OH214080   1.021   7.067   1.035
 4708TIP3    H114081   0.963   7.081   1.109
 4708TIP3    H214082   1.109   7.064   1.073
 4709TIP3   OH214083   6.660   6.886   2.840
 4709TIP3    H114084   6.701   6.800   2.855
 4709TIP3    H214085   6.671   6.932   2.923
 4710TIP3   OH214086   3.176   4.365   1.904
 4710TIP3    H114087   3.214   4.422   1.970
 4710TIP3    H214088   3.088   4.346   1.936
 4711TIP3   OH214089   0.163   0.070   3.404
 4711TIP3    H114090   0.221   0.036   3.472
 4711TIP3    H214091   0.105  -0.003   3.382
 4712TIP3   OH214092   7.668   4.879   5.076
 4712TIP3    H114093   7.705   4.966   5.062
 4712TIP3    H214094   7.745   4.822   5.084
 4713TIP3   OH214095   0.127   7.793   4.143
 4713TIP3    H114096   0.162   7.878   4.171
 4713TIP3    H214097   0.204   7.744   4.113
 4714TIP3   OH214098   0.669   2.973   4.411
 4714TIP3    H114099   0.703   3.044   4.464
 4714TIP3    H214100   0.740   2.952   4.350
 4715TIP3   OH214101   3.688   3.620   2.960
 4715TIP3    H114102   3.687   3.697   3.016
 4715TIP3    H214103   3.614   3.633   2.900
 4716TIP3   OH214104   6.560   1.496   5.188
 4716TIP3    H114105   6.530   1.443   5.114
 4716TIP3    H214106   6.569   1.433   5.260
 4717TIP3   OH214107   7.606   2.515   0.680
 4717TIP3    H114108   7.629   2.433   0.725
 4717TIP3    H214109   7.546   2.487   0.610
 4718TIP3   OH214110   5.862   6.630   1.445
 4718TIP3    H114111   5.872   6.593   1.358
 4718TIP3    H214112   5.946   6.616   1.488
 4719TIP3   OH214113   5.134   7.268   0.204
 4719TIP3    H114114   5.223   7.241   0.178
 4719TIP3    H214115   5.147   7.351   0.250
 4720TIP3   OH214116   1.355   6.314   2.462
 4720TIP3    H114117   1.382   6.405   2.448
 4720TIP3    H214118   1.417   6.262   2.412
 4721TIP3   OH214119   7.155   0.582   3.892
 4721TIP3    H114120   7.080   0.614   3.943
 4721TIP3    H214121   7.198   0.661   3.860
 4722TIP3   OH214122   0.682   3.800   3.975
 4722TIP3    H114123   0.753   3.737   3.962
 4722TIP3    H214124   0.608   3.747   4.004
 4723TIP3   OH214125   6.411   4.080   4.284
 4723TIP3    H114126   6.405   4.175   4.294
 4723TIP3    H214127   6.491   4.056   4.330
 4724TIP3   OH214128   5.055   3.305   1.589
 4724TIP3    H114129   5.121   3.242   1.559
 4724TIP3    H214130   5.069   3.311   1.684
 4725TIP3   OH214131   7.233   0.242   1.681
 4725TIP3    H114132   7.233   0.337   1.696
 4725TIP3    H214133   7.310   0.211   1.729
 4726TIP3   OH214134   2.127   5.731   2.876
 4726TIP3    H114135   2.222   5.746   2.877
 4726TIP3    H214136   2.091   5.803   2.824
 4727TIP3   OH214137   7.082   7.432   6.032
 4727TIP3    H114138   7.000   7.384   6.026
 4727TIP3    H214139   7.068   7.511   5.979
 4728TIP3   OH214140   1.363   6.388   5.390
 4728TIP3    H114141   1.331   6.459   5.334
 4728TIP3    H214142   1.287   6.332   5.404
 4729TIP3   OH214143   0.220   3.069   3.972
 4729TIP3    H114144   0.206   3.156   3.935
 4729TIP3    H214145   0.153   3.014   3.930
 4730TIP3   OH214146   5.712   7.673   3.912
 4730TIP3    H114147   5.771   7.738   3.949
 4730TIP3    H214148   5.732   7.673   3.818
 4731TIP3   OH214149   3.263   7.333   5.669
 4731TIP3    H114150   3.289   7.270   5.601
 4731TIP3    H214151   3.344   7.357   5.712
 4732TIP3   OH214152   6.869   7.680   3.499
 4732TIP3    H114153   6.783   7.667   3.461
 4732TIP3    H214154   6.930   7.679   3.425
 4733TIP3   OH214155   4.854   1.166   6.735
 4733TIP3    H114156   4.881   1.257   6.748
 4733TIP3    H214157   4.880   1.122   6.816
 4734TIP3   OH214158   7.073   4.397   4.368
 4734TIP3    H114159   7.100   4.423   4.280
 4734TIP3    H214160   7.047   4.479   4.410
 4735TIP3   OH214161   4.862   5.537   4.541
 4735TIP3    H114162   4.930   5.477   4.570
 4735TIP3    H214163   4.873   5.542   4.446
 4736TIP3   OH214164   1.353   3.394   5.985
 4736TIP3    H114165   1.290   3.427   5.921
 4736TIP3    H214166   1.438   3.403   5.943
 4737TIP3   OH214167   0.877   4.313   2.921
 4737TIP3    H114168   0.848   4.307   3.013
 4737TIP3    H214169   0.941   4.383   2.920
 4738TIP3   OH214170   0.783   5.572   2.886
 4738TIP3    H114171   0.771   5.477   2.875
 4738TIP3    H214172   0.809   5.582   2.977
 4739TIP3   OH214173   4.336   2.086   2.766
 4739TIP3    H114174   4.279   2.088   2.689
 4739TIP3    H214175   4.418   2.125   2.736
 4740TIP3   OH214176   5.728   5.456   4.471
 4740TIP3    H114177   5.684   5.452   4.386
 4740TIP3    H214178   5.656   5.454   4.534
 4741TIP3   OH214179   6.723   6.820   1.527
 4741TIP3    H114180   6.730   6.914   1.540
 4741TIP3    H214181   6.811   6.791   1.503
 4742TIP3   OH214182   1.484   2.027   2.196
 4742TIP3    H114183   1.557   2.036   2.135
 4742TIP3    H214184   1.426   2.101   2.175
 4743TIP3   OH214185   7.688   0.455   0.766
 4743TIP3    H114186   7.627   0.526   0.746
 4743TIP3    H214187   7.639   0.375   0.746
 4744TIP3   OH214188   5.767   4.186   3.435
 4744TIP3    H114189   5.726   4.271   3.421
 4744TIP3    H214190   5.704   4.137   3.488
 4745TIP3   OH214191   2.188   0.072   6.187
 4745TIP3    H114192   2.241  -0.007   6.199
 4745TIP3    H214193   2.100   0.046   6.211
 4746TIP3   OH214194   5.821   5.017   5.194
 4746TIP3    H114195   5.875   4.952   5.239
 4746TIP3    H214196   5.801   5.082   5.261
 4747TIP3   OH214197   5.365   0.955   5.302
 4747TIP3    H114198   5.319   0.963   5.219
 4747TIP3    H214199   5.423   0.880   5.291
 4748TIP3   OH214200   3.134   0.709   5.804
 4748TIP3    H114201   3.093   0.657   5.735
 4748TIP3    H214202   3.061   0.758   5.844
 4749TIP3   OH214203   7.985   6.009   4.244
 4749TIP3    H114204   8.049   5.938   4.246
 4749TIP3    H214205   8.018   6.073   4.308
 4750TIP3   OH214206   2.597   1.996   5.092
 4750TIP3    H114207   2.574   1.945   5.014
 4750TIP3    H214208   2.513   2.013   5.135
 4751TIP3   OH214209   7.615   3.596   5.381
 4751TIP3    H114210   7.543   3.600   5.443
 4751TIP3    H214211   7.630   3.503   5.368
 4752TIP3   OH214212   7.719   7.592   2.374
 4752TIP3    H114213   7.645   7.556   2.422
 4752TIP3    H214214   7.789   7.598   2.439
 4753TIP3   OH214215   3.783   7.564   0.007
 4753TIP3    H114216   3.760   7.524   0.091
 4753TIP3    H214217   3.728   7.518  -0.057
 4754TIP3   OH214218   6.534   2.503   3.773
 4754TIP3    H114219   6.550   2.577   3.832
 4754TIP3    H214220   6.572   2.428   3.819
 4755TIP3   OH214221   3.551   1.767   1.774
 4755TIP3    H114222   3.570   1.708   1.702
 4755TIP3    H214223   3.622   1.831   1.773
 4756TIP3   OH214224   4.545   4.762   1.011
 4756TIP3    H114225   4.558   4.803   0.926
 4756TIP3    H214226   4.457   4.789   1.038
 4757TIP3   OH214227   7.967   3.936   6.511
 4757TIP3    H114228   7.985   3.900   6.597
 4757TIP3    H214229   7.877   3.910   6.492
 4758TIP3   OH214230   7.907   1.232   0.137
 4758TIP3    H114231   7.844   1.303   0.145
 4758TIP3    H214232   7.907   1.210   0.044
 4759TIP3   OH214233   0.219   2.838   5.564
 4759TIP3    H114234   0.285   2.835   5.634
 4759TIP3    H214235   0.270   2.835   5.483
 4760TIP3   OH214236   6.577   4.871   3.065
 4760TIP3    H114237   6.648   4.861   3.003
 4760TIP3    H214238   6.570   4.786   3.108
 4761TIP3   OH214239   3.363   2.450   1.612
 4761TIP3    H114240   3.335   2.381   1.551
 4761TIP3    H214241   3.321   2.427   1.695
 4762TIP3   OH214242   5.136   5.950   5.255
 4762TIP3    H114243   5.083   5.957   5.335
 4762TIP3    H214244   5.123   6.033   5.210
 4763TIP3   OH214245   7.498   0.993   1.201
 4763TIP3    H114246   7.526   0.936   1.130
 4763TIP3    H214247   7.484   0.935   1.275
 4764TIP3   OH214248   3.038   3.693   3.156
 4764TIP3    H114249   2.975   3.650   3.213
 4764TIP3    H214250   3.063   3.625   3.093
 4765TIP3   OH214251   1.214   3.778   2.701
 4765TIP3    H114252   1.203   3.770   2.796
 4765TIP3    H214253   1.129   3.750   2.665
 4766TIP3   OH214254   6.029   3.642   4.811
 4766TIP3    H114255   6.113   3.603   4.835
 4766TIP3    H214256   6.020   3.622   4.717
 4767TIP3   OH214257   1.435   6.333   6.167
 4767TIP3    H114258   1.410   6.419   6.201
 4767TIP3    H214259   1.443   6.345   6.073
 4768TIP3   OH214260   5.289   5.005   5.803
 4768TIP3    H114261   5.353   4.934   5.800
 4768TIP3    H214262   5.316   5.064   5.733
 4769TIP3   OH214263   7.482   2.236   3.698
 4769TIP3    H114264   7.488   2.249   3.793
 4769TIP3    H214265   7.505   2.144   3.685
 4770TIP3   OH214266   7.629   7.739   2.171
 4770TIP3    H114267   7.669   7.682   2.105
 4770TIP3    H214268   7.652   7.700   2.254
 4771TIP3   OH214269   2.183   5.141   2.181
 4771TIP3    H114270   2.160   5.110   2.094
 4771TIP3    H214271   2.277   5.161   2.176
 4772TIP3   OH214272   0.372   6.898   3.909
 4772TIP3    H114273   0.349   6.968   3.970
 4772TIP3    H214274   0.366   6.939   3.822
 4773TIP3   OH214275   2.750   3.944   0.235
 4773TIP3    H114276   2.656   3.930   0.218
 4773TIP3    H214277   2.793   3.872   0.189
 4774TIP3   OH214278   2.558   4.555   2.958
 4774TIP3    H114279   2.519   4.641   2.975
 4774TIP3    H214280   2.634   4.552   3.015
 4775TIP3   OH214281   3.078   6.282   6.670
 4775TIP3    H114282   3.023   6.261   6.746
 4775TIP3    H214283   3.089   6.377   6.674
 4776TIP3   OH214284   3.980   3.262   4.695
 4776TIP3    H114285   3.887   3.275   4.674
 4776TIP3    H214286   3.991   3.304   4.780
 4777TIP3   OH214287   5.918   0.652   4.149
 4777TIP3    H114288   5.944   0.571   4.104
 4777TIP3    H214289   5.949   0.722   4.092
 4778TIP3   OH214290   7.700   6.741   2.996
 4778TIP3    H114291   7.625   6.734   2.936
 4778TIP3    H214292   7.772   6.772   2.941
 4779TIP3   OH214293   2.379   1.827   4.574
 4779TIP3    H114294   2.328   1.799   4.498
 4779TIP3    H214295   2.381   1.749   4.630
 4780TIP3   OH214296   1.970   2.562   5.046
 4780TIP3    H114297   1.996   2.647   5.083
 4780TIP3    H214298   1.957   2.580   4.952
 4781TIP3   OH214299   1.077   1.322   5.990
 4781TIP3    H114300   1.119   1.387   6.046
 4781TIP3    H214301   0.986   1.322   6.018
 4782TIP3   OH214302   3.488   3.867   6.639
 4782TIP3    H114303   3.497   3.868   6.734
 4782TIP3    H214304   3.483   3.774   6.617
 4783TIP3   OH214305   1.109   0.732   4.541
 4783TIP3    H114306   1.144   0.643   4.551
 4783TIP3    H214307   1.021   0.727   4.579
 4784TIP3   OH214308   7.799   0.399   6.613
 4784TIP3    H114309   7.768   0.369   6.528
 4784TIP3    H214310   7.879   0.448   6.593
 4785TIP3   OH214311   2.662   1.421   1.412
 4785TIP3    H114312   2.752   1.438   1.437
 4785TIP3    H214313   2.633   1.351   1.470
 4786TIP3   OH214314   6.609   2.877   2.541
 4786TIP3    H114315   6.677   2.839   2.597
 4786TIP3    H214316   6.657   2.931   2.478
 4787TIP3   OH214317   6.954   1.359   4.687
 4787TIP3    H114318   6.933   1.266   4.687
 4787TIP3    H214319   6.977   1.378   4.778
 4788TIP3   OH214320   8.087   4.202   2.260
 4788TIP3    H114321   8.032   4.261   2.313
 4788TIP3    H214322   8.161   4.181   2.318
 4789TIP3   OH214323   5.118   4.928   6.444
 4789TIP3    H114324   5.201   4.906   6.403
 4789TIP3    H214325   5.092   4.848   6.491
 4790TIP3   OH214326   3.400   4.430   1.763
 4790TIP3    H114327   3.475   4.374   1.742
 4790TIP3    H214328   3.332   4.370   1.792
 4791TIP3   OH214329   4.841   7.261   2.183
 4791TIP3    H114330   4.814   7.186   2.131
 4791TIP3    H214331   4.881   7.321   2.120
 4792TIP3   OH214332   1.214   6.399   1.764
 4792TIP3    H114333   1.230   6.341   1.689
 4792TIP3    H214334   1.162   6.346   1.825
 4793TIP3   OH214335   8.106   3.498   1.754
 4793TIP3    H114336   8.136   3.548   1.678
 4793TIP3    H214337   8.013   3.519   1.762
 4794TIP3   OH214338   6.375   3.028   1.439
 4794TIP3    H114339   6.446   3.004   1.498
 4794TIP3    H214340   6.334   3.104   1.481
 4795TIP3   OH214341   2.127   5.042   0.460
 4795TIP3    H114342   2.049   5.050   0.516
 4795TIP3    H214343   2.092   5.045   0.371
 4796TIP3   OH214344   2.458   2.933   3.866
 4796TIP3    H114345   2.413   2.936   3.781
 4796TIP3    H214346   2.499   2.846   3.867
 4797TIP3   OH214347   6.190   4.208   3.129
 4797TIP3    H114348   6.227   4.120   3.137
 4797TIP3    H214349   6.098   4.194   3.105
 4798TIP3   OH214350   1.796   6.808   1.985
 4798TIP3    H114351   1.798   6.866   2.061
 4798TIP3    H214352   1.702   6.798   1.966
 4799TIP3   OH214353   6.719   7.752   0.362
 4799TIP3    H114354   6.766   7.828   0.397
 4799TIP3    H214355   6.784   7.683   0.358
 4800TIP3   OH214356   0.887   0.147   1.081
 4800TIP3    H114357   0.979   0.122   1.072
 4800TIP3    H214358   0.873   0.150   1.176
 4801TIP3   OH214359   3.956   5.961   0.070
 4801TIP3    H114360   3.925   5.936   0.157
 4801TIP3    H214361   3.945   6.056   0.067
 4802TIP3   OH214362   4.452   4.727   2.408
 4802TIP3    H114363   4.473   4.782   2.484
 4802TIP3    H214364   4.376   4.769   2.368
 4803TIP3   OH214365   8.059   0.023   4.212
 4803TIP3    H114366   8.120  -0.034   4.164
 4803TIP3    H214367   8.067   0.108   4.170
 4804TIP3   OH214368   5.455   5.086   0.398
 4804TIP3    H114369   5.525   5.142   0.363
 4804TIP3    H214370   5.492   5.049   0.478
 4805TIP3   OH214371   6.956   5.438   5.454
 4805TIP3    H114372   6.957   5.343   5.441
 4805TIP3    H214373   7.030   5.455   5.513
 4806TIP3   OH214374   0.341   4.460   3.427
 4806TIP3    H114375   0.369   4.452   3.336
 4806TIP3    H214376   0.407   4.411   3.476
 4807TIP3   OH214377   3.606   1.924   6.407
 4807TIP3    H114378   3.701   1.916   6.408
 4807TIP3    H214379   3.586   1.976   6.329
 4808TIP3   OH214380   4.311   5.310   4.549
 4808TIP3    H114381   4.313   5.301   4.644
 4808TIP3    H214382   4.250   5.381   4.532
 4809TIP3   OH214383   5.006   3.785   5.087
 4809TIP3    H114384   5.000   3.879   5.104
 4809TIP3    H214385   4.916   3.759   5.068
 4810TIP3   OH214386   0.833   2.455   3.482
 4810TIP3    H114387   0.743   2.475   3.454
 4810TIP3    H214388   0.882   2.448   3.400
 4811TIP3   OH214389   2.187   1.509   3.633
 4811TIP3    H114390   2.191   1.604   3.643
 4811TIP3    H214391   2.114   1.494   3.572
 4812TIP3   OH214392   1.590   3.755   1.523
 4812TIP3    H114393   1.575   3.725   1.612
 4812TIP3    H214394   1.574   3.850   1.527
 4813TIP3   OH214395   0.984   0.557   2.843
 4813TIP3    H114396   0.919   0.498   2.881
 4813TIP3    H214397   0.941   0.593   2.765
 4814TIP3   OH214398   1.468   4.132   6.152
 4814TIP3    H114399   1.496   4.047   6.116
 4814TIP3    H214400   1.533   4.152   6.219
 4815TIP3   OH214401   6.938   1.655   4.115
 4815TIP3    H114402   6.951   1.561   4.122
 4815TIP3    H214403   6.927   1.671   4.021
 4816TIP3   OH214404   1.286   7.642   3.725
 4816TIP3    H114405   1.326   7.575   3.779
 4816TIP3    H214406   1.287   7.605   3.636
 4817TIP3   OH214407   0.412   3.414   1.679
 4817TIP3    H114408   0.327   3.453   1.656
 4817TIP3    H214409   0.474   3.453   1.618
 4818TIP3   OH214410   0.875   0.841   0.909
 4818TIP3    H114411   0.970   0.838   0.921
 4818TIP3    H214412   0.841   0.776   0.972
 4819TIP3   OH214413   6.107   4.555   6.178
 4819TIP3    H114414   6.057   4.614   6.122
 4819TIP3    H214415   6.182   4.608   6.208
 4820TIP3   OH214416   6.660   5.552   1.750
 4820TIP3    H114417   6.619   5.592   1.827
 4820TIP3    H214418   6.586   5.522   1.697
 4821TIP3   OH214419   7.484   6.651   3.763
 4821TIP3    H114420   7.540   6.720   3.797
 4821TIP3    H214421   7.395   6.684   3.775
 4822TIP3   OH214422   7.302   3.963   1.715
 4822TIP3    H114423   7.241   4.031   1.687
 4822TIP3    H214424   7.284   3.952   1.808
 4823TIP3   OH214425   7.694   3.907   6.495
 4823TIP3    H114426   7.649   3.954   6.565
 4823TIP3    H214427   7.642   3.827   6.483
 4824TIP3   OH214428   7.742   2.329   4.301
 4824TIP3    H114429   7.822   2.323   4.250
 4824TIP3    H214430   7.732   2.242   4.339
 4825TIP3   OH214431   4.133   4.928   3.036
 4825TIP3    H114432   4.064   4.971   2.985
 4825TIP3    H214433   4.131   4.837   3.005
 4826TIP3   OH214434   7.189   7.391   3.751
 4826TIP3    H114435   7.190   7.306   3.794
 4826TIP3    H214436   7.234   7.376   3.668
 4827TIP3   OH214437   7.201   1.843   5.550
 4827TIP3    H114438   7.140   1.913   5.573
 4827TIP3    H214439   7.212   1.852   5.455
 4828TIP3   OH214440   7.663   7.643   1.418
 4828TIP3    H114441   7.606   7.716   1.394
 4828TIP3    H214442   7.644   7.575   1.354
 4829TIP3   OH214443   0.678   6.184   5.786
 4829TIP3    H114444   0.756   6.192   5.841
 4829TIP3    H214445   0.620   6.254   5.816
 4830TIP3   OH214446   6.087   7.662   4.222
 4830TIP3    H114447   6.177   7.640   4.247
 4830TIP3    H214448   6.041   7.671   4.305
 4831TIP3   OH214449   4.784   2.445   5.713
 4831TIP3    H114450   4.829   2.520   5.676
 4831TIP3    H214451   4.715   2.482   5.768
 4832TIP3   OH214452   4.645   2.984   6.742
 4832TIP3    H114453   4.720   2.963   6.687
 4832TIP3    H214454   4.683   3.021   6.822
 4833TIP3   OH214455   7.457   7.807   1.288
 4833TIP3    H114456   7.413   7.737   1.241
 4833TIP3    H214457   7.393   7.878   1.292
 4834TIP3   OH214458   2.593   5.675   1.361
 4834TIP3    H114459   2.627   5.615   1.294
 4834TIP3    H214460   2.646   5.656   1.439
 4835TIP3   OH214461   4.537   0.161   3.831
 4835TIP3    H114462   4.500   0.123   3.910
 4835TIP3    H214463   4.580   0.087   3.787
 4836TIP3   OH214464   5.308   5.487   2.902
 4836TIP3    H114465   5.217   5.457   2.895
 4836TIP3    H214466   5.344   5.439   2.976
 4837TIP3   OH214467   4.863   0.859   2.879
 4837TIP3    H114468   4.956   0.859   2.899
 4837TIP3    H214469   4.850   0.936   2.823
 4838TIP3   OH214470   1.111   5.558   2.471
 4838TIP3    H114471   1.058   5.626   2.429
 4838TIP3    H214472   1.061   5.533   2.548
 4839TIP3   OH214473   2.100   0.343   6.557
 4839TIP3    H114474   2.128   0.434   6.569
 4839TIP3    H214475   2.013   0.350   6.517
 4840TIP3   OH214476   5.575   3.118   2.481
 4840TIP3    H114477   5.571   3.056   2.554
 4840TIP3    H214478   5.621   3.072   2.411
 4841TIP3   OH214479   4.792   5.354   2.717
 4841TIP3    H114480   4.718   5.395   2.762
 4841TIP3    H214481   4.752   5.296   2.652
 4842TIP3   OH214482   1.534   5.623   5.934
 4842TIP3    H114483   1.608   5.612   5.993
 4842TIP3    H214484   1.482   5.694   5.974
 4843TIP3   OH214485   5.015   5.301   6.274
 4843TIP3    H114486   4.959   5.354   6.330
 4843TIP3    H214487   5.091   5.280   6.329
 4844TIP3   OH214488   5.408   3.490   0.252
 4844TIP3    H114489   5.456   3.571   0.270
 4844TIP3    H214490   5.403   3.445   0.337
 4845TIP3   OH214491   5.813   7.615   4.769
 4845TIP3    H114492   5.773   7.569   4.843
 4845TIP3    H214493   5.786   7.706   4.779
 4846TIP3   OH214494   2.837   1.596   3.341
 4846TIP3    H114495   2.829   1.681   3.385
 4846TIP3    H214496   2.757   1.549   3.366
 4847TIP3   OH214497   0.092   0.146   4.247
 4847TIP3    H114498   0.127   0.165   4.334
 4847TIP3    H214499   0.032   0.219   4.229
 4848TIP3   OH214500   2.402   1.177   6.638
 4848TIP3    H114501   2.316   1.169   6.679
 4848TIP3    H214502   2.455   1.225   6.702
 4849TIP3   OH214503   2.121   6.219   3.086
 4849TIP3    H114504   2.117   6.123   3.091
 4849TIP3    H214505   2.047   6.249   3.140
 4850TIP3   OH214506   5.679   2.881   3.501
 4850TIP3    H114507   5.662   2.924   3.585
 4850TIP3    H214508   5.729   2.803   3.524
 4851TIP3   OH214509   7.571   1.344   1.896
 4851TIP3    H114510   7.638   1.348   1.828
 4851TIP3    H214511   7.561   1.435   1.925
 4852TIP3   OH214512   7.959   0.137   4.432
 4852TIP3    H114513   7.891   0.200   4.409
 4852TIP3    H214514   7.984   0.097   4.349
 4853TIP3   OH214515   6.831   1.471   3.591
 4853TIP3    H114516   6.834   1.380   3.620
 4853TIP3    H214517   6.760   1.473   3.526
 4854TIP3   OH214518   5.498   5.044   2.814
 4854TIP3    H114519   5.547   5.110   2.765
 4854TIP3    H214520   5.410   5.048   2.778
 4855TIP3   OH214521   3.803   6.987   3.752
 4855TIP3    H114522   3.834   7.013   3.838
 4855TIP3    H214523   3.808   6.892   3.752
 4856TIP3   OH214524   3.158   2.456   4.499
 4856TIP3    H114525   3.106   2.409   4.564
 4856TIP3    H214526   3.095   2.479   4.430
 4857TIP3   OH214527   5.152   1.273   5.806
 4857TIP3    H114528   5.126   1.338   5.741
 4857TIP3    H214529   5.089   1.283   5.877
 4858TIP3   OH214530   1.792   7.457   1.832
 4858TIP3    H114531   1.791   7.458   1.928
 4858TIP3    H214532   1.699   7.459   1.808
 4859TIP3   OH214533   1.747   4.624   1.379
 4859TIP3    H114534   1.755   4.624   1.283
 4859TIP3    H214535   1.661   4.663   1.396
 4860TIP3   OH214536   5.332   6.092   3.067
 4860TIP3    H114537   5.412   6.053   3.033
 4860TIP3    H214538   5.281   6.019   3.101
 4861TIP3   OH214539   8.032   3.195   4.749
 4861TIP3    H114540   8.049   3.147   4.830
 4861TIP3    H214541   7.939   3.217   4.753
 4862TIP3   OH214542   0.550   4.091   0.434
 4862TIP3    H114543   0.493   4.156   0.391
 4862TIP3    H214544   0.496   4.013   0.441
 4863TIP3   OH214545   5.950   7.774   4.000
 4863TIP3    H114546   6.013   7.732   3.942
 4863TIP3    H214547   5.982   7.756   4.088
 4864TIP3   OH214548   5.636   4.740   1.297
 4864TIP3    H114549   5.547   4.730   1.263
 4864TIP3    H214550   5.627   4.737   1.392
 4865TIP3   OH214551   0.137   4.241   5.617
 4865TIP3    H114552   0.147   4.162   5.669
 4865TIP3    H214553   0.065   4.289   5.658
 4866TIP3   OH214554   7.203   3.467   0.440
 4866TIP3    H114555   7.227   3.494   0.351
 4866TIP3    H214556   7.107   3.462   0.439
 4867TIP3   OH214557   6.505   3.816   0.822
 4867TIP3    H114558   6.434   3.840   0.883
 4867TIP3    H214559   6.557   3.895   0.814
 4868TIP3   OH214560   3.873   6.618   2.077
 4868TIP3    H114561   3.834   6.703   2.096
 4868TIP3    H214562   3.834   6.558   2.140
 4869TIP3   OH214563   1.477   7.262   6.344
 4869TIP3    H114564   1.455   7.188   6.400
 4869TIP3    H214565   1.491   7.224   6.257
 4870TIP3   OH214566   5.833   2.561   5.676
 4870TIP3    H114567   5.769   2.620   5.635
 4870TIP3    H214568   5.918   2.596   5.650
 4871TIP3   OH214569   6.536   3.933   1.169
 4871TIP3    H114570   6.527   3.852   1.218
 4871TIP3    H214571   6.514   4.002   1.232
 4872TIP3   OH214572   6.411   4.236   4.941
 4872TIP3    H114573   6.441   4.164   4.995
 4872TIP3    H214574   6.488   4.263   4.891
 4873TIP3   OH214575   1.226   0.832   2.355
 4873TIP3    H114576   1.237   0.870   2.442
 4873TIP3    H214577   1.314   0.835   2.316
 4874TIP3   OH214578   4.178   7.627   0.521
 4874TIP3    H114579   4.204   7.617   0.612
 4874TIP3    H214580   4.204   7.717   0.498
 4875TIP3   OH214581   7.334   5.752   5.071
 4875TIP3    H114582   7.318   5.658   5.077
 4875TIP3    H214583   7.272   5.783   5.005
 4876TIP3   OH214584   7.379   4.962   2.217
 4876TIP3    H114585   7.317   4.901   2.256
 4876TIP3    H214586   7.324   5.026   2.171
 4877TIP3   OH214587   4.159   2.903   1.898
 4877TIP3    H114588   4.085   2.928   1.953
 4877TIP3    H214589   4.191   2.821   1.936
 4878TIP3   OH214590   7.435   2.465   0.438
 4878TIP3    H114591   7.424   2.417   0.356
 4878TIP3    H214592   7.503   2.529   0.420
 4879TIP3   OH214593   8.099   2.356   1.266
 4879TIP3    H114594   8.082   2.367   1.172
 4879TIP3    H214595   8.128   2.265   1.274
 4880TIP3   OH214596   1.222   3.788   5.156
 4880TIP3    H114597   1.144   3.771   5.209
 4880TIP3    H214598   1.272   3.707   5.161
 4881TIP3   OH214599   1.146   4.922   4.199
 4881TIP3    H114600   1.077   4.873   4.243
 4881TIP3    H214601   1.118   4.927   4.108
 4882TIP3   OH214602   5.261   1.675   6.547
 4882TIP3    H114603   5.233   1.746   6.488
 4882TIP3    H214604   5.216   1.598   6.514
 4883TIP3   OH214605   4.415   5.816   5.063
 4883TIP3    H114606   4.429   5.910   5.061
 4883TIP3    H214607   4.495   5.779   5.026
 4884TIP3   OH214608   7.438   3.297   2.668
 4884TIP3    H114609   7.466   3.268   2.581
 4884TIP3    H214610   7.407   3.387   2.655
 4885TIP3   OH214611   4.134   6.838   4.885
 4885TIP3    H114612   4.228   6.851   4.871
 4885TIP3    H214613   4.124   6.837   4.980
 4886TIP3   OH214614   4.260   6.530   1.071
 4886TIP3    H114615   4.257   6.510   1.164
 4886TIP3    H214616   4.352   6.521   1.047
 4887TIP3   OH214617   3.996   1.628   2.420
 4887TIP3    H114618   4.086   1.644   2.449
 4887TIP3    H214619   3.943   1.688   2.474
 4888TIP3   OH214620   0.878   0.315   5.367
 4888TIP3    H114621   0.961   0.325   5.412
 4888TIP3    H214622   0.831   0.249   5.418
 4889TIP3   OH214623   5.765   2.971   4.282
 4889TIP3    H114624   5.857   2.994   4.296
 4889TIP3    H214625   5.724   2.984   4.368
 4890TIP3   OH214626   5.481   1.136   4.211
 4890TIP3    H114627   5.411   1.090   4.165
 4890TIP3    H214628   5.488   1.092   4.295
 4891TIP3   OH214629   5.205   1.828   4.998
 4891TIP3    H114630   5.282   1.831   5.055
 4891TIP3    H214631   5.228   1.763   4.931
 4892TIP3   OH214632   3.556   7.279   3.290
 4892TIP3    H114633   3.592   7.361   3.258
 4892TIP3    H214634   3.630   7.234   3.329
 4893TIP3   OH214635   0.474   4.990   4.219
 4893TIP3    H114636   0.453   4.965   4.309
 4893TIP3    H214637   0.470   5.085   4.219
 4894TIP3   OH214638   6.340   5.355   0.284
 4894TIP3    H114639   6.257   5.403   0.281
 4894TIP3    H214640   6.324   5.285   0.347
 4895TIP3   OH214641   8.089   0.214   5.278
 4895TIP3    H114642   8.183   0.217   5.261
 4895TIP3    H214643   8.076   0.271   5.354
 4896TIP3   OH214644   5.339   1.128   0.531
 4896TIP3    H114645   5.433   1.127   0.549
 4896TIP3    H214646   5.302   1.177   0.604
 4897TIP3   OH214647   4.334   0.722   6.316
 4897TIP3    H114648   4.410   0.678   6.279
 4897TIP3    H214649   4.275   0.651   6.342
 4898TIP3   OH214650   0.983   7.247   2.608
 4898TIP3    H114651   1.072   7.235   2.640
 4898TIP3    H214652   0.987   7.325   2.553
 4899TIP3   OH214653   8.182   7.274   3.320
 4899TIP3    H114654   8.156   7.183   3.328
 4899TIP3    H214655   8.169   7.311   3.408
 4900TIP3   OH214656   0.964   2.114   1.124
 4900TIP3    H114657   0.947   2.083   1.213
 4900TIP3    H214658   1.059   2.113   1.116
 4901TIP3   OH214659   4.883   4.106   0.009
 4901TIP3    H114660   4.966   4.114   0.057
 4901TIP3    H214661   4.884   4.178  -0.053
 4902TIP3   OH214662   4.271   4.067   6.646
 4902TIP3    H114663   4.177   4.070   6.666
 4902TIP3    H214664   4.281   4.118   6.566
 4903TIP3   OH214665   2.512   2.594   2.894
 4903TIP3    H114666   2.589   2.617   2.842
 4903TIP3    H214667   2.458   2.541   2.835
 4904TIP3   OH214668   6.048   2.002   0.965
 4904TIP3    H114669   5.994   1.932   0.928
 4904TIP3    H214670   6.137   1.966   0.963
 4905TIP3   OH214671   6.450   5.430   1.930
 4905TIP3    H114672   6.377   5.368   1.934
 4905TIP3    H214673   6.425   5.492   1.862
 4906TIP3   OH214674   0.154   6.481   4.441
 4906TIP3    H114675   0.238   6.457   4.402
 4906TIP3    H214676   0.120   6.552   4.386
 4907TIP3   OH214677   3.060   4.033   0.573
 4907TIP3    H114678   3.017   3.991   0.499
 4907TIP3    H214679   2.988   4.066   0.627
 4908TIP3   OH214680   1.884   0.292   2.278
 4908TIP3    H114681   1.861   0.283   2.185
 4908TIP3    H214682   1.930   0.210   2.299
 4909TIP3   OH214683   6.839   1.140   6.053
 4909TIP3    H114684   6.902   1.093   5.999
 4909TIP3    H214685   6.814   1.216   6.000
 4910TIP3   OH214686   3.777   4.425   4.477
 4910TIP3    H114687   3.706   4.367   4.448
 4910TIP3    H214688   3.804   4.390   4.562
 4911TIP3   OH214689   2.927   4.045   2.621
 4911TIP3    H114690   2.854   3.984   2.633
 4911TIP3    H214691   2.958   4.063   2.710
 4912TIP3   OH214692   5.096   0.351   3.003
 4912TIP3    H114693   5.145   0.416   2.952
 4912TIP3    H214694   5.004   0.374   2.989
 4913TIP3   OH214695   2.408   5.372   5.805
 4913TIP3    H114696   2.322   5.410   5.825
 4913TIP3    H214697   2.433   5.413   5.722
 4914TIP3   OH214698   4.809   6.901   3.862
 4914TIP3    H114699   4.741   6.922   3.926
 4914TIP3    H214700   4.769   6.919   3.777
 4915TIP3   OH214701   5.511   0.708   3.736
 4915TIP3    H114702   5.596   0.686   3.772
 4915TIP3    H214703   5.525   0.790   3.688
 4916TIP3   OH214704   7.278   0.541   4.160
 4916TIP3    H114705   7.253   0.455   4.126
 4916TIP3    H214706   7.301   0.592   4.082
 4917TIP3   OH214707   6.228   7.518   6.744
 4917TIP3    H114708   6.181   7.550   6.820
 4917TIP3    H214709   6.239   7.424   6.760
 4918TIP3   OH214710   7.018   7.751   5.094
 4918TIP3    H114711   6.941   7.782   5.048
 4918TIP3    H214712   7.018   7.656   5.082
 4919TIP3   OH214713   1.468   5.383   3.342
 4919TIP3    H114714   1.524   5.369   3.419
 4919TIP3    H214715   1.447   5.294   3.312
 4920TIP3   OH214716   5.984   5.080   5.557
 4920TIP3    H114717   6.075   5.100   5.533
 4920TIP3    H214718   5.983   4.986   5.573
 4921TIP3   OH214719   0.238   5.545  -0.001
 4921TIP3    H114720   0.275   5.624  -0.039
 4921TIP3    H214721   0.271   5.543   0.089
 4922TIP3   OH214722   5.535   4.187   1.701
 4922TIP3    H114723   5.485   4.154   1.627
 4922TIP3    H214724   5.620   4.213   1.664
 4923TIP3   OH214725   5.204   2.331   5.368
 4923TIP3    H114726   5.168   2.415   5.398
 4923TIP3    H214727   5.129   2.284   5.333
 4924TIP3   OH214728   0.331   6.028   3.193
 4924TIP3    H114729   0.425   6.010   3.199
 4924TIP3    H214730   0.316   6.098   3.256
 4925TIP3   OH214731   5.020   6.174   3.716
 4925TIP3    H114732   5.054   6.152   3.802
 4925TIP3    H214733   4.965   6.099   3.692
 4926TIP3   OH214734   1.091   2.829   5.983
 4926TIP3    H114735   1.112   2.898   6.045
 4926TIP3    H214736   1.173   2.812   5.936
 4927TIP3   OH214737   0.096   3.741   2.503
 4927TIP3    H114738   0.142   3.697   2.574
 4927TIP3    H214739   0.147   3.820   2.486
 4928TIP3   OH214740   5.640   5.814   5.287
 4928TIP3    H114741   5.667   5.866   5.363
 4928TIP3    H214742   5.545   5.826   5.283
 4929TIP3   OH214743   0.961   6.178   5.013
 4929TIP3    H114744   1.047   6.213   4.994
 4929TIP3    H214745   0.902   6.253   5.008
 4930TIP3   OH214746   3.285   6.182   6.045
 4930TIP3    H114747   3.276   6.086   6.047
 4930TIP3    H214748   3.266   6.206   5.955
 4931TIP3   OH214749   4.843   7.461   4.027
 4931TIP3    H114750   4.852   7.373   3.991
 4931TIP3    H214751   4.774   7.501   3.974
 4932TIP3   OH214752   4.016   5.742   3.403
 4932TIP3    H114753   3.997   5.827   3.444
 4932TIP3    H214754   3.938   5.723   3.351
 4933TIP3   OH214755   5.004   4.739   2.763
 4933TIP3    H114756   4.969   4.726   2.675
 4933TIP3    H214757   4.955   4.814   2.797
 4934TIP3   OH214758   5.261   0.315   4.911
 4934TIP3    H114759   5.214   0.374   4.852
 4934TIP3    H214760   5.352   0.344   4.908
 4935TIP3   OH214761   1.080   3.123   5.532
 4935TIP3    H114762   1.174   3.107   5.518
 4935TIP3    H214763   1.070   3.217   5.519
 4936TIP3   OH214764   0.018   3.140   2.565
 4936TIP3    H114765   0.100   3.092   2.578
 4936TIP3    H214766  -0.012   3.111   2.479
 4937TIP3   OH214767   0.145   5.323   1.065
 4937TIP3    H114768   0.224   5.351   1.019
 4937TIP3    H214769   0.121   5.240   1.024
 4938TIP3   OH214770   7.034   0.981   3.649
 4938TIP3    H114771   6.985   0.982   3.731
 4938TIP3    H214772   6.967   0.973   3.581
 4939TIP3   OH214773   3.238   2.866   1.601
 4939TIP3    H114774   3.319   2.833   1.640
 4939TIP3    H214775   3.222   2.949   1.646
 4940TIP3   OH214776   6.680   5.633   0.974
 4940TIP3    H114777   6.727   5.716   0.977
 4940TIP3    H214778   6.601   5.652   0.924
 4941TIP3   OH214779   1.555   5.045   6.261
 4941TIP3    H114780   1.541   5.058   6.167
 4941TIP3    H214781   1.470   5.061   6.300
 4942TIP3   OH214782   7.960   7.684   3.569
 4942TIP3    H114783   8.000   7.602   3.542
 4942TIP3    H214784   7.934   7.669   3.660
 4943TIP3   OH214785   2.650   2.461   1.897
 4943TIP3    H114786   2.657   2.377   1.943
 4943TIP3    H214787   2.560   2.462   1.864
 4944TIP3   OH214788   1.525   3.692   5.610
 4944TIP3    H114789   1.585   3.756   5.648
 4944TIP3    H214790   1.482   3.652   5.685
 4945TIP3   OH214791   0.551   5.885   4.561
 4945TIP3    H114792   0.563   5.870   4.655
 4945TIP3    H214793   0.543   5.980   4.553
 4946TIP3   OH214794   6.655   6.852   1.931
 4946TIP3    H114795   6.609   6.934   1.913
 4946TIP3    H214796   6.744   6.867   1.899
 4947TIP3   OH214797   5.962   5.516   1.332
 4947TIP3    H114798   5.949   5.449   1.265
 4947TIP3    H214799   5.970   5.598   1.284
 4948TIP3   OH214800   5.105   7.112   0.471
 4948TIP3    H114801   5.041   7.048   0.440
 4948TIP3    H214802   5.090   7.189   0.415
 4949TIP3   OH214803   0.370   7.082   5.860
 4949TIP3    H114804   0.315   7.138   5.914
 4949TIP3    H214805   0.402   7.015   5.921
 4950TIP3   OH214806   5.867   4.623   5.637
 4950TIP3    H114807   5.838   4.557   5.575
 4950TIP3    H214808   5.862   4.581   5.722
 4951TIP3   OH214809   5.903   3.840   0.800
 4951TIP3    H114810   5.956   3.854   0.721
 4951TIP3    H214811   5.830   3.786   0.771
 4952TIP3   OH214812   2.500   0.256   3.855
 4952TIP3    H114813   2.451   0.320   3.804
 4952TIP3    H214814   2.584   0.299   3.875
 4953TIP3   OH214815   3.679   3.091   4.012
 4953TIP3    H114816   3.611   3.090   3.945
 4953TIP3    H214817   3.736   3.017   3.989
 4954TIP3   OH214818   6.642   0.716   3.076
 4954TIP3    H114819   6.598   0.792   3.115
 4954TIP3    H214820   6.708   0.754   3.017
 4955TIP3   OH214821   3.817   0.763   2.517
 4955TIP3    H114822   3.813   0.785   2.424
 4955TIP3    H214823   3.864   0.679   2.520
 4956TIP3   OH214824   4.414   7.715   3.777
 4956TIP3    H114825   4.404   7.707   3.682
 4956TIP3    H214826   4.334   7.677   3.813
 4957TIP3   OH214827   4.428   2.422   3.761
 4957TIP3    H114828   4.479   2.504   3.765
 4957TIP3    H214829   4.408   2.411   3.668
 4958TIP3   OH214830   6.532   4.449   2.215
 4958TIP3    H114831   6.451   4.399   2.224
 4958TIP3    H214832   6.587   4.420   2.289
 4959TIP3   OH214833   2.496   1.425   0.143
 4959TIP3    H114834   2.567   1.382   0.095
 4959TIP3    H214835   2.513   1.405   0.235
 4960TIP3   OH214836   0.713   3.405   4.681
 4960TIP3    H114837   0.790   3.434   4.631
 4960TIP3    H214838   0.640   3.455   4.643
 4961TIP3   OH214839   6.886   6.301   4.036
 4961TIP3    H114840   6.919   6.232   3.978
 4961TIP3    H214841   6.922   6.280   4.122
 4962TIP3   OH214842   4.068   5.041   4.635
 4962TIP3    H114843   3.973   5.029   4.629
 4962TIP3    H214844   4.100   5.020   4.547
 4963TIP3   OH214845   5.782   4.824   0.789
 4963TIP3    H114846   5.733   4.806   0.709
 4963TIP3    H214847   5.739   4.770   0.856
 4964TIP3   OH214848   5.665   6.507   0.746
 4964TIP3    H114849   5.616   6.429   0.720
 4964TIP3    H214850   5.703   6.539   0.665
 4965TIP3   OH214851   5.661   7.219   1.750
 4965TIP3    H114852   5.589   7.166   1.784
 4965TIP3    H214853   5.693   7.171   1.674
 4966TIP3   OH214854   4.328   7.043   3.941
 4966TIP3    H114855   4.354   7.133   3.919
 4966TIP3    H214856   4.246   7.053   3.988
 4967TIP3   OH214857   0.870   1.228   3.226
 4967TIP3    H114858   0.801   1.294   3.238
 4967TIP3    H214859   0.845   1.157   3.286
 4968TIP3   OH214860   3.629   5.573   0.925
 4968TIP3    H114861   3.578   5.510   0.875
 4968TIP3    H214862   3.716   5.534   0.934
 4969TIP3   OH214863   3.354   6.381   4.366
 4969TIP3    H114864   3.266   6.408   4.340
 4969TIP3    H214865   3.400   6.463   4.385
 4970TIP3   OH214866   8.159   1.650   4.952
 4970TIP3    H114867   8.188   1.561   4.933
 4970TIP3    H214868   8.153   1.654   5.047
 4971TIP3   OH214869   8.238   5.331   5.333
 4971TIP3    H114870   8.202   5.277   5.403
 4971TIP3    H214871   8.272   5.408   5.378
 4972TIP3   OH214872   0.081   4.124   1.748
 4972TIP3    H114873   0.088   4.064   1.673
 4972TIP3    H214874   0.056   4.208   1.710
 4973TIP3   OH214875   1.314   0.754   5.401
 4973TIP3    H114876   1.275   0.722   5.483
 4973TIP3    H214877   1.241   0.759   5.340
 4974TIP3   OH214878   2.011   4.226   2.312
 4974TIP3    H114879   2.051   4.234   2.398
 4974TIP3    H214880   2.083   4.236   2.251
 4975TIP3   OH214881   5.900   3.384   3.677
 4975TIP3    H114882   5.975   3.442   3.688
 4975TIP3    H214883   5.831   3.440   3.642
 4976TIP3   OH214884   7.388   7.020   2.960
 4976TIP3    H114885   7.429   6.993   3.043
 4976TIP3    H214886   7.319   7.081   2.985
 4977TIP3   OH214887   2.138   3.693   6.362
 4977TIP3    H114888   2.090   3.725   6.285
 4977TIP3    H214889   2.157   3.772   6.412
 4978TIP3   OH214890   6.491   1.411   0.599
 4978TIP3    H114891   6.503   1.343   0.665
 4978TIP3    H214892   6.401   1.441   0.611
 4979TIP3   OH214893   1.519   6.174   3.909
 4979TIP3    H114894   1.609   6.148   3.925
 4979TIP3    H214895   1.476   6.094   3.878
 4980TIP3   OH214896   7.165   6.924   6.048
 4980TIP3    H114897   7.189   6.929   6.141
 4980TIP3    H214898   7.218   6.992   6.007
 4981TIP3   OH214899   1.370   1.779   0.490
 4981TIP3    H114900   1.396   1.763   0.581
 4981TIP3    H214901   1.438   1.735   0.439
 4982TIP3   OH214902   5.809   4.937   0.381
 4982TIP3    H114903   5.846   4.935   0.292
 4982TIP3    H214904   5.755   4.858   0.385
 4983TIP3   OH214905   1.960   6.061   5.883
 4983TIP3    H114906   2.018   5.988   5.860
 4983TIP3    H214907   1.891   6.059   5.817
 4984TIP3   OH214908   6.433   3.797   5.782
 4984TIP3    H114909   6.451   3.891   5.785
 4984TIP3    H214910   6.492   3.763   5.715
 4985TIP3   OH214911   5.942   1.259   3.691
 4985TIP3    H114912   5.994   1.243   3.612
 4985TIP3    H214913   6.006   1.255   3.763
 4986TIP3   OH214914   1.179   2.875   2.869
 4986TIP3    H114915   1.087   2.853   2.856
 4986TIP3    H214916   1.218   2.867   2.782
 4987TIP3   OH214917   2.785   6.167   0.218
 4987TIP3    H114918   2.846   6.205   0.154
 4987TIP3    H214919   2.707   6.145   0.166
 4988TIP3   OH214920   7.789   1.322   1.725
 4988TIP3    H114921   7.866   1.360   1.768
 4988TIP3    H214922   7.824   1.249   1.674
 4989TIP3   OH214923   4.248   0.351   5.241
 4989TIP3    H114924   4.229   0.296   5.165
 4989TIP3    H214925   4.213   0.303   5.315
 4990TIP3   OH214926   8.240   2.367   2.802
 4990TIP3    H114927   8.147   2.387   2.806
 4990TIP3    H214928   8.282   2.437   2.853
 4991TIP3   OH214929   7.399   4.547   4.239
 4991TIP3    H114930   7.327   4.499   4.198
 4991TIP3    H214931   7.373   4.556   4.331
 4992TIP3   OH214932   3.164   3.003   1.815
 4992TIP3    H114933   3.240   3.060   1.832
 4992TIP3    H214934   3.089   3.054   1.844
 4993TIP3   OH214935   4.070   7.689   5.456
 4993TIP3    H114936   4.009   7.762   5.466
 4993TIP3    H214937   4.016   7.617   5.422
 4994TIP3   OH214938   3.931   4.376   4.715
 4994TIP3    H114939   3.937   4.378   4.810
 4994TIP3    H214940   3.881   4.297   4.696
 4995TIP3   OH214941   2.789   3.744   4.431
 4995TIP3    H114942   2.730   3.769   4.360
 4995TIP3    H214943   2.800   3.823   4.482
 4996TIP3   OH214944   3.527   1.339   4.071
 4996TIP3    H114945   3.590   1.345   3.998
 4996TIP3    H214946   3.568   1.277   4.131
 4997TIP3   OH214947   3.195   2.193   1.308
 4997TIP3    H114948   3.219   2.251   1.235
 4997TIP3    H214949   3.100   2.203   1.314
 4998TIP3   OH214950   0.847   3.970   4.327
 4998TIP3    H114951   0.881   4.038   4.385
 4998TIP3    H214952   0.921   3.909   4.316
 4999TIP3   OH214953   5.123   4.118   2.061
 4999TIP3    H114954   5.093   4.144   2.148
 4999TIP3    H214955   5.045   4.125   2.006
 5000TIP3   OH214956   4.262   7.370   6.024
 5000TIP3    H114957   4.247   7.292   6.078
 5000TIP3    H214958   4.285   7.335   5.938
 5001TIP3   OH214959   7.587   0.856   4.523
 5001TIP3    H114960   7.646   0.918   4.564
 5001TIP3    H214961   7.640   0.811   4.458
 5002TIP3   OH214962   3.391   3.361   5.807
 5002TIP3    H114963   3.365   3.313   5.886
 5002TIP3    H214964   3.432   3.294   5.752
 5003TIP3   OH214965   2.865   2.086   1.716
 5003TIP3    H114966   2.957   2.104   1.694
 5003TIP3    H214967   2.850   1.998   1.683
 5004TIP3   OH214968   2.339   5.688   5.236
 5004TIP3    H114969   2.262   5.631   5.232
 5004TIP3    H214970   2.370   5.692   5.145
 5005TIP3   OH214971   3.391   5.345   0.255
 5005TIP3    H114972   3.378   5.366   0.347
 5005TIP3    H214973   3.397   5.431   0.212
 5006TIP3   OH214974   7.811   6.137   0.144
 5006TIP3    H114975   7.771   6.203   0.200
 5006TIP3    H214976   7.808   6.056   0.195
 5007TIP3   OH214977   1.168   7.119   1.928
 5007TIP3    H114978   1.202   7.138   1.841
 5007TIP3    H214979   1.233   7.061   1.967
 5008TIP3   OH214980   1.142   7.247   2.343
 5008TIP3    H114981   1.230   7.235   2.377
 5008TIP3    H214982   1.115   7.159   2.314
 5009TIP3   OH214983   5.792   3.725   4.423
 5009TIP3    H114984   5.776   3.659   4.490
 5009TIP3    H214985   5.887   3.735   4.421
 5010TIP3   OH214986   0.201   1.647   4.746
 5010TIP3    H114987   0.229   1.699   4.821
 5010TIP3    H214988   0.264   1.668   4.678
 5011TIP3   OH214989   5.567   4.436   4.905
 5011TIP3    H114990   5.625   4.367   4.936
 5011TIP3    H214991   5.614   4.517   4.924
 5012TIP3   OH214992   6.259   5.407   2.291
 5012TIP3    H114993   6.221   5.439   2.373
 5012TIP3    H214994   6.345   5.448   2.286
 5013TIP3   OH214995   2.833   0.182   4.496
 5013TIP3    H114996   2.870   0.100   4.530
 5013TIP3    H214997   2.785   0.219   4.570
 5014TIP3   OH214998   7.789   0.661   4.967
 5014TIP3    H114999   7.716   0.674   4.907
 5014TIP3    H215000   7.858   0.719   4.934
 5015TIP3   OH215001   1.992   3.034   5.120
 5015TIP3    H115002   2.010   3.092   5.047
 5015TIP3    H215003   2.062   3.051   5.183
 5016TIP3   OH215004   8.203   7.114   1.581
 5016TIP3    H115005   8.201   7.122   1.677
 5016TIP3    H215006   8.130   7.168   1.552
 5017TIP3   OH215007   7.564   7.089   1.776
 5017TIP3    H115008   7.564   6.993   1.777
 5017TIP3    H215009   7.582   7.112   1.686
 5018TIP3   OH215010   0.906   1.431   3.744
 5018TIP3    H115011   0.836   1.445   3.808
 5018TIP3    H215012   0.861   1.401   3.666
 5019TIP3   OH215013   0.622   2.979   5.580
 5019TIP3    H115014   0.653   2.906   5.526
 5019TIP3    H215015   0.596   3.046   5.516
 5020TIP3   OH215016   4.861   2.073   4.547
 5020TIP3    H115017   4.858   2.066   4.452
 5020TIP3    H215018   4.828   2.161   4.566
 5021TIP3   OH215019   6.674   3.968   5.911
 5021TIP3    H115020   6.619   4.032   5.867
 5021TIP3    H215021   6.620   3.889   5.915
 5022TIP3   OH215022   4.221   2.779   0.628
 5022TIP3    H115023   4.230   2.737   0.713
 5022TIP3    H215024   4.299   2.751   0.579
 5023TIP3   OH215025   3.551   2.746   4.977
 5023TIP3    H115026   3.497   2.723   4.901
 5023TIP3    H215027   3.562   2.841   4.971
 5024TIP3   OH215028   2.635   0.911   3.038
 5024TIP3    H115029   2.575   0.984   3.023
 5024TIP3    H215030   2.582   0.844   3.080
 5025TIP3   OH215031   1.946   5.592   1.859
 5025TIP3    H115032   1.872   5.613   1.916
 5025TIP3    H215033   1.948   5.662   1.794
 5026TIP3   OH215034   2.604   0.227   6.653
 5026TIP3    H115035   2.598   0.134   6.631
 5026TIP3    H215036   2.697   0.243   6.665
 5027TIP3   OH215037   4.615   0.259   3.437
 5027TIP3    H115038   4.600   0.325   3.506
 5027TIP3    H215039   4.634   0.311   3.359
 5028TIP3   OH215040   6.029   6.115   5.300
 5028TIP3    H115041   5.975   6.191   5.323
 5028TIP3    H215042   6.117   6.151   5.291
 5029TIP3   OH215043   1.061   5.738   3.430
 5029TIP3    H115044   0.982   5.769   3.385
 5029TIP3    H215045   1.028   5.684   3.502
 5030TIP3   OH215046   1.956   0.120   4.591
 5030TIP3    H115047   1.925   0.151   4.676
 5030TIP3    H215048   2.009   0.043   4.611
 5031TIP3   OH215049   3.264   0.015   3.841
 5031TIP3    H115050   3.221   0.097   3.817
 5031TIP3    H215051   3.237  -0.046   3.772
 5032TIP3   OH215052   2.139   1.023   3.355
 5032TIP3    H115053   2.131   0.979   3.440
 5032TIP3    H215054   2.114   0.956   3.291
 5033TIP3   OH215055   5.091   7.134   0.920
 5033TIP3    H115056   5.040   7.141   0.839
 5033TIP3    H215057   5.096   7.224   0.953
 5034TIP3   OH215058   6.223   3.435   2.711
 5034TIP3    H115059   6.162   3.362   2.724
 5034TIP3    H215060   6.167   3.512   2.700
 5035TIP3   OH215061   4.217   6.502   1.330
 5035TIP3    H115062   4.124   6.501   1.352
 5035TIP3    H215063   4.258   6.445   1.395
 5036TIP3   OH215064   0.616   2.582   6.298
 5036TIP3    H115065   0.533   2.536   6.296
 5036TIP3    H215066   0.608   2.650   6.231
 5037TIP3   OH215067   0.229   1.629   6.613
 5037TIP3    H115068   0.266   1.661   6.695
 5037TIP3    H215069   0.134   1.638   6.625
 5038TIP3   OH215070   1.840   0.516   3.182
 5038TIP3    H115071   1.843   0.566   3.264
 5038TIP3    H215072   1.867   0.579   3.115
 5039TIP3   OH215073   2.488   5.755   4.980
 5039TIP3    H115074   2.443   5.718   4.903
 5039TIP3    H215075   2.521   5.840   4.950
 5040TIP3   OH215076   4.654   5.598   5.320
 5040TIP3    H115077   4.616   5.512   5.336
 5040TIP3    H215078   4.710   5.614   5.396
 5041TIP3   OH215079   2.088   1.669   1.228
 5041TIP3    H115080   2.160   1.646   1.288
 5041TIP3    H215081   2.092   1.601   1.160
 5042TIP3   OH215082   4.083   7.526   2.696
 5042TIP3    H115083   4.036   7.443   2.702
 5042TIP3    H215084   4.175   7.502   2.700
 5043TIP3   OH215085   3.100   6.363   0.692
 5043TIP3    H115086   3.174   6.412   0.726
 5043TIP3    H215087   3.034   6.369   0.761
 5044TIP3   OH215088   6.240   3.505   6.778
 5044TIP3    H115089   6.282   3.495   6.692
 5044TIP3    H215090   6.313   3.513   6.839
 5045TIP3   OH215091   6.932   6.253   3.541
 5045TIP3    H115092   6.870   6.274   3.471
 5045TIP3    H215093   6.947   6.336   3.586
 5046TIP3   OH215094   7.478   0.722   6.546
 5046TIP3    H115095   7.404   0.751   6.599
 5046TIP3    H215096   7.527   0.802   6.526
 5047TIP3   OH215097   1.170   7.355   5.585
 5047TIP3    H115098   1.115   7.278   5.580
 5047TIP3    H215099   1.146   7.406   5.507
 5048TIP3   OH215100   3.646   1.509   1.513
 5048TIP3    H115101   3.559   1.547   1.498
 5048TIP3    H215102   3.628   1.417   1.531
 5049TIP3   OH215103   1.656   5.371   4.074
 5049TIP3    H115104   1.694   5.458   4.082
 5049TIP3    H215105   1.584   5.370   4.137
 5050TIP3   OH215106   7.284   3.934   4.446
 5050TIP3    H115107   7.283   3.840   4.427
 5050TIP3    H215108   7.202   3.966   4.409
 5051TIP3   OH215109   3.624   5.281   4.515
 5051TIP3    H115110   3.667   5.210   4.563
 5051TIP3    H215111   3.675   5.289   4.435
 5052TIP3   OH215112   7.815   3.771   2.166
 5052TIP3    H115113   7.887   3.748   2.107
 5052TIP3    H215114   7.833   3.722   2.247
 5053TIP3   OH215115   2.634   1.632   0.535
 5053TIP3    H115116   2.696   1.667   0.599
 5053TIP3    H215117   2.549   1.663   0.564
 5054TIP3   OH215118   0.568   0.435   3.239
 5054TIP3    H115119   0.609   0.362   3.285
 5054TIP3    H215120   0.487   0.399   3.204
 5055TIP3   OH215121   7.878   5.875   6.576
 5055TIP3    H115122   7.869   5.931   6.653
 5055TIP3    H215123   7.831   5.795   6.598
 5056TIP3   OH215124   7.985   1.326   2.635
 5056TIP3    H115125   7.971   1.388   2.706
 5056TIP3    H215126   7.898   1.314   2.596
 5057TIP3   OH215127   0.359   6.392   1.161
 5057TIP3    H115128   0.348   6.487   1.168
 5057TIP3    H215129   0.381   6.365   1.250
 5058TIP3   OH215130   3.697   3.679   4.542
 5058TIP3    H115131   3.679   3.773   4.543
 5058TIP3    H215132   3.610   3.639   4.547
 5059TIP3   OH215133   2.509   0.657   0.679
 5059TIP3    H115134   2.428   0.707   0.664
 5059TIP3    H215135   2.568   0.684   0.609
 5060TIP3   OH215136   8.271   3.996   0.973
 5060TIP3    H115137   8.209   3.927   0.951
 5060TIP3    H215138   8.281   4.046   0.892
 5061TIP3   OH215139   1.204   0.129   3.918
 5061TIP3    H115140   1.165   0.207   3.957
 5061TIP3    H215141   1.265   0.097   3.985
 5062TIP3   OH215142   1.466   1.220   3.233
 5062TIP3    H115143   1.406   1.156   3.271
 5062TIP3    H215144   1.529   1.169   3.183
 5063TIP3   OH215145   5.161   1.973   2.828
 5063TIP3    H115146   5.139   2.067   2.826
 5063TIP3    H215147   5.160   1.951   2.921
 5064TIP3   OH215148   5.949   2.238   5.037
 5064TIP3    H115149   5.969   2.262   4.947
 5064TIP3    H215150   6.035   2.228   5.079
 5065TIP3   OH215151   7.034   5.164   0.087
 5065TIP3    H115152   7.129   5.160   0.072
 5065TIP3    H215153   7.023   5.141   0.179
 5066TIP3   OH215154   7.331   6.198   0.682
 5066TIP3    H115155   7.252   6.249   0.661
 5066TIP3    H215156   7.341   6.207   0.777
 5067TIP3   OH215157   1.926   3.579   5.999
 5067TIP3    H115158   1.942   3.610   5.909
 5067TIP3    H215159   1.972   3.643   6.054
 5068TIP3   OH215160   0.358   6.999   3.641
 5068TIP3    H115161   0.323   6.963   3.560
 5068TIP3    H215162   0.388   7.087   3.618
 5069TIP3   OH215163   2.204   5.876   1.877
 5069TIP3    H115164   2.274   5.856   1.815
 5069TIP3    H215165   2.126   5.837   1.838
 5070TIP3   OH215166   5.428   1.761   5.138
 5070TIP3    H115167   5.490   1.746   5.209
 5070TIP3    H215168   5.479   1.749   5.058
 5071TIP3   OH215169   3.457   0.320   3.069
 5071TIP3    H115170   3.515   0.258   3.114
 5071TIP3    H215171   3.452   0.395   3.129
 5072TIP3   OH215172   1.700   0.446   5.696
 5072TIP3    H115173   1.692   0.356   5.666
 5072TIP3    H215174   1.759   0.441   5.771
 5073TIP3   OH215175   6.626   6.270   5.229
 5073TIP3    H115176   6.584   6.270   5.315
 5073TIP3    H215177   6.622   6.361   5.200
 5074TIP3   OH215178   5.011   5.430   1.141
 5074TIP3    H115179   5.024   5.509   1.089
 5074TIP3    H215180   4.980   5.462   1.226
 5075TIP3   OH215181   5.972   5.762   1.198
 5075TIP3    H115182   5.916   5.839   1.188
 5075TIP3    H215183   6.037   5.787   1.264
 5076TIP3   OH215184   1.664   5.558   5.695
 5076TIP3    H115185   1.606   5.581   5.767
 5076TIP3    H215186   1.610   5.568   5.616
 5077TIP3   OH215187   2.305   1.286   2.066
 5077TIP3    H115188   2.374   1.347   2.092
 5077TIP3    H215189   2.274   1.248   2.148
 5078TIP3   OH215190   2.418   5.900   2.356
 5078TIP3    H115191   2.365   5.862   2.287
 5078TIP3    H215192   2.358   5.957   2.404
 5079TIP3   OH215193   3.942   4.151   6.045
 5079TIP3    H115194   3.852   4.180   6.029
 5079TIP3    H215195   3.995   4.230   6.033
 5080TIP3   OH215196   6.584   0.845   5.840
 5080TIP3    H115197   6.642   0.769   5.833
 5080TIP3    H215198   6.614   0.904   5.771
 5081TIP3   OH215199   6.976   6.715   4.121
 5081TIP3    H115200   6.923   6.653   4.071
 5081TIP3    H215201   6.920   6.792   4.132
 5082TIP3   OH215202   3.184   2.261   4.189
 5082TIP3    H115203   3.130   2.299   4.259
 5082TIP3    H215204   3.257   2.220   4.235
 5083TIP3   OH215205   1.653   7.377   1.465
 5083TIP3    H115206   1.701   7.435   1.406
 5083TIP3    H215207   1.587   7.433   1.507
 5084TIP3   OH215208   5.414   3.576   3.871
 5084TIP3    H115209   5.341   3.636   3.853
 5084TIP3    H215210   5.419   3.521   3.793
 5085TIP3   OH215211   1.902   4.070   1.234
 5085TIP3    H115212   1.931   4.110   1.152
 5085TIP3    H215213   1.925   3.977   1.225
 5086TIP3   OH215214   1.068   3.094   0.884
 5086TIP3    H115215   1.020   3.018   0.851
 5086TIP3    H215216   1.031   3.110   0.971
 5087TIP3   OH215217   4.280   1.197   0.417
 5087TIP3    H115218   4.248   1.206   0.327
 5087TIP3    H215219   4.367   1.159   0.407
 5088TIP3   OH215220   3.598   2.847   3.061
 5088TIP3    H115221   3.647   2.845   3.143
 5088TIP3    H215222   3.662   2.877   2.996
 5089TIP3   OH215223   4.394   0.138   2.331
 5089TIP3    H115224   4.412   0.216   2.384
 5089TIP3    H215225   4.424   0.162   2.244
 5090TIP3   OH215226   7.691   2.184   0.450
 5090TIP3    H115227   7.748   2.215   0.379
 5090TIP3    H215228   7.746   2.122   0.499
 5091TIP3   OH215229   0.869   2.950   3.398
 5091TIP3    H115230   0.807   2.996   3.455
 5091TIP3    H215231   0.915   2.890   3.457
 5092TIP3   OH215232   3.893   2.369   6.304
 5092TIP3    H115233   3.819   2.389   6.247
 5092TIP3    H215234   3.860   2.303   6.364
 5093TIP3   OH215235   7.603   4.014   0.252
 5093TIP3    H115236   7.687   4.058   0.241
 5093TIP3    H215237   7.539   4.084   0.254
 5094TIP3   OH215238   3.337   5.937   4.578
 5094TIP3    H115239   3.360   5.854   4.620
 5094TIP3    H215240   3.381   6.003   4.631
 5095TIP3   OH215241   8.027   2.914   5.713
 5095TIP3    H115242   7.997   2.886   5.627
 5095TIP3    H215243   8.095   2.979   5.694
 5096TIP3   OH215244   6.495   2.397   0.299
 5096TIP3    H115245   6.475   2.322   0.354
 5096TIP3    H215246   6.425   2.460   0.318
 5097TIP3   OH215247   0.379   4.254   1.723
 5097TIP3    H115248   0.346   4.339   1.752
 5097TIP3    H215249   0.312   4.192   1.751
 5098TIP3   OH215250   4.609   0.806   6.264
 5098TIP3    H115251   4.655   0.886   6.238
 5098TIP3    H215252   4.573   0.826   6.350
 5099TIP3   OH215253   5.702   1.213   0.894
 5099TIP3    H115254   5.776   1.164   0.857
 5099TIP3    H215255   5.670   1.158   0.965
 5100TIP3   OH215256   1.646   5.835   0.988
 5100TIP3    H115257   1.652   5.931   0.990
 5100TIP3    H215258   1.736   5.805   1.004
 5101TIP3   OH215259   5.716   0.888   1.591
 5101TIP3    H115260   5.802   0.924   1.610
 5101TIP3    H215261   5.735   0.806   1.545
 5102TIP3   OH215262   3.507   0.238   3.578
 5102TIP3    H115263   3.593   0.277   3.590
 5102TIP3    H215264   3.513   0.152   3.619
 5103TIP3   OH215265   3.729   0.232   5.354
 5103TIP3    H115266   3.647   0.281   5.353
 5103TIP3    H215267   3.762   0.238   5.264
 5104TIP3   OH215268   5.581   4.700   0.009
 5104TIP3    H115269   5.626   4.674   0.090
 5104TIP3    H215270   5.649   4.699  -0.058
 5105TIP3   OH215271   7.701   1.074   4.673
 5105TIP3    H115272   7.680   1.037   4.759
 5105TIP3    H215273   7.709   1.168   4.688
 5106TIP3   OH215274   4.832   2.475   4.748
 5106TIP3    H115275   4.814   2.403   4.688
 5106TIP3    H215276   4.843   2.434   4.833
 5107TIP3   OH215277   7.906   1.573   6.455
 5107TIP3    H115278   7.992   1.535   6.470
 5107TIP3    H215279   7.855   1.547   6.532
 5108TIP3   OH215280   7.095   1.066   2.172
 5108TIP3    H115281   7.129   1.144   2.128
 5108TIP3    H215282   7.036   1.100   2.239
 5109TIP3   OH215283   2.247   3.930   5.381
 5109TIP3    H115284   2.180   3.872   5.419
 5109TIP3    H215285   2.198   3.986   5.320
 5110TIP3   OH215286   4.371   7.671   2.297
 5110TIP3    H115287   4.458   7.707   2.279
 5110TIP3    H215288   4.377   7.579   2.271
 5111TIP3   OH215289   4.361   7.650   1.812
 5111TIP3    H115290   4.380   7.604   1.894
 5111TIP3    H215291   4.280   7.610   1.781
 5112TIP3   OH215292   2.664   1.416   3.841
 5112TIP3    H115293   2.608   1.339   3.834
 5112TIP3    H215294   2.715   1.416   3.760
 5113TIP3   OH215295   6.646   4.602   1.156
 5113TIP3    H115296   6.580   4.666   1.184
 5113TIP3    H215297   6.659   4.547   1.233
 5114TIP3   OH215298   6.724   5.993   3.538
 5114TIP3    H115299   6.651   5.995   3.476
 5114TIP3    H215300   6.768   6.077   3.527
 5115TIP3   OH215301   5.392   1.710   1.992
 5115TIP3    H115302   5.323   1.774   1.976
 5115TIP3    H215303   5.403   1.665   1.908
 5116TIP3   OH215304   1.227   5.830   2.099
 5116TIP3    H115305   1.167   5.872   2.161
 5116TIP3    H215306   1.231   5.739   2.128
 5117TIP3   OH215307   5.432   7.481   0.062
 5117TIP3    H115308   5.522   7.458   0.036
 5117TIP3    H215309   5.388   7.397   0.072
 5118TIP3   OH215310   2.994   0.801   6.572
 5118TIP3    H115311   2.910   0.811   6.526
 5118TIP3    H215312   3.057   0.844   6.515
 5119TIP3   OH215313   7.206   3.728   0.755
 5119TIP3    H115314   7.220   3.634   0.750
 5119TIP3    H215315   7.260   3.757   0.829
 5120TIP3   OH215316   0.909   6.496   3.249
 5120TIP3    H115317   0.961   6.558   3.198
 5120TIP3    H215318   0.900   6.420   3.193
 5121TIP3   OH215319   3.537   1.250   2.382
 5121TIP3    H115320   3.544   1.155   2.373
 5121TIP3    H215321   3.543   1.267   2.476
 5122TIP3   OH215322   5.660   7.665   4.383
 5122TIP3    H115323   5.667   7.569   4.387
 5122TIP3    H215324   5.615   7.682   4.300
 5123TIP3   OH215325   1.619   2.005   5.726
 5123TIP3    H115326   1.702   1.993   5.679
 5123TIP3    H215327   1.559   2.039   5.660
 5124TIP3   OH215328   7.460   0.352   3.987
 5124TIP3    H115329   7.366   0.361   4.005
 5124TIP3    H215330   7.499   0.327   4.071
 5125TIP3   OH215331   6.609   5.675   1.278
 5125TIP3    H115332   6.625   5.769   1.270
 5125TIP3    H215333   6.644   5.638   1.197
 5126TIP3   OH215334   1.472   0.758   4.002
 5126TIP3    H115335   1.519   0.812   4.065
 5126TIP3    H215336   1.449   0.819   3.932
 5127TIP3   OH215337   7.615   1.228   1.485
 5127TIP3    H115338   7.645   1.288   1.553
 5127TIP3    H215339   7.618   1.280   1.405
 5128TIP3   OH215340   1.301   3.633   6.103
 5128TIP3    H115341   1.374   3.672   6.152
 5128TIP3    H215342   1.321   3.539   6.101
 5129TIP3   OH215343   5.350   4.487   5.986
 5129TIP3    H115344   5.255   4.484   5.978
 5129TIP3    H215345   5.372   4.579   5.970
 5130TIP3   OH215346   4.076   4.554   4.606
 5130TIP3    H115347   4.067   4.477   4.662
 5130TIP3    H215348   3.986   4.581   4.588
 5131TIP3   OH215349   0.908   4.242   0.870
 5131TIP3    H115350   0.886   4.161   0.823
 5131TIP3    H215351   0.837   4.302   0.848
 5132TIP3   OH215352   7.083   5.136   0.407
 5132TIP3    H115353   7.154   5.200   0.396
 5132TIP3    H215354   7.125   5.060   0.447
 5133TIP3   OH215355   5.117   4.479   2.132
 5133TIP3    H115356   5.177   4.443   2.067
 5133TIP3    H215357   5.117   4.415   2.203
 5134TIP3   OH215358   3.268   1.243   2.390
 5134TIP3    H115359   3.357   1.250   2.423
 5134TIP3    H215360   3.277   1.201   2.305
 5135TIP3   OH215361   4.832   6.234   5.331
 5135TIP3    H115362   4.738   6.218   5.333
 5135TIP3    H215363   4.843   6.322   5.367
 5136TIP3   OH215364   1.855   2.185   1.390
 5136TIP3    H115365   1.791   2.237   1.341
 5136TIP3    H215366   1.877   2.238   1.466
 5137TIP3   OH215367   8.204   4.345   2.801
 5137TIP3    H115368   8.261   4.422   2.808
 5137TIP3    H215369   8.174   4.329   2.891
 5138TIP3   OH215370   7.529   7.341   6.590
 5138TIP3    H115371   7.471   7.415   6.607
 5138TIP3    H215372   7.471   7.273   6.554
 5139TIP3   OH215373   6.263   6.546   3.968
 5139TIP3    H115374   6.206   6.623   3.975
 5139TIP3    H215375   6.247   6.498   4.049
 5140TIP3   OH215376   0.739   1.270   3.543
 5140TIP3    H115377   0.702   1.321   3.471
 5140TIP3    H215378   0.662   1.229   3.584
 5141TIP3   OH215379   4.773   4.861   5.379
 5141TIP3    H115380   4.697   4.906   5.415
 5141TIP3    H215381   4.826   4.931   5.340
 5142TIP3   OH215382   4.191   1.874   4.133
 5142TIP3    H115383   4.264   1.867   4.071
 5142TIP3    H215384   4.232   1.899   4.216
 5143TIP3   OH215385   6.449   7.679   0.829
 5143TIP3    H115386   6.518   7.643   0.773
 5143TIP3    H215387   6.394   7.603   0.851
 5144TIP3   OH215388   5.916   7.227   2.860
 5144TIP3    H115389   5.929   7.146   2.811
 5144TIP3    H215390   5.997   7.239   2.909
 5145TIP3   OH215391   4.346   3.637   5.751
 5145TIP3    H115392   4.385   3.599   5.673
 5145TIP3    H215393   4.263   3.589   5.762
 5146TIP3   OH215394   2.491   3.282  -0.005
 5146TIP3    H115395   2.450   3.297   0.080
 5146TIP3    H215396   2.570   3.233   0.014
 5147TIP3   OH215397   3.688   4.183   4.365
 5147TIP3    H115398   3.667   4.133   4.287
 5147TIP3    H215399   3.613   4.241   4.377
 5148TIP3   OH215400   0.779   3.160   1.525
 5148TIP3    H115401   0.821   3.243   1.548
 5148TIP3    H215402   0.700   3.186   1.477
 5149TIP3   OH215403   5.217   5.354   2.385
 5149TIP3    H115404   5.140   5.309   2.420
 5149TIP3    H215405   5.291   5.315   2.430
 5150TIP3   OH215406   3.332   6.905   1.350
 5150TIP3    H115407   3.291   6.927   1.433
 5150TIP3    H215408   3.279   6.951   1.284
 5151TIP3   OH215409   4.629   6.913   3.673
 5151TIP3    H115410   4.569   6.987   3.688
 5151TIP3    H215411   4.666   6.930   3.587
 5152TIP3   OH215412   6.012   4.630   0.794
 5152TIP3    H115413   5.973   4.717   0.801
 5152TIP3    H215414   5.945   4.571   0.829
 5153TIP3   OH215415   2.670   5.112   3.530
 5153TIP3    H115416   2.662   5.023   3.494
 5153TIP3    H215417   2.711   5.162   3.459
 5154TIP3   OH215418   2.576   0.358   1.989
 5154TIP3    H115419   2.521   0.346   2.067
 5154TIP3    H215420   2.666   0.356   2.023
 5155TIP3   OH215421   2.914   1.024   0.050
 5155TIP3    H115422   2.841   1.038  -0.010
 5155TIP3    H215423   2.909   1.097   0.112
 5156TIP3   OH215424   4.172   0.844   2.722
 5156TIP3    H115425   4.139   0.904   2.654
 5156TIP3    H215426   4.140   0.758   2.695
 5157TIP3   OH215427   6.008   4.289   4.769
 5157TIP3    H115428   5.987   4.215   4.827
 5157TIP3    H215429   6.046   4.249   4.691
 5158TIP3   OH215430   7.424   1.371   4.711
 5158TIP3    H115431   7.424   1.433   4.639
 5158TIP3    H215432   7.515   1.370   4.742
 5159TIP3   OH215433   4.810   2.585   5.085
 5159TIP3    H115434   4.720   2.616   5.080
 5159TIP3    H215435   4.861   2.663   5.108
 5160TIP3   OH215436   2.989   5.198   6.459
 5160TIP3    H115437   2.902   5.161   6.444
 5160TIP3    H215438   3.043   5.162   6.388
 5161TIP3   OH215439   2.441   4.319   0.813
 5161TIP3    H115440   2.370   4.313   0.750
 5161TIP3    H215441   2.410   4.271   0.890
 5162TIP3   OH215442   7.218   0.707   6.661
 5162TIP3    H115443   7.172   0.638   6.612
 5162TIP3    H215444   7.170   0.714   6.743
 5163TIP3   OH215445   2.311   5.713   1.341
 5163TIP3    H115446   2.313   5.686   1.249
 5163TIP3    H215447   2.403   5.718   1.367
 5164TIP3   OH215448   6.003   0.354   3.059
 5164TIP3    H115449   5.924   0.361   3.004
 5164TIP3    H215450   6.047   0.276   3.027
 5165TIP3   OH215451   1.571   2.387   6.682
 5165TIP3    H115452   1.616   2.361   6.762
 5165TIP3    H215453   1.483   2.410   6.709
 5166TIP3   OH215454   4.240   0.024   3.670
 5166TIP3    H115455   4.222   0.110   3.632
 5166TIP3    H215456   4.229  -0.036   3.596
 5167TIP3   OH215457   4.981   0.294   3.539
 5167TIP3    H115458   5.052   0.229   3.542
 5167TIP3    H215459   4.957   0.307   3.630
 5168TIP3   OH215460   1.846   6.390   3.782
 5168TIP3    H115461   1.837   6.422   3.692
 5168TIP3    H215462   1.762   6.411   3.823
 5169TIP3   OH215463   3.475   1.968   6.643
 5169TIP3    H115464   3.413   2.038   6.624
 5169TIP3    H215465   3.527   1.961   6.563
 5170TIP3   OH215466   1.888   0.682   5.021
 5170TIP3    H115467   1.886   0.620   5.094
 5170TIP3    H215468   1.822   0.747   5.042
 5171TIP3   OH215469   0.973   1.800   4.264
 5171TIP3    H115470   1.007   1.859   4.196
 5171TIP3    H215471   1.013   1.832   4.345
 5172TIP3   OH215472   3.308   1.116   3.431
 5172TIP3    H115473   3.362   1.163   3.495
 5172TIP3    H215474   3.370   1.070   3.376
 5173TIP3   OH215475   2.412   5.944   6.411
 5173TIP3    H115476   2.404   5.971   6.319
 5173TIP3    H215477   2.448   5.855   6.406
 5174TIP3   OH215478   5.457   6.679   4.751
 5174TIP3    H115479   5.537   6.637   4.782
 5174TIP3    H215480   5.472   6.773   4.767
 5175TIP3   OH215481  -0.001   6.114   4.140
 5175TIP3    H115482  -0.039   6.028   4.157
 5175TIP3    H215483   0.050   6.134   4.219
 5176TIP3   OH215484   7.938   2.678   4.959
 5176TIP3    H115485   8.021   2.648   4.920
 5176TIP3    H215486   7.895   2.597   4.986
 5177TIP3   OH215487   2.641   3.497   5.352
 5177TIP3    H115488   2.568   3.443   5.324
 5177TIP3    H215489   2.703   3.492   5.279
 5178TIP3   OH215490   4.825   0.272   4.965
 5178TIP3    H115491   4.819   0.198   5.026
 5178TIP3    H215492   4.848   0.232   4.881
 5179TIP3   OH215493   3.050   5.248   3.068
 5179TIP3    H115494   3.080   5.338   3.057
 5179TIP3    H215495   2.958   5.255   3.092
 5180TIP3   OH215496   0.313   2.253   2.376
 5180TIP3    H115497   0.261   2.256   2.457
 5180TIP3    H215498   0.341   2.343   2.362
 5181TIP3   OH215499   4.021   3.895   4.921
 5181TIP3    H115500   3.954   3.946   4.966
 5181TIP3    H215501   3.996   3.898   4.829
 5182TIP3   OH215502   6.137   3.701   2.724
 5182TIP3    H115503   6.201   3.772   2.720
 5182TIP3    H215504   6.084   3.721   2.801
 5183TIP3   OH215505   6.623   1.193   6.258
 5183TIP3    H115506   6.551   1.196   6.196
 5183TIP3    H215507   6.701   1.209   6.204
 5184TIP3   OH215508   8.050   2.375   3.887
 5184TIP3    H115509   8.037   2.468   3.906
 5184TIP3    H215510   8.030   2.367   3.794
 5185TIP3   OH215511   4.461   0.180   1.520
 5185TIP3    H115512   4.482   0.119   1.449
 5185TIP3    H215513   4.451   0.124   1.597
 5186TIP3   OH215514   4.010   3.982   3.184
 5186TIP3    H115515   4.051   3.970   3.099
 5186TIP3    H215516   4.038   4.069   3.212
 5187TIP3   OH215517   0.978   1.871   0.689
 5187TIP3    H115518   0.932   1.951   0.716
 5187TIP3    H215519   0.916   1.800   0.708
 5188TIP3   OH215520   0.677   5.526   6.203
 5188TIP3    H115521   0.592   5.547   6.164
 5188TIP3    H215522   0.656   5.475   6.281
 5189TIP3   OH215523   7.898   1.927   2.042
 5189TIP3    H115524   7.938   2.011   2.021
 5189TIP3    H215525   7.873   1.934   2.134
 5190TIP3   OH215526   0.998   4.654   4.829
 5190TIP3    H115527   0.923   4.607   4.793
 5190TIP3    H215528   1.070   4.634   4.770
 5191TIP3   OH215529   1.147   1.058   3.909
 5191TIP3    H115530   1.134   1.149   3.883
 5191TIP3    H215531   1.189   1.062   3.995
 5192TIP3   OH215532   6.293   5.892   2.151
 5192TIP3    H115533   6.359   5.906   2.083
 5192TIP3    H215534   6.245   5.975   2.155
 5193TIP3   OH215535   0.950   5.935   1.230
 5193TIP3    H115536   1.014   5.960   1.297
 5193TIP3    H215537   0.919   5.849   1.257
 5194TIP3   OH215538   7.211   3.208   5.994
 5194TIP3    H115539   7.214   3.155   5.914
 5194TIP3    H215540   7.142   3.272   5.977
 5195TIP3   OH215541   4.339   1.817   1.766
 5195TIP3    H115542   4.351   1.730   1.804
 5195TIP3    H215543   4.253   1.811   1.723
 5196TIP3   OH215544   3.791   5.945   4.699
 5196TIP3    H115545   3.714   5.899   4.666
 5196TIP3    H215546   3.834   5.880   4.755
 5197TIP3   OH215547   7.005   5.638   1.378
 5197TIP3    H115548   6.924   5.658   1.424
 5197TIP3    H215549   6.993   5.548   1.345
 5198TIP3   OH215550   8.105   5.164   1.138
 5198TIP3    H115551   8.097   5.157   1.043
 5198TIP3    H215552   8.023   5.204   1.166
 5199TIP3   OH215553   5.052   0.526   1.426
 5199TIP3    H115554   4.998   0.588   1.475
 5199TIP3    H215555   5.001   0.445   1.426
 5200TIP3   OH215556   3.499   5.667   1.466
 5200TIP3    H115557   3.524   5.605   1.534
 5200TIP3    H215558   3.546   5.638   1.388
 5201TIP3   OH215559   4.566   7.163   0.476
 5201TIP3    H115560   4.491   7.198   0.429
 5201TIP3    H215561   4.625   7.132   0.408
 5202TIP3   OH215562   6.415   2.071   6.250
 5202TIP3    H115563   6.349   2.094   6.185
 5202TIP3    H215564   6.495   2.114   6.219
 5203TIP3   OH215565   3.761   0.937   5.379
 5203TIP3    H115566   3.735   1.026   5.403
 5203TIP3    H215567   3.723   0.881   5.446
 5204TIP3   OH215568   2.996   2.203   3.712
 5204TIP3    H115569   2.996   2.214   3.807
 5204TIP3    H215570   3.029   2.285   3.678
 5205TIP3   OH215571   7.294   6.111   4.011
 5205TIP3    H115572   7.213   6.073   3.977
 5205TIP3    H215573   7.267   6.158   4.091
 5206TIP3   OH215574   7.661   3.856   3.251
 5206TIP3    H115575   7.592   3.903   3.297
 5206TIP3    H215576   7.694   3.918   3.186
 5207TIP3   OH215577   5.008   7.721   2.701
 5207TIP3    H115578   4.918   7.730   2.670
 5207TIP3    H215579   5.040   7.641   2.659
 5208TIP3   OH215580   3.454   1.928   5.698
 5208TIP3    H115581   3.441   1.880   5.616
 5208TIP3    H215582   3.395   2.003   5.691
 5209TIP3   OH215583   7.563   1.841   1.070
 5209TIP3    H115584   7.500   1.898   1.114
 5209TIP3    H215585   7.604   1.792   1.142
 5210TIP3   OH215586   7.868   4.680   2.524
 5210TIP3    H115587   7.834   4.637   2.446
 5210TIP3    H215588   7.885   4.608   2.586
 5211TIP3   OH215589   5.068   6.124   1.394
 5211TIP3    H115590   5.119   6.072   1.457
 5211TIP3    H215591   4.981   6.128   1.433
 5212TIP3   OH215592   4.530   3.984   2.176
 5212TIP3    H115593   4.603   3.929   2.149
 5212TIP3    H215594   4.477   3.929   2.233
 5213TIP3   OH215595   2.645   7.658   3.040
 5213TIP3    H115596   2.684   7.660   3.127
 5213TIP3    H215597   2.625   7.750   3.021
 5214TIP3   OH215598   5.302   1.436   0.493
 5214TIP3    H115599   5.397   1.448   0.487
 5214TIP3    H215600   5.276   1.405   0.406
 5215TIP3   OH215601   3.462   3.685   6.255
 5215TIP3    H115602   3.494   3.774   6.239
 5215TIP3    H215603   3.471   3.672   6.349
 5216TIP3   OH215604   0.022   3.670   3.659
 5216TIP3    H115605   0.026   3.766   3.658
 5216TIP3    H215606   0.101   3.642   3.613
 5217TIP3   OH215607   8.209   5.334   0.805
 5217TIP3    H115608   8.279   5.270   0.812
 5217TIP3    H215609   8.128   5.284   0.818
 5218TIP3   OH215610   0.719   5.607   5.499
 5218TIP3    H115611   0.757   5.608   5.587
 5218TIP3    H215612   0.731   5.517   5.469
 5219TIP3   OH215613   2.018   5.147   0.743
 5219TIP3    H115614   2.087   5.120   0.805
 5219TIP3    H215615   2.037   5.239   0.725
 5220TIP3   OH215616   4.421   0.594   3.082
 5220TIP3    H115617   4.355   0.619   3.018
 5220TIP3    H215618   4.447   0.676   3.123
 5221TIP3   OH215619   5.273   0.607   5.790
 5221TIP3    H115620   5.179   0.625   5.789
 5221TIP3    H215621   5.311   0.678   5.841
 5222TIP3   OH215622   4.643   3.185   2.048
 5222TIP3    H115623   4.727   3.175   2.005
 5222TIP3    H215624   4.605   3.264   2.009
 5223TIP3   OH215625   4.455   3.428   3.268
 5223TIP3    H115626   4.529   3.391   3.221
 5223TIP3    H215627   4.485   3.516   3.293
 5224TIP3   OH215628   5.393   1.715   0.294
 5224TIP3    H115629   5.469   1.700   0.350
 5224TIP3    H215630   5.325   1.747   0.354
 5225TIP3   OH215631   5.627   3.140   2.919
 5225TIP3    H115632   5.678   3.061   2.901
 5225TIP3    H215633   5.556   3.110   2.975
 5226TIP3   OH215634   1.349   1.146   1.011
 5226TIP3    H115635   1.278   1.177   1.068
 5226TIP3    H215636   1.305   1.095   0.944
 5227TIP3   OH215637   0.486   2.230   4.409
 5227TIP3    H115638   0.504   2.264   4.497
 5227TIP3    H215639   0.564   2.250   4.358
 5228TIP3   OH215640   7.726   3.334   1.926
 5228TIP3    H115641   7.659   3.269   1.945
 5228TIP3    H215642   7.751   3.317   1.835
 5229TIP3   OH215643   1.095   3.751   4.367
 5229TIP3    H115644   1.060   3.697   4.438
 5229TIP3    H215645   1.164   3.803   4.409
 5230TIP3   OH215646   4.018   7.518   6.182
 5230TIP3    H115647   4.089   7.566   6.139
 5230TIP3    H215648   4.058   7.437   6.212
 5231TIP3   OH215649   6.880   0.512   0.917
 5231TIP3    H115650   6.848   0.476   0.999
 5231TIP3    H215651   6.914   0.598   0.939
 5232TIP3   OH215652   1.264   1.922   2.535
 5232TIP3    H115653   1.243   1.839   2.577
 5232TIP3    H215654   1.332   1.901   2.472
 5233TIP3   OH215655   2.741   5.850   2.081
 5233TIP3    H115656   2.773   5.888   2.163
 5233TIP3    H215657   2.816   5.800   2.047
 5234TIP3   OH215658   5.067   2.157   1.599
 5234TIP3    H115659   5.151   2.169   1.555
 5234TIP3    H215660   5.070   2.218   1.673
 5235TIP3   OH215661   7.552   7.371   3.935
 5235TIP3    H115662   7.561   7.372   3.839
 5235TIP3    H215663   7.625   7.424   3.967
 5236TIP3   OH215664   3.707   6.371   1.544
 5236TIP3    H115665   3.614   6.362   1.567
 5236TIP3    H215666   3.753   6.330   1.617
 5237TIP3   OH215667   3.719   2.960   6.695
 5237TIP3    H115668   3.763   2.885   6.734
 5237TIP3    H215669   3.770   3.036   6.723
 5238TIP3   OH215670   5.543   6.442   2.988
 5238TIP3    H115671   5.548   6.415   2.896
 5238TIP3    H215672   5.458   6.485   2.996
 5239TIP3   OH215673   3.832   2.723   2.063
 5239TIP3    H115674   3.834   2.800   2.120
 5239TIP3    H215675   3.742   2.692   2.068
 5240TIP3   OH215676   5.888   0.568   0.231
 5240TIP3    H115677   5.941   0.543   0.155
 5240TIP3    H215678   5.801   0.586   0.194
 5241TIP3   OH215679   0.615   4.873   6.624
 5241TIP3    H115680   0.603   4.878   6.719
 5241TIP3    H215681   0.695   4.921   6.607
 5242TIP3   OH215682   5.257   6.735   1.435
 5242TIP3    H115683   5.249   6.751   1.341
 5242TIP3    H215684   5.173   6.696   1.460
 5243TIP3   OH215685   4.927   4.992   0.758
 5243TIP3    H115686   4.931   5.086   0.743
 5243TIP3    H215687   4.977   4.953   0.686
 5244TIP3   OH215688   4.616   5.630   4.634
 5244TIP3    H115689   4.699   5.612   4.589
 5244TIP3    H215690   4.602   5.554   4.690
 5245TIP3   OH215691   1.706   5.490   2.401
 5245TIP3    H115692   1.760   5.562   2.368
 5245TIP3    H215693   1.636   5.532   2.451
 5246TIP3   OH215694   7.549   2.590   4.754
 5246TIP3    H115695   7.579   2.584   4.663
 5246TIP3    H215696   7.458   2.620   4.746
 5247TIP3   OH215697   4.886   6.946   3.512
 5247TIP3    H115698   4.975   6.981   3.506
 5247TIP3    H215699   4.897   6.852   3.494
 5248TIP3   OH215700   2.171   3.498   4.427
 5248TIP3    H115701   2.156   3.491   4.521
 5248TIP3    H215702   2.093   3.544   4.394
 5249TIP3   OH215703   2.535   3.875   2.188
 5249TIP3    H115704   2.500   3.942   2.130
 5249TIP3    H215705   2.627   3.899   2.201
 5250TIP3   OH215706   0.290   4.171   5.201
 5250TIP3    H115707   0.363   4.233   5.197
 5250TIP3    H215708   0.212   4.225   5.183
 5251TIP3   OH215709   0.658   1.517   2.132
 5251TIP3    H115710   0.687   1.607   2.144
 5251TIP3    H215711   0.728   1.476   2.081
 5252TIP3   OH215712   2.971   5.955   3.856
 5252TIP3    H115713   2.885   5.954   3.899
 5252TIP3    H215714   3.019   5.883   3.897
 5253TIP3   OH215715   3.021   4.489   5.777
 5253TIP3    H115716   2.945   4.430   5.770
 5253TIP3    H215717   2.983   4.575   5.792
 5254TIP3   OH215718   6.203   4.504   6.452
 5254TIP3    H115719   6.228   4.582   6.402
 5254TIP3    H215720   6.280   4.447   6.448
 5255TIP3   OH215721   5.445   1.972   1.764
 5255TIP3    H115722   5.414   1.908   1.828
 5255TIP3    H215723   5.540   1.966   1.768
 5256TIP3   OH215724   2.399   6.576   4.385
 5256TIP3    H115725   2.369   6.526   4.309
 5256TIP3    H215726   2.493   6.584   4.373
 5257TIP3   OH215727   5.956   7.792   2.928
 5257TIP3    H115728   5.939   7.721   2.866
 5257TIP3    H215729   5.878   7.795   2.983
 5258TIP3   OH215730   1.444   1.857   5.357
 5258TIP3    H115731   1.532   1.886   5.376
 5258TIP3    H215732   1.453   1.763   5.338
 5259TIP3   OH215733   7.248   3.762   0.281
 5259TIP3    H115734   7.167   3.732   0.239
 5259TIP3    H215735   7.293   3.812   0.213
 5260TIP3   OH215736   4.420   7.585   2.732
 5260TIP3    H115737   4.381   7.648   2.791
 5260TIP3    H215738   4.411   7.501   2.776
 5261TIP3   OH215739   4.646   6.258   2.561
 5261TIP3    H115740   4.600   6.229   2.640
 5261TIP3    H215741   4.639   6.184   2.501
 5262TIP3   OH215742   0.263   0.350   0.026
 5262TIP3    H115743   0.195   0.384  -0.033
 5262TIP3    H215744   0.227   0.269   0.061
 5263TIP3   OH215745   4.158   7.509   0.985
 5263TIP3    H115746   4.225   7.463   0.935
 5263TIP3    H215747   4.188   7.600   0.987
 5264TIP3   OH215748   4.021   0.723   5.037
 5264TIP3    H115749   4.070   0.671   5.102
 5264TIP3    H215750   4.022   0.670   4.958
 5265TIP3   OH215751   1.326   1.924   5.737
 5265TIP3    H115752   1.239   1.884   5.741
 5265TIP3    H215753   1.309   2.018   5.745
 5266TIP3   OH215754   6.002   6.392   2.079
 5266TIP3    H115755   5.963   6.311   2.113
 5266TIP3    H215756   5.929   6.454   2.076
 5267TIP3   OH215757   5.404   2.212   2.201
 5267TIP3    H115758   5.401   2.200   2.106
 5267TIP3    H215759   5.494   2.192   2.226
 5268TIP3   OH215760   4.704   1.828   5.177
 5268TIP3    H115761   4.753   1.748   5.156
 5268TIP3    H215762   4.680   1.865   5.092
 5269TIP3   OH215763   4.902   6.384   4.699
 5269TIP3    H115764   4.827   6.407   4.753
 5269TIP3    H215765   4.907   6.288   4.704
 5270TIP3   OH215766   1.108   4.195   5.939
 5270TIP3    H115767   1.122   4.234   6.026
 5270TIP3    H215768   1.192   4.156   5.917
 5271TIP3   OH215769   7.236   5.289   2.921
 5271TIP3    H115770   7.145   5.310   2.899
 5271TIP3    H215771   7.282   5.293   2.838
 5272TIP3   OH215772   6.087   2.222   1.149
 5272TIP3    H115773   6.023   2.292   1.153
 5272TIP3    H215774   6.039   2.148   1.111
 5273TIP3   OH215775   1.964   6.215   6.134
 5273TIP3    H115776   1.888   6.273   6.129
 5273TIP3    H215777   1.953   6.154   6.061
 5274TIP3   OH215778   8.007   5.795   0.878
 5274TIP3    H115779   7.924   5.838   0.898
 5274TIP3    H215780   7.989   5.702   0.890
 5275TIP3   OH215781   6.985   7.032   2.188
 5275TIP3    H115782   6.995   7.101   2.254
 5275TIP3    H215783   7.074   7.016   2.157
 5276TIP3   OH215784   8.284   1.901   4.379
 5276TIP3    H115785   8.344   1.959   4.331
 5276TIP3    H215786   8.334   1.875   4.457
 5277TIP3   OH215787   6.703   1.403   1.087
 5277TIP3    H115788   6.680   1.393   1.179
 5277TIP3    H215789   6.753   1.324   1.066
 5278TIP3   OH215790   1.514   4.459   2.036
 5278TIP3    H115791   1.529   4.537   2.088
 5278TIP3    H215792   1.543   4.483   1.948
 5279TIP3   OH215793   5.963   1.134   0.824
 5279TIP3    H115794   5.948   1.043   0.800
 5279TIP3    H215795   6.011   1.171   0.750
 5280TIP3   OH215796   4.317   4.560   4.072
 5280TIP3    H115797   4.365   4.627   4.121
 5280TIP3    H215798   4.291   4.496   4.138
 5281TIP3   OH215799   4.122   2.895   5.666
 5281TIP3    H115800   4.170   2.938   5.737
 5281TIP3    H215801   4.188   2.844   5.619
 5282TIP3   OH215802   0.675   7.371   5.657
 5282TIP3    H115803   0.665   7.455   5.612
 5282TIP3    H215804   0.605   7.316   5.622
 5283TIP3   OH215805   5.930   6.328   3.989
 5283TIP3    H115806   5.929   6.316   3.894
 5283TIP3    H215807   5.920   6.239   4.024
 5284TIP3   OH215808   5.930   7.106   1.796
 5284TIP3    H115809   5.917   7.099   1.890
 5284TIP3    H215810   5.876   7.180   1.770
 5285TIP3   OH215811   5.374   3.127   3.606
 5285TIP3    H115812   5.302   3.094   3.553
 5285TIP3    H215813   5.380   3.065   3.679
 5286TIP3   OH215814   4.596   2.923   2.613
 5286TIP3    H115815   4.684   2.885   2.607
 5286TIP3    H215816   4.610   3.009   2.653
 5287TIP3   OH215817   1.596   5.098   2.611
 5287TIP3    H115818   1.522   5.049   2.575
 5287TIP3    H215819   1.637   5.140   2.536
 5288TIP3   OH215820   3.159   4.072   5.953
 5288TIP3    H115821   3.123   4.159   5.969
 5288TIP3    H215822   3.237   4.069   6.008
 5289TIP3   OH215823   4.244   7.654   5.708
 5289TIP3    H115824   4.194   7.706   5.644
 5289TIP3    H215825   4.326   7.703   5.719
 5290TIP3   OH215826   4.965   5.700   2.194
 5290TIP3    H115827   4.996   5.790   2.186
 5290TIP3    H215828   5.013   5.665   2.269
 5291TIP3   OH215829   6.536   6.225   6.453
 5291TIP3    H115830   6.592   6.192   6.384
 5291TIP3    H215831   6.517   6.149   6.508
 5292TIP3   OH215832   6.798   0.265   4.563
 5292TIP3    H115833   6.736   0.258   4.636
 5292TIP3    H215834   6.840   0.350   4.575
 5293TIP3   OH215835   2.625   5.322   0.280
 5293TIP3    H115836   2.579   5.384   0.223
 5293TIP3    H215837   2.716   5.324   0.248
 5294TIP3   OH215838   1.581   1.329   4.816
 5294TIP3    H115839   1.499   1.357   4.775
 5294TIP3    H215840   1.580   1.234   4.811
 5295TIP3   OH215841   7.288   1.882   5.825
 5295TIP3    H115842   7.371   1.903   5.868
 5295TIP3    H215843   7.309   1.876   5.732
 5296TIP3   OH215844   5.181   5.911   3.239
 5296TIP3    H115845   5.200   5.927   3.332
 5296TIP3    H215846   5.113   5.975   3.217
 5297TIP3   OH215847   0.843   6.777   6.518
 5297TIP3    H115848   0.798   6.861   6.516
 5297TIP3    H215849   0.911   6.784   6.451
 5298TIP3   OH215850   4.145   6.856   1.075
 5298TIP3    H115851   4.161   6.762   1.064
 5298TIP3    H215852   4.056   6.869   1.041
 5299TIP3   OH215853   0.119   5.124   5.303
 5299TIP3    H115854   0.196   5.094   5.255
 5299TIP3    H215855   0.093   5.205   5.260
 5300TIP3   OH215856   5.016   4.554   5.273
 5300TIP3    H115857   4.988   4.600   5.194
 5300TIP3    H215858   5.108   4.533   5.257
 5301TIP3   OH215859   0.951   2.168   0.133
 5301TIP3    H115860   1.004   2.096   0.167
 5301TIP3    H215861   0.861   2.133   0.133
 5302TIP3   OH215862   0.918   2.073   4.359
 5302TIP3    H115863   0.954   2.142   4.302
 5302TIP3    H215864   0.988   2.054   4.421
 5303TIP3   OH215865   5.350   4.266   4.073
 5303TIP3    H115866   5.411   4.295   4.141
 5303TIP3    H215867   5.306   4.346   4.044
 5304TIP3   OH215868   6.620   6.679   0.866
 5304TIP3    H115869   6.581   6.671   0.952
 5304TIP3    H215870   6.616   6.591   0.829
 5305TIP3   OH215871   0.137   6.152   6.572
 5305TIP3    H115872   0.188   6.206   6.632
 5305TIP3    H215873   0.076   6.104   6.627
 5306TIP3   OH215874   0.768   3.070   6.209
 5306TIP3    H115875   0.695   3.044   6.152
 5306TIP3    H215876   0.737   3.150   6.252
 5307TIP3   OH215877   4.124   5.386   3.392
 5307TIP3    H115878   4.111   5.369   3.299
 5307TIP3    H215879   4.166   5.472   3.396
 5308TIP3   OH215880   3.771   2.319   0.885
 5308TIP3    H115881   3.795   2.403   0.845
 5308TIP3    H215882   3.792   2.254   0.818
 5309TIP3   OH215883   1.696   2.816   0.014
 5309TIP3    H115884   1.777   2.864   0.033
 5309TIP3    H215885   1.631   2.856   0.072
 5310TIP3   OH215886   6.137   3.555   1.608
 5310TIP3    H115887   6.123   3.469   1.649
 5310TIP3    H215888   6.211   3.592   1.656
 5311TIP3   OH215889   8.109   7.536   3.183
 5311TIP3    H115890   8.138   7.449   3.208
 5311TIP3    H215891   8.056   7.523   3.105
 5312TIP3   OH215892   2.381   3.133   1.826
 5312TIP3    H115893   2.422   3.180   1.753
 5312TIP3    H215894   2.316   3.194   1.861
 5313TIP3   OH215895   0.615   4.111   0.938
 5313TIP3    H115896   0.547   4.178   0.950
 5313TIP3    H215897   0.657   4.104   1.024
 5314TIP3   OH215898   8.089   1.875   4.186
 5314TIP3    H115899   8.151   1.840   4.122
 5314TIP3    H215900   8.138   1.878   4.268
 5315TIP3   OH215901   1.163   4.294   0.112
 5315TIP3    H115902   1.224   4.362   0.085
 5315TIP3    H215903   1.167   4.294   0.207
 5316TIP3   OH215904   6.456   1.385   3.704
 5316TIP3    H115905   6.383   1.370   3.644
 5316TIP3    H215906   6.461   1.304   3.756
 5317TIP3   OH215907   1.569   6.010   0.105
 5317TIP3    H115908   1.590   6.092   0.149
 5317TIP3    H215909   1.647   5.955   0.116
 5318TIP3   OH215910   6.928   0.523   6.474
 5318TIP3    H115911   6.936   0.604   6.423
 5318TIP3    H215912   6.849   0.536   6.526
 5319TIP3   OH215913   7.562   4.317   2.171
 5319TIP3    H115914   7.525   4.229   2.173
 5319TIP3    H215915   7.621   4.317   2.096
 5320TIP3   OH215916   3.428   7.724   6.696
 5320TIP3    H115917   3.418   7.683   6.610
 5320TIP3    H215918   3.341   7.759   6.716
 5321TIP3   OH215919   4.285   6.773   6.227
 5321TIP3    H115920   4.351   6.794   6.293
 5321TIP3    H215921   4.330   6.714   6.166
 5322TIP3   OH215922   7.092   1.452   2.376
 5322TIP3    H115923   7.057   1.366   2.399
 5322TIP3    H215924   7.112   1.493   2.460
 5323TIP3   OH215925   6.160   2.584   0.264
 5323TIP3    H115926   6.122   2.597   0.351
 5323TIP3    H215927   6.111   2.510   0.227
 5324TIP3   OH215928   3.128   1.355   4.551
 5324TIP3    H115929   3.093   1.306   4.626
 5324TIP3    H215930   3.125   1.293   4.478
 5325TIP3   OH215931   1.347   6.642   5.227
 5325TIP3    H115932   1.371   6.623   5.136
 5325TIP3    H215933   1.392   6.724   5.247
 5326TIP3   OH215934   2.773   1.036   4.006
 5326TIP3    H115935   2.774   1.062   3.914
 5326TIP3    H215936   2.714   1.098   4.049
 5327TIP3   OH215937   3.280   6.079   6.708
 5327TIP3    H115938   3.227   6.158   6.718
 5327TIP3    H215939   3.310   6.082   6.617
 5328TIP3   OH215940   4.908   7.469   1.284
 5328TIP3    H115941   4.853   7.391   1.286
 5328TIP3    H215942   4.893   7.511   1.369
 5329TIP3   OH215943   0.145   0.985   2.311
 5329TIP3    H115944   0.155   1.000   2.217
 5329TIP3    H215945   0.061   0.941   2.319
 5330TIP3   OH215946   4.957   0.660   5.080
 5330TIP3    H115947   5.011   0.585   5.055
 5330TIP3    H215948   5.010   0.737   5.058
 5331TIP3   OH215949   2.080   1.174   5.099
 5331TIP3    H115950   2.074   1.149   5.192
 5331TIP3    H215951   1.994   1.212   5.079
 5332TIP3   OH215952   3.332   6.425   5.285
 5332TIP3    H115953   3.404   6.375   5.247
 5332TIP3    H215954   3.372   6.476   5.356
 5333TIP3   OH215955   0.645   6.708   5.772
 5333TIP3    H115956   0.564   6.657   5.768
 5333TIP3    H215957   0.715   6.643   5.764
 5334TIP3   OH215958   6.657   3.434   0.368
 5334TIP3    H115959   6.653   3.487   0.288
 5334TIP3    H215960   6.666   3.344   0.337
 5335TIP3   OH215961   7.506   0.984   5.193
 5335TIP3    H115962   7.590   0.969   5.236
 5335TIP3    H215963   7.486   1.076   5.212
 5336TIP3   OH215964   0.024   4.640   3.264
 5336TIP3    H115965   0.044   4.547   3.277
 5336TIP3    H215966   0.039   4.679   3.350
 5337TIP3   OH215967   7.996   6.407   3.700
 5337TIP3    H115968   7.982   6.356   3.620
 5337TIP3    H215969   7.984   6.344   3.771
 5338TIP3   OH215970   4.805   0.490   1.184
 5338TIP3    H115971   4.720   0.516   1.220
 5338TIP3    H215972   4.841   0.429   1.248
 5339TIP3   OH215973   6.187   0.973   2.831
 5339TIP3    H115974   6.134   0.996   2.755
 5339TIP3    H215975   6.143   0.896   2.868
 5340TIP3   OH215976   7.294   7.285   6.201
 5340TIP3    H115977   7.363   7.350   6.189
 5340TIP3    H215978   7.213   7.331   6.180
 5341TIP3   OH215979   8.024   7.405   2.136
 5341TIP3    H115980   8.068   7.489   2.151
 5341TIP3    H215981   8.093   7.347   2.104
 5342TIP3   OH215982   1.230   0.905   0.477
 5342TIP3    H115983   1.168   0.974   0.452
 5342TIP3    H215984   1.184   0.853   0.542
 5343TIP3   OH215985   5.302   4.824   0.730
 5343TIP3    H115986   5.248   4.815   0.652
 5343TIP3    H215987   5.316   4.734   0.759
 5344TIP3   OH215988   2.558   5.670   1.888
 5344TIP3    H115989   2.502   5.594   1.872
 5344TIP3    H215990   2.509   5.744   1.851
 5345TIP3   OH215991   3.522   3.599   5.883
 5345TIP3    H115992   3.497   3.511   5.913
 5345TIP3    H215993   3.455   3.657   5.918
 5346TIP3   OH215994   8.107   5.234   6.807
 5346TIP3    H115995   8.085   5.230   6.900
 5346TIP3    H215996   8.178   5.297   6.802
 5347TIP3   OH215997   5.618   6.895   3.637
 5347TIP3    H115998   5.564   6.817   3.628
 5347TIP3    H215999   5.564   6.957   3.685
 5348TIP3   OH216000   2.744   4.828   2.868
 5348TIP3    H116001   2.660   4.825   2.913
 5348TIP3    H216002   2.808   4.797   2.932
 5349TIP3   OH216003   6.605   4.909   5.940
 5349TIP3    H116004   6.515   4.875   5.938
 5349TIP3    H216005   6.599   4.989   5.991
 5350TIP3   OH216006   0.625   0.460   5.605
 5350TIP3    H116007   0.708   0.443   5.650
 5350TIP3    H216008   0.618   0.556   5.604
 5351TIP3   OH216009   5.101   4.350   0.809
 5351TIP3    H116010   5.027   4.321   0.863
 5351TIP3    H216011   5.152   4.270   0.794
 5352TIP3   OH216012   3.066   2.821  -0.016
 5352TIP3    H116013   3.002   2.802   0.053
 5352TIP3    H216014   3.079   2.737  -0.060
 5353TIP3   OH216015   7.642   0.337   3.053
 5353TIP3    H116016   7.682   0.340   3.140
 5353TIP3    H216017   7.610   0.425   3.038
 5354TIP3   OH216018   2.760   7.478   5.166
 5354TIP3    H116019   2.667   7.495   5.152
 5354TIP3    H216020   2.765   7.446   5.256
 5355TIP3   OH216021   4.971   3.528   5.961
 5355TIP3    H116022   4.919   3.603   5.934
 5355TIP3    H216023   5.021   3.503   5.883
 5356TIP3   OH216024   8.091   4.048   6.274
 5356TIP3    H116025   8.050   4.033   6.189
 5356TIP3    H216026   8.037   3.999   6.336
 5357TIP3   OH216027   1.815   3.027   2.356
 5357TIP3    H116028   1.769   3.058   2.434
 5357TIP3    H216029   1.861   2.948   2.385
 5358TIP3   OH216030   4.961   2.471   0.508
 5358TIP3    H116031   4.943   2.421   0.428
 5358TIP3    H216032   5.026   2.419   0.555
 5359TIP3   OH216033   2.205   2.001   1.983
 5359TIP3    H116034   2.172   1.915   1.958
 5359TIP3    H216035   2.222   1.994   2.077
 5360TIP3   OH216036   1.100   0.434   4.396
 5360TIP3    H116037   1.085   0.518   4.353
 5360TIP3    H216038   1.019   0.416   4.443
 5361TIP3   OH216039   1.591   2.665   5.865
 5361TIP3    H116040   1.568   2.620   5.947
 5361TIP3    H216041   1.640   2.601   5.814
 5362TIP3   OH216042   4.245   6.917   1.337
 5362TIP3    H116043   4.228   6.913   1.243
 5362TIP3    H216044   4.191   6.848   1.375
 5363TIP3   OH216045   3.526   0.640   4.139
 5363TIP3    H116046   3.445   0.596   4.166
 5363TIP3    H216047   3.510   0.732   4.157
 5364TIP3   OH216048   6.026   2.587   0.519
 5364TIP3    H116049   6.066   2.536   0.590
 5364TIP3    H216050   5.942   2.544   0.503
 5365TIP3   OH216051   0.131   5.705   3.792
 5365TIP3    H116052   0.057   5.749   3.835
 5365TIP3    H216053   0.091   5.636   3.740
 5366TIP3   OH216054   3.081   6.495   5.426
 5366TIP3    H116055   3.098   6.589   5.415
 5366TIP3    H216056   3.141   6.453   5.366
 5367TIP3   OH216057   5.491   1.713   2.258
 5367TIP3    H116058   5.538   1.778   2.312
 5367TIP3    H216059   5.452   1.765   2.188
 5368TIP3   OH216060   4.925   0.097   6.280
 5368TIP3    H116061   4.835   0.103   6.251
 5368TIP3    H216062   4.977   0.117   6.202
 5369TIP3   OH216063   3.241   0.700   2.371
 5369TIP3    H116064   3.174   0.634   2.353
 5369TIP3    H216065   3.234   0.717   2.465
 5370TIP3   OH216066   5.915   6.919   3.832
 5370TIP3    H116067   5.929   6.869   3.752
 5370TIP3    H216068   5.947   7.007   3.812
 5371TIP3   OH216069   8.296   5.893   4.493
 5371TIP3    H116070   8.337   5.977   4.475
 5371TIP3    H216071   8.202   5.909   4.484
 5372TIP3   OH216072   1.229   2.851   0.963
 5372TIP3    H116073   1.186   2.777   0.919
 5372TIP3    H216074   1.176   2.927   0.940
 5373TIP3   OH216075   1.750   5.224   2.424
 5373TIP3    H116076   1.843   5.228   2.447
 5373TIP3    H216077   1.727   5.314   2.401
 5374TIP3   OH216078   6.740   4.069   2.847
 5374TIP3    H116079   6.667   4.031   2.799
 5374TIP3    H216080   6.744   4.020   2.929
 5375TIP3   OH216081   3.457   1.674   6.472
 5375TIP3    H116082   3.404   1.667   6.393
 5375TIP3    H216083   3.528   1.734   6.448
 5376TIP3   OH216084   0.784   0.336   5.084
 5376TIP3    H116085   0.715   0.400   5.101
 5376TIP3    H216086   0.834   0.331   5.166
 5377TIP3   OH216087   2.867   2.521   1.740
 5377TIP3    H116088   2.806   2.478   1.800
 5377TIP3    H216089   2.936   2.556   1.798
 5378TIP3   OH216090   7.260   0.471   0.095
 5378TIP3    H116091   7.185   0.520   0.130
 5378TIP3    H216092   7.305   0.438   0.172
 5379TIP3   OH216093   7.186   2.391   1.105
 5379TIP3    H116094   7.192   2.305   1.063
 5379TIP3    H216095   7.273   2.407   1.139
 5380TIP3   OH216096   0.167   6.097   4.365
 5380TIP3    H116097   0.142   6.138   4.448
 5380TIP3    H216098   0.259   6.120   4.353
 5381TIP3   OH216099   4.815   7.399   0.293
 5381TIP3    H116100   4.821   7.316   0.245
 5381TIP3    H216101   4.751   7.450   0.244
 5382TIP3   OH216102   2.965   7.061   3.851
 5382TIP3    H116103   2.965   7.083   3.757
 5382TIP3    H216104   2.957   7.145   3.895
 5383TIP3   OH216105   6.821   5.926   0.231
 5383TIP3    H116106   6.875   5.872   0.173
 5383TIP3    H216107   6.860   5.914   0.318
 5384TIP3   OH216108   7.018   7.863   5.805
 5384TIP3    H116109   7.016   7.788   5.746
 5384TIP3    H216110   7.061   7.932   5.755
 5385TIP3   OH216111   2.876   3.257   5.638
 5385TIP3    H116112   2.834   3.330   5.683
 5385TIP3    H216113   2.970   3.278   5.640
 5386TIP3   OH216114   3.988   4.376   6.655
 5386TIP3    H116115   3.898   4.377   6.687
 5386TIP3    H216116   4.011   4.283   6.648
 5387TIP3   OH216117   7.902   2.368   1.684
 5387TIP3    H116118   7.863   2.331   1.605
 5387TIP3    H216119   7.943   2.293   1.728
 5388TIP3   OH216120   2.256   4.662   2.177
 5388TIP3    H116121   2.334   4.715   2.192
 5388TIP3    H216122   2.220   4.648   2.264
 5389TIP3   OH216123   0.574   3.355   5.905
 5389TIP3    H116124   0.552   3.368   5.813
 5389TIP3    H216125   0.591   3.261   5.912
 5390TIP3   OH216126   0.729   4.461   4.491
 5390TIP3    H116127   0.818   4.485   4.465
 5390TIP3    H216128   0.687   4.436   4.409
 5391TIP3   OH216129   7.735   7.068   3.118
 5391TIP3    H116130   7.672   7.138   3.133
 5391TIP3    H216131   7.708   6.998   3.178
 5392TIP3   OH216132   1.439   0.899   0.692
 5392TIP3    H116133   1.432   0.809   0.659
 5392TIP3    H216134   1.357   0.913   0.740
 5393TIP3   OH216135   6.833   6.823   0.697
 5393TIP3    H116136   6.738   6.814   0.697
 5393TIP3    H216137   6.849   6.907   0.654
 5394TIP3   OH216138   4.707   6.459   0.356
 5394TIP3    H116139   4.619   6.494   0.337
 5394TIP3    H216140   4.748   6.527   0.410
 5395TIP3   OH216141   2.514   6.201   5.548
 5395TIP3    H116142   2.607   6.209   5.566
 5395TIP3    H216143   2.509   6.190   5.453
 5396TIP3   OH216144   1.442   7.729   2.730
 5396TIP3    H116145   1.460   7.812   2.686
 5396TIP3    H216146   1.510   7.721   2.796
 5397TIP3   OH216147   2.644   4.449   1.256
 5397TIP3    H116148   2.559   4.412   1.280
 5397TIP3    H216149   2.640   4.455   1.160
 5398TIP3   OH216150   1.179   2.254   6.397
 5398TIP3    H116151   1.160   2.331   6.344
 5398TIP3    H216152   1.274   2.251   6.402
 5399TIP3   OH216153   4.200   2.644   6.566
 5399TIP3    H116154   4.240   2.683   6.489
 5399TIP3    H216155   4.221   2.550   6.559
 5400TIP3   OH216156   7.557   3.586   0.888
 5400TIP3    H116157   7.592   3.632   0.812
 5400TIP3    H216158   7.504   3.652   0.934
 5401TIP3   OH216159   2.306   3.926   4.324
 5401TIP3    H116160   2.292   4.010   4.282
 5401TIP3    H216161   2.255   3.864   4.272
 5402TIP3   OH216162   4.692   2.295   2.395
 5402TIP3    H116163   4.644   2.378   2.401
 5402TIP3    H216164   4.783   2.318   2.414
 5403TIP3   OH216165   1.203   5.820   3.020
 5403TIP3    H116166   1.242   5.793   2.938
 5403TIP3    H216167   1.179   5.912   3.006
 5404TIP3   OH216168   6.669   7.591   0.691
 5404TIP3    H116169   6.730   7.658   0.659
 5404TIP3    H216170   6.655   7.534   0.615
 5405TIP3   OH216171   2.534   2.723   0.053
 5405TIP3    H116172   2.455   2.771   0.027
 5405TIP3    H216173   2.537   2.649  -0.008
 5406TIP3   OH216174   2.501   2.773   6.154
 5406TIP3    H116175   2.482   2.775   6.060
 5406TIP3    H216176   2.490   2.864   6.182
 5407TIP3   OH216177   3.247   1.097   3.731
 5407TIP3    H116178   3.235   1.089   3.825
 5407TIP3    H216179   3.202   1.178   3.708
 5408TIP3   OH216180   7.831   2.679   1.537
 5408TIP3    H116181   7.822   2.592   1.576
 5408TIP3    H216182   7.905   2.671   1.478
 5409TIP3   OH216183   6.031   1.303   3.367
 5409TIP3    H116184   6.061   1.351   3.290
 5409TIP3    H216185   5.942   1.275   3.345
 5410TIP3   OH216186   1.801   3.919   5.453
 5410TIP3    H116187   1.723   3.866   5.440
 5410TIP3    H216188   1.869   3.855   5.475
 5411TIP3   OH216189   7.889   4.564   0.435
 5411TIP3    H116190   7.916   4.494   0.494
 5411TIP3    H216191   7.883   4.641   0.491
 5412TIP3   OH216192   4.360   2.103   4.230
 5412TIP3    H116193   4.402   2.186   4.253
 5412TIP3    H216194   4.344   2.110   4.136
 5413TIP3   OH216195   7.628   5.416   4.297
 5413TIP3    H116196   7.720   5.395   4.283
 5413TIP3    H216197   7.596   5.445   4.211
 5414TIP3   OH216198   3.171   4.646   5.539
 5414TIP3    H116199   3.124   4.579   5.590
 5414TIP3    H216200   3.102   4.698   5.498
 5415TIP3   OH216201   4.728   5.063   1.405
 5415TIP3    H116202   4.754   5.150   1.434
 5415TIP3    H216203   4.811   5.019   1.384
 5416TIP3   OH216204   3.963   3.731   2.659
 5416TIP3    H116205   3.973   3.682   2.740
 5416TIP3    H216206   4.040   3.787   2.655
 5417TIP3   OH216207   3.579  -0.037   1.898
 5417TIP3    H116208   3.543   0.050   1.881
 5417TIP3    H216209   3.637  -0.024   1.973
 5418TIP3   OH216210   4.864   2.849   5.224
 5418TIP3    H116211   4.781   2.885   5.191
 5418TIP3    H216212   4.927   2.919   5.209
 5419TIP3   OH216213   3.605   1.053   0.882
 5419TIP3    H116214   3.647   1.079   0.964
 5419TIP3    H216215   3.674   1.008   0.832
 5420TIP3   OH216216   6.780   7.601   2.576
 5420TIP3    H116217   6.763   7.694   2.562
 5420TIP3    H216218   6.726   7.557   2.511
 5421TIP3   OH216219   6.758   5.891   1.693
 5421TIP3    H116220   6.825   5.958   1.711
 5421TIP3    H216221   6.804   5.808   1.701
 5422TIP3   OH216222   6.353   5.660   1.791
 5422TIP3    H116223   6.364   5.747   1.751
 5422TIP3    H216224   6.259   5.653   1.808
 5423TIP3   OH216225   0.384   0.423   3.527
 5423TIP3    H116226   0.428   0.366   3.590
 5423TIP3    H216227   0.333   0.364   3.472
 5424TIP3   OH216228   7.107   2.296   1.601
 5424TIP3    H116229   7.194   2.335   1.601
 5424TIP3    H216230   7.066   2.329   1.521
 5425TIP3   OH216231   4.643   1.920   1.365
 5425TIP3    H116232   4.684   1.985   1.422
 5425TIP3    H216233   4.713   1.893   1.305
 5426TIP3   OH216234   4.812   7.531   2.635
 5426TIP3    H116235   4.850   7.488   2.559
 5426TIP3    H216236   4.767   7.607   2.599
 5427TIP3   OH216237   7.419   2.663   1.641
 5427TIP3    H116238   7.471   2.738   1.614
 5427TIP3    H216239   7.459   2.634   1.723
 5428TIP3   OH216240   8.265   5.448   6.224
 5428TIP3    H116241   8.244   5.528   6.175
 5428TIP3    H216242   8.183   5.399   6.226
 5429TIP3   OH216243   5.368   2.760   2.448
 5429TIP3    H116244   5.291   2.722   2.407
 5429TIP3    H216245   5.442   2.715   2.407
 5430TIP3   OH216246   5.647   0.131   3.247
 5430TIP3    H116247   5.591   0.208   3.242
 5430TIP3    H216248   5.643   0.094   3.158
 5431TIP3   OH216249   2.104   6.740   4.889
 5431TIP3    H116250   2.053   6.677   4.939
 5431TIP3    H216251   2.168   6.774   4.952
 5432TIP3   OH216252   7.761   4.995   6.708
 5432TIP3    H116253   7.698   5.037   6.765
 5432TIP3    H216254   7.779   4.910   6.750
 5433TIP3   OH216255   7.827   5.009   3.357
 5433TIP3    H116256   7.758   5.060   3.314
 5433TIP3    H216257   7.837   4.931   3.303
 5434TIP3   OH216258   1.254   6.086   5.772
 5434TIP3    H116259   1.292   6.163   5.729
 5434TIP3    H216260   1.187   6.055   5.711
 5435TIP3   OH216261   4.814   4.168   4.591
 5435TIP3    H116262   4.865   4.246   4.610
 5435TIP3    H216263   4.875   4.110   4.544
 5436TIP3   OH216264   3.509   4.076   1.118
 5436TIP3    H116265   3.445   4.011   1.090
 5436TIP3    H216266   3.560   4.033   1.187
 5437TIP3   OH216267   1.724   4.078   0.974
 5437TIP3    H116268   1.746   3.987   0.958
 5437TIP3    H216269   1.668   4.076   1.052
 5438TIP3   OH216270   7.861   5.899   5.417
 5438TIP3    H116271   7.940   5.943   5.446
 5438TIP3    H216272   7.794   5.968   5.415
 5439TIP3   OH216273   1.949   5.678   5.006
 5439TIP3    H116274   2.026   5.721   5.043
 5439TIP3    H216275   1.892   5.661   5.081
 5440TIP3   OH216276   3.078   4.606   3.218
 5440TIP3    H116277   3.169   4.633   3.209
 5440TIP3    H216278   3.070   4.528   3.163
 5441TIP3   OH216279   2.146   3.453   6.206
 5441TIP3    H116280   2.169   3.536   6.249
 5441TIP3    H216281   2.097   3.405   6.273
 5442TIP3   OH216282   6.880   0.377   1.146
 5442TIP3    H116283   6.968   0.402   1.175
 5442TIP3    H216284   6.830   0.370   1.227
 5443TIP3   OH216285   6.857   4.390   5.046
 5443TIP3    H116286   6.778   4.423   5.004
 5443TIP3    H216287   6.915   4.465   5.052
 5444TIP3   OH216288   0.823   5.824   5.374
 5444TIP3    H116289   0.911   5.788   5.370
 5444TIP3    H216290   0.778   5.771   5.440
 5445TIP3   OH216291   0.914   5.736   2.439
 5445TIP3    H116292   0.867   5.768   2.516
 5445TIP3    H216293   0.959   5.813   2.405
 5446TIP3   OH216294   1.727   0.573   0.977
 5446TIP3    H116295   1.749   0.659   1.013
 5446TIP3    H216296   1.632   0.574   0.970
 5447TIP3   OH216297   5.405   3.850   5.028
 5447TIP3    H116298   5.339   3.786   5.002
 5447TIP3    H216299   5.423   3.900   4.949
 5448TIP3   OH216300   2.035   2.619   6.139
 5448TIP3    H116301   2.101   2.671   6.185
 5448TIP3    H216302   1.952   2.659   6.161
 5449TIP3   OH216303   6.455   2.671   0.347
 5449TIP3    H116304   6.363   2.671   0.374
 5449TIP3    H216305   6.485   2.760   0.363
 5450TIP3   OH216306   7.841   3.553   5.169
 5450TIP3    H116307   7.785   3.537   5.245
 5450TIP3    H216308   7.802   3.629   5.126
 5451TIP3   OH216309   6.460   4.204   6.240
 5451TIP3    H116310   6.515   4.126   6.246
 5451TIP3    H216311   6.371   4.171   6.253
 5452TIP3   OH216312   1.089   2.394   5.674
 5452TIP3    H116313   1.097   2.354   5.761
 5452TIP3    H216314   1.005   2.441   5.678
 5453TIP3   OH216315   0.574   1.091   2.261
 5453TIP3    H116316   0.556   1.177   2.301
 5453TIP3    H216317   0.651   1.060   2.308
 5454TIP3   OH216318   5.197   6.319   5.859
 5454TIP3    H116319   5.274   6.264   5.877
 5454TIP3    H216320   5.174   6.356   5.944
 5455TIP3   OH216321   0.406   1.884   3.574
 5455TIP3    H116322   0.320   1.921   3.552
 5455TIP3    H216323   0.455   1.959   3.610
 5456TIP3   OH216324   0.427   2.997   3.795
 5456TIP3    H116325   0.506   2.946   3.813
 5456TIP3    H216326   0.363   2.965   3.859
 5457TIP3   OH216327   0.221   1.395   4.231
 5457TIP3    H116328   0.157   1.464   4.215
 5457TIP3    H216329   0.189   1.352   4.311
 5458TIP3   OH216330   3.677   4.229   6.095
 5458TIP3    H116331   3.610   4.216   6.028
 5458TIP3    H216332   3.649   4.306   6.143
 5459TIP3   OH216333   5.198   0.780   1.416
 5459TIP3    H116334   5.277   0.815   1.457
 5459TIP3    H216335   5.170   0.710   1.475
 5460TIP3   OH216336   2.744   6.366   5.642
 5460TIP3    H116337   2.755   6.370   5.547
 5460TIP3    H216338   2.818   6.417   5.677
 5461TIP3   OH216339   1.796   4.528   1.974
 5461TIP3    H116340   1.803   4.434   1.957
 5461TIP3    H216341   1.744   4.561   1.900
 5462TIP3   OH216342   4.164   3.620   3.782
 5462TIP3    H116343   4.157   3.708   3.745
 5462TIP3    H216344   4.243   3.583   3.742
 5463TIP3   OH216345   5.238   4.496   3.072
 5463TIP3    H116346   5.232   4.562   3.003
 5463TIP3    H216347   5.330   4.471   3.073
 5464TIP3   OH216348   0.521   3.170   1.376
 5464TIP3    H116349   0.483   3.099   1.323
 5464TIP3    H216350   0.469   3.247   1.353
 5465TIP3   OH216351   5.320   7.420   4.530
 5465TIP3    H116352   5.358   7.343   4.487
 5465TIP3    H216353   5.359   7.495   4.485
 5466TIP3   OH216354   7.929   5.189   3.881
 5466TIP3    H116355   7.999   5.144   3.928
 5466TIP3    H216356   7.972   5.262   3.838
 5467TIP3   OH216357   6.426   6.307   1.366
 5467TIP3    H116358   6.378   6.329   1.287
 5467TIP3    H216359   6.368   6.246   1.413
 5468TIP3   OH216360   2.423   0.700   3.297
 5468TIP3    H116361   2.341   0.652   3.291
 5468TIP3    H216362   2.398   0.788   3.325
 5469TIP3   OH216363   3.428   1.651   5.580
 5469TIP3    H116364   3.342   1.650   5.624
 5469TIP3    H216365   3.414   1.707   5.503
 5470TIP3   OH216366   0.489   3.203   1.805
 5470TIP3    H116367   0.475   3.285   1.758
 5470TIP3    H216368   0.401   3.172   1.826
 5471TIP3   OH216369   4.362   1.972   1.373
 5471TIP3    H116370   4.453   1.943   1.374
 5471TIP3    H216371   4.314   1.898   1.334
 5472TIP3   OH216372   2.232   0.603   6.513
 5472TIP3    H116373   2.292   0.596   6.440
 5472TIP3    H216374   2.286   0.591   6.591
 5473TIP3   OH216375   7.879   5.229   5.729
 5473TIP3    H116376   7.866   5.318   5.761
 5473TIP3    H216377   7.967   5.229   5.692
 5474TIP3   OH216378   5.256   2.013   3.488
 5474TIP3    H116379   5.310   2.086   3.459
 5474TIP3    H216380   5.174   2.023   3.440
 5475TIP3   OH216381   4.424   5.218   4.827
 5475TIP3    H116382   4.365   5.158   4.873
 5475TIP3    H216383   4.435   5.292   4.886
 5476TIP3   OH216384   5.003   1.357   4.982
 5476TIP3    H116385   4.928   1.298   4.976
 5476TIP3    H216386   5.035   1.346   5.072
 5477TIP3   OH216387   2.841   5.254   1.793
 5477TIP3    H116388   2.779   5.242   1.865
 5477TIP3    H216389   2.913   5.303   1.832
 5478TIP3   OH216390   5.456   6.402   3.373
 5478TIP3    H116391   5.527   6.339   3.382
 5478TIP3    H216392   5.392   6.358   3.317
 5479TIP3   OH216393   2.826   2.864   2.561
 5479TIP3    H116394   2.798   2.849   2.471
 5479TIP3    H216395   2.917   2.833   2.563
 5480TIP3   OH216396   2.350   3.525   2.234
 5480TIP3    H116397   2.308   3.474   2.304
 5480TIP3    H216398   2.419   3.468   2.202
 5481TIP3   OH216399  -0.034   1.371   1.505
 5481TIP3    H116400   0.051   1.401   1.472
 5481TIP3    H216401  -0.025   1.377   1.600
 5482TIP3   OH216402   5.026   3.043   5.035
 5482TIP3    H116403   5.096   3.093   4.993
 5482TIP3    H216404   5.039   3.059   5.129
 5483TIP3   OH216405   3.160   7.289   1.089
 5483TIP3    H116406   3.071   7.306   1.122
 5483TIP3    H216407   3.191   7.216   1.143
 5484TIP3   OH216408   0.277   4.600   0.020
 5484TIP3    H116409   0.214   4.609  -0.051
 5484TIP3    H216410   0.253   4.668   0.083
 5485TIP3   OH216411   2.224   5.456   4.614
 5485TIP3    H116412   2.288   5.399   4.657
 5485TIP3    H216413   2.182   5.503   4.686
 5486TIP3   OH216414   2.992   3.849   5.952
 5486TIP3    H116415   3.059   3.915   5.972
 5486TIP3    H216416   2.909   3.891   5.976
 5487TIP3   OH216417   1.423   0.520   5.296
 5487TIP3    H116418   1.483   0.557   5.361
 5487TIP3    H216419   1.345   0.575   5.301
 5488TIP3   OH216420   0.768   5.633   5.806
 5488TIP3    H116421   0.733   5.548   5.832
 5488TIP3    H216422   0.851   5.640   5.853
 5489TIP3   OH216423   8.162   4.901   0.568
 5489TIP3    H116424   8.242   4.906   0.619
 5489TIP3    H216425   8.187   4.929   0.480
 5490TIP3   OH216426   6.307   1.639   5.927
 5490TIP3    H116427   6.255   1.696   5.983
 5490TIP3    H216428   6.281   1.663   5.838
 5491TIP3   OH216429   1.040   5.939   2.266
 5491TIP3    H116430   1.054   6.021   2.313
 5491TIP3    H216431   0.947   5.941   2.242
 5492TIP3   OH216432   1.503   2.530   6.094
 5492TIP3    H116433   1.411   2.518   6.120
 5492TIP3    H216434   1.553   2.504   6.171
 5493TIP3   OH216435   7.173   2.627   4.318
 5493TIP3    H116436   7.167   2.559   4.385
 5493TIP3    H216437   7.197   2.706   4.366
 5494TIP3   OH216438   7.419   7.530   0.153
 5494TIP3    H116439   7.339   7.478   0.162
 5494TIP3    H216440   7.489   7.465   0.149
 5495TIP3   OH216441   2.736   6.552   1.598
 5495TIP3    H116442   2.808   6.573   1.538
 5495TIP3    H216443   2.725   6.457   1.589
 5496TIP3   OH216444   7.705   0.060   0.613
 5496TIP3    H116445   7.801   0.063   0.613
 5496TIP3    H216446   7.682   0.012   0.534
 5497TIP3   OH216447   7.304   4.180   0.086
 5497TIP3    H116448   7.342   4.148   0.168
 5497TIP3    H216449   7.210   4.165   0.096
 5498TIP3   OH216450   1.745   4.923   4.391
 5498TIP3    H116451   1.691   4.969   4.455
 5498TIP3    H216452   1.835   4.947   4.414
 5499TIP3   OH216453   0.130   1.679   5.378
 5499TIP3    H116454   0.223   1.663   5.392
 5499TIP3    H216455   0.093   1.683   5.467
 5500TIP3   OH216456   0.048   3.687   5.225
 5500TIP3    H116457   0.089   3.771   5.244
 5500TIP3    H216458   0.059   3.676   5.130
 5501TIP3   OH216459   7.694   0.241   5.271
 5501TIP3    H116460   7.638   0.187   5.216
 5501TIP3    H216461   7.678   0.330   5.242
 5502TIP3   OH216462   3.117   1.876   0.502
 5502TIP3    H116463   3.115   1.786   0.468
 5502TIP3    H216464   3.090   1.930   0.427
 5503TIP3   OH216465   3.795   2.118   5.568
 5503TIP3    H116466   3.756   2.104   5.654
 5503TIP3    H216467   3.884   2.085   5.576
 5504TIP3   OH216468   4.795   6.154   2.119
 5504TIP3    H116469   4.757   6.093   2.182
 5504TIP3    H216470   4.784   6.240   2.159
 5505TIP3   OH216471   2.928   0.023   1.438
 5505TIP3    H116472   2.979   0.068   1.506
 5505TIP3    H216473   2.994  -0.021   1.385
 5506TIP3   OH216474   0.842   2.849   3.103
 5506TIP3    H116475   0.913   2.785   3.096
 5506TIP3    H216476   0.855   2.889   3.189
 5507TIP3   OH216477   0.152   1.154   2.069
 5507TIP3    H116478   0.146   1.179   1.977
 5507TIP3    H216479   0.238   1.184   2.097
 5508TIP3   OH216480   7.220   6.142   6.039
 5508TIP3    H116481   7.191   6.229   6.068
 5508TIP3    H216482   7.163   6.121   5.966
 5509TIP3   OH216483   1.145   6.593   1.271
 5509TIP3    H116484   1.104   6.671   1.308
 5509TIP3    H216485   1.133   6.601   1.177
 5510TIP3   OH216486   6.840   5.699   2.039
 5510TIP3    H116487   6.920   5.725   2.084
 5510TIP3    H216488   6.861   5.706   1.946
 5511TIP3   OH216489   7.366   2.916   5.266
 5511TIP3    H116490   7.458   2.944   5.263
 5511TIP3    H216491   7.317   2.997   5.282
 5512TIP3   OH216492   3.421   0.746   5.057
 5512TIP3    H116493   3.474   0.808   5.007
 5512TIP3    H216494   3.473   0.729   5.136
 5513TIP3   OH216495   1.865   6.289   4.543
 5513TIP3    H116496   1.818   6.339   4.610
 5513TIP3    H216497   1.868   6.200   4.578
 5514TIP3   OH216498   2.065   3.999   4.521
 5514TIP3    H116499   2.131   4.002   4.451
 5514TIP3    H216500   1.984   4.028   4.479
 5515TIP3   OH216501   3.983   4.381   1.297
 5515TIP3    H116502   4.003   4.288   1.283
 5515TIP3    H216503   3.943   4.384   1.384
 5516TIP3   OH216504   1.992   5.284   5.108
 5516TIP3    H116505   1.897   5.272   5.113
 5516TIP3    H216506   2.026   5.197   5.087
 5517TIP3   OH216507   3.519   2.742   6.172
 5517TIP3    H116508   3.613   2.734   6.156
 5517TIP3    H216509   3.504   2.700   6.256
 5518TIP3   OH216510   1.559   2.723   6.719
 5518TIP3    H116511   1.647   2.691   6.738
 5518TIP3    H216512   1.513   2.648   6.682
 5519TIP3   OH216513   7.749   5.328   0.396
 5519TIP3    H116514   7.661   5.347   0.365
 5519TIP3    H216515   7.805   5.390   0.349
 5520TIP3   OH216516   0.152   7.214   0.443
 5520TIP3    H116517   0.192   7.190   0.359
 5520TIP3    H216518   0.074   7.159   0.449
 5521TIP3   OH216519   0.941   4.728   0.966
 5521TIP3    H116520   0.962   4.649   1.015
 5521TIP3    H216521   0.846   4.730   0.963
 5522TIP3   OH216522   0.233   1.489   0.432
 5522TIP3    H116523   0.138   1.495   0.428
 5522TIP3    H216524   0.251   1.395   0.434
 5523TIP3   OH216525   0.783   5.886   5.932
 5523TIP3    H116526   0.870   5.916   5.906
 5523TIP3    H216527   0.759   5.822   5.865
 5524TIP3   OH216528   1.382   2.318   5.908
 5524TIP3    H116529   1.377   2.409   5.935
 5524TIP3    H216530   1.291   2.289   5.901
 5525TIP3   OH216531   7.865   7.053   6.494
 5525TIP3    H116532   7.928   6.996   6.540
 5525TIP3    H216533   7.798   7.072   6.559
 5526TIP3   OH216534   8.271   6.782   2.966
 5526TIP3    H116535   8.193   6.735   2.994
 5526TIP3    H216536   8.268   6.866   3.011
 5527TIP3   OH216537   1.330   5.044   6.399
 5527TIP3    H116538   1.298   4.981   6.335
 5527TIP3    H216539   1.252   5.095   6.422
 5528TIP3   OH216540   3.945   4.631   1.797
 5528TIP3    H116541   3.976   4.711   1.754
 5528TIP3    H216542   3.884   4.663   1.864
 5529TIP3   OH216543   6.693   7.121   0.955
 5529TIP3    H116544   6.715   7.183   1.025
 5529TIP3    H216545   6.729   7.038   0.985
 5530TIP3   OH216546   2.104   2.359   4.848
 5530TIP3    H116547   2.089   2.444   4.891
 5530TIP3    H216548   2.164   2.314   4.906
 5531TIP3   OH216549   1.673   3.350   2.727
 5531TIP3    H116550   1.691   3.397   2.808
 5531TIP3    H216551   1.578   3.353   2.717
 5532TIP3   OH216552   4.944   4.159   2.562
 5532TIP3    H116553   5.018   4.124   2.611
 5532TIP3    H216554   4.867   4.117   2.600
 5533TIP3   OH216555   1.053   5.313   2.986
 5533TIP3    H116556   1.047   5.379   2.917
 5533TIP3    H216557   1.025   5.232   2.944
 5534TIP3   OH216558   3.093   7.499   6.551
 5534TIP3    H116559   3.129   7.551   6.622
 5534TIP3    H216560   3.018   7.550   6.520
 5535TIP3   OH216561   7.132   0.416   1.233
 5535TIP3    H116562   7.178   0.445   1.312
 5535TIP3    H216563   7.113   0.323   1.249
 5536TIP3   OH216564   0.646   6.574   1.393
 5536TIP3    H116565   0.565   6.524   1.400
 5536TIP3    H216566   0.714   6.508   1.385
 5537TIP3   OH216567   0.870   7.573   4.887
 5537TIP3    H116568   0.782   7.592   4.918
 5537TIP3    H216569   0.859   7.502   4.824
 5538TIP3   OH216570   5.083   2.554   5.460
 5538TIP3    H116571   5.000   2.523   5.497
 5538TIP3    H216572   5.077   2.650   5.464
 5539TIP3   OH216573   7.527   1.794   5.650
 5539TIP3    H116574   7.544   1.810   5.557
 5539TIP3    H216575   7.496   1.704   5.654
 5540TIP3   OH216576   1.746   0.676   2.810
 5540TIP3    H116577   1.734   0.624   2.731
 5540TIP3    H216578   1.683   0.640   2.873
 5541TIP3   OH216579   1.023   5.884   0.169
 5541TIP3    H116580   0.951   5.946   0.180
 5541TIP3    H216581   1.090   5.933   0.122
 5542TIP3   OH216582   5.213   6.446   0.873
 5542TIP3    H116583   5.285   6.482   0.820
 5542TIP3    H216584   5.134   6.468   0.825
 5543TIP3   OH216585   6.428   3.651   2.768
 5543TIP3    H116586   6.422   3.746   2.764
 5543TIP3    H216587   6.347   3.620   2.726
 5544TIP3   OH216588   4.019   0.454   0.702
 5544TIP3    H116589   3.990   0.485   0.788
 5544TIP3    H216590   4.094   0.510   0.680
 5545TIP3   OH216591   2.048   3.398   0.409
 5545TIP3    H116592   2.120   3.345   0.441
 5545TIP3    H216593   2.089   3.478   0.376
 5546TIP3   OH216594   2.498   5.962   1.964
 5546TIP3    H116595   2.568   5.898   1.970
 5546TIP3    H216596   2.435   5.935   2.031
 5547TIP3   OH216597   5.765   5.559   0.597
 5547TIP3    H116598   5.715   5.616   0.655
 5547TIP3    H216599   5.754   5.598   0.510
 5548TIP3   OH216600   7.207   0.009   5.743
 5548TIP3    H116601   7.287   0.056   5.761
 5548TIP3    H216602   7.140   0.052   5.797
 5549TIP3   OH216603   4.328   1.340   2.697
 5549TIP3    H116604   4.247   1.328   2.747
 5549TIP3    H216605   4.385   1.270   2.727
 5550TIP3   OH216606   6.099   3.613   6.472
 5550TIP3    H116607   6.050   3.554   6.529
 5550TIP3    H216608   6.040   3.631   6.399
 5551TIP3   OH216609   6.878   6.565   1.581
 5551TIP3    H116610   6.951   6.568   1.519
 5551TIP3    H216611   6.810   6.515   1.536
 5552TIP3   OH216612   5.523   5.356   4.601
 5552TIP3    H116613   5.448   5.313   4.559
 5552TIP3    H216614   5.511   5.340   4.695
 5553TIP3   OH216615   1.089   6.586   1.008
 5553TIP3    H116616   1.168   6.553   0.965
 5553TIP3    H216617   1.039   6.627   0.937
 5554TIP3   OH216618   2.811   0.719   4.951
 5554TIP3    H116619   2.780   0.672   4.874
 5554TIP3    H216620   2.739   0.712   5.014
 5555TIP3   OH216621   3.160   2.735   3.910
 5555TIP3    H116622   3.224   2.750   3.840
 5555TIP3    H216623   3.099   2.809   3.903
 5556TIP3   OH216624   3.166   3.170   1.176
 5556TIP3    H116625   3.246   3.155   1.125
 5556TIP3    H216626   3.105   3.206   1.112
 5557TIP3   OH216627   7.881   0.154   6.776
 5557TIP3    H116628   7.859   0.243   6.749
 5557TIP3    H216629   7.799   0.105   6.767
 5558TIP3   OH216630   7.159   3.864   3.405
 5558TIP3    H116631   7.139   3.793   3.466
 5558TIP3    H216632   7.166   3.822   3.320
 5559TIP3   OH216633   4.629   5.421   4.797
 5559TIP3    H116634   4.686   5.344   4.798
 5559TIP3    H216635   4.598   5.429   4.887
 5560TIP3   OH216636   5.354   4.580   4.802
 5560TIP3    H116637   5.265   4.603   4.830
 5560TIP3    H216638   5.394   4.663   4.777
 5561TIP3   OH216639   0.295   3.723   6.641
 5561TIP3    H116640   0.245   3.660   6.692
 5561TIP3    H216641   0.377   3.678   6.620
 5562TIP3   OH216642   0.126   1.852   3.875
 5562TIP3    H116643   0.198   1.794   3.850
 5562TIP3    H216644   0.079   1.804   3.942
 5563TIP3   OH216645   6.893   0.411   2.134
 5563TIP3    H116646   6.931   0.490   2.096
 5563TIP3    H216647   6.800   0.414   2.109
 5564TIP3   OH216648   0.077   0.633   6.164
 5564TIP3    H116649   0.080   0.597   6.252
 5564TIP3    H216650   0.006   0.585   6.121
 5565TIP3   OH216651   0.735   5.043   2.056
 5565TIP3    H116652   0.716   5.018   2.146
 5565TIP3    H216653   0.661   5.008   2.006
 5566TIP3   OH216654   0.995   4.436   4.445
 5566TIP3    H116655   1.041   4.478   4.372
 5566TIP3    H216656   1.022   4.345   4.441
 5567TIP3   OH216657   0.240   5.790   2.893
 5567TIP3    H116658   0.199   5.781   2.979
 5567TIP3    H216659   0.221   5.708   2.848
 5568TIP3   OH216660   0.764   0.646   1.784
 5568TIP3    H116661   0.825   0.718   1.798
 5568TIP3    H216662   0.679   0.681   1.810
 5569TIP3   OH216663   2.285   1.339   5.196
 5569TIP3    H116664   2.232   1.386   5.261
 5569TIP3    H216665   2.360   1.306   5.246
 5570TIP3   OH216666   2.486   1.218   5.332
 5570TIP3    H116667   2.580   1.217   5.351
 5570TIP3    H216668   2.446   1.187   5.413
 5571TIP3   OH216669   7.071   6.125   5.775
 5571TIP3    H116670   7.028   6.166   5.700
 5571TIP3    H216671   7.161   6.159   5.772
 5572TIP3   OH216672   1.911   4.022   6.124
 5572TIP3    H116673   1.910   4.093   6.187
 5572TIP3    H216674   1.891   4.064   6.040
 5573TIP3   OH216675   4.180   2.568   0.331
 5573TIP3    H116676   4.089   2.541   0.318
 5573TIP3    H216677   4.217   2.501   0.389
 5574TIP3   OH216678   4.228   2.798   4.747
 5574TIP3    H116679   4.200   2.723   4.694
 5574TIP3    H216680   4.146   2.838   4.776
 5575TIP3   OH216681   2.793   4.846   4.442
 5575TIP3    H116682   2.721   4.850   4.380
 5575TIP3    H216683   2.851   4.777   4.409
 5576TIP3   OH216684   2.640   2.653   1.609
 5576TIP3    H116685   2.623   2.714   1.681
 5576TIP3    H216686   2.726   2.615   1.629
 5577TIP3   OH216687   2.204   3.225   6.652
 5577TIP3    H116688   2.144   3.246   6.723
 5577TIP3    H216689   2.262   3.301   6.647
 5578TIP3   OH216690   6.532   3.359   1.642
 5578TIP3    H116691   6.607   3.309   1.610
 5578TIP3    H216692   6.570   3.421   1.705
 5579TIP3   OH216693   5.441   2.290   2.872
 5579TIP3    H116694   5.405   2.301   2.784
 5579TIP3    H216695   5.369   2.252   2.922
 5580TIP3   OH216696   1.697   2.884   5.727
 5580TIP3    H116697   1.659   2.829   5.796
 5580TIP3    H216698   1.710   2.825   5.653
 5581TIP3   OH216699   1.836   1.903   1.453
 5581TIP3    H116700   1.814   1.865   1.368
 5581TIP3    H216701   1.831   1.997   1.439
 5582TIP3   OH216702   6.628   1.382   1.349
 5582TIP3    H116703   6.714   1.415   1.374
 5582TIP3    H216704   6.636   1.287   1.356
 5583TIP3   OH216705   0.428   0.414   6.199
 5583TIP3    H116706   0.386   0.426   6.284
 5583TIP3    H216707   0.389   0.334   6.164
 5584TIP3   OH216708   6.974   7.597   6.492
 5584TIP3    H116709   7.030   7.523   6.516
 5584TIP3    H216710   6.988   7.660   6.563
 5585TIP3   OH216711   5.462   2.494   2.364
 5585TIP3    H116712   5.438   2.408   2.330
 5585TIP3    H216713   5.547   2.513   2.323
 5586TIP3   OH216714   4.932   2.164   6.693
 5586TIP3    H116715   4.975   2.198   6.771
 5586TIP3    H216716   4.854   2.120   6.726
 5587TIP3   OH216717   5.292   0.964   5.044
 5587TIP3    H116718   5.209   0.981   5.001
 5587TIP3    H216719   5.297   0.868   5.049
 5588TIP3   OH216720   6.050   6.755   4.032
 5588TIP3    H116721   6.060   6.846   4.059
 5588TIP3    H216722   5.970   6.754   3.979
 5589TIP3   OH216723   1.456   6.506   4.975
 5589TIP3    H116724   1.498   6.420   4.969
 5589TIP3    H216725   1.526   6.568   4.956
 5590TIP3   OH216726   1.994   1.821   6.619
 5590TIP3    H116727   2.044   1.766   6.679
 5590TIP3    H216728   1.928   1.863   6.674
 5591TIP3   OH216729   6.198   3.718   0.439
 5591TIP3    H116730   6.291   3.697   0.446
 5591TIP3    H216731   6.153   3.635   0.453
 5592TIP3   OH216732   3.783   4.018   0.871
 5592TIP3    H116733   3.719   4.023   0.799
 5592TIP3    H216734   3.861   3.979   0.831
 5593TIP3   OH216735   2.694   6.781   5.700
 5593TIP3    H116736   2.761   6.850   5.703
 5593TIP3    H216737   2.688   6.749   5.790
 5594TIP3   OH216738   7.142   2.013   4.859
 5594TIP3    H116739   7.182   1.964   4.787
 5594TIP3    H216740   7.202   2.000   4.933
 5595TIP3   OH216741   3.673   5.369   6.130
 5595TIP3    H116742   3.681   5.273   6.123
 5595TIP3    H216743   3.579   5.385   6.123
 5596TIP3   OH216744   6.262   5.196   3.811
 5596TIP3    H116745   6.237   5.132   3.878
 5596TIP3    H216746   6.198   5.183   3.741
 5597TIP3   OH216747   2.502   7.734   4.120
 5597TIP3    H116748   2.525   7.767   4.206
 5597TIP3    H216749   2.510   7.810   4.062
 5598TIP3   OH216750   2.176   6.179   5.504
 5598TIP3    H116751   2.236   6.110   5.475
 5598TIP3    H216752   2.099   6.132   5.536
 5599TIP3   OH216753   8.242   6.553   4.142
 5599TIP3    H116754   8.297   6.487   4.099
 5599TIP3    H216755   8.173   6.503   4.185
 5600TIP3   OH216756   2.994   4.682   2.969
 5600TIP3    H116757   3.047   4.754   2.934
 5600TIP3    H216758   3.026   4.671   3.058
 5601TIP3   OH216759   0.258   6.528   0.417
 5601TIP3    H116760   0.257   6.582   0.338
 5601TIP3    H216761   0.168   6.498   0.427
 5602TIP3   OH216762   1.981   1.860   0.753
 5602TIP3    H116763   2.072   1.852   0.782
 5602TIP3    H216764   1.933   1.886   0.831
 5603TIP3   OH216765   3.160   2.450   1.117
 5603TIP3    H116766   3.073   2.419   1.094
 5603TIP3    H216767   3.146   2.539   1.151
 5604TIP3   OH216768   8.258   4.166   0.262
 5604TIP3    H116769   8.325   4.135   0.322
 5604TIP3    H216770   8.182   4.182   0.317
 5605TIP3   OH216771   2.205   7.798   5.347
 5605TIP3    H116772   2.209   7.840   5.262
 5605TIP3    H216773   2.179   7.708   5.329
 5606TIP3   OH216774   4.368   5.012   1.409
 5606TIP3    H116775   4.283   4.967   1.408
 5606TIP3    H216776   4.354   5.088   1.464
 5607TIP3   OH216777   0.779   0.329   0.190
 5607TIP3    H116778   0.744   0.414   0.164
 5607TIP3    H216779   0.711   0.290   0.244
 5608TIP3   OH216780   7.782   6.509   5.326
 5608TIP3    H116781   7.810   6.597   5.351
 5608TIP3    H216782   7.703   6.522   5.275
 5609TIP3   OH216783   0.084   3.914   4.805
 5609TIP3    H116784   0.023   3.917   4.879
 5609TIP3    H216785   0.084   3.822   4.779
 5610TIP3   OH216786   6.207   4.171   3.617
 5610TIP3    H116787   6.292   4.216   3.620
 5610TIP3    H216788   6.142   4.241   3.618
 5611TIP3   OH216789   3.409   6.541   5.517
 5611TIP3    H116790   3.454   6.476   5.571
 5611TIP3    H216791   3.360   6.594   5.580
 5612TIP3   OH216792   1.835   5.711   2.337
 5612TIP3    H116793   1.930   5.701   2.324
 5612TIP3    H216794   1.823   5.804   2.354
 5613TIP3   OH216795   7.011   2.936   4.830
 5613TIP3    H116796   7.095   2.965   4.866
 5613TIP3    H216797   6.997   2.849   4.869
 5614TIP3   OH216798   6.186   2.042   3.979
 5614TIP3    H116799   6.244   2.059   4.053
 5614TIP3    H216800   6.128   1.973   4.010
 5615TIP3   OH216801   7.456   1.389   2.510
 5615TIP3    H116802   7.481   1.472   2.471
 5615TIP3    H216803   7.486   1.394   2.601
 5616TIP3   OH216804   1.344   5.955   3.841
 5616TIP3    H116805   1.298   5.895   3.782
 5616TIP3    H216806   1.286   6.031   3.848
 5617TIP3   OH216807   3.940   5.797   4.128
 5617TIP3    H116808   4.008   5.751   4.177
 5617TIP3    H216809   3.869   5.808   4.191
 5618TIP3   OH216810   7.909   5.515   2.555
 5618TIP3    H116811   7.934   5.435   2.510
 5618TIP3    H216812   7.814   5.519   2.547
 5619TIP3   OH216813   6.954   1.220   3.278
 5619TIP3    H116814   6.865   1.184   3.273
 5619TIP3    H216815   7.007   1.160   3.226
 5620TIP3   OH216816   2.798   6.414   5.387
 5620TIP3    H116817   2.890   6.421   5.362
 5620TIP3    H216818   2.751   6.412   5.303
 5621TIP3   OH216819   3.102   5.447   4.678
 5621TIP3    H116820   3.109   5.371   4.737
 5621TIP3    H216821   3.077   5.519   4.735
 5622TIP3   OH216822   5.724   6.407   6.105
 5622TIP3    H116823   5.698   6.424   6.196
 5622TIP3    H216824   5.804   6.457   6.093
 5623TIP3   OH216825   7.332   7.574   1.986
 5623TIP3    H116826   7.346   7.555   1.893
 5623TIP3    H216827   7.379   7.656   2.001
 5624TIP3   OH216828   3.153   7.037   1.192
 5624TIP3    H116829   3.167   6.951   1.151
 5624TIP3    H216830   3.057   7.048   1.190
 5625TIP3   OH216831   6.565   3.474   1.160
 5625TIP3    H116832   6.517   3.435   1.087
 5625TIP3    H216833   6.602   3.400   1.207
 5626TIP3   OH216834   8.226   3.420   3.704
 5626TIP3    H116835   8.238   3.512   3.680
 5626TIP3    H216836   8.263   3.371   3.631
 5627TIP3   OH216837   8.062   6.382   4.250
 5627TIP3    H116838   8.104   6.310   4.298
 5627TIP3    H216839   7.977   6.345   4.222
 5628TIP3   OH216840   3.714   2.201   0.629
 5628TIP3    H116841   3.684   2.195   0.538
 5628TIP3    H216842   3.759   2.118   0.645
 5629TIP3   OH216843   5.295   0.094   2.946
 5629TIP3    H116844   5.302   0.041   2.867
 5629TIP3    H216845   5.358   0.165   2.933
 5630TIP3   OH216846   3.201   4.964   5.689
 5630TIP3    H116847   3.198   4.875   5.722
 5630TIP3    H216848   3.223   4.954   5.596
 5631TIP3   OH216849   7.442   3.728   6.180
 5631TIP3    H116850   7.414   3.819   6.172
 5631TIP3    H216851   7.515   3.719   6.119
 5632TIP3   OH216852   2.700   0.964   2.740
 5632TIP3    H116853   2.667   0.913   2.666
 5632TIP3    H216854   2.665   1.052   2.727
 5633TIP3   OH216855   1.604   5.974   3.372
 5633TIP3    H116856   1.530   6.021   3.410
 5633TIP3    H216857   1.565   5.902   3.323
 5634TIP3   OH216858   1.065   6.005   5.604
 5634TIP3    H116859   1.041   6.063   5.531
 5634TIP3    H216860   1.057   5.917   5.568
 5635TIP3   OH216861   6.811   5.972   0.790
 5635TIP3    H116862   6.728   5.974   0.838
 5635TIP3    H216863   6.875   5.943   0.854
 5636TIP3   OH216864   3.886   2.323   3.308
 5636TIP3    H116865   3.802   2.279   3.296
 5636TIP3    H216866   3.872   2.412   3.274
 5637TIP3   OH216867   4.246   5.016   5.957
 5637TIP3    H116868   4.162   5.049   5.927
 5637TIP3    H216869   4.224   4.946   6.019
 5638TIP3   OH216870   7.229   2.823   6.503
 5638TIP3    H116871   7.186   2.849   6.421
 5638TIP3    H216872   7.181   2.870   6.571
 5639TIP3   OH216873   2.813   1.136   2.449
 5639TIP3    H116874   2.881   1.202   2.440
 5639TIP3    H216875   2.766   1.160   2.529
 5640TIP3   OH216876   1.736   1.639   5.078
 5640TIP3    H116877   1.683   1.630   4.998
 5640TIP3    H216878   1.737   1.732   5.096
 5641TIP3   OH216879   4.040   1.078   6.424
 5641TIP3    H116880   4.058   0.995   6.381
 5641TIP3    H216881   4.089   1.075   6.506
 5642TIP3   OH216882   0.502   1.490   2.980
 5642TIP3    H116883   0.506   1.395   2.983
 5642TIP3    H216884   0.481   1.516   3.070
 5643TIP3   OH216885   2.620   1.452   3.425
 5643TIP3    H116886   2.573   1.468   3.344
 5643TIP3    H216887   2.553   1.423   3.487
 5644TIP3   OH216888   6.069   3.260   2.864
 5644TIP3    H116889   6.113   3.179   2.889
 5644TIP3    H216890   6.047   3.303   2.947
 5645TIP3   OH216891   2.275   6.449   1.413
 5645TIP3    H116892   2.315   6.447   1.326
 5645TIP3    H216893   2.335   6.397   1.467
 5646TIP3   OH216894   4.517   1.162   2.804
 5646TIP3    H116895   4.459   1.092   2.832
 5646TIP3    H216896   4.573   1.180   2.880
 5647TIP3   OH216897   0.178   2.484   6.397
 5647TIP3    H116898   0.120   2.515   6.467
 5647TIP3    H216899   0.262   2.472   6.440
 5648TIP3   OH216900   3.907   6.869   4.752
 5648TIP3    H116901   3.994   6.853   4.789
 5648TIP3    H216902   3.855   6.793   4.778
 5649TIP3   OH216903   3.654   7.396   2.332
 5649TIP3    H116904   3.688   7.483   2.311
 5649TIP3    H216905   3.661   7.390   2.427
 5650TIP3   OH216906   0.583   5.800   0.762
 5650TIP3    H116907   0.516   5.801   0.830
 5650TIP3    H216908   0.615   5.890   0.758
 5651TIP3   OH216909   2.938   2.288   0.508
 5651TIP3    H116910   2.887   2.352   0.459
 5651TIP3    H216911   2.909   2.298   0.599
 5652TIP3   OH216912   7.489   3.405   2.222
 5652TIP3    H116913   7.548   3.331   2.240
 5652TIP3    H216914   7.532   3.480   2.263
 5653TIP3   OH216915   7.005   1.885   5.323
 5653TIP3    H116916   6.915   1.899   5.352
 5653TIP3    H216917   7.002   1.903   5.229
 5654TIP3   OH216918   0.159   1.970   3.191
 5654TIP3    H116919   0.098   1.897   3.181
 5654TIP3    H216920   0.123   2.039   3.135
 5655TIP3   OH216921   1.921   0.508   0.638
 5655TIP3    H116922   1.907   0.472   0.726
 5655TIP3    H216923   2.010   0.480   0.615
 5656TIP3   OH216924   7.061   2.649   5.270
 5656TIP3    H116925   7.086   2.611   5.186
 5656TIP3    H216926   7.138   2.635   5.326
 5657TIP3   OH216927   7.463   4.706   4.523
 5657TIP3    H116928   7.547   4.664   4.507
 5657TIP3    H216929   7.482   4.799   4.522
 5658TIP3   OH216930   4.463   5.539   0.210
 5658TIP3    H116931   4.442   5.631   0.194
 5658TIP3    H216932   4.452   5.497   0.125
 5659TIP3   OH216933   1.016   0.646   2.412
 5659TIP3    H116934   1.100   0.612   2.382
 5659TIP3    H216935   0.967   0.664   2.331
 5660TIP3   OH216936   0.337   3.482   1.942
 5660TIP3    H116937   0.295   3.563   1.914
 5660TIP3    H216938   0.358   3.437   1.860
 5661TIP3   OH216939   6.607   2.673   0.766
 5661TIP3    H116940   6.683   2.643   0.716
 5661TIP3    H216941   6.572   2.746   0.714
 5662TIP3   OH216942   2.321   2.414   3.124
 5662TIP3    H116943   2.343   2.366   3.044
 5662TIP3    H216944   2.405   2.433   3.164
 5663TIP3   OH216945   4.148   0.121   1.221
 5663TIP3    H116946   4.071   0.083   1.263
 5663TIP3    H216947   4.152   0.211   1.255
 5664TIP3   OH216948   6.917   5.662   5.652
 5664TIP3    H116949   6.912   5.579   5.698
 5664TIP3    H216950   6.999   5.701   5.681
 5665TIP3   OH216951   6.230   1.467   0.534
 5665TIP3    H116952   6.191   1.513   0.608
 5665TIP3    H216953   6.198   1.514   0.457
 5666TIP3   OH216954   4.718   6.403   1.885
 5666TIP3    H116955   4.719   6.308   1.867
 5666TIP3    H216956   4.674   6.411   1.969
 5667TIP3   OH216957   1.778   3.236   3.937
 5667TIP3    H116958   1.824   3.320   3.941
 5667TIP3    H216959   1.827   3.184   3.874
 5668TIP3   OH216960   1.633   6.649   5.594
 5668TIP3    H116961   1.679   6.568   5.573
 5668TIP3    H216962   1.703   6.711   5.614
 5669TIP3   OH216963   4.666   7.716   1.372
 5669TIP3    H116964   4.594   7.706   1.435
 5669TIP3    H216965   4.655   7.804   1.338
 5670TIP3   OH216966   0.340   5.771   4.382
 5670TIP3    H116967   0.364   5.819   4.462
 5670TIP3    H216968   0.422   5.732   4.353
 5671TIP3   OH216969   0.004   4.128   3.310
 5671TIP3    H116970  -0.086   4.161   3.309
 5671TIP3    H216971   0.021   4.103   3.220
 5672TIP3   OH216972   6.128   4.499   4.897
 5672TIP3    H116973   6.115   4.421   4.842
 5672TIP3    H216974   6.049   4.551   4.882
 5673TIP3   OH216975   2.013   4.846   3.444
 5673TIP3    H116976   1.919   4.844   3.465
 5673TIP3    H216977   2.027   4.933   3.408
 5674TIP3   OH216978   6.452   4.441   3.071
 5674TIP3    H116979   6.358   4.422   3.062
 5674TIP3    H216980   6.488   4.362   3.113
 5675TIP3   OH216981   4.100   1.321   5.764
 5675TIP3    H116982   4.098   1.237   5.717
 5675TIP3    H216983   4.065   1.302   5.850
 5676TIP3   OH216984   2.444   7.350   6.605
 5676TIP3    H116985   2.393   7.423   6.568
 5676TIP3    H216986   2.523   7.347   6.552
 5677TIP3   OH216987   6.955   1.094   4.128
 5677TIP3    H116988   6.870   1.108   4.170
 5677TIP3    H216989   7.008   1.050   4.194
 5678TIP3   OH216990   4.167   4.197   1.083
 5678TIP3    H116991   4.181   4.112   1.040
 5678TIP3    H216992   4.177   4.179   1.176
 5679TIP3   OH216993   6.224   5.654   5.886
 5679TIP3    H116994   6.228   5.561   5.909
 5679TIP3    H216995   6.133   5.668   5.858
 5680TIP3   OH216996   7.155   2.416   4.489
 5680TIP3    H116997   7.117   2.366   4.417
 5680TIP3    H216998   7.233   2.366   4.514
 5681TIP3   OH216999   6.351   3.517   6.504
 5681TIP3    H117000   6.258   3.538   6.497
 5681TIP3    H217001   6.390   3.553   6.424
 5682TIP3   OH217002   1.824   0.623   6.267
 5682TIP3    H117003   1.827   0.674   6.348
 5682TIP3    H217004   1.861   0.682   6.201
 5683TIP3   OH217005   7.323   6.647   5.260
 5683TIP3    H117006   7.278   6.608   5.334
 5683TIP3    H217007   7.258   6.648   5.190
 5684TIP3   OH217008   4.945   2.371   4.419
 5684TIP3    H117009   4.900   2.366   4.335
 5684TIP3    H217010   4.984   2.459   4.420
 5685TIP3   OH217011   0.814   5.162   0.092
 5685TIP3    H117012   0.833   5.198   0.006
 5685TIP3    H217013   0.719   5.151   0.093
 5686TIP3   OH217014   6.853   0.087   2.920
 5686TIP3    H117015   6.937   0.082   2.874
 5686TIP3    H217016   6.844   0.180   2.943
 5687TIP3   OH217017   6.830   0.968   3.224
 5687TIP3    H117018   6.890   0.905   3.263
 5687TIP3    H217019   6.839   0.954   3.130
 5688TIP3   OH217020   5.754   6.272   1.941
 5688TIP3    H117021   5.723   6.257   1.852
 5688TIP3    H217022   5.738   6.189   1.986
 5689TIP3   OH217023   7.838   3.135   0.352
 5689TIP3    H117024   7.871   3.222   0.327
 5689TIP3    H217025   7.743   3.145   0.351
 5690TIP3   OH217026   4.749   1.571   0.699
 5690TIP3    H117027   4.739   1.512   0.625
 5690TIP3    H217028   4.661   1.578   0.736
 5691TIP3   OH217029   1.138   5.337   3.277
 5691TIP3    H117030   1.196   5.410   3.255
 5691TIP3    H217031   1.100   5.310   3.194
 5692TIP3   OH217032   0.857   1.001   1.562
 5692TIP3    H117033   0.855   1.094   1.541
 5692TIP3    H217034   0.800   0.960   1.496
 5693TIP3   OH217035   5.936   0.608   5.641
 5693TIP3    H117036   5.875   0.678   5.667
 5693TIP3    H217037   5.940   0.551   5.717
 5694TIP3   OH217038   2.073   0.681   3.831
 5694TIP3    H117039   2.069   0.755   3.770
 5694TIP3    H217040   2.117   0.716   3.908
 5695TIP3   OH217041   3.401   5.275   2.404
 5695TIP3    H117042   3.357   5.349   2.445
 5695TIP3    H217043   3.331   5.210   2.393
 5696TIP3   OH217044   1.428   5.904   6.770
 5696TIP3    H117045   1.432   5.914   6.865
 5696TIP3    H217046   1.385   5.984   6.740
 5697TIP3   OH217047   8.024   2.307   5.668
 5697TIP3    H117048   7.997   2.226   5.625
 5697TIP3    H217049   7.954   2.326   5.731
 5698TIP3   OH217050   5.312   7.017   3.598
 5698TIP3    H117051   5.336   6.924   3.597
 5698TIP3    H217052   5.385   7.061   3.642
 5699TIP3   OH217053   7.522   0.800   2.254
 5699TIP3    H117054   7.513   0.820   2.347
 5699TIP3    H217055   7.451   0.849   2.212
 5700TIP3   OH217056   3.374   2.483   3.029
 5700TIP3    H117057   3.401   2.497   3.120
 5700TIP3    H217058   3.418   2.553   2.980
 5701TIP3   OH217059   2.376   5.024   2.881
 5701TIP3    H117060   2.313   4.956   2.860
 5701TIP3    H217061   2.370   5.086   2.809
 5702TIP3   OH217062   3.834   0.065   2.632
 5702TIP3    H117063   3.797   0.002   2.694
 5702TIP3    H217064   3.859   0.012   2.556
 5703TIP3   OH217065   0.422   5.187   5.563
 5703TIP3    H117066   0.338   5.230   5.584
 5703TIP3    H217067   0.451   5.149   5.646
 5704TIP3   OH217068   0.076   5.646   4.806
 5704TIP3    H117069   0.043   5.677   4.890
 5704TIP3    H217070   0.101   5.725   4.759
 5705TIP3   OH217071   7.367   6.802   1.649
 5705TIP3    H117072   7.432   6.814   1.719
 5705TIP3    H217073   7.372   6.709   1.627
 5706TIP3   OH217074   2.382   6.235   0.044
 5706TIP3    H117075   2.337   6.202  -0.034
 5706TIP3    H217076   2.375   6.165   0.108
 5707TIP3   OH217077   0.416   6.239   0.215
 5707TIP3    H117078   0.334   6.188   0.213
 5707TIP3    H217079   0.480   6.181   0.174
 5708TIP3   OH217080   3.847   0.560   1.894
 5708TIP3    H117081   3.854   0.483   1.837
 5708TIP3    H217082   3.829   0.632   1.835
 5709TIP3   OH217083   6.772   6.649   3.109
 5709TIP3    H117084   6.766   6.601   3.192
 5709TIP3    H217085   6.829   6.723   3.128
 5710TIP3   OH217086   7.482   5.825   3.138
 5710TIP3    H117087   7.440   5.739   3.150
 5710TIP3    H217088   7.494   5.859   3.227
 5711TIP3   OH217089   4.988   3.691   1.689
 5711TIP3    H117090   4.938   3.772   1.678
 5711TIP3    H217091   4.925   3.629   1.725
 5712TIP3   OH217092   8.037   2.150   6.041
 5712TIP3    H117093   8.054   2.108   5.957
 5712TIP3    H217094   8.118   2.137   6.091
 5713TIP3   OH217095   8.053   0.264   0.147
 5713TIP3    H117096   8.043   0.353   0.180
 5713TIP3    H217097   8.129   0.229   0.194
 5714TIP3   OH217098   3.400   6.732   3.844
 5714TIP3    H117099   3.318   6.780   3.834
 5714TIP3    H217100   3.442   6.772   3.920
 5715TIP3   OH217101   0.705   6.454   0.589
 5715TIP3    H117102   0.631   6.445   0.528
 5715TIP3    H217103   0.773   6.397   0.553
 5716TIP3   OH217104   2.638   4.770   5.991
 5716TIP3    H117105   2.567   4.758   5.928
 5716TIP3    H217106   2.648   4.865   5.997
 5717TIP3   OH217107   4.571   0.817   1.063
 5717TIP3    H117108   4.551   0.846   1.152
 5717TIP3    H217109   4.666   0.804   1.063
 5718TIP3   OH217110   1.481   7.014   3.659
 5718TIP3    H117111   1.403   7.014   3.714
 5718TIP3    H217112   1.476   6.932   3.610
 5719TIP3   OH217113   5.724   2.985   0.331
 5719TIP3    H117114   5.692   3.012   0.245
 5719TIP3    H217115   5.778   3.058   0.360
 5720TIP3   OH217116   1.779   1.703   2.958
 5720TIP3    H117117   1.866   1.663   2.954
 5720TIP3    H217118   1.719   1.629   2.959
 5721TIP3   OH217119   0.901   1.717   3.618
 5721TIP3    H117120   0.987   1.675   3.613
 5721TIP3    H217121   0.874   1.706   3.709
 5722TIP3   OH217122   3.882   4.977   1.034
 5722TIP3    H117123   3.918   5.006   0.950
 5722TIP3    H217124   3.855   4.886   1.018
 5723TIP3   OH217125   8.237   0.206   5.811
 5723TIP3    H117126   8.288   0.158   5.875
 5723TIP3    H217127   8.281   0.189   5.727
 5724TIP3   OH217128   7.784   3.306   4.817
 5724TIP3    H117129   7.767   3.397   4.841
 5724TIP3    H217130   7.719   3.286   4.749
 5725TIP3   OH217131   3.149   5.820   6.671
 5725TIP3    H117132   3.200   5.897   6.698
 5725TIP3    H217133   3.151   5.762   6.747
 5726TIP3   OH217134   0.817   4.022   0.483
 5726TIP3    H117135   0.833   4.003   0.576
 5726TIP3    H217136   0.722   4.030   0.477
 5727TIP3   OH217137   2.090   7.301   5.992
 5727TIP3    H117138   2.007   7.346   5.975
 5727TIP3    H217139   2.117   7.270   5.906
 5728TIP3   OH217140   2.207   4.311   0.670
 5728TIP3    H117141   2.241   4.358   0.593
 5728TIP3    H217142   2.130   4.361   0.696
 5729TIP3   OH217143   4.754   0.538   3.338
 5729TIP3    H117144   4.824   0.569   3.396
 5729TIP3    H217145   4.799   0.515   3.257
 5730TIP3   OH217146   6.106   4.693   5.818
 5730TIP3    H117147   6.098   4.778   5.775
 5730TIP3    H217148   6.125   4.632   5.747
 5731TIP3   OH217149   1.373   5.584   3.651
 5731TIP3    H117150   1.338   5.572   3.563
 5731TIP3    H217151   1.296   5.595   3.707
 5732TIP3   OH217152   4.779   2.635   2.650
 5732TIP3    H117153   4.858   2.603   2.691
 5732TIP3    H217154   4.809   2.703   2.589
 5733TIP3   OH217155   4.093   4.897   1.721
 5733TIP3    H117156   4.129   4.971   1.769
 5733TIP3    H217157   3.998   4.906   1.731
 5734TIP3   OH217158   7.977   0.346   3.747
 5734TIP3    H117159   7.942   0.429   3.780
 5734TIP3    H217160   8.028   0.311   3.820
 5735TIP3   OH217161   1.877   1.236   1.165
 5735TIP3    H117162   1.852   1.265   1.253
 5735TIP3    H217163   1.797   1.240   1.114
 5736TIP3   OH217164   3.637   2.352   5.030
 5736TIP3    H117165   3.544   2.356   5.007
 5736TIP3    H217166   3.678   2.312   4.953
 5737TIP3   OH217167   2.890   6.499   6.314
 5737TIP3    H117168   2.892   6.421   6.258
 5737TIP3    H217169   2.976   6.499   6.357
 5738TIP3   OH217170   1.748   1.905   4.389
 5738TIP3    H117171   1.843   1.916   4.399
 5738TIP3    H217172   1.734   1.811   4.401
 5739TIP3   OH217173   7.197   6.373   3.728
 5739TIP3    H117174   7.220   6.319   3.653
 5739TIP3    H217175   7.265   6.356   3.793
 5740TIP3   OH217176   3.839   1.086   0.581
 5740TIP3    H117177   3.793   1.164   0.611
 5740TIP3    H217178   3.925   1.091   0.624
 5741TIP3   OH217179   3.629   6.698   5.493
 5741TIP3    H117180   3.555   6.640   5.479
 5741TIP3    H217181   3.598   6.785   5.467
 5742TIP3   OH217182   0.080   5.637   6.476
 5742TIP3    H117183   0.035   5.714   6.441
 5742TIP3    H217184   0.130   5.603   6.402
 5743TIP3   OH217185   1.190   4.557   4.676
 5743TIP3    H117186   1.176   4.531   4.585
 5743TIP3    H217187   1.276   4.597   4.677
 5744TIP3   OH217188   7.450   6.949   3.233
 5744TIP3    H117189   7.381   6.901   3.279
 5744TIP3    H217190   7.529   6.896   3.248
 5745TIP3   OH217191   3.533   0.263   2.358
 5745TIP3    H117192   3.479   0.244   2.281
 5745TIP3    H217193   3.475   0.247   2.432
 5746TIP3   OH217194   7.270   3.438   2.875
 5746TIP3    H117195   7.279   3.357   2.825
 5746TIP3    H217196   7.337   3.432   2.943
 5747TIP3   OH217197   1.720   5.277   0.598
 5747TIP3    H117198   1.684   5.227   0.525
 5747TIP3    H217199   1.801   5.231   0.621
 5748TIP3   OH217200   5.651   1.433   1.087
 5748TIP3    H117201   5.671   1.351   1.131
 5748TIP3    H217202   5.589   1.408   1.018
 5749TIP3   OH217203   3.325   4.710   2.834
 5749TIP3    H117204   3.380   4.712   2.913
 5749TIP3    H217205   3.269   4.787   2.842
 5750TIP3   OH217206   4.838   4.669   3.197
 5750TIP3    H117207   4.902   4.697   3.263
 5750TIP3    H217208   4.857   4.577   3.183
 5751TIP3   OH217209   3.044   4.339   3.089
 5751TIP3    H117210   2.996   4.366   3.010
 5751TIP3    H217211   3.132   4.319   3.057
 5752TIP3   OH217212   2.850   2.219   0.095
 5752TIP3    H117213   2.936   2.232   0.134
 5752TIP3    H217214   2.865   2.154   0.026
 5753TIP3   OH217215   5.159   1.391   6.568
 5753TIP3    H117216   5.128   1.319   6.514
 5753TIP3    H217217   5.241   1.359   6.606
 5754TIP3   OH217218   4.069   6.826   2.233
 5754TIP3    H117219   4.081   6.917   2.205
 5754TIP3    H217220   4.133   6.777   2.182
 5755TIP3   OH217221   7.572   1.548   0.608
 5755TIP3    H117222   7.552   1.602   0.684
 5755TIP3    H217223   7.598   1.611   0.540
 5756TIP3   OH217224   6.132   7.266   0.909
 5756TIP3    H117225   6.051   7.309   0.936
 5756TIP3    H217226   6.103   7.190   0.859
 5757TIP3   OH217227   5.578   5.479   4.234
 5757TIP3    H117228   5.492   5.466   4.274
 5757TIP3    H217229   5.563   5.470   4.140
 5758TIP3   OH217230   5.581   5.555   1.938
 5758TIP3    H117231   5.509   5.584   1.883
 5758TIP3    H217232   5.598   5.465   1.910
 5759TIP3   OH217233   8.280   2.756   5.758
 5759TIP3    H117234   8.197   2.801   5.749
 5759TIP3    H217235   8.309   2.741   5.668
 5760TIP3   OH217236   0.171   5.889   0.024
 5760TIP3    H117237   0.203   5.944   0.096
 5760TIP3    H217238   0.249   5.842  -0.007
 5761TIP3   OH217239   1.381   6.163   0.627
 5761TIP3    H117240   1.416   6.074   0.621
 5761TIP3    H217241   1.412   6.206   0.548
 5762TIP3   OH217242   1.681   2.867   1.430
 5762TIP3    H117243   1.719   2.780   1.432
 5762TIP3    H217244   1.755   2.926   1.444
 5763TIP3   OH217245   3.816   6.668   5.011
 5763TIP3    H117246   3.764   6.594   4.978
 5763TIP3    H217247   3.773   6.745   4.976
 5764TIP3   OH217248   2.497   6.108   3.955
 5764TIP3    H117249   2.455   6.192   3.969
 5764TIP3    H217250   2.504   6.099   3.860
 5765TIP3   OH217251   3.768   7.528   3.412
 5765TIP3    H117252   3.778   7.505   3.319
 5765TIP3    H217253   3.813   7.612   3.421
 5766TIP3   OH217254   7.624   0.601   3.153
 5766TIP3    H117255   7.690   0.564   3.211
 5766TIP3    H217256   7.650   0.692   3.142
 5767TIP3   OH217257   2.550   3.157   2.689
 5767TIP3    H117258   2.615   3.186   2.752
 5767TIP3    H217259   2.466   3.170   2.732
 5768TIP3   OH217260   4.986   4.253   4.911
 5768TIP3    H117261   4.931   4.273   4.987
 5768TIP3    H217262   4.927   4.261   4.836
 5769TIP3   OH217263   4.599   4.830   1.271
 5769TIP3    H117264   4.545   4.751   1.280
 5769TIP3    H217265   4.665   4.806   1.206
 5770TIP3   OH217266   3.916   0.425   2.152
 5770TIP3    H117267   3.928   0.374   2.072
 5770TIP3    H217268   4.004   0.437   2.186
 5771TIP3   OH217269   4.358   7.605   3.541
 5771TIP3    H117270   4.404   7.527   3.510
 5771TIP3    H217271   4.355   7.663   3.465
 5772TIP3   OH217272   3.517   5.996   3.515
 5772TIP3    H117273   3.589   5.999   3.452
 5772TIP3    H217274   3.557   5.967   3.596
 5773TIP3   OH217275   0.791   4.052   4.055
 5773TIP3    H117276   0.818   4.071   4.145
 5773TIP3    H217277   0.762   3.961   4.056
 5774TIP3   OH217278   6.691   1.107   1.403
 5774TIP3    H117279   6.675   1.060   1.485
 5774TIP3    H217280   6.769   1.066   1.366
 5775TIP3   OH217281   0.320   5.510   4.927
 5775TIP3    H117282   0.262   5.571   4.881
 5775TIP3    H217283   0.261   5.455   4.977
 5776TIP3   OH217284   1.446   2.927   2.262
 5776TIP3    H117285   1.469   2.966   2.347
 5776TIP3    H217286   1.392   2.994   2.219
 5777TIP3   OH217287   7.969   3.060   2.564
 5777TIP3    H117288   7.889   3.009   2.573
 5777TIP3    H217289   8.027   3.026   2.632
 5778TIP3   OH217290   3.059   1.823   2.955
 5778TIP3    H117291   3.057   1.734   2.991
 5778TIP3    H217292   3.015   1.815   2.871
 5779TIP3   OH217293   2.961   6.065   3.613
 5779TIP3    H117294   2.924   6.153   3.605
 5779TIP3    H217295   2.947   6.040   3.704
 5780TIP3   OH217296   7.443   1.762   0.729
 5780TIP3    H117297   7.501   1.834   0.752
 5780TIP3    H217298   7.388   1.797   0.659
 5781TIP3   OH217299   0.945   2.076   6.400
 5781TIP3    H117300   0.898   2.131   6.337
 5781TIP3    H217301   1.037   2.096   6.385
 5782TIP3   OH217302   2.561   1.563   5.188
 5782TIP3    H117303   2.628   1.507   5.227
 5782TIP3    H217304   2.559   1.538   5.096
 5783TIP3   OH217305   6.425   6.699   2.962
 5783TIP3    H117306   6.453   6.751   2.886
 5783TIP3    H217307   6.329   6.705   2.960
 5784TIP3   OH217308   7.030   6.836   3.551
 5784TIP3    H117309   6.974   6.881   3.487
 5784TIP3    H217310   6.985   6.846   3.634
 5785TIP3   OH217311   3.689   7.087   6.397
 5785TIP3    H117312   3.734   7.167   6.423
 5785TIP3    H217313   3.605   7.117   6.363
 5786TIP3   OH217314   2.106   6.355   0.751
 5786TIP3    H117315   2.141   6.269   0.730
 5786TIP3    H217316   2.115   6.363   0.846
 5787TIP3   OH217317   1.438   4.633   5.365
 5787TIP3    H117318   1.492   4.655   5.289
 5787TIP3    H217319   1.420   4.540   5.355
 5788TIP3   OH217320   3.918   6.715   6.525
 5788TIP3    H117321   3.871   6.771   6.587
 5788TIP3    H217322   3.993   6.768   6.497
 5789TIP3   OH217323   4.830   7.039   5.428
 5789TIP3    H117324   4.804   7.005   5.513
 5789TIP3    H217325   4.764   7.106   5.408
 5790TIP3   OH217326   3.562   2.573   5.194
 5790TIP3    H117327   3.609   2.497   5.158
 5790TIP3    H217328   3.545   2.628   5.117
 5791TIP3   OH217329   7.318   5.238   5.125
 5791TIP3    H117330   7.267   5.168   5.084
 5791TIP3    H217331   7.276   5.252   5.209
 5792TIP3   OH217332   0.207   2.554   4.294
 5792TIP3    H117333   0.203   2.508   4.210
 5792TIP3    H217334   0.299   2.578   4.305
 5793TIP3   OH217335   8.018   0.513   5.113
 5793TIP3    H117336   7.952   0.522   5.046
 5793TIP3    H217337   7.969   0.510   5.195
 5794TIP3   OH217338   8.166   4.905   3.326
 5794TIP3    H117339   8.243   4.893   3.382
 5794TIP3    H217340   8.149   4.999   3.330
 5795TIP3   OH217341   1.917   6.036   6.757
 5795TIP3    H117342   2.004   5.996   6.765
 5795TIP3    H217343   1.867   5.974   6.704
 5796TIP3   OH217344   5.478   2.719   0.705
 5796TIP3    H117345   5.532   2.791   0.738
 5796TIP3    H217346   5.392   2.757   0.689
 5797TIP3   OH217347   2.766   1.719   5.486
 5797TIP3    H117348   2.677   1.741   5.515
 5797TIP3    H217349   2.778   1.769   5.406
 5798TIP3   OH217350   5.533   6.448   2.028
 5798TIP3    H117351   5.590   6.456   1.952
 5798TIP3    H217352   5.528   6.354   2.046
 5799TIP3   OH217353   7.556   7.458   3.670
 5799TIP3    H117354   7.516   7.542   3.694
 5799TIP3    H217355   7.488   7.412   3.621
 5800TIP3   OH217356   6.825   4.805   0.932
 5800TIP3    H117357   6.752   4.850   0.890
 5800TIP3    H217358   6.817   4.714   0.902
 5801TIP3   OH217359   2.795   2.859   4.423
 5801TIP3    H117360   2.706   2.894   4.430
 5801TIP3    H217361   2.796   2.783   4.480
 5802TIP3   OH217362   2.898   7.420   2.617
 5802TIP3    H117363   2.888   7.345   2.675
 5802TIP3    H217364   2.815   7.426   2.570
 5803TIP3   OH217365   7.479   3.667   4.940
 5803TIP3    H117366   7.432   3.749   4.929
 5803TIP3    H217367   7.497   3.661   5.034
 5804TIP3   OH217368   2.290   0.937   4.421
 5804TIP3    H117369   2.368   0.896   4.384
 5804TIP3    H217370   2.220   0.913   4.362
 5805TIP3   OH217371   1.606   4.965   5.753
 5805TIP3    H117372   1.511   4.960   5.754
 5805TIP3    H217373   1.632   4.923   5.671
 5806TIP3   OH217374   8.270   3.981   0.694
 5806TIP3    H117375   8.190   3.936   0.667
 5806TIP3    H217376   8.330   3.910   0.718
 5807TIP3   OH217377   4.989   6.249   3.061
 5807TIP3    H117378   5.028   6.277   2.978
 5807TIP3    H217379   4.895   6.267   3.050
 5808TIP3   OH217380   4.890   7.484   6.118
 5808TIP3    H117381   4.950   7.520   6.183
 5808TIP3    H217382   4.947   7.441   6.054
 5809TIP3   OH217383   3.942   3.703   0.426
 5809TIP3    H117384   3.890   3.646   0.483
 5809TIP3    H217385   3.935   3.790   0.465
 5810TIP3   OH217386   0.966   6.032   1.567
 5810TIP3    H117387   0.883   6.074   1.544
 5810TIP3    H217388   0.946   5.983   1.647
 5811TIP3   OH217389   4.487   5.238   3.968
 5811TIP3    H117390   4.445   5.164   4.013
 5811TIP3    H217391   4.562   5.260   4.022
 5812TIP3   OH217392   7.261   3.795   2.889
 5812TIP3    H117393   7.292   3.761   2.805
 5812TIP3    H217394   7.310   3.876   2.902
 5813TIP3   OH217395   4.205   7.123   4.719
 5813TIP3    H117396   4.185   7.207   4.761
 5813TIP3    H217397   4.277   7.087   4.770
 5814TIP3   OH217398   2.507   5.428   2.581
 5814TIP3    H117399   2.456   5.355   2.616
 5814TIP3    H217400   2.595   5.416   2.618
 5815TIP3   OH217401   5.940   0.678   0.482
 5815TIP3    H117402   5.938   0.638   0.395
 5815TIP3    H217403   5.961   0.606   0.541
 5816TIP3   OH217404   6.508   5.451   4.667
 5816TIP3    H117405   6.584   5.398   4.689
 5816TIP3    H217406   6.459   5.398   4.604
 5817TIP3   OH217407   2.948   4.637   0.947
 5817TIP3    H117408   2.922   4.729   0.949
 5817TIP3    H217409   2.969   4.616   1.038
 5818TIP3   OH217410   5.890   5.086   0.905
 5818TIP3    H117411   5.897   5.006   0.852
 5818TIP3    H217412   5.806   5.124   0.880
 5819TIP3   OH217413   7.570   2.846   2.927
 5819TIP3    H117414   7.537   2.799   3.003
 5819TIP3    H217415   7.624   2.916   2.963
 5820TIP3   OH217416   1.454   2.651   6.447
 5820TIP3    H117417   1.474   2.561   6.421
 5820TIP3    H217418   1.540   2.689   6.465
 5821TIP3   OH217419   7.026   6.259   5.554
 5821TIP3    H117420   7.101   6.252   5.496
 5821TIP3    H217421   6.950   6.255   5.497
 5822TIP3   OH217422   6.623   6.657   1.728
 5822TIP3    H117423   6.682   6.675   1.654
 5822TIP3    H217424   6.620   6.740   1.776
 5823TIP3   OH217425   1.354   3.256   0.041
 5823TIP3    H117426   1.429   3.308   0.071
 5823TIP3    H217427   1.389   3.168   0.030
 5824TIP3   OH217428   2.147   7.087   1.006
 5824TIP3    H117429   2.052   7.078   1.017
 5824TIP3    H217430   2.162   7.065   0.914
 5825TIP3   OH217431   1.101   4.698   1.730
 5825TIP3    H117432   1.184   4.651   1.730
 5825TIP3    H217433   1.066   4.685   1.817
 5826TIP3   OH217434   7.476   2.437   6.256
 5826TIP3    H117435   7.505   2.431   6.347
 5826TIP3    H217436   7.449   2.528   6.246
 5827TIP3   OH217437   7.655   4.961   3.570
 5827TIP3    H117438   7.611   4.885   3.531
 5827TIP3    H217439   7.742   4.962   3.531
 5828TIP3   OH217440   3.908   7.739   2.035
 5828TIP3    H117441   3.916   7.664   1.976
 5828TIP3    H217442   3.815   7.762   2.031
 5829TIP3   OH217443   5.541   4.029   6.062
 5829TIP3    H117444   5.483   4.098   6.031
 5829TIP3    H217445   5.556   4.049   6.154
 5830TIP3   OH217446   8.144   2.287   2.545
 5830TIP3    H117447   8.180   2.321   2.627
 5830TIP3    H217448   8.187   2.202   2.534
 5831TIP3   OH217449   6.015   6.275   4.898
 5831TIP3    H117450   6.056   6.256   4.813
 5831TIP3    H217451   6.038   6.200   4.953
 5832TIP3   OH217452   5.233   3.999   6.237
 5832TIP3    H117453   5.210   3.962   6.152
 5832TIP3    H217454   5.154   3.988   6.290
 5833TIP3   OH217455   4.848   1.328   2.348
 5833TIP3    H117456   4.889   1.414   2.345
 5833TIP3    H217457   4.836   1.310   2.441
 5834TIP3   OH217458   7.957   6.879   4.993
 5834TIP3    H117459   7.868   6.848   4.975
 5834TIP3    H217460   7.977   6.936   4.920
 5835TIP3   OH217461   3.634   2.766   0.338
 5835TIP3    H117462   3.623   2.673   0.319
 5835TIP3    H217463   3.661   2.805   0.255
 5836TIP3   OH217464   3.372   1.255   1.912
 5836TIP3    H117465   3.342   1.211   1.992
 5836TIP3    H217466   3.323   1.212   1.842
 5837TIP3   OH217467   6.891   3.576   6.607
 5837TIP3    H117468   6.814   3.521   6.595
 5837TIP3    H217469   6.887   3.640   6.536
 5838TIP3   OH217470   4.503   0.264   5.871
 5838TIP3    H117471   4.485   0.358   5.866
 5838TIP3    H217472   4.457   0.235   5.949
 5839TIP3   OH217473   0.877   2.371   0.980
 5839TIP3    H117474   0.877   2.335   1.069
 5839TIP3    H217475   0.790   2.412   0.971
 5840TIP3   OH217476   3.952   7.306   2.442
 5840TIP3    H117477   3.890   7.371   2.409
 5840TIP3    H217478   3.897   7.236   2.475
 5841TIP3   OH217479   5.286   6.266   2.391
 5841TIP3    H117480   5.264   6.183   2.433
 5841TIP3    H217481   5.382   6.268   2.391
 5842TIP3   OH217482   8.041   5.872   4.835
 5842TIP3    H117483   8.120   5.863   4.888
 5842TIP3    H217484   7.972   5.895   4.898
 5843TIP3   OH217485   1.976   5.674   6.467
 5843TIP3    H117486   2.069   5.697   6.472
 5843TIP3    H217487   1.955   5.681   6.374
 5844TIP3   OH217488   7.364   1.648   0.960
 5844TIP3    H117489   7.368   1.672   0.867
 5844TIP3    H217490   7.434   1.699   1.001
 5845TIP3   OH217491   7.741   6.519   3.427
 5845TIP3    H117492   7.718   6.486   3.513
 5845TIP3    H217493   7.675   6.482   3.368
 5846TIP3   OH217494   3.805   4.772   2.343
 5846TIP3    H117495   3.776   4.794   2.431
 5846TIP3    H217496   3.761   4.690   2.323
 5847TIP3   OH217497   1.012   6.833   1.326
 5847TIP3    H117498   0.979   6.904   1.271
 5847TIP3    H217499   0.936   6.805   1.377
 5848TIP3   OH217500   6.411   4.494   5.171
 5848TIP3    H117501   6.484   4.439   5.144
 5848TIP3    H217502   6.403   4.559   5.101
 5849TIP3   OH217503   1.086   1.730   1.450
 5849TIP3    H117504   1.047   1.659   1.399
 5849TIP3    H217505   1.167   1.692   1.485
 5850TIP3   OH217506   1.863   6.032   4.627
 5850TIP3    H117507   1.801   5.965   4.656
 5850TIP3    H217508   1.925   5.984   4.571
 5851TIP3   OH217509   3.754   4.278   3.293
 5851TIP3    H117510   3.667   4.296   3.328
 5851TIP3    H217511   3.809   4.269   3.371
 5852TIP3   OH217512   4.417   4.559   5.115
 5852TIP3    H117513   4.355   4.621   5.154
 5852TIP3    H217514   4.473   4.613   5.059
 5853TIP3   OH217515   6.920   7.184   1.797
 5853TIP3    H117516   6.882   7.205   1.883
 5853TIP3    H217517   6.952   7.094   1.807
 5854TIP3   OH217518   6.504   4.393   4.291
 5854TIP3    H117519   6.591   4.405   4.329
 5854TIP3    H217520   6.454   4.469   4.322
 5855TIP3   OH217521   6.858   0.863   2.926
 5855TIP3    H117522   6.897   0.948   2.907
 5855TIP3    H217523   6.792   0.850   2.858
 5856TIP3   OH217524   6.195   4.427   5.675
 5856TIP3    H117525   6.238   4.341   5.677
 5856TIP3    H217526   6.186   4.447   5.582
 5857TIP3   OH217527   0.941   7.027   2.119
 5857TIP3    H117528   0.976   6.953   2.170
 5857TIP3    H217529   1.001   7.035   2.045
 5858TIP3   OH217530   7.412   6.587   5.850
 5858TIP3    H117531   7.493   6.562   5.806
 5858TIP3    H217532   7.383   6.666   5.805
 5859TIP3   OH217533   7.053   2.887   3.736
 5859TIP3    H117534   7.044   2.883   3.640
 5859TIP3    H217535   6.981   2.944   3.763
 5860TIP3   OH217536   3.006   5.766   1.973
 5860TIP3    H117537   3.027   5.857   1.998
 5860TIP3    H217538   3.092   5.725   1.962
 5861TIP3   OH217539   3.877   1.179   6.234
 5861TIP3    H117540   3.867   1.090   6.201
 5861TIP3    H217541   3.930   1.169   6.313
 5862TIP3   OH217542   7.524  -0.045   2.579
 5862TIP3    H117543   7.537   0.025   2.514
 5862TIP3    H217544   7.516   0.001   2.662
 5863TIP3   OH217545   6.440   7.363   1.089
 5863TIP3    H117546   6.467   7.453   1.110
 5863TIP3    H217547   6.400   7.369   1.002
 5864TIP3   OH217548   8.039   3.120   6.226
 5864TIP3    H117549   8.014   3.090   6.138
 5864TIP3    H217550   8.015   3.213   6.227
 5865TIP3   OH217551   8.140   2.868   6.338
 5865TIP3    H117552   8.208   2.837   6.278
 5865TIP3    H217553   8.100   2.942   6.294
 5866TIP3   OH217554   4.697   0.243   6.208
 5866TIP3    H117555   4.603   0.233   6.227
 5866TIP3    H217556   4.726   0.312   6.268
 5867TIP3   OH217557   6.364   6.353   5.478
 5867TIP3    H117558   6.386   6.441   5.508
 5867TIP3    H217559   6.446   6.304   5.487
 5868TIP3   OH217560   2.081   3.349   6.444
 5868TIP3    H117561   2.101   3.275   6.501
 5868TIP3    H217562   2.134   3.421   6.479
 5869TIP3   OH217563   2.645   7.793   6.583
 5869TIP3    H117564   2.576   7.730   6.605
 5869TIP3    H217565   2.657   7.844   6.662
 5870TIP3   OH217566   6.766   7.213   3.937
 5870TIP3    H117567   6.725   7.298   3.951
 5870TIP3    H217568   6.766   7.201   3.842
 5871TIP3   OH217569   7.437   5.226   4.083
 5871TIP3    H117570   7.408   5.146   4.125
 5871TIP3    H217571   7.511   5.256   4.136
 5872TIP3   OH217572   3.231   3.048   4.354
 5872TIP3    H117573   3.208   3.136   4.323
 5872TIP3    H217574   3.163   2.991   4.319
 5873TIP3   OH217575   1.714   4.131   5.154
 5873TIP3    H117576   1.692   4.038   5.147
 5873TIP3    H217577   1.647   4.176   5.102
 5874TIP3   OH217578   5.171   7.185   3.067
 5874TIP3    H117579   5.233   7.113   3.078
 5874TIP3    H217580   5.170   7.229   3.152
 5875TIP3   OH217581   6.922   4.068   3.678
 5875TIP3    H117582   6.980   4.089   3.605
 5875TIP3    H217583   6.912   4.151   3.726
 5876TIP3   OH217584   0.873   7.542   5.794
 5876TIP3    H117585   0.920   7.479   5.850
 5876TIP3    H217586   0.803   7.491   5.754
 5877TIP3   OH217587   3.535   6.803   5.794
 5877TIP3    H117588   3.488   6.844   5.866
 5877TIP3    H217589   3.556   6.715   5.825
 5878TIP3   OH217590   0.754   6.468   2.679
 5878TIP3    H117591   0.689   6.422   2.625
 5878TIP3    H217592   0.703   6.535   2.724
 5879TIP3   OH217593   1.939   6.149   0.437
 5879TIP3    H117594   1.979   6.233   0.461
 5879TIP3    H217595   1.940   6.148   0.342
 5880TIP3   OH217596   7.611   5.531   4.749
 5880TIP3    H117597   7.653   5.612   4.720
 5880TIP3    H217598   7.526   5.558   4.781
 5881TIP3   OH217599   7.200   0.203   0.320
 5881TIP3    H117600   7.173   0.243   0.403
 5881TIP3    H217601   7.120   0.204   0.266
 5882TIP3   OH217602   3.828   1.170   4.355
 5882TIP3    H117603   3.824   1.160   4.260
 5882TIP3    H217604   3.919   1.194   4.372
 5883TIP3   OH217605   6.663   5.898   2.146
 5883TIP3    H117606   6.726   5.831   2.120
 5883TIP3    H217607   6.615   5.859   2.219
 5884TIP3   OH217608   3.894   1.476   3.668
 5884TIP3    H117609   3.872   1.506   3.580
 5884TIP3    H217610   3.964   1.535   3.696
 5885TIP3   OH217611   2.660   7.807   0.292
 5885TIP3    H117612   2.665   7.830   0.199
 5885TIP3    H217613   2.568   7.786   0.306
 5886TIP3   OH217614   4.533   5.860   4.752
 5886TIP3    H117615   4.556   5.778   4.707
 5886TIP3    H217616   4.599   5.869   4.821
 5887TIP3   OH217617   4.812   3.388   2.874
 5887TIP3    H117618   4.781   3.386   2.784
 5887TIP3    H217619   4.903   3.360   2.869
 5888TIP3   OH217620   2.565   0.439   3.588
 5888TIP3    H117621   2.637   0.498   3.611
 5888TIP3    H217622   2.487   0.479   3.626
 5889TIP3   OH217623   6.766   0.352   2.553
 5889TIP3    H117624   6.826   0.408   2.602
 5889TIP3    H217625   6.808   0.266   2.552
 5890TIP3   OH217626   0.987   5.435   4.345
 5890TIP3    H117627   0.942   5.368   4.294
 5890TIP3    H217628   1.028   5.492   4.280
 5891TIP3   OH217629   3.257   4.293   5.226
 5891TIP3    H117630   3.246   4.372   5.278
 5891TIP3    H217631   3.247   4.221   5.289
 5892TIP3   OH217632   0.755   2.961   3.829
 5892TIP3    H117633   0.712   2.902   3.891
 5892TIP3    H217634   0.793   3.029   3.885
 5893TIP3   OH217635   3.785   6.269   3.404
 5893TIP3    H117636   3.789   6.244   3.496
 5893TIP3    H217637   3.756   6.360   3.405
 5894TIP3   OH217638   3.392   2.989   3.196
 5894TIP3    H117639   3.439   2.942   3.128
 5894TIP3    H217640   3.308   3.011   3.157
 5895TIP3   OH217641   0.794   7.853   0.969
 5895TIP3    H117642   0.802   7.762   0.997
 5895TIP3    H217643   0.805   7.850   0.874
 5896TIP3   OH217644   5.110   4.826   5.031
 5896TIP3    H117645   5.159   4.891   4.980
 5896TIP3    H217646   5.103   4.750   4.974
 5897TIP3   OH217647   3.770   4.999   3.728
 5897TIP3    H117648   3.862   5.023   3.740
 5897TIP3    H217649   3.749   4.947   3.806
 5898TIP3   OH217650   2.096   5.245   4.211
 5898TIP3    H117651   2.054   5.183   4.151
 5898TIP3    H217652   2.100   5.327   4.161
 5899TIP3   OH217653   7.277   1.168   3.659
 5899TIP3    H117654   7.203   1.146   3.715
 5899TIP3    H217655   7.237   1.208   3.581
 5900TIP3   OH217656   5.379   5.605   3.333
 5900TIP3    H117657   5.390   5.662   3.257
 5900TIP3    H217658   5.446   5.537   3.323
 5901TIP3   OH217659   5.968   2.089   6.351
 5901TIP3    H117660   6.037   2.102   6.416
 5901TIP3    H217661   5.973   1.996   6.329
 5902TIP3   OH217662   3.704   1.511   6.625
 5902TIP3    H117663   3.746   1.518   6.711
 5902TIP3    H217664   3.676   1.601   6.605
 5903TIP3   OH217665   6.577   6.403   3.022
 5903TIP3    H117666   6.664   6.413   3.059
 5903TIP3    H217667   6.555   6.490   2.987
 5904TIP3   OH217668   1.043   0.895   2.566
 5904TIP3    H117669   1.072   0.816   2.520
 5904TIP3    H217670   0.959   0.871   2.606
 5905TIP3   OH217671   0.897   3.834   0.294
 5905TIP3    H117672   0.970   3.781   0.326
 5905TIP3    H217673   0.875   3.892   0.368
 5906TIP3   OH217674   5.057   1.553   3.686
 5906TIP3    H117675   5.073   1.612   3.759
 5906TIP3    H217676   5.005   1.482   3.723
 5907TIP3   OH217677   0.619   2.150   1.101
 5907TIP3    H117678   0.661   2.064   1.099
 5907TIP3    H217679   0.613   2.176   1.009
 5908TIP3   OH217680   5.196   0.807   5.497
 5908TIP3    H117681   5.245   0.843   5.423
 5908TIP3    H217682   5.156   0.728   5.462
 5909TIP3   OH217683   4.956   1.554   2.054
 5909TIP3    H117684   4.918   1.618   2.114
 5909TIP3    H217685   5.046   1.541   2.085
 5910TIP3   OH217686   7.753   3.773   4.684
 5910TIP3    H117687   7.688   3.767   4.615
 5910TIP3    H217688   7.836   3.755   4.640
 5911TIP3   OH217689   6.232   4.572   1.235
 5911TIP3    H117690   6.267   4.657   1.262
 5911TIP3    H217691   6.263   4.561   1.145
 5912TIP3   OH217692   5.890   0.188   2.664
 5912TIP3    H117693   5.960   0.245   2.695
 5912TIP3    H217694   5.917   0.100   2.691
 5913TIP3   OH217695   0.789   4.816   2.604
 5913TIP3    H117696   0.847   4.842   2.533
 5913TIP3    H217697   0.827   4.733   2.636
 5914TIP3   OH217698   3.377   5.361   0.893
 5914TIP3    H117699   3.319   5.346   0.968
 5914TIP3    H217700   3.429   5.281   0.885
 5915TIP3   OH217701   2.387   1.578   6.437
 5915TIP3    H117702   2.440   1.544   6.509
 5915TIP3    H217703   2.450   1.601   6.369
 5916TIP3   OH217704   5.311   3.398   6.358
 5916TIP3    H117705   5.320   3.339   6.283
 5916TIP3    H217706   5.266   3.346   6.424
 5917TIP3   OH217707   5.361   2.784   3.368
 5917TIP3    H117708   5.444   2.828   3.387
 5917TIP3    H217709   5.297   2.833   3.419
 5918TIP3   OH217710   0.442   2.320   3.469
 5918TIP3    H117711   0.474   2.407   3.444
 5918TIP3    H217712   0.517   2.262   3.453
 5919TIP3   OH217713   2.202   0.637   3.072
 5919TIP3    H117714   2.276   0.681   3.029
 5919TIP3    H217715   2.240   0.558   3.109
 5920TIP3   OH217716   0.154   4.065   0.425
 5920TIP3    H117717   0.149   3.971   0.410
 5920TIP3    H217718   0.152   4.074   0.521
 5921TIP3   OH217719   3.880   6.234   0.519
 5921TIP3    H117720   3.885   6.217   0.425
 5921TIP3    H217721   3.805   6.291   0.530
 5922TIP3   OH217722   2.487   7.499   0.135
 5922TIP3    H117723   2.543   7.477   0.209
 5922TIP3    H217724   2.429   7.423   0.126
 5923TIP3   OH217725   1.850   7.285   0.315
 5923TIP3    H117726   1.929   7.258   0.267
 5923TIP3    H217727   1.793   7.209   0.312
 5924TIP3   OH217728   2.205   7.382   5.052
 5924TIP3    H117729   2.259   7.328   5.110
 5924TIP3    H217730   2.129   7.328   5.032
 5925TIP3   OH217731   4.832   6.109   1.536
 5925TIP3    H117732   4.806   6.022   1.566
 5925TIP3    H217733   4.841   6.160   1.616
 5926TIP3   OH217734   0.361   3.969   6.741
 5926TIP3    H117735   0.322   3.891   6.702
 5926TIP3    H217736   0.301   3.993   6.812
 5927TIP3   OH217737   1.439   5.331   2.652
 5927TIP3    H117738   1.509   5.266   2.652
 5927TIP3    H217739   1.398   5.323   2.739
 5928TIP3   OH217740   2.520   0.823   3.952
 5928TIP3    H117741   2.569   0.740   3.952
 5928TIP3    H217742   2.537   0.860   4.039
 5929TIP3   OH217743   0.224   3.814   3.123
 5929TIP3    H117744   0.271   3.893   3.150
 5929TIP3    H217745   0.238   3.808   3.029
 5930TIP3   OH217746   1.723   3.801   3.441
 5930TIP3    H117747   1.792   3.734   3.441
 5930TIP3    H217748   1.656   3.766   3.499
 5931TIP3   OH217749   7.503   5.693   3.587
 5931TIP3    H117750   7.460   5.705   3.671
 5931TIP3    H217751   7.461   5.756   3.529
 5932TIP3   OH217752   5.589   0.978   5.583
 5932TIP3    H117753   5.580   1.042   5.513
 5932TIP3    H217754   5.680   0.948   5.576
 5933TIP3   OH217755   1.123   3.129   0.533
 5933TIP3    H117756   1.095   3.155   0.445
 5933TIP3    H217757   1.124   3.034   0.531
 5934TIP3   OH217758   8.251   2.461   0.869
 5934TIP3    H117759   8.320   2.398   0.848
 5934TIP3    H217760   8.298   2.542   0.889
 5935TIP3   OH217761   5.672   4.732   0.512
 5935TIP3    H117762   5.627   4.648   0.511
 5935TIP3    H217763   5.606   4.795   0.539
 5936TIP3   OH217764   0.870   4.482   6.391
 5936TIP3    H117765   0.960   4.492   6.421
 5936TIP3    H217766   0.878   4.446   6.303
 5937TIP3   OH217767   7.760   5.759   4.660
 5937TIP3    H117768   7.833   5.814   4.688
 5937TIP3    H217769   7.750   5.778   4.567
 5938TIP3   OH217770   6.709   4.823   1.756
 5938TIP3    H117771   6.688   4.816   1.663
 5938TIP3    H217772   6.720   4.732   1.785
 5939TIP3   OH217773   5.520   7.698   3.347
 5939TIP3    H117774   5.565   7.697   3.262
 5939TIP3    H217775   5.445   7.639   3.334
 5940TIP3   OH217776   2.066   2.115   0.980
 5940TIP3    H117777   2.089   2.056   1.052
 5940TIP3    H217778   2.149   2.132   0.935
 5941TIP3   OH217779   6.957   3.873   0.251
 5941TIP3    H117780   6.962   3.777   0.247
 5941TIP3    H217781   6.866   3.893   0.233
 5942TIP3   OH217782   5.506   6.149   2.547
 5942TIP3    H117783   5.449   6.145   2.623
 5942TIP3    H217784   5.537   6.059   2.534
 5943TIP3   OH217785   4.650   2.067   0.666
 5943TIP3    H117786   4.598   1.993   0.697
 5943TIP3    H217787   4.720   2.077   0.731
 5944TIP3   OH217788   2.112   5.202   4.482
 5944TIP3    H117789   2.108   5.213   4.387
 5944TIP3    H217790   2.187   5.255   4.509
 5945TIP3   OH217791   6.998   1.979   0.958
 5945TIP3    H117792   6.935   1.909   0.976
 5945TIP3    H217793   6.986   1.999   0.865
 5946TIP3   OH217794   3.691   5.726   0.613
 5946TIP3    H117795   3.747   5.802   0.597
 5946TIP3    H217796   3.745   5.651   0.588
 5947TIP3   OH217797   0.244   1.261   1.413
 5947TIP3    H117798   0.173   1.221   1.363
 5947TIP3    H217799   0.241   1.218   1.498
 5948TIP3   OH217800   3.669   1.092   5.094
 5948TIP3    H117801   3.691   1.005   5.060
 5948TIP3    H217802   3.602   1.075   5.160
 5949TIP3   OH217803   0.862   5.700   1.973
 5949TIP3    H117804   0.820   5.620   1.940
 5949TIP3    H217805   0.826   5.709   2.062
 5950TIP3   OH217806   6.622   7.450   3.821
 5950TIP3    H117807   6.672   7.512   3.874
 5950TIP3    H217808   6.535   7.451   3.859
 5951TIP3   OH217809   2.863   3.558   3.330
 5951TIP3    H117810   2.859   3.638   3.383
 5951TIP3    H217811   2.782   3.511   3.350
 5952TIP3   OH217812   7.282   3.746   6.539
 5952TIP3    H117813   7.247   3.831   6.513
 5952TIP3    H217814   7.280   3.747   6.634
 5953TIP3   OH217815   7.621   3.418   3.664
 5953TIP3    H117816   7.597   3.471   3.589
 5953TIP3    H217817   7.699   3.461   3.699
 5954TIP3   OH217818   6.985   3.358   5.935
 5954TIP3    H117819   6.904   3.406   5.952
 5954TIP3    H217820   6.956   3.277   5.891
 5955TIP3   OH217821   0.335   6.219   2.345
 5955TIP3    H117822   0.296   6.306   2.347
 5955TIP3    H217823   0.264   6.162   2.314
 5956TIP3   OH217824   5.367   0.165   5.334
 5956TIP3    H117825   5.305   0.140   5.265
 5956TIP3    H217826   5.352   0.259   5.346
 5957TIP3   OH217827   7.084   1.512   1.700
 5957TIP3    H117828   7.148   1.557   1.755
 5957TIP3    H217829   7.128   1.502   1.616
 5958TIP3   OH217830   6.235   6.649   0.807
 5958TIP3    H117831   6.146   6.685   0.813
 5958TIP3    H217832   6.263   6.641   0.898
 5959TIP3   OH217833   7.711   7.447   4.309
 5959TIP3    H117834   7.740   7.531   4.272
 5959TIP3    H217835   7.667   7.471   4.390
 5960TIP3   OH217836   5.334   5.869   2.392
 5960TIP3    H117837   5.319   5.785   2.350
 5960TIP3    H217838   5.246   5.904   2.408
 5961TIP3   OH217839   3.905   7.124   3.560
 5961TIP3    H117840   3.877   7.059   3.624
 5961TIP3    H217841   3.893   7.208   3.604
 5962TIP3   OH217842   3.109   5.092   4.326
 5962TIP3    H117843   3.196   5.107   4.364
 5962TIP3    H217844   3.125   5.029   4.255
 5963TIP3   OH217845   6.121   7.312   6.431
 5963TIP3    H117846   6.142   7.356   6.349
 5963TIP3    H217847   6.028   7.290   6.423
 5964TIP3   OH217848   7.130   2.372   0.321
 5964TIP3    H117849   7.218   2.336   0.327
 5964TIP3    H217850   7.135   2.437   0.251
 5965TIP3   OH217851   1.515   7.368   1.992
 5965TIP3    H117852   1.427   7.364   2.029
 5965TIP3    H217853   1.501   7.378   1.898
 5966TIP3   OH217854   4.817   0.819   2.585
 5966TIP3    H117855   4.864   0.899   2.610
 5966TIP3    H217856   4.728   0.832   2.618
 5967TIP3   OH217857   2.176   6.116   1.630
 5967TIP3    H117858   2.191   6.209   1.615
 5967TIP3    H217859   2.158   6.080   1.543
 5968TIP3   OH217860   2.208   4.153   4.221
 5968TIP3    H117861   2.214   4.249   4.227
 5968TIP3    H217862   2.234   4.133   4.131
 5969TIP3   OH217863   2.421   2.758   2.022
 5969TIP3    H117864   2.503   2.738   2.065
 5969TIP3    H217865   2.357   2.701   2.065
 5970TIP3   OH217866   3.883   3.663   1.467
 5970TIP3    H117867   3.937   3.585   1.484
 5970TIP3    H217868   3.796   3.628   1.449
 5971TIP3   OH217869   1.821   1.592   2.528
 5971TIP3    H117870   1.900   1.630   2.567
 5971TIP3    H217871   1.846   1.503   2.503
 5972TIP3   OH217872   5.758   6.533   2.170
 5972TIP3    H117873   5.741   6.498   2.258
 5972TIP3    H217874   5.680   6.508   2.119
 5973TIP3   OH217875   1.469   3.784   6.401
 5973TIP3    H117876   1.488   3.878   6.400
 5973TIP3    H217877   1.377   3.778   6.424
 5974TIP3   OH217878   4.100   2.486   3.738
 5974TIP3    H117879   4.077   2.547   3.668
 5974TIP3    H217880   4.130   2.542   3.810
 5975TIP3   OH217881   6.736   3.904   0.098
 5975TIP3    H117882   6.674   3.904   0.024
 5975TIP3    H217883   6.706   3.975   0.154
 5976TIP3   OH217884   6.007   4.752   0.114
 5976TIP3    H117885   5.966   4.836   0.095
 5976TIP3    H217886   6.095   4.759   0.079
 5977TIP3   OH217887   2.589   1.149   3.535
 5977TIP3    H117888   2.522   1.199   3.580
 5977TIP3    H217889   2.576   1.059   3.564
 5978TIP3   OH217890   5.381   7.012   4.133
 5978TIP3    H117891   5.401   6.955   4.059
 5978TIP3    H217892   5.460   7.065   4.145
 5979TIP3   OH217893   7.809   1.820   6.350
 5979TIP3    H117894   7.719   1.791   6.368
 5979TIP3    H217895   7.860   1.740   6.348
 5980TIP3   OH217896   2.438   4.280   3.261
 5980TIP3    H117897   2.408   4.286   3.170
 5980TIP3    H217898   2.531   4.261   3.254
 5981TIP3   OH217899   2.757   6.070   5.565
 5981TIP3    H117900   2.838   6.020   5.555
 5981TIP3    H217901   2.721   6.076   5.477
 5982TIP3   OH217902   2.961   6.026   2.562
 5982TIP3    H117903   2.911   5.998   2.639
 5982TIP3    H217904   3.028   5.958   2.551
 5983TIP3   OH217905   2.310   1.006   3.955
 5983TIP3    H117906   2.242   0.942   3.974
 5983TIP3    H217907   2.392   0.956   3.956
 5984TIP3   OH217908   5.083   7.577   4.529
 5984TIP3    H117909   5.144   7.522   4.479
 5984TIP3    H217910   5.139   7.642   4.571
 5985TIP3   OH217911   2.930   0.960   5.178
 5985TIP3    H117912   2.999   1.026   5.172
 5985TIP3    H217913   2.903   0.945   5.087
 5986TIP3   OH217914   7.056   6.689   5.725
 5986TIP3    H117915   7.085   6.727   5.808
 5986TIP3    H217916   7.044   6.596   5.744
 5987TIP3   OH217917   7.769   1.949   0.942
 5987TIP3    H117918   7.696   1.894   0.970
 5987TIP3    H217919   7.793   1.999   1.020
 5988TIP3   OH217920   0.551   1.662   3.622
 5988TIP3    H117921   0.516   1.751   3.616
 5988TIP3    H217922   0.504   1.614   3.553
 5989TIP3   OH217923   5.636   3.615   1.689
 5989TIP3    H117924   5.648   3.707   1.713
 5989TIP3    H217925   5.545   3.596   1.710
 5990TIP3   OH217926   7.045   2.719   3.124
 5990TIP3    H117927   7.005   2.804   3.143
 5990TIP3    H217928   7.068   2.683   3.210
 5991TIP3   OH217929   3.253   5.951   5.913
 5991TIP3    H117930   3.251   5.858   5.935
 5991TIP3    H217931   3.181   5.962   5.851
 5992TIP3   OH217932   6.993   3.202   0.170
 5992TIP3    H117933   7.054   3.139   0.208
 5992TIP3    H217934   6.947   3.238   0.246
 5993TIP3   OH217935   2.006   2.054   1.764
 5993TIP3    H117936   2.011   1.966   1.799
 5993TIP3    H217937   1.912   2.068   1.748
 5994TIP3   OH217938   2.335   2.885   0.987
 5994TIP3    H117939   2.316   2.934   1.067
 5994TIP3    H217940   2.291   2.934   0.918
 5995TIP3   OH217941   3.738   2.605   4.831
 5995TIP3    H117942   3.726   2.515   4.859
 5995TIP3    H217943   3.660   2.651   4.863
 5996TIP3   OH217944   6.360   4.904   3.834
 5996TIP3    H117945   6.325   4.844   3.768
 5996TIP3    H217946   6.395   4.847   3.902
 5997TIP3   OH217947   3.101   2.103   2.087
 5997TIP3    H117948   3.145   2.033   2.040
 5997TIP3    H217949   3.035   2.059   2.140
 5998TIP3   OH217950   7.021   5.084   5.597
 5998TIP3    H117951   7.059   5.105   5.683
 5998TIP3    H217952   7.097   5.068   5.541
 5999TIP3   OH217953   5.831   7.198   3.501
 5999TIP3    H117954   5.756   7.140   3.502
 5999TIP3    H217955   5.852   7.209   3.408
 6000TIP3   OH217956   2.437   1.245   3.838
 6000TIP3    H117957   2.362   1.286   3.882
 6000TIP3    H217958   2.423   1.151   3.849
 6001TIP3   OH217959   6.138   5.843   1.678
 6001TIP3    H117960   6.194   5.912   1.714
 6001TIP3    H217961   6.063   5.839   1.738
 6002TIP3   OH217962   7.262   3.394   1.330
 6002TIP3    H117963   7.295   3.308   1.303
 6002TIP3    H217964   7.296   3.406   1.419
 6003TIP3   OH217965   1.995   2.857   0.766
 6003TIP3    H117966   1.985   2.805   0.846
 6003TIP3    H217967   1.995   2.792   0.696
 6004TIP3   OH217968   7.381   3.966   4.943
 6004TIP3    H117969   7.451   3.978   5.007
 6004TIP3    H217970   7.410   4.015   4.866
 6005TIP3   OH217971   0.283   3.735   5.711
 6005TIP3    H117972   0.197   3.712   5.675
 6005TIP3    H217973   0.324   3.651   5.730
 6006TIP3   OH217974   4.019   1.888   5.119
 6006TIP3    H117975   4.003   1.883   5.213
 6006TIP3    H217976   3.991   1.977   5.095
 6007TIP3   OH217977   5.213   6.903   2.028
 6007TIP3    H117978   5.300   6.864   2.039
 6007TIP3    H217979   5.194   6.892   1.934
 6008TIP3   OH217980   0.368   1.771   0.128
 6008TIP3    H117981   0.308   1.768   0.203
 6008TIP3    H217982   0.411   1.685   0.128
 6009TIP3   OH217983   0.602   1.787   5.678
 6009TIP3    H117984   0.586   1.741   5.595
 6009TIP3    H217985   0.523   1.840   5.691
 6010TIP3   OH217986   1.157   2.579   2.335
 6010TIP3    H117987   1.209   2.580   2.255
 6010TIP3    H217988   1.073   2.542   2.308
 6011TIP3   OH217989   6.091   6.723   5.192
 6011TIP3    H117990   6.035   6.783   5.144
 6011TIP3    H217991   6.177   6.732   5.152
 6012TIP3   OH217992   5.835   0.531   2.062
 6012TIP3    H117993   5.773   0.583   2.010
 6012TIP3    H217994   5.907   0.591   2.080
 6013TIP3   OH217995   6.720   7.629   4.020
 6013TIP3    H117996   6.739   7.722   4.009
 6013TIP3    H217997   6.663   7.625   4.096
 6014TIP3   OH217998   7.544   2.548   3.479
 6014TIP3    H117999   7.499   2.521   3.559
 6014TIP3    H218000   7.497   2.503   3.408
 6015TIP3   OH218001   7.951   1.351   3.256
 6015TIP3    H118002   7.876   1.389   3.211
 6015TIP3    H218003   7.917   1.269   3.293
 6016TIP3   OH218004   6.943   3.168   6.437
 6016TIP3    H118005   6.886   3.126   6.373
 6016TIP3    H218006   6.967   3.252   6.397
 6017TIP3   OH218007   2.171   4.268   6.123
 6017TIP3    H118008   2.230   4.343   6.127
 6017TIP3    H218009   2.181   4.234   6.034
 6018TIP3   OH218010   1.212   5.941   6.185
 6018TIP3    H118011   1.180   5.971   6.270
 6018TIP3    H218012   1.306   5.931   6.196
 6019TIP3   OH218013   6.954   6.206   2.096
 6019TIP3    H118014   6.860   6.191   2.090
 6019TIP3    H218015   6.993   6.128   2.056
 6020TIP3   OH218016   1.530   4.890   3.210
 6020TIP3    H118017   1.531   4.837   3.289
 6020TIP3    H218018   1.503   4.829   3.141
 6021TIP3   OH218019   0.034   2.701   6.175
 6021TIP3    H118020   0.027   2.625   6.232
 6021TIP3    H218021   0.120   2.739   6.195
 6022TIP3   OH218022   2.985   3.177   0.436
 6022TIP3    H118023   2.900   3.133   0.442
 6022TIP3    H218024   2.966   3.268   0.456
 6023TIP3   OH218025   6.066   4.725   0.492
 6023TIP3    H118026   6.022   4.675   0.423
 6023TIP3    H218027   6.137   4.668   0.522
 6024TIP3   OH218028   3.126   1.529   1.117
 6024TIP3    H118029   3.141   1.467   1.188
 6024TIP3    H218030   3.213   1.553   1.086
 6025TIP3   OH218031   0.079   3.628   4.943
 6025TIP3    H118032   0.164   3.619   4.901
 6025TIP3    H218033   0.016   3.597   4.877
 6026TIP3   OH218034   5.067   5.043   1.153
 6026TIP3    H118035   5.153   5.003   1.139
 6026TIP3    H218036   5.025   4.987   1.217
 6027TIP3   OH218037   4.751   3.723   5.042
 6027TIP3    H118038   4.765   3.644   4.990
 6027TIP3    H218039   4.694   3.777   4.987
 6028TIP3   OH218040   5.814   3.142   0.594
 6028TIP3    H118041   5.862   3.142   0.676
 6028TIP3    H218042   5.740   3.202   0.610
 6029TIP3   OH218043   5.374   2.280   1.258
 6029TIP3    H118044   5.413   2.195   1.241
 6029TIP3    H218045   5.427   2.318   1.328
 6030TIP3   OH218046   0.149   3.243   0.225
 6030TIP3    H118047   0.148   3.258   0.319
 6030TIP3    H218048   0.230   3.284   0.194
 6031TIP3   OH218049   3.820   5.518   1.304
 6031TIP3    H118050   3.799   5.425   1.311
 6031TIP3    H218051   3.747   5.556   1.255
 6032TIP3   OH218052   2.815   3.491   3.709
 6032TIP3    H118053   2.904   3.508   3.679
 6032TIP3    H218054   2.827   3.441   3.790
 6033TIP3   OH218055   2.126   0.186   4.368
 6033TIP3    H118056   2.192   0.216   4.430
 6033TIP3    H218057   2.044   0.191   4.417
 6034TIP3   OH218058   4.913   1.311   5.535
 6034TIP3    H118059   4.928   1.217   5.523
 6034TIP3    H218060   4.978   1.353   5.479
 6035TIP3   OH218061   3.290   2.393   5.156
 6035TIP3    H118062   3.327   2.400   5.068
 6035TIP3    H218063   3.257   2.481   5.175
 6036TIP3   OH218064   1.153   7.059   6.696
 6036TIP3    H118065   1.087   7.127   6.685
 6036TIP3    H218066   1.102   6.980   6.715
 6037TIP3   OH218067   6.023   3.025   4.307
 6037TIP3    H118068   6.050   3.077   4.383
 6037TIP3    H218069   6.082   2.950   4.308
 6038TIP3   OH218070   1.838   5.298   1.217
 6038TIP3    H118071   1.755   5.320   1.260
 6038TIP3    H218072   1.856   5.208   1.246
 6039TIP3   OH218073   7.820   4.115   1.711
 6039TIP3    H118074   7.867   4.035   1.735
 6039TIP3    H218075   7.865   4.147   1.633
 6040TIP3   OH218076   3.268   3.648   2.497
 6040TIP3    H118077   3.209   3.643   2.422
 6040TIP3    H218078   3.313   3.733   2.486
 6041TIP3   OH218079   5.572   4.980   2.492
 6041TIP3    H118080   5.592   4.901   2.541
 6041TIP3    H218081   5.642   5.041   2.514
 6042TIP3   OH218082   3.486   5.465   3.622
 6042TIP3    H118083   3.509   5.475   3.530
 6042TIP3    H218084   3.456   5.552   3.649
 6043TIP3   OH218085   7.236   1.987   2.261
 6043TIP3    H118086   7.284   1.991   2.344
 6043TIP3    H218087   7.259   2.069   2.216
 6044TIP3   OH218088   4.962   5.119   0.334
 6044TIP3    H118089   5.038   5.153   0.382
 6044TIP3    H218090   4.887   5.142   0.389
 6045TIP3   OH218091   2.579   3.675   0.137
 6045TIP3    H118092   2.520   3.736   0.182
 6045TIP3    H218093   2.541   3.589   0.155
 6046TIP3   OH218094   3.599   0.833   5.593
 6046TIP3    H118095   3.512   0.820   5.631
 6046TIP3    H218096   3.632   0.745   5.578
 6047TIP3   OH218097   0.409   1.769   1.313
 6047TIP3    H118098   0.411   1.682   1.353
 6047TIP3    H218099   0.325   1.773   1.267
 6048TIP3   OH218100   4.163   5.427   2.304
 6048TIP3    H118101   4.067   5.421   2.305
 6048TIP3    H218102   4.184   5.464   2.218
 6049TIP3   OH218103   2.491   3.709   2.434
 6049TIP3    H118104   2.555   3.748   2.376
 6049TIP3    H218105   2.428   3.666   2.376
 6050TIP3   OH218106   6.126   6.190   6.766
 6050TIP3    H118107   6.128   6.245   6.688
 6050TIP3    H218108   6.219   6.179   6.790
 6051TIP3   OH218109   1.877   0.903   2.693
 6051TIP3    H118110   1.854   0.896   2.600
 6051TIP3    H218111   1.842   0.823   2.733
 6052TIP3   OH218112   6.644   7.753   4.277
 6052TIP3    H118113   6.616   7.756   4.369
 6052TIP3    H218114   6.712   7.821   4.270
 6053TIP3   OH218115   7.364   4.602   2.510
 6053TIP3    H118116   7.334   4.516   2.541
 6053TIP3    H218117   7.375   4.590   2.415
 6054TIP3   OH218118   6.382   1.302   4.184
 6054TIP3    H118119   6.454   1.279   4.126
 6054TIP3    H218120   6.313   1.238   4.163
 6055TIP3   OH218121   5.382   3.560   4.175
 6055TIP3    H118122   5.419   3.631   4.124
 6055TIP3    H218123   5.326   3.512   4.114
 6056TIP3   OH218124   4.378   5.802   2.181
 6056TIP3    H118125   4.401   5.872   2.121
 6056TIP3    H218126   4.338   5.846   2.256
 6057TIP3   OH218127   0.096   3.321   5.404
 6057TIP3    H118128   0.156   3.386   5.366
 6057TIP3    H218129   0.092   3.344   5.497
 6058TIP3   OH218130   3.087   1.567   2.714
 6058TIP3    H118131   3.069   1.585   2.622
 6058TIP3    H218132   3.000   1.558   2.753
 6059TIP3   OH218133   1.877   6.971   1.124
 6059TIP3    H118134   1.930   6.902   1.084
 6059TIP3    H218135   1.901   6.969   1.217
 6060TIP3   OH218136   5.160   6.745   4.675
 6060TIP3    H118137   5.116   6.783   4.751
 6060TIP3    H218138   5.251   6.734   4.703
 6061TIP3   OH218139   2.887   3.989   2.013
 6061TIP3    H118140   2.900   3.895   2.031
 6061TIP3    H218141   2.850   3.991   1.925
 6062TIP3   OH218142   3.191   1.373   0.491
 6062TIP3    H118143   3.252   1.314   0.446
 6062TIP3    H218144   3.198   1.348   0.583
 6063TIP3   OH218145   4.744   2.652   3.097
 6063TIP3    H118146   4.830   2.631   3.060
 6063TIP3    H218147   4.759   2.655   3.192
 6064TIP3   OH218148   2.820   7.586   0.139
 6064TIP3    H118149   2.759   7.558   0.207
 6064TIP3    H218150   2.906   7.580   0.179
 6065TIP3   OH218151   2.904   3.933   3.073
 6065TIP3    H118152   2.955   3.852   3.081
 6065TIP3    H218153   2.895   3.965   3.162
 6066TIP3   OH218154   1.946   3.641   3.414
 6066TIP3    H118155   1.947   3.554   3.374
 6066TIP3    H218156   2.008   3.692   3.362
 6067TIP3   OH218157   4.848   3.518   2.214
 6067TIP3    H118158   4.921   3.580   2.207
 6067TIP3    H218159   4.877   3.441   2.165
 6068TIP3   OH218160   7.982   0.074   1.470
 6068TIP3    H118161   7.941  -0.012   1.469
 6068TIP3    H218162   8.076   0.057   1.470
 6069TIP3   OH218163   0.161   2.354   0.607
 6069TIP3    H118164   0.161   2.310   0.693
 6069TIP3    H218165   0.104   2.299   0.553
 6070TIP3   OH218166   3.684   5.905   6.080
 6070TIP3    H118167   3.717   5.843   6.145
 6070TIP3    H218168   3.693   5.860   5.996
 6071TIP3   OH218169   1.314   3.937   2.017
 6071TIP3    H118170   1.230   3.931   2.063
 6071TIP3    H218171   1.368   3.867   2.056
 6072TIP3   OH218172   7.064   1.860   3.675
 6072TIP3    H118173   6.970   1.872   3.663
 6072TIP3    H218174   7.095   1.944   3.710
 6073TIP3   OH218175   4.709   3.902   3.869
 6073TIP3    H118176   4.634   3.936   3.918
 6073TIP3    H218177   4.673   3.829   3.818
 6074TIP3   OH218178   1.451   4.362   6.058
 6074TIP3    H118179   1.479   4.276   6.090
 6074TIP3    H218180   1.411   4.344   5.973
 6075TIP3   OH218181   5.118   0.588   3.355
 6075TIP3    H118182   5.047   0.601   3.419
 6075TIP3    H218183   5.189   0.549   3.406
 6076TIP3   OH218184   0.822   2.493   1.983
 6076TIP3    H118185   0.742   2.543   1.968
 6076TIP3    H218186   0.893   2.557   1.969
 6077TIP3   OH218187   7.974   2.684   2.773
 6077TIP3    H118188   8.063   2.694   2.739
 6077TIP3    H218189   7.977   2.603   2.824
 6078TIP3   OH218190   6.229   4.304   1.012
 6078TIP3    H118191   6.246   4.397   0.997
 6078TIP3    H218192   6.315   4.267   1.030
 6079TIP3   OH218193   7.299   4.536   6.762
 6079TIP3    H118194   7.279   4.611   6.818
 6079TIP3    H218195   7.234   4.470   6.786
 6080TIP3   OH218196   7.061   7.567   1.106
 6080TIP3    H118197   6.986   7.545   1.160
 6080TIP3    H218198   7.032   7.642   1.053
 6081TIP3   OH218199   1.858   5.942   1.223
 6081TIP3    H118200   1.787   5.928   1.285
 6081TIP3    H218201   1.907   6.016   1.259
 6082TIP3   OH218202   1.230   3.834   1.523
 6082TIP3    H118203   1.254   3.782   1.599
 6082TIP3    H218204   1.305   3.892   1.509
 6083TIP3   OH218205   6.706   1.875   2.609
 6083TIP3    H118206   6.649   1.862   2.533
 6083TIP3    H218207   6.709   1.789   2.651
 6084TIP3   OH218208   2.122   7.363   0.171
 6084TIP3    H118209   2.110   7.451   0.208
 6084TIP3    H218210   2.202   7.370   0.119
 6085TIP3   OH218211   5.318   0.043   6.047
 6085TIP3    H118212   5.262   0.108   6.089
 6085TIP3    H218213   5.278  -0.041   6.070
 6086TIP3   OH218214   3.954   3.701   6.135
 6086TIP3    H118215   4.010   3.630   6.106
 6086TIP3    H218216   4.013   3.762   6.179
 6087TIP3   OH218217   3.008   6.774   1.301
 6087TIP3    H118218   3.068   6.734   1.238
 6087TIP3    H218219   2.957   6.700   1.335
 6088TIP3   OH218220   5.973   4.627   2.030
 6088TIP3    H118221   6.058   4.589   2.051
 6088TIP3    H218222   5.917   4.552   2.010
 6089TIP3   OH218223   3.172   7.574   3.034
 6089TIP3    H118224   3.231   7.584   2.959
 6089TIP3    H218225   3.230   7.567   3.110
 6090TIP3   OH218226   5.667   1.671   6.098
 6090TIP3    H118227   5.700   1.757   6.073
 6090TIP3    H218228   5.579   1.689   6.133
 6091TIP3   OH218229   0.346   5.502   4.046
 6091TIP3    H118230   0.368   5.589   4.080
 6091TIP3    H218231   0.405   5.491   3.971
 6092TIP3   OH218232   3.854   6.967   2.772
 6092TIP3    H118233   3.851   7.001   2.862
 6092TIP3    H218234   3.926   6.903   2.773
 6093TIP3   OH218235   4.216   7.176   3.532
 6093TIP3    H118236   4.151   7.114   3.565
 6093TIP3    H218237   4.170   7.260   3.530
 6094TIP3   OH218238   4.865   4.337   0.586
 6094TIP3    H118239   4.809   4.286   0.645
 6094TIP3    H218240   4.954   4.316   0.615
 6095TIP3   OH218241   7.493   4.321   2.793
 6095TIP3    H118242   7.552   4.389   2.760
 6095TIP3    H218243   7.506   4.323   2.888
 6096TIP3   OH218244   6.679   7.484   6.463
 6096TIP3    H118245   6.768   7.519   6.466
 6096TIP3    H218246   6.638   7.527   6.388
 6097TIP3   OH218247   6.934   0.672   4.030
 6097TIP3    H118248   6.890   0.702   4.109
 6097TIP3    H218249   6.938   0.750   3.974
 6098TIP3   OH218250   3.470   0.349   5.288
 6098TIP3    H118251   3.407   0.319   5.353
 6098TIP3    H218252   3.460   0.444   5.285
 6099TIP3   OH218253   4.622   0.650   3.725
 6099TIP3    H118254   4.658   0.562   3.735
 6099TIP3    H218255   4.671   0.703   3.788
 6100TIP3   OH218256   7.648   0.749   0.151
 6100TIP3    H118257   7.616   0.702   0.073
 6100TIP3    H218258   7.664   0.838   0.120
 6101TIP3   OH218259   1.179   1.890   1.946
 6101TIP3    H118260   1.103   1.914   1.998
 6101TIP3    H218261   1.153   1.811   1.900
 6102TIP3   OH218262   6.536   6.817   1.340
 6102TIP3    H118263   6.478   6.746   1.365
 6102TIP3    H218264   6.599   6.824   1.412
 6103TIP3   OH218265   3.481   0.842   6.491
 6103TIP3    H118266   3.437   0.763   6.458
 6103TIP3    H218267   3.572   0.816   6.503
 6104TIP3   OH218268   1.880   0.372   4.458
 6104TIP3    H118269   1.870   0.449   4.515
 6104TIP3    H218270   1.885   0.298   4.518
 6105TIP3   OH218271   2.994   4.047   5.054
 6105TIP3    H118272   3.070   4.025   5.108
 6105TIP3    H218273   2.939   4.100   5.111
 6106TIP3   OH218274   7.906   3.809   1.160
 6106TIP3    H118275   7.881   3.893   1.198
 6106TIP3    H218276   8.002   3.811   1.157
 6107TIP3   OH218277   6.959   5.122   2.686
 6107TIP3    H118278   7.028   5.083   2.741
 6107TIP3    H218279   6.886   5.137   2.746
 6108TIP3   OH218280   5.960   7.296   4.736
 6108TIP3    H118281   5.960   7.342   4.652
 6108TIP3    H218282   6.052   7.289   4.760
 6109TIP3   OH218283   6.322   0.134   2.484
 6109TIP3    H118284   6.234   0.168   2.469
 6109TIP3    H218285   6.380   0.199   2.445
 6110TIP3   OH218286   4.803   2.647   3.963
 6110TIP3    H118287   4.894   2.646   3.934
 6110TIP3    H218288   4.769   2.560   3.940
 6111TIP3   OH218289   7.636   5.373   1.399
 6111TIP3    H118290   7.573   5.302   1.417
 6111TIP3    H218291   7.721   5.329   1.392
 6112TIP3   OH218292   4.152   4.711   6.456
 6112TIP3    H118293   4.213   4.664   6.512
 6112TIP3    H218294   4.079   4.651   6.443
 6113TIP3   OH218295   8.098   3.235   5.073
 6113TIP3    H118296   8.185   3.210   5.104
 6113TIP3    H218297   8.112   3.320   5.032
 6114TIP3   OH218298   3.915   1.552   3.161
 6114TIP3    H118299   3.879   1.641   3.153
 6114TIP3    H218300   3.991   1.552   3.103
 6115TIP3   OH218301   2.874   4.041   6.374
 6115TIP3    H118302   2.914   3.969   6.421
 6115TIP3    H218303   2.829   4.092   6.441
 6116TIP3   OH218304   4.404   1.041   6.531
 6116TIP3    H118305   4.451   1.105   6.583
 6116TIP3    H218306   4.314   1.046   6.561
 6117TIP3   OH218307   6.015   5.369   2.959
 6117TIP3    H118308   6.106   5.398   2.964
 6117TIP3    H218309   5.971   5.438   2.908
 6118TIP3   OH218310   7.242   1.904   4.575
 6118TIP3    H118311   7.321   1.903   4.521
 6118TIP3    H218312   7.180   1.849   4.529
 6119TIP3   OH218313   6.419   3.423   1.928
 6119TIP3    H118314   6.398   3.362   1.857
 6119TIP3    H218315   6.477   3.373   1.986
 6120TIP3   OH218316   3.511   0.879   4.333
 6120TIP3    H118317   3.513   0.953   4.271
 6120TIP3    H218318   3.569   0.906   4.404
 6121TIP3   OH218319   5.289   2.999   5.219
 6121TIP3    H118320   5.248   2.913   5.223
 6121TIP3    H218321   5.335   3.000   5.135
 6122TIP3   OH218322   0.261   3.588   3.466
 6122TIP3    H118323   0.346   3.588   3.421
 6122TIP3    H218324   0.249   3.498   3.495
 6123TIP3   OH218325   4.615   7.542   6.033
 6123TIP3    H118326   4.612   7.528   5.938
 6123TIP3    H218327   4.708   7.555   6.053
 6124TIP3   OH218328   7.923   4.738   6.118
 6124TIP3    H118329   7.911   4.650   6.084
 6124TIP3    H218330   7.834   4.772   6.128
 6125TIP3   OH218331   4.129   3.394   4.485
 6125TIP3    H118332   4.091   3.347   4.411
 6125TIP3    H218333   4.087   3.354   4.562
 6126TIP3   OH218334   6.510   1.681   0.415
 6126TIP3    H118335   6.497   1.587   0.430
 6126TIP3    H218336   6.587   1.704   0.467
 6127TIP3   OH218337   7.275   2.119   3.280
 6127TIP3    H118338   7.199   2.160   3.238
 6127TIP3    H218339   7.273   2.151   3.370
 6128TIP3   OH218340   5.050   6.027   6.348
 6128TIP3    H118341   5.111   6.046   6.277
 6128TIP3    H218342   4.978   6.089   6.335
 6129TIP3   OH218343   2.465   4.814   1.663
 6129TIP3    H118344   2.436   4.809   1.754
 6129TIP3    H218345   2.392   4.779   1.612
 6130TIP3   OH218346   1.569   0.458   2.680
 6130TIP3    H118347   1.550   0.376   2.634
 6130TIP3    H218348   1.646   0.438   2.734
 6131TIP3   OH218349   7.539   3.061   1.964
 6131TIP3    H118350   7.470   3.002   1.935
 6131TIP3    H218351   7.494   3.142   1.988
 6132TIP3   OH218352   0.785   2.765   4.034
 6132TIP3    H118353   0.693   2.751   4.060
 6132TIP3    H218354   0.814   2.679   4.003
 6133TIP3   OH218355   3.849   1.362   3.938
 6133TIP3    H118356   3.777   1.423   3.928
 6133TIP3    H218357   3.892   1.361   3.852
 6134TIP3   OH218358   2.007   3.059   4.447
 6134TIP3    H118359   2.084   3.051   4.502
 6134TIP3    H218360   2.034   3.115   4.374
 6135TIP3   OH218361   7.623   6.423   5.690
 6135TIP3    H118362   7.699   6.455   5.738
 6135TIP3    H218363   7.597   6.497   5.635
 6136TIP3   OH218364   6.475   7.764   5.181
 6136TIP3    H118365   6.536   7.832   5.209
 6136TIP3    H218366   6.393   7.810   5.163
 6137TIP3   OH218367   1.979   0.205   3.600
 6137TIP3    H118368   1.962   0.283   3.653
 6137TIP3    H218369   2.013   0.240   3.517
 6138TIP3   OH218370   7.283   4.404   0.304
 6138TIP3    H118371   7.210   4.399   0.364
 6138TIP3    H218372   7.253   4.358   0.225
 6139TIP3   OH218373   2.398   3.556   3.781
 6139TIP3    H118374   2.467   3.532   3.719
 6139TIP3    H218375   2.429   3.525   3.866
 6140TIP3   OH218376   0.611   3.981   4.445
 6140TIP3    H118377   0.671   3.997   4.372
 6140TIP3    H218378   0.647   3.905   4.490
 6141TIP3   OH218379   6.323   0.953   5.690
 6141TIP3    H118380   6.275   1.035   5.679
 6141TIP3    H218381   6.265   0.898   5.743
 6142TIP3   OH218382   2.959   6.062   4.774
 6142TIP3    H118383   2.871   6.026   4.785
 6142TIP3    H218384   2.973   6.115   4.853
 6143TIP3   OH218385   5.692   6.025   5.467
 6143TIP3    H118386   5.779   6.001   5.499
 6143TIP3    H218387   5.707   6.061   5.380
 6144TIP3   OH218388   7.387   7.682   2.708
 6144TIP3    H118389   7.390   7.769   2.670
 6144TIP3    H218390   7.311   7.640   2.668
 6145TIP3   OH218391   3.917   0.094   1.688
 6145TIP3    H118392   3.999   0.108   1.640
 6145TIP3    H218393   3.849   0.100   1.621
 6146TIP3   OH218394   6.103   6.528   5.454
 6146TIP3    H118395   6.106   6.565   5.366
 6146TIP3    H218396   6.182   6.473   5.460
 6147TIP3   OH218397   1.703   5.961   5.083
 6147TIP3    H118398   1.679   6.048   5.049
 6147TIP3    H218399   1.764   5.926   5.018
 6148TIP3   OH218400   5.756   2.867   2.940
 6148TIP3    H118401   5.698   2.792   2.924
 6148TIP3    H218402   5.735   2.894   3.029
 6149TIP3   OH218403   6.068   3.708   4.471
 6149TIP3    H118404   6.141   3.755   4.510
 6149TIP3    H218405   6.091   3.615   4.480
 6150TIP3   OH218406   1.839   4.583   1.097
 6150TIP3    H118407   1.897   4.520   1.140
 6150TIP3    H218408   1.780   4.529   1.045
 6151TIP3   OH218409   1.706   0.959   3.873
 6151TIP3    H118410   1.750   1.040   3.847
 6151TIP3    H218411   1.621   0.963   3.830
 6152TIP3   OH218412   1.225   5.641   0.661
 6152TIP3    H118413   1.257   5.553   0.642
 6152TIP3    H218414   1.154   5.655   0.598
 6153TIP3   OH218415   3.202   5.089   3.733
 6153TIP3    H118416   3.190   5.123   3.644
 6153TIP3    H218417   3.261   5.152   3.774
 6154TIP3   OH218418   4.447   0.872   3.131
 6154TIP3    H118419   4.430   0.926   3.054
 6154TIP3    H218420   4.543   0.866   3.136
 6155TIP3   OH218421   5.719   1.786   0.196
 6155TIP3    H118422   5.723   1.878   0.171
 6155TIP3    H218423   5.758   1.783   0.283
 6156TIP3   OH218424   6.608   0.540   6.263
 6156TIP3    H118425   6.680   0.508   6.318
 6156TIP3    H218426   6.640   0.623   6.227
 6157TIP3   OH218427   7.512   0.808   3.733
 6157TIP3    H118428   7.604   0.822   3.756
 6157TIP3    H218429   7.507   0.714   3.712
 6158TIP3   OH218430   0.478   0.307   4.297
 6158TIP3    H118431   0.482   0.251   4.219
 6158TIP3    H218432   0.548   0.371   4.284
 6159TIP3   OH218433   2.373   5.442   5.452
 6159TIP3    H118434   2.303   5.507   5.455
 6159TIP3    H218435   2.453   5.492   5.443
 6160TIP3   OH218436   1.429   3.209   3.177
 6160TIP3    H118437   1.515   3.214   3.135
 6160TIP3    H218438   1.378   3.278   3.136
 6161TIP3   OH218439   7.845   3.548   3.710
 6161TIP3    H118440   7.901   3.520   3.782
 6161TIP3    H218441   7.904   3.593   3.650
 6162TIP3   OH218442   5.702   4.150   1.934
 6162TIP3    H118443   5.639   4.163   1.863
 6162TIP3    H218444   5.651   4.110   2.005
 6163TIP3   OH218445   5.857   3.358   5.361
 6163TIP3    H118446   5.830   3.301   5.433
 6163TIP3    H218447   5.848   3.446   5.396
 6164TIP3   OH218448   4.519   3.385   1.900
 6164TIP3    H118449   4.443   3.343   1.860
 6164TIP3    H218450   4.563   3.429   1.827
 6165TIP3   OH218451   6.867   1.050   4.692
 6165TIP3    H118452   6.814   1.054   4.772
 6165TIP3    H218453   6.925   0.976   4.705
 6166TIP3   OH218454   0.502   7.794   2.673
 6166TIP3    H118455   0.502   7.841   2.756
 6166TIP3    H218456   0.492   7.702   2.697
 6167TIP3   OH218457   7.933   0.173   0.989
 6167TIP3    H118458   7.930   0.172   1.084
 6167TIP3    H218459   7.846   0.144   0.962
 6168TIP3   OH218460   4.925   2.944   0.901
 6168TIP3    H118461   4.870   3.009   0.945
 6168TIP3    H218462   4.865   2.870   0.884
 6169TIP3   OH218463   7.202   1.995   2.979
 6169TIP3    H118464   7.108   2.015   2.979
 6169TIP3    H218465   7.245   2.080   2.981
 6170TIP3   OH218466   7.762   7.432   6.750
 6170TIP3    H118467   7.706   7.448   6.674
 6170TIP3    H218468   7.800   7.517   6.770
 6171TIP3   OH218469   1.455   5.698   3.953
 6171TIP3    H118470   1.441   5.739   3.868
 6171TIP3    H218471   1.393   5.625   3.955
 6172TIP3   OH218472   3.582   4.301   5.282
 6172TIP3    H118473   3.511   4.365   5.284
 6172TIP3    H218474   3.541   4.219   5.311
 6173TIP3   OH218475   6.188   6.392   0.226
 6173TIP3    H118476   6.204   6.311   0.274
 6173TIP3    H218477   6.145   6.449   0.289
 6174TIP3   OH218478   1.732   3.621   6.485
 6174TIP3    H118479   1.686   3.628   6.402
 6174TIP3    H218480   1.788   3.698   6.489
 6175TIP3   OH218481   5.178   4.538   3.585
 6175TIP3    H118482   5.108   4.472   3.585
 6175TIP3    H218483   5.222   4.526   3.501
 6176TIP3   OH218484   1.057   4.167   4.703
 6176TIP3    H118485   1.029   4.163   4.794
 6176TIP3    H218486   0.976   4.175   4.653
 6177TIP3   OH218487   3.871   4.629   2.757
 6177TIP3    H118488   3.917   4.649   2.838
 6177TIP3    H218489   3.938   4.590   2.700
 6178TIP3   OH218490   8.228   7.452   4.859
 6178TIP3    H118491   8.214   7.511   4.934
 6178TIP3    H218492   8.242   7.366   4.899
 6179TIP3   OH218493   3.521   3.537   0.791
 6179TIP3    H118494   3.614   3.550   0.811
 6179TIP3    H218495   3.499   3.607   0.730
 6180TIP3   OH218496   4.737   7.207   0.031
 6180TIP3    H118497   4.707   7.294   0.003
 6180TIP3    H218498   4.687   7.146  -0.024
 6181TIP3   OH218499   0.912   0.172   1.359
 6181TIP3    H118500   0.884   0.091   1.403
 6181TIP3    H218501   0.978   0.210   1.418
 6182TIP3   OH218502   2.253   4.338   1.604
 6182TIP3    H118503   2.165   4.305   1.622
 6182TIP3    H218504   2.259   4.419   1.655
 6183TIP3   OH218505   4.657   3.510   0.397
 6183TIP3    H118506   4.739   3.518   0.350
 6183TIP3    H218507   4.672   3.557   0.479
 6184TIP3   OH218508   3.778   4.674   4.640
 6184TIP3    H118509   3.737   4.750   4.599
 6184TIP3    H218510   3.716   4.602   4.625
 6185TIP3   OH218511   0.413   6.803   0.079
 6185TIP3    H118512   0.322   6.775   0.085
 6185TIP3    H218513   0.411   6.879   0.022
 6186TIP3   OH218514   3.376   1.548   3.850
 6186TIP3    H118515   3.341   1.490   3.918
 6186TIP3    H218516   3.345   1.635   3.876
 6187TIP3   OH218517   0.079   2.632   5.160
 6187TIP3    H118518   0.026   2.557   5.135
 6187TIP3    H218519   0.036   2.707   5.118
 6188TIP3   OH218520   0.911   1.075   0.683
 6188TIP3    H118521   0.818   1.071   0.704
 6188TIP3    H218522   0.923   1.163   0.645
 6189TIP3   OH218523   4.888   6.619   3.886
 6189TIP3    H118524   4.873   6.712   3.865
 6189TIP3    H218525   4.865   6.612   3.978
 6190TIP3   OH218526   4.211   0.606   2.898
 6190TIP3    H118527   4.212   0.607   2.802
 6190TIP3    H218528   4.118   0.598   2.921
 6191TIP3   OH218529   1.110   0.956   3.112
 6191TIP3    H118530   1.201   0.934   3.089
 6191TIP3    H218531   1.059   0.931   3.035
 6192TIP3   OH218532   4.051   5.426   6.476
 6192TIP3    H118533   4.096   5.506   6.504
 6192TIP3    H218534   4.051   5.371   6.554
 6193TIP3   OH218535   1.999   2.595   0.612
 6193TIP3    H118536   2.015   2.622   0.522
 6193TIP3    H218537   1.988   2.500   0.607
 6194TIP3   OH218538   4.364   3.958   3.835
 6194TIP3    H118539   4.357   3.908   3.753
 6194TIP3    H218540   4.309   3.910   3.897
 6195TIP3   OH218541   4.392   2.130   4.970
 6195TIP3    H118542   4.325   2.198   4.973
 6195TIP3    H218543   4.356   2.058   5.023
 6196TIP3   OH218544   2.312   7.083   1.887
 6196TIP3    H118545   2.230   7.051   1.851
 6196TIP3    H218546   2.343   7.148   1.824
 6197TIP3   OH218547   7.585   1.349   0.417
 6197TIP3    H118548   7.593   1.421   0.480
 6197TIP3    H218549   7.605   1.270   0.468
 6198TIP3   OH218550   7.083   4.094   6.010
 6198TIP3    H118551   7.152   4.093   6.077
 6198TIP3    H218552   7.028   4.169   6.034
 6199TIP3   OH218553   4.001   3.843   4.269
 6199TIP3    H118554   3.970   3.773   4.211
 6199TIP3    H218555   3.934   3.911   4.261
 6200TIP3   OH218556   6.808   4.930   0.559
 6200TIP3    H118557   6.773   4.924   0.648
 6200TIP3    H218558   6.871   5.002   0.562
 6201TIP3   OH218559   5.808   2.920   5.203
 6201TIP3    H118560   5.735   2.967   5.243
 6201TIP3    H218561   5.884   2.946   5.254
 6202TIP3   OH218562   7.136   4.294   5.659
 6202TIP3    H118563   7.150   4.285   5.753
 6202TIP3    H218564   7.061   4.352   5.651
 6203TIP3   OH218565   3.538   2.244   2.718
 6203TIP3    H118566   3.575   2.166   2.758
 6203TIP3    H218567   3.596   2.263   2.644
 6204TIP3   OH218568   6.496   6.651   2.039
 6204TIP3    H118569   6.422   6.710   2.028
 6204TIP3    H218570   6.572   6.702   2.010
 6205TIP3   OH218571   5.568   3.547   3.006
 6205TIP3    H118572   5.494   3.545   3.066
 6205TIP3    H218573   5.631   3.486   3.044
 6206TIP3   OH218574   1.001   3.157   3.254
 6206TIP3    H118575   0.957   3.097   3.314
 6206TIP3    H218576   1.078   3.110   3.224
 6207TIP3   OH218577   5.533   4.622   5.523
 6207TIP3    H118578   5.467   4.691   5.518
 6207TIP3    H218579   5.532   4.581   5.437
 6208TIP3   OH218580   2.433   3.422   4.039
 6208TIP3    H118581   2.386   3.393   4.117
 6208TIP3    H218582   2.452   3.341   3.991
 6209TIP3   OH218583   4.912   2.877   1.550
 6209TIP3    H118584   4.826   2.897   1.587
 6209TIP3    H218585   4.892   2.826   1.471
 6210TIP3   OH218586   7.081   4.075   5.537
 6210TIP3    H118587   7.112   4.157   5.575
 6210TIP3    H218588   7.040   4.101   5.454
 6211TIP3   OH218589   0.549   5.487   3.262
 6211TIP3    H118590   0.514   5.568   3.225
 6211TIP3    H218591   0.474   5.428   3.267
 6212TIP3   OH218592   0.454   3.534   2.995
 6212TIP3    H118593   0.446   3.441   3.019
 6212TIP3    H218594   0.527   3.536   2.933
 6213TIP3   OH218595   1.583   3.222   0.241
 6213TIP3    H118596   1.528   3.265   0.307
 6213TIP3    H218597   1.658   3.280   0.232
 6214TIP3   OH218598   5.999   4.782   1.688
 6214TIP3    H118599   5.981   4.843   1.760
 6214TIP3    H218600   6.088   4.803   1.661
 6215TIP3   OH218601   3.018   6.110   5.371
 6215TIP3    H118602   2.984   6.021   5.374
 6215TIP3    H218603   3.031   6.129   5.278
 6216TIP3   OH218604   7.601   7.376   4.894
 6216TIP3    H118605   7.625   7.309   4.830
 6216TIP3    H218606   7.684   7.413   4.923
 6217TIP3   OH218607   5.852   5.789   4.824
 6217TIP3    H118608   5.916   5.736   4.777
 6217TIP3    H218609   5.785   5.809   4.758
 6218TIP3   OH218610   3.041   2.812   0.326
 6218TIP3    H118611   2.957   2.812   0.280
 6218TIP3    H218612   3.085   2.891   0.294
 6219TIP3   OH218613   1.355   5.256   6.182
 6219TIP3    H118614   1.386   5.346   6.174
 6219TIP3    H218615   1.306   5.254   6.265
 6220TIP3   OH218616   8.182   1.289   0.385
 6220TIP3    H118617   8.236   1.290   0.463
 6220TIP3    H218618   8.154   1.198   0.376
 6221TIP3   OH218619   4.059   3.239   2.231
 6221TIP3    H118620   4.016   3.321   2.257
 6221TIP3    H218621   4.114   3.217   2.307
 6222TIP3   OH218622   5.011   1.028   2.394
 6222TIP3    H118623   4.986   1.014   2.303
 6222TIP3    H218624   4.932   1.005   2.444
 6223TIP3   OH218625   0.800   1.755   2.073
 6223TIP3    H118626   0.738   1.829   2.073
 6223TIP3    H218627   0.839   1.757   2.161
 6224TIP3   OH218628   3.779   4.677   3.269
 6224TIP3    H118629   3.851   4.636   3.222
 6224TIP3    H218630   3.700   4.639   3.229
 6225TIP3   OH218631   2.628   1.403   2.551
 6225TIP3    H118632   2.580   1.320   2.554
 6225TIP3    H218633   2.711   1.384   2.596
 6226TIP3   OH218634   5.859   7.764   2.299
 6226TIP3    H118635   5.804   7.752   2.222
 6226TIP3    H218636   5.944   7.727   2.275
 6227TIP3   OH218637   7.311   4.094   0.339
 6227TIP3    H118638   7.224   4.053   0.340
 6227TIP3    H218639   7.312   4.152   0.415
 6228TIP3   OH218640   3.914   7.070   5.973
 6228TIP3    H118641   3.866   7.147   6.004
 6228TIP3    H218642   3.959   7.037   6.051
 6229TIP3   OH218643   8.251   5.644   1.853
 6229TIP3    H118644   8.309   5.626   1.927
 6229TIP3    H218645   8.253   5.564   1.801
 6230TIP3   OH218646   7.670   6.012   3.622
 6230TIP3    H118647   7.589   6.025   3.672
 6230TIP3    H218648   7.716   6.096   3.628
 6231TIP3   OH218649   3.007   6.487   5.691
 6231TIP3    H118650   3.056   6.419   5.737
 6231TIP3    H218651   3.033   6.478   5.599
 6232TIP3   OH218652   7.097   0.159   1.439
 6232TIP3    H118653   7.111   0.161   1.534
 6232TIP3    H218654   7.179   0.124   1.404
 6233TIP3   OH218655   7.727   5.296   0.092
 6233TIP3    H118656   7.668   5.347   0.148
 6233TIP3    H218657   7.815   5.327   0.115
 6234TIP3   OH218658   7.926   3.549   2.811
 6234TIP3    H118659   7.839   3.528   2.779
 6234TIP3    H218660   7.911   3.603   2.889
 6235TIP3   OH218661   7.492   7.379   1.280
 6235TIP3    H118662   7.440   7.300   1.263
 6235TIP3    H218663   7.449   7.447   1.228
 6236TIP3   OH218664   1.598   0.620   5.496
 6236TIP3    H118665   1.639   0.555   5.553
 6236TIP3    H218666   1.523   0.653   5.546
 6237TIP3   OH218667   0.521   6.996   1.290
 6237TIP3    H118668   0.483   6.932   1.230
 6237TIP3    H218669   0.515   7.080   1.245
 6238TIP3   OH218670   4.031   6.210   3.268
 6238TIP3    H118671   4.038   6.171   3.355
 6238TIP3    H218672   3.959   6.273   3.275
 6239TIP3   OH218673   5.063   6.191   5.114
 6239TIP3    H118674   5.090   6.277   5.082
 6239TIP3    H218675   4.993   6.210   5.177
 6240TIP3   OH218676   5.765   5.861   4.251
 6240TIP3    H118677   5.708   5.938   4.254
 6240TIP3    H218678   5.814   5.870   4.169
 6241TIP3   OH218679   6.790   6.649   0.336
 6241TIP3    H118680   6.829   6.588   0.273
 6241TIP3    H218681   6.778   6.597   0.416
 6242TIP3   OH218682   6.397   2.602   6.336
 6242TIP3    H118683   6.329   2.545   6.370
 6242TIP3    H218684   6.412   2.666   6.406
 6243TIP3   OH218685   4.521   7.662   0.946
 6243TIP3    H118686   4.597   7.681   1.001
 6243TIP3    H218687   4.559   7.636   0.862
 6244TIP3   OH218688   5.095   4.616   4.249
 6244TIP3    H118689   5.111   4.526   4.276
 6244TIP3    H218690   5.004   4.632   4.275
 6245TIP3   OH218691   6.346   5.993   5.582
 6245TIP3    H118692   6.299   6.051   5.642
 6245TIP3    H218693   6.307   5.906   5.597
 6246TIP3   OH218694   3.503   1.889   3.205
 6246TIP3    H118695   3.410   1.892   3.226
 6246TIP3    H218696   3.538   1.973   3.234
 6247TIP3   OH218697   5.084   1.060   3.347
 6247TIP3    H118698   5.124   0.990   3.398
 6247TIP3    H218699   4.997   1.027   3.325
 6248TIP3   OH218700   6.646   7.216   6.455
 6248TIP3    H118701   6.721   7.186   6.508
 6248TIP3    H218702   6.648   7.311   6.463
 6249TIP3   OH218703   3.167   6.488   3.589
 6249TIP3    H118704   3.240   6.439   3.627
 6249TIP3    H218705   3.112   6.512   3.664
 6250TIP3   OH218706   0.530   1.467   4.221
 6250TIP3    H118707   0.465   1.497   4.157
 6250TIP3    H218708   0.570   1.547   4.254
 6251TIP3   OH218709   1.845   1.286   0.513
 6251TIP3    H118710   1.891   1.346   0.454
 6251TIP3    H218711   1.874   1.311   0.601
 6252TIP3   OH218712   7.592   5.748   2.466
 6252TIP3    H118713   7.681   5.783   2.456
 6252TIP3    H218714   7.604   5.665   2.512
 6253TIP3   OH218715   0.371   5.003   1.500
 6253TIP3    H118716   0.403   4.998   1.410
 6253TIP3    H218717   0.360   5.097   1.517
 6254TIP3   OH218718   1.389   5.518   5.667
 6254TIP3    H118719   1.377   5.486   5.756
 6254TIP3    H218720   1.326   5.590   5.658
 6255TIP3   OH218721   0.408   5.399   0.912
 6255TIP3    H118722   0.362   5.481   0.932
 6255TIP3    H218723   0.488   5.427   0.867
 6256TIP3   OH218724   2.500   0.502   2.305
 6256TIP3    H118725   2.480   0.416   2.268
 6256TIP3    H218726   2.476   0.564   2.237
 6257TIP3   OH218727   4.409  -0.011   5.233
 6257TIP3    H118728   4.347  -0.079   5.259
 6257TIP3    H218729   4.357   0.053   5.186
 6258TIP3   OH218730   1.538   6.326   6.489
 6258TIP3    H118731   1.513   6.379   6.413
 6258TIP3    H218732   1.567   6.389   6.555
 6259TIP3   OH218733   2.821   0.309   2.076
 6259TIP3    H118734   2.902   0.349   2.045
 6259TIP3    H218735   2.847   0.254   2.150
 6260TIP3   OH218736   4.731   6.102   3.068
 6260TIP3    H118737   4.681   6.178   3.099
 6260TIP3    H218738   4.748   6.052   3.148
 6261TIP3   OH218739   3.172   2.694   5.736
 6261TIP3    H118740   3.103   2.698   5.803
 6261TIP3    H218741   3.125   2.672   5.655
 6262TIP3   OH218742   6.821   5.545   4.935
 6262TIP3    H118743   6.899   5.516   4.887
 6262TIP3    H218744   6.841   5.525   5.026
 6263TIP3   OH218745   4.602   6.856   5.081
 6263TIP3    H118746   4.671   6.839   5.145
 6263TIP3    H218747   4.569   6.769   5.058
 6264TIP3   OH218748   6.825   7.233   6.737
 6264TIP3    H118749   6.910   7.191   6.728
 6264TIP3    H218750   6.777   7.178   6.798
 6265TIP3   OH218751   7.367   3.757   0.980
 6265TIP3    H118752   7.400   3.846   0.989
 6265TIP3    H218753   7.348   3.730   1.070
 6266TIP3   OH218754   6.643   5.403   3.779
 6266TIP3    H118755   6.646   5.481   3.723
 6266TIP3    H218756   6.585   5.343   3.733
 6267TIP3   OH218757   6.942   0.490   3.172
 6267TIP3    H118758   6.963   0.583   3.166
 6267TIP3    H218759   6.896   0.481   3.256
 6268TIP3   OH218760   8.269   3.051   0.090
 6268TIP3    H118761   8.271   2.958   0.114
 6268TIP3    H218762   8.346   3.088   0.132
 6269TIP3   OH218763   6.062   2.717   6.662
 6269TIP3    H118764   6.029   2.785   6.722
 6269TIP3    H218765   6.076   2.641   6.718
 6270TIP3   OH218766   2.670   7.005   0.703
 6270TIP3    H118767   2.616   7.063   0.648
 6270TIP3    H218768   2.617   6.991   0.781
 6271TIP3   OH218769   7.715   5.336   0.670
 6271TIP3    H118770   7.778   5.285   0.619
 6271TIP3    H218771   7.671   5.391   0.605
 6272TIP3   OH218772   7.651   1.881   4.162
 6272TIP3    H118773   7.709   1.950   4.129
 6272TIP3    H218774   7.700   1.841   4.234
 6273TIP3   OH218775   6.477   0.580   5.647
 6273TIP3    H118776   6.385   0.556   5.643
 6273TIP3    H218777   6.477   0.671   5.676
 6274TIP3   OH218778   1.428   1.866   6.134
 6274TIP3    H118779   1.487   1.913   6.194
 6274TIP3    H218780   1.485   1.803   6.089
 6275TIP3   OH218781   1.825   5.197   3.301
 6275TIP3    H118782   1.808   5.289   3.321
 6275TIP3    H218783   1.920   5.189   3.302
 6276TIP3   OH218784   4.948   5.854   6.051
 6276TIP3    H118785   5.005   5.923   6.083
 6276TIP3    H218786   4.859   5.889   6.063
 6277TIP3   OH218787   2.638   3.396   2.593
 6277TIP3    H118788   2.579   3.346   2.649
 6277TIP3    H218789   2.710   3.420   2.650
 6278TIP3   OH218790   4.233   3.305   3.670
 6278TIP3    H118791   4.208   3.320   3.579
 6278TIP3    H218792   4.289   3.380   3.692
 6279TIP3   OH218793   2.631   0.443   4.983
 6279TIP3    H118794   2.596   0.463   5.070
 6279TIP3    H218795   2.721   0.416   4.999
 6280TIP3   OH218796   5.191   5.183   0.755
 6280TIP3    H118797   5.113   5.231   0.727
 6280TIP3    H218798   5.204   5.117   0.687
 6281TIP3   OH218799   1.177   2.775   6.737
 6281TIP3    H118800   1.195   2.787   6.644
 6281TIP3    H218801   1.100   2.829   6.753
 6282TIP3   OH218802   6.971   3.751   6.799
 6282TIP3    H118803   6.929   3.828   6.761
 6282TIP3    H218804   6.964   3.683   6.732
 6283TIP3   OH218805   7.201   6.849   1.054
 6283TIP3    H118806   7.131   6.785   1.069
 6283TIP3    H218807   7.207   6.897   1.137
 6284TIP3   OH218808   0.295   1.637   5.658
 6284TIP3    H118809   0.312   1.729   5.638
 6284TIP3    H218810   0.344   1.620   5.739
 6285TIP3   OH218811   4.267   4.233   2.910
 6285TIP3    H118812   4.226   4.147   2.919
 6285TIP3    H218813   4.301   4.252   2.998
 6286TIP3   OH218814   0.409   1.586   4.012
 6286TIP3    H118815   0.363   1.589   3.928
 6286TIP3    H218816   0.389   1.670   4.053
 6287TIP3   OH218817   4.824   2.726   0.051
 6287TIP3    H118818   4.744   2.716  -0.001
 6287TIP3    H218819   4.794   2.758   0.136
 6288TIP3   OH218820   5.808   6.749   2.401
 6288TIP3    H118821   5.798   6.655   2.410
 6288TIP3    H218822   5.877   6.759   2.334
 6289TIP3   OH218823   6.090   1.029   0.413
 6289TIP3    H118824   6.117   0.942   0.442
 6289TIP3    H218825   6.121   1.088   0.481
 6290TIP3   OH218826   0.024   2.614   3.397
 6290TIP3    H118827  -0.012   2.674   3.463
 6290TIP3    H218828  -0.012   2.529   3.421
 6291TIP3   OH218829   4.542   6.244   5.329
 6291TIP3    H118830   4.518   6.336   5.339
 6291TIP3    H218831   4.541   6.208   5.418
 6292TIP3   OH218832   0.594   5.047   6.042
 6292TIP3    H118833   0.666   5.074   5.985
 6292TIP3    H218834   0.609   4.954   6.056
 6293TIP3   OH218835   1.471   5.298   0.423
 6293TIP3    H118836   1.551   5.291   0.372
 6293TIP3    H218837   1.485   5.373   0.480
 6294TIP3   OH218838   3.050   2.550   2.673
 6294TIP3    H118839   3.019   2.489   2.739
 6294TIP3    H218840   3.067   2.496   2.596
 6295TIP3   OH218841   1.048   4.324   2.577
 6295TIP3    H118842   1.092   4.241   2.599
 6295TIP3    H218843   1.008   4.308   2.492
 6296TIP3   OH218844   6.406   0.838   5.104
 6296TIP3    H118845   6.462   0.916   5.101
 6296TIP3    H218846   6.388   0.818   5.012
 6297TIP3   OH218847   1.993   0.370   4.127
 6297TIP3    H118848   1.968   0.285   4.164
 6297TIP3    H218849   2.062   0.402   4.185
 6298TIP3   OH218850   5.640   5.329   0.332
 6298TIP3    H118851   5.711   5.372   0.285
 6298TIP3    H218852   5.588   5.401   0.367
 6299TIP3   OH218853   4.475   2.915   1.954
 6299TIP3    H118854   4.525   2.955   2.024
 6299TIP3    H218855   4.384   2.940   1.971
 6300TIP3   OH218856   7.625   1.855   4.705
 6300TIP3    H118857   7.550   1.799   4.724
 6300TIP3    H218858   7.626   1.920   4.775
 6301TIP3   OH218859   6.967   7.568   0.394
 6301TIP3    H118860   7.034   7.586   0.460
 6301TIP3    H218861   6.947   7.475   0.404
 6302TIP3   OH218862   5.210   5.103   3.653
 6302TIP3    H118863   5.297   5.073   3.681
 6302TIP3    H218864   5.149   5.041   3.693
 6303TIP3   OH218865   0.123   3.372   5.671
 6303TIP3    H118866   0.186   3.339   5.735
 6303TIP3    H218867   0.041   3.378   5.718
 6304TIP3   OH218868   4.929   7.015   6.404
 6304TIP3    H118869   4.940   7.072   6.481
 6304TIP3    H218870   5.005   6.957   6.407
 6305TIP3   OH218871   4.841   0.697   1.515
 6305TIP3    H118872   4.798   0.679   1.431
 6305TIP3    H218873   4.801   0.779   1.545
 6306TIP3   OH218874   7.357   2.803   4.056
 6306TIP3    H118875   7.407   2.881   4.031
 6306TIP3    H218876   7.324   2.824   4.143
 6307TIP3   OH218877   6.040   7.170   4.024
 6307TIP3    H118878   6.093   7.250   4.015
 6307TIP3    H218879   6.005   7.155   3.937
 6308TIP3   OH218880   6.285   7.327   4.768
 6308TIP3    H118881   6.272   7.290   4.856
 6308TIP3    H218882   6.270   7.421   4.780
 6309TIP3   OH218883   1.187   1.932   5.432
 6309TIP3    H118884   1.266   1.883   5.407
 6309TIP3    H218885   1.148   1.879   5.501
 6310TIP3   OH218886   8.165   6.065   1.954
 6310TIP3    H118887   8.208   6.119   2.020
 6310TIP3    H218888   8.197   6.100   1.871
 6311TIP3   OH218889   2.344   4.515   3.698
 6311TIP3    H118890   2.431   4.554   3.693
 6311TIP3    H218891   2.295   4.555   3.626
 6312TIP3   OH218892   4.504   3.302   6.375
 6312TIP3    H118893   4.508   3.207   6.375
 6312TIP3    H218894   4.415   3.323   6.404
 6313TIP3   OH218895   1.261   0.785   4.200
 6313TIP3    H118896   1.203   0.722   4.243
 6313TIP3    H218897   1.343   0.738   4.188
 6314TIP3   OH218898   5.092   3.648   1.928
 6314TIP3    H118899   5.146   3.570   1.912
 6314TIP3    H218900   5.096   3.697   1.847
 6315TIP3   OH218901   2.847   4.921   3.872
 6315TIP3    H118902   2.895   4.846   3.907
 6315TIP3    H218903   2.861   4.990   3.937
 6316TIP3   OH218904   7.041   4.309   6.394
 6316TIP3    H118905   7.047   4.217   6.423
 6316TIP3    H218906   6.947   4.328   6.396
 6317TIP3   OH218907   7.463   4.988   4.466
 6317TIP3    H118908   7.544   5.037   4.461
 6317TIP3    H218909   7.422   5.000   4.380
 6318TIP3   OH218910   0.506   0.737   1.272
 6318TIP3    H118911   0.542   0.655   1.237
 6318TIP3    H218912   0.453   0.772   1.201
 6319TIP3   OH218913   3.948   2.825   5.275
 6319TIP3    H118914   3.969   2.918   5.274
 6319TIP3    H218915   4.028   2.783   5.308
 6320TIP3   OH218916   0.943   3.878   2.371
 6320TIP3    H118917   0.966   3.811   2.435
 6320TIP3    H218918   0.848   3.888   2.380
 6321TIP3   OH218919   1.111   7.626   4.022
 6321TIP3    H118920   1.157   7.543   4.037
 6321TIP3    H218921   1.086   7.655   4.109
 6322TIP3   OH218922   8.102   5.837   0.051
 6322TIP3    H118923   8.041   5.799  -0.013
 6322TIP3    H218924   8.187   5.798   0.030
 6323TIP3   OH218925   5.325   2.130   0.852
 6323TIP3    H118926   5.230   2.124   0.840
 6323TIP3    H218927   5.354   2.040   0.861
 6324TIP3   OH218928   3.555   2.291   5.815
 6324TIP3    H118929   3.486   2.244   5.861
 6324TIP3    H218930   3.509   2.345   5.751
 6325TIP3   OH218931   0.798   2.513   3.949
 6325TIP3    H118932   0.869   2.504   3.885
 6325TIP3    H218933   0.801   2.432   4.000
 6326TIP3   OH218934   0.851   1.057   3.940
 6326TIP3    H118935   0.856   1.081   4.032
 6326TIP3    H218936   0.939   1.027   3.917
 6327TIP3   OH218937   1.999   2.295   0.589
 6327TIP3    H118938   2.076   2.251   0.626
 6327TIP3    H218939   1.931   2.228   0.587
 6328TIP3   OH218940   6.536   1.093   6.500
 6328TIP3    H118941   6.620   1.059   6.531
 6328TIP3    H218942   6.559   1.149   6.425
 6329TIP3   OH218943   4.393   7.010   3.397
 6329TIP3    H118944   4.482   7.043   3.391
 6329TIP3    H218945   4.348   7.072   3.455
 6330TIP3   OH218946   0.738   0.069   5.021
 6330TIP3    H118947   0.651   0.067   5.059
 6330TIP3    H218948   0.755   0.161   5.002
 6331TIP3   OH218949   2.498   2.287   4.827
 6331TIP3    H118950   2.421   2.292   4.884
 6331TIP3    H218951   2.516   2.377   4.802
 6332TIP3   OH218952   2.354   4.182   1.026
 6332TIP3    H118953   2.336   4.141   1.110
 6332TIP3    H218954   2.301   4.131   0.963
 6333TIP3   OH218955   6.892   5.224   4.437
 6333TIP3    H118956   6.936   5.272   4.367
 6333TIP3    H218957   6.962   5.189   4.491
 6334TIP3   OH218958   4.366   7.469   4.163
 6334TIP3    H118959   4.343   7.561   4.156
 6334TIP3    H218960   4.458   7.470   4.192
 6335TIP3   OH218961   0.512   1.534   0.126
 6335TIP3    H118962   0.547   1.522   0.214
 6335TIP3    H218963   0.520   1.448   0.084
 6336TIP3   OH218964   0.263   0.175   4.041
 6336TIP3    H118965   0.302   0.088   4.048
 6336TIP3    H218966   0.205   0.181   4.117
 6337TIP3   OH218967   4.062   5.727   2.538
 6337TIP3    H118968   4.121   5.730   2.614
 6337TIP3    H218969   4.107   5.776   2.470
 6338TIP3   OH218970   3.888   1.680   1.406
 6338TIP3    H118971   3.955   1.630   1.358
 6338TIP3    H218972   3.824   1.615   1.432
 6339TIP3   OH218973   1.257   2.468   3.312
 6339TIP3    H118974   1.336   2.476   3.367
 6339TIP3    H218975   1.280   2.402   3.247
 6340TIP3   OH218976   7.833   2.382   1.403
 6340TIP3    H118977   7.756   2.425   1.365
 6340TIP3    H218978   7.887   2.358   1.327
 6341TIP3   OH218979   7.047   3.393   1.730
 6341TIP3    H118980   7.118   3.437   1.778
 6341TIP3    H218981   6.979   3.460   1.721
 6342TIP3   OH218982   1.847   3.642   3.123
 6342TIP3    H118983   1.780   3.692   3.171
 6342TIP3    H218984   1.907   3.709   3.089
 6343TIP3   OH218985   3.217   1.338   1.308
 6343TIP3    H118986   3.239   1.289   1.387
 6343TIP3    H218987   3.302   1.353   1.265
 6344TIP3   OH218988   5.365   2.942   4.726
 6344TIP3    H118989   5.316   3.021   4.749
 6344TIP3    H218990   5.373   2.894   4.808
 6345TIP3   OH218991   4.835   6.443   3.671
 6345TIP3    H118992   4.899   6.428   3.601
 6345TIP3    H218993   4.884   6.490   3.739
 6346TIP3   OH218994   4.417   5.568   2.344
 6346TIP3    H118995   4.331   5.528   2.333
 6346TIP3    H218996   4.415   5.644   2.286
 6347TIP3   OH218997   7.051   7.533   5.388
 6347TIP3    H118998   7.045   7.592   5.314
 6347TIP3    H218999   6.962   7.501   5.401
 6348TIP3   OH219000   7.569   7.064   3.801
 6348TIP3    H119001   7.521   7.063   3.718
 6348TIP3    H219002   7.649   7.113   3.781
 6349TIP3   OH219003   0.494   2.063   1.392
 6349TIP3    H119004   0.408   2.057   1.433
 6349TIP3    H219005   0.546   1.995   1.437
 6350TIP3   OH219006   5.833   1.300   1.580
 6350TIP3    H119007   5.746   1.260   1.577
 6350TIP3    H219008   5.849   1.314   1.673
 6351TIP3   OH219009   4.182   5.959   4.472
 6351TIP3    H119010   4.173   6.008   4.390
 6351TIP3    H219011   4.164   5.868   4.446
 6352TIP3   OH219012   2.871   1.762   4.233
 6352TIP3    H119013   2.864   1.707   4.155
 6352TIP3    H219014   2.783   1.762   4.270
 6353TIP3   OH219015   0.203   3.993   4.526
 6353TIP3    H119016   0.148   3.967   4.600
 6353TIP3    H219017   0.292   3.971   4.553
 6354TIP3   OH219018   6.481   6.508   6.733
 6354TIP3    H119019   6.486   6.423   6.689
 6354TIP3    H219020   6.389   6.518   6.756
 6355TIP3   OH219021   4.935   6.661   1.909
 6355TIP3    H119022   4.846   6.667   1.875
 6355TIP3    H219023   4.990   6.700   1.842
 6356TIP3   OH219024   4.156   3.926   2.950
 6356TIP3    H119025   4.246   3.939   2.982
 6356TIP3    H219026   4.143   3.831   2.952
 6357TIP3   OH219027   6.443   0.580   6.006
 6357TIP3    H119028   6.473   0.535   6.085
 6357TIP3    H219029   6.522   0.594   5.955
 6358TIP3   OH219030   0.214   6.766   6.334
 6358TIP3    H119031   0.167   6.687   6.305
 6358TIP3    H219032   0.165   6.797   6.410
 6359TIP3   OH219033   6.766   5.186   5.047
 6359TIP3    H119034   6.855   5.180   5.082
 6359TIP3    H219035   6.717   5.232   5.116
 6360TIP3   OH219036   5.138   6.132   6.629
 6360TIP3    H119037   5.111   6.219   6.598
 6360TIP3    H219038   5.123   6.074   6.554
 6361TIP3   OH219039   3.262   0.508   3.955
 6361TIP3    H119040   3.179   0.551   3.936
 6361TIP3    H219041   3.269   0.510   4.051
 6362TIP3   OH219042   1.691   4.492   5.770
 6362TIP3    H119043   1.751   4.550   5.723
 6362TIP3    H219044   1.629   4.551   5.812
 6363TIP3   OH219045   4.049   3.104   5.209
 6363TIP3    H119046   4.069   3.148   5.291
 6363TIP3    H219047   4.132   3.107   5.160
 6364TIP3   OH219048   6.571   7.798   0.120
 6364TIP3    H119049   6.611   7.790   0.206
 6364TIP3    H219050   6.630   7.752   0.061
 6365TIP3   OH219051   6.967   2.827   0.335
 6365TIP3    H119052   6.999   2.916   0.348
 6365TIP3    H219053   7.030   2.772   0.382
 6366TIP3   OH219054   7.903   1.797   4.894
 6366TIP3    H119055   7.997   1.777   4.901
 6366TIP3    H219056   7.898   1.863   4.825
 6367TIP3   OH219057   6.380   2.495   2.571
 6367TIP3    H119058   6.398   2.410   2.532
 6367TIP3    H219059   6.446   2.504   2.640
 6368TIP3   OH219060   5.308   5.896   1.268
 6368TIP3    H119061   5.233   5.878   1.325
 6368TIP3    H219062   5.366   5.821   1.280
 6369TIP3   OH219063   7.346   6.068   1.727
 6369TIP3    H119064   7.291   6.085   1.650
 6369TIP3    H219065   7.392   5.987   1.706
 6370TIP3   OH219066   8.301   2.982   0.843
 6370TIP3    H119067   8.344   2.972   0.758
 6370TIP3    H219068   8.212   3.010   0.822
 6371TIP3   OH219069   7.663   1.109   0.284
 6371TIP3    H119070   7.593   1.167   0.253
 6371TIP3    H219071   7.695   1.151   0.364
 6372TIP3   OH219072   2.582   1.721   3.061
 6372TIP3    H119073   2.544   1.657   3.121
 6372TIP3    H219074   2.671   1.689   3.045
 6373TIP3   OH219075   7.617   3.322   3.959
 6373TIP3    H119076   7.621   3.415   3.979
 6373TIP3    H219077   7.581   3.318   3.870
 6374TIP3   OH219078   4.438   0.809   4.415
 6374TIP3    H119079   4.508   0.847   4.468
 6374TIP3    H219080   4.365   0.870   4.425
 6375TIP3   OH219081   4.191   3.660   3.049
 6375TIP3    H119082   4.217   3.582   3.000
 6375TIP3    H219083   4.135   3.627   3.119
 6376TIP3   OH219084   3.923   5.713   6.619
 6376TIP3    H119085   3.902   5.627   6.654
 6376TIP3    H219086   3.840   5.761   6.620
 6377TIP3   OH219087   3.932   6.755   5.242
 6377TIP3    H119088   3.874   6.747   5.166
 6377TIP3    H219089   3.967   6.844   5.236
 6378TIP3   OH219090   5.130   0.351   6.349
 6378TIP3    H119091   5.036   0.357   6.368
 6378TIP3    H219092   5.155   0.264   6.378
 6379TIP3   OH219093   5.300   1.322   3.211
 6379TIP3    H119094   5.302   1.399   3.154
 6379TIP3    H219095   5.336   1.252   3.158
 6380TIP3   OH219096   5.451   4.031   4.531
 6380TIP3    H119097   5.524   4.093   4.537
 6380TIP3    H219098   5.478   3.969   4.462
 6381TIP3   OH219099   0.025   5.864   1.208
 6381TIP3    H119100   0.062   5.856   1.121
 6381TIP3    H219101  -0.059   5.818   1.203
 6382TIP3   OH219102   0.614   3.082   2.257
 6382TIP3    H119103   0.678   3.142   2.219
 6382TIP3    H219104   0.537   3.137   2.273
 6383TIP3   OH219105   0.903   3.084   2.040
 6383TIP3    H119106   0.856   3.082   1.956
 6383TIP3    H219107   0.843   3.131   2.099
 6384TIP3   OH219108   0.173   4.535   5.101
 6384TIP3    H119109   0.136   4.607   5.050
 6384TIP3    H219110   0.206   4.473   5.036
 6385TIP3   OH219111   0.158   4.342   2.182
 6385TIP3    H119112   0.216   4.406   2.143
 6385TIP3    H219113   0.078   4.346   2.129
 6386TIP3   OH219114   8.219   5.864   1.667
 6386TIP3    H119115   8.249   5.789   1.718
 6386TIP3    H219116   8.218   5.832   1.577
 6387TIP3   OH219117   8.151   7.662   5.039
 6387TIP3    H119118   8.074   7.688   5.090
 6387TIP3    H219119   8.214   7.631   5.104
 6388TIP3   OH219120   4.324   3.825   3.599
 6388TIP3    H119121   4.244   3.795   3.558
 6388TIP3    H219122   4.385   3.841   3.526
 6389TIP3   OH219123   4.588   5.490   2.825
 6389TIP3    H119124   4.539   5.436   2.887
 6389TIP3    H219125   4.522   5.546   2.784
 6390TIP3   OH219126   7.687   3.865   3.547
 6390TIP3    H119127   7.689   3.930   3.476
 6390TIP3    H219128   7.729   3.910   3.621
 6391TIP3   OH219129   2.384   2.172   0.950
 6391TIP3    H119130   2.434   2.253   0.938
 6391TIP3    H219131   2.397   2.150   1.042
 6392TIP3   OH219132   2.072   2.390   6.292
 6392TIP3    H119133   2.157   2.432   6.306
 6392TIP3    H219134   2.021   2.452   6.241
 6393TIP3   OH219135   4.936   7.223   3.872
 6393TIP3    H119136   4.881   7.215   3.794
 6393TIP3    H219137   4.957   7.133   3.896
 6394TIP3   OH219138   5.357   0.957   2.759
 6394TIP3    H119139   5.395   1.045   2.753
 6394TIP3    H219140   5.358   0.924   2.670
 6395TIP3   OH219141   0.847   4.896   0.048
 6395TIP3    H119142   0.872   4.979   0.090
 6395TIP3    H219143   0.764   4.915   0.006
 6396TIP3   OH219144   5.764   2.691   2.307
 6396TIP3    H119145   5.772   2.629   2.235
 6396TIP3    H219146   5.852   2.726   2.318
 6397TIP3   OH219147   7.986   1.543   2.409
 6397TIP3    H119148   8.041   1.493   2.470
 6397TIP3    H219149   7.912   1.485   2.391
 6398TIP3   OH219150   5.448   2.718   4.580
 6398TIP3    H119151   5.522   2.724   4.519
 6398TIP3    H219152   5.418   2.808   4.589
 6399TIP3   OH219153   4.550   5.807   0.029
 6399TIP3    H119154   4.490   5.832  -0.041
 6399TIP3    H219155   4.495   5.802   0.107
 6400TIP3   OH219156   4.150   6.264   0.244
 6400TIP3    H119157   4.067   6.262   0.197
 6400TIP3    H219158   4.135   6.323   0.317
 6401TIP3   OH219159   6.242   5.765   0.999
 6401TIP3    H119160   6.150   5.782   0.978
 6401TIP3    H219161   6.279   5.727   0.920
 6402TIP3   OH219162   5.511   3.824   4.056
 6402TIP3    H119163   5.526   3.916   4.033
 6402TIP3    H219164   5.578   3.776   4.007
 6403TIP3   OH219165   6.618   0.603   2.690
 6403TIP3    H119166   6.546   0.659   2.717
 6403TIP3    H219167   6.576   0.526   2.653
 6404TIP3   OH219168   7.393   5.836   6.302
 6404TIP3    H119169   7.426   5.802   6.386
 6404TIP3    H219170   7.471   5.872   6.259
 6405TIP3   OH219171   3.937   6.375   5.754
 6405TIP3    H119172   3.884   6.302   5.723
 6405TIP3    H219173   4.021   6.365   5.710
 6406TIP3   OH219174   1.117   0.657   5.572
 6406TIP3    H119175   1.117   0.584   5.634
 6406TIP3    H219176   1.039   0.643   5.519
 6407TIP3   OH219177   2.743   0.332   4.247
 6407TIP3    H119178   2.731   0.409   4.303
 6407TIP3    H219179   2.751   0.259   4.308
 6408TIP3   OH219180   6.624   4.463   0.752
 6408TIP3    H119181   6.533   4.438   0.736
 6408TIP3    H219182   6.661   4.472   0.664
 6409TIP3   OH219183   6.671   3.396   3.094
 6409TIP3    H119184   6.603   3.350   3.143
 6409TIP3    H219185   6.707   3.330   3.035
 6410TIP3   OH219186   7.998   4.218   1.193
 6410TIP3    H119187   8.054   4.283   1.150
 6410TIP3    H219188   7.948   4.179   1.122
 6411TIP3   OH219189   3.143   7.253   6.614
 6411TIP3    H119190   3.237   7.248   6.596
 6411TIP3    H219191   3.116   7.337   6.577
 6412TIP3   OH219192   6.257   3.399   1.295
 6412TIP3    H119193   6.186   3.336   1.311
 6412TIP3    H219194   6.334   3.345   1.280
 6413TIP3   OH219195   5.988   3.420   3.120
 6413TIP3    H119196   6.029   3.392   3.202
 6413TIP3    H219197   5.993   3.516   3.122
 6414TIP3   OH219198   4.001   1.148   5.126
 6414TIP3    H119199   4.002   1.117   5.036
 6414TIP3    H219200   4.083   1.196   5.137
 6415TIP3   OH219201   6.516   5.695   5.572
 6415TIP3    H119202   6.562   5.754   5.631
 6415TIP3    H219203   6.424   5.723   5.578
 6416TIP3   OH219204   1.253   6.584   6.102
 6416TIP3    H119205   1.226   6.617   6.016
 6416TIP3    H219206   1.309   6.652   6.137
 6417TIP3   OH219207   1.970   2.695   3.252
 6417TIP3    H119208   2.018   2.655   3.179
 6417TIP3    H219209   1.965   2.627   3.318
 6418TIP3   OH219210   5.456   3.775   2.097
 6418TIP3    H119211   5.459   3.800   2.005
 6418TIP3    H219212   5.517   3.701   2.104
 6419TIP3   OH219213   3.877   7.360   3.736
 6419TIP3    H119214   3.784   7.379   3.728
 6419TIP3    H219215   3.893   7.356   3.830
 6420TIP3   OH219216   5.644   7.192   4.116
 6420TIP3    H119217   5.714   7.200   4.052
 6420TIP3    H219218   5.687   7.155   4.194
 6421TIP3   OH219219   7.861   7.412   6.180
 6421TIP3    H119220   7.801   7.345   6.147
 6421TIP3    H219221   7.902   7.371   6.257
 6422TIP3   OH219222   1.249   7.342   6.207
 6422TIP3    H119223   1.194   7.386   6.271
 6422TIP3    H219224   1.326   7.314   6.257
 6423TIP3   OH219225   4.514   4.361   5.256
 6423TIP3    H119226   4.463   4.421   5.201
 6423TIP3    H219227   4.545   4.415   5.329
 6424TIP3   OH219228   3.831   5.952   0.560
 6424TIP3    H119229   3.859   6.044   0.560
 6424TIP3    H219230   3.751   5.951   0.612
 6425TIP3   OH219231   0.553   0.298   0.936
 6425TIP3    H119232   0.546   0.296   0.841
 6425TIP3    H219233   0.565   0.206   0.961
 6426TIP3   OH219234   5.616   5.131   3.297
 6426TIP3    H119235   5.556   5.114   3.369
 6426TIP3    H219236   5.700   5.149   3.339
 6427TIP3   OH219237   2.114   6.656   4.227
 6427TIP3    H119238   2.048   6.593   4.198
 6427TIP3    H219239   2.100   6.664   4.322
 6428TIP3   OH219240   3.656   1.217   3.195
 6428TIP3    H119241   3.698   1.282   3.252
 6428TIP3    H219242   3.569   1.253   3.178
 6429TIP3   OH219243   3.098   5.008   1.108
 6429TIP3    H119244   3.170   4.989   1.169
 6429TIP3    H219245   3.022   4.964   1.146
 6430TIP3   OH219246   7.009   2.656   4.953
 6430TIP3    H119247   6.991   2.619   4.867
 6430TIP3    H219248   7.017   2.579   5.010
 6431TIP3   OH219249   1.380   5.389   0.160
 6431TIP3    H119250   1.405   5.358   0.247
 6431TIP3    H219251   1.339   5.312   0.119
 6432TIP3   OH219252   1.462   6.498   3.479
 6432TIP3    H119253   1.510   6.466   3.403
 6432TIP3    H219254   1.370   6.488   3.455
 6433TIP3   OH219255   6.837   4.688   6.754
 6433TIP3    H119256   6.922   4.688   6.710
 6433TIP3    H219257   6.850   4.742   6.832
 6434TIP3   OH219258   6.999   6.517   3.843
 6434TIP3    H119259   6.969   6.444   3.898
 6434TIP3    H219260   7.077   6.483   3.799
 6435TIP3   OH219261   5.711   6.513   3.559
 6435TIP3    H119262   5.659   6.528   3.480
 6435TIP3    H219263   5.792   6.474   3.528
 6436TIP3   OH219264   4.671   2.434   0.801
 6436TIP3    H119265   4.672   2.466   0.710
 6436TIP3    H219266   4.710   2.347   0.796
 6437TIP3   OH219267   5.600   6.789   6.118
 6437TIP3    H119268   5.649   6.707   6.128
 6437TIP3    H219269   5.631   6.826   6.035
 6438TIP3   OH219270   2.502   2.366   2.553
 6438TIP3    H119271   2.583   2.416   2.558
 6438TIP3    H219272   2.522   2.283   2.595
 6439TIP3   OH219273   5.687   4.448   6.040
 6439TIP3    H119274   5.598   4.443   6.005
 6439TIP3    H219275   5.732   4.512   5.985
 6440TIP3   OH219276   3.130   3.554   2.220
 6440TIP3    H119277   3.065   3.490   2.192
 6440TIP3    H219278   3.212   3.522   2.183
 6441TIP3   OH219279   5.201   5.290   4.961
 6441TIP3    H119280   5.134   5.358   4.952
 6441TIP3    H219281   5.209   5.277   5.056
 6442TIP3   OH219282   4.398   7.543   6.193
 6442TIP3    H119283   4.469   7.545   6.129
 6442TIP3    H219284   4.345   7.467   6.168
 6443TIP3   OH219285   2.685   4.789   6.663
 6443TIP3    H119286   2.606   4.783   6.610
 6443TIP3    H219287   2.663   4.851   6.733
 6444TIP3   OH219288   1.313   3.787   3.300
 6444TIP3    H119289   1.351   3.857   3.353
 6444TIP3    H219290   1.346   3.706   3.339
 6445TIP3   OH219291   6.789   2.856   3.970
 6445TIP3    H119292   6.841   2.838   4.048
 6445TIP3    H219293   6.832   2.806   3.900
 6446TIP3   OH219294   6.372   5.611   1.401
 6446TIP3    H119295   6.361   5.561   1.319
 6446TIP3    H219296   6.449   5.665   1.386
 6447TIP3   OH219297   4.572   3.921   4.980
 6447TIP3    H119298   4.550   3.940   5.071
 6447TIP3    H219299   4.502   3.961   4.929
 6448TIP3   OH219300   5.083   4.190   0.376
 6448TIP3    H119301   5.155   4.235   0.332
 6448TIP3    H219302   5.006   4.243   0.357
 6449TIP3   OH219303   7.366   3.221   1.713
 6449TIP3    H119304   7.367   3.276   1.791
 6449TIP3    H219305   7.347   3.281   1.641
 6450TIP3   OH219306   4.242   4.501   3.829
 6450TIP3    H119307   4.296   4.513   3.907
 6450TIP3    H219308   4.254   4.408   3.806
 6451TIP3   OH219309   5.078   5.996   2.442
 6451TIP3    H119310   5.031   6.046   2.509
 6451TIP3    H219311   5.047   6.032   2.359
 6452TIP3   OH219312   3.991   4.455   2.103
 6452TIP3    H119313   4.074   4.424   2.065
 6452TIP3    H219314   4.015   4.534   2.151
 6453TIP3   OH219315   6.368   3.672   4.775
 6453TIP3    H119316   6.305   3.735   4.738
 6453TIP3    H219317   6.361   3.684   4.870
 6454TIP3   OH219318   3.181   3.500   6.561
 6454TIP3    H119319   3.126   3.479   6.637
 6454TIP3    H219320   3.132   3.466   6.486
 6455TIP3   OH219321   7.146   5.973   6.457
 6455TIP3    H119322   7.052   5.966   6.440
 6455TIP3    H219323   7.177   5.882   6.453
 6456TIP3   OH219324   5.099   3.078   2.009
 6456TIP3    H119325   5.137   3.116   1.929
 6456TIP3    H219326   5.041   3.147   2.042
 6457TIP3   OH219327   0.634   4.679   0.964
 6457TIP3    H119328   0.565   4.678   0.899
 6457TIP3    H219329   0.592   4.707   1.045
 6458TIP3   OH219330   7.292   3.319   0.657
 6458TIP3    H119331   7.209   3.290   0.695
 6458TIP3    H219332   7.268   3.356   0.572
 6459TIP3   OH219333   3.334   5.166   4.462
 6459TIP3    H119334   3.380   5.134   4.384
 6459TIP3    H219335   3.397   5.155   4.533
 6460TIP3   OH219336   8.090   7.023   3.305
 6460TIP3    H119337   8.043   6.962   3.247
 6460TIP3    H219338   8.093   6.978   3.390
 6461TIP3   OH219339   3.408   2.604   0.193
 6461TIP3    H119340   3.397   2.691   0.155
 6461TIP3    H219341   3.321   2.581   0.226
 6462TIP3   OH219342   8.042   7.283   0.388
 6462TIP3    H119343   7.993   7.305   0.467
 6462TIP3    H219344   8.099   7.210   0.413
 6463TIP3   OH219345   7.032   2.335   2.021
 6463TIP3    H119346   7.023   2.255   1.969
 6463TIP3    H219347   7.051   2.404   1.958
 6464TIP3   OH219348   5.768   4.981   5.934
 6464TIP3    H119349   5.713   5.059   5.938
 6464TIP3    H219350   5.795   4.976   5.842
 6465TIP3   OH219351   6.606   6.180   0.329
 6465TIP3    H119352   6.693   6.191   0.368
 6465TIP3    H219353   6.613   6.103   0.273
 6466TIP3   OH219354   4.120   7.114   4.108
 6466TIP3    H119355   4.044   7.172   4.113
 6466TIP3    H219356   4.151   7.107   4.198
 6467TIP3   OH219357   4.630   7.419   3.537
 6467TIP3    H119358   4.706   7.362   3.549
 6467TIP3    H219359   4.560   7.375   3.586
 6468TIP3   OH219360   4.652   1.739   5.957
 6468TIP3    H119361   4.578   1.682   5.938
 6468TIP3    H219362   4.650   1.749   6.052
 6469TIP3   OH219363   3.253   6.219   0.458
 6469TIP3    H119364   3.312   6.294   0.460
 6469TIP3    H219365   3.193   6.234   0.530
 6470TIP3   OH219366   2.993   6.205   4.522
 6470TIP3    H119367   2.960   6.268   4.585
 6470TIP3    H219368   2.981   6.120   4.565
 6471TIP3   OH219369   5.611   4.915   2.208
 6471TIP3    H119370   5.698   4.874   2.208
 6471TIP3    H219371   5.603   4.952   2.296
 6472TIP3   OH219372   3.013   4.980   4.578
 6472TIP3    H119373   3.052   5.024   4.503
 6472TIP3    H219374   2.933   4.940   4.544
 6473TIP3   OH219375   1.277   5.358   0.946
 6473TIP3    H119376   1.240   5.426   1.002
 6473TIP3    H219377   1.203   5.326   0.895
 6474TIP3   OH219378   5.734   5.543   4.933
 6474TIP3    H119379   5.752   5.458   4.894
 6474TIP3    H219380   5.775   5.606   4.873
 6475TIP3   OH219381   3.085   2.630   5.448
 6475TIP3    H119382   3.126   2.628   5.361
 6475TIP3    H219383   3.031   2.708   5.447
 6476TIP3   OH219384   5.703   3.792   1.427
 6476TIP3    H119385   5.720   3.853   1.499
 6476TIP3    H219386   5.648   3.724   1.465
 6477TIP3   OH219387   0.842   0.369   4.217
 6477TIP3    H119388   0.836   0.279   4.249
 6477TIP3    H219389   0.823   0.364   4.124
 6478TIP3   OH219390   6.220   2.010   2.590
 6478TIP3    H119391   6.280   1.936   2.603
 6478TIP3    H219392   6.274   2.078   2.550
 6479TIP3   OH219393   4.399   3.701   5.144
 6479TIP3    H119394   4.313   3.703   5.101
 6479TIP3    H219395   4.441   3.781   5.116
 6480TIP3   OH219396   0.343   6.459   3.486
 6480TIP3    H119397   0.418   6.506   3.522
 6480TIP3    H219398   0.268   6.495   3.534
 6481TIP3   OH219399   2.349   2.101   2.289
 6481TIP3    H119400   2.269   2.048   2.288
 6481TIP3    H219401   2.420   2.038   2.274
 6482TIP3   OH219402   3.668   2.045   5.836
 6482TIP3    H119403   3.650   2.138   5.821
 6482TIP3    H219404   3.601   1.999   5.785
 6483TIP3   OH219405   3.553   1.566   5.179
 6483TIP3    H119406   3.585   1.648   5.217
 6483TIP3    H219407   3.496   1.593   5.107
 6484TIP3   OH219408   0.343   2.772   4.847
 6484TIP3    H119409   0.410   2.705   4.838
 6484TIP3    H219410   0.264   2.724   4.871
 6485TIP3   OH219411   0.612   1.213   1.616
 6485TIP3    H119412   0.591   1.170   1.533
 6485TIP3    H219413   0.694   1.258   1.600
 6486TIP3   OH219414   0.099   2.069   4.692
 6486TIP3    H119415   0.182   2.041   4.655
 6486TIP3    H219416   0.055   1.988   4.718
 6487TIP3   OH219417   3.453   3.587   6.522
 6487TIP3    H119418   3.465   3.503   6.567
 6487TIP3    H219419   3.359   3.589   6.501
 6488TIP3   OH219420   0.895   6.440   1.430
 6488TIP3    H119421   0.914   6.374   1.364
 6488TIP3    H219422   0.971   6.498   1.428
 6489TIP3   OH219423   4.711   4.930   3.270
 6489TIP3    H119424   4.630   4.892   3.303
 6489TIP3    H219425   4.758   4.857   3.230
 6490TIP3   OH219426   1.745   1.241   2.610
 6490TIP3    H119427   1.691   1.284   2.677
 6490TIP3    H219428   1.705   1.155   2.598
 6491TIP3   OH219429   5.502   5.688   4.973
 6491TIP3    H119430   5.587   5.648   4.956
 6491TIP3    H219431   5.508   5.722   5.063
 6492TIP3   OH219432   0.881   5.021   6.224
 6492TIP3    H119433   0.833   4.938   6.229
 6492TIP3    H219434   0.938   5.011   6.149
 6493TIP3   OH219435   5.524   5.853   6.657
 6493TIP3    H119436   5.490   5.770   6.624
 6493TIP3    H219437   5.494   5.857   6.748
 6494TIP3   OH219438   6.366   0.661   6.354
 6494TIP3    H119439   6.452   0.627   6.378
 6494TIP3    H219440   6.382   0.754   6.337
 6495TIP3   OH219441   2.848   1.236   0.205
 6495TIP3    H119442   2.916   1.296   0.237
 6495TIP3    H219443   2.828   1.181   0.281
 6496TIP3   OH219444   0.511   6.883   1.785
 6496TIP3    H119445   0.489   6.904   1.694
 6496TIP3    H219446   0.457   6.942   1.837
 6497TIP3   OH219447   2.844   5.999   0.846
 6497TIP3    H119448   2.784   5.997   0.772
 6497TIP3    H219449   2.886   5.913   0.846
 6498TIP3   OH219450   5.046   6.332   3.507
 6498TIP3    H119451   5.057   6.264   3.439
 6498TIP3    H219452   5.049   6.283   3.589
 6499TIP3   OH219453   3.064   7.785   5.749
 6499TIP3    H119454   2.996   7.851   5.760
 6499TIP3    H219455   3.016   7.704   5.734
 6500TIP3   OH219456   0.118   3.847   4.291
 6500TIP3    H119457   0.147   3.909   4.358
 6500TIP3    H219458   0.133   3.892   4.208
 6501TIP3   OH219459   7.227   5.354   6.057
 6501TIP3    H119460   7.189   5.293   6.120
 6501TIP3    H219461   7.166   5.428   6.055
 6502TIP3   OH219462   3.705   1.322   0.696
 6502TIP3    H119463   3.648   1.390   0.660
 6502TIP3    H219464   3.776   1.370   0.738
 6503TIP3   OH219465   1.008   4.585   6.657
 6503TIP3    H119466   1.050   4.506   6.625
 6503TIP3    H219467   0.994   4.569   6.751
 6504TIP3   OH219468   4.634   4.186   1.985
 6504TIP3    H119469   4.582   4.144   2.054
 6504TIP3    H219470   4.570   4.225   1.926
 6505TIP3   OH219471   3.119   4.700   0.647
 6505TIP3    H119472   3.032   4.685   0.684
 6505TIP3    H219473   3.110   4.675   0.555
 6506TIP3   OH219474   2.513   5.913   0.188
 6506TIP3    H119475   2.498   5.831   0.235
 6506TIP3    H219476   2.476   5.980   0.245
 6507TIP3   OH219477   1.713   0.049   2.942
 6507TIP3    H119478   1.728   0.143   2.937
 6507TIP3    H219479   1.628   0.035   2.901
 6508TIP3   OH219480   2.378   1.442   6.143
 6508TIP3    H119481   2.348   1.529   6.169
 6508TIP3    H219482   2.300   1.399   6.108
 6509TIP3   OH219483   1.887   2.254   4.377
 6509TIP3    H119484   1.977   2.258   4.345
 6509TIP3    H219485   1.883   2.173   4.428
 6510TIP3   OH219486   5.965   3.148   1.607
 6510TIP3    H119487   5.974   3.097   1.688
 6510TIP3    H219488   5.875   3.133   1.579
 6511TIP3   OH219489   3.721   7.506   5.492
 6511TIP3    H119490   3.786   7.488   5.424
 6511TIP3    H219491   3.718   7.425   5.543
 6512TIP3   OH219492   3.920   1.624   5.164
 6512TIP3    H119493   3.965   1.705   5.143
 6512TIP3    H219494   3.863   1.608   5.088
 6513TIP3   OH219495   0.677   4.593   6.593
 6513TIP3    H119496   0.725   4.562   6.517
 6513TIP3    H219497   0.706   4.684   6.605
 6514TIP3   OH219498   4.715   0.814   3.124
 6514TIP3    H119499   4.760   0.858   3.051
 6514TIP3    H219500   4.767   0.736   3.141
 6515TIP3   OH219501   7.906   4.082   0.220
 6515TIP3    H119502   7.891   4.152   0.157
 6515TIP3    H219503   7.971   4.117   0.280
 6516TIP3   OH219504   0.383   7.203   0.627
 6516TIP3    H119505   0.310   7.180   0.569
 6516TIP3    H219506   0.345   7.197   0.715
 6517TIP3   OH219507   2.657   3.679   1.102
 6517TIP3    H119508   2.729   3.662   1.041
 6517TIP3    H219509   2.699   3.684   1.188
 6518TIP3   OH219510   0.283   4.119   0.927
 6518TIP3    H119511   0.274   4.079   1.014
 6518TIP3    H219512   0.337   4.197   0.942
 6519TIP3   OH219513   8.055   2.127   3.040
 6519TIP3    H119514   7.981   2.067   3.050
 6519TIP3    H219515   8.106   2.092   2.967
 6520TIP3   OH219516   0.955   0.687   1.277
 6520TIP3    H119517   1.027   0.682   1.213
 6520TIP3    H219518   0.962   0.605   1.327
 6521TIP3   OH219519   2.291   6.630   2.632
 6521TIP3    H119520   2.371   6.583   2.610
 6521TIP3    H219521   2.321   6.713   2.668
 6522TIP3   OH219522   7.708   0.234   5.949
 6522TIP3    H119523   7.761   0.209   6.024
 6522TIP3    H219524   7.765   0.219   5.873
 6523TIP3   OH219525   3.264   1.360   6.421
 6523TIP3    H119526   3.284   1.334   6.331
 6523TIP3    H219527   3.226   1.447   6.412
 6524TIP3   OH219528   1.287   0.851   3.570
 6524TIP3    H119529   1.204   0.860   3.618
 6524TIP3    H219530   1.265   0.801   3.492
 6525TIP3   OH219531   2.056   3.118   3.816
 6525TIP3    H119532   2.084   3.050   3.878
 6525TIP3    H219533   2.097   3.198   3.848
 6526TIP3   OH219534   0.132   2.599   1.219
 6526TIP3    H119535   0.128   2.683   1.265
 6526TIP3    H219536   0.077   2.612   1.141
 6527TIP3   OH219537   5.910   0.071   6.488
 6527TIP3    H119538   5.971   0.144   6.497
 6527TIP3    H219539   5.911   0.051   6.394
 6528TIP3   OH219540   3.123   7.406   4.655
 6528TIP3    H119541   3.096   7.388   4.565
 6528TIP3    H219542   3.137   7.501   4.658
 6529TIP3   OH219543   2.592   6.155   4.481
 6529TIP3    H119544   2.640   6.224   4.436
 6529TIP3    H219545   2.530   6.202   4.537
 6530TIP3   OH219546   8.110   4.241   3.061
 6530TIP3    H119547   8.088   4.227   3.153
 6530TIP3    H219548   8.197   4.204   3.051
 6531TIP3   OH219549   5.399   6.584   4.430
 6531TIP3    H119550   5.347   6.597   4.510
 6531TIP3    H219551   5.377   6.495   4.402
 6532TIP3   OH219552   2.772   0.256   5.219
 6532TIP3    H119553   2.767   0.279   5.126
 6532TIP3    H219554   2.809   0.168   5.220
 6533TIP3   OH219555   1.602   4.101   2.907
 6533TIP3    H119556   1.676   4.079   2.852
 6533TIP3    H219557   1.533   4.128   2.846
 6534TIP3   OH219558   7.890   2.656   1.994
 6534TIP3    H119559   7.885   2.570   2.036
 6534TIP3    H219560   7.899   2.718   2.066
 6535TIP3   OH219561   0.856   2.823   1.847
 6535TIP3    H119562   0.784   2.782   1.798
 6535TIP3    H219563   0.858   2.913   1.814
 6536TIP3   OH219564   3.063   7.336   4.352
 6536TIP3    H119565   3.151   7.373   4.342
 6536TIP3    H219566   3.072   7.245   4.325
 6537TIP3   OH219567   6.910   6.385   6.560
 6537TIP3    H119568   6.844   6.411   6.496
 6537TIP3    H219569   6.899   6.448   6.632
 6538TIP3   OH219570   7.832   2.833   2.517
 6538TIP3    H119571   7.746   2.801   2.487
 6538TIP3    H219572   7.857   2.773   2.587
 6539TIP3   OH219573   6.943   4.474   5.599
 6539TIP3    H119574   6.895   4.439   5.524
 6539TIP3    H219575   6.922   4.567   5.598
 6540TIP3   OH219576   6.461   3.839   3.873
 6540TIP3    H119577   6.545   3.870   3.842
 6540TIP3    H219578   6.410   3.918   3.890
 6541TIP3   OH219579   8.064   6.268   5.869
 6541TIP3    H119580   8.132   6.208   5.898
 6541TIP3    H219581   8.049   6.325   5.944
 6542TIP3   OH219582   7.820   2.302   2.512
 6542TIP3    H119583   7.823   2.275   2.603
 6542TIP3    H219584   7.892   2.254   2.471
 6543TIP3   OH219585   6.323   2.707   0.065
 6543TIP3    H119586   6.287   2.656   0.137
 6543TIP3    H219587   6.361   2.642   0.006
 6544TIP3   OH219588   2.482   4.138   6.344
 6544TIP3    H119589   2.397   4.094   6.348
 6544TIP3    H219590   2.467   4.224   6.383
 6545TIP3   OH219591   5.623   2.936   0.912
 6545TIP3    H119592   5.558   3.006   0.910
 6545TIP3    H219593   5.602   2.886   0.991
 6546TIP3   OH219594   5.230   4.497   1.113
 6546TIP3    H119595   5.137   4.486   1.132
 6546TIP3    H219596   5.232   4.532   1.024
 6547TIP3   OH219597   5.436   5.412   5.363
 6547TIP3    H119598   5.462   5.504   5.364
 6547TIP3    H219599   5.344   5.413   5.336
 6548TIP3   OH219600   2.194   5.876   4.503
 6548TIP3    H119601   2.112   5.834   4.475
 6548TIP3    H219602   2.263   5.822   4.465
 6549TIP3   OH219603   1.240   0.797   5.905
 6549TIP3    H119604   1.146   0.812   5.905
 6549TIP3    H219605   1.278   0.876   5.942
 6550TIP3   OH219606   0.054   3.463   1.103
 6550TIP3    H119607   0.123   3.407   1.067
 6550TIP3    H219608  -0.008   3.473   1.031
 6551TIP3   OH219609   1.111   5.706   3.864
 6551TIP3    H119610   1.110   5.629   3.808
 6551TIP3    H219611   1.042   5.762   3.830
 6552TIP3   OH219612   5.472   5.691   1.329
 6552TIP3    H119613   5.542   5.704   1.392
 6552TIP3    H219614   5.464   5.596   1.322
 6553TIP3   OH219615   7.149   4.252   4.734
 6553TIP3    H119616   7.177   4.238   4.824
 6553TIP3    H219617   7.111   4.340   4.734
 6554TIP3   OH219618   8.042   5.957   4.563
 6554TIP3    H119619   7.970   6.018   4.545
 6554TIP3    H219620   8.049   5.954   4.658
 6555TIP3   OH219621   2.665   4.814   3.459
 6555TIP3    H119622   2.598   4.749   3.480
 6555TIP3    H219623   2.745   4.780   3.499
 6556TIP3   OH219624   1.568   5.408   4.342
 6556TIP3    H119625   1.529   5.430   4.427
 6556TIP3    H219626   1.660   5.432   4.351
 6557TIP3   OH219627   5.337   2.290   5.850
 6557TIP3    H119628   5.265   2.229   5.862
 6557TIP3    H219629   5.328   2.321   5.760
 6558TIP3   OH219630   2.267   1.355   3.101
 6558TIP3    H119631   2.220   1.351   3.184
 6558TIP3    H219632   2.210   1.310   3.039
 6559TIP3   OH219633   6.913   7.491   3.127
 6559TIP3    H119634   6.877   7.580   3.121
 6559TIP3    H219635   6.981   7.488   3.061
 6560TIP3   OH219636   0.182   1.656   1.860
 6560TIP3    H119637   0.239   1.608   1.921
 6560TIP3    H219638   0.101   1.606   1.858
 6561TIP3   OH219639   3.178   4.404   6.465
 6561TIP3    H119640   3.163   4.450   6.547
 6561TIP3    H219641   3.157   4.312   6.484
 6562TIP3   OH219642   4.541   7.515   4.552
 6562TIP3    H119643   4.576   7.522   4.641
 6562TIP3    H219644   4.479   7.442   4.556
 6563TIP3   OH219645   6.966   0.516   4.465
 6563TIP3    H119646   7.026   0.587   4.438
 6563TIP3    H219647   6.944   0.472   4.383
 6564TIP3   OH219648   0.481   5.014   5.769
 6564TIP3    H119649   0.519   5.017   5.857
 6564TIP3    H219650   0.398   4.968   5.781
 6565TIP3   OH219651   1.130   0.361   5.449
 6565TIP3    H119652   1.179   0.391   5.525
 6565TIP3    H219653   1.196   0.331   5.387
 6566TIP3   OH219654   8.249   1.045   4.899
 6566TIP3    H119655   8.238   0.967   4.954
 6566TIP3    H219656   8.300   1.105   4.952
 6567TIP3   OH219657   3.417   5.752   2.500
 6567TIP3    H119658   3.472   5.817   2.545
 6567TIP3    H219659   3.458   5.742   2.414
 6568TIP3   OH219660   2.228   1.762   4.367
 6568TIP3    H119661   2.235   1.797   4.278
 6568TIP3    H219662   2.170   1.686   4.358
 6569TIP3   OH219663   6.775   7.313   1.138
 6569TIP3    H119664   6.699   7.286   1.189
 6569TIP3    H219665   6.820   7.377   1.194
 6570TIP3   OH219666   6.333   4.597   5.421
 6570TIP3    H119667   6.252   4.552   5.445
 6570TIP3    H219668   6.357   4.558   5.337
 6571TIP3   OH219669   5.590   0.547   1.462
 6571TIP3    H119670   5.644   0.624   1.446
 6571TIP3    H219671   5.553   0.525   1.377
 6572TIP3   OH219672   1.283   3.127   4.257
 6572TIP3    H119673   1.190   3.141   4.239
 6572TIP3    H219674   1.296   3.033   4.243
 6573TIP3   OH219675   8.076   2.887   3.986
 6573TIP3    H119676   8.106   2.976   3.971
 6573TIP3    H219677   8.143   2.847   4.042
 6574TIP3   OH219678   7.853   4.658   5.669
 6574TIP3    H119679   7.875   4.747   5.695
 6574TIP3    H219680   7.904   4.603   5.728
 6575TIP3   OH219681   2.820   7.736   1.960
 6575TIP3    H119682   2.843   7.775   2.044
 6575TIP3    H219683   2.899   7.745   1.907
 6576TIP3   OH219684   7.178   7.287   0.066
 6576TIP3    H119685   7.256   7.267   0.118
 6576TIP3    H219686   7.136   7.203   0.053
 6577TIP3   OH219687   6.614   2.634   1.652
 6577TIP3    H119688   6.675   2.699   1.686
 6577TIP3    H219689   6.620   2.561   1.714
 6578TIP3   OH219690   0.533   0.611   1.568
 6578TIP3    H119691   0.482   0.629   1.647
 6578TIP3    H219692   0.524   0.690   1.515
 6579TIP3   OH219693   2.038   7.851   1.133
 6579TIP3    H119694   2.088   7.779   1.172
 6579TIP3    H219695   2.013   7.819   1.046
 6580TIP3   OH219696   4.046   3.977   0.759
 6580TIP3    H119697   3.975   3.960   0.697
 6580TIP3    H219698   4.120   4.004   0.704
 6581TIP3   OH219699   6.472   5.511   3.378
 6581TIP3    H119700   6.444   5.480   3.292
 6581TIP3    H219701   6.502   5.601   3.362
 6582TIP3   OH219702   8.260   4.184   4.459
 6582TIP3    H119703   8.345   4.172   4.501
 6582TIP3    H219704   8.273   4.257   4.398
 6583TIP3   OH219705   3.451   0.672   3.833
 6583TIP3    H119706   3.525   0.618   3.807
 6583TIP3    H219707   3.386   0.611   3.866
 6584TIP3   OH219708   3.085   2.878   2.295
 6584TIP3    H119709   3.054   2.967   2.310
 6584TIP3    H219710   3.162   2.870   2.352
 6585TIP3   OH219711   4.748   5.613   5.581
 6585TIP3    H119712   4.745   5.646   5.671
 6585TIP3    H219713   4.758   5.518   5.592
 6586TIP3   OH219714   0.518   5.816   1.044
 6586TIP3    H119715   0.473   5.901   1.042
 6586TIP3    H219716   0.609   5.838   1.061
 6587TIP3   OH219717   8.288   4.254   0.775
 6587TIP3    H119718   8.240   4.279   0.696
 6587TIP3    H219719   8.347   4.184   0.746
 6588TIP3   OH219720   4.137   5.577   1.685
 6588TIP3    H119721   4.063   5.520   1.663
 6588TIP3    H219722   4.166   5.612   1.601
 6589TIP3   OH219723   3.021   3.321   0.984
 6589TIP3    H119724   3.074   3.398   0.964
 6589TIP3    H219725   2.968   3.308   0.905
 6590TIP3   OH219726   0.755   6.092   0.463
 6590TIP3    H119727   0.812   6.162   0.494
 6590TIP3    H219728   0.696   6.074   0.536
 6591TIP3   OH219729   5.424   6.541   2.566
 6591TIP3    H119730   5.446   6.577   2.480
 6591TIP3    H219731   5.329   6.549   2.571
 6592TIP3   OH219732   8.150   4.523   3.522
 6592TIP3    H119733   8.245   4.528   3.533
 6592TIP3    H219734   8.137   4.458   3.453
 6593TIP3   OH219735   1.422   3.409   2.685
 6593TIP3    H119736   1.408   3.447   2.598
 6593TIP3    H219737   1.333   3.396   2.719
 6594TIP3   OH219738   3.056   6.867   1.768
 6594TIP3    H119739   2.965   6.838   1.774
 6594TIP3    H219740   3.083   6.880   1.859
 6595TIP3   OH219741   0.363   4.529   2.087
 6595TIP3    H119742   0.359   4.512   1.993
 6595TIP3    H219743   0.298   4.598   2.101
 6596TIP3   OH219744   1.951   1.450   0.307
 6596TIP3    H119745   1.960   1.544   0.318
 6596TIP3    H219746   2.033   1.423   0.266
 6597TIP3   OH219747   8.044   4.446   0.226
 6597TIP3    H119748   7.999   4.484   0.302
 6597TIP3    H219749   7.973   4.413   0.171
 6598TIP3   OH219750   7.936   3.926   5.733
 6598TIP3    H119751   8.004   3.915   5.667
 6598TIP3    H219752   7.861   3.877   5.699
 6599TIP3   OH219753   0.655   7.638   5.574
 6599TIP3    H119754   0.705   7.719   5.584
 6599TIP3    H219755   0.570   7.667   5.540
 6600TIP3   OH219756   4.837   2.269   6.445
 6600TIP3    H119757   4.750   2.242   6.476
 6600TIP3    H219758   4.898   2.230   6.507
 6601TIP3   OH219759   2.139   1.294   6.389
 6601TIP3    H119760   2.079   1.267   6.320
 6601TIP3    H219761   2.226   1.267   6.357
 6602TIP3   OH219762   4.542   5.040   5.420
 6602TIP3    H119763   4.502   5.087   5.492
 6602TIP3    H219764   4.519   4.948   5.435
 6603TIP3   OH219765   4.771   3.963   4.160
 6603TIP3    H119766   4.783   4.002   4.073
 6603TIP3    H219767   4.742   4.035   4.215
 6604TIP3   OH219768   5.782   0.238   6.043
 6604TIP3    H119769   5.778   0.208   6.134
 6604TIP3    H219770   5.695   0.274   6.026
 6605TIP3   OH219771   5.075   4.817   5.587
 6605TIP3    H119772   5.007   4.792   5.523
 6605TIP3    H219773   5.041   4.897   5.627
 6606TIP3   OH219774   0.322   5.808   1.801
 6606TIP3    H119775   0.320   5.801   1.705
 6606TIP3    H219776   0.273   5.888   1.820
 6607TIP3   OH219777   3.817   1.240   2.259
 6607TIP3    H119778   3.785   1.315   2.309
 6607TIP3    H219779   3.750   1.224   2.193
 6608TIP3   OH219780   6.506   5.245   2.775
 6608TIP3    H119781   6.557   5.240   2.694
 6608TIP3    H219782   6.537   5.325   2.818
 6609TIP3   OH219783   8.105   0.659   6.275
 6609TIP3    H119784   8.171   0.707   6.324
 6609TIP3    H219785   8.021   0.692   6.308
 6610TIP3   OH219786   0.394   5.251   0.561
 6610TIP3    H119787   0.339   5.330   0.567
 6610TIP3    H219788   0.484   5.284   0.558
 6611TIP3   OH219789   6.689   2.664   4.288
 6611TIP3    H119790   6.657   2.669   4.198
 6611TIP3    H219791   6.614   2.691   4.341
 6612TIP3   OH219792   5.493   2.361   1.010
 6612TIP3    H119793   5.558   2.311   1.060
 6612TIP3    H219794   5.410   2.340   1.052
 6613TIP3   OH219795   2.463   5.126   2.293
 6613TIP3    H119796   2.478   5.146   2.200
 6613TIP3    H219797   2.551   5.111   2.328
 6614TIP3   OH219798   6.181   4.292   6.226
 6614TIP3    H119799   6.179   4.387   6.222
 6614TIP3    H219800   6.122   4.264   6.155
 6615TIP3   OH219801   5.715   4.550   2.815
 6615TIP3    H119802   5.686   4.486   2.880
 6615TIP3    H219803   5.732   4.499   2.736
 6616TIP3   OH219804   5.615   5.291   5.523
 6616TIP3    H119805   5.700   5.267   5.487
 6616TIP3    H219806   5.572   5.338   5.451
 6617TIP3   OH219807   4.654   4.807   5.836
 6617TIP3    H119808   4.625   4.863   5.908
 6617TIP3    H219809   4.719   4.748   5.876
 6618TIP3   OH219810   0.517   6.828   5.506
 6618TIP3    H119811   0.431   6.863   5.482
 6618TIP3    H219812   0.497   6.753   5.562
 6619TIP3   OH219813   0.487   4.207   2.578
 6619TIP3    H119814   0.451   4.122   2.606
 6619TIP3    H219815   0.509   4.251   2.660
 6620TIP3   OH219816   8.110   6.755   3.984
 6620TIP3    H119817   8.164   6.707   4.047
 6620TIP3    H219818   8.173   6.801   3.928
 6621TIP3   OH219819   2.247   1.412   2.614
 6621TIP3    H119820   2.319   1.419   2.552
 6621TIP3    H219821   2.269   1.337   2.669
 6622TIP3   OH219822   2.801   4.173   0.723
 6622TIP3    H119823   2.839   4.232   0.788
 6622TIP3    H219824   2.764   4.230   0.656
 6623TIP3   OH219825   7.914   4.316   5.391
 6623TIP3    H119826   7.983   4.258   5.358
 6623TIP3    H219827   7.849   4.256   5.429
 6624TIP3   OH219828   0.360   6.250   5.561
 6624TIP3    H119829   0.403   6.335   5.567
 6624TIP3    H219830   0.416   6.200   5.500
 6625TIP3   OH219831   2.171   5.077   1.345
 6625TIP3    H119832   2.116   5.002   1.370
 6625TIP3    H219833   2.239   5.080   1.413
 6626TIP3   OH219834   1.368   6.803   4.081
 6626TIP3    H119835   1.426   6.781   4.153
 6626TIP3    H219836   1.338   6.892   4.101
 6627TIP3   OH219837   5.877   1.581   5.396
 6627TIP3    H119838   5.971   1.595   5.410
 6627TIP3    H219839   5.872   1.509   5.334
 6628TIP3   OH219840   0.633   7.595   0.600
 6628TIP3    H119841   0.647   7.508   0.638
 6628TIP3    H219842   0.689   7.653   0.651
 6629TIP3   OH219843   0.197   2.123   6.620
 6629TIP3    H119844   0.138   2.075   6.677
 6629TIP3    H219845   0.278   2.132   6.670
 6630TIP3   OH219846   7.625   3.860   4.403
 6630TIP3    H119847   7.571   3.905   4.337
 6630TIP3    H219848   7.575   3.782   4.426
 6631TIP3   OH219849   1.559   3.983   1.850
 6631TIP3    H119850   1.542   3.892   1.827
 6631TIP3    H219851   1.489   4.005   1.912
 6632TIP3   OH219852   2.271   3.429   0.172
 6632TIP3    H119853   2.349   3.462   0.217
 6632TIP3    H219854   2.243   3.501   0.116
 6633TIP3   OH219855   1.025   5.442   1.932
 6633TIP3    H119856   1.042   5.469   2.023
 6633TIP3    H219857   0.950   5.383   1.939
 6634TIP3   OH219858   2.823   5.420   0.688
 6634TIP3    H119859   2.795   5.511   0.680
 6634TIP3    H219860   2.802   5.381   0.603
 6635TIP3   OH219861   3.442   6.305   4.623
 6635TIP3    H119862   3.419   6.340   4.537
 6635TIP3    H219863   3.358   6.291   4.667
 6636TIP3   OH219864   4.089   3.988   5.915
 6636TIP3    H119865   4.039   4.037   5.980
 6636TIP3    H219866   4.172   3.966   5.959
 6637TIP3   OH219867   4.521   7.646   3.110
 6637TIP3    H119868   4.574   7.614   3.183
 6637TIP3    H219869   4.576   7.630   3.033
 6638TIP3   OH219870   3.901   0.512   2.498
 6638TIP3    H119871   3.967   0.458   2.456
 6638TIP3    H219872   3.821   0.460   2.494
 6639TIP3   OH219873   4.145   0.603   5.275
 6639TIP3    H119874   4.186   0.521   5.247
 6639TIP3    H219875   4.125   0.589   5.368
 6640TIP3   OH219876   3.444   6.395   1.614
 6640TIP3    H119877   3.405   6.309   1.630
 6640TIP3    H219878   3.370   6.451   1.589
 6641TIP3   OH219879   1.678   2.285   1.207
 6641TIP3    H119880   1.737   2.359   1.192
 6641TIP3    H219881   1.629   2.277   1.125
 6642TIP3   OH219882   4.947   6.297  -0.015
 6642TIP3    H119883   4.994   6.232  -0.067
 6642TIP3    H219884   5.002   6.311   0.062
 6643TIP3   OH219885   2.236   0.083   3.731
 6643TIP3    H119886   2.159   0.124   3.692
 6643TIP3    H219887   2.299   0.076   3.659
 6644TIP3   OH219888   3.797   0.912   1.109
 6644TIP3    H119889   3.864   0.933   1.174
 6644TIP3    H219890   3.714   0.932   1.152
 6645TIP3   OH219891   5.712   6.882   5.897
 6645TIP3    H119892   5.670   6.916   5.818
 6645TIP3    H219893   5.775   6.949   5.922
 6646TIP3   OH219894   1.535   7.083   4.345
 6646TIP3    H119895   1.439   7.091   4.341
 6646TIP3    H219896   1.552   7.033   4.425
 6647TIP3   OH219897   4.252   3.394   1.067
 6647TIP3    H119898   4.181   3.428   1.012
 6647TIP3    H219899   4.312   3.468   1.077
 6648TIP3   OH219900   7.318   6.166   0.964
 6648TIP3    H119901   7.280   6.080   0.985
 6648TIP3    H219902   7.298   6.220   1.041
 6649TIP3   OH219903   2.777   2.402   4.869
 6649TIP3    H119904   2.797   2.367   4.956
 6649TIP3    H219905   2.707   2.466   4.886
 6650TIP3   OH219906   3.951   2.978   2.107
 6650TIP3    H119907   3.956   2.916   2.181
 6650TIP3    H219908   3.974   3.062   2.145
 6651TIP3   OH219909   1.304   4.844   4.486
 6651TIP3    H119910   1.213   4.860   4.512
 6651TIP3    H219911   1.341   4.931   4.475
 6652TIP3   OH219912   3.662   5.701   6.324
 6652TIP3    H119913   3.708   5.619   6.305
 6652TIP3    H219914   3.605   5.679   6.398
 6653TIP3   OH219915   0.523   0.774   2.467
 6653TIP3    H119916   0.553   0.757   2.378
 6653TIP3    H219917   0.474   0.696   2.491
 6654TIP3   OH219918   2.108   4.382   4.718
 6654TIP3    H119919   2.021   4.351   4.741
 6654TIP3    H219920   2.163   4.303   4.721
 6655TIP3   OH219921   5.035   4.218   6.534
 6655TIP3    H119922   4.990   4.147   6.580
 6655TIP3    H219923   5.127   4.206   6.557
 6656TIP3   OH219924   2.328   6.373   4.218
 6656TIP3    H119925   2.359   6.298   4.269
 6656TIP3    H219926   2.247   6.342   4.177
 6657TIP3   OH219927   2.757   4.536   3.777
 6657TIP3    H119928   2.708   4.616   3.758
 6657TIP3    H219929   2.784   4.546   3.868
 6658TIP3   OH219930   0.841   1.662   3.353
 6658TIP3    H119931   0.860   1.684   3.444
 6658TIP3    H219932   0.773   1.595   3.358
 6659TIP3   OH219933   4.847   1.303   1.618
 6659TIP3    H119934   4.856   1.397   1.602
 6659TIP3    H219935   4.902   1.286   1.694
 6660TIP3   OH219936   2.145   7.682   6.415
 6660TIP3    H119937   2.157   7.762   6.365
 6660TIP3    H219938   2.073   7.636   6.372
 6661TIP3   OH219939   7.641   2.291   1.104
 6661TIP3    H119940   7.735   2.272   1.105
 6661TIP3    H219941   7.618   2.297   1.012
 6662TIP3   OH219942   7.781   6.219   3.763
 6662TIP3    H119943   7.731   6.258   3.836
 6662TIP3    H219944   7.826   6.293   3.724
 6663TIP3   OH219945   2.140   2.984   0.341
 6663TIP3    H119946   2.197   2.913   0.373
 6663TIP3    H219947   2.052   2.946   0.341
 6664TIP3   OH219948   7.553   6.502   5.167
 6664TIP3    H119949   7.508   6.418   5.154
 6664TIP3    H219950   7.483   6.564   5.189
 6665TIP3   OH219951   0.044   4.586   6.434
 6665TIP3    H119952  -0.005   4.600   6.353
 6665TIP3    H219953   0.125   4.635   6.423
 6666TIP3   OH219954   7.173   4.609   2.075
 6666TIP3    H119955   7.235   4.563   2.019
 6666TIP3    H219956   7.092   4.557   2.070
 6667TIP3   OH219957   5.850   0.550   3.574
 6667TIP3    H119958   5.907   0.518   3.504
 6667TIP3    H219959   5.801   0.622   3.534
 6668TIP3   OH219960   6.475   5.340   5.905
 6668TIP3    H119961   6.522   5.301   5.831
 6668TIP3    H219962   6.388   5.300   5.901
 6669TIP3   OH219963   6.602   2.212   6.133
 6669TIP3    H119964   6.526   2.265   6.108
 6669TIP3    H219965   6.656   2.271   6.185
 6670TIP3   OH219966   1.284   7.701   5.029
 6670TIP3    H119967   1.273   7.777   4.971
 6670TIP3    H219968   1.195   7.679   5.057
 6671TIP3   OH219969   6.101   3.344   3.362
 6671TIP3    H119970   6.122   3.264   3.411
 6671TIP3    H219971   6.089   3.411   3.430
 6672TIP3   OH219972   7.437   4.168   3.559
 6672TIP3    H119973   7.510   4.187   3.618
 6672TIP3    H219974   7.439   4.238   3.494
 6673TIP3   OH219975   2.030   4.496   6.750
 6673TIP3    H119976   2.017   4.442   6.672
 6673TIP3    H219977   2.040   4.432   6.821
 6674TIP3   OH219978   6.376   2.432   3.567
 6674TIP3    H119979   6.418   2.446   3.651
 6674TIP3    H219980   6.440   2.384   3.515
 6675TIP3   OH219981   7.164   3.394   2.325
 6675TIP3    H119982   7.203   3.310   2.301
 6675TIP3    H219983   7.237   3.448   2.355
 6676TIP3   OH219984   6.704   1.485   3.938
 6676TIP3    H119985   6.785   1.524   3.905
 6676TIP3    H219986   6.634   1.538   3.898
 6677TIP3   OH219987   1.576   5.979   4.483
 6677TIP3    H119988   1.624   5.900   4.510
 6677TIP3    H219989   1.484   5.952   4.486
 6678TIP3   OH219990   6.617   5.225   2.502
 6678TIP3    H119991   6.660   5.235   2.418
 6678TIP3    H219992   6.572   5.140   2.496
 6679TIP3   OH219993   4.015   2.008   2.412
 6679TIP3    H119994   3.985   1.986   2.324
 6679TIP3    H219995   3.979   1.939   2.468
 6680TIP3   OH219996   6.857   4.892   3.376
 6680TIP3    H119997   6.883   4.977   3.341
 6680TIP3    H219998   6.862   4.901   3.471
 6681TIP3   OH219999   8.059   1.881   0.117
 6681TIP3    H120000   8.137   1.893   0.062
 6681TIP3    H220001   8.004   1.819   0.068
 6682TIP3   OH220002   2.420   7.101   4.583
 6682TIP3    H120003   2.461   7.016   4.593
 6682TIP3    H220004   2.399   7.129   4.672
 6683TIP3   OH220005   2.574   6.947   3.251
 6683TIP3    H120006   2.513   6.975   3.182
 6683TIP3    H220007   2.565   6.852   3.253
 6684TIP3   OH220008   0.927   2.136   3.372
 6684TIP3    H120009   0.900   2.220   3.335
 6684TIP3    H220010   0.880   2.071   3.320
 6685TIP3   OH220011   1.475   5.875   1.957
 6685TIP3    H120012   1.384   5.851   1.973
 6685TIP3    H220013   1.517   5.869   2.043
 6686TIP3   OH220014   5.058   3.279   2.895
 6686TIP3    H120015   5.122   3.269   2.824
 6686TIP3    H220016   5.046   3.191   2.929
 6687TIP3   OH220017   0.645   4.997   2.803
 6687TIP3    H120018   0.693   4.933   2.751
 6687TIP3    H220019   0.652   5.078   2.753
 6688TIP3   OH220020   0.307   2.665   2.892
 6688TIP3    H120021   0.317   2.760   2.904
 6688TIP3    H220022   0.266   2.635   2.973
 6689TIP3   OH220023   7.440   5.988   2.911
 6689TIP3    H120024   7.512   5.948   2.861
 6689TIP3    H220025   7.463   5.971   3.003
 6690TIP3   OH220026   5.731   0.415   0.957
 6690TIP3    H120027   5.805   0.455   0.911
 6690TIP3    H220028   5.751   0.322   0.957
 6691TIP3   OH220029   3.526   7.515   2.897
 6691TIP3    H120030   3.548   7.600   2.936
 6691TIP3    H220031   3.574   7.514   2.814
 6692TIP3   OH220032   7.483   3.682   1.764
 6692TIP3    H120033   7.538   3.706   1.838
 6692TIP3    H220034   7.516   3.734   1.690
 6693TIP3   OH220035   8.290   0.743   4.630
 6693TIP3    H120036   8.280   0.833   4.597
 6693TIP3    H220037   8.306   0.691   4.551
 6694TIP3   OH220038   6.128   7.773   6.081
 6694TIP3    H120039   6.081   7.701   6.038
 6694TIP3    H220040   6.145   7.836   6.011
 6695TIP3   OH220041   1.595   4.421   3.342
 6695TIP3    H120042   1.595   4.503   3.390
 6695TIP3    H220043   1.669   4.372   3.378
 6696TIP3   OH220044   7.640   0.185   2.775
 6696TIP3    H120045   7.666   0.277   2.776
 6696TIP3    H220046   7.669   0.151   2.860
 6697TIP3   OH220047   3.907   1.703   0.516
 6697TIP3    H120048   3.818   1.690   0.485
 6697TIP3    H220049   3.943   1.769   0.456
 6698TIP3   OH220050   5.465   2.911   5.006
 6698TIP3    H120051   5.409   2.836   5.020
 6698TIP3    H220052   5.539   2.898   5.066
 6699TIP3   OH220053   5.916   2.851   6.297
 6699TIP3    H120054   5.854   2.814   6.360
 6699TIP3    H220055   5.944   2.775   6.245
 6700TIP3   OH220056   5.397   5.128   5.573
 6700TIP3    H120057   5.465   5.193   5.558
 6700TIP3    H220058   5.326   5.153   5.513
 6701TIP3   OH220059   6.587   6.977   6.611
 6701TIP3    H120060   6.598   7.019   6.697
 6701TIP3    H220061   6.519   7.029   6.568
 6702TIP3   OH220062   7.847   2.943   4.413
 6702TIP3    H120063   7.764   2.977   4.446
 6702TIP3    H220064   7.855   2.978   4.324
 6703TIP3   OH220065   7.991   1.891   3.323
 6703TIP3    H120066   8.053   1.962   3.306
 6703TIP3    H220067   7.958   1.865   3.237
 6704TIP3   OH220068   0.767   4.814   4.335
 6704TIP3    H120069   0.770   4.732   4.285
 6704TIP3    H220070   0.677   4.818   4.368
 6705TIP3   OH220071   3.208   3.193   1.478
 6705TIP3    H120072   3.177   3.216   1.390
 6705TIP3    H220073   3.290   3.145   1.463
 6706TIP3   OH220074   2.496   5.179   3.271
 6706TIP3    H120075   2.542   5.103   3.235
 6706TIP3    H220076   2.409   5.176   3.231
 6707TIP3   OH220077   1.576   1.120   1.467
 6707TIP3    H120078   1.496   1.091   1.424
 6707TIP3    H220079   1.547   1.179   1.536
 6708TIP3   OH220080   0.853   3.490   5.718
 6708TIP3    H120081   0.821   3.578   5.737
 6708TIP3    H220082   0.806   3.464   5.639
 6709TIP3   OH220083   6.596   4.359   1.964
 6709TIP3    H120084   6.582   4.393   2.053
 6709TIP3    H220085   6.521   4.302   1.948
 6710TIP3   OH220086   1.007   1.280   5.439
 6710TIP3    H120087   0.946   1.319   5.503
 6710TIP3    H220088   1.093   1.296   5.477
 6711TIP3   OH220089   3.408   3.995   6.065
 6711TIP3    H120090   3.425   3.978   6.158
 6711TIP3    H220091   3.495   4.004   6.026
 6712TIP3   OH220092   2.100   3.721   4.949
 6712TIP3    H120093   2.011   3.737   4.919
 6712TIP3    H220094   2.118   3.631   4.922
 6713TIP3   OH220095   3.273   0.563   4.232
 6713TIP3    H120096   3.193   0.520   4.263
 6713TIP3    H220097   3.296   0.624   4.302
 6714TIP3   OH220098   2.543   4.362   2.700
 6714TIP3    H120099   2.554   4.413   2.780
 6714TIP3    H220100   2.450   4.369   2.679
 6715TIP3   OH220101   3.281   5.072   3.110
 6715TIP3    H120102   3.202   5.126   3.113
 6715TIP3    H220103   3.286   5.033   3.198
 6716TIP3   OH220104   6.975   1.019   5.055
 6716TIP3    H120105   6.913   0.949   5.038
 6716TIP3    H220106   7.047   1.003   4.994
 6717TIP3   OH220107   0.826   6.255   3.952
 6717TIP3    H120108   0.769   6.310   4.006
 6717TIP3    H220109   0.897   6.314   3.925
 6718TIP3   OH220110   0.384   3.333   0.135
 6718TIP3    H120111   0.367   3.425   0.153
 6718TIP3    H220112   0.396   3.329   0.040
 6719TIP3   OH220113   3.604   0.075   2.829
 6719TIP3    H120114   3.579   0.006   2.890
 6719TIP3    H220115   3.561   0.050   2.747
 6720TIP3   OH220116   5.030   1.508   4.428
 6720TIP3    H120117   5.083   1.580   4.461
 6720TIP3    H220118   4.966   1.491   4.497
 6721TIP3   OH220119   7.903   0.227   1.249
 6721TIP3    H120120   7.939   0.165   1.313
 6721TIP3    H220121   7.911   0.312   1.292
 6722TIP3   OH220122   0.289   0.381   1.213
 6722TIP3    H120123   0.340   0.438   1.155
 6722TIP3    H220124   0.263   0.307   1.157
 6723TIP3   OH220125   2.802   7.218   2.287
 6723TIP3    H120126   2.788   7.124   2.277
 6723TIP3    H220127   2.885   7.234   2.243
 6724TIP3   OH220128   8.175   7.046   4.106
 6724TIP3    H120129   8.137   6.983   4.168
 6724TIP3    H220130   8.262   7.012   4.088
 6725TIP3   OH220131   0.483   6.254   1.676
 6725TIP3    H120132   0.481   6.224   1.767
 6725TIP3    H220133   0.395   6.285   1.659
 6726TIP3   OH220134   1.284   4.694   3.210
 6726TIP3    H120135   1.270   4.606   3.174
 6726TIP3    H220136   1.264   4.753   3.138
 6727TIP3   OH220137   1.677   6.462   3.274
 6727TIP3    H120138   1.689   6.539   3.219
 6727TIP3    H220139   1.631   6.399   3.217
 6728TIP3   OH220140   5.854   4.820   3.512
 6728TIP3    H120141   5.906   4.826   3.432
 6728TIP3    H220142   5.918   4.823   3.583
 6729TIP3   OH220143   1.681   0.329   3.023
 6729TIP3    H120144   1.593   0.330   3.061
 6729TIP3    H220145   1.739   0.346   3.096
 6730TIP3   OH220146   7.294   6.594   6.082
 6730TIP3    H120147   7.357   6.577   6.012
 6730TIP3    H220148   7.224   6.532   6.067
 6731TIP3   OH220149   6.821   5.890   0.530
 6731TIP3    H120150   6.827   5.935   0.614
 6731TIP3    H220151   6.777   5.807   0.550
 6732TIP3   OH220152   4.145   5.268   4.323
 6732TIP3    H120153   4.156   5.204   4.253
 6732TIP3    H220154   4.234   5.297   4.343
 6733TIP3   OH220155   6.880   3.713   0.628
 6733TIP3    H120156   6.901   3.642   0.567
 6733TIP3    H220157   6.963   3.732   0.672
 6734TIP3   OH220158   7.671   1.230   6.595
 6734TIP3    H120159   7.635   1.314   6.623
 6734TIP3    H220160   7.764   1.235   6.618
 6735TIP3   OH220161   7.985   5.810   2.952
 6735TIP3    H120162   7.966   5.855   2.870
 6735TIP3    H220163   7.904   5.765   2.975
 6736TIP3   OH220164   3.333   3.439   0.411
 6736TIP3    H120165   3.246   3.414   0.443
 6736TIP3    H220166   3.347   3.527   0.445
 6737TIP3   OH220167   7.112   4.867   4.207
 6737TIP3    H120168   7.046   4.936   4.205
 6737TIP3    H220169   7.062   4.786   4.219
 6738TIP3   OH220170   1.000   3.177   0.261
 6738TIP3    H120171   1.031   3.227   0.185
 6738TIP3    H220172   1.038   3.090   0.250
 6739TIP3   OH220173   2.672   3.480   4.268
 6739TIP3    H120174   2.608   3.526   4.213
 6739TIP3    H220175   2.695   3.544   4.335
 6740TIP3   OH220176   1.178   4.144   4.160
 6740TIP3    H120177   1.211   4.056   4.145
 6740TIP3    H220178   1.217   4.171   4.243
 6741TIP3   OH220179   4.162   6.471   5.972
 6741TIP3    H120180   4.107   6.395   5.993
 6741TIP3    H220181   4.104   6.546   5.985
 6742TIP3   OH220182   3.424   3.481   2.210
 6742TIP3    H120183   3.487   3.550   2.188
 6742TIP3    H220184   3.456   3.446   2.293
 6743TIP3   OH220185   1.079   3.879   4.664
 6743TIP3    H120186   1.129   3.901   4.742
 6743TIP3    H220187   1.053   3.963   4.627
 6744TIP3   OH220188   6.688   3.748   3.537
 6744TIP3    H120189   6.743   3.774   3.463
 6744TIP3    H220190   6.736   3.780   3.614
 6745TIP3   OH220191   2.782   1.601   1.909
 6745TIP3    H120192   2.845   1.533   1.885
 6745TIP3    H220193   2.808   1.628   1.997
 6746TIP3   OH220194   0.756   3.352   3.332
 6746TIP3    H120195   0.733   3.428   3.386
 6746TIP3    H220196   0.680   3.294   3.339
 6747TIP3   OH220197   4.676   6.727   3.288
 6747TIP3    H120198   4.763   6.689   3.273
 6747TIP3    H220199   4.658   6.778   3.210
 6748TIP3   OH220200   2.007   4.707   0.641
 6748TIP3    H120201   1.979   4.733   0.553
 6748TIP3    H220202   1.934   4.657   0.676
 6749TIP3   OH220203   0.781   3.155   6.590
 6749TIP3    H120204   0.692   3.140   6.623
 6749TIP3    H220205   0.772   3.229   6.530
 6750TIP3   OH220206   4.296   0.847   5.218
 6750TIP3    H120207   4.238   0.772   5.227
 6750TIP3    H220208   4.240   0.923   5.236
 6751TIP3   OH220209   0.223   4.897   4.935
 6751TIP3    H120210   0.233   4.991   4.949
 6751TIP3    H220211   0.160   4.869   5.001
 6752TIP3   OH220212   1.575   1.190   0.283
 6752TIP3    H120213   1.521   1.164   0.208
 6752TIP3    H220214   1.520   1.171   0.359
 6753TIP3   OH220215   0.139   4.893   1.194
 6753TIP3    H120216   0.090   4.975   1.201
 6753TIP3    H220217   0.202   4.909   1.124
 6754TIP3   OH220218   4.257   4.788   5.231
 6754TIP3    H120219   4.323   4.799   5.299
 6754TIP3    H220220   4.234   4.877   5.205
 6755TIP3   OH220221   4.339   6.070   3.055
 6755TIP3    H120222   4.270   6.127   3.020
 6755TIP3    H220223   4.412   6.129   3.073
 6756TIP3   OH220224   2.249   2.575   4.318
 6756TIP3    H120225   2.264   2.570   4.223
 6756TIP3    H220226   2.289   2.659   4.344
 6757TIP3   OH220227   7.430   4.797   3.477
 6757TIP3    H120228   7.430   4.711   3.520
 6757TIP3    H220229   7.434   4.777   3.384
 6758TIP3   OH220230   4.533   2.732   0.050
 6758TIP3    H120231   4.439   2.719   0.041
 6758TIP3    H220232   4.563   2.655   0.098
 6759TIP3   OH220233   2.155   7.654   4.009
 6759TIP3    H120234   2.077   7.600   3.997
 6759TIP3    H220235   2.179   7.642   4.101
 6760TIP3   OH220236   4.844   4.526   5.031
 6760TIP3    H120237   4.793   4.483   4.962
 6760TIP3    H220238   4.816   4.483   5.112
 6761TIP3   OH220239   2.210   3.133   3.234
 6761TIP3    H120240   2.141   3.070   3.216
 6761TIP3    H220241   2.215   3.138   3.330
 6762TIP3   OH220242   1.154   2.743   3.285
 6762TIP3    H120243   1.179   2.651   3.280
 6762TIP3    H220244   1.229   2.790   3.252
 6763TIP3   OH220245   1.229   3.901   2.970
 6763TIP3    H120246   1.162   3.881   3.036
 6763TIP3    H220247   1.282   3.971   3.010
 6764TIP3   OH220248   2.444   2.965   3.463
 6764TIP3    H120249   2.445   2.877   3.425
 6764TIP3    H220250   2.377   2.961   3.531
 6765TIP3   OH220251   1.593   6.895   4.563
 6765TIP3    H120252   1.676   6.876   4.520
 6765TIP3    H220253   1.573   6.816   4.613
 6766TIP3   OH220254   6.559   1.533   5.980
 6766TIP3    H120255   6.474   1.568   5.951
 6766TIP3    H220256   6.620   1.605   5.965
 6767TIP3   OH220257   0.184   1.370   4.737
 6767TIP3    H120258   0.228   1.343   4.818
 6767TIP3    H220259   0.184   1.466   4.740
 6768TIP3   OH220260   4.682   0.785   4.593
 6768TIP3    H120261   4.735   0.837   4.533
 6768TIP3    H220262   4.735   0.707   4.610
 6769TIP3   OH220263   0.357   6.334   0.884
 6769TIP3    H120264   0.329   6.339   0.975
 6769TIP3    H220265   0.390   6.422   0.863
 6770TIP3   OH220266   1.746   4.197   4.314
 6770TIP3    H120267   1.707   4.213   4.400
 6770TIP3    H220268   1.806   4.271   4.300
 6771TIP3   OH220269   6.068   4.118   5.236
 6771TIP3    H120270   6.110   4.199   5.205
 6771TIP3    H220271   6.104   4.050   5.179
 6772TIP3   OH220272   3.656   6.868   2.136
 6772TIP3    H120273   3.631   6.778   2.157
 6772TIP3    H220274   3.639   6.917   2.216
 6773TIP3   OH220275   3.458   4.025   3.552
 6773TIP3    H120276   3.477   4.098   3.611
 6773TIP3    H220277   3.413   4.066   3.478
 6774TIP3   OH220278   2.520   0.556   4.460
 6774TIP3    H120279   2.529   0.581   4.368
 6774TIP3    H220280   2.437   0.509   4.465
 6775TIP3   OH220281   4.311   2.393   4.031
 6775TIP3    H120282   4.343   2.401   3.941
 6775TIP3    H220283   4.355   2.463   4.079
 6776TIP3   OH220284   6.176   0.335   1.149
 6776TIP3    H120285   6.246   0.370   1.204
 6776TIP3    H220286   6.103   0.323   1.209
 6777TIP3   OH220287   3.078   5.513   3.809
 6777TIP3    H120288   3.066   5.467   3.892
 6777TIP3    H220289   3.033   5.596   3.822
 6778TIP3   OH220290   4.458   3.497   2.926
 6778TIP3    H120291   4.523   3.476   2.994
 6778TIP3    H220292   4.477   3.588   2.903
 6779TIP3   OH220293   3.386   3.105   1.027
 6779TIP3    H120294   3.344   3.089   0.943
 6779TIP3    H220295   3.456   3.040   1.032
 6780TIP3   OH220296   2.572   7.231   2.952
 6780TIP3    H120297   2.656   7.275   2.939
 6780TIP3    H220298   2.528   7.238   2.867
 6781TIP3   OH220299   1.434   7.194   3.294
 6781TIP3    H120300   1.376   7.194   3.218
 6781TIP3    H220301   1.427   7.106   3.330
 6782TIP3   OH220302   6.980   0.687   5.715
 6782TIP3    H120303   6.948   0.738   5.641
 6782TIP3    H220304   7.063   0.650   5.684
 6783TIP3   OH220305   0.375   5.318   5.907
 6783TIP3    H120306   0.316   5.389   5.882
 6783TIP3    H220307   0.319   5.242   5.917
 6784TIP3   OH220308   4.671   4.143   1.489
 6784TIP3    H120309   4.609   4.100   1.548
 6784TIP3    H220310   4.624   4.153   1.407
 6785TIP3   OH220311   2.252   4.951   0.071
 6785TIP3    H120312   2.301   5.026   0.105
 6785TIP3    H220313   2.161   4.970   0.092
 6786TIP3   OH220314   2.035   6.381   1.872
 6786TIP3    H120315   2.051   6.288   1.888
 6786TIP3    H220316   2.048   6.423   1.956
 6787TIP3   OH220317   0.850   2.043   0.856
 6787TIP3    H120318   0.878   1.983   0.925
 6787TIP3    H220319   0.875   2.129   0.887
 6788TIP3   OH220320   0.168   1.774   0.323
 6788TIP3    H120321   0.073   1.782   0.327
 6788TIP3    H220322   0.184   1.681   0.340
 6789TIP3   OH220323   7.224   6.256   4.256
 6789TIP3    H120324   7.145   6.307   4.238
 6789TIP3    H220325   7.283   6.319   4.297
 6790TIP3   OH220326   8.001   5.086   5.275
 6790TIP3    H120327   7.941   5.108   5.347
 6790TIP3    H220328   8.068   5.154   5.279
 6791TIP3   OH220329   7.426   3.960   3.353
 6791TIP3    H120330   7.330   3.959   3.346
 6791TIP3    H220331   7.442   3.992   3.442
 6792TIP3   OH220332   1.286   1.498   1.027
 6792TIP3    H120333   1.230   1.422   1.037
 6792TIP3    H220334   1.226   1.573   1.030
 6793TIP3   OH220335   2.866   2.215   6.708
 6793TIP3    H120336   2.787   2.196   6.658
 6793TIP3    H220337   2.934   2.227   6.642
 6794TIP3   OH220338   6.584   5.454   6.249
 6794TIP3    H120339   6.622   5.482   6.165
 6794TIP3    H220340   6.491   5.440   6.229
 6795TIP3   OH220341   7.986   3.270   0.017
 6795TIP3    H120342   8.042   3.315   0.080
 6795TIP3    H220343   7.964   3.337  -0.048
 6796TIP3   OH220344   2.099   4.174   2.754
 6796TIP3    H120345   2.139   4.130   2.829
 6796TIP3    H220346   2.148   4.141   2.678
 6797TIP3   OH220347   2.287   0.504   5.401
 6797TIP3    H120348   2.352   0.546   5.457
 6797TIP3    H220349   2.217   0.478   5.460
 6798TIP3   OH220350   6.766   0.921   3.568
 6798TIP3    H120351   6.797   0.835   3.541
 6798TIP3    H220352   6.680   0.930   3.528
 6799TIP3   OH220353   8.010   6.971   0.610
 6799TIP3    H120354   7.945   6.913   0.651
 6799TIP3    H220355   7.969   7.057   0.612
 6800TIP3   OH220356   6.907   7.712   0.958
 6800TIP3    H120357   6.966   7.776   0.919
 6800TIP3    H220358   6.895   7.646   0.890
 6801TIP3   OH220359   1.223   1.065   4.642
 6801TIP3    H120360   1.219   1.005   4.568
 6801TIP3    H220361   1.141   1.113   4.639
 6802TIP3   OH220362   1.852   4.028   4.110
 6802TIP3    H120363   1.837   4.076   4.191
 6802TIP3    H220364   1.908   4.086   4.058
 6803TIP3   OH220365   7.542   3.601   4.449
 6803TIP3    H120366   7.482   3.566   4.382
 6803TIP3    H220367   7.503   3.575   4.532
 6804TIP3   OH220368   2.803   7.832   5.463
 6804TIP3    H120369   2.737   7.772   5.497
 6804TIP3    H220370   2.754   7.903   5.422
 6805TIP3   OH220371   1.646   7.749   2.013
 6805TIP3    H120372   1.691   7.668   2.036
 6805TIP3    H220373   1.609   7.780   2.096
 6806TIP3   OH220374   8.108   3.428   4.119
 6806TIP3    H120375   8.180   3.491   4.115
 6806TIP3    H220376   8.146   3.352   4.163
 6807TIP3   OH220377   1.710   6.473   2.255
 6807TIP3    H120378   1.792   6.494   2.211
 6807TIP3    H220379   1.651   6.545   2.232
 6808TIP3   OH220380   1.988   7.002   6.012
 6808TIP3    H120381   1.996   6.998   5.917
 6808TIP3    H220382   2.043   7.077   6.037
 6809TIP3   OH220383   5.065   0.700   1.789
 6809TIP3    H120384   5.124   0.659   1.726
 6809TIP3    H220385   5.004   0.631   1.813
 6810TIP3   OH220386   0.086   5.151   2.041
 6810TIP3    H120387   0.111   5.218   2.104
 6810TIP3    H220388  -0.007   5.167   2.025
 6811TIP3   OH220389   6.822   2.401   5.638
 6811TIP3    H120390   6.838   2.447   5.555
 6811TIP3    H220391   6.738   2.436   5.668
 6812TIP3   OH220392   0.081   6.524   2.064
 6812TIP3    H120393   0.141   6.581   2.112
 6812TIP3    H220394   0.093   6.548   1.972
 6813TIP3   OH220395   6.317   1.857   0.517
 6813TIP3    H120396   6.364   1.878   0.598
 6813TIP3    H220397   6.382   1.811   0.463
 6814TIP3   OH220398   4.235   2.773   5.381
 6814TIP3    H120399   4.283   2.854   5.367
 6814TIP3    H220400   4.274   2.734   5.459
 6815TIP3   OH220401   6.392   6.768   3.750
 6815TIP3    H120402   6.480   6.774   3.712
 6815TIP3    H220403   6.363   6.859   3.756
 6816TIP3   OH220404   6.777   6.914   0.281
 6816TIP3    H120405   6.793   6.820   0.296
 6816TIP3    H220406   6.748   6.947   0.366
 6817TIP3   OH220407   0.094   2.228   0.835
 6817TIP3    H120408   0.165   2.195   0.890
 6817TIP3    H220409   0.014   2.201   0.880
 6818TIP3   OH220410   6.097   3.455   0.818
 6818TIP3    H120411   6.095   3.383   0.881
 6818TIP3    H220412   6.189   3.478   0.812
 6819TIP3   OH220413   1.159   5.814   1.617
 6819TIP3    H120414   1.107   5.890   1.592
 6819TIP3    H220415   1.158   5.815   1.713
 6820TIP3   OH220416   2.637   6.727   0.033
 6820TIP3    H120417   2.647   6.784  -0.043
 6820TIP3    H220418   2.617   6.785   0.106
 6821TIP3   OH220419   1.430   2.700   2.404
 6821TIP3    H120420   1.426   2.747   2.321
 6821TIP3    H220421   1.376   2.622   2.391
 6822TIP3   OH220422   7.726   1.951   1.376
 6822TIP3    H120423   7.743   1.969   1.469
 6822TIP3    H220424   7.681   1.867   1.376
 6823TIP3   OH220425   2.206   7.763   5.852
 6823TIP3    H120426   2.111   7.775   5.857
 6823TIP3    H220427   2.219   7.693   5.788
 6824TIP3   OH220428   8.125   0.155   3.918
 6824TIP3    H120429   8.151   0.191   4.003
 6824TIP3    H220430   8.205   0.118   3.882
 6825TIP3   OH220431   4.839   7.323   5.073
 6825TIP3    H120432   4.852   7.262   5.000
 6825TIP3    H220433   4.919   7.317   5.124
 6826TIP3   OH220434   3.528   2.858   4.443
 6826TIP3    H120435   3.524   2.931   4.505
 6826TIP3    H220436   3.441   2.819   4.445
 6827TIP3   OH220437   6.579   2.631   3.374
 6827TIP3    H120438   6.642   2.695   3.407
 6827TIP3    H220439   6.505   2.683   3.344
 6828TIP3   OH220440   7.016   7.318   1.576
 6828TIP3    H120441   7.045   7.406   1.601
 6828TIP3    H220442   7.003   7.273   1.660
 6829TIP3   OH220443   5.026   1.585   3.407
 6829TIP3    H120444   5.018   1.580   3.502
 6829TIP3    H220445   5.098   1.525   3.385
 6830TIP3   OH220446   5.148   5.642   0.228
 6830TIP3    H120447   5.086   5.695   0.279
 6830TIP3    H220448   5.211   5.706   0.194
 6831TIP3   OH220449   4.289   3.345   1.374
 6831TIP3    H120450   4.230   3.375   1.304
 6831TIP3    H220451   4.374   3.339   1.332
 6832TIP3   OH220452   6.252   5.957   3.337
 6832TIP3    H120453   6.244   5.986   3.247
 6832TIP3    H220454   6.168   5.916   3.357
 6833TIP3   OH220455   2.896   2.566   0.133
 6833TIP3    H120456   2.850   2.650   0.137
 6833TIP3    H220457   2.876   2.532   0.046
 6834TIP3   OH220458   7.643   5.797   5.756
 6834TIP3    H120459   7.722   5.834   5.794
 6834TIP3    H220460   7.573   5.820   5.818
 6835TIP3   OH220461   1.573   2.410   5.340
 6835TIP3    H120462   1.527   2.476   5.392
 6835TIP3    H220463   1.574   2.332   5.396
 6836TIP3   OH220464   5.093   6.186   0.985
 6836TIP3    H120465   5.106   6.278   1.008
 6836TIP3    H220466   5.178   6.145   1.004
 6837TIP3   OH220467   5.556   2.439   2.009
 6837TIP3    H120468   5.461   2.442   2.003
 6837TIP3    H220469   5.582   2.530   2.027
 6838TIP3   OH220470   1.300   5.933   4.510
 6838TIP3    H120471   1.244   6.007   4.491
 6838TIP3    H220472   1.266   5.862   4.455
 6839TIP3   OH220473   6.919   1.616   3.802
 6839TIP3    H120474   6.891   1.556   3.733
 6839TIP3    H220475   6.954   1.692   3.755
 6840TIP3   OH220476   1.492   2.509   1.620
 6840TIP3    H120477   1.446   2.590   1.596
 6840TIP3    H220478   1.459   2.444   1.558
 6841TIP3   OH220479   8.122   4.622   0.600
 6841TIP3    H120480   8.069   4.597   0.676
 6841TIP3    H220481   8.095   4.712   0.580
 6842TIP3   OH220482   2.697   5.401   2.341
 6842TIP3    H120483   2.685   5.439   2.255
 6842TIP3    H220484   2.613   5.414   2.385
 6843TIP3   OH220485   0.700   2.078   0.133
 6843TIP3    H120486   0.657   2.122   0.060
 6843TIP3    H220487   0.631   2.066   0.198
 6844TIP3   OH220488   0.209   5.891   4.658
 6844TIP3    H120489   0.164   5.883   4.574
 6844TIP3    H220490   0.190   5.980   4.687
 6845TIP3   OH220491   0.748   6.715   0.976
 6845TIP3    H120492   0.747   6.621   0.958
 6845TIP3    H220493   0.841   6.738   0.971
 6846TIP3   OH220494   1.039   5.488   1.661
 6846TIP3    H120495   1.006   5.398   1.662
 6846TIP3    H220496   1.044   5.513   1.753
 6847TIP3   OH220497   7.018   2.585   0.938
 6847TIP3    H120498   7.019   2.492   0.959
 6847TIP3    H220499   6.927   2.611   0.949
 6848TIP3   OH220500   3.316   7.731   3.281
 6848TIP3    H120501   3.297   7.638   3.293
 6848TIP3    H220502   3.247   7.776   3.330
 6849TIP3   OH220503   8.287   2.352   3.481
 6849TIP3    H120504   8.372   2.323   3.514
 6849TIP3    H220505   8.248   2.273   3.443
 6850TIP3   OH220506   0.178   1.282   2.673
 6850TIP3    H120507   0.177   1.352   2.738
 6850TIP3    H220508   0.148   1.324   2.592
 6851TIP3   OH220509   4.464   3.013   6.364
 6851TIP3    H120510   4.559   3.011   6.350
 6851TIP3    H220511   4.428   2.968   6.288
 6852TIP3   OH220512   0.225   5.014   0.515
 6852TIP3    H120513   0.184   5.073   0.451
 6852TIP3    H220514   0.306   5.058   0.539
 6853TIP3   OH220515   3.034   3.583   5.375
 6853TIP3    H120516   3.005   3.497   5.343
 6853TIP3    H220517   3.044   3.572   5.469
 6854TIP3   OH220518   7.336   0.945   2.058
 6854TIP3    H120519   7.244   0.965   2.076
 6854TIP3    H220520   7.379   1.030   2.059
 6855TIP3   OH220521   3.790   1.121   4.079
 6855TIP3    H120522   3.740   1.079   4.008
 6855TIP3    H220523   3.841   1.190   4.035
 6856TIP3   OH220524   6.575   1.622   1.600
 6856TIP3    H120525   6.668   1.600   1.598
 6856TIP3    H220526   6.536   1.569   1.530
 6857TIP3   OH220527   0.412   1.004   4.727
 6857TIP3    H120528   0.328   1.015   4.684
 6857TIP3    H220529   0.390   0.989   4.819
 6858TIP3   OH220530   0.098   2.863   1.317
 6858TIP3    H120531   0.160   2.917   1.365
 6858TIP3    H220532   0.022   2.857   1.375
 6859TIP3   OH220533   6.464   4.273   6.497
 6859TIP3    H120534   6.512   4.355   6.508
 6859TIP3    H220535   6.463   4.257   6.403
 6860TIP3   OH220536   6.578   4.522   6.480
 6860TIP3    H120537   6.626   4.569   6.411
 6860TIP3    H220538   6.560   4.589   6.546
 6861TIP3   OH220539   3.550   0.148   3.292
 6861TIP3    H120540   3.462   0.132   3.326
 6861TIP3    H220541   3.608   0.099   3.351
 6862TIP3   OH220542   3.698   6.256   2.437
 6862TIP3    H120543   3.766   6.228   2.499
 6862TIP3    H220544   3.640   6.311   2.490
 6863TIP3   OH220545   7.380   4.556   2.248
 6863TIP3    H120546   7.421   4.476   2.214
 6863TIP3    H220547   7.318   4.582   2.179
 6864TIP3   OH220548   1.919   7.711   0.918
 6864TIP3    H120549   1.862   7.634   0.926
 6864TIP3    H220550   1.904   7.744   0.830
 6865TIP3   OH220551   3.591   4.757   6.107
 6865TIP3    H120552   3.576   4.783   6.016
 6865TIP3    H220553   3.567   4.833   6.158
 6866TIP3   OH220554   0.680   6.223   0.989
 6866TIP3    H120555   0.714   6.310   0.968
 6866TIP3    H220556   0.622   6.237   1.065
 6867TIP3   OH220557   7.351   1.749   1.567
 6867TIP3    H120558   7.367   1.714   1.480
 6867TIP3    H220559   7.430   1.798   1.589
 6868TIP3   OH220560   7.303   3.409   3.731
 6868TIP3    H120561   7.320   3.464   3.654
 6868TIP3    H220562   7.267   3.469   3.796
 6869TIP3   OH220563   2.918   1.818   2.717
 6869TIP3    H120564   2.887   1.750   2.658
 6869TIP3    H220565   2.969   1.877   2.661
 6870TIP3   OH220566   5.975   6.749   0.849
 6870TIP3    H120567   5.903   6.763   0.909
 6870TIP3    H220568   5.966   6.658   0.821
 6871TIP3   OH220569   5.898   3.134   0.907
 6871TIP3    H120570   5.914   3.042   0.886
 6871TIP3    H220571   5.826   3.132   0.970
 6872TIP3   OH220572   4.141   4.337   6.085
 6872TIP3    H120573   4.155   4.354   6.178
 6872TIP3    H220574   4.229   4.328   6.048
 6873TIP3   OH220575   2.662   7.049   5.343
 6873TIP3    H120576   2.702   6.966   5.366
 6873TIP3    H220577   2.679   7.059   5.249
 6874TIP3   OH220578   5.158   4.072   4.662
 6874TIP3    H120579   5.112   4.073   4.746
 6874TIP3    H220580   5.146   3.984   4.629
 6875TIP3   OH220581   5.464   5.582   0.157
 6875TIP3    H120582   5.466   5.649   0.088
 6875TIP3    H220583   5.490   5.628   0.236
 6876TIP3   OH220584   1.388   1.749   0.786
 6876TIP3    H120585   1.428   1.662   0.780
 6876TIP3    H220586   1.360   1.756   0.877
 6877TIP3   OH220587   1.136   6.782   2.025
 6877TIP3    H120588   1.064   6.752   2.082
 6877TIP3    H220589   1.201   6.712   2.031
 6878TIP3   OH220590   7.958   1.746   0.909
 6878TIP3    H120591   7.907   1.671   0.939
 6878TIP3    H220592   7.895   1.817   0.903
 6879TIP3   OH220593   1.257   1.160   2.259
 6879TIP3    H120594   1.176   1.159   2.311
 6879TIP3    H220595   1.325   1.185   2.321
 6880TIP3   OH220596   0.711   7.000   0.720
 6880TIP3    H120597   0.698   7.049   0.639
 6880TIP3    H220598   0.762   6.923   0.693
 6881TIP3   OH220599   1.648   3.217   3.008
 6881TIP3    H120600   1.655   3.310   3.029
 6881TIP3    H220601   1.643   3.214   2.913
 6882TIP3   OH220602   1.647   2.130   6.589
 6882TIP3    H120603   1.739   2.119   6.569
 6882TIP3    H220604   1.641   2.215   6.632
 6883TIP3   OH220605   1.565   2.952   0.246
 6883TIP3    H120606   1.565   3.047   0.245
 6883TIP3    H220607   1.610   2.928   0.327
 6884TIP3   OH220608   2.957   3.733   4.154
 6884TIP3    H120609   2.980   3.676   4.227
 6884TIP3    H220610   3.002   3.816   4.173
 6885TIP3   OH220611   4.898   7.633   2.222
 6885TIP3    H120612   4.931   7.558   2.172
 6885TIP3    H220613   4.934   7.709   2.177
 6886TIP3   OH220614   2.485   4.755   5.210
 6886TIP3    H120615   2.557   4.692   5.220
 6886TIP3    H220616   2.410   4.713   5.252
 6887TIP3   OH220617   5.176   6.729   5.167
 6887TIP3    H120618   5.252   6.673   5.181
 6887TIP3    H220619   5.201   6.785   5.093
 6888TIP3   OH220620   4.782   4.498   4.196
 6888TIP3    H120621   4.721   4.433   4.160
 6888TIP3    H220622   4.854   4.499   4.133
 6889TIP3   OH220623   5.962   2.592   4.083
 6889TIP3    H120624   6.016   2.630   4.014
 6889TIP3    H220625   6.016   2.520   4.118
 6890TIP3   OH220626   6.608   2.360   3.460
 6890TIP3    H120627   6.687   2.365   3.406
 6890TIP3    H220628   6.571   2.448   3.458
 6891TIP3   OH220629   7.859   6.665   3.735
 6891TIP3    H120630   7.917   6.589   3.723
 6891TIP3    H220631   7.819   6.677   3.649
 6892TIP3   OH220632   2.218   4.503   6.320
 6892TIP3    H120633   2.292   4.477   6.375
 6892TIP3    H220634   2.257   4.559   6.253
 6893TIP3   OH220635   5.524   0.825   4.163
 6893TIP3    H120636   5.509   0.803   4.255
 6893TIP3    H220637   5.455   0.888   4.142
 6894TIP3   OH220638   1.662   6.359   4.220
 6894TIP3    H120639   1.653   6.264   4.234
 6894TIP3    H220640   1.611   6.375   4.140
 6895TIP3   OH220641   0.567   3.883   2.062
 6895TIP3    H120642   0.510   3.950   2.101
 6895TIP3    H220643   0.533   3.874   1.972
 6896TIP3   OH220644   3.768   0.322   3.628
 6896TIP3    H120645   3.844   0.325   3.570
 6896TIP3    H220646   3.751   0.413   3.651
 6897TIP3   OH220647   4.857   3.378   5.317
 6897TIP3    H120648   4.788   3.442   5.336
 6897TIP3    H220649   4.933   3.431   5.292
 6898TIP3   OH220650   1.776   2.049   1.024
 6898TIP3    H120651   1.856   2.101   1.018
 6898TIP3    H220652   1.803   1.970   1.071
 6899TIP3   OH220653   1.474   4.492   0.421
 6899TIP3    H120654   1.549   4.485   0.361
 6899TIP3    H220655   1.511   4.473   0.507
 6900TIP3   OH220656   7.836   2.760   5.848
 6900TIP3    H120657   7.837   2.665   5.854
 6900TIP3    H220658   7.922   2.783   5.811
 6901TIP3   OH220659   7.526   5.273   5.659
 6901TIP3    H120660   7.559   5.361   5.680
 6901TIP3    H220661   7.470   5.286   5.583
 6902TIP3   OH220662   4.222   1.337   4.548
 6902TIP3    H120663   4.267   1.413   4.512
 6902TIP3    H220664   4.129   1.356   4.537
 6903TIP3   OH220665   3.074   0.229   2.880
 6903TIP3    H120666   3.084   0.168   2.953
 6903TIP3    H220667   3.136   0.300   2.900
 6904TIP3   OH220668   1.774   0.682   0.001
 6904TIP3    H120669   1.749   0.746   0.068
 6904TIP3    H220670   1.777   0.599   0.048
 6905TIP3   OH220671   0.410   5.652   6.142
 6905TIP3    H120672   0.339   5.592   6.165
 6905TIP3    H220673   0.394   5.674   6.050
 6906TIP3   OH220674   2.758   1.474   5.373
 6906TIP3    H120675   2.778   1.383   5.392
 6906TIP3    H220676   2.758   1.517   5.458
 6907TIP3   OH220677   0.030   2.383   1.566
 6907TIP3    H120678   0.110   2.435   1.572
 6907TIP3    H220679  -0.036   2.443   1.533
 6908TIP3   OH220680   5.655   7.016   3.390
 6908TIP3    H120681   5.711   6.957   3.340
 6908TIP3    H220682   5.640   6.971   3.473
 6909TIP3   OH220683   6.832   3.639   1.071
 6909TIP3    H120684   6.751   3.614   1.115
 6909TIP3    H220685   6.838   3.734   1.084
 6910TIP3   OH220686   3.635   6.887   4.993
 6910TIP3    H120687   3.688   6.964   5.014
 6910TIP3    H220688   3.547   6.909   5.023
 6911TIP3   OH220689   7.599   5.120   1.901
 6911TIP3    H120690   7.615   5.207   1.864
 6911TIP3    H220691   7.533   5.082   1.844
 6912TIP3   OH220692   2.791   4.867   0.968
 6912TIP3    H120693   2.774   4.842   0.877
 6912TIP3    H220694   2.715   4.835   1.016
 6913TIP3   OH220695   3.300   5.235   5.238
 6913TIP3    H120696   3.205   5.224   5.245
 6913TIP3    H220697   3.312   5.316   5.190
 6914TIP3   OH220698   2.087   3.213   2.335
 6914TIP3    H120699   2.112   3.129   2.373
 6914TIP3    H220700   2.071   3.194   2.242
 6915TIP3   OH220701   6.279   0.020   0.850
 6915TIP3    H120702   6.350   0.083   0.861
 6915TIP3    H220703   6.287  -0.009   0.759
 6916TIP3   OH220704   7.473   4.020   1.963
 6916TIP3    H120705   7.526   3.943   1.983
 6916TIP3    H220706   7.383   3.987   1.960
 6917TIP3   OH220707   8.192   6.913   0.885
 6917TIP3    H120708   8.228   6.825   0.896
 6917TIP3    H220709   8.267   6.968   0.866
 6918TIP3   OH220710   4.368   0.868   0.739
 6918TIP3    H120711   4.452   0.896   0.702
 6918TIP3    H220712   4.322   0.828   0.666
 6919TIP3   OH220713   1.632   2.052   6.284
 6919TIP3    H120714   1.690   2.105   6.230
 6919TIP3    H220715   1.597   2.113   6.349
 6920TIP3   OH220716   0.837   6.779   3.296
 6920TIP3    H120717   0.769   6.728   3.251
 6920TIP3    H220718   0.916   6.725   3.290
 6921TIP3   OH220719   0.879   6.433   5.202
 6921TIP3    H120720   0.850   6.506   5.146
 6921TIP3    H220721   0.968   6.457   5.228
 6922TIP3   OH220722   4.136   5.639   5.768
 6922TIP3    H120723   4.133   5.552   5.808
 6922TIP3    H220724   4.090   5.696   5.830
 6923TIP3   OH220725   6.086   4.606   4.459
 6923TIP3    H120726   6.175   4.621   4.491
 6923TIP3    H220727   6.097   4.573   4.370
 6924TIP3   OH220728   6.974   6.283   6.283
 6924TIP3    H120729   7.042   6.256   6.345
 6924TIP3    H220730   7.001   6.371   6.255
 6925TIP3   OH220731   8.308   6.724   3.287
 6925TIP3    H120732   8.320   6.720   3.382
 6925TIP3    H220733   8.249   6.651   3.268
 6926TIP3   OH220734   5.838   7.180   0.039
 6926TIP3    H120735   5.828   7.090   0.008
 6926TIP3    H220736   5.883   7.172   0.123
 6927TIP3   OH220737   2.805   3.520   6.066
 6927TIP3    H120738   2.856   3.545   5.988
 6927TIP3    H220739   2.826   3.428   6.081
 6928TIP3   OH220740   8.209   7.621   6.297
 6928TIP3    H120741   8.245   7.637   6.384
 6928TIP3    H220742   8.241   7.535   6.272
 6929TIP3   OH220743   7.064   5.358   1.398
 6929TIP3    H120744   7.088   5.399   1.481
 6929TIP3    H220745   6.980   5.315   1.417
 6930TIP3   OH220746   4.288   2.014   0.943
 6930TIP3    H120747   4.355   2.081   0.956
 6930TIP3    H220748   4.207   2.054   0.974
 6931TIP3   OH220749   2.596   0.060   3.240
 6931TIP3    H120750   2.552   0.144   3.255
 6931TIP3    H220751   2.531   0.007   3.193
 6932TIP3   OH220752   6.242   0.521   5.346
 6932TIP3    H120753   6.291   0.479   5.417
 6932TIP3    H220754   6.196   0.449   5.303
 6933TIP3   OH220755   6.409   0.565   3.578
 6933TIP3    H120756   6.327   0.553   3.530
 6933TIP3    H220757   6.409   0.657   3.603
 6934TIP3   OH220758   2.870   4.313   0.958
 6934TIP3    H120759   2.818   4.393   0.953
 6934TIP3    H220760   2.816   4.252   1.009
 6935TIP3   OH220761   4.205   7.123   3.141
 6935TIP3    H120762   4.233   7.083   3.224
 6935TIP3    H220763   4.110   7.108   3.139
 6936TIP3   OH220764   4.714   5.741   2.794
 6936TIP3    H120765   4.710   5.738   2.698
 6936TIP3    H220766   4.681   5.656   2.822
 6937TIP3   OH220767   0.219   2.622  -0.006
 6937TIP3    H120768   0.283   2.643   0.062
 6937TIP3    H220769   0.143   2.676   0.016
 6938TIP3   OH220770   5.653   0.630   1.864
 6938TIP3    H120771   5.636   0.720   1.839
 6938TIP3    H220772   5.571   0.599   1.901
 6939TIP3   OH220773   7.682   2.995   0.778
 6939TIP3    H120774   7.773   3.021   0.768
 6939TIP3    H220775   7.684   2.900   0.784
 6940TIP3   OH220776   1.230   6.867   1.775
 6940TIP3    H120777   1.284   6.946   1.763
 6940TIP3    H220778   1.211   6.866   1.869
 6941TIP3   OH220779   5.543   2.125   3.750
 6941TIP3    H120780   5.463   2.075   3.731
 6941TIP3    H220781   5.511   2.204   3.794
 6942TIP3   OH220782   1.889   3.533   3.862
 6942TIP3    H120783   1.872   3.623   3.889
 6942TIP3    H220784   1.809   3.507   3.816
 6943TIP3   OH220785   5.881   2.845   0.797
 6943TIP3    H120786   5.900   2.758   0.830
 6943TIP3    H220787   5.786   2.856   0.808
 6944TIP3   OH220788   5.577   6.405   1.247
 6944TIP3    H120789   5.594   6.361   1.330
 6944TIP3    H220790   5.521   6.479   1.270
 6945TIP3   OH220791   5.762   1.728   2.049
 6945TIP3    H120792   5.798   1.816   2.058
 6945TIP3    H220793   5.734   1.704   2.138
 6946TIP3   OH220794   8.215   4.668   0.320
 6946TIP3    H120795   8.225   4.763   0.315
 6946TIP3    H220796   8.205   4.649   0.413
 6947TIP3   OH220797   0.836   6.362   1.709
 6947TIP3    H120798   0.774   6.291   1.690
 6947TIP3    H220799   0.880   6.379   1.626
 6948TIP3   OH220800   4.396   4.206   6.100
 6948TIP3    H120801   4.329   4.149   6.137
 6948TIP3    H220802   4.451   4.148   6.049
 6949TIP3   OH220803   2.638   0.602   4.728
 6949TIP3    H120804   2.615   0.556   4.647
 6949TIP3    H220805   2.645   0.532   4.794
 6950TIP3   OH220806   1.865   1.447   6.651
 6950TIP3    H120807   1.957   1.423   6.659
 6950TIP3    H220808   1.818   1.364   6.644
 6951TIP3   OH220809   1.309   6.401   0.354
 6951TIP3    H120810   1.240   6.433   0.296
 6951TIP3    H220811   1.389   6.443   0.323
 6952TIP3   OH220812   4.469   1.463   0.856
 6952TIP3    H120813   4.549   1.417   0.880
 6952TIP3    H220814   4.424   1.403   0.797
 6953TIP3   OH220815   3.273   7.013   1.591
 6953TIP3    H120816   3.272   6.933   1.644
 6953TIP3    H220817   3.197   7.062   1.620
 6954TIP3   OH220818   5.490   3.355   1.987
 6954TIP3    H120819   5.432   3.374   2.061
 6954TIP3    H220820   5.431   3.354   1.911
 6955TIP3   OH220821   2.990   1.285   6.659
 6955TIP3    H120822   2.951   1.228   6.593
 6955TIP3    H220823   2.924   1.291   6.728
 6956TIP3   OH220824   4.234   2.098   6.072
 6956TIP3    H120825   4.189   2.158   6.132
 6956TIP3    H220826   4.327   2.114   6.090
 6957TIP3   OH220827   3.452   1.286   2.656
 6957TIP3    H120828   3.423   1.226   2.725
 6957TIP3    H220829   3.412   1.370   2.680
 6958TIP3   OH220830   4.094   5.594   1.116
 6958TIP3    H120831   4.032   5.573   1.047
 6958TIP3    H220832   4.090   5.520   1.176
 6959TIP3   OH220833   6.039   6.794   2.233
 6959TIP3    H120834   6.097   6.717   2.226
 6959TIP3    H220835   6.085   6.853   2.292
 6960TIP3   OH220836   6.974   1.888   2.383
 6960TIP3    H120837   7.038   1.928   2.323
 6960TIP3    H220838   6.891   1.891   2.336
 6961TIP3   OH220839   6.766   2.341   1.123
 6961TIP3    H120840   6.766   2.434   1.104
 6961TIP3    H220841   6.744   2.299   1.039
 6962TIP3   OH220842   4.360   2.214   5.437
 6962TIP3    H120843   4.421   2.282   5.464
 6962TIP3    H220844   4.276   2.259   5.427
 6963TIP3   OH220845   7.205   4.441   4.040
 6963TIP3    H120846   7.286   4.392   4.023
 6963TIP3    H220847   7.169   4.458   3.953
 6964TIP3   OH220848   5.627   3.670   5.248
 6964TIP3    H120849   5.713   3.666   5.208
 6964TIP3    H220850   5.628   3.750   5.301
 6965TIP3   OH220851   5.992   3.832   2.907
 6965TIP3    H120852   5.896   3.838   2.906
 6965TIP3    H220853   6.022   3.921   2.891
 6966TIP3   OH220854   3.356   0.051   5.729
 6966TIP3    H120855   3.409   0.103   5.790
 6966TIP3    H220856   3.309   0.115   5.677
 6967TIP3   OH220857   7.928   4.389   0.627
 6967TIP3    H120858   7.949   4.378   0.720
 6967TIP3    H220859   7.832   4.380   0.623
 6968TIP3   OH220860   2.343   7.097   2.248
 6968TIP3    H120861   2.330   7.022   2.306
 6968TIP3    H220862   2.426   7.079   2.204
 6969TIP3   OH220863   0.274   4.107   4.793
 6969TIP3    H120864   0.330   4.030   4.786
 6969TIP3    H220865   0.190   4.073   4.823
 6970TIP3   OH220866   0.795   5.356   4.544
 6970TIP3    H120867   0.867   5.397   4.494
 6970TIP3    H220868   0.814   5.263   4.540
 6971TIP3   OH220869   7.376   3.167   1.250
 6971TIP3    H120870   7.293   3.119   1.245
 6971TIP3    H220871   7.428   3.133   1.177
 6972TIP3   OH220872   5.541   1.015   6.774
 6972TIP3    H120873   5.455   1.037   6.810
 6972TIP3    H220874   5.564   1.090   6.720
 6973TIP3   OH220875   8.220   7.791   3.866
 6973TIP3    H120876   8.289   7.795   3.932
 6973TIP3    H220877   8.197   7.699   3.859
 6974TIP3   OH220878   7.517   4.055   4.036
 6974TIP3    H120879   7.507   4.095   4.122
 6974TIP3    H220880   7.610   4.034   4.030
 6975TIP3   OH220881   5.381   5.622   1.749
 6975TIP3    H120882   5.396   5.607   1.655
 6975TIP3    H220883   5.286   5.618   1.759
 6976TIP3   OH220884   2.637   0.296   1.420
 6976TIP3    H120885   2.646   0.204   1.444
 6976TIP3    H220886   2.557   0.324   1.465
 6977TIP3   OH220887   1.647   2.453   6.331
 6977TIP3    H120888   1.711   2.509   6.374
 6977TIP3    H220889   1.699   2.386   6.287
 6978TIP3   OH220890   4.981   0.196   0.446
 6978TIP3    H120891   5.049   0.252   0.409
 6978TIP3    H220892   5.028   0.134   0.502
 6979TIP3   OH220893   3.675   4.770   2.598
 6979TIP3    H120894   3.724   4.704   2.646
 6979TIP3    H220895   3.599   4.723   2.564
 6980TIP3   OH220896   3.975   0.866   3.154
 6980TIP3    H120897   4.053   0.910   3.188
 6980TIP3    H220898   3.961   0.792   3.213
 6981TIP3   OH220899   1.055   0.168   2.108
 6981TIP3    H120900   1.094   0.251   2.082
 6981TIP3    H220901   1.022   0.184   2.197
 6982TIP3   OH220902   4.157   2.139   3.416
 6982TIP3    H120903   4.069   2.103   3.430
 6982TIP3    H220904   4.153   2.176   3.328
 6983TIP3   OH220905   0.593   5.607   0.014
 6983TIP3    H120906   0.579   5.606  -0.081
 6983TIP3    H220907   0.680   5.644   0.024
 6984TIP3   OH220908   1.324   7.161   4.967
 6984TIP3    H120909   1.408   7.200   4.943
 6984TIP3    H220910   1.259   7.213   4.920
 6985TIP3   OH220911   6.541   6.816   5.538
 6985TIP3    H120912   6.598   6.838   5.464
 6985TIP3    H220913   6.601   6.779   5.603
 6986TIP3   OH220914   3.462   5.171   1.189
 6986TIP3    H120915   3.469   5.124   1.106
 6986TIP3    H220916   3.411   5.112   1.245
 6987TIP3   OH220917   0.109   7.609   2.849
 6987TIP3    H120918   0.096   7.613   2.944
 6987TIP3    H220919   0.200   7.578   2.839
 6988TIP3   OH220920   3.224   3.898   4.132
 6988TIP3    H120921   3.262   3.823   4.179
 6988TIP3    H220922   3.236   3.876   4.039
 6989TIP3   OH220923   7.912   2.476   4.670
 6989TIP3    H120924   7.869   2.551   4.629
 6989TIP3    H220925   8.001   2.507   4.689
 6990TIP3   OH220926   6.233   7.047   1.708
 6990TIP3    H120927   6.254   7.140   1.700
 6990TIP3    H220928   6.298   7.003   1.653
 6991TIP3   OH220929   6.062   5.541   6.498
 6991TIP3    H120930   6.085   5.611   6.437
 6991TIP3    H220931   6.083   5.577   6.584
 6992TIP3   OH220932   7.386   1.980   5.346
 6992TIP3    H120933   7.376   1.967   5.441
 6992TIP3    H220934   7.477   1.957   5.328
 6993TIP3   OH220935   6.883   0.069   0.362
 6993TIP3    H120936   6.810   0.113   0.407
 6993TIP3    H220937   6.859   0.073   0.270
 6994TIP3   OH220938   4.081   2.190   1.023
 6994TIP3    H120939   3.990   2.212   1.044
 6994TIP3    H220940   4.121   2.171   1.107
 6995TIP3   OH220941   2.118   5.232   6.669
 6995TIP3    H120942   2.027   5.228   6.699
 6995TIP3    H220943   2.157   5.302   6.722
 6996TIP3   OH220944   2.927   1.088   6.057
 6996TIP3    H120945   2.902   1.181   6.060
 6996TIP3    H220946   2.942   1.070   5.965
 6997TIP3   OH220947   7.648   0.886   3.110
 6997TIP3    H120948   7.718   0.945   3.139
 6997TIP3    H220949   7.579   0.897   3.175
 6998TIP3   OH220950   8.080   3.813   5.225
 6998TIP3    H120951   8.162   3.858   5.202
 6998TIP3    H220952   8.049   3.776   5.142
 6999TIP3   OH220953   0.805   2.383   0.216
 6999TIP3    H120954   0.818   2.398   0.310
 6999TIP3    H220955   0.872   2.319   0.193
 7000TIP3   OH220956   4.508   6.323   0.597
 7000TIP3    H120957   4.557   6.400   0.569
 7000TIP3    H220958   4.417   6.353   0.601
 7001TIP3   OH220959   8.147   6.549   5.147
 7001TIP3    H120960   8.190   6.594   5.075
 7001TIP3    H220961   8.211   6.549   5.218
 7002TIP3   OH220962   8.259   5.644   6.026
 7002TIP3    H120963   8.247   5.595   5.944
 7002TIP3    H220964   8.219   5.729   6.008
 7003TIP3   OH220965   0.584   7.078   4.123
 7003TIP3    H120966   0.667   7.031   4.122
 7003TIP3    H220967   0.545   7.054   4.208
 7004TIP3   OH220968   0.122   5.995   2.385
 7004TIP3    H120969   0.151   5.945   2.309
 7004TIP3    H220970   0.134   5.936   2.459
 7005TIP3   OH220971   3.890   6.799   2.448
 7005TIP3    H120972   3.801   6.772   2.426
 7005TIP3    H220973   3.936   6.802   2.363
 7006TIP3   OH220974   3.182   0.808   6.366
 7006TIP3    H120975   3.275   0.791   6.351
 7006TIP3    H220976   3.174   0.903   6.360
 7007TIP3   OH220977   3.808   2.698   3.636
 7007TIP3    H120978   3.891   2.698   3.589
 7007TIP3    H220979   3.754   2.633   3.591
 7008TIP3   OH220980   0.614   4.154   0.003
 7008TIP3    H120981   0.688   4.207   0.034
 7008TIP3    H220982   0.633   4.066   0.036
 7009TIP3   OH220983   3.445   2.646   3.985
 7009TIP3    H120984   3.492   2.689   4.057
 7009TIP3    H220985   3.355   2.679   3.992
 7010TIP3   OH220986   7.585   3.148   3.687
 7010TIP3    H120987   7.578   3.242   3.702
 7010TIP3    H220988   7.664   3.137   3.635
 7011TIP3   OH220989   6.250   7.414   3.342
 7011TIP3    H120990   6.314   7.470   3.296
 7011TIP3    H220991   6.245   7.451   3.430
 7012TIP3   OH220992   7.666   0.948   3.419
 7012TIP3    H120993   7.665   0.951   3.515
 7012TIP3    H220994   7.721   1.023   3.394
 7013TIP3   OH220995   3.597   5.682   2.294
 7013TIP3    H120996   3.676   5.685   2.348
 7013TIP3    H220997   3.585   5.590   2.273
 7014TIP3   OH220998   2.285   0.388   3.161
 7014TIP3    H120999   2.327   0.434   3.234
 7014TIP3    H221000   2.320   0.299   3.165
 7015TIP3   OH221001   3.149   1.281   2.644
 7015TIP3    H121002   3.157   1.224   2.568
 7015TIP3    H221003   3.179   1.367   2.614
 7016TIP3   OH221004   3.531   7.792   0.226
 7016TIP3    H121005   3.622   7.807   0.255
 7016TIP3    H221006   3.508   7.707   0.262
 7017TIP3   OH221007   3.941   5.787   5.199
 7017TIP3    H121008   4.032   5.771   5.172
 7017TIP3    H221009   3.893   5.794   5.116
 7018TIP3   OH221010   5.888   3.889   1.851
 7018TIP3    H121011   5.893   3.823   1.921
 7018TIP3    H221012   5.907   3.971   1.895
 7019TIP3   OH221013   0.748   5.149   3.649
 7019TIP3    H121014   0.837   5.155   3.612
 7019TIP3    H221015   0.691   5.148   3.572
 7020TIP3   OH221016   2.029   5.010   4.073
 7020TIP3    H121017   2.008   5.059   3.993
 7020TIP3    H221018   2.047   4.922   4.042
 7021TIP3   OH221019   4.430   3.756   0.132
 7021TIP3    H121020   4.367   3.725   0.197
 7021TIP3    H221021   4.515   3.750   0.176
 7022TIP3   OH221022   0.897   3.453   6.614
 7022TIP3    H121023   0.959   3.402   6.562
 7022TIP3    H221024   0.829   3.478   6.552
 7023TIP3   OH221025   5.000   4.255   1.205
 7023TIP3    H121026   4.993   4.240   1.111
 7023TIP3    H221027   4.960   4.340   1.219
 7024TIP3   OH221028   3.636   3.734   0.329
 7024TIP3    H121029   3.729   3.757   0.334
 7024TIP3    H221030   3.607   3.771   0.245
 7025TIP3   OH221031   7.533   1.338   2.995
 7025TIP3    H121032   7.600   1.378   3.050
 7025TIP3    H221033   7.463   1.315   3.056
 7026TIP3   OH221034   6.159   2.279   0.426
 7026TIP3    H121035   6.184   2.194   0.462
 7026TIP3    H221036   6.227   2.338   0.456
 7027TIP3   OH221037   0.077   2.677   6.637
 7027TIP3    H121038  -0.002   2.701   6.686
 7027TIP3    H221039   0.119   2.761   6.618
 7028TIP3   OH221040   2.439   6.112   0.603
 7028TIP3    H121041   2.356   6.122   0.650
 7028TIP3    H221042   2.506   6.123   0.670
 7029TIP3   OH221043   1.771   7.778   6.814
 7029TIP3    H121044   1.806   7.849   6.760
 7029TIP3    H221045   1.677   7.780   6.798
 7030TIP3   OH221046   0.873   0.634   5.425
 7030TIP3    H121047   0.879   0.644   5.330
 7030TIP3    H221048   0.830   0.550   5.438
 7031TIP3   OH221049   6.537   3.063   6.401
 7031TIP3    H121050   6.449   3.076   6.436
 7031TIP3    H221051   6.567   2.981   6.441
 7032TIP3   OH221052   2.166   6.632   4.496
 7032TIP3    H121053   2.256   6.621   4.466
 7032TIP3    H221054   2.131   6.543   4.502
 7033TIP3   OH221055   4.103   2.717   3.526
 7033TIP3    H121056   4.153   2.754   3.599
 7033TIP3    H221057   4.112   2.782   3.456
 7034TIP3   OH221058   6.677   4.953   2.201
 7034TIP3    H121059   6.626   4.881   2.164
 7034TIP3    H221060   6.693   4.928   2.292
 7035TIP3   OH221061   5.535   1.821   5.851
 7035TIP3    H121062   5.474   1.751   5.873
 7035TIP3    H221063   5.496   1.865   5.775
 7036TIP3   OH221064   0.881   4.370   1.345
 7036TIP3    H121065   0.929   4.384   1.427
 7036TIP3    H221066   0.938   4.312   1.293
 7037TIP3   OH221067   6.557   0.078   4.520
 7037TIP3    H121068   6.633   0.136   4.524
 7037TIP3    H221069   6.588   0.001   4.471
 7038TIP3   OH221070   5.511   2.405   1.479
 7038TIP3    H121071   5.578   2.448   1.533
 7038TIP3    H221072   5.466   2.345   1.538
 7039TIP3   OH221073   7.478   4.357   4.843
 7039TIP3    H121074   7.388   4.341   4.873
 7039TIP3    H221075   7.512   4.423   4.904
 7040TIP3   OH221076   7.965   0.491   1.352
 7040TIP3    H121077   8.038   0.548   1.327
 7040TIP3    H221078   7.923   0.537   1.425
 7041TIP3   OH221079   0.463   7.344   4.512
 7041TIP3    H121080   0.372   7.324   4.492
 7041TIP3    H221081   0.510   7.329   4.431
 7042TIP3   OH221082   6.336   1.868   3.788
 7042TIP3    H121083   6.402   1.909   3.733
 7042TIP3    H221084   6.297   1.941   3.836
 7043TIP3   OH221085   4.181   7.769   0.751
 7043TIP3    H121086   4.087   7.770   0.765
 7043TIP3    H221087   4.218   7.779   0.839
 7044TIP3   OH221088   5.769   1.198   4.290
 7044TIP3    H121089   5.848   1.231   4.333
 7044TIP3    H221090   5.800   1.128   4.233
 7045TIP3   OH221091   4.838   1.423   4.596
 7045TIP3    H121092   4.861   1.330   4.596
 7045TIP3    H221093   4.791   1.435   4.678
 7046TIP3   OH221094   5.382   0.818   1.798
 7046TIP3    H121095   5.354   0.848   1.885
 7046TIP3    H221096   5.331   0.739   1.782
 7047TIP3   OH221097   3.021   5.490   2.042
 7047TIP3    H121098   3.007   5.584   2.055
 7047TIP3    H221099   3.023   5.479   1.947
 7048TIP3   OH221100   1.463   2.282   6.424
 7048TIP3    H121101   1.499   2.254   6.508
 7048TIP3    H221102   1.524   2.348   6.393
 7049TIP3   OH221103   6.842   6.200   4.570
 7049TIP3    H121104   6.816   6.260   4.501
 7049TIP3    H221105   6.762   6.188   4.623
 7050TIP3   OH221106   6.506   2.503   2.215
 7050TIP3    H121107   6.462   2.563   2.276
 7050TIP3    H221108   6.582   2.471   2.263
 7051TIP3   OH221109   7.159   7.194   3.156
 7051TIP3    H121110   7.141   7.217   3.247
 7051TIP3    H221111   7.162   7.099   3.155
 7052TIP3   OH221112   4.636   2.975   5.058
 7052TIP3    H121113   4.648   3.060   5.101
 7052TIP3    H221114   4.572   2.993   4.989
 7053TIP3   OH221115   2.785   1.176   0.471
 7053TIP3    H121116   2.717   1.125   0.515
 7053TIP3    H221117   2.800   1.251   0.529
 7054TIP3   OH221118   5.063   6.106   0.369
 7054TIP3    H121119   5.083   6.052   0.292
 7054TIP3    H221120   5.026   6.187   0.332
 7055TIP3   OH221121   1.261   4.326   0.376
 7055TIP3    H121122   1.338   4.379   0.395
 7055TIP3    H221123   1.218   4.315   0.461
 7056TIP3   OH221124   5.973   2.130   3.498
 7056TIP3    H121125   5.963   2.222   3.523
 7056TIP3    H221126   6.067   2.119   3.482
 7057TIP3   OH221127   6.380   6.596   5.306
 7057TIP3    H121128   6.463   6.595   5.260
 7057TIP3    H221129   6.321   6.543   5.251
 7058TIP3   OH221130   7.066   0.846   4.825
 7058TIP3    H121131   7.101   0.765   4.861
 7058TIP3    H221132   7.142   0.894   4.793
 7059TIP3   OH221133   7.456   3.248   5.092
 7059TIP3    H121134   7.420   3.304   5.023
 7059TIP3    H221135   7.492   3.173   5.045
 7060TIP3   OH221136   2.340   6.835   2.356
 7060TIP3    H121137   2.367   6.750   2.320
 7060TIP3    H221138   2.245   6.829   2.362
 7061TIP3   OH221139   7.114   0.683   4.324
 7061TIP3    H121140   7.184   0.747   4.336
 7061TIP3    H221141   7.148   0.624   4.256
 7062TIP3   OH221142   1.827   6.853   3.726
 7062TIP3    H121143   1.738   6.841   3.759
 7062TIP3    H221144   1.833   6.794   3.650
 7063TIP3   OH221145   0.687   6.059   5.185
 7063TIP3    H121146   0.776   6.074   5.215
 7063TIP3    H221147   0.692   5.978   5.133
 7064TIP3   OH221148   0.094   3.324   3.907
 7064TIP3    H121149   0.126   3.396   3.961
 7064TIP3    H221150   0.037   3.365   3.843
 7065TIP3   OH221151   0.079   4.015   6.182
 7065TIP3    H121152   0.086   4.083   6.114
 7065TIP3    H221153   0.007   4.044   6.237
 7066TIP3   OH221154   1.822   2.759   4.847
 7066TIP3    H121155   1.751   2.695   4.854
 7066TIP3    H221156   1.797   2.815   4.774
 7067TIP3   OH221157   1.569   0.826   5.267
 7067TIP3    H121158   1.496   0.823   5.328
 7067TIP3    H221159   1.537   0.783   5.188
 7068TIP3   OH221160   6.439   1.034   2.763
 7068TIP3    H121161   6.434   1.122   2.725
 7068TIP3    H221162   6.349   1.014   2.787
 7069TIP3   OH221163   2.291   4.600   3.272
 7069TIP3    H121164   2.374   4.604   3.225
 7069TIP3    H221165   2.229   4.567   3.208
 7070TIP3   OH221166   7.732   2.696   1.049
 7070TIP3    H121167   7.667   2.708   0.979
 7070TIP3    H221168   7.695   2.743   1.124
 7071TIP3   OH221169   7.895   3.450   0.362
 7071TIP3    H121170   7.852   3.472   0.279
 7071TIP3    H221171   7.987   3.435   0.339
 7072TIP3   OH221172   4.592   5.043   6.722
 7072TIP3    H121173   4.576   5.130   6.685
 7072TIP3    H221174   4.679   5.050   6.762
 7073TIP3   OH221175   6.344   7.616   4.303
 7073TIP3    H121176   6.371   7.560   4.376
 7073TIP3    H221177   6.425   7.636   4.257
 7074TIP3   OH221178   4.267   6.821   4.532
 7074TIP3    H121179   4.216   6.757   4.581
 7074TIP3    H221180   4.272   6.786   4.444
 7075TIP3   OH221181   5.953   1.992   4.408
 7075TIP3    H121182   5.930   2.084   4.397
 7075TIP3    H221183   5.909   1.947   4.336
 7076TIP3   OH221184   0.836   1.736   4.963
 7076TIP3    H121185   0.921   1.757   5.001
 7076TIP3    H221186   0.772   1.760   5.030
 7077TIP3   OH221187   7.750   1.004   5.324
 7077TIP3    H121188   7.751   0.930   5.385
 7077TIP3    H221189   7.843   1.020   5.306
 7078TIP3   OH221190   5.547   4.053   1.433
 7078TIP3    H121191   5.639   4.049   1.459
 7078TIP3    H221192   5.541   4.131   1.379
 7079TIP3   OH221193   7.800   0.121   5.511
 7079TIP3    H121194   7.779   0.119   5.417
 7079TIP3    H221195   7.768   0.206   5.541
 7080TIP3   OH221196   4.720   6.429   6.651
 7080TIP3    H121197   4.780   6.365   6.689
 7080TIP3    H221198   4.771   6.473   6.583
 7081TIP3   OH221199   1.709   4.544   6.324
 7081TIP3    H121200   1.679   4.629   6.356
 7081TIP3    H221201   1.723   4.557   6.230
 7082TIP3   OH221202   5.161   0.314   0.651
 7082TIP3    H121203   5.189   0.230   0.615
 7082TIP3    H221204   5.176   0.306   0.745
 7083TIP3   OH221205   8.190   1.988   2.800
 7083TIP3    H121206   8.095   1.977   2.788
 7083TIP3    H221207   8.224   2.002   2.712
 7084TIP3   OH221208   8.028   7.361   2.765
 7084TIP3    H121209   8.055   7.352   2.857
 7084TIP3    H221210   7.939   7.395   2.769
 7085TIP3   OH221211   0.755   3.707   2.119
 7085TIP3    H121212   0.701   3.775   2.078
 7085TIP3    H221213   0.699   3.629   2.120
 7086TIP3   OH221214   3.527   6.972   2.599
 7086TIP3    H121215   3.518   6.927   2.683
 7086TIP3    H221216   3.534   7.065   2.623
 7087TIP3   OH221217   0.808   1.309   2.532
 7087TIP3    H121218   0.817   1.371   2.604
 7087TIP3    H221219   0.713   1.297   2.523
 7088TIP3   OH221220   1.667   6.934   0.774
 7088TIP3    H121221   1.643   6.879   0.848
 7088TIP3    H221222   1.617   7.014   0.787
 7089TIP3   OH221223   0.949   3.744   5.335
 7089TIP3    H121224   0.998   3.739   5.417
 7089TIP3    H221225   0.961   3.658   5.294
 7090TIP3   OH221226   3.218   0.861   3.138
 7090TIP3    H121227   3.146   0.915   3.168
 7090TIP3    H221228   3.224   0.790   3.203
 7091TIP3   OH221229   0.984   5.409   4.769
 7091TIP3    H121230   0.911   5.377   4.716
 7091TIP3    H221231   0.949   5.486   4.814
 7092TIP3   OH221232   1.582   7.219   0.036
 7092TIP3    H121233   1.667   7.261   0.020
 7092TIP3    H221234   1.574   7.155  -0.034
 7093TIP3   OH221235   3.102   7.253   2.371
 7093TIP3    H121236   3.167   7.225   2.436
 7093TIP3    H221237   3.021   7.260   2.421
 7094TIP3   OH221238   5.375   5.779   5.299
 7094TIP3    H121239   5.301   5.838   5.282
 7094TIP3    H221240   5.352   5.735   5.380
 7095TIP3   OH221241   4.365   6.716   6.518
 7095TIP3    H121242   4.406   6.734   6.602
 7095TIP3    H221243   4.398   6.630   6.493
 7096TIP3   OH221244   7.688   6.716   6.510
 7096TIP3    H121245   7.756   6.672   6.458
 7096TIP3    H221246   7.725   6.802   6.528
 7097TIP3   OH221247   7.750   6.592   0.116
 7097TIP3    H121248   7.782   6.660   0.057
 7097TIP3    H221249   7.819   6.582   0.182
 7098TIP3   OH221250   0.898   2.264   2.484
 7098TIP3    H121251   0.939   2.210   2.416
 7098TIP3    H221252   0.965   2.271   2.552
 7099TIP3   OH221253   0.684   7.681   2.221
 7099TIP3    H121254   0.650   7.700   2.309
 7099TIP3    H221255   0.646   7.749   2.166
 7100TIP3   OH221256   1.763   7.793   0.710
 7100TIP3    H121257   1.692   7.740   0.746
 7100TIP3    H221258   1.722   7.876   0.686
 7101TIP3   OH221259   6.659   6.186   1.797
 7101TIP3    H121260   6.598   6.191   1.871
 7101TIP3    H221261   6.610   6.221   1.723
 7102TIP3   OH221262   1.968   2.234   3.113
 7102TIP3    H121263   1.966   2.160   3.174
 7102TIP3    H221264   1.887   2.282   3.133
 7103TIP3   OH221265   7.099   2.451   3.070
 7103TIP3    H121266   7.041   2.380   3.099
 7103TIP3    H221267   7.057   2.531   3.099
 7104TIP3   OH221268   2.791   1.530   6.295
 7104TIP3    H121269   2.816   1.616   6.259
 7104TIP3    H221270   2.813   1.536   6.388
 7105TIP3   OH221271   2.388   5.127   0.675
 7105TIP3    H121272   2.456   5.157   0.616
 7105TIP3    H221273   2.345   5.055   0.628
 7106TIP3   OH221274   2.608   6.993   1.937
 7106TIP3    H121275   2.625   6.931   2.009
 7106TIP3    H221276   2.513   7.007   1.940
 7107TIP3   OH221277   5.739   3.128   1.198
 7107TIP3    H121278   5.707   3.161   1.282
 7107TIP3    H221279   5.830   3.102   1.215
 7108TIP3   OH221280   3.550   2.012   6.161
 7108TIP3    H121281   3.492   2.028   6.087
 7108TIP3    H221282   3.605   1.939   6.133
 7109TIP3   OH221283   5.381   3.952   5.298
 7109TIP3    H121284   5.401   3.931   5.207
 7109TIP3    H221285   5.315   4.022   5.292
 7110TIP3   OH221286   5.932   6.697   3.614
 7110TIP3    H121287   5.863   6.640   3.647
 7110TIP3    H221288   6.009   6.676   3.667
 7111TIP3   OH221289   6.502   2.797   1.924
 7111TIP3    H121290   6.537   2.710   1.940
 7111TIP3    H221291   6.579   2.854   1.921
 7112TIP3   OH221292   4.240   5.317   2.558
 7112TIP3    H121293   4.221   5.351   2.471
 7112TIP3    H221294   4.207   5.384   2.618
 7113TIP3   OH221295   1.198   6.391   6.590
 7113TIP3    H121296   1.193   6.367   6.497
 7113TIP3    H221297   1.186   6.486   6.590
 7114TIP3   OH221298   7.268   2.647   4.745
 7114TIP3    H121299   7.176   2.640   4.771
 7114TIP3    H221300   7.264   2.669   4.652
 7115TIP3   OH221301   7.721   6.559   0.972
 7115TIP3    H121302   7.798   6.617   0.978
 7115TIP3    H221303   7.695   6.564   0.880
 7116TIP3   OH221304   2.161   3.912   6.503
 7116TIP3    H121305   2.220   3.923   6.578
 7116TIP3    H221306   2.194   3.975   6.439
 7117TIP3   OH221307   7.354   0.602   3.166
 7117TIP3    H121308   7.329   0.551   3.243
 7117TIP3    H221309   7.450   0.595   3.162
 7118TIP3   OH221310   6.787   7.104   3.653
 7118TIP3    H121311   6.745   7.177   3.608
 7118TIP3    H221312   6.732   7.028   3.633
 7119TIP3   OH221313   3.422   2.377   6.121
 7119TIP3    H121314   3.399   2.285   6.104
 7119TIP3    H221315   3.352   2.409   6.177
 7120TIP3   OH221316   2.622   6.254   3.322
 7120TIP3    H121317   2.540   6.227   3.363
 7120TIP3    H221318   2.638   6.342   3.358
 7121TIP3   OH221319   7.217   6.703   2.698
 7121TIP3    H121320   7.173   6.638   2.644
 7121TIP3    H221321   7.248   6.769   2.636
 7122TIP3   OH221322   8.342   6.102   1.364
 7122TIP3    H121323   8.319   6.028   1.308
 7122TIP3    H221324   8.263   6.117   1.416
 7123TIP3   OH221325   2.049   6.514   2.748
 7123TIP3    H121326   2.109   6.514   2.822
 7123TIP3    H221327   1.964   6.489   2.786
 7124TIP3   OH221328   1.416   1.413   3.433
 7124TIP3    H121329   1.444   1.358   3.360
 7124TIP3    H221330   1.329   1.379   3.457
 7125TIP3   OH221331   8.151   4.654   4.425
 7125TIP3    H121332   8.077   4.629   4.481
 7125TIP3    H221333   8.203   4.713   4.480
 7126TIP3   OH221334   7.516   5.337   0.268
 7126TIP3    H121335   7.464   5.264   0.234
 7126TIP3    H221336   7.453   5.392   0.315
 7127TIP3   OH221337   1.327   4.561   5.799
 7127TIP3    H121338   1.249   4.576   5.746
 7127TIP3    H221339   1.339   4.466   5.798
 7128TIP3   OH221340   3.442   0.558   0.466
 7128TIP3    H121341   3.352   0.543   0.494
 7128TIP3    H221342   3.475   0.472   0.441
 7129TIP3   OH221343   5.441   3.978   0.196
 7129TIP3    H121344   5.434   4.021   0.281
 7129TIP3    H221345   5.528   4.003   0.164
 7130TIP3   OH221346   2.778   5.371   4.896
 7130TIP3    H121347   2.781   5.445   4.836
 7130TIP3    H221348   2.748   5.298   4.843
 7131TIP3   OH221349   5.013   0.959   5.637
 7131TIP3    H121350   4.940   0.922   5.587
 7131TIP3    H221351   5.088   0.902   5.615
 7132TIP3   OH221352   0.882   0.959   3.297
 7132TIP3    H121353   0.923   0.966   3.210
 7132TIP3    H221354   0.844   0.871   3.298
 7133TIP3   OH221355   5.647   1.343   4.606
 7133TIP3    H121356   5.729   1.391   4.621
 7133TIP3    H221357   5.640   1.336   4.510
 7134TIP3   OH221358   1.693   2.679   3.965
 7134TIP3    H121359   1.623   2.740   3.990
 7134TIP3    H221360   1.745   2.727   3.901
 7135TIP3   OH221361   7.973   1.563   3.886
 7135TIP3    H121362   7.966   1.588   3.978
 7135TIP3    H221363   7.884   1.571   3.852
 7136TIP3   OH221364   5.271   0.102   6.386
 7136TIP3    H121365   5.224   0.019   6.385
 7136TIP3    H221366   5.338   0.091   6.454
 7137TIP3   OH221367   1.376   0.298   5.616
 7137TIP3    H121368   1.382   0.232   5.546
 7137TIP3    H221369   1.464   0.336   5.621
 7138TIP3   OH221370   3.734   2.667   2.487
 7138TIP3    H121371   3.688   2.590   2.522
 7138TIP3    H221372   3.696   2.741   2.534
 7139TIP3   OH221373   5.517   2.945   2.017
 7139TIP3    H121374   5.501   3.004   1.943
 7139TIP3    H221375   5.523   3.003   2.093
 7140TIP3   OH221376   2.853   0.584   4.390
 7140TIP3    H121377   2.929   0.540   4.353
 7140TIP3    H221378   2.861   0.571   4.485
 7141TIP3   OH221379   6.062   2.481   3.082
 7141TIP3    H121380   6.119   2.418   3.038
 7141TIP3    H221381   6.028   2.536   3.011
 7142TIP3   OH221382   2.807   2.052   4.572
 7142TIP3    H121383   2.801   1.959   4.594
 7142TIP3    H221384   2.782   2.097   4.653
 7143TIP3   OH221385   4.439   7.269   5.832
 7143TIP3    H121386   4.484   7.343   5.791
 7143TIP3    H221387   4.497   7.241   5.902
 7144TIP3   OH221388   1.607   3.114   5.321
 7144TIP3    H121389   1.636   3.025   5.301
 7144TIP3    H221390   1.569   3.107   5.408
 7145TIP3   OH221391   7.224   2.808   4.501
 7145TIP3    H121392   7.287   2.857   4.554
 7145TIP3    H221393   7.142   2.857   4.512
 7146TIP3   OH221394   1.100   7.106   5.427
 7146TIP3    H121395   1.102   7.035   5.491
 7146TIP3    H221396   1.024   7.158   5.452
 7147TIP3   OH221397   7.844   2.362   3.306
 7147TIP3    H121398   7.839   2.288   3.368
 7147TIP3    H221399   7.765   2.353   3.253
 7148TIP3   OH221400   1.144   2.177   5.880
 7148TIP3    H121401   1.177   2.135   5.959
 7148TIP3    H221402   1.068   2.124   5.854
 7149TIP3   OH221403   2.925   7.419   1.150
 7149TIP3    H121404   2.913   7.416   1.245
 7149TIP3    H221405   2.983   7.495   1.137
 7150TIP3   OH221406   6.286   7.616   1.917
 7150TIP3    H121407   6.299   7.709   1.936
 7150TIP3    H221408   6.216   7.614   1.851
 7151TIP3   OH221409   8.151   0.588   5.683
 7151TIP3    H121410   8.211   0.662   5.680
 7151TIP3    H221411   8.064   0.628   5.683
 7152TIP3   OH221412   4.997   6.121   3.304
 7152TIP3    H121413   4.909   6.085   3.307
 7152TIP3    H221414   5.000   6.171   3.222
 7153TIP3   OH221415   2.597   6.243   6.776
 7153TIP3    H121416   2.640   6.312   6.724
 7153TIP3    H221417   2.591   6.280   6.864
 7154TIP3   OH221418   3.754   6.829   3.450
 7154TIP3    H121419   3.821   6.816   3.517
 7154TIP3    H221420   3.798   6.805   3.368
 7155TIP3   OH221421   7.577   4.113   1.212
 7155TIP3    H121422   7.568   4.135   1.120
 7155TIP3    H221423   7.561   4.195   1.259
 7156TIP3   OH221424   5.582   1.208   5.417
 7156TIP3    H121425   5.569   1.284   5.473
 7156TIP3    H221426   5.534   1.228   5.336
 7157TIP3   OH221427   4.665   3.599   3.371
 7157TIP3    H121428   4.672   3.509   3.404
 7157TIP3    H221429   4.673   3.590   3.276
 7158TIP3   OH221430   4.728   5.984   1.121
 7158TIP3    H121431   4.765   5.907   1.163
 7158TIP3    H221432   4.802   6.022   1.073
 7159TIP3   OH221433   1.333   0.696   2.007
 7159TIP3    H121434   1.315   0.757   2.078
 7159TIP3    H221435   1.408   0.645   2.038
 7160TIP3   OH221436   4.822   4.528   2.358
 7160TIP3    H121437   4.809   4.462   2.291
 7160TIP3    H221438   4.911   4.513   2.391
 7161TIP3   OH221439   7.877   1.529   5.026
 7161TIP3    H121440   7.850   1.457   4.968
 7161TIP3    H221441   7.869   1.607   4.971
 7162TIP3   OH221442   6.714   0.891   0.945
 7162TIP3    H121443   6.807   0.909   0.955
 7162TIP3    H221444   6.697   0.899   0.851
 7163TIP3   OH221445   4.196   7.178   1.196
 7163TIP3    H121446   4.182   7.097   1.246
 7163TIP3    H221447   4.271   7.159   1.140
 7164TIP3   OH221448   2.744   2.718   3.022
 7164TIP3    H121449   2.721   2.810   3.011
 7164TIP3    H221450   2.659   2.674   3.030
 7165TIP3   OH221451   6.427   1.397   2.383
 7165TIP3    H121452   6.337   1.375   2.359
 7165TIP3    H221453   6.474   1.401   2.299
 7166TIP3   OH221454   3.037   1.352   5.881
 7166TIP3    H121455   3.058   1.433   5.834
 7166TIP3    H221456   2.956   1.372   5.927
 7167TIP3   OH221457   5.370   5.300   0.935
 7167TIP3    H121458   5.319   5.284   0.855
 7167TIP3    H221459   5.320   5.257   1.004
 7168TIP3   OH221460   5.630   7.505   5.674
 7168TIP3    H121461   5.620   7.428   5.729
 7168TIP3    H221462   5.567   7.568   5.709
 7169TIP3   OH221463   7.517   3.096   1.005
 7169TIP3    H121464   7.552   3.052   0.928
 7169TIP3    H221465   7.505   3.187   0.978
 7170TIP3   OH221466   3.295   1.956   0.685
 7170TIP3    H121467   3.352   2.012   0.631
 7170TIP3    H221468   3.221   1.935   0.628
 7171TIP3   OH221469   3.545   3.441   6.145
 7171TIP3    H121470   3.523   3.530   6.175
 7171TIP3    H221471   3.631   3.450   6.105
 7172TIP3   OH221472   0.822   7.541   6.768
 7172TIP3    H121473   0.742   7.530   6.716
 7172TIP3    H221474   0.880   7.591   6.710
 7173TIP3   OH221475   2.475   0.246   4.702
 7173TIP3    H121476   2.413   0.176   4.721
 7173TIP3    H221477   2.549   0.202   4.660
 7174TIP3   OH221478   4.820   0.936   3.360
 7174TIP3    H121479   4.802   0.890   3.278
 7174TIP3    H221480   4.736   0.938   3.406
 7175TIP3   OH221481   3.689   1.918   0.154
 7175TIP3    H121482   3.678   1.995   0.098
 7175TIP3    H221483   3.625   1.855   0.122
 7176TIP3   OH221484   2.409   3.187   5.567
 7176TIP3    H121485   2.473   3.118   5.583
 7176TIP3    H221486   2.343   3.175   5.635
 7177TIP3   OH221487   1.868   3.865   6.493
 7177TIP3    H121488   1.833   3.945   6.532
 7177TIP3    H221489   1.963   3.879   6.491
 7178TIP3   OH221490   3.582   6.015   5.104
 7178TIP3    H121491   3.649   5.947   5.097
 7178TIP3    H221492   3.568   6.044   5.014
 7179TIP3   OH221493   4.116   1.987   6.666
 7179TIP3    H121494   4.055   2.034   6.723
 7179TIP3    H221495   4.068   1.910   6.637
 7180TIP3   OH221496   5.731   2.121   5.109
 7180TIP3    H121497   5.656   2.156   5.063
 7180TIP3    H221498   5.805   2.174   5.080
 7181TIP3   OH221499   4.463   0.733   0.249
 7181TIP3    H121500   4.451   0.639   0.266
 7181TIP3    H221501   4.547   0.754   0.289
 7182TIP3   OH221502   6.323   3.111   3.228
 7182TIP3    H121503   6.294   3.136   3.140
 7182TIP3    H221504   6.362   3.191   3.264
 7183TIP3   OH221505   2.959   5.853   5.420
 7183TIP3    H121506   2.881   5.801   5.441
 7183TIP3    H221507   3.019   5.792   5.378
 7184TIP3   OH221508   5.284   0.541   6.537
 7184TIP3    H121509   5.225   0.492   6.480
 7184TIP3    H221510   5.242   0.627   6.547
 7185TIP3   OH221511   2.615   3.135   3.312
 7185TIP3    H121512   2.580   3.108   3.227
 7185TIP3    H221513   2.580   3.071   3.374
 7186TIP3   OH221514   4.454   6.953   1.516
 7186TIP3    H121515   4.411   6.986   1.595
 7186TIP3    H221516   4.386   6.956   1.449
 7187TIP3   OH221517   4.959   3.365   3.265
 7187TIP3    H121518   4.936   3.390   3.355
 7187TIP3    H221519   5.054   3.355   3.267
 7188TIP3   OH221520   0.885   7.176   1.799
 7188TIP3    H121521   0.937   7.122   1.740
 7188TIP3    H221522   0.947   7.237   1.838
 7189TIP3   OH221523   2.090   0.531   1.660
 7189TIP3    H121524   2.054   0.618   1.676
 7189TIP3    H221525   2.098   0.492   1.747
 7190TIP3   OH221526   4.040   2.658   1.379
 7190TIP3    H121527   3.948   2.638   1.364
 7190TIP3    H221528   4.039   2.717   1.455
 7191TIP3   OH221529   5.919   0.654   5.136
 7191TIP3    H121530   5.885   0.565   5.142
 7191TIP3    H221531   5.942   0.678   5.226
 7192TIP3   OH221532   5.228   0.663   0.754
 7192TIP3    H121533   5.311   0.619   0.772
 7192TIP3    H221534   5.249   0.726   0.685
 7193TIP3   OH221535   7.268   0.157   0.989
 7193TIP3    H121536   7.286   0.223   0.923
 7193TIP3    H221537   7.253   0.077   0.939
 7194TIP3   OH221538   6.444   6.130   4.963
 7194TIP3    H121539   6.398   6.060   5.010
 7194TIP3    H221540   6.484   6.183   5.031
 7195TIP3   OH221541   1.702   6.132   1.026
 7195TIP3    H121542   1.734   6.140   1.115
 7195TIP3    H221543   1.611   6.163   1.030
 7196TIP3   OH221544   5.122   7.107   4.238
 7196TIP3    H121545   5.213   7.084   4.220
 7196TIP3    H221546   5.072   7.068   4.166
 7197TIP3   OH221547   6.965   6.075   4.241
 7197TIP3    H121548   7.009   6.006   4.191
 7197TIP3    H221549   7.035   6.117   4.290
 7198TIP3   OH221550   6.046   0.686   2.481
 7198TIP3    H121551   6.031   0.592   2.489
 7198TIP3    H221552   5.974   0.716   2.426
 7199TIP3   OH221553   3.722   3.078   5.441
 7199TIP3    H121554   3.683   3.023   5.508
 7199TIP3    H221555   3.816   3.060   5.446
 7200TIP3   OH221556   6.557   3.658   3.068
 7200TIP3    H121557   6.496   3.617   3.005
 7200TIP3    H221558   6.617   3.587   3.091
 7201TIP3   OH221559   2.048   6.981   3.806
 7201TIP3    H121560   1.968   6.928   3.806
 7201TIP3    H221561   2.047   7.027   3.890
 7202TIP3   OH221562   8.196   7.642   2.123
 7202TIP3    H121563   8.211   7.686   2.207
 7202TIP3    H221564   8.262   7.679   2.064
 7203TIP3   OH221565   3.345   3.994   0.414
 7203TIP3    H121566   3.418   4.027   0.361
 7203TIP3    H221567   3.269   3.998   0.356
 7204TIP3   OH221568   3.684   1.079   1.504
 7204TIP3    H121569   3.739   1.095   1.581
 7204TIP3    H221570   3.608   1.136   1.517
 7205TIP3   OH221571   5.170   2.390   6.533
 7205TIP3    H121572   5.200   2.333   6.604
 7205TIP3    H221573   5.249   2.433   6.501
 7206TIP3   OH221574   4.450   2.570   1.170
 7206TIP3    H121575   4.537   2.546   1.138
 7206TIP3    H221576   4.415   2.488   1.207
 7207TIP3   OH221577   8.093   5.663   2.700
 7207TIP3    H121578   8.037   5.597   2.658
 7207TIP3    H221579   8.041   5.744   2.696
 7208TIP3   OH221580   1.224   2.847   1.769
 7208TIP3    H121581   1.145   2.895   1.743
 7208TIP3    H221582   1.243   2.789   1.695
 7209TIP3   OH221583   1.529   2.814   6.119
 7209TIP3    H121584   1.443   2.773   6.128
 7209TIP3    H221585   1.563   2.781   6.037
 7210TIP3   OH221586   1.746   5.407   3.453
 7210TIP3    H121587   1.735   5.487   3.504
 7210TIP3    H221588   1.717   5.337   3.511
 7211TIP3   OH221589   4.453   2.026   1.873
 7211TIP3    H121590   4.483   2.079   1.799
 7211TIP3    H221591   4.403   1.955   1.833
 7212TIP3   OH221592   4.311   3.819   2.282
 7212TIP3    H121593   4.277   3.858   2.202
 7212TIP3    H221594   4.342   3.732   2.256
 7213TIP3   OH221595   1.912   2.759   2.082
 7213TIP3    H121596   1.896   2.782   1.990
 7213TIP3    H221597   1.826   2.758   2.122
 7214TIP3   OH221598   2.446   1.843   3.929
 7214TIP3    H121599   2.417   1.775   3.868
 7214TIP3    H221600   2.373   1.904   3.935
 7215TIP3   OH221601   5.330   0.587   3.943
 7215TIP3    H121602   5.417   0.599   3.982
 7215TIP3    H221603   5.325   0.655   3.876
 7216TIP3   OH221604   4.837   6.510   6.437
 7216TIP3    H121605   4.926   6.544   6.452
 7216TIP3    H221606   4.819   6.530   6.345
 7217TIP3   OH221607   5.589   1.904   2.445
 7217TIP3    H121608   5.626   1.991   2.453
 7217TIP3    H221609   5.515   1.903   2.506
 7218TIP3   OH221610   5.583   4.782   2.719
 7218TIP3    H121611   5.631   4.713   2.764
 7218TIP3    H221612   5.565   4.847   2.787
 7219TIP3   OH221613   5.261   2.593   3.217
 7219TIP3    H121614   5.304   2.653   3.279
 7219TIP3    H221615   5.332   2.562   3.161
 7220TIP3   OH221616   5.924   6.515   4.988
 7220TIP3    H121617   5.953   6.441   4.935
 7220TIP3    H221618   5.879   6.475   5.062
 7221TIP3   OH221619   4.678   5.600   1.011
 7221TIP3    H121620   4.604   5.631   0.958
 7221TIP3    H221621   4.702   5.675   1.066
 7222TIP3   OH221622   2.543   0.907   4.770
 7222TIP3    H121623   2.584   0.838   4.821
 7222TIP3    H221624   2.452   0.909   4.801
 7223TIP3   OH221625   1.333   3.531   5.167
 7223TIP3    H121626   1.287   3.514   5.084
 7223TIP3    H221627   1.400   3.463   5.172
 7224TIP3   OH221628   2.566   5.081   4.639
 7224TIP3    H121629   2.525   5.099   4.724
 7224TIP3    H221630   2.633   5.015   4.659
 7225TIP3   OH221631   0.972   1.325   4.898
 7225TIP3    H121632   1.043   1.320   4.962
 7225TIP3    H221633   0.959   1.234   4.869
 7226TIP3   OH221634   6.679   1.094   4.197
 7226TIP3    H121635   6.633   1.011   4.186
 7226TIP3    H221636   6.645   1.150   4.127
 7227TIP3   OH221637   5.167   1.347   3.926
 7227TIP3    H121638   5.220   1.336   3.847
 7227TIP3    H221639   5.193   1.432   3.961
 7228TIP3   OH221640   3.857   1.623   2.150
 7228TIP3    H121641   3.910   1.627   2.230
 7228TIP3    H221642   3.917   1.649   2.080
 7229TIP3   OH221643   5.910   3.848   1.212
 7229TIP3    H121644   5.904   3.935   1.171
 7229TIP3    H221645   5.861   3.857   1.294
 7230TIP3   OH221646   1.708   4.159   1.726
 7230TIP3    H121647   1.634   4.099   1.734
 7230TIP3    H221648   1.740   4.147   1.637
 7231TIP3   OH221649   0.082   4.404   3.389
 7231TIP3    H121650   0.169   4.429   3.421
 7231TIP3    H221651   0.080   4.309   3.397
 7232TIP3   OH221652   0.342   4.938   0.982
 7232TIP3    H121653   0.367   4.867   0.924
 7232TIP3    H221654   0.332   5.014   0.925
 7233TIP3   OH221655   3.715   6.002   3.313
 7233TIP3    H121656   3.750   6.090   3.315
 7233TIP3    H221657   3.741   5.967   3.227
 7234TIP3   OH221658   6.895   0.936   3.895
 7234TIP3    H121659   6.802   0.918   3.913
 7234TIP3    H221660   6.924   0.990   3.968
 7235TIP3   OH221661   2.523   7.038   0.274
 7235TIP3    H121662   2.510   7.117   0.326
 7235TIP3    H221663   2.467   6.972   0.316
 7236TIP3   OH221664   2.354   4.341   2.994
 7236TIP3    H121665   2.279   4.389   2.959
 7236TIP3    H221666   2.425   4.405   2.998
 7237TIP3   OH221667   0.681   4.978   5.163
 7237TIP3    H121668   0.769   4.940   5.175
 7237TIP3    H221669   0.636   4.961   5.245
 7238TIP3   OH221670   2.026   5.913   3.193
 7238TIP3    H121671   1.940   5.925   3.152
 7238TIP3    H221672   2.007   5.873   3.278
 7239TIP3   OH221673   4.647   2.846   1.137
 7239TIP3    H121674   4.711   2.777   1.121
 7239TIP3    H221675   4.566   2.813   1.098
 7240TIP3   OH221676   0.816   2.788   5.926
 7240TIP3    H121677   0.902   2.792   5.968
 7240TIP3    H221678   0.825   2.843   5.848
 7241TIP3   OH221679   5.096   4.595   1.516
 7241TIP3    H121680   5.074   4.588   1.423
 7241TIP3    H221681   5.173   4.538   1.526
 7242TIP3   OH221682   6.249   3.343   2.384
 7242TIP3    H121683   6.203   3.260   2.383
 7242TIP3    H221684   6.248   3.371   2.475
 7243TIP3   OH221685   1.814   2.602   0.317
 7243TIP3    H121686   1.780   2.682   0.276
 7243TIP3    H221687   1.756   2.587   0.391
 7244TIP3   OH221688   7.385   1.512   1.715
 7244TIP3    H121689   7.385   1.534   1.622
 7244TIP3    H221690   7.415   1.592   1.759
 7245TIP3   OH221691   4.251   2.284   3.156
 7245TIP3    H121692   4.264   2.203   3.107
 7245TIP3    H221693   4.339   2.319   3.168
 7246TIP3   OH221694   2.486   2.990   2.156
 7246TIP3    H121695   2.459   2.931   2.085
 7246TIP3    H221696   2.405   3.030   2.187
 7247TIP3   OH221697   5.535   3.879   0.903
 7247TIP3    H121698   5.578   3.798   0.932
 7247TIP3    H221699   5.448   3.851   0.875
 7248TIP3   OH221700   0.698   7.629   6.108
 7248TIP3    H121701   0.665   7.614   6.020
 7248TIP3    H221702   0.779   7.677   6.095
 7249TIP3   OH221703   5.947   4.475   3.774
 7249TIP3    H121704   5.937   4.420   3.696
 7249TIP3    H221705   5.857   4.491   3.804
 7250TIP3   OH221706   7.333   1.719  -0.044
 7250TIP3    H121707   7.276   1.642  -0.040
 7250TIP3    H221708   7.348   1.742   0.048
 7251TIP3   OH221709   4.778   6.802   0.923
 7251TIP3    H121710   4.773   6.889   0.964
 7251TIP3    H221711   4.748   6.817   0.833
 7252TIP3   OH221712   4.178   6.621   5.650
 7252TIP3    H121713   4.203   6.530   5.634
 7252TIP3    H221714   4.096   6.633   5.603
 7253TIP3   OH221715   4.978   2.278   3.832
 7253TIP3    H121716   5.065   2.319   3.825
 7253TIP3    H221717   4.952   2.262   3.742
 7254TIP3   OH221718   4.132   2.446   5.695
 7254TIP3    H121719   4.115   2.530   5.738
 7254TIP3    H221720   4.108   2.380   5.760
 7255TIP3   OH221721   6.628   4.131   0.243
 7255TIP3    H121722   6.574   4.058   0.273
 7255TIP3    H221723   6.579   4.209   0.268
 7256TIP3   OH221724   0.663   7.177   1.955
 7256TIP3    H121725   0.696   7.249   2.009
 7256TIP3    H221726   0.738   7.151   1.901
 7257TIP3   OH221727   1.195   0.997   0.825
 7257TIP3    H121728   1.169   0.916   0.869
 7257TIP3    H221729   1.121   1.018   0.768
 7258TIP3   OH221730   1.151   7.841   1.374
 7258TIP3    H121731   1.133   7.783   1.300
 7258TIP3    H221732   1.064   7.863   1.408
 7259TIP3   OH221733   6.445   6.338   3.259
 7259TIP3    H121734   6.462   6.347   3.165
 7259TIP3    H221735   6.378   6.404   3.278
 7260TIP3   OH221736   4.138   3.474   1.551
 7260TIP3    H121737   4.073   3.447   1.616
 7260TIP3    H221738   4.181   3.393   1.525
 7261TIP3   OH221739   3.049   2.266   2.749
 7261TIP3    H121740   2.994   2.205   2.798
 7261TIP3    H221741   3.135   2.258   2.789
 7262TIP3   OH221742   1.097   6.633   6.567
 7262TIP3    H121743   1.038   6.635   6.492
 7262TIP3    H221744   1.074   6.711   6.619
 7263TIP3   OH221745   4.820   7.094   4.897
 7263TIP3    H121746   4.816   7.040   4.976
 7263TIP3    H221747   4.884   7.049   4.841
 7264TIP3   OH221748   1.683   2.965   3.432
 7264TIP3    H121749   1.689   2.871   3.448
 7264TIP3    H221750   1.688   2.973   3.337
 7265TIP3   OH221751   3.237   6.888   6.533
 7265TIP3    H121752   3.329   6.889   6.556
 7265TIP3    H221753   3.234   6.845   6.447
 7266TIP3   OH221754   2.271   3.491   5.490
 7266TIP3    H121755   2.313   3.495   5.576
 7266TIP3    H221756   2.230   3.577   5.479
 7267TIP3   OH221757   5.575   4.691   3.602
 7267TIP3    H121758   5.493   4.701   3.553
 7267TIP3    H221759   5.644   4.712   3.539
 7268TIP3   OH221760   6.603   3.042   4.539
 7268TIP3    H121761   6.642   2.989   4.609
 7268TIP3    H221762   6.676   3.093   4.504
 7269TIP3   OH221763   4.466   0.055   0.321
 7269TIP3    H121764   4.560   0.058   0.337
 7269TIP3    H221765   4.453  -0.017   0.260
 7270TIP3   OH221766   1.331   7.330   0.125
 7270TIP3    H121767   1.285   7.291   0.051
 7270TIP3    H221768   1.422   7.336   0.097
 7271TIP3   OH221769   0.935   6.656   2.181
 7271TIP3    H121770   0.896   6.568   2.188
 7271TIP3    H221771   0.861   6.713   2.162
 7272TIP3   OH221772   2.795   3.918   6.713
 7272TIP3    H121773   2.826   3.863   6.641
 7272TIP3    H221774   2.799   4.007   6.679
 7273TIP3   OH221775   1.177   0.484   2.178
 7273TIP3    H121776   1.214   0.437   2.103
 7273TIP3    H221777   1.130   0.558   2.140
 7274TIP3   OH221778   4.250   5.272   5.205
 7274TIP3    H121779   4.180   5.209   5.192
 7274TIP3    H221780   4.246   5.295   5.298
 7275TIP3   OH221781   2.184   4.308   3.390
 7275TIP3    H121782   2.135   4.379   3.348
 7275TIP3    H221783   2.273   4.318   3.357
 7276TIP3   OH221784   2.452   0.838   0.906
 7276TIP3    H121785   2.383   0.870   0.848
 7276TIP3    H221786   2.444   0.892   0.984
 7277TIP3   OH221787   3.988   2.933   0.676
 7277TIP3    H121788   4.078   2.901   0.672
 7277TIP3    H221789   3.935   2.862   0.642
 7278TIP3   OH221790   1.265   4.498   4.198
 7278TIP3    H121791   1.297   4.581   4.234
 7278TIP3    H221792   1.345   4.449   4.177
 7279TIP3   OH221793   1.585   2.037   4.208
 7279TIP3    H121794   1.581   2.012   4.116
 7279TIP3    H221795   1.659   1.987   4.243
 7280TIP3   OH221796   1.352   1.610   5.201
 7280TIP3    H121797   1.398   1.574   5.125
 7280TIP3    H221798   1.408   1.590   5.275
 7281TIP3   OH221799   5.774   0.098   2.220
 7281TIP3    H121800   5.785   0.013   2.262
 7281TIP3    H221801   5.803   0.086   2.130
 7282TIP3   OH221802   3.496   6.078   4.849
 7282TIP3    H121803   3.463   5.988   4.859
 7282TIP3    H221804   3.423   6.125   4.809
 7283TIP3   OH221805   3.825   3.328   4.019
 7283TIP3    H121806   3.884   3.306   3.947
 7283TIP3    H221807   3.759   3.259   4.018
 7284TIP3   OH221808   8.303   6.689   0.979
 7284TIP3    H121809   8.322   6.721   1.067
 7284TIP3    H221810   8.292   6.594   0.990
 7285TIP3   OH221811   0.532   7.493   4.029
 7285TIP3    H121812   0.570   7.428   3.970
 7285TIP3    H221813   0.473   7.543   3.974
 7286TIP3   OH221814   3.684   3.966   5.245
 7286TIP3    H121815   3.735   4.018   5.183
 7286TIP3    H221816   3.747   3.941   5.312
 7287TIP3   OH221817   0.252   6.728   4.576
 7287TIP3    H121818   0.184   6.772   4.526
 7287TIP3    H221819   0.233   6.634   4.565
 7288TIP3   OH221820   2.932   7.119   3.585
 7288TIP3    H121821   2.994   7.070   3.532
 7288TIP3    H221822   2.846   7.090   3.555
 7289TIP3   OH221823   7.347   5.654   4.428
 7289TIP3    H121824   7.278   5.588   4.430
 7289TIP3    H221825   7.354   5.679   4.336
 7290TIP3   OH221826   5.709   3.927   1.660
 7290TIP3    H121827   5.644   3.971   1.715
 7290TIP3    H221828   5.783   3.912   1.718
 7291TIP3   OH221829   6.016   0.731   2.888
 7291TIP3    H121830   6.060   0.646   2.885
 7291TIP3    H221831   5.998   0.751   2.796
 7292TIP3   OH221832   6.496   6.058   3.360
 7292TIP3    H121833   6.416   6.008   3.346
 7292TIP3    H221834   6.485   6.137   3.306
 7293TIP3   OH221835   3.821   2.111   4.034
 7293TIP3    H121836   3.846   2.021   4.051
 7293TIP3    H221837   3.904   2.156   4.015
 7294TIP3   OH221838   3.738   0.109   4.251
 7294TIP3    H121839   3.821   0.147   4.223
 7294TIP3    H221840   3.700   0.073   4.171
 7295TIP3   OH221841   4.565   1.509   1.273
 7295TIP3    H121842   4.508   1.498   1.350
 7295TIP3    H221843   4.653   1.491   1.306
 7296TIP3   OH221844   4.103   6.480   0.394
 7296TIP3    H121845   4.117   6.511   0.483
 7296TIP3    H221846   4.128   6.553   0.338
 7297TIP3   OH221847   3.841   2.375   5.449
 7297TIP3    H121848   3.808   2.288   5.472
 7297TIP3    H221849   3.807   2.432   5.518
 7298TIP3   OH221850   6.179   5.658   3.010
 7298TIP3    H121851   6.171   5.741   3.058
 7298TIP3    H221852   6.096   5.650   2.962
 7299TIP3   OH221853   2.520   4.261   4.124
 7299TIP3    H121854   2.555   4.350   4.124
 7299TIP3    H221855   2.535   4.229   4.214
 7300TIP3   OH221856   3.953   1.976   4.397
 7300TIP3    H121857   4.000   1.893   4.391
 7300TIP3    H221858   4.022   2.042   4.396
 7301TIP3   OH221859   6.247   6.775   0.047
 7301TIP3    H121860   6.246   6.713  -0.025
 7301TIP3    H221861   6.318   6.836   0.026
 7302TIP3   OH221862   8.044   7.614   2.501
 7302TIP3    H121863   8.042   7.580   2.411
 7302TIP3    H221864   8.118   7.569   2.542
 7303TIP3   OH221865   0.281   5.049   4.426
 7303TIP3    H121866   0.239   5.064   4.341
 7303TIP3    H221867   0.208   5.046   4.488
 7304TIP3   OH221868   7.045   4.684   3.336
 7304TIP3    H121869   7.055   4.650   3.247
 7304TIP3    H221870   6.984   4.757   3.327
 7305TIP3   OH221871   4.403   3.534   3.691
 7305TIP3    H121872   4.487   3.567   3.659
 7305TIP3    H221873   4.422   3.502   3.779
 7306TIP3   OH221874   0.007   5.912   6.755
 7306TIP3    H121875  -0.048   5.900   6.678
 7306TIP3    H221876   0.097   5.902   6.723
 7307TIP3   OH221877   0.776   2.403   6.416
 7307TIP3    H121878   0.706   2.338   6.416
 7307TIP3    H221879   0.735   2.483   6.381
 7308TIP3   OH221880   3.493   3.800   2.373
 7308TIP3    H121881   3.424   3.854   2.335
 7308TIP3    H221882   3.545   3.861   2.426
 7309TIP3   OH221883   4.400   6.331   3.580
 7309TIP3    H121884   4.437   6.324   3.491
 7309TIP3    H221885   4.356   6.415   3.581
 7310TIP3   OH221886   3.199   6.952   0.588
 7310TIP3    H121887   3.199   7.018   0.658
 7310TIP3    H221888   3.253   6.881   0.623
 7311TIP3   OH221889   7.258   7.794   1.632
 7311TIP3    H121890   7.178   7.828   1.593
 7311TIP3    H221891   7.287   7.726   1.571
 7312TIP3   OH221892   5.137   6.851   6.504
 7312TIP3    H121893   5.224   6.891   6.508
 7312TIP3    H221894   5.121   6.818   6.592
 7313TIP3   OH221895   5.941   4.039   4.822
 7313TIP3    H121896   5.883   3.978   4.776
 7313TIP3    H221897   6.010   3.983   4.857
 7314TIP3   OH221898   2.808   3.146   2.792
 7314TIP3    H121899   2.888   3.094   2.797
 7314TIP3    H221900   2.838   3.237   2.789
 7315TIP3   OH221901   2.884   1.752   5.742
 7315TIP3    H121902   2.974   1.783   5.737
 7315TIP3    H221903   2.853   1.752   5.651
 7316TIP3   OH221904   7.732   6.106   4.787
 7316TIP3    H121905   7.645   6.068   4.794
 7316TIP3    H221906   7.783   6.063   4.857
 7317TIP3   OH221907   2.022   3.782   3.709
 7317TIP3    H121908   1.967   3.817   3.778
 7317TIP3    H221909   1.961   3.757   3.640
 7318TIP3   OH221910   5.828   7.790   0.914
 7318TIP3    H121911   5.840   7.734   0.837
 7318TIP3    H221912   5.904   7.771   0.969
 7319TIP3   OH221913   1.570   0.165   2.114
 7319TIP3    H121914   1.615   0.081   2.107
 7319TIP3    H221915   1.510   0.154   2.188
 7320TIP3   OH221916   5.714   5.674   3.074
 7320TIP3    H121917   5.737   5.684   2.982
 7320TIP3    H221918   5.719   5.580   3.091
 7321TIP3   OH221919   2.739   5.957   4.634
 7321TIP3    H121920   2.702   6.036   4.594
 7321TIP3    H221921   2.663   5.902   4.653
 7322TIP3   OH221922   2.623   2.824   6.608
 7322TIP3    H121923   2.543   2.790   6.646
 7322TIP3    H221924   2.687   2.754   6.620
 7323TIP3   OH221925   3.693   6.208   3.089
 7323TIP3    H121926   3.617   6.193   3.032
 7323TIP3    H221927   3.660   6.262   3.160
 7324TIP3   OH221928   7.518   0.165   2.421
 7324TIP3    H121929   7.502   0.216   2.342
 7324TIP3    H221930   7.523   0.230   2.492
 7325TIP3   OH221931   2.679   7.131   6.453
 7325TIP3    H121932   2.756   7.152   6.506
 7325TIP3    H221933   2.657   7.212   6.409
 7326TIP3   OH221934   1.756   5.487   6.123
 7326TIP3    H121935   1.831   5.540   6.148
 7326TIP3    H221936   1.792   5.399   6.112
 7327TIP3   OH221937   7.099   3.204   4.420
 7327TIP3    H121938   7.055   3.155   4.351
 7327TIP3    H221939   7.059   3.173   4.501
 7328TIP3   OH221940   2.537   5.180   4.949
 7328TIP3    H121941   2.497   5.243   5.008
 7328TIP3    H221942   2.508   5.094   4.982
 7329TIP3   OH221943   6.063   2.696   1.755
 7329TIP3    H121944   6.111   2.770   1.718
 7329TIP3    H221945   6.012   2.662   1.681
 7330TIP3   OH221946   1.966   4.582   6.120
 7330TIP3    H121947   1.971   4.565   6.214
 7330TIP3    H221948   1.888   4.535   6.091
 7331TIP3   OH221949   6.747   0.745   1.494
 7331TIP3    H121950   6.834   0.784   1.494
 7331TIP3    H221951   6.746   0.686   1.570
 7332TIP3   OH221952   2.306   7.700   3.325
 7332TIP3    H121953   2.338   7.764   3.261
 7332TIP3    H221954   2.372   7.701   3.394
 7333TIP3   OH221955   0.573   4.604   4.809
 7333TIP3    H121956   0.550   4.694   4.785
 7333TIP3    H221957   0.539   4.551   4.737
 7334TIP3   OH221958   2.798   4.030   4.357
 7334TIP3    H121959   2.731   4.097   4.365
 7334TIP3    H221960   2.762   3.967   4.294
 7335TIP3   OH221961   1.560   4.847   1.240
 7335TIP3    H121962   1.545   4.915   1.174
 7335TIP3    H221963   1.515   4.879   1.318
 7336TIP3   OH221964   7.476   6.544   1.961
 7336TIP3    H121965   7.484   6.532   2.055
 7336TIP3    H221966   7.428   6.467   1.931
 7337TIP3   OH221967   2.892   6.001   5.116
 7337TIP3    H121968   2.802   5.980   5.140
 7337TIP3    H221969   2.930   5.918   5.090
 7338TIP3   OH221970   5.829   0.797   4.735
 7338TIP3    H121971   5.912   0.776   4.694
 7338TIP3    H221972   5.809   0.886   4.705
 7339TIP3   OH221973   4.015   7.230   4.948
 7339TIP3    H121974   4.100   7.274   4.942
 7339TIP3    H221975   3.953   7.299   4.970
 7340TIP3   OH221976   5.145   0.598   0.096
 7340TIP3    H121977   5.160   0.505   0.112
 7340TIP3    H221978   5.220   0.624   0.041
 7341TIP3   OH221979   3.076   5.251   5.570
 7341TIP3    H121980   3.004   5.313   5.561
 7341TIP3    H221981   3.113   5.269   5.657
 7342TIP3   OH221982   6.216   6.982   1.381
 7342TIP3    H121983   6.191   7.069   1.352
 7342TIP3    H221984   6.201   6.926   1.304
 7343TIP3   OH221985   0.090   1.117   1.211
 7343TIP3    H121986   0.033   1.175   1.161
 7343TIP3    H221987   0.051   1.030   1.202
 7344TIP3   OH221988   1.073   5.354   0.558
 7344TIP3    H121989   1.167   5.368   0.566
 7344TIP3    H221990   1.048   5.312   0.640
 7345TIP3   OH221991   2.458   6.767   3.585
 7345TIP3    H121992   2.399   6.839   3.609
 7345TIP3    H221993   2.465   6.714   3.665
 7346TIP3   OH221994   5.402   6.574   5.164
 7346TIP3    H121995   5.471   6.586   5.229
 7346TIP3    H221996   5.432   6.502   5.109
 7347TIP3   OH221997   0.829   1.308   6.619
 7347TIP3    H121998   0.791   1.247   6.556
 7347TIP3    H221999   0.808   1.395   6.584
 7348TIP3   OH222000   3.127   4.587   5.078
 7348TIP3    H122001   3.160   4.665   5.122
 7348TIP3    H222002   3.046   4.565   5.125
 7349TIP3   OH222003   4.005   3.094   5.520
 7349TIP3    H122004   4.053   3.021   5.559
 7349TIP3    H222005   4.073   3.154   5.489
 7350TIP3   OH222006   0.414   3.751   5.262
 7350TIP3    H122007   0.506   3.743   5.286
 7350TIP3    H222008   0.376   3.665   5.282
 7351TIP3   OH222009   7.253   3.689   4.326
 7351TIP3    H122010   7.285   3.686   4.236
 7351TIP3    H222011   7.279   3.604   4.363
 7352TIP3   OH222012   7.971   6.536   2.492
 7352TIP3    H122013   7.899   6.500   2.544
 7352TIP3    H222014   8.037   6.562   2.556
 7353TIP3   OH222015   4.754   4.276   5.153
 7353TIP3    H122016   4.670   4.307   5.186
 7353TIP3    H222017   4.797   4.237   5.229
 7354TIP3   OH222018   6.067   5.416   6.015
 7354TIP3    H122019   6.108   5.358   5.950
 7354TIP3    H222020   5.973   5.411   5.996
 7355TIP3   OH222021   7.118   2.622   2.500
 7355TIP3    H122022   7.183   2.561   2.464
 7355TIP3    H222023   7.154   2.648   2.585
 7356TIP3   OH222024   6.029   0.438   4.001
 7356TIP3    H122025   6.086   0.387   4.059
 7356TIP3    H222026   6.090   0.490   3.948
 7357TIP3   OH222027   3.499   6.145   2.255
 7357TIP3    H122028   3.425   6.205   2.261
 7357TIP3    H222029   3.565   6.181   2.315
 7358TIP3   OH222030   7.571   7.284   3.141
 7358TIP3    H122031   7.521   7.317   3.066
 7358TIP3    H222032   7.614   7.362   3.176
 7359TIP3   OH222033   4.520   4.765   3.349
 7359TIP3    H122034   4.552   4.675   3.351
 7359TIP3    H222035   4.462   4.768   3.273
 7360TIP3   OH222036   4.800   4.683   4.778
 7360TIP3    H122037   4.813   4.660   4.870
 7360TIP3    H222038   4.867   4.633   4.731
 7361TIP3   OH222039   2.300   4.700   2.659
 7361TIP3    H122040   2.365   4.763   2.627
 7361TIP3    H222041   2.241   4.752   2.714
 7362TIP3   OH222042   1.901   0.803   3.418
 7362TIP3    H122043   1.949   0.722   3.398
 7362TIP3    H222044   1.881   0.796   3.512
 7363TIP3   OH222045   3.249   5.053   2.131
 7363TIP3    H122046   3.337   5.017   2.127
 7363TIP3    H222047   3.251   5.128   2.071
 7364TIP3   OH222048   1.253   2.639   6.198
 7364TIP3    H122049   1.189   2.581   6.238
 7364TIP3    H222050   1.224   2.727   6.222
 7365TIP3   OH222051   5.563   1.528   2.533
 7365TIP3    H122052   5.641   1.524   2.588
 7365TIP3    H222053   5.597   1.533   2.444
 7366TIP3   OH222054   2.608   3.842   4.984
 7366TIP3    H122055   2.699   3.835   4.955
 7366TIP3    H222056   2.605   3.792   5.065
 7367TIP3   OH222057   2.842   4.012   1.741
 7367TIP3    H122058   2.871   3.932   1.698
 7367TIP3    H222059   2.914   4.074   1.729
 7368TIP3   OH222060   3.593   7.300   4.174
 7368TIP3    H122061   3.619   7.334   4.259
 7368TIP3    H222062   3.533   7.366   4.139
 7369TIP3   OH222063   6.505   3.402   2.262
 7369TIP3    H122064   6.560   3.349   2.321
 7369TIP3    H222065   6.418   3.364   2.270
 7370TIP3   OH222066   6.865   1.739   3.511
 7370TIP3    H122067   6.856   1.723   3.605
 7370TIP3    H222068   6.794   1.688   3.472
 7371TIP3   OH222069   7.248   6.814   3.398
 7371TIP3    H122070   7.194   6.826   3.476
 7371TIP3    H222071   7.267   6.720   3.396
 7372TIP3   OH222072   3.837   4.847   6.475
 7372TIP3    H122073   3.926   4.879   6.492
 7372TIP3    H222074   3.845   4.752   6.483
 7373TIP3   OH222075   2.895   0.597   3.123
 7373TIP3    H122076   2.969   0.627   3.175
 7373TIP3    H222077   2.818   0.630   3.171
 7374TIP3   OH222078   6.033   2.254   3.857
 7374TIP3    H122079   6.060   2.199   3.931
 7374TIP3    H222080   5.941   2.232   3.843
 7375TIP3   OH222081   6.143   3.873   5.129
 7375TIP3    H122082   6.231   3.872   5.166
 7375TIP3    H222083   6.156   3.888   5.036
 7376TIP3   OH222084   0.088   0.889   4.273
 7376TIP3    H122085   0.018   0.850   4.326
 7376TIP3    H222086   0.165   0.834   4.290
 7377TIP3   OH222087   8.215   5.343   0.359
 7377TIP3    H122088   8.236   5.428   0.322
 7377TIP3    H222089   8.151   5.305   0.298
 7378TIP3   OH222090   8.098   5.195   6.306
 7378TIP3    H122091   8.045   5.152   6.372
 7378TIP3    H222092   8.077   5.150   6.224
 7379TIP3   OH222093   0.105   6.504   5.529
 7379TIP3    H122094   0.092   6.409   5.533
 7379TIP3    H222095   0.079   6.528   5.440
 7380TIP3   OH222096   8.101   6.486   6.251
 7380TIP3    H122097   8.132   6.396   6.263
 7380TIP3    H222098   8.112   6.502   6.157
 7381TIP3   OH222099   3.829   4.022   0.237
 7381TIP3    H122100   3.903   4.027   0.177
 7381TIP3    H222101   3.761   3.977   0.187
 7382TIP3   OH222102   2.433   6.139   5.876
 7382TIP3    H122103   2.514   6.134   5.824
 7382TIP3    H222104   2.432   6.228   5.910
 7383TIP3   OH222105   6.683   7.520   6.095
 7383TIP3    H122106   6.600   7.522   6.047
 7383TIP3    H222107   6.725   7.439   6.066
 7384TIP3   OH222108   7.724   4.305   4.729
 7384TIP3    H122109   7.629   4.312   4.724
 7384TIP3    H222110   7.747   4.242   4.661
 7385TIP3   OH222111   0.615   5.463   4.908
 7385TIP3    H122112   0.521   5.483   4.905
 7385TIP3    H222113   0.652   5.514   4.836
 7386TIP3   OH222114   7.032   2.841   6.305
 7386TIP3    H122115   6.938   2.850   6.322
 7386TIP3    H222116   7.046   2.746   6.299
 7387TIP3   OH222117   4.472   7.500   2.027
 7387TIP3    H122118   4.542   7.501   2.093
 7387TIP3    H222119   4.447   7.408   2.020
 7388TIP3   OH222120   3.848   2.249   1.148
 7388TIP3    H122121   3.898   2.329   1.167
 7388TIP3    H222122   3.797   2.271   1.070
 7389TIP3   OH222123   0.385   7.738   0.053
 7389TIP3    H122124   0.365   7.818   0.005
 7389TIP3    H222125   0.478   7.746   0.076
 7390TIP3   OH222126   7.295   0.355   6.672
 7390TIP3    H122127   7.382   0.394   6.687
 7390TIP3    H222128   7.275   0.378   6.581
 7391TIP3   OH222129   8.100   0.374   6.190
 7391TIP3    H122130   8.125   0.400   6.101
 7391TIP3    H222131   8.150   0.433   6.247
 7392TIP3   OH222132   8.146   3.399   0.236
 7392TIP3    H122133   8.188   3.424   0.154
 7392TIP3    H222134   8.178   3.463   0.300
 7393TIP3   OH222135   3.830   1.803   3.189
 7393TIP3    H122136   3.902   1.801   3.252
 7393TIP3    H222137   3.774   1.874   3.218
 7394TIP3   OH222138   0.525   7.541   6.308
 7394TIP3    H122139   0.576   7.603   6.256
 7394TIP3    H222140   0.543   7.456   6.267
 7395TIP3   OH222141   1.126   1.086   2.821
 7395TIP3    H122142   1.053   1.096   2.883
 7395TIP3    H222143   1.089   1.034   2.749
 7396TIP3   OH222144   2.515   1.612   0.848
 7396TIP3    H122145   2.575   1.685   0.837
 7396TIP3    H222146   2.564   1.535   0.819
 7397TIP3   OH222147   2.541   7.247   5.152
 7397TIP3    H122148   2.514   7.337   5.133
 7397TIP3    H222149   2.477   7.215   5.216
 7398TIP3   OH222150   7.198   6.187   1.949
 7398TIP3    H122151   7.139   6.112   1.943
 7398TIP3    H222152   7.263   6.172   1.881
 7399TIP3   OH222153   5.760   2.827   1.403
 7399TIP3    H122154   5.845   2.868   1.420
 7399TIP3    H222155   5.696   2.888   1.441
 7400TIP3   OH222156   1.787   0.465   6.650
 7400TIP3    H122157   1.738   0.480   6.569
 7400TIP3    H222158   1.735   0.400   6.697
 7401TIP3   OH222159   5.993   3.717   3.864
 7401TIP3    H122160   5.967   3.625   3.861
 7401TIP3    H222161   5.946   3.757   3.791
 7402TIP3   OH222162   2.738   7.765   4.332
 7402TIP3    H122163   2.775   7.833   4.389
 7402TIP3    H222164   2.811   7.704   4.318
 7403TIP3   OH222165   1.595   7.692   5.981
 7403TIP3    H122166   1.532   7.704   6.052
 7403TIP3    H222167   1.576   7.764   5.920
 7404TIP3   OH222168   3.634   3.990   2.543
 7404TIP3    H122169   3.650   4.060   2.607
 7404TIP3    H222170   3.648   3.909   2.591
 7405TIP3   OH222171   1.319   2.420   2.488
 7405TIP3    H122172   1.263   2.468   2.426
 7405TIP3    H222173   1.318   2.330   2.457
 7406TIP3   OH222174   7.265   0.561   1.712
 7406TIP3    H122175   7.284   0.632   1.773
 7406TIP3    H222176   7.183   0.523   1.744
 7407TIP3   OH222177   5.238   6.319   3.208
 7407TIP3    H122178   5.154   6.344   3.171
 7407TIP3    H222179   5.273   6.254   3.147
 7408TIP3   OH222180   1.207   0.386   1.288
 7408TIP3    H122181   1.267   0.335   1.234
 7408TIP3    H222182   1.234   0.477   1.276
 7409TIP3   OH222183   1.052  -0.044   2.499
 7409TIP3    H122184   1.023  -0.076   2.584
 7409TIP3    H222185   1.077   0.047   2.514
 7410TIP3   OH222186   5.452   1.599   1.749
 7410TIP3    H122187   5.440   1.516   1.702
 7410TIP3    H222188   5.529   1.639   1.707
 7411TIP3   OH222189   4.912   1.809   1.215
 7411TIP3    H122190   4.957   1.765   1.287
 7411TIP3    H222191   4.963   1.888   1.199
 7412TIP3   OH222192   6.029   6.959   0.023
 7412TIP3    H122193   6.094   6.889   0.013
 7412TIP3    H222194   6.077   7.030   0.067
 7413TIP3   OH222195   2.412   5.242   2.024
 7413TIP3    H122196   2.494   5.268   1.982
 7413TIP3    H222197   2.350   5.311   1.999
 7414TIP3   OH222198   2.231   0.137   2.102
 7414TIP3    H122199   2.144   0.097   2.104
 7414TIP3    H222200   2.289   0.067   2.073
 7415TIP3   OH222201   3.378   5.608   4.225
 7415TIP3    H122202   3.367   5.528   4.174
 7415TIP3    H222203   3.290   5.627   4.259
 7416TIP3   OH222204   5.403   1.161   2.156
 7416TIP3    H122205   5.404   1.246   2.112
 7416TIP3    H222206   5.489   1.123   2.136
 7417TIP3   OH222207   6.298   1.902   0.969
 7417TIP3    H122208   6.324   1.818   0.932
 7417TIP3    H222209   6.376   1.933   1.015
 7418TIP3   OH222210   7.681   1.605   3.407
 7418TIP3    H122211   7.698   1.606   3.313
 7418TIP3    H222212   7.734   1.533   3.441
 7419TIP3   OH222213   3.934   7.471   5.342
 7419TIP3    H122214   3.992   7.404   5.377
 7419TIP3    H222215   3.978   7.504   5.264
 7420TIP3   OH222216   6.273   5.296   6.453
 7420TIP3    H122217   6.313   5.237   6.517
 7420TIP3    H222218   6.249   5.374   6.503
 7421TIP3   OH222219   8.088   6.371   2.856
 7421TIP3    H122220   8.089   6.359   2.761
 7421TIP3    H222221   8.028   6.304   2.888
 7422TIP3   OH222222   8.249   3.685   1.605
 7422TIP3    H122223   8.224   3.771   1.639
 7422TIP3    H222224   8.265   3.700   1.511
 7423TIP3   OH222225   3.181   1.381   3.689
 7423TIP3    H122226   3.242   1.385   3.616
 7423TIP3    H222227   3.217   1.441   3.754
 7424TIP3   OH222228   2.163   0.141   1.714
 7424TIP3    H122229   2.081   0.103   1.745
 7424TIP3    H222230   2.163   0.122   1.620
 7425TIP3   OH222231   5.280   7.619   1.722
 7425TIP3    H122232   5.348   7.684   1.737
 7425TIP3    H222233   5.316   7.538   1.758
 7426TIP3   OH222234   2.551   1.022   1.963
 7426TIP3    H122235   2.528   1.058   2.049
 7426TIP3    H222236   2.575   1.098   1.910
 7427TIP3   OH222237   6.326   0.940   3.426
 7427TIP3    H122238   6.269   0.965   3.498
 7427TIP3    H222239   6.414   0.965   3.455
 7428TIP3   OH222240   3.046   2.917   4.227
 7428TIP3    H122241   3.034   2.834   4.181
 7428TIP3    H222242   2.973   2.972   4.198
 7429TIP3   OH222243   5.253   4.519   0.523
 7429TIP3    H122244   5.328   4.472   0.559
 7429TIP3    H222245   5.237   4.476   0.439
 7430TIP3   OH222246   7.038   4.902   1.523
 7430TIP3    H122247   6.996   4.957   1.589
 7430TIP3    H222248   6.967   4.846   1.490
 7431TIP3   OH222249   6.657   4.972   0.800
 7431TIP3    H122250   6.604   4.929   0.733
 7431TIP3    H222251   6.618   5.059   0.810
 7432TIP3   OH222252   6.197   1.409   5.093
 7432TIP3    H122253   6.127   1.349   5.068
 7432TIP3    H222254   6.268   1.390   5.032
 7433TIP3   OH222255   6.596   7.275   3.035
 7433TIP3    H122256   6.569   7.184   3.047
 7433TIP3    H222257   6.657   7.291   3.106
 7434TIP3   OH222258   8.242   0.235   2.254
 7434TIP3    H122259   8.193   0.227   2.336
 7434TIP3    H222260   8.326   0.271   2.280
 7435TIP3   OH222261   6.888   2.149   2.213
 7435TIP3    H122262   6.952   2.087   2.179
 7435TIP3    H222263   6.940   2.215   2.259
 7436TIP3   OH222264   6.214   2.807   0.494
 7436TIP3    H122265   6.140   2.756   0.462
 7436TIP3    H222266   6.186   2.898   0.487
 7437TIP3   OH222267   3.773   1.230   5.341
 7437TIP3    H122268   3.802   1.285   5.414
 7437TIP3    H222269   3.678   1.228   5.348
 7438TIP3   OH222270   1.076   4.724   2.002
 7438TIP3    H122271   1.089   4.632   2.025
 7438TIP3    H222272   1.118   4.772   2.073
 7439TIP3   OH222273   5.446   5.633   5.853
 7439TIP3    H122274   5.363   5.633   5.805
 7439TIP3    H222275   5.465   5.540   5.866
 7440TIP3   OH222276   4.929   7.605   3.529
 7440TIP3    H122277   4.921   7.543   3.457
 7440TIP3    H222278   4.981   7.559   3.595
 7441TIP3   OH222279   1.097   6.454   2.387
 7441TIP3    H122280   1.157   6.520   2.421
 7441TIP3    H222281   1.010   6.488   2.406
 7442TIP3   OH222282   5.666   6.814   1.448
 7442TIP3    H122283   5.668   6.871   1.372
 7442TIP3    H222284   5.738   6.753   1.434
 7443TIP3   OH222285   0.544   3.036   6.079
 7443TIP3    H122286   0.570   3.022   5.988
 7443TIP3    H222287   0.460   3.083   6.073
 7444TIP3   OH222288   1.720   4.082   0.552
 7444TIP3    H122289   1.763   4.006   0.592
 7444TIP3    H222290   1.694   4.052   0.465
 7445TIP3   OH222291   7.934   5.154   0.607
 7445TIP3    H122292   7.954   5.120   0.520
 7445TIP3    H222293   7.891   5.081   0.652
 7446TIP3   OH222294   6.740   2.768   3.054
 7446TIP3    H122295   6.759   2.805   3.140
 7446TIP3    H222296   6.815   2.793   3.000
 7447TIP3   OH222297   7.143   2.588   6.356
 7447TIP3    H122298   7.080   2.517   6.344
 7447TIP3    H222299   7.186   2.568   6.439
 7448TIP3   OH222300   3.358   1.308   6.753
 7448TIP3    H122301   3.395   1.393   6.778
 7448TIP3    H222302   3.327   1.271   6.835
 7449TIP3   OH222303   2.803   4.490   4.747
 7449TIP3    H122304   2.822   4.398   4.765
 7449TIP3    H222305   2.883   4.537   4.772
 7450TIP3   OH222306   2.023   0.517   2.843
 7450TIP3    H122307   2.071   0.561   2.913
 7450TIP3    H222308   1.961   0.583   2.811
 7451TIP3   OH222309   7.416   0.027   0.266
 7451TIP3    H122310   7.342   0.072   0.306
 7451TIP3    H222311   7.449   0.088   0.200
 7452TIP3   OH222312   0.247   1.714   2.600
 7452TIP3    H122313   0.241   1.808   2.587
 7452TIP3    H222314   0.320   1.686   2.544
 7453TIP3   OH222315   5.128   0.359   1.793
 7453TIP3    H122316   5.152   0.305   1.868
 7453TIP3    H222317   5.075   0.301   1.738
 7454TIP3   OH222318   1.478   7.555   6.301
 7454TIP3    H122319   1.500   7.465   6.323
 7454TIP3    H222320   1.557   7.605   6.321
 7455TIP3   OH222321   8.121   6.869   1.508
 7455TIP3    H122322   8.174   6.938   1.548
 7455TIP3    H222323   8.125   6.886   1.414
 7456TIP3   OH222324   4.992   4.060   2.835
 7456TIP3    H122325   5.083   4.078   2.860
 7456TIP3    H222326   4.984   3.965   2.845
 7457TIP3   OH222327   0.860   4.393   2.025
 7457TIP3    H122328   0.776   4.423   2.058
 7457TIP3    H222329   0.838   4.326   1.961
 7458TIP3   OH222330   6.986   1.550   6.384
 7458TIP3    H122331   7.064   1.600   6.407
 7458TIP3    H222332   6.996   1.532   6.290
 7459TIP3   OH222333   5.044   0.204   6.056
 7459TIP3    H122334   4.999   0.196   5.971
 7459TIP3    H222335   5.018   0.290   6.088
 7460TIP3   OH222336   5.695   1.961   6.050
 7460TIP3    H122337   5.629   1.945   5.983
 7460TIP3    H222338   5.648   2.010   6.118
 7461TIP3   OH222339   5.273   0.111   4.355
 7461TIP3    H122340   5.296   0.130   4.446
 7461TIP3    H222341   5.355   0.083   4.315
 7462TIP3   OH222342   3.222   3.545   6.210
 7462TIP3    H122343   3.218   3.592   6.127
 7462TIP3    H222344   3.302   3.578   6.252
 7463TIP3   OH222345   7.155   0.320   3.063
 7463TIP3    H122346   7.236   0.352   3.023
 7463TIP3    H222347   7.108   0.399   3.089
 7464TIP3   OH222348   7.947   7.805   3.028
 7464TIP3    H122349   7.922   7.712   3.025
 7464TIP3    H222350   7.876   7.850   2.981
 7465TIP3   OH222351   7.909   3.403   2.535
 7465TIP3    H122352   8.004   3.409   2.527
 7465TIP3    H222353   7.886   3.322   2.491
 7466TIP3   OH222354   4.598   2.645   1.919
 7466TIP3    H122355   4.540   2.597   1.860
 7466TIP3    H222356   4.550   2.724   1.942
 7467TIP3   OH222357   8.127   6.956   1.242
 7467TIP3    H122358   8.089   7.030   1.195
 7467TIP3    H222359   8.221   6.963   1.225
 7468TIP3   OH222360   1.746   4.545   5.193
 7468TIP3    H122361   1.700   4.480   5.141
 7468TIP3    H222362   1.808   4.495   5.247
 7469TIP3   OH222363   8.203   1.564   3.755
 7469TIP3    H122364   8.200   1.600   3.667
 7469TIP3    H222365   8.113   1.538   3.775
 7470TIP3   OH222366   6.140   0.514   5.007
 7470TIP3    H122367   6.071   0.501   5.072
 7470TIP3    H222368   6.098   0.498   4.923
 7471TIP3   OH222369   3.107   0.315   4.582
 7471TIP3    H122370   3.168   0.264   4.529
 7471TIP3    H222371   3.023   0.270   4.574
 7472TIP3   OH222372   7.766   1.275   2.445
 7472TIP3    H122373   7.774   1.246   2.355
 7472TIP3    H222374   7.672   1.271   2.464
 7473TIP3   OH222375   4.907   3.747   4.661
 7473TIP3    H122376   4.921   3.668   4.713
 7473TIP3    H222377   4.876   3.812   4.724
 7474TIP3   OH222378   7.796   4.825   1.902
 7474TIP3    H122379   7.849   4.898   1.871
 7474TIP3    H222380   7.767   4.851   1.989
 7475TIP3   OH222381   0.336   0.973   1.872
 7475TIP3    H122382   0.344   0.926   1.955
 7475TIP3    H222383   0.416   1.026   1.867
 7476TIP3   OH222384   7.492   0.717   1.820
 7476TIP3    H122385   7.534   0.671   1.747
 7476TIP3    H222386   7.552   0.788   1.841
 7477TIP3   OH222387   7.629   1.499   5.418
 7477TIP3    H122388   7.694   1.491   5.487
 7477TIP3    H222389   7.545   1.497   5.463
 7478TIP3   OH222390   5.519   3.756   4.674
 7478TIP3    H122391   5.467   3.832   4.646
 7478TIP3    H222392   5.604   3.793   4.699
 7479TIP3   OH222393   0.622   7.699   4.947
 7479TIP3    H122394   0.570   7.729   5.022
 7479TIP3    H222395   0.628   7.775   4.890
 7480TIP3   OH222396   0.312   6.965   3.124
 7480TIP3    H122397   0.277   6.877   3.114
 7480TIP3    H222398   0.248   7.021   3.080
 7481TIP3   OH222399   3.423   6.633   2.728
 7481TIP3    H122400   3.371   6.623   2.807
 7481TIP3    H222401   3.495   6.691   2.753
 7482TIP3   OH222402  -0.009   5.583   0.277
 7482TIP3    H122403  -0.014   5.675   0.305
 7482TIP3    H222404   0.085   5.566   0.269
 7483TIP3   OH222405   2.614   6.763   4.038
 7483TIP3    H122406   2.527   6.767   3.996
 7483TIP3    H222407   2.675   6.777   3.966
 7484TIP3   OH222408   7.614   1.750   2.700
 7484TIP3    H122409   7.558   1.824   2.721
 7484TIP3    H222410   7.703   1.786   2.699
 7485TIP3   OH222411   7.532   1.264   3.742
 7485TIP3    H122412   7.574   1.227   3.819
 7485TIP3    H222413   7.453   1.211   3.730
 7486TIP3   OH222414   2.471   3.780   6.356
 7486TIP3    H122415   2.515   3.852   6.400
 7486TIP3    H222416   2.433   3.728   6.428
 7487TIP3   OH222417   3.075   2.811   2.627
 7487TIP3    H122418   3.062   2.722   2.658
 7487TIP3    H222419   3.168   2.815   2.604
 7488TIP3   OH222420   8.080   3.679   3.527
 7488TIP3    H122421   8.045   3.768   3.528
 7488TIP3    H222422   8.157   3.683   3.583
 7489TIP3   OH222423   4.795   0.947   1.598
 7489TIP3    H122424   4.803   1.004   1.522
 7489TIP3    H222425   4.703   0.950   1.622
 7490TIP3   OH222426   5.195   3.224   4.390
 7490TIP3    H122427   5.287   3.231   4.366
 7490TIP3    H222428   5.183   3.131   4.412
 7491TIP3   OH222429   8.067   4.314   4.626
 7491TIP3    H122430   8.129   4.372   4.670
 7491TIP3    H222431   8.121   4.263   4.566
 7492TIP3   OH222432   3.828   2.905   1.409
 7492TIP3    H122433   3.769   2.911   1.334
 7492TIP3    H222434   3.824   2.813   1.435
 7493TIP3   OH222435   1.660   7.623   4.091
 7493TIP3    H122436   1.668   7.709   4.050
 7493TIP3    H222437   1.748   7.585   4.085
 7494TIP3   OH222438   2.678   1.097   5.736
 7494TIP3    H122439   2.770   1.076   5.720
 7494TIP3    H222440   2.677   1.136   5.824
 7495TIP3   OH222441   1.004   5.896   4.711
 7495TIP3    H122442   0.999   5.985   4.746
 7495TIP3    H222443   0.948   5.898   4.633
 7496TIP3   OH222444   3.353   0.650   0.886
 7496TIP3    H122445   3.336   0.740   0.858
 7496TIP3    H222446   3.304   0.640   0.967
 7497TIP3   OH222447   2.642   0.832   5.726
 7497TIP3    H122448   2.703   0.808   5.796
 7497TIP3    H222449   2.636   0.928   5.731
 7498TIP3   OH222450   7.797   6.786   1.990
 7498TIP3    H122451   7.814   6.877   2.011
 7498TIP3    H222452   7.877   6.740   2.017
 7499TIP3   OH222453   2.463   4.201   4.995
 7499TIP3    H122454   2.466   4.154   4.912
 7499TIP3    H222455   2.552   4.235   5.007
 7500TIP3   OH222456   7.506   7.440   6.219
 7500TIP3    H122457   7.571   7.456   6.287
 7500TIP3    H222458   7.557   7.439   6.138
 7501TIP3   OH222459   3.854   7.059   5.626
 7501TIP3    H122460   3.900   7.097   5.701
 7501TIP3    H222461   3.828   6.972   5.656
 7502TIP3   OH222462   1.127   3.380   1.891
 7502TIP3    H122463   1.194   3.317   1.918
 7502TIP3    H222464   1.148   3.400   1.800
 7503TIP3   OH222465   6.411   7.677   3.733
 7503TIP3    H122466   6.464   7.756   3.740
 7503TIP3    H222467   6.416   7.637   3.820
 7504TIP3   OH222468   4.308   0.093   2.974
 7504TIP3    H122469   4.401   0.074   2.974
 7504TIP3    H222470   4.303   0.189   2.977
 7505TIP3   OH222471   1.495   2.846   3.080
 7505TIP3    H122472   1.518   2.844   2.987
 7505TIP3    H222473   1.402   2.871   3.082
 7506TIP3   OH222474   1.005   6.292   1.936
 7506TIP3    H122475   0.941   6.229   1.969
 7506TIP3    H222476   0.960   6.339   1.866
 7507TIP3   OH222477   7.317   3.518   3.479
 7507TIP3    H122478   7.223   3.528   3.469
 7507TIP3    H222479   7.334   3.426   3.458
 7508TIP3   OH222480   7.552   4.545   3.878
 7508TIP3    H122481   7.636   4.539   3.923
 7508TIP3    H222482   7.509   4.461   3.894
 7509TIP3   OH222483   1.280   1.320   1.397
 7509TIP3    H122484   1.286   1.340   1.490
 7509TIP3    H222485   1.348   1.375   1.357
 7510TIP3   OH222486   1.061   5.925   5.178
 7510TIP3    H122487   1.062   5.989   5.108
 7510TIP3    H222488   1.014   5.968   5.250
 7511TIP3   OH222489   6.080   0.899   6.385
 7511TIP3    H122490   6.072   0.804   6.396
 7511TIP3    H222491   6.170   0.911   6.354
 7512TIP3   OH222492   7.395   6.315   0.186
 7512TIP3    H122493   7.326   6.378   0.205
 7512TIP3    H222494   7.468   6.341   0.243
 7513TIP3   OH222495   2.538   0.365   5.800
 7513TIP3    H122496   2.574   0.397   5.717
 7513TIP3    H222497   2.505   0.278   5.780
 7514TIP3   OH222498   0.866   4.244   0.136
 7514TIP3    H122499   0.957   4.269   0.123
 7514TIP3    H222500   0.866   4.149   0.135
 7515TIP3   OH222501   3.529   4.214   4.719
 7515TIP3    H122502   3.479   4.135   4.743
 7515TIP3    H222503   3.560   4.249   4.803
 7516TIP3   OH222504   1.738   5.048   1.971
 7516TIP3    H122505   1.831   5.068   1.963
 7516TIP3    H222506   1.699   5.083   1.892
 7517TIP3   OH222507   4.863   0.331   1.427
 7517TIP3    H122508   4.892   0.240   1.424
 7517TIP3    H222509   4.801   0.334   1.500
 7518TIP3   OH222510   2.956   4.213   4.732
 7518TIP3    H122511   2.960   4.119   4.713
 7518TIP3    H222512   2.997   4.254   4.656
 7519TIP3   OH222513   3.229   2.470   6.300
 7519TIP3    H122514   3.139   2.495   6.278
 7519TIP3    H222515   3.220   2.387   6.346
 7520TIP3   OH222516   4.186   4.138   2.665
 7520TIP3    H122517   4.214   4.058   2.621
 7520TIP3    H222518   4.257   4.159   2.726
 7521TIP3   OH222519   2.376   6.313   3.668
 7521TIP3    H122520   2.377   6.408   3.679
 7521TIP3    H222521   2.321   6.299   3.591
 7522TIP3   OH222522   7.038   2.861   2.245
 7522TIP3    H122523   6.946   2.836   2.251
 7522TIP3    H222524   7.053   2.916   2.321
 7523TIP3   OH222525   6.863   4.728   2.211
 7523TIP3    H122526   6.848   4.662   2.278
 7523TIP3    H222527   6.778   4.739   2.169
 7524TIP3   OH222528   8.236   5.635   2.237
 7524TIP3    H122529   8.142   5.630   2.223
 7524TIP3    H222530   8.248   5.613   2.330
 7525TIP3   OH222531   7.504   0.025   4.008
 7525TIP3    H122532   7.473   0.063   3.925
 7525TIP3    H222533   7.598   0.014   3.996
 7526TIP3   OH222534   4.386   7.273   4.550
 7526TIP3    H122535   4.380   7.265   4.455
 7526TIP3    H222536   4.343   7.194   4.584
 7527TIP3   OH222537   3.515   3.241   3.714
 7527TIP3    H122538   3.517   3.148   3.735
 7527TIP3    H222539   3.424   3.267   3.730
 7528TIP3   OH222540   4.028   2.823   6.677
 7528TIP3    H122541   4.060   2.749   6.626
 7528TIP3    H222542   4.020   2.789   6.766
 7529TIP3   OH222543   0.745   3.574   4.270
 7529TIP3    H122544   0.682   3.638   4.305
 7529TIP3    H222545   0.816   3.573   4.333
 7530TIP3   OH222546   2.321   2.435   4.015
 7530TIP3    H122547   2.313   2.530   4.021
 7530TIP3    H222548   2.234   2.405   3.990
 7531TIP3   OH222549   1.569   6.113   4.180
 7531TIP3    H122550   1.476   6.114   4.155
 7531TIP3    H222551   1.571   6.066   4.263
 7532TIP3   OH222552   3.563   2.764   2.097
 7532TIP3    H122553   3.475   2.747   2.065
 7532TIP3    H222554   3.581   2.854   2.072
 7533TIP3   OH222555   7.532   3.687   6.431
 7533TIP3    H122556   7.494   3.677   6.344
 7533TIP3    H222557   7.457   3.700   6.489
 7534TIP3   OH222558   7.971   1.156   1.642
 7534TIP3    H122559   7.945   1.092   1.576
 7534TIP3    H222560   8.018   1.224   1.594
 7535TIP3   OH222561   3.893   3.387   1.679
 7535TIP3    H122562   3.895   3.303   1.724
 7535TIP3    H222563   3.882   3.451   1.748
 7536TIP3   OH222564   1.793   0.874   4.595
 7536TIP3    H122565   1.882   0.909   4.589
 7536TIP3    H222566   1.753   0.924   4.667
 7537TIP3   OH222567   0.476   3.960   5.760
 7537TIP3    H122568   0.521   4.001   5.686
 7537TIP3    H222569   0.429   3.886   5.721
 7538TIP3   OH222570   3.805   3.980   4.162
 7538TIP3    H122571   3.710   3.987   4.153
 7538TIP3    H222572   3.839   4.056   4.115
 7539TIP3   OH222573   7.505   5.633   2.830
 7539TIP3    H122574   7.410   5.633   2.831
 7539TIP3    H222575   7.529   5.540   2.832
 7540TIP3   OH222576   4.797   0.753   2.116
 7540TIP3    H122577   4.713   0.762   2.161
 7540TIP3    H222578   4.793   0.667   2.074
 7541TIP3   OH222579   0.916   7.125   4.430
 7541TIP3    H122580   0.912   7.154   4.339
 7541TIP3    H222581   0.957   7.197   4.477
 7542TIP3   OH222582   7.004   1.384   6.667
 7542TIP3    H122583   6.950   1.440   6.723
 7542TIP3    H222584   7.020   1.437   6.589
 7543TIP3   OH222585   4.290   5.301   3.583
 7543TIP3    H122586   4.222   5.249   3.624
 7543TIP3    H222587   4.253   5.329   3.500
 7544TIP3   OH222588   5.070   3.767   3.399
 7544TIP3    H122589   5.136   3.762   3.329
 7544TIP3    H222590   5.075   3.682   3.443
 7545TIP3   OH222591   7.858   4.252   2.699
 7545TIP3    H122592   7.800   4.183   2.666
 7545TIP3    H222593   7.898   4.215   2.777
 7546TIP3   OH222594   5.786   3.293   4.558
 7546TIP3    H122595   5.790   3.269   4.651
 7546TIP3    H222596   5.799   3.210   4.512
 7547TIP3   OH222597   7.316   2.307   3.490
 7547TIP3    H122598   7.231   2.326   3.530
 7547TIP3    H222599   7.377   2.310   3.564
 7548TIP3   OH222600   4.336   6.460   1.794
 7548TIP3    H122601   4.307   6.382   1.747
 7548TIP3    H222602   4.368   6.519   1.725
 7549TIP3   OH222603   8.029   3.786   4.941
 7549TIP3    H122604   8.069   3.738   4.868
 7549TIP3    H222605   8.031   3.878   4.914
 7550TIP3   OH222606   6.412   4.696   0.295
 7550TIP3    H122607   6.363   4.721   0.374
 7550TIP3    H222608   6.501   4.727   0.312
 7551TIP3   OH222609   6.041   4.565   3.223
 7551TIP3    H122610   6.101   4.563   3.298
 7551TIP3    H222611   6.014   4.657   3.217
 7552TIP3   OH222612   2.904   6.201   4.072
 7552TIP3    H122613   2.982   6.177   4.022
 7552TIP3    H222614   2.939   6.240   4.152
 7553TIP3   OH222615   1.211   5.115   5.432
 7553TIP3    H122616   1.301   5.087   5.417
 7553TIP3    H222617   1.216   5.210   5.437
 7554TIP3   OH222618   1.973   0.614   6.816
 7554TIP3    H122619   1.921   0.562   6.754
 7554TIP3    H222620   1.994   0.694   6.768
 7555TIP3   OH222621   4.150   5.217   6.272
 7555TIP3    H122622   4.120   5.270   6.346
 7555TIP3    H222623   4.224   5.265   6.235
 7556TIP3   OH222624   5.373   5.060   3.439
 7556TIP3    H122625   5.323   5.090   3.515
 7556TIP3    H222626   5.339   5.111   3.366
 7557TIP3   OH222627   3.529   4.328   0.518
 7557TIP3    H122628   3.556   4.414   0.486
 7557TIP3    H222629   3.452   4.345   0.572
 7558TIP3   OH222630   5.665   1.227   5.726
 7558TIP3    H122631   5.684   1.134   5.724
 7558TIP3    H222632   5.570   1.233   5.717
 7559TIP3   OH222633   7.013   3.952   4.105
 7559TIP3    H122634   6.952   3.891   4.064
 7559TIP3    H222635   6.971   4.038   4.099
 7560TIP3   OH222636   1.931   2.240   4.676
 7560TIP3    H122637   1.974   2.157   4.655
 7560TIP3    H222638   1.987   2.279   4.742
 7561TIP3   OH222639   6.230   2.800   4.159
 7561TIP3    H122640   6.177   2.771   4.233
 7561TIP3    H222641   6.167   2.819   4.090
 7562TIP3   OH222642   7.593   5.429   3.548
 7562TIP3    H122643   7.667   5.443   3.607
 7562TIP3    H222644   7.559   5.517   3.532
 7563TIP3   OH222645   3.159   4.914   2.902
 7563TIP3    H122646   3.118   4.984   2.851
 7563TIP3    H222647   3.179   4.953   2.986
 7564TIP3   OH222648   2.441   5.672   5.773
 7564TIP3    H122649   2.446   5.669   5.868
 7564TIP3    H222650   2.457   5.764   5.751
 7565TIP3   OH222651   1.800   3.837   0.601
 7565TIP3    H122652   1.740   3.789   0.659
 7565TIP3    H222653   1.886   3.802   0.621
 7566TIP3   OH222654   0.282   1.183   6.345
 7566TIP3    H122655   0.314   1.118   6.409
 7566TIP3    H222656   0.207   1.224   6.388
 7567TIP3   OH222657   4.405   2.780   4.433
 7567TIP3    H122658   4.356   2.745   4.359
 7567TIP3    H222659   4.342   2.836   4.479
 7568TIP3   OH222660   8.170   7.229   4.306
 7568TIP3    H122661   8.177   7.157   4.243
 7568TIP3    H222662   8.076   7.248   4.309
 7569TIP3   OH222663   7.849   7.139   3.436
 7569TIP3    H122664   7.861   7.113   3.345
 7569TIP3    H222665   7.883   7.065   3.488
 7570TIP3   OH222666   4.564   2.698   5.114
 7570TIP3    H122667   4.479   2.714   5.073
 7570TIP3    H222668   4.605   2.785   5.120
 7571TIP3   OH222669   5.284   5.385   0.270
 7571TIP3    H122670   5.371   5.421   0.253
 7571TIP3    H222671   5.225   5.442   0.220
 7572TIP3   OH222672   0.098   4.266   4.053
 7572TIP3    H122673   0.007   4.249   4.028
 7572TIP3    H222674   0.091   4.308   4.139
 7573TIP3   OH222675   4.454   5.628   2.613
 7573TIP3    H122676   4.373   5.677   2.619
 7573TIP3    H222677   4.464   5.610   2.519
 7574TIP3   OH222678   0.237   4.673   2.571
 7574TIP3    H122679   0.198   4.595   2.532
 7574TIP3    H222680   0.331   4.660   2.561
 7575TIP3   OH222681   5.615   0.302   5.563
 7575TIP3    H122682   5.609   0.230   5.627
 7575TIP3    H222683   5.645   0.377   5.613
 7576TIP3   OH222684   1.819   6.746   2.913
 7576TIP3    H122685   1.832   6.664   2.866
 7576TIP3    H222686   1.760   6.797   2.857
 7577TIP3   OH222687   2.789   0.047   4.975
 7577TIP3    H122688   2.864   0.022   5.030
 7577TIP3    H222689   2.714   0.001   5.014
 7578TIP3   OH222690   2.765   3.327   1.659
 7578TIP3    H122691   2.753   3.240   1.622
 7578TIP3    H222692   2.857   3.348   1.643
 7579TIP3   OH222693   7.269   1.048   4.929
 7579TIP3    H122694   7.348   1.046   4.874
 7579TIP3    H222695   7.266   1.137   4.962
 7580TIP3   OH222696   8.217   7.192   4.846
 7580TIP3    H122697   8.142   7.214   4.792
 7580TIP3    H222698   8.274   7.141   4.789
 7581TIP3   OH222699   6.643   4.443   3.556
 7581TIP3    H122700   6.604   4.356   3.552
 7581TIP3    H222701   6.575   4.497   3.596
 7582TIP3   OH222702   6.882   4.456   2.039
 7582TIP3    H122703   6.808   4.417   1.992
 7582TIP3    H222704   6.895   4.399   2.115
 7583TIP3   OH222705   2.051   3.073   1.155
 7583TIP3    H122706   2.143   3.080   1.129
 7583TIP3    H222707   2.046   2.993   1.207
 7584TIP3   OH222708   0.432   7.559   3.397
 7584TIP3    H122709   0.389   7.644   3.386
 7584TIP3    H222710   0.525   7.579   3.404
 7585TIP3   OH222711   5.090   4.929   1.831
 7585TIP3    H122712   5.026   4.860   1.814
 7585TIP3    H222713   5.148   4.929   1.755
 7586TIP3   OH222714   2.673   5.900   3.387
 7586TIP3    H122715   2.652   5.963   3.455
 7586TIP3    H222716   2.768   5.903   3.379
 7587TIP3   OH222717   2.109   7.769   4.503
 7587TIP3    H122718   2.030   7.714   4.505
 7587TIP3    H222719   2.078   7.854   4.472
 7588TIP3   OH222720   6.371   0.724   4.499
 7588TIP3    H122721   6.364   0.819   4.490
 7588TIP3    H222722   6.288   0.697   4.539
 7589TIP3   OH222723   6.288   4.197   0.156
 7589TIP3    H122724   6.236   4.137   0.209
 7589TIP3    H222725   6.280   4.163   0.067
 7590TIP3   OH222726   6.554   1.077   5.111
 7590TIP3    H122727   6.508   1.140   5.056
 7590TIP3    H222728   6.637   1.062   5.066
 7591TIP3   OH222729   7.524   4.831   3.803
 7591TIP3    H122730   7.435   4.820   3.837
 7591TIP3    H222731   7.568   4.749   3.825
 7592TIP3   OH222732   6.923   0.400   0.420
 7592TIP3    H122733   6.902   0.363   0.334
 7592TIP3    H222734   7.004   0.448   0.406
 7593TIP3   OH222735   4.057   1.503   0.398
 7593TIP3    H122736   4.009   1.559   0.459
 7593TIP3    H222737   4.006   1.506   0.317
 7594TIP3   OH222738   8.225   4.548   5.281
 7594TIP3    H122739   8.301   4.604   5.263
 7594TIP3    H222740   8.164   4.565   5.210
 7595TIP3   OH222741   3.984   0.635   3.329
 7595TIP3    H122742   3.928   0.564   3.362
 7595TIP3    H222743   4.071   0.612   3.361
 7596TIP3   OH222744   3.519   1.460   2.180
 7596TIP3    H122745   3.504   1.397   2.250
 7596TIP3    H222746   3.433   1.502   2.167
 7597TIP3   OH222747   5.360   5.013   6.697
 7597TIP3    H122748   5.383   4.953   6.625
 7597TIP3    H222749   5.266   5.030   6.684
 7598TIP3   OH222750   4.383   2.323   0.199
 7598TIP3    H122751   4.418   2.237   0.178
 7598TIP3    H222752   4.320   2.306   0.269
 7599TIP3   OH222753   0.307   4.516   3.010
 7599TIP3    H122754   0.293   4.435   2.961
 7599TIP3    H222755   0.357   4.572   2.951
 7600TIP3   OH222756   6.401   6.402   4.522
 7600TIP3    H122757   6.413   6.485   4.569
 7600TIP3    H222758   6.458   6.410   4.445
 7601TIP3   OH222759   6.910   0.096   2.513
 7601TIP3    H122760   6.998   0.085   2.549
 7601TIP3    H222761   6.858   0.027   2.554
 7602TIP3   OH222762   5.645   6.119   5.207
 7602TIP3    H122763   5.569   6.061   5.198
 7602TIP3    H222764   5.609   6.202   5.238
 7603TIP3   OH222765   0.843   0.849   4.276
 7603TIP3    H122766   0.766   0.861   4.220
 7603TIP3    H222767   0.887   0.934   4.274
 7604TIP3   OH222768   5.896   6.799   4.949
 7604TIP3    H122769   5.909   6.706   4.966
 7604TIP3    H222770   5.844   6.801   4.868
 7605TIP3   OH222771   2.103   3.141   4.193
 7605TIP3    H122772   2.079   3.229   4.165
 7605TIP3    H222773   2.092   3.086   4.115
 7606TIP3   OH222774   3.055   6.029   2.045
 7606TIP3    H122775   3.105   6.084   2.105
 7606TIP3    H222776   2.970   6.072   2.039
 7607TIP3   OH222777   3.748   3.114   4.278
 7607TIP3    H122778   3.681   3.172   4.314
 7607TIP3    H222779   3.712   3.085   4.194
 7608TIP3   OH222780   0.051   2.919   2.954
 7608TIP3    H122781   0.053   2.878   3.041
 7608TIP3    H222782   0.143   2.918   2.926
 7609TIP3   OH222783   7.942   4.433   3.672
 7609TIP3    H122784   8.024   4.457   3.628
 7609TIP3    H222785   7.969   4.407   3.760
 7610TIP3   OH222786   0.928   5.226   3.421
 7610TIP3    H122787   1.001   5.257   3.366
 7610TIP3    H222788   0.970   5.171   3.487
 7611TIP3   OH222789   6.708   3.730   2.764
 7611TIP3    H122790   6.622   3.689   2.771
 7611TIP3    H222791   6.766   3.672   2.813
 7612TIP3   OH222792   7.772   0.454   2.792
 7612TIP3    H122793   7.843   0.496   2.745
 7612TIP3    H222794   7.694   0.502   2.766
 7613TIP3   OH222795   2.110   7.545   4.708
 7613TIP3    H122796   2.194   7.580   4.679
 7613TIP3    H222797   2.128   7.452   4.725
 7614TIP3   OH222798   1.034   0.260   6.476
 7614TIP3    H122799   0.972   0.284   6.406
 7614TIP3    H222800   1.060   0.345   6.513
 7615TIP3   OH222801   6.448   0.342   6.352
 7615TIP3    H122802   6.366   0.351   6.303
 7615TIP3    H222803   6.503   0.413   6.319
 7616TIP3   OH222804   3.370   7.193   6.019
 7616TIP3    H122805   3.370   7.260   6.088
 7616TIP3    H222806   3.429   7.228   5.952
 7617TIP3   OH222807   2.584   1.396   0.408
 7617TIP3    H122808   2.584   1.482   0.450
 7617TIP3    H222809   2.677   1.376   0.393
 7618TIP3   OH222810   1.732   4.987   3.478
 7618TIP3    H122811   1.751   5.043   3.403
 7618TIP3    H222812   1.764   5.036   3.554
 7619TIP3   OH222813   7.380   6.457   4.330
 7619TIP3    H122814   7.345   6.540   4.299
 7619TIP3    H222815   7.440   6.481   4.400
 7620TIP3   OH222816   4.664   4.333   6.663
 7620TIP3    H122817   4.613   4.402   6.706
 7620TIP3    H222818   4.650   4.255   6.718
 7621TIP3   OH222819   0.448   3.966   6.028
 7621TIP3    H122820   0.448   4.061   6.030
 7621TIP3    H222821   0.456   3.944   5.935
 7622TIP3   OH222822   0.462   4.779   1.198
 7622TIP3    H122823   0.421   4.837   1.135
 7622TIP3    H222824   0.501   4.837   1.263
 7623TIP3   OH222825   4.700   6.836   4.531
 7623TIP3    H122826   4.651   6.769   4.484
 7623TIP3    H222827   4.792   6.820   4.508
 7624TIP3   OH222828   5.624   3.804   3.422
 7624TIP3    H122829   5.589   3.880   3.376
 7624TIP3    H222830   5.709   3.788   3.381
 7625TIP3   OH222831   6.828   5.809   3.704
 7625TIP3    H122832   6.770   5.736   3.681
 7625TIP3    H222833   6.811   5.875   3.637
 7626TIP3   OH222834   3.328   5.970   3.866
 7626TIP3    H122835   3.414   5.994   3.902
 7626TIP3    H222836   3.266   6.017   3.922
 7627TIP3   OH222837   7.026   7.131   0.929
 7627TIP3    H122838   6.981   7.072   0.990
 7627TIP3    H222839   7.048   7.208   0.982
 7628TIP3   OH222840   4.706  -0.020   5.800
 7628TIP3    H122841   4.628   0.023   5.834
 7628TIP3    H222842   4.707   0.001   5.707
 7629TIP3   OH222843   2.580   0.700   6.564
 7629TIP3    H122844   2.576   0.610   6.533
 7629TIP3    H222845   2.667   0.730   6.540
 7630TIP3   OH222846   7.967   5.149   3.524
 7630TIP3    H122847   7.943   5.235   3.489
 7630TIP3    H222848   7.908   5.088   3.480
 7631TIP3   OH222849   1.072   2.859   0.564
 7631TIP3    H122850   1.005   2.849   0.632
 7631TIP3    H222851   1.050   2.794   0.498
 7632TIP3   OH222852   3.913   1.868   4.075
 7632TIP3    H122853   3.878   1.782   4.098
 7632TIP3    H222854   4.008   1.859   4.085
 7633TIP3   OH222855   3.843   7.600   4.999
 7633TIP3    H122856   3.888   7.666   4.947
 7633TIP3    H222857   3.791   7.650   5.062
 7634TIP3   OH222858   5.908   7.089   0.304
 7634TIP3    H122859   5.815   7.084   0.327
 7634TIP3    H222860   5.953   7.094   0.388
 7635TIP3   OH222861   3.399   6.472   0.473
 7635TIP3    H122862   3.341   6.460   0.548
 7635TIP3    H222863   3.353   6.535   0.417
 7636TIP3   OH222864   1.141   1.307   3.802
 7636TIP3    H122865   1.159   1.381   3.860
 7636TIP3    H222866   1.052   1.323   3.771
 7637TIP3   OH222867   4.543   7.621   1.585
 7637TIP3    H122868   4.493   7.659   1.657
 7637TIP3    H222869   4.505   7.534   1.572
 7638TIP3   OH222870   4.694   4.693   1.725
 7638TIP3    H122871   4.620   4.640   1.696
 7638TIP3    H222872   4.684   4.698   1.820
 7639TIP3   OH222873   5.944   6.196   1.392
 7639TIP3    H122874   6.026   6.245   1.397
 7639TIP3    H222875   5.902   6.228   1.311
 7640TIP3   OH222876   0.249   3.826   2.757
 7640TIP3    H122877   0.342   3.828   2.734
 7640TIP3    H222878   0.224   3.734   2.746
 7641TIP3   OH222879   2.899   3.833   5.255
 7641TIP3    H122880   2.978   3.888   5.248
 7641TIP3    H222881   2.922   3.766   5.319
 7642TIP3   OH222882   0.492   4.379   5.228
 7642TIP3    H122883   0.569   4.337   5.267
 7642TIP3    H222884   0.481   4.460   5.278
 7643TIP3   OH222885   4.491   0.540   5.296
 7643TIP3    H122886   4.421   0.474   5.306
 7643TIP3    H222887   4.526   0.525   5.209
 7644TIP3   OH222888   3.887   2.319   1.853
 7644TIP3    H122889   3.902   2.409   1.883
 7644TIP3    H222890   3.878   2.269   1.934
 7645TIP3   OH222891   5.251   4.059   0.558
 7645TIP3    H122892   5.250   3.963   0.553
 7645TIP3    H222893   5.191   4.087   0.489
 7646TIP3   OH222894   0.281   0.529   4.959
 7646TIP3    H122895   0.375   0.543   4.957
 7646TIP3    H222896   0.254   0.528   4.867
 7647TIP3   OH222897   5.170   3.559   6.644
 7647TIP3    H122898   5.081   3.574   6.613
 7647TIP3    H222899   5.222   3.627   6.602
 7648TIP3   OH222900   1.110   0.785   5.203
 7648TIP3    H122901   1.018   0.763   5.192
 7648TIP3    H222902   1.109   0.874   5.239
 7649TIP3   OH222903   6.416   5.656   4.510
 7649TIP3    H122904   6.456   5.578   4.548
 7649TIP3    H222905   6.490   5.705   4.473
 7650TIP3   OH222906   4.159   4.455   5.064
 7650TIP3    H122907   4.245   4.486   5.035
 7650TIP3    H222908   4.132   4.392   4.996
 7651TIP3   OH222909   1.624   5.679   1.227
 7651TIP3    H122910   1.551   5.724   1.183
 7651TIP3    H222911   1.678   5.645   1.156
 7652TIP3   OH222912   0.638   0.520   6.050
 7652TIP3    H122913   0.674   0.463   5.983
 7652TIP3    H222914   0.563   0.472   6.085
 7653TIP3   OH222915   1.454   2.042   3.883
 7653TIP3    H122916   1.527   2.031   3.822
 7653TIP3    H222917   1.456   2.134   3.907
 7654TIP3   OH222918   3.042   1.861   0.077
 7654TIP3    H122919   2.978   1.825   0.138
 7654TIP3    H222920   3.116   1.800   0.081
 7655TIP3   OH222921   5.876   6.308   2.688
 7655TIP3    H122922   5.866   6.378   2.624
 7655TIP3    H222923   5.969   6.311   2.713
 7656TIP3   OH222924   1.605   2.136   2.736
 7656TIP3    H122925   1.609   2.121   2.642
 7656TIP3    H222926   1.638   2.055   2.775
 7657TIP3   OH222927   1.161   3.414   1.592
 7657TIP3    H122928   1.145   3.403   1.498
 7657TIP3    H222929   1.252   3.389   1.605
 7658TIP3   OH222930   0.804   4.734   6.184
 7658TIP3    H122931   0.881   4.684   6.157
 7658TIP3    H222932   0.734   4.703   6.126
 7659TIP3   OH222933   0.929   4.928   1.871
 7659TIP3    H122934   0.973   4.850   1.905
 7659TIP3    H222935   0.870   4.955   1.941
 7660TIP3   OH222936   6.331   4.851   2.948
 7660TIP3    H122937   6.421   4.856   2.981
 7660TIP3    H222938   6.339   4.862   2.853
 7661TIP3   OH222939   0.679   6.019   3.460
 7661TIP3    H122940   0.648   6.046   3.373
 7661TIP3    H222941   0.697   6.102   3.505
 7662TIP3   OH222942   5.202   0.885   3.538
 7662TIP3    H122943   5.258   0.831   3.595
 7662TIP3    H222944   5.114   0.872   3.572
 7663TIP3   OH222945   7.752   0.284   4.776
 7663TIP3    H122946   7.727   0.197   4.745
 7663TIP3    H222947   7.776   0.270   4.868
 7664TIP3   OH222948   5.680   7.390   4.420
 7664TIP3    H122949   5.714   7.319   4.366
 7664TIP3    H222950   5.653   7.347   4.502
 7665TIP3   OH222951   1.550   0.635   6.798
 7665TIP3    H122952   1.613   0.578   6.755
 7665TIP3    H222953   1.473   0.632   6.741
 7666TIP3   OH222954   1.346   4.030   5.887
 7666TIP3    H122955   1.296   3.949   5.873
 7666TIP3    H222956   1.437   4.001   5.898
 7667TIP3   OH222957   6.128   3.611   6.168
 7667TIP3    H122958   6.128   3.700   6.134
 7667TIP3    H222959   6.211   3.573   6.137
 7668TIP3   OH222960   2.223   6.819   2.017
 7668TIP3    H122961   2.268   6.900   2.041
 7668TIP3    H222962   2.205   6.828   1.924
 7669TIP3   OH222963   6.301   6.787   6.032
 7669TIP3    H122964   6.271   6.819   6.117
 7669TIP3    H222965   6.274   6.696   6.029
 7670TIP3   OH222966   4.260   0.278   1.861
 7670TIP3    H122967   4.245   0.330   1.782
 7670TIP3    H222968   4.258   0.187   1.831
 7671TIP3   OH222969   1.988   7.228   4.537
 7671TIP3    H122970   2.066   7.235   4.593
 7671TIP3    H222971   1.931   7.165   4.583
 7672TIP3   OH222972   2.126   3.806   4.153
 7672TIP3    H122973   2.159   3.758   4.077
 7672TIP3    H222974   2.049   3.852   4.121
 7673TIP3   OH222975   5.330   2.835   3.955
 7673TIP3    H122976   5.331   2.854   4.049
 7673TIP3    H222977   5.411   2.787   3.939
 7674TIP3   OH222978   7.930  -0.028   4.656
 7674TIP3    H122979   7.959   0.030   4.586
 7674TIP3    H222980   7.842   0.002   4.679
 7675TIP3   OH222981   6.991   2.867   1.040
 7675TIP3    H122982   7.054   2.906   0.980
 7675TIP3    H222983   6.917   2.843   0.985
 7676TIP3   OH222984   7.918   4.393   4.947
 7676TIP3    H122985   7.977   4.324   4.977
 7676TIP3    H222986   7.886   4.362   4.862
 7677TIP3   OH222987   1.726   5.766   4.568
 7677TIP3    H122988   1.695   5.678   4.548
 7677TIP3    H222989   1.808   5.775   4.519
 7678TIP3   OH222990   5.895   6.920   2.853
 7678TIP3    H122991   5.869   6.949   2.766
 7678TIP3    H222992   5.894   6.824   2.848
 7679TIP3   OH222993   0.420   7.710   2.116
 7679TIP3    H122994   0.440   7.745   2.203
 7679TIP3    H222995   0.325   7.696   2.117
 7680TIP3   OH222996   2.076   2.691   0.365
 7680TIP3    H122997   1.999   2.715   0.313
 7680TIP3    H222998   2.144   2.670   0.300
 7681TIP3   OH222999   2.456   3.110   1.413
 7681TIP3    H123000   2.518   3.078   1.479
 7681TIP3    H223001   2.412   3.184   1.456
 7682TIP3   OH223002   0.533   6.530   5.124
 7682TIP3    H123003   0.515   6.446   5.081
 7682TIP3    H223004   0.611   6.562   5.080
 7683TIP3   OH223005   7.331   7.578   1.484
 7683TIP3    H123006   7.313   7.486   1.465
 7683TIP3    H223007   7.370   7.612   1.404
 7684TIP3   OH223008   3.227   2.066   6.686
 7684TIP3    H123009   3.165   1.994   6.680
 7684TIP3    H223010   3.232   2.087   6.779
 7685TIP3   OH223011   6.431   2.226   2.578
 7685TIP3    H123012   6.469   2.200   2.494
 7685TIP3    H223013   6.485   2.181   2.643
 7686TIP3   OH223014   4.652   7.292   1.598
 7686TIP3    H123015   4.604   7.225   1.646
 7686TIP3    H223016   4.675   7.357   1.665
 7687TIP3   OH223017   5.737   5.771   1.899
 7687TIP3    H123018   5.706   5.688   1.936
 7687TIP3    H223019   5.831   5.757   1.885
 7688TIP3   OH223020   5.646   7.012   4.539
 7688TIP3    H123021   5.637   6.918   4.527
 7688TIP3    H223022   5.675   7.022   4.630
 7689TIP3   OH223023   6.940   5.465   0.457
 7689TIP3    H123024   7.001   5.536   0.482
 7689TIP3    H223025   6.955   5.397   0.523
 7690TIP3   OH223026   1.882   7.114   6.753
 7690TIP3    H123027   1.856   7.022   6.754
 7690TIP3    H223028   1.978   7.112   6.755
 7691TIP3   OH223029   4.281   7.170   0.645
 7691TIP3    H123030   4.228   7.203   0.717
 7691TIP3    H223031   4.257   7.077   0.638
 7692TIP3   OH223032   4.137   0.584   2.626
 7692TIP3    H123033   4.108   0.493   2.635
 7692TIP3    H223034   4.125   0.603   2.533
 7693TIP3   OH223035   0.887   4.681   0.222
 7693TIP3    H123036   0.871   4.720   0.308
 7693TIP3    H223037   0.884   4.755   0.161
 7694TIP3   OH223038   7.878   5.244   2.958
 7694TIP3    H123039   7.948   5.308   2.946
 7694TIP3    H223040   7.886   5.185   2.884
 7695TIP3   OH223041   1.140   2.109   4.701
 7695TIP3    H123042   1.072   2.083   4.639
 7695TIP3    H223043   1.221   2.107   4.649
 7696TIP3   OH223044   4.757   2.185   1.378
 7696TIP3    H123045   4.796   2.187   1.291
 7696TIP3    H223046   4.755   2.276   1.406
 7697TIP3   OH223047   6.827   2.762   2.696
 7697TIP3    H123048   6.875   2.841   2.722
 7697TIP3    H223049   6.871   2.691   2.744
 7698TIP3   OH223050   1.984   6.737   3.137
 7698TIP3    H123051   1.891   6.754   3.149
 7698TIP3    H223052   2.013   6.804   3.075
 7699TIP3   OH223053   6.196   2.144   5.143
 7699TIP3    H123054   6.175   2.061   5.187
 7699TIP3    H223055   6.255   2.189   5.204
 7700TIP3   OH223056   5.404   7.393   2.699
 7700TIP3    H123057   5.404   7.300   2.723
 7700TIP3    H223058   5.389   7.439   2.782
 7701TIP3   OH223059   7.819   0.379   4.379
 7701TIP3    H123060   7.785   0.424   4.456
 7701TIP3    H223061   7.860   0.449   4.327
 7702TIP3   OH223062   6.762   1.511   5.505
 7702TIP3    H123063   6.706   1.452   5.555
 7702TIP3    H223064   6.830   1.539   5.566
 7703TIP3   OH223065   4.324   6.333   6.296
 7703TIP3    H123066   4.314   6.378   6.380
 7703TIP3    H223067   4.418   6.317   6.288
 7704TIP3   OH223068   7.644   0.500   6.012
 7704TIP3    H123069   7.611   0.506   6.102
 7704TIP3    H223070   7.661   0.406   6.000
 7705TIP3   OH223071   1.989   5.138   0.189
 7705TIP3    H123072   1.937   5.195   0.247
 7705TIP3    H223073   1.924   5.096   0.132
 7706TIP3   OH223074   4.763   4.801   3.569
 7706TIP3    H123075   4.806   4.871   3.620
 7706TIP3    H223076   4.727   4.846   3.493
 7707TIP3   OH223077   5.734   0.298   2.381
 7707TIP3    H123078   5.682   0.370   2.344
 7707TIP3    H223079   5.735   0.231   2.312
 7708TIP3   OH223080   5.572   2.001   4.791
 7708TIP3    H123081   5.641   2.034   4.733
 7708TIP3    H223082   5.498   1.985   4.733
 7709TIP3   OH223083   7.384   5.351   4.476
 7709TIP3    H123084   7.459   5.411   4.475
 7709TIP3    H223085   7.319   5.392   4.420
 7710TIP3   OH223086   6.366   3.289   3.853
 7710TIP3    H123087   6.314   3.209   3.859
 7710TIP3    H223088   6.428   3.283   3.926
 7711TIP3   OH223089   1.622   1.012   3.148
 7711TIP3    H123090   1.639   0.983   3.059
 7711TIP3    H223091   1.571   0.940   3.188
 7712TIP3   OH223092   3.057   3.090   0.685
 7712TIP3    H123093   2.973   3.115   0.723
 7712TIP3    H223094   3.050   3.113   0.592
 7713TIP3   OH223095   7.367   1.667   4.227
 7713TIP3    H123096   7.376   1.636   4.317
 7713TIP3    H223097   7.440   1.626   4.180
 7714TIP3   OH223098   4.546   1.434   6.183
 7714TIP3    H123099   4.535   1.461   6.092
 7714TIP3    H223100   4.457   1.435   6.219
 7715TIP3   OH223101   3.590   0.421   3.287
 7715TIP3    H123102   3.578   0.339   3.334
 7715TIP3    H223103   3.673   0.409   3.240
 7716TIP3   OH223104   1.886   2.034   5.653
 7716TIP3    H123105   1.962   2.045   5.596
 7716TIP3    H223106   1.923   2.025   5.740
 7717TIP3   OH223107   4.229   7.276   2.020
 7717TIP3    H123108   4.321   7.265   1.997
 7717TIP3    H223109   4.219   7.231   2.103
 7718TIP3   OH223110   5.315   2.871   0.462
 7718TIP3    H123111   5.258   2.801   0.495
 7718TIP3    H223112   5.365   2.830   0.391
 7719TIP3   OH223113   5.035   3.762   0.269
 7719TIP3    H123114   4.970   3.701   0.236
 7719TIP3    H223115   4.991   3.807   0.342
 7720TIP3   OH223116   6.905   2.210   0.252
 7720TIP3    H123117   6.848   2.268   0.202
 7720TIP3    H223118   6.970   2.268   0.291
 7721TIP3   OH223119   7.761   6.210   5.446
 7721TIP3    H123120   7.825   6.211   5.517
 7721TIP3    H223121   7.767   6.298   5.408
 7722TIP3   OH223122   4.461   3.206   4.159
 7722TIP3    H123123   4.462   3.286   4.107
 7722TIP3    H223124   4.422   3.233   4.242
 7723TIP3   OH223125   0.269   5.920   6.698
 7723TIP3    H123126   0.286   6.009   6.729
 7723TIP3    H223127   0.354   5.886   6.671
 7724TIP3   OH223128   6.659   4.829   4.940
 7724TIP3    H123129   6.602   4.877   4.879
 7724TIP3    H223130   6.736   4.807   4.889
 7725TIP3   OH223131   1.863   4.056   3.526
 7725TIP3    H123132   1.829   4.060   3.615
 7725TIP3    H223133   1.842   3.967   3.497
 7726TIP3   OH223134   6.766   3.549   4.904
 7726TIP3    H123135   6.792   3.630   4.860
 7726TIP3    H223136   6.765   3.483   4.835
 7727TIP3   OH223137   5.593   5.892   2.465
 7727TIP3    H123138   5.619   5.833   2.393
 7727TIP3    H223139   5.498   5.888   2.465
 7728TIP3   OH223140   1.239   3.389   3.312
 7728TIP3    H123141   1.319   3.344   3.337
 7728TIP3    H223142   1.249   3.407   3.219
 7729TIP3   OH223143   7.218   2.996   1.760
 7729TIP3    H123144   7.255   3.080   1.734
 7729TIP3    H223145   7.162   3.017   1.835
 7730TIP3   OH223146   5.042   6.597   3.063
 7730TIP3    H123147   5.081   6.683   3.078
 7730TIP3    H223148   5.013   6.569   3.150
 7731TIP3   OH223149   4.042   1.137   2.100
 7731TIP3    H123150   3.960   1.158   2.145
 7731TIP3    H223151   4.072   1.220   2.065
 7732TIP3   OH223152   8.070   4.848   1.078
 7732TIP3    H123153   8.052   4.942   1.074
 7732TIP3    H223154   8.050   4.816   0.990
 7733TIP3   OH223155   0.581   0.717   4.769
 7733TIP3    H123156   0.599   0.671   4.851
 7733TIP3    H223157   0.516   0.663   4.724
 7734TIP3   OH223158   5.377   6.305   1.799
 7734TIP3    H123159   5.363   6.400   1.808
 7734TIP3    H223160   5.444   6.297   1.731
 7735TIP3   OH223161   1.174   3.152   2.462
 7735TIP3    H123162   1.128   3.077   2.424
 7735TIP3    H223163   1.256   3.116   2.495
 7736TIP3   OH223164   5.879   4.127   0.480
 7736TIP3    H123165   5.840   4.048   0.516
 7736TIP3    H223166   5.919   4.171   0.556
 7737TIP3   OH223167   1.969   2.107   2.859
 7737TIP3    H123168   1.960   2.152   2.943
 7737TIP3    H223169   2.012   2.024   2.880
 7738TIP3   OH223170   5.254   7.615   3.297
 7738TIP3    H123171   5.198   7.592   3.223
 7738TIP3    H223172   5.226   7.703   3.322
 7739TIP3   OH223173   5.278   2.495   0.799
 7739TIP3    H123174   5.295   2.570   0.742
 7739TIP3    H223175   5.361   2.447   0.802
 7740TIP3   OH223176   2.126   0.232   5.791
 7740TIP3    H123177   2.177   0.154   5.770
 7740TIP3    H223178   2.061   0.202   5.855
 7741TIP3   OH223179   3.218   6.686   2.202
 7741TIP3    H123180   3.148   6.630   2.235
 7741TIP3    H223181   3.251   6.732   2.280
 7742TIP3   OH223182   4.128   2.573   4.610
 7742TIP3    H123183   4.087   2.540   4.530
 7742TIP3    H223184   4.199   2.511   4.627
 7743TIP3   OH223185   0.467   0.058   0.030
 7743TIP3    H123186   0.507  -0.028   0.045
 7743TIP3    H223187   0.507   0.115   0.095
 7744TIP3   OH223188   3.597   6.832   0.366
 7744TIP3    H123189   3.535   6.830   0.293
 7744TIP3    H223190   3.602   6.925   0.390
 7745TIP3   OH223191   0.768   5.940   1.023
 7745TIP3    H123192   0.825   5.926   1.099
 7745TIP3    H223193   0.747   6.033   1.026
 7746TIP3   OH223194   2.845   4.560   2.769
 7746TIP3    H123195   2.784   4.585   2.699
 7746TIP3    H223196   2.837   4.630   2.834
 7747TIP3   OH223197   2.223   7.134   1.252
 7747TIP3    H123198   2.218   7.141   1.157
 7747TIP3    H223199   2.155   7.070   1.275
 7748TIP3   OH223200   1.599   0.413   6.156
 7748TIP3    H123201   1.544   0.463   6.096
 7748TIP3    H223202   1.600   0.325   6.120
 7749TIP3   OH223203   1.488   7.455   5.656
 7749TIP3    H123204   1.443   7.380   5.618
 7749TIP3    H223205   1.501   7.431   5.748
 7750TIP3   OH223206   1.118   0.754   3.791
 7750TIP3    H123207   1.139   0.666   3.823
 7750TIP3    H223208   1.171   0.813   3.844
 7751TIP3   OH223209   2.660   1.810   6.109
 7751TIP3    H123210   2.700   1.881   6.058
 7751TIP3    H223211   2.713   1.733   6.089
 7752TIP3   OH223212   6.793   5.916   1.422
 7752TIP3    H123213   6.760   5.885   1.507
 7752TIP3    H223214   6.847   5.992   1.445
 7753TIP3   OH223215   1.708   7.558   6.628
 7753TIP3    H123216   1.618   7.559   6.663
 7753TIP3    H223217   1.724   7.466   6.606
 7754TIP3   OH223218   5.580   1.099   6.531
 7754TIP3    H123219   5.662   1.061   6.498
 7754TIP3    H223220   5.519   1.026   6.535
 7755TIP3   OH223221   0.194   3.895   1.105
 7755TIP3    H123222   0.211   3.812   1.061
 7755TIP3    H223223   0.113   3.928   1.065
 7756TIP3   OH223224   0.973   1.388   0.569
 7756TIP3    H123225   0.987   1.327   0.497
 7756TIP3    H223226   0.978   1.475   0.528
 7757TIP3   OH223227   1.340   5.434   2.900
 7757TIP3    H123228   1.289   5.353   2.905
 7757TIP3    H223229   1.345   5.465   2.990
 7758TIP3   OH223230   8.197   1.554   2.640
 7758TIP3    H123231   8.261   1.540   2.710
 7758TIP3    H223232   8.114   1.570   2.686
 7759TIP3   OH223233   1.212   5.355   4.512
 7759TIP3    H123234   1.223   5.283   4.450
 7759TIP3    H223235   1.153   5.415   4.468
 7760TIP3   OH223236   6.434   0.949   4.779
 7760TIP3    H123237   6.400   0.863   4.755
 7760TIP3    H223238   6.356   1.002   4.795
 7761TIP3   OH223239   5.664   3.343   3.429
 7761TIP3    H123240   5.703   3.400   3.495
 7761TIP3    H223241   5.716   3.357   3.351
 7762TIP3   OH223242   5.340   4.862   6.329
 7762TIP3    H123243   5.418   4.839   6.379
 7762TIP3    H223244   5.358   4.832   6.240
 7763TIP3   OH223245   3.979   2.420   2.327
 7763TIP3    H123246   3.917   2.414   2.400
 7763TIP3    H223247   3.945   2.359   2.261
 7764TIP3   OH223248   7.265   7.802   5.024
 7764TIP3    H123249   7.261   7.876   4.962
 7764TIP3    H223250   7.174   7.777   5.036
 7765TIP3   OH223251   5.323   7.157   0.685
 7765TIP3    H123252   5.310   7.108   0.766
 7765TIP3    H223253   5.271   7.111   0.620
 7766TIP3   OH223254   5.621   2.725   0.011
 7766TIP3    H123255   5.703   2.710   0.059
 7766TIP3    H223256   5.612   2.821   0.007
 7767TIP3   OH223257   6.185   7.678   5.173
 7767TIP3    H123258   6.234   7.618   5.118
 7767TIP3    H223259   6.119   7.716   5.114
 7768TIP3   OH223260   6.823   3.175   1.151
 7768TIP3    H123261   6.812   3.240   1.082
 7768TIP3    H223262   6.798   3.221   1.231
 7769TIP3   OH223263   2.589   4.410   5.505
 7769TIP3    H123264   2.601   4.477   5.572
 7769TIP3    H223265   2.495   4.392   5.506
 7770TIP3   OH223266   1.743   6.513   6.567
 7770TIP3    H123267   1.816   6.496   6.626
 7770TIP3    H223268   1.774   6.583   6.509
 7771TIP3   OH223269   7.157   6.797   1.954
 7771TIP3    H123270   7.187   6.728   1.895
 7771TIP3    H223271   7.160   6.757   2.041
 7772TIP3   OH223272   6.499   7.032   2.690
 7772TIP3    H123273   6.540   6.980   2.759
 7772TIP3    H223274   6.563   7.033   2.619
 7773TIP3   OH223275   4.470   0.320   4.848
 7773TIP3    H123276   4.506   0.264   4.780
 7773TIP3    H223277   4.485   0.272   4.929
 7774TIP3   OH223278   5.191   0.326   0.048
 7774TIP3    H123279   5.282   0.296   0.052
 7774TIP3    H223280   5.139   0.249   0.073
 7775TIP3   OH223281   6.539   5.811   2.375
 7775TIP3    H123282   6.532   5.812   2.471
 7775TIP3    H223283   6.522   5.720   2.351
 7776TIP3   OH223284   2.715   2.803   5.098
 7776TIP3    H123285   2.807   2.790   5.117
 7776TIP3    H223286   2.684   2.860   5.168
 7777TIP3   OH223287   3.377   4.121   4.484
 7777TIP3    H123288   3.368   4.191   4.419
 7777TIP3    H223289   3.435   4.157   4.551
 7778TIP3   OH223290   0.832   5.131   1.176
 7778TIP3    H123291   0.847   5.220   1.145
 7778TIP3    H223292   0.895   5.077   1.129
 7779TIP3   OH223293   3.055   7.640   2.250
 7779TIP3    H123294   2.978   7.583   2.244
 7779TIP3    H223295   3.109   7.615   2.175
 7780TIP3   OH223296   3.853   4.153   4.593
 7780TIP3    H123297   3.820   4.136   4.505
 7780TIP3    H223298   3.889   4.069   4.622
 7781TIP3   OH223299   0.066   0.445   4.031
 7781TIP3    H123300   0.042   0.489   3.950
 7781TIP3    H223301   0.162   0.445   4.031
 7782TIP3   OH223302   0.098   6.850   0.443
 7782TIP3    H123303   0.055   6.801   0.514
 7782TIP3    H223304   0.090   6.794   0.367
 7783TIP3   OH223305   6.010   4.522   0.320
 7783TIP3    H123306   6.061   4.547   0.243
 7783TIP3    H223307   5.937   4.471   0.285
 7784TIP3   OH223308   6.811   5.374   2.302
 7784TIP3    H123309   6.792   5.465   2.327
 7784TIP3    H223310   6.870   5.382   2.227
 7785TIP3   OH223311   7.741   0.983   0.070
 7785TIP3    H123312   7.653   0.990   0.034
 7785TIP3    H223313   7.745   1.049   0.140
 7786TIP3   OH223314   8.222   0.412   4.844
 7786TIP3    H123315   8.126   0.402   4.845
 7786TIP3    H223316   8.255   0.322   4.836
 7787TIP3   OH223317   7.158   7.277   2.740
 7787TIP3    H123318   7.096   7.245   2.806
 7787TIP3    H223319   7.158   7.208   2.673
 7788TIP3   OH223320   6.960   1.743   0.599
 7788TIP3    H123321   7.036   1.707   0.644
 7788TIP3    H223322   6.913   1.667   0.566
 7789TIP3   OH223323   1.960   1.906   3.575
 7789TIP3    H123324   1.935   1.815   3.557
 7789TIP3    H223325   1.983   1.941   3.489
 7790TIP3   OH223326   0.120   6.233   1.120
 7790TIP3    H123327   0.190   6.294   1.139
 7790TIP3    H223328   0.096   6.197   1.205
 7791TIP3   OH223329   6.771   0.159   4.320
 7791TIP3    H123330   6.850   0.166   4.266
 7791TIP3    H223331   6.797   0.197   4.405
 7792TIP3   OH223332   3.417   6.287   3.060
 7792TIP3    H123333   3.446   6.367   3.017
 7792TIP3    H223334   3.431   6.303   3.153
 7793TIP3   OH223335   2.522   4.690   4.016
 7793TIP3    H123336   2.569   4.772   4.022
 7793TIP3    H223337   2.491   4.686   3.925
 7794TIP3   OH223338   4.978   5.621   4.091
 7794TIP3    H123339   4.979   5.716   4.080
 7794TIP3    H223340   5.032   5.605   4.168
 7795TIP3   OH223341   1.568   2.001   0.772
 7795TIP3    H123342   1.500   2.050   0.819
 7795TIP3    H223343   1.531   1.913   0.764
 7796TIP3   OH223344   1.855   6.788   5.619
 7796TIP3    H123345   1.894   6.703   5.637
 7796TIP3    H223346   1.861   6.835   5.702
 7797TIP3   OH223347   2.202   7.808   1.982
 7797TIP3    H123348   2.265   7.735   1.978
 7797TIP3    H223349   2.217   7.857   1.901
 7798TIP3   OH223350   7.046   0.426   1.832
 7798TIP3    H123351   7.113   0.409   1.897
 7798TIP3    H223352   6.980   0.479   1.877
 7799TIP3   OH223353   7.841   5.086   1.803
 7799TIP3    H123354   7.771   5.088   1.868
 7799TIP3    H223355   7.829   5.166   1.752
 7800TIP3   OH223356   2.320   2.931   1.251
 7800TIP3    H123357   2.338   3.016   1.292
 7800TIP3    H223358   2.386   2.872   1.287
 7801TIP3   OH223359   1.460   4.846   3.634
 7801TIP3    H123360   1.540   4.897   3.648
 7801TIP3    H223361   1.417   4.844   3.720
 7802TIP3   OH223362   5.328   0.773   6.080
 7802TIP3    H123363   5.299   0.863   6.069
 7802TIP3    H223364   5.267   0.736   6.144
 7803TIP3   OH223365   5.736   6.269   0.912
 7803TIP3    H123366   5.690   6.297   0.834
 7803TIP3    H223367   5.668   6.253   0.977
 7804TIP3   OH223368   1.842   6.457   5.441
 7804TIP3    H123369   1.927   6.440   5.402
 7804TIP3    H223370   1.779   6.426   5.376
 7805TIP3   OH223371   0.893   2.011   5.566
 7805TIP3    H123372   0.930   1.928   5.536
 7805TIP3    H223373   0.930   2.076   5.506
 7806TIP3   OH223374   3.812   0.387   5.731
 7806TIP3    H123375   3.723   0.374   5.697
 7806TIP3    H223376   3.800   0.407   5.823
 7807TIP3   OH223377   1.924   4.288   5.027
 7807TIP3    H123378   1.947   4.201   4.995
 7807TIP3    H223379   1.832   4.280   5.054
 7808TIP3   OH223380   4.607   1.915   2.518
 7808TIP3    H123381   4.516   1.890   2.503
 7808TIP3    H223382   4.655   1.872   2.447
 7809TIP3   OH223383   6.233   2.589   5.937
 7809TIP3    H123384   6.161   2.527   5.936
 7809TIP3    H223385   6.191   2.675   5.941
 7810TIP3   OH223386   1.352   4.128   3.110
 7810TIP3    H123387   1.421   4.149   3.048
 7810TIP3    H223388   1.397   4.119   3.194
 7811TIP3   OH223389   6.240   1.539   4.032
 7811TIP3    H123390   6.184   1.570   4.104
 7811TIP3    H223391   6.328   1.538   4.069
 7812TIP3   OH223392   4.976   4.351   3.602
 7812TIP3    H123393   4.902   4.383   3.551
 7812TIP3    H223394   4.943   4.271   3.644
 7813TIP3   OH223395   0.310   7.690   6.334
 7813TIP3    H123396   0.380   7.625   6.330
 7813TIP3    H223397   0.346   7.761   6.387
 7814TIP3   OH223398   2.785   1.979   5.957
 7814TIP3    H123399   2.803   2.049   5.894
 7814TIP3    H223400   2.856   1.987   6.022
 7815TIP3   OH223401   3.699   3.191   3.506
 7815TIP3    H123402   3.621   3.201   3.561
 7815TIP3    H223403   3.769   3.166   3.567
 7816TIP3   OH223404   7.315   7.248   1.870
 7816TIP3    H123405   7.325   7.326   1.815
 7816TIP3    H223406   7.403   7.211   1.875
 7817TIP3   OH223407   0.864   0.102   2.851
 7817TIP3    H123408   0.923   0.123   2.923
 7817TIP3    H223409   0.777   0.121   2.885
 7818TIP3   OH223410   6.495   3.414   5.563
 7818TIP3    H123411   6.583   3.444   5.542
 7818TIP3    H223412   6.500   3.319   5.556
 7819TIP3   OH223413   2.705   5.652   4.190
 7819TIP3    H123414   2.676   5.664   4.099
 7819TIP3    H223415   2.695   5.558   4.206
 7820TIP3   OH223416   3.242   0.132   3.381
 7820TIP3    H123417   3.188   0.062   3.343
 7820TIP3    H223418   3.310   0.086   3.430
 7821TIP3   OH223419   4.898   0.585   4.636
 7821TIP3    H123420   4.916   0.494   4.613
 7821TIP3    H223421   4.848   0.579   4.718
 7822TIP3   OH223422   3.248   5.886   1.734
 7822TIP3    H123423   3.331   5.870   1.691
 7822TIP3    H223424   3.256   5.975   1.770
 7823TIP3   OH223425   7.810   3.585   1.033
 7823TIP3    H123426   7.813   3.673   1.070
 7823TIP3    H223427   7.725   3.581   0.988
 7824TIP3   OH223428   7.444   1.572   5.061
 7824TIP3    H123429   7.375   1.625   5.102
 7824TIP3    H223430   7.523   1.593   5.111
 7825TIP3   OH223431   3.138   7.583   1.136
 7825TIP3    H123432   3.188   7.504   1.117
 7825TIP3    H223433   3.191   7.631   1.200
 7826TIP3   OH223434   1.071   3.327   4.184
 7826TIP3    H123435   0.997   3.325   4.244
 7826TIP3    H223436   1.070   3.416   4.147
 7827TIP3   OH223437   8.287   3.976   1.483
 7827TIP3    H123438   8.344   3.917   1.434
 7827TIP3    H223439   8.208   3.983   1.430
 7828TIP3   OH223440   2.413   2.826   4.333
 7828TIP3    H123441   2.465   2.887   4.282
 7828TIP3    H223442   2.365   2.880   4.395
 7829TIP3   OH223443   1.511   2.363   4.798
 7829TIP3    H123444   1.417   2.378   4.803
 7829TIP3    H223445   1.550   2.439   4.840
 7830TIP3   OH223446   4.137   0.181   1.541
 7830TIP3    H123447   4.139   0.263   1.492
 7830TIP3    H223448   4.217   0.135   1.514
 7831TIP3   OH223449   0.257   0.839   6.060
 7831TIP3    H123450   0.196   0.775   6.097
 7831TIP3    H223451   0.324   0.786   6.017
 7832TIP3   OH223452   3.440   1.206   0.283
 7832TIP3    H123453   3.456   1.144   0.355
 7832TIP3    H223454   3.525   1.216   0.241
 7833TIP3   OH223455   4.283   1.263   4.797
 7833TIP3    H123456   4.217   1.194   4.807
 7833TIP3    H223457   4.267   1.298   4.709
 7834TIP3   OH223458   3.068   4.455   2.184
 7834TIP3    H123459   3.004   4.480   2.251
 7834TIP3    H223460   3.016   4.420   2.112
 7835TIP3   OH223461   1.993   3.316   6.009
 7835TIP3    H123462   1.954   3.402   5.996
 7835TIP3    H223463   2.055   3.328   6.081
 7836TIP3   OH223464   2.186   7.674   1.282
 7836TIP3    H123465   2.218   7.742   1.342
 7836TIP3    H223466   2.161   7.602   1.339
 7837TIP3   OH223467   2.293   4.014   1.577
 7837TIP3    H123468   2.208   4.057   1.587
 7837TIP3    H223469   2.357   4.078   1.608
 7838TIP3   OH223470   3.744   1.249   3.597
 7838TIP3    H123471   3.771   1.330   3.553
 7838TIP3    H223472   3.824   1.216   3.637
 7839TIP3   OH223473   4.557   5.612   4.211
 7839TIP3    H123474   4.493   5.542   4.224
 7839TIP3    H223475   4.588   5.600   4.121
 7840TIP3   OH223476   2.891   3.130   5.394
 7840TIP3    H123477   2.941   3.190   5.340
 7840TIP3    H223478   2.892   3.170   5.481
 7841TIP3   OH223479   0.964   0.131   3.758
 7841TIP3    H123480   1.046   0.162   3.796
 7841TIP3    H223481   0.900   0.199   3.779
 7842TIP3   OH223482   0.329  -0.043   5.266
 7842TIP3    H123483   0.387  -0.017   5.194
 7842TIP3    H223484   0.302   0.040   5.306
 7843TIP3   OH223485   0.125   5.118   3.244
 7843TIP3    H123486   0.140   5.129   3.150
 7843TIP3    H223487   0.030   5.108   3.252
 7844TIP3   OH223488   4.086   1.984   6.347
 7844TIP3    H123489   4.019   1.916   6.359
 7844TIP3    H223490   4.163   1.936   6.317
 7845TIP3   OH223491   8.106   7.671   6.044
 7845TIP3    H123492   8.104   7.641   6.135
 7845TIP3    H223493   8.198   7.691   6.027
 7846TIP3   OH223494   1.848   5.045   5.136
 7846TIP3    H123495   1.907   4.992   5.082
 7846TIP3    H223496   1.861   5.010   5.225
 7847TIP3   OH223497   2.899   4.240   5.244
 7847TIP3    H123498   2.823   4.297   5.256
 7847TIP3    H223499   2.956   4.260   5.318
 7848TIP3   OH223500   2.244   2.350   2.316
 7848TIP3    H123501   2.169   2.359   2.256
 7848TIP3    H223502   2.271   2.259   2.307
 7849TIP3   OH223503   5.271   6.831   2.770
 7849TIP3    H123504   5.181   6.807   2.747
 7849TIP3    H223505   5.267   6.926   2.787
 7850TIP3   OH223506   2.447   2.092   1.921
 7850TIP3    H123507   2.372   2.033   1.925
 7850TIP3    H223508   2.408   2.180   1.917
 7851TIP3   OH223509   7.446   6.010   2.308
 7851TIP3    H123510   7.540   6.004   2.292
 7851TIP3    H223511   7.425   6.103   2.294
 7852TIP3   OH223512   7.662   4.893   1.631
 7852TIP3    H123513   7.717   4.971   1.627
 7852TIP3    H223514   7.697   4.842   1.705
 7853TIP3   OH223515   1.205   4.502   1.064
 7853TIP3    H123516   1.123   4.453   1.069
 7853TIP3    H223517   1.179   4.593   1.080
 7854TIP3   OH223518   0.482   3.274   1.018
 7854TIP3    H123519   0.455   3.184   1.034
 7854TIP3    H223520   0.436   3.326   1.084
 7855TIP3   OH223521   1.233   4.298   2.322
 7855TIP3    H123522   1.219   4.359   2.250
 7855TIP3    H223523   1.152   4.248   2.326
 7856TIP3   OH223524   4.647   5.366   1.164
 7856TIP3    H123525   4.711   5.300   1.141
 7856TIP3    H223526   4.669   5.442   1.109
 7857TIP3   OH223527   4.913   7.441   1.992
 7857TIP3    H123528   4.976   7.483   1.934
 7857TIP3    H223529   4.827   7.467   1.958
 7858TIP3   OH223530   1.304   4.464   4.976
 7858TIP3    H123531   1.230   4.432   4.925
 7858TIP3    H223532   1.280   4.554   4.999
 7859TIP3   OH223533   6.011   6.544   6.227
 7859TIP3    H123534   6.102   6.559   6.199
 7859TIP3    H223535   6.003   6.449   6.230
 7860TIP3   OH223536   7.684   5.039   3.056
 7860TIP3    H123537   7.743   5.110   3.031
 7860TIP3    H223538   7.698   4.971   2.989
 7861TIP3   OH223539   5.284   2.874   3.104
 7861TIP3    H123540   5.352   2.937   3.126
 7861TIP3    H223541   5.235   2.861   3.185
 7862TIP3   OH223542   2.428   2.789   3.071
 7862TIP3    H123543   2.338   2.780   3.040
 7862TIP3    H223544   2.474   2.714   3.032
 7863TIP3   OH223545   7.016   2.988   6.635
 7863TIP3    H123546   6.931   2.947   6.617
 7863TIP3    H223547   7.035   3.040   6.557
 7864TIP3   OH223548   5.350   6.378   1.114
 7864TIP3    H123549   5.430   6.339   1.149
 7864TIP3    H223550   5.348   6.352   1.022
 7865TIP3   OH223551   3.609   7.135   0.432
 7865TIP3    H123552   3.684   7.161   0.378
 7865TIP3    H223553   3.547   7.209   0.423
 7866TIP3   OH223554   6.811   0.065   5.121
 7866TIP3    H123555   6.886   0.124   5.130
 7866TIP3    H223556   6.741   0.108   5.171
 7867TIP3   OH223557   1.975   1.023   0.842
 7867TIP3    H123558   1.981   0.928   0.857
 7867TIP3    H223559   1.883   1.037   0.820
 7868TIP3   OH223560   1.272   7.080   4.059
 7868TIP3    H123561   1.257   7.093   4.153
 7868TIP3    H223562   1.351   7.130   4.040
 7869TIP3   OH223563   2.104   5.691   2.325
 7869TIP3    H123564   2.145   5.636   2.257
 7869TIP3    H223565   2.128   5.648   2.407
 7870TIP3   OH223566   0.594   3.707   5.633
 7870TIP3    H123567   0.534   3.639   5.603
 7870TIP3    H223568   0.581   3.780   5.572
 7871TIP3   OH223569   1.387   3.496   0.522
 7871TIP3    H123570   1.324   3.440   0.568
 7871TIP3    H223571   1.344   3.582   0.517
 7872TIP3   OH223572   6.358   1.642   0.887
 7872TIP3    H123573   6.380   1.593   0.966
 7872TIP3    H223574   6.441   1.650   0.839
 7873TIP3   OH223575   2.186   4.093   0.834
 7873TIP3    H123576   2.180   4.173   0.783
 7873TIP3    H223577   2.109   4.094   0.891
 7874TIP3   OH223578   4.250   1.348   6.602
 7874TIP3    H123579   4.158   1.360   6.578
 7874TIP3    H223580   4.247   1.314   6.691
 7875TIP3   OH223581   3.594   2.800   5.831
 7875TIP3    H123582   3.576   2.871   5.893
 7875TIP3    H223583   3.558   2.722   5.873
 7876TIP3   OH223584   0.310   6.741   5.276
 7876TIP3    H123585   0.368   6.768   5.205
 7876TIP3    H223586   0.326   6.647   5.286
 7877TIP3   OH223587   4.773   7.338   4.617
 7877TIP3    H123588   4.719   7.353   4.694
 7877TIP3    H223589   4.725   7.272   4.567
 7878TIP3   OH223590   3.344   0.845   3.558
 7878TIP3    H123591   3.332   0.930   3.602
 7878TIP3    H223592   3.410   0.800   3.610
 7879TIP3   OH223593   6.282   4.927   2.661
 7879TIP3    H123594   6.286   5.017   2.693
 7879TIP3    H223595   6.189   4.906   2.662
 7880TIP3   OH223596   6.492   7.326   6.011
 7880TIP3    H123597   6.471   7.300   6.100
 7880TIP3    H223598   6.492   7.245   5.961
 7881TIP3   OH223599   3.632   2.240   6.354
 7881TIP3    H123600   3.720   2.204   6.357
 7881TIP3    H223601   3.587   2.189   6.286
 7882TIP3   OH223602   5.480   6.790   0.648
 7882TIP3    H123603   5.423   6.720   0.681
 7882TIP3    H223604   5.479   6.778   0.553
 7883TIP3   OH223605   5.475   6.192   2.140
 7883TIP3    H123606   5.532   6.215   2.213
 7883TIP3    H223607   5.491   6.099   2.126
 7884TIP3   OH223608   0.515   0.672   4.097
 7884TIP3    H123609   0.584   0.632   4.151
 7884TIP3    H223610   0.533   0.766   4.102
 7885TIP3   OH223611   1.820   6.928   4.936
 7885TIP3    H123612   1.895   6.965   4.982
 7885TIP3    H223613   1.755   6.912   5.005
 7886TIP3   OH223614   4.208   1.104   2.326
 7886TIP3    H123615   4.222   1.198   2.332
 7886TIP3    H223616   4.156   1.091   2.246
 7887TIP3   OH223617   5.537   3.010   0.044
 7887TIP3    H123618   5.455   3.010   0.093
 7887TIP3    H223619   5.572   3.098   0.055
 7888TIP3   OH223620   7.179   5.026   5.080
 7888TIP3    H123621   7.260   4.997   5.038
 7888TIP3    H223622   7.111   4.969   5.044
 7889TIP3   OH223623   5.336   5.879   1.875
 7889TIP3    H123624   5.359   5.896   1.966
 7889TIP3    H223625   5.366   5.789   1.859
 7890TIP3   OH223626   3.146   5.372   0.485
 7890TIP3    H123627   3.074   5.408   0.433
 7890TIP3    H223628   3.189   5.449   0.523
 7891TIP3   OH223629   3.002   2.236   6.161
 7891TIP3    H123630   2.981   2.303   6.096
 7891TIP3    H223631   2.992   2.153   6.114
 7892TIP3   OH223632   6.356   3.645   1.787
 7892TIP3    H123633   6.353   3.726   1.839
 7892TIP3    H223634   6.376   3.577   1.851
 7893TIP3   OH223635   4.309   3.229   0.625
 7893TIP3    H123636   4.233   3.271   0.666
 7893TIP3    H223637   4.281   3.208   0.536
 7894TIP3   OH223638   3.073   1.729   1.745
 7894TIP3    H123639   3.014   1.775   1.805
 7894TIP3    H223640   3.038   1.749   1.658
 7895TIP3   OH223641   2.587   0.658   6.082
 7895TIP3    H123642   2.508   0.670   6.030
 7895TIP3    H223643   2.573   0.575   6.127
 7896TIP3   OH223644   7.425   2.284   0.240
 7896TIP3    H123645   7.434   2.312   0.149
 7896TIP3    H223646   7.460   2.195   0.242
 7897TIP3   OH223647   1.636   6.654   6.088
 7897TIP3    H123648   1.726   6.684   6.100
 7897TIP3    H223649   1.644   6.575   6.034
 7898TIP3   OH223650   2.003   0.193   5.494
 7898TIP3    H123651   1.978   0.197   5.401
 7898TIP3    H223652   2.028   0.102   5.508
 7899TIP3   OH223653   6.489   5.855   5.337
 7899TIP3    H123654   6.563   5.902   5.299
 7899TIP3    H223655   6.497   5.871   5.431
 7900TIP3   OH223656   0.418   6.233   6.113
 7900TIP3    H123657   0.485   6.300   6.102
 7900TIP3    H223658   0.344   6.278   6.153
 7901TIP3   OH223659   5.168   7.641   6.062
 7901TIP3    H123660   5.181   7.568   6.122
 7901TIP3    H223661   5.131   7.710   6.117
 7902TIP3   OH223662   8.226   0.446   5.952
 7902TIP3    H123663   8.217   0.523   5.896
 7902TIP3    H223664   8.220   0.371   5.892
 7903TIP3   OH223665   0.083   5.224   4.948
 7903TIP3    H123666   0.099   5.294   5.012
 7903TIP3    H223667   0.006   5.178   4.982
 7904TIP3   OH223668   1.860   6.110   1.807
 7904TIP3    H123669   1.881   6.195   1.768
 7904TIP3    H223670   1.835   6.130   1.897
 7905TIP3   OH223671   4.811   2.332   1.937
 7905TIP3    H123672   4.718   2.320   1.958
 7905TIP3    H223673   4.857   2.295   2.012
 7906TIP3   OH223674   3.568   4.121   0.315
 7906TIP3    H123675   3.544   4.167   0.395
 7906TIP3    H223676   3.658   4.147   0.297
 7907TIP3   OH223677   3.072   2.037   2.599
 7907TIP3    H123678   3.066   2.113   2.658
 7907TIP3    H223679   3.045   2.072   2.514
 7908TIP3   OH223680   5.288   3.996   2.828
 7908TIP3    H123681   5.266   3.974   2.737
 7908TIP3    H223682   5.323   3.915   2.864
 7909TIP3   OH223683   7.419   1.699   3.372
 7909TIP3    H123684   7.368   1.633   3.419
 7909TIP3    H223685   7.509   1.665   3.374
 7910TIP3   OH223686   0.084   5.186   6.304
 7910TIP3    H123687   0.042   5.272   6.294
 7910TIP3    H223688   0.017   5.131   6.342
 7911TIP3   OH223689   4.721   7.796   3.546
 7911TIP3    H123690   4.759   7.753   3.469
 7911TIP3    H223691   4.763   7.753   3.621
 7912TIP3   OH223692   7.906   1.261   5.552
 7912TIP3    H123693   7.927   1.178   5.509
 7912TIP3    H223694   7.813   1.255   5.571
 7913TIP3   OH223695   4.402   6.238   4.716
 7913TIP3    H123696   4.428   6.225   4.625
 7913TIP3    H223697   4.345   6.163   4.735
 7914TIP3   OH223698   4.317   6.967   6.756
 7914TIP3    H123699   4.344   6.990   6.668
 7914TIP3    H223700   4.392   6.988   6.811
 7915TIP3   OH223701   2.433   7.738  -0.002
 7915TIP3    H123702   2.387   7.800   0.056
 7915TIP3    H223703   2.438   7.657   0.049
 7916TIP3   OH223704   3.845   7.642   2.335
 7916TIP3    H123705   3.820   7.698   2.408
 7916TIP3    H223706   3.939   7.658   2.324
 7917TIP3   OH223707   5.232   2.400   3.721
 7917TIP3    H123708   5.301   2.381   3.785
 7917TIP3    H223709   5.251   2.342   3.648
 7918TIP3   OH223710   6.439   3.134   5.614
 7918TIP3    H123711   6.401   3.073   5.550
 7918TIP3    H223712   6.396   3.113   5.696
 7919TIP3   OH223713   1.275   7.372   0.385
 7919TIP3    H123714   1.351   7.346   0.436
 7919TIP3    H223715   1.296   7.347   0.295
 7920TIP3   OH223716   3.968   1.400   4.490
 7920TIP3    H123717   3.873   1.388   4.497
 7920TIP3    H223718   3.980   1.494   4.482
 7921TIP3   OH223719   2.551   2.415   1.486
 7921TIP3    H123720   2.465   2.393   1.522
 7921TIP3    H223721   2.574   2.498   1.528
 7922TIP3   OH223722   5.340   2.486   5.626
 7922TIP3    H123723   5.252   2.450   5.617
 7922TIP3    H223724   5.351   2.542   5.549
 7923TIP3   OH223725   0.063   1.905   3.613
 7923TIP3    H123726   0.073   1.906   3.708
 7923TIP3    H223727   0.123   1.973   3.583
 7924TIP3   OH223728   6.448   7.312   2.713
 7924TIP3    H123729   6.466   7.218   2.718
 7924TIP3    H223730   6.352   7.317   2.711
 7925TIP3   OH223731   0.579   1.338   6.049
 7925TIP3    H123732   0.530   1.348   5.968
 7925TIP3    H223733   0.526   1.384   6.115
 7926TIP3   OH223734   5.025   1.420   2.689
 7926TIP3    H123735   5.090   1.358   2.655
 7926TIP3    H223736   5.027   1.406   2.784
 7927TIP3   OH223737   2.068   6.562   5.904
 7927TIP3    H123738   2.150   6.581   5.950
 7927TIP3    H223739   2.077   6.470   5.878
 7928TIP3   OH223740   6.769   6.871   2.242
 7928TIP3    H123741   6.840   6.934   2.234
 7928TIP3    H223742   6.802   6.792   2.199
 7929TIP3   OH223743   1.162   6.194   5.373
 7929TIP3    H123744   1.205   6.176   5.290
 7929TIP3    H223745   1.071   6.168   5.358
 7930TIP3   OH223746   8.269   7.352   6.209
 7930TIP3    H123747   8.196   7.301   6.243
 7930TIP3    H223748   8.301   7.301   6.134
 7931TIP3   OH223749   2.771   3.142   2.497
 7931TIP3    H123750   2.797   3.099   2.578
 7931TIP3    H223751   2.702   3.204   2.523
 7932TIP3   OH223752   4.620   7.463   4.257
 7932TIP3    H123753   4.681   7.441   4.187
 7932TIP3    H223754   4.673   7.513   4.319
 7933TIP3   OH223755   3.904   0.797   5.677
 7933TIP3    H123756   3.809   0.791   5.670
 7933TIP3    H223757   3.922   0.891   5.681
 7934TIP3   OH223758   7.517   7.788   0.496
 7934TIP3    H123759   7.565   7.708   0.517
 7934TIP3    H223760   7.544   7.851   0.562
 7935TIP3   OH223761   1.732   1.836   5.470
 7935TIP3    H123762   1.788   1.850   5.394
 7935TIP3    H223763   1.792   1.829   5.544
 7936TIP3   OH223764   4.584   1.616   6.613
 7936TIP3    H123765   4.540   1.700   6.600
 7936TIP3    H223766   4.615   1.619   6.704
 7937TIP3   OH223767   2.012   4.921   4.455
 7937TIP3    H123768   2.057   5.001   4.482
 7937TIP3    H223769   2.063   4.888   4.380
 7938TIP3   OH223770   5.791   7.597   5.107
 7938TIP3    H123771   5.798   7.663   5.176
 7938TIP3    H223772   5.713   7.622   5.058
 7939TIP3   OH223773   4.682   0.328   1.631
 7939TIP3    H123774   4.624   0.355   1.703
 7939TIP3    H223775   4.625   0.278   1.572
 7940TIP3   OH223776   1.447   3.495   1.410
 7940TIP3    H123777   1.511   3.424   1.421
 7940TIP3    H223778   1.479   3.564   1.468
 7941TIP3   OH223779   4.163   6.626   5.228
 7941TIP3    H123780   4.075   6.663   5.234
 7941TIP3    H223781   4.170   6.567   5.303
 7942TIP3   OH223782   3.181   4.078   2.007
 7942TIP3    H123783   3.086   4.078   2.017
 7942TIP3    H223784   3.206   3.987   2.022
 7943TIP3   OH223785   5.349   7.102   6.121
 7943TIP3    H123786   5.416   7.169   6.118
 7943TIP3    H223787   5.266   7.150   6.118
 7944TIP3   OH223788   5.786   7.389   0.272
 7944TIP3    H123789   5.832   7.421   0.194
 7944TIP3    H223790   5.701   7.433   0.269
 7945TIP3   OH223791   8.134   3.486   0.943
 7945TIP3    H123792   8.095   3.420   0.886
 7945TIP3    H223793   8.061   3.519   0.995
 7946TIP3   OH223794   1.796   0.110   2.619
 7946TIP3    H123795   1.826   0.178   2.679
 7946TIP3    H223796   1.708   0.138   2.593
 7947TIP3   OH223797   5.391   0.665   4.825
 7947TIP3    H123798   5.391   0.636   4.916
 7947TIP3    H223799   5.483   0.665   4.799
 7948TIP3   OH223800   5.926   2.468   1.291
 7948TIP3    H123801   5.968   2.512   1.217
 7948TIP3    H223802   5.980   2.492   1.367
 7949TIP3   OH223803   6.761   2.451   4.087
 7949TIP3    H123804   6.746   2.485   4.176
 7949TIP3    H223805   6.852   2.422   4.088
 7950TIP3   OH223806   6.036   3.851   1.621
 7950TIP3    H123807   6.043   3.756   1.626
 7950TIP3    H223808   5.996   3.876   1.705
 7951TIP3   OH223809   2.410   2.202   4.130
 7951TIP3    H123810   2.458   2.246   4.200
 7951TIP3    H223811   2.361   2.271   4.086
 7952TIP3   OH223812   4.588   2.240   6.533
 7952TIP3    H123813   4.569   2.326   6.494
 7952TIP3    H223814   4.502   2.204   6.556
 7953TIP3   OH223815   2.971   4.136   3.569
 7953TIP3    H123816   2.961   4.200   3.639
 7953TIP3    H223817   2.885   4.096   3.560
 7954TIP3   OH223818   6.749   6.701   1.220
 7954TIP3    H123819   6.680   6.752   1.262
 7954TIP3    H223820   6.729   6.610   1.242
 7955TIP3   OH223821   4.420   3.295   5.563
 7955TIP3    H123822   4.413   3.341   5.647
 7955TIP3    H223823   4.512   3.270   5.558
 7956TIP3   OH223824   1.699   1.777   0.445
 7956TIP3    H123825   1.660   1.708   0.497
 7956TIP3    H223826   1.789   1.748   0.429
 7957TIP3   OH223827   0.062   6.274   1.794
 7957TIP3    H123828   0.060   6.337   1.723
 7957TIP3    H223829   0.119   6.314   1.861
 7958TIP3   OH223830   1.263   6.136   3.268
 7958TIP3    H123831   1.299   6.072   3.207
 7958TIP3    H223832   1.292   6.221   3.233
 7959TIP3   OH223833   8.163   2.055   5.821
 7959TIP3    H123834   8.197   2.020   5.739
 7959TIP3    H223835   8.231   2.115   5.852
 7960TIP3   OH223836   0.805   7.384   2.069
 7960TIP3    H123837   0.844   7.349   2.149
 7960TIP3    H223838   0.789   7.476   2.088
 7961TIP3   OH223839   5.073   6.534   1.489
 7961TIP3    H123840   5.000   6.488   1.531
 7961TIP3    H223841   5.084   6.488   1.406
 7962TIP3   OH223842   0.145   4.669   2.144
 7962TIP3    H123843   0.171   4.742   2.200
 7962TIP3    H223844   0.058   4.645   2.175
 7963TIP3   OH223845   1.564   5.883   3.659
 7963TIP3    H123846   1.555   5.939   3.582
 7963TIP3    H223847   1.509   5.924   3.726
 7964TIP3   OH223848   3.243   4.229   2.913
 7964TIP3    H123849   3.274   4.199   2.828
 7964TIP3    H223850   3.292   4.175   2.976
 7965TIP3   OH223851   2.386   1.444   2.391
 7965TIP3    H123852   2.470   1.397   2.394
 7965TIP3    H223853   2.397   1.507   2.320
 7966TIP3   OH223854   1.097   7.326   3.327
 7966TIP3    H123855   1.027   7.364   3.273
 7966TIP3    H223856   1.133   7.255   3.273
 7967TIP3   OH223857   1.274   0.273   4.585
 7967TIP3    H123858   1.197   0.312   4.543
 7967TIP3    H223859   1.294   0.332   4.658
 7968TIP3   OH223860   7.940   4.711   0.181
 7968TIP3    H123861   7.880   4.645   0.145
 7968TIP3    H223862   7.929   4.705   0.276
 7969TIP3   OH223863   4.704   5.527   2.389
 7969TIP3    H123864   4.617   5.513   2.352
 7969TIP3    H223865   4.705   5.619   2.413
 7970TIP3   OH223866   4.848   2.912   5.812
 7970TIP3    H123867   4.813   2.912   5.901
 7970TIP3    H223868   4.780   2.870   5.759
 7971TIP3   OH223869   5.144   4.968   4.649
 7971TIP3    H123870   5.048   4.968   4.648
 7971TIP3    H223871   5.169   4.901   4.585
 7972TIP3   OH223872   4.519   7.032   6.014
 7972TIP3    H123873   4.606   6.995   6.026
 7972TIP3    H223874   4.492   7.001   5.928
 7973TIP3   OH223875   3.965   0.420   4.199
 7973TIP3    H123876   3.936   0.332   4.174
 7973TIP3    H223877   3.913   0.479   4.145
 7974TIP3   OH223878   4.941   7.725   5.851
 7974TIP3    H123879   4.993   7.651   5.882
 7974TIP3    H223880   4.938   7.784   5.926
 7975TIP3   OH223881   5.435   7.453   4.800
 7975TIP3    H123882   5.369   7.432   4.733
 7975TIP3    H223883   5.518   7.429   4.759
 7976TIP3   OH223884   4.956   6.354   0.292
 7976TIP3    H123885   4.873   6.398   0.311
 7976TIP3    H223886   5.015   6.424   0.265
 7977TIP3   OH223887   7.284   7.392   3.024
 7977TIP3    H123888   7.263   7.326   3.090
 7977TIP3    H223889   7.226   7.373   2.950
 7978TIP3   OH223890   3.410   4.794   0.674
 7978TIP3    H123891   3.475   4.857   0.643
 7978TIP3    H223892   3.447   4.709   0.650
 7979TIP3   OH223893   3.100   3.272   5.816
 7979TIP3    H123894   3.044   3.196   5.831
 7979TIP3    H223895   3.163   3.269   5.888
 7980TIP3   OH223896   7.576   3.767   2.012
 7980TIP3    H123897   7.503   3.718   2.050
 7980TIP3    H223898   7.641   3.772   2.082
 7981TIP3   OH223899   0.534   5.130   4.486
 7981TIP3    H123900   0.535   5.140   4.581
 7981TIP3    H223901   0.444   5.106   4.465
 7982TIP3   OH223902   2.118   5.133   1.054
 7982TIP3    H123903   2.189   5.078   1.088
 7982TIP3    H223904   2.058   5.142   1.128
 7983TIP3   OH223905   0.184   6.902   2.522
 7983TIP3    H123906   0.223   6.949   2.448
 7983TIP3    H223907   0.242   6.922   2.595
 7984TIP3   OH223908   6.340   1.050   2.330
 7984TIP3    H123909   6.432   1.066   2.353
 7984TIP3    H223910   6.316   1.125   2.275
 7985TIP3   OH223911   0.005   6.389   0.804
 7985TIP3    H123912  -0.019   6.298   0.819
 7985TIP3    H223913  -0.014   6.433   0.887
 7986TIP3   OH223914   4.960   2.682   5.720
 7986TIP3    H123915   5.022   2.668   5.791
 7986TIP3    H223916   4.896   2.743   5.756
 7987TIP3   OH223917   1.190   6.197   1.583
 7987TIP3    H123918   1.219   6.201   1.492
 7987TIP3    H223919   1.118   6.134   1.583
 7988TIP3   OH223920   7.879   6.603   6.341
 7988TIP3    H123921   7.960   6.565   6.307
 7988TIP3    H223922   7.810   6.564   6.288
 7989TIP3   OH223923   1.593   7.637   0.848
 7989TIP3    H123924   1.526   7.626   0.916
 7989TIP3    H223925   1.611   7.548   0.818
 7990TIP3   OH223926   7.476   2.275   4.238
 7990TIP3    H123927   7.545   2.290   4.303
 7990TIP3    H223928   7.449   2.362   4.210
 7991TIP3   OH223929   6.844   0.357   5.279
 7991TIP3    H123930   6.873   0.368   5.189
 7991TIP3    H223931   6.801   0.439   5.301
 7992TIP3   OH223932   7.349   7.060   4.866
 7992TIP3    H123933   7.372   7.099   4.950
 7992TIP3    H223934   7.413   6.991   4.853
 7993TIP3   OH223935   0.410   5.075   2.579
 7993TIP3    H123936   0.470   5.136   2.534
 7993TIP3    H223937   0.333   5.071   2.522
 7994TIP3   OH223938   7.470   3.060   0.633
 7994TIP3    H123939   7.425   3.140   0.660
 7994TIP3    H223940   7.532   3.042   0.704
 7995TIP3   OH223941   6.616   7.767   6.359
 7995TIP3    H123942   6.712   7.761   6.354
 7995TIP3    H223943   6.591   7.813   6.279
 7996TIP3   OH223944   6.733   6.610   6.690
 7996TIP3    H123945   6.652   6.569   6.722
 7996TIP3    H223946   6.739   6.583   6.598
 7997TIP3   OH223947   3.645   2.087   1.485
 7997TIP3    H123948   3.654   2.132   1.569
 7997TIP3    H223949   3.582   2.017   1.502
 7998TIP3   OH223950   1.021   6.180   4.148
 7998TIP3    H123951   0.984   6.257   4.191
 7998TIP3    H223952   0.960   6.161   4.076
 7999TIP3   OH223953   7.587   0.279   4.228
 7999TIP3    H123954   7.530   0.292   4.304
 7999TIP3    H223955   7.674   0.306   4.258
 8000TIP3   OH223956   0.392   5.513   4.661
 8000TIP3    H123957   0.373   5.591   4.713
 8000TIP3    H223958   0.359   5.441   4.713
 8001TIP3   OH223959   7.002   6.068   3.812
 8001TIP3    H123960   7.046   6.084   3.728
 8001TIP3    H223961   7.032   5.981   3.839
 8002TIP3   OH223962   1.450   0.648   0.899
 8002TIP3    H123963   1.420   0.650   0.808
 8002TIP3    H223964   1.372   0.673   0.950
 8003TIP3   OH223965   2.223   0.146   4.120
 8003TIP3    H123966   2.215   0.178   4.210
 8003TIP3    H223967   2.309   0.176   4.091
 8004TIP3   OH223968   0.364   0.647   2.997
 8004TIP3    H123969   0.396   0.709   2.932
 8004TIP3    H223970   0.363   0.563   2.952
 8005TIP3   OH223971   2.064   0.754   1.115
 8005TIP3    H123972   2.062   0.761   1.019
 8005TIP3    H223973   2.068   0.845   1.144
 8006TIP3   OH223974   7.312   0.041   6.539
 8006TIP3    H123975   7.307   0.026   6.444
 8006TIP3    H223976   7.229   0.083   6.561
 8007TIP3   OH223977   1.066   3.810   3.150
 8007TIP3    H123978   1.140   3.796   3.209
 8007TIP3    H223979   0.992   3.829   3.208
 8008TIP3   OH223980   1.222   4.217   6.194
 8008TIP3    H123981   1.308   4.177   6.180
 8008TIP3    H223982   1.235   4.277   6.266
 8009TIP3   OH223983   6.816   4.180   4.713
 8009TIP3    H123984   6.859   4.170   4.628
 8009TIP3    H223985   6.770   4.265   4.706
 8010TIP3   OH223986   5.058   4.988   5.257
 8010TIP3    H123987   5.144   5.028   5.270
 8010TIP3    H223988   5.069   4.930   5.182
 8011TIP3   OH223989   3.181   2.072   3.072
 8011TIP3    H123990   3.219   2.115   2.995
 8011TIP3    H223991   3.152   1.987   3.041
 8012TIP3   OH223992   1.005   6.306   0.831
 8012TIP3    H123993   1.030   6.229   0.781
 8012TIP3    H223994   1.059   6.303   0.910
 8013TIP3   OH223995   7.595   3.159   4.189
 8013TIP3    H123996   7.648   3.083   4.165
 8013TIP3    H223997   7.584   3.207   4.107
 8014TIP3   OH223998   7.741   0.799   2.111
 8014TIP3    H123999   7.670   0.813   2.173
 8014TIP3    H224000   7.807   0.864   2.135
 8015TIP3   OH224001   6.996   6.263   3.224
 8015TIP3    H124002   6.937   6.336   3.204
 8015TIP3    H224003   7.083   6.297   3.204
 8016TIP3   OH224004   5.839   3.461   1.779
 8016TIP3    H124005   5.764   3.497   1.732
 8016TIP3    H224006   5.842   3.510   1.861
 8017TIP3   OH224007   3.094   0.866   2.169
 8017TIP3    H124008   3.169   0.834   2.219
 8017TIP3    H224009   3.020   0.818   2.206
 8018TIP3   OH224010   3.024   5.007   1.740
 8018TIP3    H124011   2.992   5.005   1.650
 8018TIP3    H224012   2.945   5.012   1.794
 8019TIP3   OH224013   7.170   6.442   2.009
 8019TIP3    H124014   7.158   6.347   2.006
 8019TIP3    H224015   7.133   6.474   1.927
 8020TIP3   OH224016   1.920   3.226   3.384
 8020TIP3    H124017   1.922   3.133   3.361
 8020TIP3    H224018   1.934   3.271   3.301
 8021TIP3   OH224019   3.946   3.574   3.169
 8021TIP3    H124020   3.933   3.650   3.226
 8021TIP3    H224021   3.900   3.503   3.214
 8022TIP3   OH224022   2.838   0.692   2.866
 8022TIP3    H124023   2.892   0.656   2.936
 8022TIP3    H224024   2.846   0.629   2.794
 8023TIP3   OH224025   4.347   1.214   5.430
 8023TIP3    H124026   4.428   1.185   5.472
 8023TIP3    H224027   4.327   1.299   5.471
 8024TIP3   OH224028   5.731   0.765   4.981
 8024TIP3    H124029   5.807   0.750   5.037
 8024TIP3    H224030   5.767   0.788   4.896
 8025TIP3   OH224031   5.395   1.914   2.620
 8025TIP3    H124032   5.323   1.873   2.572
 8025TIP3    H224033   5.354   1.949   2.699
 8026TIP3   OH224034   2.675   4.108   3.938
 8026TIP3    H124035   2.628   4.158   4.004
 8026TIP3    H224036   2.690   4.022   3.977
 8027TIP3   OH224037   2.297   1.125   1.407
 8027TIP3    H124038   2.245   1.098   1.483
 8027TIP3    H224039   2.245   1.194   1.366
 8028TIP3   OH224040   6.011   7.590   5.435
 8028TIP3    H124041   5.985   7.666   5.383
 8028TIP3    H224042   6.060   7.535   5.374
 8029TIP3   OH224043   0.329   0.266   2.591
 8029TIP3    H124044   0.282   0.182   2.596
 8029TIP3    H224045   0.409   0.246   2.543
 8030TIP3   OH224046   6.376   6.513   1.752
 8030TIP3    H124047   6.411   6.424   1.757
 8030TIP3    H224048   6.454   6.569   1.750
 8031TIP3   OH224049   3.873   5.049   1.294
 8031TIP3    H124050   3.862   5.038   1.200
 8031TIP3    H224051   3.812   5.118   1.318
 8032TIP3   OH224052   7.413   1.347   4.064
 8032TIP3    H124053   7.345   1.385   4.008
 8032TIP3    H224054   7.493   1.351   4.011
 8033TIP3   OH224055   1.585   1.265   3.945
 8033TIP3    H124056   1.607   1.331   3.879
 8033TIP3    H224057   1.553   1.190   3.894
 8034TIP3   OH224058   4.528   1.773   3.548
 8034TIP3    H124059   4.562   1.785   3.459
 8034TIP3    H224060   4.535   1.860   3.588
 8035TIP3   OH224061   1.498   3.709   1.776
 8035TIP3    H124062   1.523   3.669   1.859
 8035TIP3    H224063   1.402   3.712   1.779
 8036TIP3   OH224064   7.741   2.445   2.290
 8036TIP3    H124065   7.705   2.385   2.225
 8036TIP3    H224066   7.764   2.389   2.364
 8037TIP3   OH224067   1.600   3.043   4.610
 8037TIP3    H124068   1.692   3.065   4.624
 8037TIP3    H224069   1.570   3.105   4.545
 8038TIP3   OH224070   2.605   1.092   0.820
 8038TIP3    H124071   2.583   1.054   0.735
 8038TIP3    H224072   2.610   1.017   0.879
 8039TIP3   OH224073   0.839   4.755   2.204
 8039TIP3    H124074   0.873   4.703   2.132
 8039TIP3    H224075   0.750   4.776   2.179
 8040TIP3   OH224076   4.156   6.710   4.054
 8040TIP3    H124077   4.225   6.721   4.119
 8040TIP3    H224078   4.112   6.628   4.080
 8041TIP3   OH224079   6.635   4.427   6.160
 8041TIP3    H124080   6.573   4.474   6.104
 8041TIP3    H224081   6.592   4.343   6.178
 8042TIP3   OH224082   2.039   0.997   1.428
 8042TIP3    H124083   2.044   1.000   1.332
 8042TIP3    H224084   1.961   1.048   1.449
 8043TIP3   OH224085   2.481   0.598   1.417
 8043TIP3    H124086   2.425   0.522   1.431
 8043TIP3    H224087   2.420   0.668   1.391
 8044TIP3   OH224088   6.214   5.005   0.786
 8044TIP3    H124089   6.145   4.994   0.720
 8044TIP3    H224090   6.205   5.096   0.814
 8045TIP3   OH224091   5.157   0.361   3.974
 8045TIP3    H124092   5.159   0.341   4.067
 8045TIP3    H224093   5.210   0.440   3.965
 8046TIP3   OH224094   4.280   7.604   4.733
 8046TIP3    H124095   4.364   7.650   4.730
 8046TIP3    H224096   4.216   7.670   4.703
 8047TIP3   OH224097   5.275   3.198   2.724
 8047TIP3    H124098   5.327   3.278   2.715
 8047TIP3    H224099   5.329   3.130   2.683
 8048TIP3   OH224100   7.526   7.051   5.306
 8048TIP3    H124101   7.587   7.112   5.264
 8048TIP3    H224102   7.582   6.993   5.357
 8049TIP3   OH224103   4.906   2.734   1.101
 8049TIP3    H124104   4.944   2.814   1.064
 8049TIP3    H224105   4.941   2.664   1.045
 8050TIP3   OH224106   2.685   5.839   3.747
 8050TIP3    H124107   2.748   5.796   3.689
 8050TIP3    H224108   2.684   5.930   3.719
 8051TIP3   OH224109   5.354   7.126   4.949
 8051TIP3    H124110   5.332   7.176   4.870
 8051TIP3    H224111   5.396   7.189   5.007
 8052TIP3   OH224112   8.230   6.156   0.913
 8052TIP3    H124113   8.315   6.175   0.953
 8052TIP3    H224114   8.167   6.165   0.984
 8053TIP3   OH224115   0.150   6.378   5.839
 8053TIP3    H124116   0.160   6.414   5.751
 8053TIP3    H224117   0.134   6.285   5.825
 8054TIP3   OH224118   1.709   6.429   5.935
 8054TIP3    H124119   1.770   6.425   5.862
 8054TIP3    H224120   1.630   6.385   5.902
 8055TIP3   OH224121   7.061   2.479   4.066
 8055TIP3    H124122   7.048   2.568   4.033
 8055TIP3    H224123   7.097   2.491   4.154
 8056TIP3   OH224124   2.882   7.013   4.138
 8056TIP3    H124125   2.888   7.097   4.094
 8056TIP3    H224126   2.825   7.029   4.214
 8057TIP3   OH224127   2.390   7.651   6.540
 8057TIP3    H124128   2.302   7.667   6.506
 8057TIP3    H224129   2.383   7.668   6.634
 8058TIP3   OH224130   0.794   1.684   1.038
 8058TIP3    H124131   0.785   1.757   1.100
 8058TIP3    H224132   0.708   1.642   1.039
 8059TIP3   OH224133   3.214   6.172   4.709
 8059TIP3    H124134   3.162   6.196   4.632
 8059TIP3    H224135   3.159   6.110   4.757
 8060TIP3   OH224136   2.254   3.373   2.485
 8060TIP3    H124137   2.256   3.341   2.575
 8060TIP3    H224138   2.182   3.325   2.444
 8061TIP3   OH224139   0.674   2.912   0.295
 8061TIP3    H124140   0.719   2.947   0.218
 8061TIP3    H224141   0.584   2.943   0.286
 8062TIP3   OH224142   7.783   7.033   5.664
 8062TIP3    H124143   7.859   7.086   5.687
 8062TIP3    H224144   7.772   7.045   5.570
 8063TIP3   OH224145   3.569   5.291   0.617
 8063TIP3    H124146   3.654   5.332   0.629
 8063TIP3    H224147   3.508   5.363   0.605
 8064TIP3   OH224148   6.504   2.854   5.201
 8064TIP3    H124149   6.526   2.784   5.262
 8064TIP3    H224150   6.507   2.934   5.254
 8065TIP3   OH224151   3.045   0.778   6.113
 8065TIP3    H124152   3.055   0.765   6.208
 8065TIP3    H224153   3.128   0.816   6.085
 8066TIP3   OH224154   0.778   5.497   2.581
 8066TIP3    H124155   0.845   5.541   2.529
 8066TIP3    H224156   0.779   5.542   2.666
 8067TIP3   OH224157   4.701   4.249   2.685
 8067TIP3    H124158   4.696   4.344   2.687
 8067TIP3    H224159   4.688   4.226   2.593
 8068TIP3   OH224160   7.479   2.204   5.719
 8068TIP3    H124161   7.550   2.142   5.730
 8068TIP3    H224162   7.503   2.253   5.640
 8069TIP3   OH224163   4.073   0.681   2.098
 8069TIP3    H124164   3.990   0.638   2.076
 8069TIP3    H224165   4.076   0.758   2.041
 8070TIP3   OH224166   8.248   7.469   2.652
 8070TIP3    H124167   8.305   7.516   2.714
 8070TIP3    H224168   8.209   7.398   2.704
 8071TIP3   OH224169   6.291   4.716   6.276
 8071TIP3    H124170   6.362   4.776   6.251
 8071TIP3    H224171   6.245   4.761   6.347
 8072TIP3   OH224172   6.116   1.473   4.595
 8072TIP3    H124173   6.156   1.493   4.510
 8072TIP3    H224174   6.063   1.551   4.615
 8073TIP3   OH224175   5.753   4.361   0.685
 8073TIP3    H124176   5.823   4.296   0.676
 8073TIP3    H224177   5.726   4.356   0.777
 8074TIP3   OH224178   1.110   7.503   5.373
 8074TIP3    H124179   1.055   7.499   5.295
 8074TIP3    H224180   1.153   7.588   5.368
 8075TIP3   OH224181   7.738   5.669   3.083
 8075TIP3    H124182   7.671   5.736   3.098
 8075TIP3    H224183   7.713   5.630   2.999
 8076TIP3   OH224184   5.299   5.781   0.920
 8076TIP3    H124185   5.277   5.756   0.830
 8076TIP3    H224186   5.362   5.715   0.948
 8077TIP3   OH224187   7.149   5.577   3.951
 8077TIP3    H124188   7.120   5.556   4.040
 8077TIP3    H224189   7.160   5.493   3.908
 8078TIP3   OH224190   1.993   2.622   2.661
 8078TIP3    H124191   1.957   2.709   2.639
 8078TIP3    H224192   2.053   2.602   2.589
 8079TIP3   OH224193   1.820   1.299   6.342
 8079TIP3    H124194   1.775   1.384   6.337
 8079TIP3    H224195   1.811   1.273   6.433
 8080TIP3   OH224196   7.246   5.839   2.322
 8080TIP3    H124197   7.287   5.753   2.323
 8080TIP3    H224198   7.318   5.899   2.298
 8081TIP3   OH224199   7.157   3.355   3.208
 8081TIP3    H124200   7.182   3.329   3.296
 8081TIP3    H224201   7.238   3.389   3.169
 8082TIP3   OH224202   0.444   2.733   0.161
 8082TIP3    H124203   0.470   2.818   0.126
 8082TIP3    H224204   0.516   2.674   0.139
 8083TIP3   OH224205   3.646   0.320   6.117
 8083TIP3    H124206   3.681   0.304   6.205
 8083TIP3    H224207   3.608   0.407   6.122
 8084TIP3   OH224208   6.235   3.924   4.615
 8084TIP3    H124209   6.284   3.899   4.537
 8084TIP3    H224210   6.192   4.006   4.592
 8085TIP3   OH224211   7.829   6.934   4.410
 8085TIP3    H124212   7.839   6.974   4.324
 8085TIP3    H224213   7.735   6.915   4.417
 8086TIP3   OH224214   2.156   1.286   6.032
 8086TIP3    H124215   2.223   1.280   5.963
 8086TIP3    H224216   2.157   1.200   6.074
 8087TIP3   OH224217   1.743   3.991   2.078
 8087TIP3    H124218   1.701   3.988   1.993
 8087TIP3    H224219   1.732   4.082   2.107
 8088TIP3   OH224220   2.200   1.258   1.140
 8088TIP3    H124221   2.118   1.302   1.114
 8088TIP3    H224222   2.253   1.328   1.177
 8089TIP3   OH224223   2.143   6.017   6.269
 8089TIP3    H124224   2.078   5.949   6.287
 8089TIP3    H224225   2.092   6.088   6.228
 8090TIP3   OH224226   4.616   7.372   3.273
 8090TIP3    H124227   4.521   7.357   3.274
 8090TIP3    H224228   4.636   7.404   3.361
 8091TIP3   OH224229   4.530   4.943   0.423
 8091TIP3    H124230   4.477   4.928   0.501
 8091TIP3    H224231   4.604   4.883   0.433
 8092TIP3   OH224232   5.484   7.739   1.839
 8092TIP3    H124233   5.489   7.718   1.932
 8092TIP3    H224234   5.495   7.834   1.835
 8093TIP3   OH224235   1.431   4.150   0.101
 8093TIP3    H124236   1.437   4.160   0.005
 8093TIP3    H224237   1.353   4.097   0.115
 8094TIP3   OH224238   0.387   1.641   4.561
 8094TIP3    H124239   0.355   1.680   4.480
 8094TIP3    H224240   0.404   1.550   4.539
 8095TIP3   OH224241   3.235   0.540   5.996
 8095TIP3    H124242   3.206   0.621   5.953
 8095TIP3    H224243   3.161   0.515   6.051
 8096TIP3   OH224244   4.489   7.808   6.290
 8096TIP3    H124245   4.516   7.827   6.200
 8096TIP3    H224246   4.467   7.715   6.290
 8097TIP3   OH224247   5.015   5.947   2.925
 8097TIP3    H124248   5.013   5.857   2.959
 8097TIP3    H224249   4.956   5.996   2.982
 8098TIP3   OH224250   2.765   4.164   6.599
 8098TIP3    H124251   2.768   4.243   6.545
 8098TIP3    H224252   2.715   4.189   6.676
 8099TIP3   OH224253   4.317   0.992   2.898
 8099TIP3    H124254   4.263   0.946   2.834
 8099TIP3    H224255   4.256   1.053   2.940
 8100TIP3   OH224256   2.735   5.072   5.991
 8100TIP3    H124257   2.775   5.048   5.907
 8100TIP3    H224258   2.650   5.108   5.968
 8101TIP3   OH224259   0.281   2.460   1.810
 8101TIP3    H124260   0.303   2.537   1.757
 8101TIP3    H224261   0.236   2.496   1.886
 8102TIP3   OH224262   1.553   6.764   3.841
 8102TIP3    H124263   1.513   6.736   3.759
 8102TIP3    H224264   1.487   6.819   3.882
 8103TIP3   OH224265   7.951   0.591   3.419
 8103TIP3    H124266   8.023   0.577   3.480
 8103TIP3    H224267   7.875   0.606   3.475
 8104TIP3   OH224268   0.360   0.156   6.140
 8104TIP3    H124269   0.428   0.105   6.184
 8104TIP3    H224270   0.278   0.125   6.177
 8105TIP3   OH224271   5.468   2.298   3.205
 8105TIP3    H124272   5.410   2.255   3.267
 8105TIP3    H224273   5.443   2.262   3.120
 8106TIP3   OH224274   8.060   2.600   1.715
 8106TIP3    H124275   8.007   2.661   1.766
 8106TIP3    H224276   8.000   2.531   1.688
 8107TIP3   OH224277   7.782   6.506   4.238
 8107TIP3    H124278   7.809   6.545   4.154
 8107TIP3    H224279   7.713   6.564   4.269
 8108TIP3   OH224280   2.447   4.307   1.386
 8108TIP3    H124281   2.430   4.218   1.355
 8108TIP3    H224282   2.395   4.314   1.467
 8109TIP3   OH224283   3.926   7.722   2.799
 8109TIP3    H124284   3.982   7.786   2.844
 8109TIP3    H224285   3.988   7.662   2.757
 8110TIP3   OH224286   8.219   2.787   1.919
 8110TIP3    H124287   8.273   2.820   1.847
 8110TIP3    H224288   8.206   2.695   1.899
 8111TIP3   OH224289   0.114   6.984   4.735
 8111TIP3    H124290   0.138   6.928   4.808
 8111TIP3    H224291   0.193   7.035   4.716
 8112TIP3   OH224292   2.874   0.857   4.462
 8112TIP3    H124293   2.778   0.859   4.457
 8112TIP3    H224294   2.895   0.765   4.475
 8113TIP3   OH224295   3.278   0.735   4.445
 8113TIP3    H124296   3.341   0.794   4.403
 8113TIP3    H224297   3.304   0.734   4.537
 8114TIP3   OH224298   2.176   2.761   2.943
 8114TIP3    H124299   2.131   2.683   2.976
 8114TIP3    H224300   2.227   2.730   2.869
 8115TIP3   OH224301   4.395   4.213   6.390
 8115TIP3    H124302   4.480   4.246   6.362
 8115TIP3    H224303   4.360   4.168   6.313
 8116TIP3   OH224304   0.114   3.953   5.263
 8116TIP3    H124305   0.190   4.011   5.255
 8116TIP3    H224306   0.092   3.955   5.356
 8117TIP3   OH224307   7.938   4.360   0.903
 8117TIP3    H124308   7.997   4.378   0.976
 8117TIP3    H224309   7.900   4.274   0.924
 8118TIP3   OH224310   7.676   0.033   3.776
 8118TIP3    H124311   7.656   0.125   3.762
 8118TIP3    H224312   7.771   0.027   3.763
 8119TIP3   OH224313   7.892   5.590   0.725
 8119TIP3    H124314   7.825   5.525   0.749
 8119TIP3    H224315   7.952   5.542   0.668
 8120TIP3   OH224316   0.356   1.904   5.625
 8120TIP3    H124317   0.317   1.954   5.697
 8120TIP3    H224318   0.343   1.960   5.548
 8121TIP3   OH224319   7.961   7.771   0.525
 8121TIP3    H124320   8.039   7.732   0.564
 8121TIP3    H224321   7.986   7.861   0.506
 8122TIP3   OH224322   1.481   2.894   3.719
 8122TIP3    H124323   1.409   2.946   3.756
 8122TIP3    H224324   1.539   2.959   3.679
 8123TIP3   OH224325   2.609   3.057   1.657
 8123TIP3    H124326   2.640   2.967   1.662
 8123TIP3    H224327   2.587   3.080   1.747
 8124TIP3   OH224328   1.249   5.002   1.213
 8124TIP3    H124329   1.309   5.077   1.208
 8124TIP3    H224330   1.173   5.029   1.162
 8125TIP3   OH224331   5.927   0.112   1.484
 8125TIP3    H124332   5.873   0.037   1.507
 8125TIP3    H224333   5.967   0.140   1.566
 8126TIP3   OH224334   5.986   1.682   2.836
 8126TIP3    H124335   6.066   1.733   2.830
 8126TIP3    H224336   5.942   1.713   2.915
 8127TIP3   OH224337   3.747   4.751   0.322
 8127TIP3    H124338   3.833   4.792   0.325
 8127TIP3    H224339   3.685   4.824   0.326
 8128TIP3   OH224340   1.229   2.285   0.978
 8128TIP3    H124341   1.205   2.254   1.066
 8128TIP3    H224342   1.289   2.358   0.995
 8129TIP3   OH224343   1.533   3.543   6.292
 8129TIP3    H124344   1.488   3.477   6.344
 8129TIP3    H224345   1.498   3.627   6.323
 8130TIP3   OH224346   6.626   3.451   6.558
 8130TIP3    H124347   6.650   3.489   6.473
 8130TIP3    H224348   6.530   3.457   6.560
 8131TIP3   OH224349   4.485   6.072   6.353
 8131TIP3    H124350   4.541   6.093   6.427
 8131TIP3    H224351   4.512   6.131   6.283
 8132TIP3   OH224352   0.550   0.311   1.645
 8132TIP3    H124353   0.559   0.216   1.641
 8132TIP3    H224354   0.625   0.340   1.697
 8133TIP3   OH224355   0.387   4.077   2.194
 8133TIP3    H124356   0.329   4.153   2.200
 8133TIP3    H224357   0.463   4.109   2.145
 8134TIP3   OH224358   1.534   1.344   5.451
 8134TIP3    H124359   1.446   1.348   5.491
 8134TIP3    H224360   1.556   1.435   5.434
 8135TIP3   OH224361   6.290   3.852   4.362
 8135TIP3    H124362   6.343   3.926   4.332
 8135TIP3    H224363   6.209   3.859   4.312
 8136TIP3   OH224364   5.638   4.833   3.335
 8136TIP3    H124365   5.705   4.828   3.403
 8136TIP3    H224366   5.615   4.926   3.330
 8137TIP3   OH224367   4.508   2.786   3.112
 8137TIP3    H124368   4.434   2.737   3.078
 8137TIP3    H224369   4.585   2.741   3.077
 8138TIP3   OH224370   0.163   5.252   2.966
 8138TIP3    H124371   0.255   5.240   2.941
 8138TIP3    H224372   0.122   5.291   2.889
 8139TIP3   OH224373   2.089   4.746   1.942
 8139TIP3    H124374   2.095   4.707   2.029
 8139TIP3    H224375   2.123   4.679   1.883
 8140TIP3   OH224376   2.026   1.968   4.457
 8140TIP3    H124377   2.109   1.925   4.436
 8140TIP3    H224378   1.996   1.924   4.537
 8141TIP3   OH224379   2.550   0.553   4.186
 8141TIP3    H124380   2.586   0.583   4.103
 8141TIP3    H224381   2.555   0.457   4.182
 8142TIP3   OH224382   3.249   4.198   4.988
 8142TIP3    H124383   3.260   4.241   5.073
 8142TIP3    H224384   3.164   4.154   4.994
 8143TIP3   OH224385   6.280   5.006   3.408
 8143TIP3    H124386   6.366   5.006   3.450
 8143TIP3    H224387   6.271   5.094   3.372
 8144TIP3   OH224388   3.199   3.486   2.759
 8144TIP3    H124389   3.191   3.394   2.732
 8144TIP3    H224390   3.190   3.536   2.677
 8145TIP3   OH224391   1.693   3.273   0.961
 8145TIP3    H124392   1.754   3.215   0.916
 8145TIP3    H224393   1.685   3.236   1.049
 8146TIP3   OH224394   5.019   5.758   5.507
 8146TIP3    H124395   5.049   5.848   5.521
 8146TIP3    H224396   4.945   5.748   5.566
 8147TIP3   OH224397   8.032   3.698   2.018
 8147TIP3    H124398   8.075   3.615   2.038
 8147TIP3    H224399   8.077   3.729   1.939
 8148TIP3   OH224400   0.287   0.491   0.975
 8148TIP3    H124401   0.342   0.542   0.916
 8148TIP3    H224402   0.275   0.407   0.930
 8149TIP3   OH224403   8.129   7.740   1.208
 8149TIP3    H124404   8.189   7.689   1.262
 8149TIP3    H224405   8.055   7.759   1.266
 8150TIP3   OH224406   5.714   4.209   4.900
 8150TIP3    H124407   5.726   4.139   4.965
 8150TIP3    H224408   5.797   4.209   4.851
 8151TIP3   OH224409   3.448   4.597   1.552
 8151TIP3    H124410   3.445   4.532   1.622
 8151TIP3    H224411   3.520   4.655   1.575
 8152TIP3   OH224412   2.791   6.444   2.627
 8152TIP3    H124413   2.790   6.432   2.722
 8152TIP3    H224414   2.867   6.394   2.597
 8153TIP3   OH224415   3.583   1.904   2.660
 8153TIP3    H124416   3.488   1.909   2.663
 8153TIP3    H224417   3.612   1.927   2.748
 8154TIP3   OH224418   4.559   5.157   3.301
 8154TIP3    H124419   4.651   5.173   3.322
 8154TIP3    H224420   4.555   5.064   3.277
 8155TIP3   OH224421   4.944   4.776   1.652
 8155TIP3    H124422   4.994   4.699   1.626
 8155TIP3    H224423   4.870   4.741   1.702
 8156TIP3   OH224424   0.595   5.035   0.204
 8156TIP3    H124425   0.517   5.085   0.179
 8156TIP3    H224426   0.569   4.943   0.192
 8157TIP3   OH224427   3.423   5.102   5.433
 8157TIP3    H124428   3.440   5.027   5.376
 8157TIP3    H224429   3.381   5.166   5.376
 8158TIP3   OH224430   5.503   2.309   0.175
 8158TIP3    H124431   5.589   2.266   0.180
 8158TIP3    H224432   5.516   2.379   0.111
 8159TIP3   OH224433   6.399  -0.019   4.720
 8159TIP3    H124434   6.340   0.048   4.754
 8159TIP3    H224435   6.458   0.028   4.662
 8160TIP3   OH224436   3.239   2.191   6.304
 8160TIP3    H124437   3.251   2.099   6.283
 8160TIP3    H224438   3.149   2.210   6.277
 8161TIP3   OH224439   0.968   3.443   3.739
 8161TIP3    H124440   0.874   3.439   3.754
 8161TIP3    H224441   0.996   3.522   3.784
 8162TIP3   OH224442   4.507   2.678   6.540
 8162TIP3    H124443   4.428   2.709   6.585
 8162TIP3    H224444   4.542   2.610   6.598
 8163TIP3   OH224445   3.871   1.829   6.297
 8163TIP3    H124446   3.865   1.734   6.291
 8163TIP3    H224447   3.857   1.859   6.207
 8164TIP3   OH224448   2.938   0.959   2.948
 8164TIP3    H124449   2.947   0.958   3.043
 8164TIP3    H224450   3.019   1.001   2.917
 8165TIP3   OH224451   3.103   1.192   3.171
 8165TIP3    H124452   3.196   1.170   3.174
 8165TIP3    H224453   3.087   1.213   3.079
 8166TIP3   OH224454   7.642   5.324   6.638
 8166TIP3    H124455   7.698   5.394   6.604
 8166TIP3    H224456   7.656   5.327   6.733
 8167TIP3   OH224457   6.154   6.048   0.801
 8167TIP3    H124458   6.233   6.099   0.820
 8167TIP3    H224459   6.097   6.063   0.877
 8168TIP3   OH224460   3.246   6.692   1.681
 8168TIP3    H124461   3.175   6.754   1.697
 8168TIP3    H224462   3.203   6.607   1.675
 8169TIP3   OH224463   4.302   6.646   2.337
 8169TIP3    H124464   4.217   6.604   2.328
 8169TIP3    H224465   4.362   6.576   2.361
 8170TIP3   OH224466   1.642   0.827   2.037
 8170TIP3    H124467   1.718   0.776   2.065
 8170TIP3    H224468   1.614   0.786   1.955
 8171TIP3   OH224469   7.550   4.419   1.614
 8171TIP3    H124470   7.484   4.355   1.640
 8171TIP3    H224471   7.609   4.424   1.690
 8172TIP3   OH224472   8.274   0.451   0.028
 8172TIP3    H124473   8.221   0.499  -0.036
 8172TIP3    H224474   8.227   0.462   0.111
 8173TIP3   OH224475   0.042   7.690   5.424
 8173TIP3    H124476   0.129   7.719   5.451
 8173TIP3    H224477  -0.001   7.663   5.505
 8174TIP3   OH224478   7.761   1.451   3.082
 8174TIP3    H124479   7.724   1.539   3.085
 8174TIP3    H224480   7.827   1.456   3.012
 8175TIP3   OH224481   6.180   2.168   0.766
 8175TIP3    H124482   6.186   2.263   0.780
 8175TIP3    H224483   6.196   2.130   0.852
 8176TIP3   OH224484   6.917   3.538   5.151
 8176TIP3    H124485   6.857   3.584   5.211
 8176TIP3    H224486   6.871   3.537   5.067
 8177TIP3   OH224487   7.404   4.826   0.715
 8177TIP3    H124488   7.439   4.743   0.684
 8177TIP3    H224489   7.369   4.869   0.637
 8178TIP3   OH224490   2.625   1.895   2.194
 8178TIP3    H124491   2.652   1.920   2.105
 8178TIP3    H224492   2.675   1.954   2.251
 8179TIP3   OH224493   3.396   2.431   4.891
 8179TIP3    H124494   3.414   2.370   4.819
 8179TIP3    H224495   3.314   2.473   4.867
 8180TIP3   OH224496   5.606   2.168   1.938
 8180TIP3    H124497   5.588   2.262   1.938
 8180TIP3    H224498   5.538   2.130   1.882
 8181TIP3   OH224499   2.520   7.017   5.992
 8181TIP3    H124500   2.591   7.074   5.965
 8181TIP3    H224501   2.553   6.972   6.070
 8182TIP3   OH224502   0.188   5.297   4.714
 8182TIP3    H124503   0.150   5.273   4.798
 8182TIP3    H224504   0.139   5.245   4.650
 8183TIP3   OH224505   4.264   2.644   1.988
 8183TIP3    H124506   4.323   2.592   1.932
 8183TIP3    H224507   4.195   2.582   2.013
 8184TIP3   OH224508   0.052   3.721   6.417
 8184TIP3    H124509   0.069   3.812   6.444
 8184TIP3    H224510   0.076   3.669   6.494
 8185TIP3   OH224511   7.926   4.569   4.589
 8185TIP3    H124512   7.955   4.478   4.587
 8185TIP3    H224513   7.894   4.582   4.678
 8186TIP3   OH224514   5.472   3.290   1.280
 8186TIP3    H124515   5.506   3.370   1.321
 8186TIP3    H224516   5.392   3.319   1.236
 8187TIP3   OH224517   7.627   5.322   1.713
 8187TIP3    H124518   7.559   5.333   1.646
 8187TIP3    H224519   7.707   5.356   1.672
 8188TIP3   OH224520   0.244   5.597   6.718
 8188TIP3    H124521   0.205   5.622   6.802
 8188TIP3    H224522   0.186   5.636   6.652
 8189TIP3   OH224523   7.901   7.459   4.557
 8189TIP3    H124524   7.943   7.508   4.487
 8189TIP3    H224525   7.852   7.389   4.513
 8190TIP3   OH224526   1.738   3.744   4.447
 8190TIP3    H124527   1.699   3.720   4.363
 8190TIP3    H224528   1.696   3.688   4.511
 8191TIP3   OH224529   6.286   2.984   5.405
 8191TIP3    H124530   6.254   2.899   5.376
 8191TIP3    H224531   6.209   3.027   5.443
 8192TIP3   OH224532   1.394   0.083   2.287
 8192TIP3    H124533   1.366  -0.002   2.255
 8192TIP3    H224534   1.313   0.129   2.307
 8193TIP3   OH224535   7.491   2.166   6.182
 8193TIP3    H124536   7.483   2.260   6.193
 8193TIP3    H224537   7.568   2.141   6.233
 8194TIP3   OH224538   7.429   7.241   0.204
 8194TIP3    H124539   7.510   7.277   0.238
 8194TIP3    H224540   7.447   7.148   0.193
 8195TIP3   OH224541   6.046   2.703   4.326
 8195TIP3    H124542   6.092   2.665   4.401
 8195TIP3    H224543   5.996   2.629   4.290
 8196TIP3   OH224544   4.251   7.125   2.260
 8196TIP3    H124545   4.252   7.200   2.320
 8196TIP3    H224546   4.302   7.058   2.305
 8197TIP3   OH224547   6.174   1.073   5.948
 8197TIP3    H124548   6.086   1.036   5.952
 8197TIP3    H224549   6.161   1.167   5.956
 8198TIP3   OH224550   1.458   7.382   2.683
 8198TIP3    H124551   1.509   7.453   2.723
 8198TIP3    H224552   1.439   7.414   2.595
 8199TIP3   OH224553   7.702   3.552   4.840
 8199TIP3    H124554   7.717   3.615   4.769
 8199TIP3    H224555   7.630   3.589   4.890
 8200TIP3   OH224556   4.559   6.649   1.003
 8200TIP3    H124557   4.626   6.716   0.994
 8200TIP3    H224558   4.608   6.568   1.020
 8201TIP3   OH224559   1.538   1.411   6.580
 8201TIP3    H124560   1.564   1.488   6.631
 8201TIP3    H224561   1.454   1.385   6.617
 8202TIP3   OH224562   3.242   7.143   2.570
 8202TIP3    H124563   3.202   7.139   2.657
 8202TIP3    H224564   3.313   7.079   2.573
 8203TIP3   OH224565   2.053   2.540   3.480
 8203TIP3    H124566   2.133   2.487   3.473
 8203TIP3    H224567   1.984   2.477   3.497
 8204TIP3   OH224568   5.425   5.301   3.097
 8204TIP3    H124569   5.402   5.306   3.189
 8204TIP3    H224570   5.382   5.221   3.066
 8205TIP3   OH224571   2.235   2.038   6.398
 8205TIP3    H124572   2.140   2.041   6.404
 8205TIP3    H224573   2.260   1.959   6.447
 8206TIP3   OH224574   5.172   7.759   2.425
 8206TIP3    H124575   5.127   7.701   2.486
 8206TIP3    H224576   5.186   7.840   2.475
 8207TIP3   OH224577   1.464   2.898   1.138
 8207TIP3    H124578   1.376   2.873   1.110
 8207TIP3    H224579   1.507   2.816   1.161
 8208TIP3   OH224580   4.390   4.792   3.588
 8208TIP3    H124581   4.426   4.745   3.513
 8208TIP3    H224582   4.403   4.885   3.567
 8209TIP3   OH224583   1.832   4.667   3.194
 8209TIP3    H124584   1.816   4.761   3.191
 8209TIP3    H224585   1.796   4.639   3.278
 8210TIP3   OH224586   2.742   1.751   4.614
 8210TIP3    H124587   2.681   1.688   4.652
 8210TIP3    H224588   2.711   1.764   4.524
 8211TIP3   OH224589   5.079   4.866   3.953
 8211TIP3    H124590   5.155   4.894   4.003
 8211TIP3    H224591   5.105   4.876   3.862
 8212TIP3   OH224592   4.932   6.618   5.224
 8212TIP3    H124593   5.014   6.667   5.217
 8212TIP3    H224594   4.895   6.645   5.308
 8213TIP3   OH224595   4.252   1.233   5.159
 8213TIP3    H124596   4.260   1.251   5.253
 8213TIP3    H224597   4.304   1.302   5.117
 8214TIP3   OH224598   0.676   3.399   5.493
 8214TIP3    H124599   0.663   3.319   5.443
 8214TIP3    H224600   0.588   3.431   5.512
 8215TIP3   OH224601   7.946   6.722   1.258
 8215TIP3    H124602   7.853   6.730   1.278
 8215TIP3    H224603   7.975   6.812   1.243
 8216TIP3   OH224604   5.015   3.943   0.811
 8216TIP3    H124605   5.043   3.863   0.854
 8216TIP3    H224606   5.009   3.920   0.718
 8217TIP3   OH224607   1.256   5.361   6.441
 8217TIP3    H124608   1.217   5.405   6.516
 8217TIP3    H224609   1.183   5.350   6.379
 8218TIP3   OH224610   5.736   4.276   3.978
 8218TIP3    H124611   5.779   4.221   3.912
 8218TIP3    H224612   5.717   4.358   3.933
 8219TIP3   OH224613   4.422   1.897   2.158
 8219TIP3    H124614   4.465   1.955   2.221
 8219TIP3    H224615   4.465   1.914   2.075
 8220TIP3   OH224616   2.855   4.498   2.355
 8220TIP3    H124617   2.771   4.464   2.327
 8220TIP3    H224618   2.881   4.442   2.428
 8221TIP3   OH224619   2.283   4.440   2.669
 8221TIP3    H124620   2.200   4.405   2.703
 8221TIP3    H224621   2.286   4.529   2.704
 8222TIP3   OH224622   7.169   7.722   5.572
 8222TIP3    H124623   7.121   7.653   5.525
 8222TIP3    H224624   7.218   7.676   5.640
 8223TIP3   OH224625   2.229   0.445   2.161
 8223TIP3    H124626   2.194   0.367   2.119
 8223TIP3    H224627   2.210   0.433   2.254
 8224TIP3   OH224628   2.091   0.411   1.416
 8224TIP3    H124629   2.012   0.462   1.396
 8224TIP3    H224630   2.121   0.446   1.500
 8225TIP3   OH224631   1.887   6.262   2.459
 8225TIP3    H124632   1.978   6.234   2.470
 8225TIP3    H224633   1.881   6.290   2.368
 8226TIP3   OH224634   0.657   2.107   4.698
 8226TIP3    H124635   0.605   2.181   4.666
 8226TIP3    H224636   0.655   2.115   4.793
 8227TIP3   OH224637   1.074   0.162   3.035
 8227TIP3    H124638   1.064   0.252   3.067
 8227TIP3    H224639   1.067   0.107   3.113
 8228TIP3   OH224640   3.377   0.263   2.128
 8228TIP3    H124641   3.315   0.238   2.060
 8228TIP3    H224642   3.369   0.358   2.134
 8229TIP3   OH224643   2.841   0.489   2.675
 8229TIP3    H124644   2.807   0.423   2.735
 8229TIP3    H224645   2.765   0.515   2.623
 8230TIP3   OH224646   4.982   4.906   1.400
 8230TIP3    H124647   4.946   4.848   1.466
 8230TIP3    H224648   5.076   4.905   1.414
 8231TIP3   OH224649   6.485   5.019   1.599
 8231TIP3    H124650   6.472   5.033   1.692
 8231TIP3    H224651   6.519   5.102   1.566
 8232TIP3   OH224652   4.577   5.214   1.811
 8232TIP3    H124653   4.519   5.285   1.784
 8232TIP3    H224654   4.653   5.223   1.753
 8233TIP3   OH224655   4.979   2.816   1.961
 8233TIP3    H124656   5.011   2.906   1.965
 8233TIP3    H224657   5.008   2.784   1.876
 8234TIP3   OH224658   2.769   0.091   0.303
 8234TIP3    H124659   2.812   0.176   0.312
 8234TIP3    H224660   2.700   0.091   0.369
 8235TIP3   OH224661   3.334   5.251   1.539
 8235TIP3    H124662   3.367   5.177   1.488
 8235TIP3    H224663   3.410   5.282   1.588
 8236TIP3   OH224664   1.198   5.684   0.291
 8236TIP3    H124665   1.276   5.738   0.283
 8236TIP3    H224666   1.132   5.729   0.237
 8237TIP3   OH224667   3.879   7.337   6.045
 8237TIP3    H124668   3.939   7.345   5.971
 8237TIP3    H224669   3.924   7.381   6.117
 8238TIP3   OH224670   6.269   6.050   4.021
 8238TIP3    H124671   6.296   6.010   4.104
 8238TIP3    H224672   6.346   6.098   3.991
 8239TIP3   OH224673   2.915   7.717   6.526
 8239TIP3    H124674   2.962   7.797   6.506
 8239TIP3    H224675   2.827   7.746   6.550
 8240TIP3   OH224676   4.894   4.672   3.900
 8240TIP3    H124677   4.945   4.734   3.951
 8240TIP3    H224678   4.900   4.703   3.810
 8241TIP3   OH224679   5.609   5.812   1.542
 8241TIP3    H124680   5.582   5.816   1.633
 8241TIP3    H224681   5.705   5.812   1.546
 8242TIP3   OH224682   1.001   0.956   2.215
 8242TIP3    H124683   1.006   0.870   2.257
 8242TIP3    H224684   1.024   1.017   2.285
 8243TIP3   OH224685   2.152   7.294   2.263
 8243TIP3    H124686   2.184   7.383   2.258
 8243TIP3    H224687   2.227   7.239   2.241
 8244TIP3   OH224688   7.358   7.306   4.489
 8244TIP3    H124689   7.375   7.315   4.395
 8244TIP3    H224690   7.353   7.395   4.521
 8245TIP3   OH224691   7.956   0.619   6.569
 8245TIP3    H124692   7.935   0.661   6.486
 8245TIP3    H224693   7.889   0.652   6.630
 8246TIP3   OH224694   0.640   4.388   1.840
 8246TIP3    H124695   0.650   4.481   1.864
 8246TIP3    H224696   0.644   4.388   1.745
 8247TIP3   OH224697   2.873   2.440   2.197
 8247TIP3    H124698   2.803   2.403   2.251
 8247TIP3    H224699   2.861   2.534   2.203
 8248TIP3   OH224700   0.814   0.725   5.166
 8248TIP3    H124701   0.769   0.806   5.189
 8248TIP3    H224702   0.745   0.670   5.129
 8249TIP3   OH224703   3.486   5.538   1.904
 8249TIP3    H124704   3.566   5.587   1.887
 8249TIP3    H224705   3.503   5.494   1.988
 8250TIP3   OH224706   5.421   6.598   3.982
 8250TIP3    H124707   5.477   6.573   3.908
 8250TIP3    H224708   5.481   6.605   4.056
 8251TIP3   OH224709   5.625   0.158   2.892
 8251TIP3    H124710   5.701   0.214   2.874
 8251TIP3    H224711   5.662   0.082   2.938
 8252TIP3   OH224712   4.907   6.230   6.211
 8252TIP3    H124713   4.867   6.225   6.124
 8252TIP3    H224714   4.990   6.276   6.197
 8253TIP3   OH224715   3.873   4.339   0.098
 8253TIP3    H124716   3.841   4.262   0.049
 8253TIP3    H224717   3.831   4.331   0.184
 8254TIP3   OH224718   1.879   5.519   4.405
 8254TIP3    H124719   1.973   5.501   4.399
 8254TIP3    H224720   1.856   5.552   4.318
 8255TIP3   OH224721   4.431   6.195   2.731
 8255TIP3    H124722   4.338   6.172   2.731
 8255TIP3    H224723   4.470   6.137   2.797
 8256TIP3   OH224724   6.915   3.734   3.316
 8256TIP3    H124725   6.897   3.677   3.242
 8256TIP3    H224726   6.999   3.776   3.295
 8257TIP3   OH224727   3.182   3.218   2.647
 8257TIP3    H124728   3.106   3.240   2.593
 8257TIP3    H224729   3.240   3.171   2.587
 8258TIP3   OH224730   0.086   6.628   2.496
 8258TIP3    H124731   0.158   6.686   2.520
 8258TIP3    H224732   0.027   6.630   2.571
 8259TIP3   OH224733   2.152   1.359   3.851
 8259TIP3    H124734   2.100   1.416   3.907
 8259TIP3    H224735   2.161   1.407   3.769
 8260TIP3   OH224736   7.588   4.170   0.950
 8260TIP3    H124737   7.499   4.138   0.935
 8260TIP3    H224738   7.595   4.249   0.896
 8261TIP3   OH224739   0.551   3.255   2.926
 8261TIP3    H124740   0.599   3.318   2.872
 8261TIP3    H224741   0.620   3.205   2.970
 8262TIP3   OH224742   7.774   5.224   0.955
 8262TIP3    H124743   7.724   5.294   0.997
 8262TIP3    H224744   7.719   5.194   0.883
 8263TIP3   OH224745   0.830   0.445   3.922
 8263TIP3    H124746   0.827   0.411   3.833
 8263TIP3    H224747   0.766   0.516   3.923
 8264TIP3   OH224748   5.105   0.604   4.836
 8264TIP3    H124749   5.071   0.604   4.746
 8264TIP3    H224750   5.199   0.622   4.826
 8265TIP3   OH224751   5.811   7.366   3.924
 8265TIP3    H124752   5.812   7.372   3.829
 8265TIP3    H224753   5.743   7.428   3.951
 8266TIP3   OH224754   0.779   2.174   4.967
 8266TIP3    H124755   0.751   2.179   5.058
 8266TIP3    H224756   0.874   2.184   4.971
 8267TIP3   OH224757   5.701   1.678   1.622
 8267TIP3    H124758   5.692   1.764   1.663
 8267TIP3    H224759   5.745   1.624   1.689
 8268TIP3   OH224760   0.373   1.068   5.941
 8268TIP3    H124761   0.458   1.023   5.938
 8268TIP3    H224762   0.312   1.001   5.972
 8269TIP3   OH224763   8.106   3.632   5.448
 8269TIP3    H124764   8.037   3.567   5.459
 8269TIP3    H224765   8.097   3.660   5.357
 8270TIP3   OH224766   2.778   0.625   3.680
 8270TIP3    H124767   2.840   0.696   3.694
 8270TIP3    H224768   2.825   0.562   3.626
 8271TIP3   OH224769   1.643   6.465   1.919
 8271TIP3    H124770   1.717   6.523   1.937
 8271TIP3    H224771   1.654   6.440   1.827
 8272TIP3   OH224772   0.950   4.933   4.717
 8272TIP3    H124773   0.938   4.857   4.774
 8272TIP3    H224774   1.002   4.995   4.769
 8273TIP3   OH224775   1.177   0.922   5.592
 8273TIP3    H124776   1.157   0.949   5.681
 8273TIP3    H224777   1.165   0.827   5.592
 8274TIP3   OH224778   2.081   0.443   5.604
 8274TIP3    H124779   2.110   0.393   5.680
 8274TIP3    H224780   2.010   0.390   5.567
 8275TIP3   OH224781  -0.010   0.549   5.111
 8275TIP3    H124782  -0.100   0.541   5.142
 8275TIP3    H224783  -0.002   0.485   5.041
 8276TIP3   OH224784   3.334   4.186   5.479
 8276TIP3    H124785   3.322   4.150   5.567
 8276TIP3    H224786   3.384   4.267   5.492
 8277TIP3   OH224787   4.122   3.701   5.347
 8277TIP3    H124788   4.143   3.756   5.271
 8277TIP3    H224789   4.054   3.749   5.394
 8278TIP3   OH224790   3.252   7.478   3.284
 8278TIP3    H124791   3.283   7.421   3.214
 8278TIP3    H224792   3.249   7.421   3.361
 8279TIP3   OH224793   7.350   5.828   2.592
 8279TIP3    H124794   7.336   5.873   2.509
 8279TIP3    H224795   7.445   5.818   2.599
 8280TIP3   OH224796   3.676   3.753   2.650
 8280TIP3    H124797   3.770   3.736   2.658
 8280TIP3    H224798   3.638   3.666   2.636
 8281TIP3   OH224799   3.298   0.401   3.480
 8281TIP3    H124800   3.377   0.380   3.530
 8281TIP3    H224801   3.274   0.318   3.438
 8282TIP3   OH224802   3.911   5.431   3.714
 8282TIP3    H124803   3.833   5.378   3.726
 8282TIP3    H224804   3.907   5.496   3.784
 8283TIP3   OH224805   5.931   7.741   3.341
 8283TIP3    H124806   5.945   7.714   3.432
 8283TIP3    H224807   5.976   7.675   3.289
 8284TIP3   OH224808   6.465   2.339   4.443
 8284TIP3    H124809   6.409   2.263   4.458
 8284TIP3    H224810   6.420   2.389   4.375
 8285TIP3   OH224811   3.071   6.661   5.904
 8285TIP3    H124812   3.048   6.748   5.934
 8285TIP3    H224813   3.012   6.645   5.830
 8286TIP3   OH224814   1.101   0.059   0.821
 8286TIP3    H124815   1.168   0.037   0.756
 8286TIP3    H224816   1.035  -0.009   0.811
 8287TIP3   OH224817   1.886   4.549   2.224
 8287TIP3    H124818   1.940   4.471   2.212
 8287TIP3    H224819   1.854   4.571   2.137
 8288TIP3   OH224820   7.990   5.369   4.734
 8288TIP3    H124821   8.038   5.451   4.727
 8288TIP3    H224822   7.903   5.389   4.700
 8289TIP3   OH224823   1.564   0.769   3.306
 8289TIP3    H124824   1.482   0.797   3.348
 8289TIP3    H224825   1.596   0.699   3.362
 8290TIP3   OH224826   3.909   5.094   4.169
 8290TIP3    H124827   3.935   5.020   4.223
 8290TIP3    H224828   3.893   5.165   4.231
 8291TIP3   OH224829   4.360   5.706   4.525
 8291TIP3    H124830   4.445   5.668   4.545
 8291TIP3    H224831   4.314   5.711   4.609
 8292TIP3   OH224832   0.800   1.921   3.258
 8292TIP3    H124833   0.813   1.843   3.312
 8292TIP3    H224834   0.734   1.895   3.194
 8293TIP3   OH224835   6.868   5.954   2.482
 8293TIP3    H124836   6.805   5.910   2.538
 8293TIP3    H224837   6.865   6.045   2.509
 8294TIP3   OH224838   5.814   5.844   6.574
 8294TIP3    H124839   5.794   5.822   6.665
 8294TIP3    H224840   5.756   5.789   6.523
 8295TIP3   OH224841   1.015   0.560   0.224
 8295TIP3    H124842   1.071   0.619   0.173
 8295TIP3    H224843   0.991   0.491   0.162
 8296TIP3   OH224844   2.586   6.257   6.377
 8296TIP3    H124845   2.589   6.300   6.291
 8296TIP3    H224846   2.508   6.293   6.419
 8297TIP3   OH224847   6.631   4.736   4.478
 8297TIP3    H124848   6.714   4.705   4.443
 8297TIP3    H224849   6.630   4.704   4.568
 8298TIP3   OH224850   4.134   3.794   0.218
 8298TIP3    H124851   4.065   3.738   0.254
 8298TIP3    H224852   4.093   3.836   0.142
 8299TIP3   OH224853   4.796   0.898   6.575
 8299TIP3    H124854   4.702   0.900   6.593
 8299TIP3    H224855   4.835   0.865   6.656
 8300TIP3   OH224856   6.206   0.127   4.849
 8300TIP3    H124857   6.144   0.173   4.791
 8300TIP3    H224858   6.152   0.069   4.902
 8301TIP3   OH224859   5.617   1.215   0.210
 8301TIP3    H124860   5.657   1.300   0.225
 8301TIP3    H224861   5.685   1.163   0.167
 8302TIP3   OH224862   2.621   5.886   2.523
 8302TIP3    H124863   2.544   5.879   2.466
 8302TIP3    H224864   2.587   5.875   2.612
 8303TIP3   OH224865   6.437   0.570   2.469
 8303TIP3    H124866   6.375   0.600   2.402
 8303TIP3    H224867   6.485   0.648   2.494
 8304TIP3   OH224868   0.123   0.692   5.312
 8304TIP3    H124869   0.124   0.633   5.387
 8304TIP3    H224870   0.065   0.649   5.249
 8305TIP3   OH224871   5.424   2.965   6.097
 8305TIP3    H124872   5.420   2.967   6.001
 8305TIP3    H224873   5.375   2.887   6.122
 8306TIP3   OH224874   5.903   5.250   1.192
 8306TIP3    H124875   5.974   5.199   1.153
 8306TIP3    H224876   5.827   5.232   1.136
 8307TIP3   OH224877   3.764   2.587   4.548
 8307TIP3    H124878   3.766   2.609   4.641
 8307TIP3    H224879   3.763   2.491   4.547
 8308TIP3   OH224880   6.251   2.481   3.957
 8308TIP3    H124881   6.177   2.427   3.929
 8308TIP3    H224882   6.309   2.482   3.881
 8309TIP3   OH224883   4.898   5.931   4.603
 8309TIP3    H124884   4.928   5.984   4.677
 8309TIP3    H224885   4.812   5.967   4.581
 8310TIP3   OH224886   4.454   2.963   0.446
 8310TIP3    H124887   4.417   2.980   0.533
 8310TIP3    H224888   4.512   3.037   0.430
 8311TIP3   OH224889   7.041   5.274   5.054
 8311TIP3    H124890   7.096   5.196   5.059
 8311TIP3    H224891   7.023   5.284   4.960
 8312TIP3   OH224892   4.460   5.375   0.958
 8312TIP3    H124893   4.495   5.291   0.927
 8312TIP3    H224894   4.487   5.380   1.049
 8313TIP3   OH224895   2.797   5.288   1.545
 8313TIP3    H124896   2.827   5.259   1.631
 8313TIP3    H224897   2.811   5.383   1.545
 8314TIP3   OH224898   3.640   0.043   4.658
 8314TIP3    H124899   3.702  -0.029   4.673
 8314TIP3    H224900   3.597   0.022   4.576
 8315TIP3   OH224901   7.406   0.169   3.089
 8315TIP3    H124902   7.487   0.215   3.067
 8315TIP3    H224903   7.377   0.130   3.007
 8316TIP3   OH224904   0.350   1.629   3.346
 8316TIP3    H124905   0.434   1.585   3.340
 8316TIP3    H224906   0.300   1.579   3.411
 8317TIP3   OH224907   0.851   6.117   0.203
 8317TIP3    H124908   0.794   6.191   0.182
 8317TIP3    H224909   0.852   6.114   0.298
 8318TIP3   OH224910   3.691   0.163   2.152
 8318TIP3    H124911   3.676   0.228   2.084
 8318TIP3    H224912   3.658   0.204   2.232
 8319TIP3   OH224913   2.719   7.698   2.425
 8319TIP3    H124914   2.715   7.732   2.335
 8319TIP3    H224915   2.810   7.711   2.452
 8320TIP3   OH224916   1.355   4.554   0.143
 8320TIP3    H124917   1.284   4.609   0.177
 8320TIP3    H224918   1.435   4.605   0.158
 8321TIP3   OH224919   0.372   7.310   3.766
 8321TIP3    H124920   0.362   7.292   3.673
 8321TIP3    H224921   0.456   7.270   3.789
 8322TIP3   OH224922   7.027   0.285   6.611
 8322TIP3    H124923   6.998   0.371   6.580
 8322TIP3    H224924   7.112   0.301   6.651
 8323TIP3   OH224925   4.918   1.977   2.191
 8323TIP3    H124926   4.904   1.916   2.118
 8323TIP3    H224927   4.836   2.026   2.197
 8324TIP3   OH224928   5.419   1.280   6.664
 8324TIP3    H124929   5.474   1.214   6.623
 8324TIP3    H224930   5.481   1.342   6.703
 8325TIP3   OH224931   3.886   1.249   0.936
 8325TIP3    H124932   3.848   1.259   0.848
 8325TIP3    H224933   3.952   1.317   0.942
 8326TIP3   OH224934   6.931   0.212   0.924
 8326TIP3    H124935   6.921   0.256   1.009
 8326TIP3    H224936   6.977   0.131   0.945
 8327TIP3   OH224937   6.531   6.260   0.004
 8327TIP3    H124938   6.620   6.293  -0.003
 8327TIP3    H224939   6.477   6.339   0.016
 8328TIP3   OH224940   8.101   4.446   5.536
 8328TIP3    H124941   8.151   4.473   5.458
 8328TIP3    H224942   8.033   4.388   5.501
 8329TIP3   OH224943   2.436   5.359   2.958
 8329TIP3    H124944   2.529   5.380   2.960
 8329TIP3    H224945   2.432   5.272   2.920
 8330TIP3   OH224946   0.693   2.487   6.805
 8330TIP3    H124947   0.732   2.410   6.846
 8330TIP3    H224948   0.768   2.533   6.766
 8331TIP3   OH224949   7.038   4.407   0.430
 8331TIP3    H124950   6.988   4.349   0.372
 8331TIP3    H224951   6.980   4.482   0.445
 8332TIP3   OH224952   6.782   5.097   0.336
 8332TIP3    H124953   6.789   5.125   0.427
 8332TIP3    H224954   6.851   5.032   0.326
 8333TIP3   OH224955   5.778   1.441   0.225
 8333TIP3    H124956   5.819   1.517   0.265
 8333TIP3    H224957   5.832   1.421   0.149
 8334TIP3   OH224958   0.031   0.509   2.830
 8334TIP3    H124959  -0.038   0.458   2.872
 8334TIP3    H224960  -0.014   0.561   2.763
 8335TIP3   OH224961   7.157   2.862   6.843
 8335TIP3    H124962   7.101   2.912   6.784
 8335TIP3    H224963   7.174   2.780   6.797
 8336TIP3   OH224964   5.166   1.549   6.245
 8336TIP3    H124965   5.254   1.549   6.207
 8336TIP3    H224966   5.158   1.463   6.287
 8337TIP3   OH224967   4.723   7.725   1.890
 8337TIP3    H124968   4.668   7.803   1.895
 8337TIP3    H224969   4.813   7.760   1.892
 8338TIP3   OH224970   7.652   0.068   1.465
 8338TIP3    H124971   7.728   0.017   1.495
 8338TIP3    H224972   7.588   0.002   1.438
 8339TIP3   OH224973   7.902   1.013   0.937
 8339TIP3    H124974   7.820   0.965   0.928
 8339TIP3    H224975   7.940   1.012   0.849
 8340TIP3   OH224976   1.995   7.719   0.062
 8340TIP3    H124977   2.001   7.795   0.004
 8340TIP3    H224978   1.910   7.680   0.043
 8341TIP3   OH224979   2.158   3.001   2.067
 8341TIP3    H124980   2.098   2.935   2.102
 8341TIP3    H224981   2.209   2.954   2.001
 8342TIP3   OH224982   0.001   0.819   5.697
 8342TIP3    H124983   0.087   0.776   5.694
 8342TIP3    H224984  -0.006   0.851   5.787
 8343TIP3   OH224985   2.348   1.976   6.777
 8343TIP3    H124986   2.345   1.891   6.733
 8343TIP3    H224987   2.264   1.983   6.822
 8344TIP3   OH224988   1.598   3.997   0.277
 8344TIP3    H124989   1.550   4.067   0.232
 8344TIP3    H224990   1.685   3.998   0.236
 8345TIP3   OH224991   5.864   2.202   0.921
 8345TIP3    H124992   5.926   2.143   0.963
 8345TIP3    H224993   5.860   2.171   0.830
 8346TIP3   OH224994   3.470   1.859   1.533
 8346TIP3    H124995   3.432   1.785   1.581
 8346TIP3    H224996   3.518   1.818   1.460
 8347TIP3   OH224997   2.630   7.762   2.690
 8347TIP3    H124998   2.715   7.736   2.728
 8347TIP3    H224999   2.648   7.771   2.597
 8348TIP3   OH225000   4.559   0.754   5.906
 8348TIP3    H125001   4.533   0.766   5.815
 8348TIP3    H225002   4.605   0.835   5.929
 8349TIP3   OH225003   0.621   4.282   1.403
 8349TIP3    H125004   0.708   4.320   1.386
 8349TIP3    H225005   0.562   4.332   1.348
 8350TIP3   OH225006   4.513   1.370   6.542
 8350TIP3    H125007   4.420   1.365   6.563
 8350TIP3    H225008   4.534   1.463   6.547
 8351TIP3   OH225009   3.050   0.426   3.636
 8351TIP3    H125010   3.008   0.369   3.571
 8351TIP3    H225011   3.138   0.441   3.601
 8352TIP3   OH225012   0.779   5.935   2.255
 8352TIP3    H125013   0.702   5.987   2.279
 8352TIP3    H225014   0.745   5.847   2.238
 8353TIP3   OH225015   2.402   5.643   3.614
 8353TIP3    H125016   2.382   5.550   3.609
 8353TIP3    H225017   2.496   5.649   3.597
 8354TIP3   OH225018   1.206   0.250   2.351
 8354TIP3    H125019   1.239   0.333   2.317
 8354TIP3    H225020   1.111   0.257   2.344
 8355TIP3   OH225021   0.881   1.134   4.273
 8355TIP3    H125022   0.912   1.223   4.291
 8355TIP3    H225023   0.788   1.136   4.296
 8356TIP3   OH225024   3.162   5.158   0.698
 8356TIP3    H125025   3.095   5.192   0.757
 8356TIP3    H225026   3.167   5.223   0.628
 8357TIP3   OH225027   0.521   6.138   2.673
 8357TIP3    H125028   0.530   6.213   2.614
 8357TIP3    H225029   0.540   6.062   2.618
 8358TIP3   OH225030   5.364   0.898   5.730
 8358TIP3    H125031   5.439   0.931   5.680
 8358TIP3    H225032   5.298   0.878   5.663
 8359TIP3   OH225033   0.262   6.546   1.801
 8359TIP3    H125034   0.287   6.621   1.748
 8359TIP3    H225035   0.334   6.535   1.863
 8360TIP3   OH225036   4.347   4.335   0.896
 8360TIP3    H125037   4.296   4.258   0.922
 8360TIP3    H225038   4.332   4.343   0.802
 8361TIP3   OH225039   6.611   1.570   4.754
 8361TIP3    H125040   6.559   1.615   4.821
 8361TIP3    H225041   6.608   1.629   4.679
 8362TIP3   OH225042   2.391   5.474   4.188
 8362TIP3    H125043   2.384   5.472   4.093
 8362TIP3    H225044   2.468   5.422   4.208
 8363TIP3   OH225045   4.699   6.097   6.535
 8363TIP3    H125046   4.680   6.054   6.618
 8363TIP3    H225047   4.740   6.180   6.559
 8364TIP3   OH225048   7.484   4.410   0.829
 8364TIP3    H125049   7.428   4.445   0.760
 8364TIP3    H225050   7.429   4.411   0.907
 8365TIP3   OH225051   2.124   6.665   5.647
 8365TIP3    H125052   2.167   6.599   5.594
 8365TIP3    H225053   2.106   6.621   5.730
 8366TIP3   OH225054   4.233   2.547   0.054
 8366TIP3    H125055   4.187   2.536   0.138
 8366TIP3    H225056   4.301   2.479   0.055
 8367TIP3   OH225057   5.885   4.540   5.900
 8367TIP3    H125058   5.952   4.609   5.899
 8367TIP3    H225059   5.935   4.458   5.897
 8368TIP3   OH225060   7.167   5.423   1.162
 8368TIP3    H125061   7.263   5.426   1.163
 8368TIP3    H225062   7.143   5.380   1.244
 8369TIP3   OH225063   8.226   1.739   3.976
 8369TIP3    H125064   8.178   1.815   3.944
 8369TIP3    H225065   8.204   1.669   3.915
 8370TIP3   OH225066   7.973   5.511   3.135
 8370TIP3    H125067   7.909   5.581   3.123
 8370TIP3    H225068   7.921   5.433   3.153
 8371TIP3   OH225069   4.070   4.648   2.935
 8371TIP3    H125070   4.043   4.605   3.016
 8371TIP3    H225071   4.126   4.584   2.891
 8372TIP3   OH225072   2.227   4.997   5.962
 8372TIP3    H125073   2.196   4.907   5.966
 8372TIP3    H225074   2.185   5.040   6.036
 8373TIP3   OH225075   3.937   7.620   1.323
 8373TIP3    H125076   4.014   7.676   1.311
 8373TIP3    H225077   3.870   7.678   1.360
 8374TIP3   OH225078   2.955   0.553   4.655
 8374TIP3    H125079   3.038   0.597   4.675
 8374TIP3    H225080   2.970   0.462   4.678
 8375TIP3   OH225081   8.118   4.734   3.108
 8375TIP3    H125082   8.108   4.796   3.179
 8375TIP3    H225083   8.176   4.666   3.143
 8376TIP3   OH225084   1.726   7.543   0.309
 8376TIP3    H125085   1.741   7.449   0.319
 8376TIP3    H225086   1.783   7.584   0.373
 8377TIP3   OH225087   7.280   0.389   6.155
 8377TIP3    H125088   7.308   0.427   6.072
 8377TIP3    H225089   7.217   0.321   6.129
 8378TIP3   OH225090   4.101   0.821   6.369
 8378TIP3    H125091   4.071   0.752   6.310
 8378TIP3    H225092   4.191   0.840   6.340
 8379TIP3   OH225093   3.719   5.566   2.933
 8379TIP3    H125094   3.691   5.476   2.921
 8379TIP3    H225095   3.660   5.601   3.000
 8380TIP3   OH225096   5.349   2.941   6.760
 8380TIP3    H125097   5.377   2.936   6.669
 8380TIP3    H225098   5.264   2.897   6.761
 8381TIP3   OH225099   3.732   4.048   6.673
 8381TIP3    H125100   3.672   3.985   6.633
 8381TIP3    H225101   3.777   3.999   6.741
 8382TIP3   OH225102   4.685   2.525   6.696
 8382TIP3    H125103   4.667   2.482   6.780
 8382TIP3    H225104   4.778   2.510   6.682
 8383TIP3   OH225105   2.741   6.003   4.029
 8383TIP3    H125106   2.800   6.076   4.046
 8383TIP3    H225107   2.656   6.044   4.015
 8384TIP3   OH225108   4.254   7.728   4.144
 8384TIP3    H125109   4.303   7.745   4.225
 8384TIP3    H225110   4.304   7.772   4.076
 8385TIP3   OH225111   3.998   4.683   5.186
 8385TIP3    H125112   4.015   4.589   5.184
 8385TIP3    H225113   4.085   4.723   5.176
 8386TIP3   OH225114   4.099   0.806   1.102
 8386TIP3    H125115   4.163   0.777   1.036
 8386TIP3    H225116   4.095   0.901   1.091
 8387TIP3   OH225117   0.248   6.713   5.600
 8387TIP3    H125118   0.273   6.708   5.692
 8387TIP3    H225119   0.197   6.634   5.584
 8388TIP3   OH225120   2.701   5.452   2.988
 8388TIP3    H125121   2.771   5.509   2.957
 8388TIP3    H225122   2.674   5.489   3.072
 8389TIP3   OH225123   7.922   4.727   2.198
 8389TIP3    H125124   7.829   4.705   2.209
 8389TIP3    H225125   7.949   4.679   2.120
 8390TIP3   OH225126   7.180   6.980   6.303
 8390TIP3    H125127   7.152   7.070   6.320
 8390TIP3    H225128   7.172   6.936   6.387
 8391TIP3   OH225129   7.904   5.542   4.024
 8391TIP3    H125130   7.946   5.497   3.950
 8391TIP3    H225131   7.947   5.507   4.101
 8392TIP3   OH225132   3.290   3.204   0.751
 8392TIP3    H125133   3.334   3.164   0.675
 8392TIP3    H225134   3.197   3.190   0.734
 8393TIP3   OH225135   5.627   1.742   5.315
 8393TIP3    H125136   5.699   1.701   5.364
 8393TIP3    H225137   5.664   1.825   5.285
 8394TIP3   OH225138   7.311   1.569   4.512
 8394TIP3    H125139   7.326   1.577   4.606
 8394TIP3    H225140   7.218   1.589   4.500
 8395TIP3   OH225141   6.357   3.364   4.322
 8395TIP3    H125142   6.430   3.389   4.378
 8395TIP3    H225143   6.321   3.285   4.363
 8396TIP3   OH225144   5.538   6.290   0.682
 8396TIP3    H125145   5.564   6.275   0.591
 8396TIP3    H225146   5.488   6.212   0.706
 8397TIP3   OH225147   4.003   0.313   2.735
 8397TIP3    H125148   3.936   0.381   2.743
 8397TIP3    H225149   3.955   0.231   2.752
 8398TIP3   OH225150   3.529   6.339   3.886
 8398TIP3    H125151   3.587   6.396   3.936
 8398TIP3    H225152   3.558   6.250   3.907
 8399TIP3   OH225153   2.825   3.726   1.307
 8399TIP3    H125154   2.870   3.641   1.315
 8399TIP3    H225155   2.807   3.752   1.398
 8400TIP3   OH225156   6.009   5.627   5.459
 8400TIP3    H125157   5.961   5.612   5.378
 8400TIP3    H225158   5.966   5.569   5.523
 8401TIP3   OH225159   3.201   2.517   0.712
 8401TIP3    H125160   3.272   2.541   0.773
 8401TIP3    H225161   3.211   2.423   0.699
 8402TIP3   OH225162   7.686   6.832   1.244
 8402TIP3    H125163   7.699   6.886   1.166
 8402TIP3    H225164   7.623   6.881   1.297
 8403TIP3   OH225165   3.942   0.758   1.368
 8403TIP3    H125166   3.931   0.849   1.339
 8403TIP3    H225167   4.015   0.725   1.316
 8404TIP3   OH225168   7.643   1.247   5.644
 8404TIP3    H125169   7.628   1.256   5.738
 8404TIP3    H225170   7.625   1.155   5.625
 8405TIP3   OH225171   5.225   2.968   4.499
 8405TIP3    H125172   5.140   2.966   4.542
 8405TIP3    H225173   5.289   2.963   4.571
 8406TIP3   OH225174   5.584   0.561   2.312
 8406TIP3    H125175   5.513   0.544   2.374
 8406TIP3    H225176   5.546   0.622   2.249
 8407TIP3   OH225177   2.960   5.853   5.959
 8407TIP3    H125178   2.903   5.823   5.888
 8407TIP3    H225179   3.029   5.787   5.964
 8408TIP3   OH225180   3.791   5.614   0.270
 8408TIP3    H125181   3.853   5.609   0.343
 8408TIP3    H225182   3.825   5.553   0.205
 8409TIP3   OH225183   3.040   0.211   4.080
 8409TIP3    H125184   3.125   0.169   4.093
 8409TIP3    H225185   3.039   0.236   3.987
 8410TIP3   OH225186   2.790   6.798   3.054
 8410TIP3    H125187   2.771   6.722   3.109
 8410TIP3    H225188   2.808   6.869   3.115
 8411TIP3   OH225189   0.557   2.551   3.391
 8411TIP3    H125190   0.606   2.572   3.311
 8411TIP3    H225191   0.536   2.637   3.429
 8412TIP3   OH225192   0.647   3.903   2.340
 8412TIP3    H125193   0.649   3.864   2.253
 8412TIP3    H225194   0.606   3.837   2.395
 8413TIP3   OH225195   3.414   7.148   0.794
 8413TIP3    H125196   3.458   7.226   0.827
 8413TIP3    H225197   3.321   7.172   0.791
 8414TIP3   OH225198   6.552   1.841   4.005
 8414TIP3    H125199   6.538   1.760   3.956
 8414TIP3    H225200   6.531   1.910   3.943
 8415TIP3   OH225201   2.701   2.973   2.973
 8415TIP3    H125202   2.612   3.005   2.992
 8415TIP3    H225203   2.745   3.046   2.932
 8416TIP3   OH225204   7.796   6.557   4.550
 8416TIP3    H125205   7.771   6.484   4.493
 8416TIP3    H225206   7.729   6.624   4.533
 8417TIP3   OH225207   0.640   0.666   3.704
 8417TIP3    H125208   0.593   0.749   3.701
 8417TIP3    H225209   0.729   0.688   3.676
 8418TIP3   OH225210   0.965   1.317   0.819
 8418TIP3    H125211   0.977   1.225   0.796
 8418TIP3    H225212   0.978   1.365   0.737
 8419TIP3   OH225213   1.701   4.406   0.956
 8419TIP3    H125214   1.666   4.357   0.882
 8419TIP3    H225215   1.648   4.378   1.031
 8420TIP3   OH225216   0.408   1.830   2.180
 8420TIP3    H125217   0.473   1.872   2.124
 8420TIP3    H225218   0.360   1.903   2.220
 8421TIP3   OH225219   3.861   1.152   2.545
 8421TIP3    H125220   3.822   1.223   2.596
 8421TIP3    H225221   3.836   1.172   2.455
 8422TIP3   OH225222   6.968   5.171   4.057
 8422TIP3    H125223   6.886   5.212   4.030
 8422TIP3    H225224   6.946   5.120   4.135
 8423TIP3   OH225225   7.167   7.757   4.111
 8423TIP3    H125226   7.232   7.826   4.123
 8423TIP3    H225227   7.154   7.751   4.017
 8424TIP3   OH225228   3.054   0.211   3.809
 8424TIP3    H125229   2.974   0.168   3.779
 8424TIP3    H225230   3.044   0.302   3.781
 8425TIP3   OH225231   0.871   7.374   3.161
 8425TIP3    H125232   0.804   7.310   3.185
 8425TIP3    H225233   0.884   7.362   3.067
 8426TIP3   OH225234   0.433   7.699   1.628
 8426TIP3    H125235   0.424   7.757   1.552
 8426TIP3    H225236   0.457   7.614   1.590
 8427TIP3   OH225237   5.237   3.892   2.260
 8427TIP3    H125238   5.317   3.863   2.217
 8427TIP3    H225239   5.208   3.968   2.209
 8428TIP3   OH225240   7.458   4.925   6.663
 8428TIP3    H125241   7.552   4.909   6.653
 8428TIP3    H225242   7.453   5.004   6.717
 8429TIP3   OH225243   3.905   7.404   1.513
 8429TIP3    H125244   3.924   7.457   1.590
 8429TIP3    H225245   3.913   7.465   1.439
 8430TIP3   OH225246   8.001   4.205   4.149
 8430TIP3    H125247   7.944   4.196   4.226
 8430TIP3    H225248   8.070   4.140   4.163
 8431TIP3   OH225249   0.699   7.691   0.038
 8431TIP3    H125250   0.683   7.598   0.051
 8431TIP3    H225251   0.693   7.704  -0.056
 8432TIP3   OH225252   8.252   7.580   6.563
 8432TIP3    H125253   8.171   7.540   6.532
 8432TIP3    H225254   8.284   7.520   6.631
 8433TIP3   OH225255   4.438   6.419   1.505
 8433TIP3    H125256   4.503   6.379   1.446
 8433TIP3    H225257   4.420   6.351   1.570
 8434TIP3   OH225258   1.641   0.523   4.360
 8434TIP3    H125259   1.721   0.483   4.394
 8434TIP3    H225260   1.664   0.548   4.270
 8435TIP3   OH225261   6.289   5.307   1.312
 8435TIP3    H125262   6.248   5.347   1.388
 8435TIP3    H225263   6.266   5.365   1.239
 8436TIP3   OH225264   5.144   0.725   4.178
 8436TIP3    H125265   5.119   0.666   4.249
 8436TIP3    H225266   5.206   0.674   4.126
 8437TIP3   OH225267   6.051   5.868   3.170
 8437TIP3    H125268   6.081   5.959   3.173
 8437TIP3    H225269   5.958   5.873   3.191
 8438TIP3   OH225270   3.673   7.715   5.173
 8438TIP3    H125271   3.609   7.664   5.123
 8438TIP3    H225272   3.640   7.715   5.263
 8439TIP3   OH225273   2.866   2.693   4.172
 8439TIP3    H125274   2.825   2.743   4.243
 8439TIP3    H225275   2.793   2.654   4.125
 8440TIP3   OH225276   5.649   6.731   4.485
 8440TIP3    H125277   5.568   6.689   4.459
 8440TIP3    H225278   5.702   6.732   4.405
 8441TIP3   OH225279   0.577   2.924   3.080
 8441TIP3    H125280   0.539   2.934   3.167
 8441TIP3    H225281   0.671   2.914   3.095
 8442TIP3   OH225282   8.156   7.026   1.913
 8442TIP3    H125283   8.118   6.953   1.963
 8442TIP3    H225284   8.238   6.991   1.878
 8443TIP3   OH225285   2.389   0.970   0.378
 8443TIP3    H125286   2.296   0.947   0.377
 8443TIP3    H225287   2.390   1.064   0.398
 8444TIP3   OH225288   6.772   7.177   2.038
 8444TIP3    H125289   6.839   7.120   2.075
 8444TIP3    H225290   6.720   7.205   2.113
 8445TIP3   OH225291   1.576   5.703   4.181
 8445TIP3    H125292   1.544   5.713   4.091
 8445TIP3    H225293   1.497   5.714   4.235
 8446TIP3   OH225294   7.921   7.652   0.076
 8446TIP3    H125295   7.983   7.595   0.122
 8446TIP3    H225296   7.912   7.612  -0.011
 8447TIP3   OH225297   3.575   1.017   3.909
 8447TIP3    H125298   3.617   0.940   3.869
 8447TIP3    H225299   3.503   0.980   3.960
 8448TIP3   OH225300   2.200   2.795   6.527
 8448TIP3    H125301   2.109   2.818   6.545
 8448TIP3    H225302   2.206   2.797   6.431
 8449TIP3   OH225303   0.350   2.796   1.469
 8449TIP3    H125304   0.334   2.820   1.378
 8449TIP3    H225305   0.389   2.875   1.508
 8450TIP3   OH225306   8.073   5.739   1.153
 8450TIP3    H125307   8.029   5.795   1.089
 8450TIP3    H225308   8.086   5.656   1.107
 8451TIP3   OH225309   3.605   5.258   6.600
 8451TIP3    H125310   3.551   5.268   6.521
 8451TIP3    H225311   3.661   5.335   6.601
 8452TIP3   OH225312   1.389   3.967   3.493
 8452TIP3    H125313   1.412   4.015   3.572
 8452TIP3    H225314   1.419   4.022   3.421
 8453TIP3   OH225315   0.540   4.847   3.780
 8453TIP3    H125316   0.483   4.826   3.706
 8453TIP3    H225317   0.629   4.829   3.748
 8454TIP3   OH225318   4.286   5.611   3.403
 8454TIP3    H125319   4.226   5.664   3.455
 8454TIP3    H225320   4.248   5.610   3.315
 8455TIP3   OH225321   1.331   2.255   0.445
 8455TIP3    H125322   1.423   2.254   0.419
 8455TIP3    H225323   1.332   2.292   0.534
 8456TIP3   OH225324   7.283   2.618   2.744
 8456TIP3    H125325   7.354   2.582   2.797
 8456TIP3    H225326   7.261   2.701   2.786
 8457TIP3   OH225327   6.316   3.857   1.962
 8457TIP3    H125328   6.294   3.910   1.885
 8457TIP3    H225329   6.296   3.914   2.036
 8458TIP3   OH225330   1.242   4.166   6.693
 8458TIP3    H125331   1.189   4.090   6.714
 8458TIP3    H225332   1.302   4.135   6.625
 8459TIP3   OH225333   2.256   1.044   0.794
 8459TIP3    H125334   2.278   1.130   0.759
 8459TIP3    H225335   2.175   1.057   0.842
 8460TIP3   OH225336   7.444   1.417   1.069
 8460TIP3    H125337   7.485   1.356   1.008
 8460TIP3    H225338   7.404   1.483   1.013
 8461TIP3   OH225339   2.536   1.306   5.619
 8461TIP3    H125340   2.586   1.226   5.632
 8461TIP3    H225341   2.445   1.276   5.610
 8462TIP3   OH225342   2.373   1.980   0.220
 8462TIP3    H125343   2.443   2.042   0.236
 8462TIP3    H225344   2.407   1.895   0.249
 8463TIP3   OH225345   3.661   5.271   0.267
 8463TIP3    H125346   3.574   5.305   0.289
 8463TIP3    H225347   3.692   5.328   0.197
 8464TIP3   OH225348   8.269   4.509   6.680
 8464TIP3    H125349   8.174   4.517   6.677
 8464TIP3    H225350   8.299   4.538   6.594
 8465TIP3   OH225351   2.456   4.778   5.767
 8465TIP3    H125352   2.423   4.854   5.719
 8465TIP3    H225353   2.395   4.707   5.746
 8466TIP3   OH225354   7.875   2.881   5.489
 8466TIP3    H125355   7.804   2.937   5.520
 8466TIP3    H225356   7.842   2.792   5.501
 8467TIP3   OH225357   0.867   2.368   5.266
 8467TIP3    H125358   0.887   2.451   5.224
 8467TIP3    H225359   0.952   2.330   5.286
 8468TIP3   OH225360   6.229   6.954   2.371
 8468TIP3    H125361   6.311   6.913   2.400
 8468TIP3    H225362   6.163   6.919   2.430
 8469TIP3   OH225363   2.372   1.738   0.501
 8469TIP3    H125364   2.433   1.811   0.504
 8469TIP3    H225365   2.337   1.732   0.590
 8470TIP3   OH225366   1.081   7.677   4.716
 8470TIP3    H125367   1.143   7.742   4.749
 8470TIP3    H225368   1.028   7.653   4.791
 8471TIP3   OH225369   5.136   5.659   5.928
 8471TIP3    H125370   5.217   5.670   5.977
 8471TIP3    H225371   5.067   5.673   5.993
 8472TIP3   OH225372   0.511   5.537   2.520
 8472TIP3    H125373   0.476   5.451   2.495
 8472TIP3    H225374   0.600   5.519   2.549
 8473TIP3   OH225375   5.450   5.558   0.950
 8473TIP3    H125376   5.520   5.547   1.015
 8473TIP3    H225377   5.407   5.473   0.947
 8474TIP3   OH225378   3.791   4.832   5.109
 8474TIP3    H125379   3.876   4.793   5.130
 8474TIP3    H225380   3.806   4.926   5.110
 8475TIP3   OH225381   2.981   3.122   2.323
 8475TIP3    H125382   2.925   3.138   2.400
 8475TIP3    H225383   2.944   3.178   2.255
 8476TIP3   OH225384   7.891   4.834   0.424
 8476TIP3    H125385   7.797   4.846   0.440
 8476TIP3    H225386   7.921   4.919   0.390
 8477TIP3   OH225387   7.409   5.325   2.262
 8477TIP3    H125388   7.322   5.289   2.280
 8477TIP3    H225389   7.406   5.414   2.296
 8478TIP3   OH225390   6.278   6.780   0.308
 8478TIP3    H125391   6.370   6.762   0.287
 8478TIP3    H225392   6.235   6.784   0.223
 8479TIP3   OH225393   4.397   4.021   3.057
 8479TIP3    H125394   4.463   4.010   3.126
 8479TIP3    H225395   4.447   4.035   2.977
 8480TIP3   OH225396   2.046   1.575   3.288
 8480TIP3    H125397   2.055   1.593   3.194
 8480TIP3    H225398   2.045   1.480   3.294
 8481TIP3   OH225399   5.260   3.392   0.012
 8481TIP3    H125400   5.172   3.415   0.042
 8481TIP3    H225401   5.314   3.396   0.091
 8482TIP3   OH225402   2.348   6.213   2.233
 8482TIP3    H125403   2.333   6.259   2.151
 8482TIP3    H225404   2.442   6.219   2.248
 8483TIP3   OH225405   7.564   6.783   5.346
 8483TIP3    H125406   7.480   6.741   5.328
 8483TIP3    H225407   7.566   6.860   5.289
 8484TIP3   OH225408   0.386   1.730   4.939
 8484TIP3    H125409   0.369   1.797   5.005
 8484TIP3    H225410   0.464   1.760   4.893
 8485TIP3   OH225411   2.613   1.262   2.282
 8485TIP3    H125412   2.688   1.266   2.342
 8485TIP3    H225413   2.652   1.250   2.196
 8486TIP3   OH225414   5.075   2.672   3.916
 8486TIP3    H125415   5.135   2.742   3.939
 8486TIP3    H225416   5.088   2.605   3.983
 8487TIP3   OH225417   2.962   5.828   4.507
 8487TIP3    H125418   2.893   5.871   4.558
 8487TIP3    H225419   2.945   5.857   4.417
 8488TIP3   OH225420   5.188   1.506   5.660
 8488TIP3    H125421   5.264   1.539   5.611
 8488TIP3    H225422   5.112   1.539   5.610
 8489TIP3   OH225423   7.972   4.534   1.596
 8489TIP3    H125424   8.042   4.566   1.654
 8489TIP3    H225425   8.004   4.552   1.508
 8490TIP3   OH225426   1.396   6.985   2.065
 8490TIP3    H125427   1.386   6.899   2.024
 8490TIP3    H225428   1.388   6.968   2.159
 8491TIP3   OH225429   2.903   5.370   5.341
 8491TIP3    H125430   2.827   5.385   5.285
 8491TIP3    H225431   2.948   5.295   5.301
 8492TIP3   OH225432   7.739   7.612   6.304
 8492TIP3    H125433   7.760   7.583   6.392
 8492TIP3    H225434   7.800   7.564   6.248
 8493TIP3   OH225435   7.325   1.186   1.432
 8493TIP3    H125436   7.349   1.271   1.394
 8493TIP3    H225437   7.381   1.178   1.509
 8494TIP3   OH225438   0.471   6.830   5.077
 8494TIP3    H125439   0.509   6.915   5.054
 8494TIP3    H225440   0.537   6.766   5.050
 8495TIP3   OH225441   3.159   6.521   2.657
 8495TIP3    H125442   3.074   6.543   2.619
 8495TIP3    H225443   3.163   6.572   2.739
 8496TIP3   OH225444   6.938   5.138   2.395
 8496TIP3    H125445   6.911   5.229   2.392
 8496TIP3    H225446   6.932   5.114   2.487
 8497TIP3   OH225447   2.398   5.737   4.380
 8497TIP3    H125448   2.405   5.784   4.296
 8497TIP3    H225449   2.382   5.646   4.356
 8498TIP3   OH225450   5.716   4.014   5.087
 8498TIP3    H125451   5.743   3.931   5.127
 8498TIP3    H225452   5.632   3.995   5.046
 8499TIP3   OH225453   7.652   5.879   2.796
 8499TIP3    H125454   7.621   5.790   2.813
 8499TIP3    H225455   7.747   5.874   2.807
 8500TIP3   OH225456   6.601   7.406   2.474
 8500TIP3    H125457   6.543   7.474   2.440
 8500TIP3    H225458   6.554   7.369   2.548
 8501TIP3   OH225459   2.403   3.326   1.579
 8501TIP3    H125460   2.485   3.374   1.585
 8501TIP3    H225461   2.336   3.391   1.601
 8502TIP3   OH225462   3.303   6.712   2.468
 8502TIP3    H125463   3.246   6.788   2.481
 8502TIP3    H225464   3.307   6.670   2.553
 8503TIP3   OH225465   4.470   3.431   2.671
 8503TIP3    H125466   4.389   3.476   2.647
 8503TIP3    H225467   4.469   3.428   2.767
 8504TIP3   OH225468   2.185   6.807   5.262
 8504TIP3    H125469   2.186   6.711   5.260
 8504TIP3    H225470   2.242   6.830   5.335
 8505TIP3   OH225471   1.244   4.836   6.259
 8505TIP3    H125472   1.247   4.812   6.167
 8505TIP3    H225473   1.180   4.777   6.298
 8506TIP3   OH225474   7.491   1.089  -0.007
 8506TIP3    H125475   7.409   1.040   0.002
 8506TIP3    H225476   7.464   1.175  -0.039
 8507TIP3   OH225477   6.461   7.207   3.471
 8507TIP3    H125478   6.471   7.197   3.376
 8507TIP3    H225479   6.539   7.255   3.499
 8508TIP3   OH225480   2.079   5.416   0.640
 8508TIP3    H125481   2.120   5.406   0.554
 8508TIP3    H225482   2.041   5.504   0.638
 8509TIP3   OH225483   5.552   4.276   0.977
 8509TIP3    H125484   5.463   4.254   1.004
 8509TIP3    H225485   5.578   4.346   1.037
 8510TIP3   OH225486   0.841   0.884   5.543
 8510TIP3    H125487   0.887   0.897   5.626
 8510TIP3    H225488   0.873   0.800   5.511
 8511TIP3   OH225489   7.797   6.255   1.046
 8511TIP3    H125490   7.731   6.221   0.985
 8511TIP3    H225491   7.770   6.345   1.063
 8512TIP3   OH225492   1.624   5.814   0.681
 8512TIP3    H125493   1.554   5.845   0.737
 8512TIP3    H225494   1.690   5.779   0.741
 8513TIP3   OH225495   0.085   7.477   3.666
 8513TIP3    H125496   0.115   7.518   3.747
 8513TIP3    H225497   0.076   7.385   3.688
 8514TIP3   OH225498   5.925   0.951   1.846
 8514TIP3    H125499   5.976   0.983   1.771
 8514TIP3    H225500   5.847   1.006   1.846
 8515TIP3   OH225501   0.460   3.785   0.740
 8515TIP3    H125502   0.443   3.819   0.828
 8515TIP3    H225503   0.498   3.859   0.692
 8516TIP3   OH225504   5.627   5.419   6.492
 8516TIP3    H125505   5.709   5.375   6.511
 8516TIP3    H225506   5.564   5.348   6.479
 8517TIP3   OH225507   2.830   6.197   0.622
 8517TIP3    H125508   2.889   6.221   0.694
 8517TIP3    H225509   2.818   6.279   0.574
 8518TIP3   OH225510   0.869   0.632   0.448
 8518TIP3    H125511   0.831   0.545   0.452
 8518TIP3    H225512   0.950   0.621   0.398
 8519TIP3   OH225513   5.796   1.565   5.033
 8519TIP3    H125514   5.727   1.630   5.017
 8519TIP3    H225515   5.866   1.615   5.075
 8520TIP3   OH225516   4.177   6.210   1.017
 8520TIP3    H125517   4.266   6.235   1.042
 8520TIP3    H225518   4.134   6.293   0.997
 8521TIP3   OH225519   6.073   3.167   4.062
 8521TIP3    H125520   6.159   3.132   4.037
 8521TIP3    H225521   6.052   3.123   4.145
 8522TIP3   OH225522   2.332   6.772   2.889
 8522TIP3    H125523   2.279   6.704   2.930
 8522TIP3    H225524   2.423   6.744   2.903
 8523TIP3   OH225525   5.491   6.019   6.286
 8523TIP3    H125526   5.451   5.956   6.346
 8523TIP3    H225527   5.585   6.003   6.294
 8524TIP3   OH225528   3.060   2.670   1.248
 8524TIP3    H125529   2.982   2.622   1.220
 8524TIP3    H225530   3.058   2.668   1.343
 8525TIP3   OH225531   4.217   5.545   6.054
 8525TIP3    H125532   4.231   5.465   6.003
 8525TIP3    H225533   4.306   5.579   6.070
 8526TIP3   OH225534   7.243   4.186   2.047
 8526TIP3    H125535   7.292   4.251   1.996
 8526TIP3    H225536   7.177   4.153   1.986
 8527TIP3   OH225537   3.331   1.075   2.140
 8527TIP3    H125538   3.260   1.013   2.124
 8527TIP3    H225539   3.405   1.021   2.168
 8528TIP3   OH225540   7.785   2.522   6.151
 8528TIP3    H125541   7.771   2.429   6.134
 8528TIP3    H225542   7.712   2.566   6.107
 8529TIP3   OH225543   3.165   3.813   6.588
 8529TIP3    H125544   3.166   3.899   6.546
 8529TIP3    H225545   3.165   3.832   6.682
 8530TIP3   OH225546   6.498   0.181   0.948
 8530TIP3    H125547   6.522   0.262   0.994
 8530TIP3    H225548   6.577   0.157   0.900
 8531TIP3   OH225549   4.928   5.233   1.549
 8531TIP3    H125550   4.897   5.155   1.594
 8531TIP3    H225551   5.019   5.212   1.527
 8532TIP3   OH225552   7.059   4.481   2.611
 8532TIP3    H125553   7.148   4.461   2.638
 8532TIP3    H225554   7.041   4.418   2.541
 8533TIP3   OH225555   0.081   4.553   2.791
 8533TIP3    H125556   0.087   4.621   2.858
 8533TIP3    H225557   0.155   4.571   2.733
 8534TIP3   OH225558   7.596   3.653   3.912
 8534TIP3    H125559   7.679   3.649   3.865
 8534TIP3    H225560   7.536   3.697   3.852
 8535TIP3   OH225561   0.439   6.106   4.346
 8535TIP3    H125562   0.495   6.119   4.422
 8535TIP3    H225563   0.472   6.027   4.304
 8536TIP3   OH225564   7.087   1.290   3.500
 8536TIP3    H125565   7.044   1.282   3.415
 8536TIP3    H225566   7.018   1.322   3.558
 8537TIP3   OH225567   7.054   3.415   6.336
 8537TIP3    H125568   7.130   3.403   6.279
 8537TIP3    H225569   7.092   3.435   6.421
 8538TIP3   OH225570   1.612   3.502   3.837
 8538TIP3    H125571   1.521   3.509   3.865
 8538TIP3    H225572   1.614   3.425   3.780
 8539TIP3   OH225573   1.366   2.157   4.555
 8539TIP3    H125574   1.456   2.182   4.576
 8539TIP3    H225575   1.345   2.208   4.477
 8540TIP3   OH225576   1.022   3.147   3.830
 8540TIP3    H125577   1.036   3.105   3.745
 8540TIP3    H225578   1.012   3.240   3.810
 8541TIP3   OH225579   6.567   3.237   1.310
 8541TIP3    H125580   6.639   3.232   1.373
 8541TIP3    H225581   6.524   3.152   1.316
 8542TIP3   OH225582   0.693   6.407   4.396
 8542TIP3    H125583   0.745   6.473   4.442
 8542TIP3    H225584   0.746   6.328   4.400
 8543TIP3   OH225585   2.744   1.246   2.043
 8543TIP3    H125586   2.703   1.253   1.956
 8543TIP3    H225587   2.831   1.211   2.025
 8544TIP3   OH225588   3.295   6.572   0.713
 8544TIP3    H125589   3.385   6.552   0.741
 8544TIP3    H225590   3.289   6.667   0.718
 8545TIP3   OH225591   3.673   2.768   0.616
 8545TIP3    H125592   3.650   2.747   0.525
 8545TIP3    H225593   3.589   2.783   0.659
 8546TIP3   OH225594   0.406   0.524   4.632
 8546TIP3    H125595   0.454   0.443   4.612
 8546TIP3    H225596   0.317   0.494   4.652
 8547TIP3   OH225597   1.946   3.261   2.907
 8547TIP3    H125598   1.882   3.206   2.951
 8547TIP3    H225599   2.020   3.203   2.889
 8548TIP3   OH225600   2.222   4.428   0.402
 8548TIP3    H125601   2.288   4.474   0.349
 8548TIP3    H225602   2.141   4.476   0.387
 8549TIP3   OH225603   1.119   2.289   3.840
 8549TIP3    H125604   1.125   2.325   3.751
 8549TIP3    H225605   1.184   2.339   3.890
 8550TIP3   OH225606   3.692   3.705   5.103
 8550TIP3    H125607   3.685   3.796   5.133
 8550TIP3    H225608   3.637   3.702   5.025
 8551TIP3   OH225609   3.707   2.932   5.192
 8551TIP3    H125610   3.787   2.879   5.196
 8551TIP3    H225611   3.715   2.992   5.267
 8552TIP3   OH225612   4.832   3.026   3.568
 8552TIP3    H125613   4.872   3.050   3.485
 8552TIP3    H225614   4.738   3.026   3.550
 8553TIP3   OH225615   3.209   7.562   3.974
 8553TIP3    H125616   3.243   7.499   3.910
 8553TIP3    H225617   3.249   7.536   4.057
 8554TIP3   OH225618   2.963   2.634   0.579
 8554TIP3    H125619   3.035   2.585   0.619
 8554TIP3    H225620   2.962   2.605   0.488
 8555TIP3   OH225621   1.223   7.496   4.602
 8555TIP3    H125622   1.264   7.466   4.683
 8555TIP3    H225623   1.153   7.555   4.631
 8556TIP3   OH225624   0.717   1.897   1.227
 8556TIP3    H125625   0.794   1.921   1.279
 8556TIP3    H225626   0.647   1.888   1.291
 8557TIP3   OH225627   7.091   3.061   0.383
 8557TIP3    H125628   7.079   3.087   0.475
 8557TIP3    H225629   7.179   3.024   0.381
 8558TIP3   OH225630   5.493   4.109   6.322
 8558TIP3    H125631   5.403   4.086   6.297
 8558TIP3    H225632   5.515   4.045   6.390
 8559TIP3   OH225633   4.344   7.309   3.255
 8559TIP3    H125634   4.302   7.231   3.218
 8559TIP3    H225635   4.279   7.378   3.245
 8560TIP3   OH225636   8.180   3.126   3.915
 8560TIP3    H125637   8.107   3.185   3.895
 8560TIP3    H225638   8.248   3.184   3.951
 8561TIP3   OH225639   3.863   5.397   1.550
 8561TIP3    H125640   3.890   5.323   1.495
 8561TIP3    H225641   3.847   5.468   1.489
 8562TIP3   OH225642   0.964   4.608   3.932
 8562TIP3    H125643   0.885   4.589   3.882
 8562TIP3    H225644   1.036   4.583   3.873
 8563TIP3   OH225645   7.454   2.139   4.575
 8563TIP3    H125646   7.393   2.083   4.529
 8563TIP3    H225647   7.524   2.081   4.604
 8564TIP3   OH225648   3.038   0.452   2.028
 8564TIP3    H125649   3.105   0.419   1.968
 8564TIP3    H225650   3.006   0.531   1.987
 8565TIP3   OH225651   6.561   7.093   1.863
 8565TIP3    H125652   6.489   7.140   1.905
 8565TIP3    H225653   6.638   7.118   1.913
 8566TIP3   OH225654   1.987   4.059   4.898
 8566TIP3    H125655   1.939   3.999   4.841
 8566TIP3    H225656   2.067   4.011   4.921
 8567TIP3   OH225657   4.340   4.175   2.405
 8567TIP3    H125658   4.299   4.228   2.336
 8567TIP3    H225659   4.294   4.200   2.485
 8568TIP3   OH225660   4.014   5.684   0.818
 8568TIP3    H125661   4.036   5.668   0.727
 8568TIP3    H225662   3.989   5.776   0.821
 8569TIP3   OH225663   7.068   1.933   0.354
 8569TIP3    H125664   7.033   2.020   0.339
 8569TIP3    H225665   7.133   1.921   0.284
 8570TIP3   OH225666   1.664   4.415   2.348
 8570TIP3    H125667   1.697   4.379   2.430
 8570TIP3    H225668   1.737   4.467   2.314
 8571TIP3   OH225669   4.782   5.744   1.276
 8571TIP3    H125670   4.798   5.651   1.297
 8571TIP3    H225671   4.868   5.784   1.277
 8572TIP3   OH225672   3.376   1.831   5.380
 8572TIP3    H125673   3.329   1.885   5.317
 8572TIP3    H225674   3.464   1.869   5.382
 8573TIP3   OH225675   4.727   5.706   5.071
 8573TIP3    H125676   4.749   5.659   5.151
 8573TIP3    H225677   4.796   5.772   5.062
 8574TIP3   OH225678   7.358   5.489   4.995
 8574TIP3    H125679   7.359   5.457   4.905
 8574TIP3    H225680   7.338   5.411   5.048
 8575TIP3   OH225681   4.762   1.234   4.987
 8575TIP3    H125682   4.749   1.140   4.975
 8575TIP3    H225683   4.673   1.271   4.986
 8576TIP3   OH225684   1.357   2.569   2.118
 8576TIP3    H125685   1.367   2.657   2.082
 8576TIP3    H225686   1.359   2.512   2.042
 8577TIP3   OH225687   4.619   0.084   1.868
 8577TIP3    H125688   4.684   0.027   1.825
 8577TIP3    H225689   4.550   0.024   1.896
 8578TIP3   OH225690   4.247   0.560   1.913
 8578TIP3    H125691   4.194   0.577   1.991
 8578TIP3    H225692   4.189   0.514   1.853
 8579TIP3   OH225693   7.850   4.312   0.061
 8579TIP3    H125694   7.765   4.323   0.104
 8579TIP3    H225695   7.848   4.374  -0.012
 8580TIP3   OH225696   0.438   7.184   5.632
 8580TIP3    H125697   0.424   7.140   5.716
 8580TIP3    H225698   0.372   7.145   5.574
 8581TIP3   OH225699   7.214   2.832   2.913
 8581TIP3    H125700   7.170   2.778   2.979
 8581TIP3    H225701   7.256   2.902   2.962
 8582TIP3   OH225702   0.149   4.974   3.725
 8582TIP3    H125703   0.108   4.893   3.755
 8582TIP3    H225704   0.119   4.984   3.635
 8583TIP3   OH225705   1.206   3.479   4.934
 8583TIP3    H125706   1.239   3.390   4.919
 8583TIP3    H225707   1.111   3.469   4.940
 8584TIP3   OH225708   2.379   6.846   0.436
 8584TIP3    H125709   2.332   6.767   0.410
 8584TIP3    H225710   2.347   6.865   0.524
 8585TIP3   OH225711   2.588   5.393   0.901
 8585TIP3    H125712   2.621   5.306   0.878
 8585TIP3    H225713   2.496   5.390   0.876
 8586TIP3   OH225714   7.343   4.597   5.684
 8586TIP3    H125715   7.429   4.602   5.643
 8586TIP3    H225716   7.360   4.562   5.771
 8587TIP3   OH225717   4.929   3.602   6.229
 8587TIP3    H125718   4.978   3.684   6.236
 8587TIP3    H225719   4.945   3.571   6.140
 8588TIP3   OH225720   5.560   4.225   2.812
 8588TIP3    H125721   5.514   4.202   2.731
 8588TIP3    H225722   5.493   4.266   2.867
 8589TIP3   OH225723   2.553   3.566   6.166
 8589TIP3    H125724   2.569   3.651   6.207
 8589TIP3    H225725   2.638   3.542   6.129
 8590TIP3   OH225726   2.949   0.175   2.642
 8590TIP3    H125727   2.860   0.201   2.665
 8590TIP3    H225728   3.003   0.209   2.713
 8591TIP3   OH225729   0.061   1.169   4.255
 8591TIP3    H125730   0.078   1.074   4.260
 8591TIP3    H225731   0.101   1.196   4.173
 8592TIP3   OH225732   7.127   6.789   0.390
 8592TIP3    H125733   7.106   6.818   0.301
 8592TIP3    H225734   7.166   6.866   0.431
 8593TIP3   OH225735   1.911   6.136   0.861
 8593TIP3    H125736   1.838   6.133   0.923
 8593TIP3    H225737   1.975   6.194   0.902
 8594TIP3   OH225738   4.810   2.121   4.195
 8594TIP3    H125739   4.725   2.147   4.230
 8594TIP3    H225740   4.792   2.042   4.144
 8595TIP3   OH225741   6.185   6.351   4.687
 8595TIP3    H125742   6.268   6.362   4.641
 8595TIP3    H225743   6.139   6.434   4.674
 8596TIP3   OH225744   7.894   1.801   2.649
 8596TIP3    H125745   7.955   1.809   2.576
 8596TIP3    H225746   7.914   1.716   2.689
 8597TIP3   OH225747   5.527   5.314   1.800
 8597TIP3    H125748   5.558   5.233   1.840
 8597TIP3    H225749   5.433   5.301   1.788
 8598TIP3   OH225750   7.782   6.432   1.934
 8598TIP3    H125751   7.741   6.512   1.968
 8598TIP3    H225752   7.875   6.453   1.931
 8599TIP3   OH225753   2.324   4.039   1.262
 8599TIP3    H125754   2.383   3.979   1.217
 8599TIP3    H225755   2.249   3.985   1.287
 8600TIP3   OH225756   3.512   5.446   4.711
 8600TIP3    H125757   3.456   5.519   4.685
 8600TIP3    H225758   3.544   5.409   4.629
 8601TIP3   OH225759   4.946   4.527   1.264
 8601TIP3    H125760   4.917   4.587   1.195
 8601TIP3    H225761   4.888   4.545   1.338
 8602TIP3   OH225762   5.587   1.051   0.565
 8602TIP3    H125763   5.652   1.122   0.565
 8602TIP3    H225764   5.626   0.982   0.511
 8603TIP3   OH225765   1.584   6.941   5.076
 8603TIP3    H125766   1.604   6.886   5.152
 8603TIP3    H225767   1.540   7.018   5.113
 8604TIP3   OH225768   2.048   6.006   5.233
 8604TIP3    H125769   2.055   6.023   5.139
 8604TIP3    H225770   1.962   6.037   5.257
 8605TIP3   OH225771   6.111   3.357   6.295
 8605TIP3    H125772   6.100   3.451   6.285
 8605TIP3    H225773   6.186   3.335   6.240
 8606TIP3   OH225774   3.565   5.150   0.894
 8606TIP3    H125775   3.604   5.170   0.809
 8606TIP3    H225776   3.587   5.058   0.909
 8607TIP3   OH225777   2.865   1.944   3.140
 8607TIP3    H125778   2.886   1.904   3.225
 8607TIP3    H225779   2.896   1.880   3.076
 8608TIP3   OH225780   7.316   2.050   4.309
 8608TIP3    H125781   7.367   2.123   4.273
 8608TIP3    H225782   7.375   1.975   4.307
 8609TIP3   OH225783   2.318   0.529   2.722
 8609TIP3    H125784   2.238   0.483   2.748
 8609TIP3    H225785   2.335   0.590   2.793
 8610TIP3   OH225786   5.165   5.320   6.027
 8610TIP3    H125787   5.240   5.261   6.034
 8610TIP3    H225788   5.153   5.354   6.116
 8611TIP3   OH225789   4.764   1.167   5.305
 8611TIP3    H125790   4.686   1.142   5.255
 8611TIP3    H225791   4.831   1.106   5.276
 8612TIP3   OH225792   7.402   1.291   3.229
 8612TIP3    H125793   7.429   1.221   3.289
 8612TIP3    H225794   7.367   1.360   3.286
 8613TIP3   OH225795   6.589   3.788   4.631
 8613TIP3    H125796   6.562   3.761   4.543
 8613TIP3    H225797   6.515   3.764   4.687
 8614TIP3   OH225798   4.796   5.958   3.317
 8614TIP3    H125799   4.730   5.964   3.386
 8614TIP3    H225800   4.821   5.865   3.317
 8615TIP3   OH225801   4.225   2.041   3.019
 8615TIP3    H125802   4.272   2.046   2.935
 8615TIP3    H225803   4.135   2.018   2.994
 8616TIP3   OH225804   0.135   7.178   2.112
 8616TIP3    H125805   0.104   7.108   2.170
 8616TIP3    H225806   0.196   7.135   2.053
 8617TIP3   OH225807   2.764   7.635   1.660
 8617TIP3    H125808   2.837   7.675   1.708
 8617TIP3    H225809   2.735   7.563   1.716
 8618TIP3   OH225810   3.272   6.927   3.345
 8618TIP3    H125811   3.226   6.867   3.286
 8618TIP3    H225812   3.364   6.917   3.322
 8619TIP3   OH225813   0.526   0.277   2.945
 8619TIP3    H125814   0.533   0.182   2.939
 8619TIP3    H225815   0.441   0.298   2.906
 8620TIP3   OH225816   6.792   3.409   5.644
 8620TIP3    H125817   6.853   3.481   5.626
 8620TIP3    H225818   6.844   3.330   5.631
 8621TIP3   OH225819   5.136   5.802   1.469
 8621TIP3    H125820   5.085   5.838   1.542
 8621TIP3    H225821   5.170   5.719   1.503
 8622TIP3   OH225822   6.130   5.922   2.840
 8622TIP3    H125823   6.114   5.857   2.772
 8622TIP3    H225824   6.187   5.986   2.799
 8623TIP3   OH225825   8.230   5.493   3.278
 8623TIP3    H125826   8.157   5.517   3.221
 8623TIP3    H225827   8.223   5.552   3.353
 8624TIP3   OH225828   3.792   0.932   2.718
 8624TIP3    H125829   3.824   1.010   2.672
 8624TIP3    H225830   3.807   0.860   2.657
 8625TIP3   OH225831   8.182   5.500   6.610
 8625TIP3    H125832   8.216   5.472   6.695
 8625TIP3    H225833   8.251   5.555   6.574
 8626TIP3   OH225834   4.000   7.772   3.919
 8626TIP3    H125835   4.054   7.851   3.926
 8626TIP3    H225836   3.910   7.804   3.926
 8627TIP3   OH225837   4.645   6.915   2.503
 8627TIP3    H125838   4.699   6.994   2.490
 8627TIP3    H225839   4.689   6.847   2.452
 8628TIP3   OH225840   4.474   6.056   5.883
 8628TIP3    H125841   4.550   6.074   5.828
 8628TIP3    H225842   4.431   6.140   5.894
 8629TIP3   OH225843   0.599   2.775   1.177
 8629TIP3    H125844   0.634   2.840   1.117
 8629TIP3    H225845   0.630   2.802   1.263
 8630TIP3   OH225846   5.834   6.651   5.818
 8630TIP3    H125847   5.914   6.640   5.870
 8630TIP3    H225848   5.804   6.739   5.839
 8631TIP3   OH225849   0.710   1.307   4.073
 8631TIP3    H125850   0.772   1.369   4.036
 8631TIP3    H225851   0.653   1.360   4.129
 8632TIP3   OH225852   6.293   1.784   5.558
 8632TIP3    H125853   6.300   1.861   5.614
 8632TIP3    H225854   6.384   1.764   5.534
 8633TIP3   OH225855   1.861   6.756   5.890
 8633TIP3    H125856   1.876   6.664   5.913
 8633TIP3    H225857   1.927   6.805   5.940
 8634TIP3   OH225858   5.919   1.785   0.827
 8634TIP3    H125859   5.839   1.744   0.859
 8634TIP3    H225860   5.979   1.712   0.812
 8635TIP3   OH225861   6.047   5.774   2.124
 8635TIP3    H125862   6.013   5.775   2.035
 8635TIP3    H225863   6.140   5.794   2.114
 8636TIP3   OH225864   6.931   3.190   3.241
 8636TIP3    H125865   7.020   3.212   3.213
 8636TIP3    H225866   6.900   3.268   3.287
 8637TIP3   OH225867   2.851   5.210   3.699
 8637TIP3    H125868   2.868   5.208   3.793
 8637TIP3    H225869   2.776   5.152   3.686
 8638TIP3   OH225870   8.202   3.261   1.558
 8638TIP3    H125871   8.174   3.173   1.582
 8638TIP3    H225872   8.122   3.314   1.561
 8639TIP3   OH225873   4.626   0.431   4.115
 8639TIP3    H125874   4.613   0.526   4.115
 8639TIP3    H225875   4.604   0.404   4.026
 8640TIP3   OH225876   3.988   5.802   4.886
 8640TIP3    H125877   4.043   5.880   4.893
 8640TIP3    H225878   4.035   5.746   4.824
 8641TIP3   OH225879   1.130   4.054   2.671
 8641TIP3    H125880   1.059   4.036   2.732
 8641TIP3    H225881   1.179   3.972   2.666
 8642TIP3   OH225882   2.471   3.695   6.634
 8642TIP3    H125883   2.460   3.749   6.713
 8642TIP3    H225884   2.560   3.660   6.641
 8643TIP3   OH225885   6.347   5.478   3.108
 8643TIP3    H125886   6.282   5.537   3.068
 8643TIP3    H225887   6.421   5.479   3.047
 8644TIP3   OH225888   5.190   6.811   3.139
 8644TIP3    H125889   5.273   6.841   3.103
 8644TIP3    H225890   5.213   6.775   3.224
 8645TIP3   OH225891   8.204   2.432   5.062
 8645TIP3    H125892   8.161   2.451   5.145
 8645TIP3    H225893   8.223   2.339   5.066
 8646TIP3   OH225894   7.764   3.606   4.216
 8646TIP3    H125895   7.689   3.605   4.157
 8646TIP3    H225896   7.734   3.657   4.292
 8647TIP3   OH225897   5.554   7.041   2.418
 8647TIP3    H125898   5.487   6.973   2.424
 8647TIP3    H225899   5.509   7.122   2.443
 8648TIP3   OH225900   1.105   6.856   4.222
 8648TIP3    H125901   1.013   6.881   4.211
 8648TIP3    H225902   1.154   6.932   4.191
 8649TIP3   OH225903   1.230   2.094   1.285
 8649TIP3    H125904   1.192   2.178   1.311
 8649TIP3    H225905   1.316   2.093   1.328
 8650TIP3   OH225906   7.222   4.303   3.729
 8650TIP3    H125907   7.288   4.342   3.787
 8650TIP3    H225908   7.215   4.212   3.759
 8651TIP3   OH225909   7.829   4.785   3.150
 8651TIP3    H125910   7.808   4.821   3.064
 8651TIP3    H225911   7.920   4.756   3.142
 8652TIP3   OH225912   1.382   6.050   3.515
 8652TIP3    H125913   1.330   6.077   3.439
 8652TIP3    H225914   1.323   5.992   3.565
 8653TIP3   OH225915   3.629   7.228   5.564
 8653TIP3    H125916   3.691   7.155   5.567
 8653TIP3    H225917   3.546   7.189   5.537
 8654TIP3   OH225918   1.480   0.798   2.255
 8654TIP3    H125919   1.523   0.844   2.184
 8654TIP3    H225920   1.551   0.756   2.304
 8655TIP3   OH225921   0.094   2.343   6.748
 8655TIP3    H125922   0.030   2.378   6.686
 8655TIP3    H225923   0.146   2.282   6.696
 8656TIP3   OH225924   6.048   6.800   2.534
 8656TIP3    H125925   5.963   6.765   2.507
 8656TIP3    H225926   6.102   6.722   2.549
 8657TIP3   OH225927   0.470   4.528   4.247
 8657TIP3    H125928   0.430   4.503   4.163
 8657TIP3    H225929   0.513   4.612   4.229
 8658TIP3   OH225930   0.908   3.525   4.521
 8658TIP3    H125931   0.897   3.580   4.598
 8658TIP3    H225932   0.995   3.486   4.532
 8659TIP3   OH225933   2.921   4.168   3.273
 8659TIP3    H125934   2.970   4.233   3.222
 8659TIP3    H225935   2.973   4.155   3.352
 8660TIP3   OH225936   4.508   6.274   3.132
 8660TIP3    H125937   4.458   6.263   3.213
 8660TIP3    H225938   4.499   6.367   3.111
 8661TIP3   OH225939   4.366   0.666   4.171
 8661TIP3    H125940   4.396   0.700   4.255
 8661TIP3    H225941   4.441   0.675   4.113
 8662TIP3   OH225942   0.565   6.146   6.354
 8662TIP3    H125943   0.631   6.214   6.335
 8662TIP3    H225944   0.516   6.181   6.429
 8663TIP3   OH225945   4.100   7.732   6.485
 8663TIP3    H125946   4.013   7.726   6.447
 8663TIP3    H225947   4.105   7.821   6.521
 8664TIP3   OH225948   1.279   1.333   5.589
 8664TIP3    H125949   1.240   1.414   5.623
 8664TIP3    H225950   1.274   1.271   5.661
 8665TIP3   OH225951   7.717   4.675   4.476
 8665TIP3    H125952   7.729   4.767   4.499
 8665TIP3    H225953   7.790   4.630   4.519
 8666TIP3   OH225954   6.050   4.306   3.323
 8666TIP3    H125955   6.128   4.280   3.273
 8666TIP3    H225956   6.023   4.388   3.282
 8667TIP3   OH225957   7.207   4.552   4.875
 8667TIP3    H125958   7.138   4.562   4.941
 8667TIP3    H225959   7.288   4.576   4.920
 8668TIP3   OH225960   4.838   1.581   1.605
 8668TIP3    H125961   4.858   1.608   1.695
 8668TIP3    H225962   4.819   1.663   1.559
 8669TIP3   OH225963   3.976   7.107   2.223
 8669TIP3    H125964   4.029   7.178   2.257
 8669TIP3    H225965   3.891   7.117   2.267
 8670TIP3   OH225966   7.959   6.354   5.178
 8670TIP3    H125967   8.031   6.411   5.151
 8670TIP3    H225968   7.910   6.406   5.241
 8671TIP3   OH225969   7.526   4.969   0.906
 8671TIP3    H125970   7.481   4.913   0.843
 8671TIP3    H225971   7.523   4.920   0.988
 8672TIP3   OH225972   3.084   5.832   3.064
 8672TIP3    H125973   3.158   5.892   3.059
 8672TIP3    H225974   3.043   5.838   2.977
 8673TIP3   OH225975   7.694   7.332   0.888
 8673TIP3    H125976   7.753   7.324   0.813
 8673TIP3    H225977   7.606   7.336   0.849
 8674TIP3   OH225978   7.195   1.482   3.027
 8674TIP3    H125979   7.227   1.409   3.081
 8674TIP3    H225980   7.262   1.550   3.037
 8675TIP3   OH225981   5.552   0.323   4.064
 8675TIP3    H125982   5.562   0.410   4.027
 8675TIP3    H225983   5.549   0.337   4.159
 8676TIP3   OH225984   4.392   3.018   6.616
 8676TIP3    H125985   4.417   3.021   6.524
 8676TIP3    H225986   4.475   3.030   6.664
 8677TIP3   OH225987   2.924   3.811   3.473
 8677TIP3    H125988   2.862   3.881   3.487
 8677TIP3    H225989   2.957   3.789   3.560
 8678TIP3   OH225990   3.892   5.453   2.218
 8678TIP3    H125991   3.831   5.412   2.157
 8678TIP3    H225992   3.864   5.421   2.304
 8679TIP3   OH225993   1.372   1.566   2.091
 8679TIP3    H125994   1.461   1.566   2.056
 8679TIP3    H225995   1.373   1.633   2.160
 8680TIP3   OH225996   0.329   3.208   5.968
 8680TIP3    H125997   0.360   3.290   5.931
 8680TIP3    H225998   0.252   3.232   6.019
 8681TIP3   OH225999   0.970   7.614   3.486
 8681TIP3    H126000   0.977   7.693   3.433
 8681TIP3    H226001   1.054   7.569   3.473
 8682TIP3   OH226002   4.570   1.991   1.091
 8682TIP3    H126003   4.584   1.912   1.039
 8682TIP3    H226004   4.553   1.958   1.180
 8683TIP3   OH226005   2.327   6.112   6.793
 8683TIP3    H126006   2.280   6.113   6.709
 8683TIP3    H226007   2.416   6.140   6.771
 8684TIP3   OH226008   2.945   1.454   0.396
 8684TIP3    H126009   3.018   1.410   0.440
 8684TIP3    H226010   2.881   1.468   0.465
 8685TIP3   OH226011   1.476   5.940   5.874
 8685TIP3    H126012   1.398   5.984   5.838
 8685TIP3    H226013   1.493   5.986   5.956
 8686TIP3   OH226014   4.402   3.030   0.970
 8686TIP3    H126015   4.396   3.076   0.886
 8686TIP3    H226016   4.453   3.089   1.026
 8687TIP3   OH226017   2.211   4.272   3.671
 8687TIP3    H126018   2.214   4.288   3.577
 8687TIP3    H226019   2.271   4.337   3.708
 8688TIP3   OH226020   6.869   4.877   1.191
 8688TIP3    H126021   6.825   4.962   1.193
 8688TIP3    H226022   6.842   4.838   1.107
 8689TIP3   OH226023   0.920   1.997   1.382
 8689TIP3    H126024   0.957   2.065   1.437
 8689TIP3    H226025   0.927   1.917   1.434
 8690TIP3   OH226026   3.705   0.975   4.515
 8690TIP3    H126027   3.741   1.044   4.459
 8690TIP3    H226028   3.710   1.011   4.604
 8691TIP3   OH226029   7.003   2.339   6.313
 8691TIP3    H126030   7.016   2.321   6.406
 8691TIP3    H226031   7.045   2.265   6.268
 8692TIP3   OH226032   1.615   6.835   1.296
 8692TIP3    H126033   1.613   6.885   1.214
 8692TIP3    H226034   1.614   6.743   1.268
 8693TIP3   OH226035   6.269   6.755   4.510
 8693TIP3    H126036   6.235   6.734   4.423
 8693TIP3    H226037   6.272   6.851   4.512
 8694TIP3   OH226038   2.945   7.255   1.626
 8694TIP3    H126039   2.898   7.313   1.685
 8694TIP3    H226040   3.037   7.265   1.651
 8695TIP3   OH226041   5.921   0.146   0.735
 8695TIP3    H126042   5.998   0.188   0.773
 8695TIP3    H226043   5.900   0.076   0.796
 8696TIP3   OH226044   1.019   6.483   0.306
 8696TIP3    H126045   0.993   6.461   0.396
 8696TIP3    H226046   0.940   6.519   0.266
 8697TIP3   OH226047   0.806   2.276   3.690
 8697TIP3    H126048   0.816   2.190   3.650
 8697TIP3    H226049   0.801   2.337   3.617
 8698TIP3   OH226050   0.338   2.932   2.898
 8698TIP3    H126051   0.410   2.976   2.943
 8698TIP3    H226052   0.356   2.947   2.805
 8699TIP3   OH226053   4.480   5.854   4.329
 8699TIP3    H126054   4.468   5.821   4.417
 8699TIP3    H226055   4.475   5.776   4.273
 8700TIP3   OH226056   3.748   6.564   4.676
 8700TIP3    H126057   3.752   6.473   4.705
 8700TIP3    H226058   3.696   6.562   4.596
 8701TIP3   OH226059   5.462   4.803   5.125
 8701TIP3    H126060   5.526   4.842   5.064
 8701TIP3    H226061   5.486   4.710   5.128
 8702TIP3   OH226062   3.735   5.687   3.316
 8702TIP3    H126063   3.675   5.740   3.263
 8702TIP3    H226064   3.704   5.598   3.305
 8703TIP3   OH226065   1.341   1.105   5.132
 8703TIP3    H126066   1.275   1.043   5.164
 8703TIP3    H226067   1.291   1.172   5.086
 8704TIP3   OH226068   4.931   7.184   0.690
 8704TIP3    H126069   4.855   7.234   0.661
 8704TIP3    H226070   4.986   7.178   0.612
 8705TIP3   OH226071   0.872   5.418   6.046
 8705TIP3    H126072   0.801   5.397   5.984
 8705TIP3    H226073   0.827   5.443   6.126
 8706TIP3   OH226074   6.952   2.928   4.487
 8706TIP3    H126075   6.913   3.009   4.456
 8706TIP3    H226076   6.912   2.912   4.572
 8707TIP3   OH226077   3.551   6.121   2.820
 8707TIP3    H126078   3.457   6.140   2.820
 8707TIP3    H226079   3.572   6.105   2.728
 8708TIP3   OH226080   2.895   6.103   6.169
 8708TIP3    H126081   2.912   6.164   6.241
 8708TIP3    H226082   2.909   6.155   6.090
 8709TIP3   OH226083   4.180   4.766   3.766
 8709TIP3    H126084   4.247   4.768   3.697
 8709TIP3    H226085   4.162   4.673   3.778
 8710TIP3   OH226086   5.595   0.609   4.038
 8710TIP3    H126087   5.669   0.621   3.978
 8710TIP3    H226088   5.590   0.691   4.086
 8711TIP3   OH226089   2.324   1.996   1.627
 8711TIP3    H126090   2.249   2.043   1.589
 8711TIP3    H226091   2.393   2.062   1.633
 8712TIP3   OH226092   4.404   6.815   4.841
 8712TIP3    H126093   4.432   6.905   4.830
 8712TIP3    H226094   4.385   6.784   4.752
 8713TIP3   OH226095   5.512   6.368   5.013
 8713TIP3    H126096   5.596   6.351   5.056
 8713TIP3    H226097   5.472   6.282   5.005
 8714TIP3   OH226098   1.099   5.129   4.843
 8714TIP3    H126099   1.088   5.185   4.766
 8714TIP3    H226100   1.038   5.164   4.908
 8715TIP3   OH226101   5.305   5.909   0.270
 8715TIP3    H126102   5.335   5.985   0.220
 8715TIP3    H226103   5.299   5.941   0.361
 8716TIP3   OH226104   3.397   3.010   4.677
 8716TIP3    H126105   3.326   2.946   4.677
 8716TIP3    H226106   3.469   2.966   4.724
 8717TIP3   OH226107   2.930   5.810   3.291
 8717TIP3    H126108   2.916   5.716   3.298
 8717TIP3    H226109   2.984   5.821   3.213
 8718TIP3   OH226110   4.626   3.066   1.342
 8718TIP3    H126111   4.703   3.123   1.338
 8718TIP3    H226112   4.642   2.999   1.275
 8719TIP3   OH226113   1.685   4.151   3.164
 8719TIP3    H126114   1.667   4.127   3.073
 8719TIP3    H226115   1.780   4.166   3.166
 8720TIP3   OH226116   1.275   7.801   2.937
 8720TIP3    H126117   1.302   7.733   2.875
 8720TIP3    H226118   1.355   7.852   2.952
 8721TIP3   OH226119   0.486   3.668   6.176
 8721TIP3    H126120   0.412   3.613   6.204
 8721TIP3    H226121   0.558   3.606   6.162
 8722TIP3   OH226122   1.189   1.827   1.215
 8722TIP3    H126123   1.160   1.804   1.303
 8722TIP3    H226124   1.191   1.923   1.215
 8723TIP3   OH226125   4.552   3.225   0.387
 8723TIP3    H126126   4.588   3.313   0.381
 8723TIP3    H226127   4.493   3.217   0.313
 8724TIP3   OH226128   7.372   5.320   3.664
 8724TIP3    H126129   7.443   5.379   3.639
 8724TIP3    H226130   7.308   5.377   3.707
 8725TIP3   OH226131   0.762   3.844   3.031
 8725TIP3    H126132   0.777   3.814   3.120
 8725TIP3    H226133   0.719   3.928   3.041
 8726TIP3   OH226134   3.756   2.624   1.478
 8726TIP3    H126135   3.687   2.602   1.416
 8726TIP3    H226136   3.721   2.599   1.563
 8727TIP3   OH226137   4.127   2.882   3.310
 8727TIP3    H126138   4.199   2.922   3.262
 8727TIP3    H226139   4.077   2.834   3.244
 8728TIP3   OH226140   7.982   2.113   4.112
 8728TIP3    H126141   8.004   2.030   4.154
 8728TIP3    H226142   8.064   2.162   4.112
 8729TIP3   OH226143   3.604   4.647   0.091
 8729TIP3    H126144   3.679   4.635   0.150
 8729TIP3    H226145   3.528   4.635   0.148
 8730TIP3   OH226146   3.524   3.617   4.835
 8730TIP3    H126147   3.480   3.590   4.916
 8730TIP3    H226148   3.463   3.594   4.765
 8731TIP3   OH226149   2.564   2.645   4.906
 8731TIP3    H126150   2.491   2.703   4.889
 8731TIP3    H226151   2.612   2.686   4.978
 8732TIP3   OH226152   3.078   5.648   5.261
 8732TIP3    H126153   3.160   5.670   5.217
 8732TIP3    H226154   3.099   5.570   5.314
 8733TIP3   OH226155   7.937   1.305   4.810
 8733TIP3    H126156   7.923   1.218   4.846
 8733TIP3    H226157   8.025   1.330   4.840
 8734TIP3   OH226158   6.251   7.203   3.658
 8734TIP3    H126159   6.311   7.198   3.584
 8734TIP3    H226160   6.292   7.148   3.725
 8735TIP3   OH226161   4.314   2.455   6.029
 8735TIP3    H126162   4.359   2.376   5.998
 8735TIP3    H226163   4.227   2.424   6.054
 8736TIP3   OH226164   0.705   3.699   5.861
 8736TIP3    H126165   0.661   3.693   5.776
 8736TIP3    H226166   0.653   3.763   5.910
 8737TIP3   OH226167   3.539   7.784   0.589
 8737TIP3    H126168   3.456   7.793   0.541
 8737TIP3    H226169   3.605   7.773   0.522
 8738TIP3   OH226170   7.260   4.921   4.670
 8738TIP3    H126171   7.204   4.843   4.663
 8738TIP3    H226172   7.322   4.913   4.597
 8739TIP3   OH226173   2.367   5.223   2.698
 8739TIP3    H126174   2.325   5.185   2.620
 8739TIP3    H226175   2.294   5.250   2.753
 8740TIP3   OH226176   0.154   0.517   4.721
 8740TIP3    H126177   0.098   0.592   4.738
 8740TIP3    H226178   0.109   0.443   4.763
 8741TIP3   OH226179   2.271   2.423   0.499
 8741TIP3    H126180   2.264   2.327   0.503
 8741TIP3    H226181   2.266   2.451   0.590
 8742TIP3   OH226182   6.489   5.717   6.408
 8742TIP3    H126183   6.545   5.643   6.431
 8742TIP3    H226184   6.465   5.756   6.492
 8743TIP3   OH226185   1.589   6.848   6.290
 8743TIP3    H126186   1.577   6.807   6.205
 8743TIP3    H226187   1.595   6.942   6.271
 8744TIP3   OH226188   0.021   4.859   0.836
 8744TIP3    H126189   0.076   4.831   0.763
 8744TIP3    H226190  -0.015   4.778   0.871
 8745TIP3   OH226191   6.156   1.955   3.021
 8745TIP3    H126192   6.108   2.015   3.078
 8745TIP3    H226193   6.157   1.872   3.069
 8746TIP3   OH226194   2.329   3.006   5.955
 8746TIP3    H126195   2.234   2.996   5.950
 8746TIP3    H226196   2.343   3.066   6.028
 8747TIP3   OH226197   3.296   6.207   1.723
 8747TIP3    H126198   3.203   6.226   1.709
 8747TIP3    H226199   3.312   6.230   1.814
 8748TIP3   OH226200   4.975   7.398   6.468
 8748TIP3    H126201   4.914   7.471   6.480
 8748TIP3    H226202   4.934   7.325   6.514
 8749TIP3   OH226203   7.584   1.608   4.406
 8749TIP3    H126204   7.601   1.515   4.396
 8749TIP3    H226205   7.662   1.643   4.448
 8750TIP3   OH226206   2.190   4.667   6.588
 8750TIP3    H126207   2.169   4.596   6.650
 8750TIP3    H226208   2.175   4.629   6.502
 8751TIP3   OH226209   6.411   3.697   5.452
 8751TIP3    H126210   6.498   3.714   5.490
 8751TIP3    H226211   6.366   3.646   5.519
 8752TIP3   OH226212   5.553   2.676   3.814
 8752TIP3    H126213   5.583   2.587   3.833
 8752TIP3    H226214   5.472   2.665   3.764
 8753TIP3   OH226215   1.764   4.645   4.480
 8753TIP3    H126216   1.776   4.737   4.457
 8753TIP3    H226217   1.762   4.644   4.576
 8754TIP3   OH226218   6.190   0.116   3.575
 8754TIP3    H126219   6.189   0.203   3.616
 8754TIP3    H226220   6.097   0.095   3.562
 8755TIP3   OH226221   3.406   2.863   0.422
 8755TIP3    H126222   3.487   2.828   0.385
 8755TIP3    H226223   3.345   2.866   0.349
 8756TIP3   OH226224   1.186   5.241   5.935
 8756TIP3    H126225   1.184   5.313   5.872
 8756TIP3    H226226   1.248   5.270   6.002
 8757TIP3   OH226227   3.126   3.911   5.707
 8757TIP3    H126228   3.053   3.889   5.650
 8757TIP3    H226229   3.086   3.955   5.782
 8758TIP3   OH226230   0.111   3.472   1.733
 8758TIP3    H126231   0.087   3.565   1.730
 8758TIP3    H226232   0.037   3.427   1.692
 8759TIP3   OH226233   1.097   7.549   1.918
 8759TIP3    H126234   1.105   7.503   2.001
 8759TIP3    H226235   1.003   7.548   1.898
 8760TIP3   OH226236   1.548   2.556   2.869
 8760TIP3    H126237   1.513   2.472   2.899
 8760TIP3    H226238   1.642   2.551   2.887
 8761TIP3   OH226239   4.419   2.410   5.606
 8761TIP3    H126240   4.333   2.413   5.648
 8761TIP3    H226241   4.470   2.350   5.660
 8762TIP3   OH226242   1.512   5.621   6.432
 8762TIP3    H126243   1.599   5.592   6.458
 8762TIP3    H226244   1.467   5.637   6.515
 8763TIP3   OH226245   8.106   7.778   0.924
 8763TIP3    H126246   8.092   7.769   1.019
 8763TIP3    H226247   8.122   7.688   0.895
 8764TIP3   OH226248   5.854   0.440   1.750
 8764TIP3    H126249   5.836   0.516   1.805
 8764TIP3    H226250   5.876   0.478   1.664
 8765TIP3   OH226251   3.539   1.543   0.690
 8765TIP3    H126252   3.567   1.634   0.692
 8765TIP3    H226253   3.449   1.545   0.724
 8766TIP3   OH226254   6.992   2.510   1.822
 8766TIP3    H126255   7.055   2.581   1.817
 8766TIP3    H226256   6.968   2.493   1.731
 8767TIP3   OH226257   6.938   5.775   1.023
 8767TIP3    H126258   6.906   5.688   1.046
 8767TIP3    H226259   6.963   5.814   1.107
 8768TIP3   OH226260   3.510   4.369   3.403
 8768TIP3    H126261   3.429   4.319   3.414
 8768TIP3    H226262   3.517   4.421   3.483
 8769TIP3   OH226263   8.024   4.015   4.483
 8769TIP3    H126264   7.959   4.060   4.429
 8769TIP3    H226265   8.096   4.078   4.490
 8770TIP3   OH226266   0.124   2.284   0.086
 8770TIP3    H126267   0.132   2.189   0.096
 8770TIP3    H226268   0.039   2.297   0.044
 8771TIP3   OH226269   5.840   0.888   5.410
 8771TIP3    H126270   5.763   0.832   5.399
 8771TIP3    H226271   5.912   0.827   5.424
 8772TIP3   OH226272   4.116   0.405   6.357
 8772TIP3    H126273   4.110   0.418   6.452
 8772TIP3    H226274   4.209   0.389   6.341
 8773TIP3   OH226275   1.692   5.234   0.280
 8773TIP3    H126276   1.712   5.255   0.189
 8773TIP3    H226277   1.642   5.152   0.276
 8774TIP3   OH226278   1.352   5.129   2.848
 8774TIP3    H126279   1.335   5.097   2.759
 8774TIP3    H226280   1.291   5.080   2.903
 8775TIP3   OH226281   3.716   5.490   2.619
 8775TIP3    H126282   3.641   5.432   2.631
 8775TIP3    H226283   3.728   5.532   2.705
 8776TIP3   OH226284   3.900   2.074   1.353
 8776TIP3    H126285   3.819   2.068   1.403
 8776TIP3    H226286   3.889   2.151   1.298
 8777TIP3   OH226287   1.479   4.629   0.994
 8777TIP3    H126288   1.539   4.703   0.993
 8777TIP3    H226289   1.502   4.578   0.916
 8778TIP3   OH226290   5.894   1.548   5.971
 8778TIP3    H126291   5.982   1.542   6.008
 8778TIP3    H226292   5.908   1.563   5.877
 8779TIP3   OH226293   2.962   0.491   6.062
 8779TIP3    H126294   2.996   0.521   6.147
 8779TIP3    H226295   2.877   0.453   6.082
 8780TIP3   OH226296   4.050   0.071   0.798
 8780TIP3    H126297   4.064   0.043   0.707
 8780TIP3    H226298   3.965   0.115   0.797
 8781TIP3   OH226299   0.704   5.598   4.616
 8781TIP3    H126300   0.610   5.613   4.603
 8781TIP3    H226301   0.721   5.516   4.571
 8782TIP3   OH226302   2.310   0.650   2.478
 8782TIP3    H126303   2.324   0.611   2.565
 8782TIP3    H226304   2.372   0.605   2.421
 8783TIP3   OH226305   8.250   1.689   3.491
 8783TIP3    H126306   8.287   1.776   3.509
 8783TIP3    H226307   8.262   1.678   3.396
 8784TIP3   OH226308   7.485   6.615   4.577
 8784TIP3    H126309   7.485   6.572   4.663
 8784TIP3    H226310   7.419   6.683   4.584
 8785TIP3   OH226311   7.909   7.217   0.171
 8785TIP3    H126312   7.960   7.264   0.105
 8785TIP3    H226313   7.962   7.223   0.251
 8786TIP3   OH226314   7.149   5.656   0.818
 8786TIP3    H126315   7.084   5.586   0.818
 8786TIP3    H226316   7.111   5.725   0.872
 8787TIP3   OH226317   6.002   7.619   6.590
 8787TIP3    H126318   6.011   7.707   6.626
 8787TIP3    H226319   6.078   7.571   6.625
 8788TIP3   OH226320   7.249   2.891   6.125
 8788TIP3    H126321   7.294   2.976   6.122
 8788TIP3    H226322   7.171   2.907   6.178
 8789TIP3   OH226323   6.329   3.463   6.047
 8789TIP3    H126324   6.389   3.455   5.973
 8789TIP3    H226325   6.375   3.421   6.120
 8790TIP3   OH226326   7.207   1.664   2.270
 8790TIP3    H126327   7.161   1.580   2.277
 8790TIP3    H226328   7.206   1.698   2.359
 8791TIP3   OH226329   7.458   4.037   5.519
 8791TIP3    H126330   7.462   4.019   5.425
 8791TIP3    H226331   7.394   3.974   5.552
 8792TIP3   OH226332   2.060   6.363   5.310
 8792TIP3    H126333   2.088   6.310   5.385
 8792TIP3    H226334   2.033   6.299   5.245
 8793TIP3   OH226335   5.487   4.393   3.126
 8793TIP3    H126336   5.580   4.395   3.149
 8793TIP3    H226337   5.464   4.300   3.128
 8794TIP3   OH226338   1.843   6.938   2.461
 8794TIP3    H126339   1.839   7.022   2.506
 8794TIP3    H226340   1.826   6.958   2.369
 8795TIP3   OH226341   1.824   3.374   6.407
 8795TIP3    H126342   1.792   3.456   6.443
 8795TIP3    H226343   1.917   3.373   6.429
 8796TIP3   OH226344   7.711   0.493   4.592
 8796TIP3    H126345   7.617   0.485   4.604
 8796TIP3    H226346   7.748   0.425   4.650
 8797TIP3   OH226347   6.344   6.811   5.083
 8797TIP3    H126348   6.329   6.822   4.989
 8797TIP3    H226349   6.433   6.776   5.088
 8798TIP3   OH226350   8.237   3.939   3.701
 8798TIP3    H126351   8.239   4.033   3.717
 8798TIP3    H226352   8.166   3.926   3.639
 8799TIP3   OH226353   7.354   6.345   2.640
 8799TIP3    H126354   7.419   6.412   2.662
 8799TIP3    H226355   7.395   6.293   2.571
 8800TIP3   OH226356   4.669   2.816   5.621
 8800TIP3    H126357   4.612   2.747   5.588
 8800TIP3    H226358   4.673   2.880   5.550
 8801TIP3   OH226359   5.751   2.173   4.135
 8801TIP3    H126360   5.658   2.152   4.126
 8801TIP3    H226361   5.795   2.108   4.079
 8802TIP3   OH226362   4.414   0.560   6.661
 8802TIP3    H126363   4.379   0.507   6.589
 8802TIP3    H226364   4.501   0.524   6.676
 8803TIP3   OH226365   6.933   5.312   2.077
 8803TIP3    H126366   6.950   5.219   2.064
 8803TIP3    H226367   6.966   5.354   1.997
 8804TIP3   OH226368   0.426   4.668   6.495
 8804TIP3    H126369   0.376   4.731   6.443
 8804TIP3    H226370   0.515   4.703   6.496
 8805TIP3   OH226371   2.384   2.898   5.053
 8805TIP3    H126372   2.366   2.986   5.087
 8805TIP3    H226373   2.420   2.850   5.128
 8806TIP3   OH226374   2.318   0.082   3.446
 8806TIP3    H126375   2.272   0.059   3.365
 8806TIP3    H226376   2.367   0.003   3.469
 8807TIP3   OH226377   3.304   2.927   5.662
 8807TIP3    H126378   3.371   2.919   5.594
 8807TIP3    H226379   3.284   2.837   5.688
 8808TIP3   OH226380   3.765   7.442   0.254
 8808TIP3    H126381   3.803   7.355   0.243
 8808TIP3    H226382   3.819   7.484   0.321
 8809TIP3   OH226383   2.458   6.588   4.664
 8809TIP3    H126384   2.453   6.583   4.569
 8809TIP3    H226385   2.455   6.497   4.693
 8810TIP3   OH226386   4.204   0.278   5.808
 8810TIP3    H126387   4.261   0.255   5.734
 8810TIP3    H226388   4.119   0.242   5.784
 8811TIP3   OH226389   5.026   6.971   4.001
 8811TIP3    H126390   5.028   6.900   4.065
 8811TIP3    H226391   4.958   6.946   3.938
 8812TIP3   OH226392   6.957   5.298   4.805
 8812TIP3    H126393   6.865   5.285   4.781
 8812TIP3    H226394   7.006   5.245   4.742
 8813TIP3   OH226395   7.536   2.998   3.270
 8813TIP3    H126396   7.499   2.946   3.342
 8813TIP3    H226397   7.626   3.016   3.297
 8814TIP3   OH226398   6.757   4.422   3.308
 8814TIP3    H126399   6.733   4.437   3.399
 8814TIP3    H226400   6.830   4.360   3.312
 8815TIP3   OH226401   1.310   4.659   0.641
 8815TIP3    H126402   1.309   4.579   0.692
 8815TIP3    H226403   1.328   4.630   0.551
 8816TIP3   OH226404   2.224   6.548   3.002
 8816TIP3    H126405   2.178   6.558   3.085
 8816TIP3    H226406   2.254   6.457   3.002
 8817TIP3   OH226407   5.193   3.792   6.511
 8817TIP3    H126408   5.187   3.751   6.424
 8817TIP3    H226409   5.115   3.847   6.517
 8818TIP3   OH226410   0.511   2.408   0.293
 8818TIP3    H126411   0.598   2.368   0.301
 8818TIP3    H226412   0.510   2.444   0.204
 8819TIP3   OH226413   0.884   3.138   1.109
 8819TIP3    H126414   0.836   3.206   1.061
 8819TIP3    H226415   0.882   3.167   1.200
 8820TIP3   OH226416   5.657   2.712   4.414
 8820TIP3    H126417   5.721   2.660   4.463
 8820TIP3    H226418   5.692   2.716   4.325
 8821TIP3   OH226419   3.355   7.424   6.206
 8821TIP3    H126420   3.269   7.392   6.232
 8821TIP3    H226421   3.336   7.486   6.135
 8822TIP3   OH226422   0.834   2.873   4.837
 8822TIP3    H126423   0.852   2.807   4.771
 8822TIP3    H226424   0.740   2.889   4.831
 8823TIP3   OH226425   0.632   4.563   0.401
 8823TIP3    H126426   0.559   4.525   0.352
 8823TIP3    H226427   0.688   4.488   0.422
 8824TIP3   OH226428   3.935   4.088   2.792
 8824TIP3    H126429   3.997   4.143   2.745
 8824TIP3    H226430   3.984   4.052   2.866
 8825TIP3   OH226431   4.665   5.951   3.550
 8825TIP3    H126432   4.607   5.878   3.572
 8825TIP3    H226433   4.616   6.029   3.574
 8826TIP3   OH226434   7.929   7.784   3.944
 8826TIP3    H126435   8.020   7.812   3.931
 8826TIP3    H226436   7.877   7.850   3.898
 8827TIP3   OH226437   3.280   5.692   1.199
 8827TIP3    H126438   3.259   5.665   1.110
 8827TIP3    H226439   3.297   5.611   1.246
 8828TIP3   OH226440   1.577   6.246   3.538
 8828TIP3    H126441   1.533   6.328   3.562
 8828TIP3    H226442   1.510   6.179   3.546
 8829TIP3   OH226443   2.096   7.631   0.295
 8829TIP3    H126444   2.061   7.684   0.224
 8829TIP3    H226445   2.021   7.613   0.351
 8830TIP3   OH226446   2.400   2.126   5.239
 8830TIP3    H126447   2.347   2.067   5.293
 8830TIP3    H226448   2.452   2.175   5.303
 8831TIP3   OH226449   7.973   5.312   4.996
 8831TIP3    H126450   7.981   5.352   4.910
 8831TIP3    H226451   7.987   5.384   5.058
 8832TIP3   OH226452   8.113   6.121   1.622
 8832TIP3    H126453   8.023   6.119   1.655
 8832TIP3    H226454   8.143   6.030   1.631
 8833TIP3   OH226455   1.542   1.687   3.407
 8833TIP3    H126456   1.521   1.598   3.381
 8833TIP3    H226457   1.506   1.696   3.495
 8834TIP3   OH226458   0.258   3.180   3.065
 8834TIP3    H126459   0.285   3.159   2.975
 8834TIP3    H226460   0.254   3.095   3.109
 8835TIP3   OH226461   4.637   4.729   3.894
 8835TIP3    H126462   4.620   4.817   3.861
 8835TIP3    H226463   4.732   4.724   3.903
 8836TIP3   OH226464   4.991   4.766   0.917
 8836TIP3    H126465   4.985   4.843   0.861
 8836TIP3    H226466   5.001   4.693   0.856
 8837TIP3   OH226467   5.519   6.060   1.389
 8837TIP3    H126468   5.455   6.034   1.324
 8837TIP3    H226469   5.542   5.979   1.434
 8838TIP3   OH226470   6.933   5.163   3.432
 8838TIP3    H126471   6.943   5.121   3.517
 8838TIP3    H226472   7.021   5.193   3.410
 8839TIP3   OH226473   3.919   1.320   4.865
 8839TIP3    H126474   3.850   1.345   4.803
 8839TIP3    H226475   3.969   1.401   4.879
 8840TIP3   OH226476   8.094   7.041   5.396
 8840TIP3    H126477   8.136   7.011   5.315
 8840TIP3    H226478   8.164   7.087   5.443
 8841TIP3   OH226479   5.025   3.109   2.567
 8841TIP3    H126480   5.103   3.120   2.622
 8841TIP3    H226481   4.995   3.198   2.550
 8842TIP3   OH226482   6.695   0.130   2.235
 8842TIP3    H126483   6.704   0.225   2.237
 8842TIP3    H226484   6.601   0.114   2.237
 8843TIP3   OH226485   8.014   2.027   4.756
 8843TIP3    H126486   8.096   2.075   4.766
 8843TIP3    H226487   7.948   2.094   4.741
 8844TIP3   OH226488   4.240   2.821   0.208
 8844TIP3    H126489   4.329   2.853   0.215
 8844TIP3    H226490   4.241   2.735   0.251
 8845TIP3   OH226491   3.373   4.638   0.236
 8845TIP3    H126492   3.331   4.724   0.238
 8845TIP3    H226493   3.329   4.592   0.164
 8846TIP3   OH226494   3.954   6.598   3.539
 8846TIP3    H126495   4.015   6.610   3.466
 8846TIP3    H226496   3.984   6.518   3.582
 8847TIP3   OH226497   4.207   2.897   4.103
 8847TIP3    H126498   4.200   2.845   4.183
 8847TIP3    H226499   4.195   2.988   4.132
 8848TIP3   OH226500   8.091   0.307   3.480
 8848TIP3    H126501   8.182   0.321   3.505
 8848TIP3    H226502   8.041   0.321   3.560
 8849TIP3   OH226503   6.215   7.795   0.673
 8849TIP3    H126504   6.307   7.814   0.693
 8849TIP3    H226505   6.216   7.704   0.645
 8850TIP3   OH226506   0.417   5.179   2.858
 8850TIP3    H126507   0.467   5.098   2.870
 8850TIP3    H226508   0.454   5.218   2.779
 8851TIP3   OH226509   5.034   1.668   5.246
 8851TIP3    H126510   4.953   1.644   5.202
 8851TIP3    H226511   5.078   1.727   5.185
 8852TIP3   OH226512   3.689   3.679   1.098
 8852TIP3    H126513   3.639   3.733   1.037
 8852TIP3    H226514   3.623   3.639   1.154
 8853TIP3   OH226515   5.484   7.709   5.751
 8853TIP3    H126516   5.490   7.765   5.829
 8853TIP3    H226517   5.459   7.769   5.681
 8854TIP3   OH226518   2.575   5.164   3.980
 8854TIP3    H126519   2.638   5.218   4.027
 8854TIP3    H226520   2.581   5.194   3.889
 8855TIP3   OH226521   2.226   4.404   1.235
 8855TIP3    H126522   2.238   4.383   1.142
 8855TIP3    H226523   2.308   4.377   1.276
 8856TIP3   OH226524   2.635   2.782   5.412
 8856TIP3    H126525   2.560   2.733   5.377
 8856TIP3    H226526   2.607   2.873   5.411
 8857TIP3   OH226527   2.076   3.859   0.036
 8857TIP3    H126528   2.098   3.891   0.124
 8857TIP3    H226529   1.981   3.853   0.036
 8858TIP3   OH226530   3.469   5.513   3.352
 8858TIP3    H126531   3.429   5.459   3.283
 8858TIP3    H226532   3.402   5.578   3.373
 8859TIP3   OH226533   7.955   6.239   3.484
 8859TIP3    H126534   7.911   6.243   3.399
 8859TIP3    H226535   7.985   6.148   3.490
 8860TIP3   OH226536   3.877   0.897   6.160
 8860TIP3    H126537   3.794   0.884   6.115
 8860TIP3    H226538   3.920   0.811   6.156
 8861TIP3   OH226539   5.026   6.727   3.404
 8861TIP3    H126540   4.975   6.668   3.348
 8861TIP3    H226541   5.115   6.693   3.400
 8862TIP3   OH226542   7.432   7.475   5.254
 8862TIP3    H126543   7.488   7.545   5.287
 8862TIP3    H226544   7.493   7.412   5.216
 8863TIP3   OH226545   6.803   3.991   6.751
 8863TIP3    H126546   6.723   4.021   6.708
 8863TIP3    H226547   6.803   4.036   6.836
 8864TIP3   OH226548   5.581   2.636   1.078
 8864TIP3    H126549   5.556   2.556   1.032
 8864TIP3    H226550   5.504   2.660   1.129
 8865TIP3   OH226551   3.471   6.385   3.582
 8865TIP3    H126552   3.497   6.477   3.587
 8865TIP3    H226553   3.471   6.356   3.673
 8866TIP3   OH226554   4.908   6.842   1.543
 8866TIP3    H126555   4.841   6.910   1.538
 8866TIP3    H226556   4.872   6.770   1.491
 8867TIP3   OH226557   4.124   0.734   3.759
 8867TIP3    H126558   4.219   0.735   3.770
 8867TIP3    H226559   4.108   0.795   3.687
 8868TIP3   OH226560   8.131   2.208   3.283
 8868TIP3    H126561   8.050   2.256   3.300
 8868TIP3    H226562   8.124   2.179   3.192
 8869TIP3   OH226563   5.794   3.007   4.004
 8869TIP3    H126564   5.766   2.983   4.093
 8869TIP3    H226565   5.869   3.065   4.017
 8870TIP3   OH226566   6.268   5.690   5.305
 8870TIP3    H126567   6.331   5.757   5.330
 8870TIP3    H226568   6.244   5.647   5.387
 8871TIP3   OH226569   5.622   1.089   3.469
 8871TIP3    H126570   5.542   1.068   3.421
 8871TIP3    H226571   5.663   1.158   3.417
 8872TIP3   OH226572   4.171   6.024   5.925
 8872TIP3    H126573   4.203   6.082   5.994
 8872TIP3    H226574   4.166   5.938   5.967
 8873TIP3   OH226575   0.084   1.101   3.953
 8873TIP3    H126576   0.176   1.130   3.957
 8873TIP3    H226577   0.088   1.016   3.909
 8874TIP3   OH226578   6.182   1.185   2.610
 8874TIP3    H126579   6.138   1.099   2.603
 8874TIP3    H226580   6.227   1.195   2.526
 8875TIP3   OH226581   6.574   5.149   0.151
 8875TIP3    H126582   6.558   5.240   0.177
 8875TIP3    H226583   6.631   5.114   0.220
 8876TIP3   OH226584   7.149   6.056   4.536
 8876TIP3    H126585   7.177   5.964   4.534
 8876TIP3    H226586   7.213   6.100   4.591
 8877TIP3   OH226587   7.309   5.920   0.655
 8877TIP3    H126588   7.369   5.994   0.644
 8877TIP3    H226589   7.223   5.960   0.666
 8878TIP3   OH226590   2.316   6.412   2.007
 8878TIP3    H126591   2.273   6.343   1.956
 8878TIP3    H226592   2.409   6.397   1.994
 8879TIP3   OH226593   2.248   6.032   1.084
 8879TIP3    H126594   2.209   5.946   1.064
 8879TIP3    H226595   2.340   6.022   1.060
 8880TIP3   OH226596   0.838   6.252   2.406
 8880TIP3    H126597   0.787   6.333   2.406
 8880TIP3    H226598   0.777   6.184   2.378
 8881TIP3   OH226599   0.998   3.007   1.646
 8881TIP3    H126600   1.084   3.020   1.606
 8881TIP3    H226601   0.939   3.059   1.592
 8882TIP3   OH226602   5.922   7.393   1.053
 8882TIP3    H126603   5.872   7.472   1.071
 8882TIP3    H226604   5.990   7.391   1.121
 8883TIP3   OH226605   6.359   5.995   1.107
 8883TIP3    H126606   6.443   5.955   1.131
 8883TIP3    H226607   6.300   5.920   1.095
 8884TIP3   OH226608   5.613   3.361   4.112
 8884TIP3    H126609   5.673   3.343   4.039
 8884TIP3    H226610   5.642   3.446   4.146
 8885TIP3   OH226611   2.177   6.572   3.920
 8885TIP3    H126612   2.183   6.477   3.918
 8885TIP3    H226613   2.116   6.591   3.990
 8886TIP3   OH226614   3.776   1.876   1.636
 8886TIP3    H126615   3.809   1.870   1.547
 8886TIP3    H226616   3.807   1.961   1.667
 8887TIP3   OH226617   7.618   7.494   4.561
 8887TIP3    H126618   7.635   7.404   4.589
 8887TIP3    H226619   7.523   7.504   4.566
 8888TIP3   OH226620   3.791   5.515   4.886
 8888TIP3    H126621   3.786   5.434   4.835
 8888TIP3    H226622   3.803   5.584   4.820
 8889TIP3   OH226623   0.185   3.036   5.759
 8889TIP3    H126624   0.269   2.991   5.752
 8889TIP3    H226625   0.133   3.003   5.686
 8890TIP3   OH226626   3.761   3.731   5.547
 8890TIP3    H126627   3.823   3.673   5.590
 8890TIP3    H226628   3.716   3.676   5.483
 8891TIP3   OH226629   4.510   5.134   4.365
 8891TIP3    H126630   4.513   5.073   4.439
 8891TIP3    H226631   4.549   5.215   4.400
 8892TIP3   OH226632   6.171   7.828   2.681
 8892TIP3    H126633   6.139   7.814   2.770
 8892TIP3    H226634   6.206   7.743   2.655
 8893TIP3   OH226635   2.789   1.181   2.923
 8893TIP3    H126636   2.866   1.127   2.903
 8893TIP3    H226637   2.813   1.227   3.004
 8894TIP3   OH226638   6.233   5.845   4.522
 8894TIP3    H126639   6.157   5.797   4.489
 8894TIP3    H226640   6.297   5.777   4.545
 8895TIP3   OH226641   3.666   3.572   5.346
 8895TIP3    H126642   3.693   3.482   5.331
 8895TIP3    H226643   3.657   3.610   5.259
 8896TIP3   OH226644   2.732   3.770   5.741
 8896TIP3    H126645   2.785   3.699   5.778
 8896TIP3    H226646   2.679   3.727   5.673
 8897TIP3   OH226647   4.844   3.631   2.466
 8897TIP3    H126648   4.845   3.585   2.382
 8897TIP3    H226649   4.935   3.630   2.495
 8898TIP3   OH226650   7.457   0.281   4.474
 8898TIP3    H126651   7.454   0.190   4.504
 8898TIP3    H226652   7.469   0.332   4.554
 8899TIP3   OH226653   0.548   4.751   4.080
 8899TIP3    H126654   0.549   4.830   4.135
 8899TIP3    H226655   0.558   4.785   3.991
 8900TIP3   OH226656   0.267   5.535   0.276
 8900TIP3    H126657   0.252   5.520   0.370
 8900TIP3    H226658   0.362   5.549   0.269
 8901TIP3   OH226659   0.015   1.757   2.395
 8901TIP3    H126660   0.086   1.737   2.456
 8901TIP3    H226661   0.030   1.697   2.321
 8902TIP3   OH226662   6.313   6.085   2.707
 8902TIP3    H126663   6.396   6.113   2.745
 8902TIP3    H226664   6.330   6.076   2.614
 8903TIP3   OH226665   5.384   5.145   6.033
 8903TIP3    H126666   5.345   5.065   5.998
 8903TIP3    H226667   5.457   5.115   6.086
 8904TIP3   OH226668   8.246   0.561   1.805
 8904TIP3    H126669   8.332   0.546   1.845
 8904TIP3    H226670   8.183   0.532   1.871
 8905TIP3   OH226671   8.188   6.872   2.549
 8905TIP3    H126672   8.278   6.850   2.571
 8905TIP3    H226673   8.172   6.956   2.592
 8906TIP3   OH226674   4.362   7.396   2.942
 8906TIP3    H126675   4.325   7.418   3.027
 8906TIP3    H226676   4.375   7.301   2.944
 8907TIP3   OH226677   3.398   0.283   3.865
 8907TIP3    H126678   3.432   0.302   3.777
 8907TIP3    H226679   3.337   0.355   3.882
 8908TIP3   OH226680   0.409   6.054   0.918
 8908TIP3    H126681   0.362   6.009   0.848
 8908TIP3    H226682   0.393   6.147   0.902
 8909TIP3   OH226683   4.914   0.511   0.588
 8909TIP3    H126684   5.006   0.487   0.590
 8909TIP3    H226685   4.905   0.566   0.510
 8910TIP3   OH226686   1.601   6.723   0.610
 8910TIP3    H126687   1.658   6.741   0.536
 8910TIP3    H226688   1.627   6.788   0.676
 8911TIP3   OH226689   1.789   6.449   2.851
 8911TIP3    H126690   1.788   6.360   2.886
 8911TIP3    H226691   1.719   6.451   2.786
 8912TIP3   OH226692   2.484   6.779   5.253
 8912TIP3    H126693   2.515   6.717   5.319
 8912TIP3    H226694   2.558   6.789   5.193
 8913TIP3   OH226695   6.982   3.705   2.553
 8913TIP3    H126696   6.952   3.653   2.627
 8913TIP3    H226697   6.929   3.785   2.557
 8914TIP3   OH226698   2.539   6.193   1.808
 8914TIP3    H126699   2.576   6.256   1.870
 8914TIP3    H226700   2.511   6.119   1.863
 8915TIP3   OH226701   2.598   0.980   0.574
 8915TIP3    H126702   2.531   0.959   0.509
 8915TIP3    H226703   2.668   0.917   0.559
 8916TIP3   OH226704   3.197   4.182   1.102
 8916TIP3    H126705   3.154   4.117   1.157
 8916TIP3    H226706   3.289   4.179   1.128
 8917TIP3   OH226707   2.147   2.364   5.444
 8917TIP3    H126708   2.155   2.407   5.530
 8917TIP3    H226709   2.118   2.275   5.465
 8918TIP3   OH226710   4.845   3.164   4.421
 8918TIP3    H126711   4.772   3.170   4.359
 8918TIP3    H226712   4.814   3.104   4.489
 8919TIP3   OH226713   3.822   4.943   3.285
 8919TIP3    H126714   3.911   4.969   3.310
 8919TIP3    H226715   3.813   4.855   3.322
 8920TIP3   OH226716   7.599   0.297   1.158
 8920TIP3    H126717   7.648   0.225   1.199
 8920TIP3    H226718   7.578   0.264   1.070
 8921TIP3   OH226719   2.013   6.811   4.629
 8921TIP3    H126720   2.080   6.766   4.578
 8921TIP3    H226721   2.036   6.792   4.721
 8922TIP3   OH226722   7.186   7.516   6.700
 8922TIP3    H126723   7.269   7.533   6.656
 8922TIP3    H226724   7.177   7.587   6.764
 8923TIP3   OH226725   0.639   3.102   0.730
 8923TIP3    H126726   0.634   3.019   0.682
 8923TIP3    H226727   0.725   3.138   0.707
 8924TIP3   OH226728   6.558   6.177   5.515
 8924TIP3    H126729   6.484   6.119   5.535
 8924TIP3    H226730   6.619   6.121   5.466
 8925TIP3   OH226731   7.438   7.227   2.511
 8925TIP3    H126732   7.429   7.150   2.568
 8925TIP3    H226733   7.381   7.209   2.436
 8926TIP3   OH226734   4.760   7.117   0.283
 8926TIP3    H126735   4.752   7.135   0.190
 8926TIP3    H226736   4.834   7.056   0.290
 8927TIP3   OH226737   0.641   2.231   3.910
 8927TIP3    H126738   0.685   2.270   3.834
 8927TIP3    H226739   0.674   2.282   3.984
 8928TIP3   OH226740   7.552   5.504   0.494
 8928TIP3    H126741   7.507   5.579   0.535
 8928TIP3    H226742   7.619   5.544   0.439
 8929TIP3   OH226743   2.274   2.524   6.358
 8929TIP3    H126744   2.331   2.584   6.310
 8929TIP3    H226745   2.326   2.499   6.435
 8930TIP3   OH226746   7.860   2.567   3.537
 8930TIP3    H126747   7.836   2.626   3.609
 8930TIP3    H226748   7.777   2.546   3.495
 8931TIP3   OH226749   6.509   0.905   1.601
 8931TIP3    H126750   6.542   0.896   1.691
 8931TIP3    H226751   6.563   0.845   1.550
 8932TIP3   OH226752   2.940   7.453   0.788
 8932TIP3    H126753   2.997   7.495   0.723
 8932TIP3    H226754   2.995   7.385   0.827
 8933TIP3   OH226755   6.247   4.807   4.157
 8933TIP3    H126756   6.188   4.794   4.082
 8933TIP3    H226757   6.333   4.781   4.125
 8934TIP3   OH226758   6.737   6.423   3.696
 8934TIP3    H126759   6.682   6.445   3.771
 8934TIP3    H226760   6.758   6.330   3.708
 8935TIP3   OH226761   5.963   6.062   4.068
 8935TIP3    H126762   6.045   6.076   4.020
 8935TIP3    H226763   5.927   5.982   4.030
 8936TIP3   OH226764   6.181   5.709   6.331
 8936TIP3    H126765   6.248   5.640   6.326
 8936TIP3    H226766   6.210   5.775   6.268
 8937TIP3   OH226767   7.024   2.199   3.188
 8937TIP3    H126768   7.009   2.166   3.099
 8937TIP3    H226769   6.990   2.131   3.245
 8938TIP3   OH226770   5.046   4.789   5.971
 8938TIP3    H126771   5.022   4.717   5.912
 8938TIP3    H226772   4.976   4.791   6.036
 8939TIP3   OH226773   7.151   4.040   5.055
 8939TIP3    H126774   7.219   3.980   5.023
 8939TIP3    H226775   7.072   4.012   5.009
 8940TIP3   OH226776   5.120   6.906   5.355
 8940TIP3    H126777   5.125   6.994   5.318
 8940TIP3    H226778   5.156   6.849   5.288
 8941TIP3   OH226779   5.632   3.076   5.351
 8941TIP3    H126780   5.604   3.161   5.316
 8941TIP3    H226781   5.610   3.080   5.443
 8942TIP3   OH226782   3.189   4.419   3.445
 8942TIP3    H126783   3.112   4.388   3.493
 8942TIP3    H226784   3.159   4.429   3.355
 8943TIP3   OH226785   7.761   4.971   3.856
 8943TIP3    H126786   7.818   5.047   3.858
 8943TIP3    H226787   7.758   4.940   3.946
 8944TIP3   OH226788   0.817   6.766   1.529
 8944TIP3    H126789   0.770   6.692   1.492
 8944TIP3    H226790   0.878   6.727   1.592
 8945TIP3   OH226791   5.335   0.754   1.127
 8945TIP3    H126792   5.357   0.755   1.220
 8945TIP3    H226793   5.353   0.665   1.098
 8946TIP3   OH226794   7.355   4.994   4.222
 8946TIP3    H126795   7.415   4.929   4.186
 8946TIP3    H226796   7.269   4.952   4.217
 8947TIP3   OH226797   0.923   4.137   6.467
 8947TIP3    H126798   0.838   4.162   6.503
 8947TIP3    H226799   0.935   4.047   6.497
 8948TIP3   OH226800   5.755   2.409   3.994
 8948TIP3    H126801   5.810   2.476   4.036
 8948TIP3    H226802   5.756   2.336   4.056
 8949TIP3   OH226803   2.814   1.883   5.244
 8949TIP3    H126804   2.872   1.944   5.198
 8949TIP3    H226805   2.735   1.880   5.190
 8950TIP3   OH226806   5.671   7.353   4.704
 8950TIP3    H126807   5.665   7.263   4.737
 8950TIP3    H226808   5.763   7.377   4.715
 8951TIP3   OH226809   1.632   4.173   4.544
 8951TIP3    H126810   1.594   4.085   4.554
 8951TIP3    H226811   1.581   4.227   4.605
 8952TIP3   OH226812   3.616   2.272   0.069
 8952TIP3    H126813   3.697   2.225   0.085
 8952TIP3    H226814   3.609   2.335   0.140
 8953TIP3   OH226815   5.743   3.636   2.424
 8953TIP3    H126816   5.697   3.585   2.490
 8953TIP3    H226817   5.795   3.572   2.375
 8954TIP3   OH226818   1.685   5.174   6.480
 8954TIP3    H126819   1.628   5.244   6.513
 8954TIP3    H226820   1.631   5.125   6.418
 8955TIP3   OH226821   1.319   5.530   4.252
 8955TIP3    H126822   1.315   5.497   4.162
 8955TIP3    H226823   1.390   5.479   4.292
 8956TIP3   OH226824   3.170   4.273   2.564
 8956TIP3    H126825   3.187   4.208   2.632
 8956TIP3    H226826   3.185   4.357   2.607
 8957TIP3   OH226827   4.569   4.485   0.933
 8957TIP3    H126828   4.561   4.563   0.989
 8957TIP3    H226829   4.482   4.446   0.933
 8958TIP3   OH226830   6.893   4.164   0.621
 8958TIP3    H126831   6.905   4.232   0.555
 8958TIP3    H226832   6.981   4.151   0.658
 8959TIP3   OH226833   7.475   1.869   4.458
 8959TIP3    H126834   7.550   1.864   4.517
 8959TIP3    H226835   7.493   1.804   4.390
 8960TIP3   OH226836   6.701   1.766   4.247
 8960TIP3    H126837   6.640   1.765   4.173
 8960TIP3    H226838   6.778   1.719   4.214
 8961TIP3   OH226839   0.716   0.000   4.547
 8961TIP3    H126840   0.756   0.009   4.634
 8961TIP3    H226841   0.789  -0.023   4.490
 8962TIP3   OH226842   4.713   1.436   4.343
 8962TIP3    H126843   4.738   1.519   4.302
 8962TIP3    H226844   4.723   1.452   4.437
 8963TIP3   OH226845   2.894   2.514   2.912
 8963TIP3    H126846   2.868   2.588   2.966
 8963TIP3    H226847   2.936   2.454   2.973
 8964TIP3   OH226848   7.877   3.372   6.792
 8964TIP3    H126849   7.891   3.425   6.713
 8964TIP3    H226850   7.943   3.303   6.786
 8965TIP3   OH226851   2.711   4.842   4.706
 8965TIP3    H126852   2.714   4.821   4.613
 8965TIP3    H226853   2.726   4.759   4.751
 8966TIP3   OH226854   6.713   3.889   2.548
 8966TIP3    H126855   6.633   3.940   2.561
 8966TIP3    H226856   6.716   3.830   2.624
 8967TIP3   OH226857   2.161   7.295   5.710
 8967TIP3    H126858   2.068   7.316   5.700
 8967TIP3    H226859   2.206   7.378   5.697
 8968TIP3   OH226860   4.824   3.093   0.351
 8968TIP3    H126861   4.780   3.170   0.315
 8968TIP3    H226862   4.874   3.127   0.426
 8969TIP3   OH226863   0.365   3.192   2.305
 8969TIP3    H126864   0.341   3.138   2.380
 8969TIP3    H226865   0.308   3.161   2.234
 8970TIP3   OH226866   4.618   2.256   4.336
 8970TIP3    H126867   4.528   2.286   4.348
 8970TIP3    H226868   4.664   2.332   4.300
 8971TIP3   OH226869   5.812   0.139   4.034
 8971TIP3    H126870   5.722   0.170   4.038
 8971TIP3    H226871   5.853   0.173   4.113
 8972TIP3   OH226872   4.736   3.292   6.524
 8972TIP3    H126873   4.652   3.313   6.484
 8972TIP3    H226874   4.718   3.291   6.618
 8973TIP3   OH226875   7.951   6.016   6.293
 8973TIP3    H126876   7.918   6.061   6.371
 8973TIP3    H226877   7.961   6.086   6.227
 8974TIP3   OH226878   7.484   7.269   0.710
 8974TIP3    H126879   7.527   7.194   0.669
 8974TIP3    H226880   7.479   7.335   0.640
 8975TIP3   OH226881   1.797   2.095   0.609
 8975TIP3    H126882   1.746   2.061   0.683
 8975TIP3    H226883   1.838   2.017   0.570
 8976TIP3   OH226884   1.928   1.693   4.207
 8976TIP3    H126885   1.842   1.651   4.211
 8976TIP3    H226886   1.988   1.629   4.246
 8977TIP3   OH226887   4.236   4.422   6.314
 8977TIP3    H126888   4.285   4.346   6.343
 8977TIP3    H226889   4.221   4.473   6.394
 8978TIP3   OH226890   3.266   2.143   4.956
 8978TIP3    H126891   3.284   2.228   4.918
 8978TIP3    H226892   3.178   2.120   4.924
 8979TIP3   OH226893   2.151   7.074   0.291
 8979TIP3    H126894   2.132   7.078   0.385
 8979TIP3    H226895   2.208   7.150   0.275
 8980TIP3   OH226896   4.251   4.335   4.305
 8980TIP3    H126897   4.270   4.262   4.247
 8980TIP3    H226898   4.157   4.331   4.320
 8981TIP3   OH226899   8.049   0.936   6.721
 8981TIP3    H126900   8.119   0.878   6.691
 8981TIP3    H226901   7.973   0.878   6.732
 8982TIP3   OH226902   4.602   6.542   4.507
 8982TIP3    H126903   4.578   6.456   4.472
 8982TIP3    H226904   4.698   6.544   4.503
 8983TIP3   OH226905   5.336   2.504   1.700
 8983TIP3    H126906   5.256   2.523   1.651
 8983TIP3    H226907   5.307   2.494   1.791
 8984TIP3   OH226908   6.607   0.388   3.757
 8984TIP3    H126909   6.535   0.341   3.801
 8984TIP3    H226910   6.573   0.477   3.746
 8985TIP3   OH226911   3.665   7.767   2.846
 8985TIP3    H126912   3.754   7.730   2.847
 8985TIP3    H226913   3.677   7.858   2.876
 8986TIP3   OH226914   7.822   7.660   2.641
 8986TIP3    H126915   7.910   7.644   2.608
 8986TIP3    H226916   7.820   7.615   2.726
 8987TIP3   OH226917   7.135   4.921   1.257
 8987TIP3    H126918   7.049   4.886   1.235
 8987TIP3    H226919   7.138   4.916   1.353
 8988TIP3   OH226920   2.680   1.131   4.764
 8988TIP3    H126921   2.634   1.048   4.769
 8988TIP3    H226922   2.773   1.107   4.763
 8989TIP3   OH226923   0.969   5.666   3.083
 8989TIP3    H126924   1.045   5.680   3.026
 8989TIP3    H226925   0.981   5.728   3.155
 8990TIP3   OH226926   0.218   7.319   4.253
 8990TIP3    H126927   0.205   7.283   4.341
 8990TIP3    H226928   0.144   7.379   4.240
 8991TIP3   OH226929   5.961   2.339   0.260
 8991TIP3    H126930   5.875   2.320   0.297
 8991TIP3    H226931   6.023   2.304   0.325
 8992TIP3   OH226932   5.591   3.879   2.331
 8992TIP3    H126933   5.655   3.810   2.345
 8992TIP3    H226934   5.544   3.853   2.252
 8993TIP3   OH226935   5.331   0.628   2.429
 8993TIP3    H126936   5.296   0.711   2.461
 8993TIP3    H226937   5.274   0.604   2.356
 8994TIP3   OH226938   4.711   7.786   4.525
 8994TIP3    H126939   4.723   7.695   4.498
 8994TIP3    H226940   4.628   7.786   4.572
 8995TIP3   OH226941   0.886   6.066   6.350
 8995TIP3    H126942   0.977   6.041   6.367
 8995TIP3    H226943   0.854   5.998   6.291
 8996TIP3   OH226944   5.906   5.614   2.265
 8996TIP3    H126945   5.864   5.548   2.209
 8996TIP3    H226946   5.982   5.643   2.215
 8997TIP3   OH226947   6.340   1.861   0.167
 8997TIP3    H126948   6.335   1.945   0.210
 8997TIP3    H226949   6.411   1.870   0.103
 8998TIP3   OH226950   2.800   7.529   2.171
 8998TIP3    H126951   2.762   7.596   2.113
 8998TIP3    H226952   2.804   7.450   2.117
 8999TIP3   OH226953   6.887   0.330   3.456
 8999TIP3    H126954   6.927   0.368   3.534
 8999TIP3    H226955   6.827   0.264   3.490
 9000TIP3   OH226956   1.621   3.290   3.646
 9000TIP3    H126957   1.645   3.315   3.557
 9000TIP3    H226958   1.680   3.218   3.668
 9001TIP3   OH226959   2.626   4.300   1.760
 9001TIP3    H126960   2.571   4.228   1.732
 9001TIP3    H226961   2.665   4.334   1.679
 9002TIP3   OH226962   5.723   0.780   3.473
 9002TIP3    H126963   5.656   0.777   3.404
 9002TIP3    H226964   5.697   0.853   3.528
 9003TIP3   OH226965   3.780   2.718   6.087
 9003TIP3    H126966   3.756   2.626   6.095
 9003TIP3    H226967   3.789   2.733   5.993
 9004TIP3   OH226968   5.140   1.699   3.898
 9004TIP3    H126969   5.219   1.653   3.870
 9004TIP3    H226970   5.125   1.671   3.988
 9005TIP3   OH226971   2.358   3.894   4.867
 9005TIP3    H126972   2.288   3.839   4.903
 9005TIP3    H226973   2.435   3.873   4.919
 9006TIP3   OH226974   8.196   0.373   0.943
 9006TIP3    H126975   8.128   0.317   0.980
 9006TIP3    H226976   8.247   0.315   0.886
 9007TIP3   OH226977   7.765   2.244   6.043
 9007TIP3    H126978   7.712   2.180   6.091
 9007TIP3    H226979   7.853   2.208   6.044
 9008TIP3   OH226980   5.918   5.507   2.523
 9008TIP3    H126981   5.919   5.534   2.431
 9008TIP3    H226982   5.960   5.421   2.523
 9009TIP3   OH226983   1.152   0.757   0.054
 9009TIP3    H126984   1.090   0.713  -0.003
 9009TIP3    H226985   1.111   0.841   0.074
 9010TIP3   OH226986   4.837   0.339   4.275
 9010TIP3    H126987   4.920   0.298   4.251
 9010TIP3    H226988   4.783   0.332   4.196
 9011TIP3   OH226989   0.702   3.510   6.075
 9011TIP3    H126990   0.740   3.562   6.004
 9011TIP3    H226991   0.661   3.436   6.031
 9012TIP3   OH226992   6.344   2.248   2.113
 9012TIP3    H126993   6.255   2.276   2.131
 9012TIP3    H226994   6.399   2.319   2.146
 9013TIP3   OH226995   1.938   4.375   0.706
 9013TIP3    H126996   1.888   4.452   0.733
 9013TIP3    H226997   1.899   4.350   0.623
 9014TIP3   OH226998   7.956   7.744   2.029
 9014TIP3    H126999   8.025   7.704   2.082
 9014TIP3    H227000   7.922   7.673   1.975
 9015TIP3   OH227001   4.086   4.373   3.518
 9015TIP3    H127002   4.038   4.367   3.601
 9015TIP3    H227003   4.164   4.424   3.539
 9016TIP3   OH227004   3.318   5.412   1.253
 9016TIP3    H127005   3.270   5.390   1.173
 9016TIP3    H227006   3.384   5.343   1.260
 9017TIP3   OH227007   7.654   2.233   5.193
 9017TIP3    H127008   7.746   2.208   5.207
 9017TIP3    H227009   7.604   2.154   5.215
 9018TIP3   OH227010   5.846   7.501   2.128
 9018TIP3    H127011   5.800   7.425   2.165
 9018TIP3    H227012   5.937   7.487   2.152
 9019TIP3   OH227013   7.617   0.662   2.720
 9019TIP3    H127014   7.632   0.733   2.783
 9019TIP3    H227015   7.623   0.705   2.634
 9020TIP3   OH227016   0.475   3.922   1.773
 9020TIP3    H127017   0.526   4.001   1.753
 9020TIP3    H227018   0.434   3.898   1.690
 9021TIP3   OH227019   6.073   3.425   5.945
 9021TIP3    H127020   6.130   3.452   6.018
 9021TIP3    H227021   6.118   3.348   5.908
 9022TIP3   OH227022   3.184   3.175   4.612
 9022TIP3    H127023   3.150   3.133   4.532
 9022TIP3    H227024   3.269   3.135   4.626
 9023TIP3   OH227025   2.710   3.515   0.488
 9023TIP3    H127026   2.803   3.497   0.476
 9023TIP3    H227027   2.708   3.600   0.533
 9024TIP3   OH227028   0.836   2.820   2.560
 9024TIP3    H127029   0.877   2.895   2.517
 9024TIP3    H227030   0.775   2.785   2.494
 9025TIP3   OH227031   6.665   6.751   4.958
 9025TIP3    H127032   6.650   6.817   5.026
 9025TIP3    H227033   6.664   6.800   4.876
 9026TIP3   OH227034   3.038   2.335   5.265
 9026TIP3    H127035   3.123   2.322   5.223
 9026TIP3    H227036   3.058   2.338   5.358
 9027TIP3   OH227037   6.467   4.108   0.631
 9027TIP3    H127038   6.548   4.059   0.620
 9027TIP3    H227039   6.450   4.107   0.725
 9028TIP3   OH227040   3.576   0.839   1.575
 9028TIP3    H127041   3.499   0.846   1.518
 9028TIP3    H227042   3.642   0.895   1.534
 9029TIP3   OH227043   3.764   5.057   3.013
 9029TIP3    H127044   3.677   5.043   2.976
 9029TIP3    H227045   3.758   5.022   3.102
 9030TIP3   OH227046   1.621   0.262   1.427
 9030TIP3    H127047   1.624   0.314   1.347
 9030TIP3    H227048   1.567   0.312   1.487
 9031TIP3   OH227049   5.291   5.866   4.170
 9031TIP3    H127050   5.329   5.951   4.146
 9031TIP3    H227051   5.201   5.887   4.197
 9032TIP3   OH227052   1.112   0.160   6.707
 9032TIP3    H127053   1.105   0.183   6.615
 9032TIP3    H227054   1.065   0.077   6.715
 9033TIP3   OH227055   4.719   6.139   5.740
 9033TIP3    H127056   4.767   6.204   5.689
 9033TIP3    H227057   4.678   6.083   5.674
 9034TIP3   OH227058   7.787   3.537   0.112
 9034TIP3    H127059   7.721   3.586   0.161
 9034TIP3    H227060   7.836   3.603   0.064
 9035TIP3   OH227061   5.052   7.537   0.356
 9035TIP3    H127062   4.977   7.481   0.338
 9035TIP3    H227063   5.018   7.626   0.347
 9036TIP3   OH227064   6.772   1.785   2.000
 9036TIP3    H127065   6.797   1.841   1.925
 9036TIP3    H227066   6.708   1.724   1.964
 9037TIP3   OH227067   1.651   0.973   6.516
 9037TIP3    H127068   1.577   0.928   6.475
 9037TIP3    H227069   1.723   0.960   6.455
 9038TIP3   OH227070   3.842   7.159   6.791
 9038TIP3    H127071   3.830   7.193   6.702
 9038TIP3    H227072   3.936   7.161   6.805
 9039TIP3   OH227073   3.588   0.543   1.743
 9039TIP3    H127074   3.595   0.578   1.832
 9039TIP3    H227075   3.516   0.592   1.704
 9040TIP3   OH227076   4.994   0.024   5.015
 9040TIP3    H127077   4.964   0.063   4.932
 9040TIP3    H227078   5.026  -0.062   4.990
 9041TIP3   OH227079   0.249   2.437   3.617
 9041TIP3    H127080   0.222   2.513   3.566
 9041TIP3    H227081   0.303   2.385   3.557
 9042TIP3   OH227082   1.281   3.301   1.344
 9042TIP3    H127083   1.325   3.262   1.268
 9042TIP3    H227084   1.335   3.377   1.366
 9043TIP3   OH227085   4.267   5.323   0.138
 9043TIP3    H127086   4.332   5.277   0.191
 9043TIP3    H227087   4.258   5.269   0.060
 9044TIP3   OH227088   5.395   7.755   0.423
 9044TIP3    H127089   5.324   7.794   0.474
 9044TIP3    H227090   5.469   7.815   0.436
 9045TIP3   OH227091   1.036   5.869   0.469
 9045TIP3    H127092   0.992   5.851   0.386
 9045TIP3    H227093   0.988   5.818   0.534
 9046TIP3   OH227094   5.061   1.904   6.683
 9046TIP3    H127095   4.971   1.882   6.706
 9046TIP3    H227096   5.063   2.000   6.685
 9047TIP3   OH227097   6.586   1.246   4.003
 9047TIP3    H127098   6.545   1.191   3.937
 9047TIP3    H227099   6.634   1.312   3.953
 9048TIP3   OH227100   7.290   7.051   4.409
 9048TIP3    H127101   7.249   7.087   4.330
 9048TIP3    H227102   7.329   7.127   4.452
 9049TIP3   OH227103   2.335   3.869   6.119
 9049TIP3    H127104   2.390   3.846   6.044
 9049TIP3    H227105   2.373   3.820   6.192
 9050TIP3   OH227106   5.087   6.219   1.724
 9050TIP3    H127107   5.169   6.258   1.752
 9050TIP3    H227108   5.108   6.126   1.709
 9051TIP3   OH227109   0.263   6.465   3.237
 9051TIP3    H127110   0.276   6.465   3.332
 9051TIP3    H227111   0.178   6.422   3.225
 9052TIP3   OH227112   4.596   3.355   4.570
 9052TIP3    H127113   4.538   3.328   4.499
 9052TIP3    H227114   4.613   3.448   4.553
 9053TIP3   OH227115   2.308   0.035   4.736
 9053TIP3    H127116   2.231  -0.022   4.730
 9053TIP3    H227117   2.382  -0.025   4.727
 9054TIP3   OH227118   5.090   6.437   1.993
 9054TIP3    H127119   5.015   6.457   1.938
 9054TIP3    H227120   5.113   6.347   1.972
 9055TIP3   OH227121   1.558   1.526   2.872
 9055TIP3    H127122   1.584   1.577   2.795
 9055TIP3    H227123   1.474   1.486   2.848
 9056TIP3   OH227124   3.600   3.816   3.149
 9056TIP3    H127125   3.510   3.788   3.165
 9056TIP3    H227126   3.617   3.883   3.215
 9057TIP3   OH227127   6.291   3.928   1.701
 9057TIP3    H127128   6.223   3.874   1.659
 9057TIP3    H227129   6.298   4.006   1.645
 9058TIP3   OH227130   7.505   3.378   5.936
 9058TIP3    H127131   7.469   3.293   5.911
 9058TIP3    H227132   7.430   3.437   5.937
 9059TIP3   OH227133   0.828   4.744   1.410
 9059TIP3    H127134   0.802   4.655   1.384
 9059TIP3    H227135   0.904   4.764   1.355
 9060TIP3   OH227136   0.916   1.935   5.264
 9060TIP3    H127137   0.897   1.841   5.256
 9060TIP3    H227138   1.011   1.939   5.275
 9061TIP3   OH227139   4.951   0.756   4.407
 9061TIP3    H127140   5.026   0.807   4.437
 9061TIP3    H227141   4.939   0.689   4.475
 9062TIP3   OH227142   2.900   1.667   6.003
 9062TIP3    H127143   2.889   1.706   5.917
 9062TIP3    H227144   2.880   1.574   5.990
 9063TIP3   OH227145   1.801   2.130   0.010
 9063TIP3    H127146   1.716   2.086   0.016
 9063TIP3    H227147   1.816   2.166   0.097
 9064TIP3   OH227148   2.378   4.819   1.915
 9064TIP3    H127149   2.293   4.821   1.958
 9064TIP3    H227150   2.441   4.814   1.987
 9065TIP3   OH227151   1.491   3.568   3.249
 9065TIP3    H127152   1.546   3.646   3.257
 9065TIP3    H227153   1.449   3.578   3.163
 9066TIP3   OH227154   5.141   5.505   1.550
 9066TIP3    H127155   5.153   5.411   1.543
 9066TIP3    H227156   5.094   5.518   1.633
 9067TIP3   OH227157   4.629   3.710   3.630
 9067TIP3    H127158   4.606   3.787   3.579
 9067TIP3    H227159   4.690   3.661   3.574
 9068TIP3   OH227160   6.730   6.174   6.263
 9068TIP3    H127161   6.741   6.082   6.239
 9068TIP3    H227162   6.820   6.206   6.274
 9069TIP3   OH227163   8.004   0.282   2.135
 9069TIP3    H127164   7.938   0.220   2.167
 9069TIP3    H227165   8.080   0.267   2.191
 9070TIP3   OH227166   5.339   5.013   5.241
 9070TIP3    H127167   5.405   5.075   5.210
 9070TIP3    H227168   5.339   4.943   5.176
 9071TIP3   OH227169   1.445   7.619   0.421
 9071TIP3    H127170   1.522   7.623   0.365
 9071TIP3    H227171   1.468   7.556   0.489
 9072TIP3   OH227172   6.306   3.421   0.194
 9072TIP3    H127173   6.325   3.500   0.142
 9072TIP3    H227174   6.367   3.355   0.160
 9073TIP3   OH227175   3.025   1.741   4.567
 9073TIP3    H127176   3.052   1.717   4.656
 9073TIP3    H227177   2.929   1.741   4.570
 9074TIP3   OH227178   7.169   7.557   2.632
 9074TIP3    H127179   7.138   7.488   2.690
 9074TIP3    H227180   7.152   7.525   2.544
 9075TIP3   OH227181   2.253   6.454   5.533
 9075TIP3    H127182   2.322   6.455   5.599
 9075TIP3    H227183   2.232   6.362   5.521
 9076TIP3   OH227184   1.648   7.162   2.867
 9076TIP3    H127185   1.730   7.122   2.839
 9076TIP3    H227186   1.663   7.187   2.958
 9077TIP3   OH227187   1.146   2.863   2.392
 9077TIP3    H127188   1.113   2.791   2.340
 9077TIP3    H227189   1.176   2.823   2.473
 9078TIP3   OH227190   6.479   1.114   3.805
 9078TIP3    H127191   6.519   1.045   3.752
 9078TIP3    H227192   6.385   1.095   3.802
 9079TIP3   OH227193   3.107   0.171   4.891
 9079TIP3    H127194   3.046   0.103   4.921
 9079TIP3    H227195   3.182   0.122   4.856
 9080TIP3   OH227196   6.955   2.673   1.347
 9080TIP3    H127197   6.942   2.768   1.349
 9080TIP3    H227198   6.915   2.645   1.264
 9081TIP3   OH227199   2.634   1.958   3.744
 9081TIP3    H127200   2.712   1.916   3.781
 9081TIP3    H227201   2.563   1.928   3.801
 9082TIP3   OH227202   2.239   4.106   2.522
 9082TIP3    H127203   2.284   4.145   2.447
 9082TIP3    H227204   2.305   4.051   2.565
 9083TIP3   OH227205   4.790   0.260   0.669
 9083TIP3    H127206   4.841   0.322   0.617
 9083TIP3    H227207   4.770   0.307   0.750
 9084TIP3   OH227208   7.952   4.465   2.347
 9084TIP3    H127209   7.986   4.470   2.437
 9084TIP3    H227210   7.859   4.486   2.356
 9085TIP3   OH227211   1.012   0.484   4.886
 9085TIP3    H127212   0.967   0.555   4.839
 9085TIP3    H227213   0.978   0.404   4.846
 9086TIP3   OH227214   6.832   0.315   0.180
 9086TIP3    H127215   6.823   0.302   0.086
 9086TIP3    H227216   6.742   0.313   0.213
 9087TIP3   OH227217   1.494   5.332   6.587
 9087TIP3    H127218   1.414   5.325   6.535
 9087TIP3    H227219   1.502   5.425   6.605
 9088TIP3   OH227220   4.578   4.126   3.373
 9088TIP3    H127221   4.497   4.153   3.417
 9088TIP3    H227222   4.586   4.033   3.394
 9089TIP3   OH227223   5.946   6.456   0.782
 9089TIP3    H127224   5.851   6.454   0.778
 9089TIP3    H227225   5.968   6.411   0.863
 9090TIP3   OH227226   7.345   4.841   3.090
 9090TIP3    H127227   7.340   4.746   3.101
 9090TIP3    H227228   7.380   4.853   3.001
 9091TIP3   OH227229   8.162   2.169   0.985
 9091TIP3    H127230   8.176   2.086   0.940
 9091TIP3    H227231   8.203   2.157   1.071
 9092TIP3   OH227232   2.381   2.596   5.485
 9092TIP3    H127233   2.396   2.517   5.433
 9092TIP3    H227234   2.320   2.568   5.553
 9093TIP3   OH227235   0.952   1.475   6.803
 9093TIP3    H127236   0.991   1.397   6.762
 9093TIP3    H227237   0.884   1.503   6.741
 9094TIP3   OH227238   7.210   0.933   1.528
 9094TIP3    H127239   7.178   0.931   1.618
 9094TIP3    H227240   7.207   1.026   1.504
 9095TIP3   OH227241   2.610   7.032   1.091
 9095TIP3    H127242   2.689   7.054   1.139
 9095TIP3    H227243   2.563   6.971   1.148
 9096TIP3   OH227244   6.575   4.383   6.759
 9096TIP3    H127245   6.586   4.290   6.740
 9096TIP3    H227246   6.662   4.421   6.749
 9097TIP3   OH227247   7.311   4.331   2.542
 9097TIP3    H127248   7.250   4.300   2.610
 9097TIP3    H227249   7.267   4.308   2.460
 9098TIP3   OH227250   4.105   7.441   3.536
 9098TIP3    H127251   4.038   7.440   3.604
 9098TIP3    H227252   4.174   7.497   3.572
 9099TIP3   OH227253   3.769   5.021   2.241
 9099TIP3    H127254   3.788   4.931   2.268
 9099TIP3    H227255   3.734   5.062   2.320
 9100TIP3   OH227256   5.316   6.832   4.395
 9100TIP3    H127257   5.354   6.744   4.399
 9100TIP3    H227258   5.363   6.875   4.323
 9101TIP3   OH227259   2.365   5.898   4.153
 9101TIP3    H127260   2.368   5.975   4.209
 9101TIP3    H227261   2.427   5.917   4.083
 9102TIP3   OH227262   5.056   0.385   1.037
 9102TIP3    H127263   4.993   0.370   0.967
 9102TIP3    H227264   5.032   0.470   1.074
 9103TIP3   OH227265   0.747   2.915   1.357
 9103TIP3    H127266   0.772   2.994   1.405
 9103TIP3    H227267   0.829   2.884   1.318
 9104TIP3   OH227268   6.678   4.546   1.747
 9104TIP3    H127269   6.752   4.485   1.744
 9104TIP3    H227270   6.605   4.493   1.778
 9105TIP3   OH227271   5.574   1.998   0.750
 9105TIP3    H127272   5.590   2.005   0.844
 9105TIP3    H227273   5.533   1.912   0.739
 9106TIP3   OH227274   4.595   7.006   4.032
 9106TIP3    H127275   4.558   7.044   4.113
 9106TIP3    H227276   4.523   6.955   3.995
 9107TIP3   OH227277   5.600   1.756   4.938
 9107TIP3    H127278   5.592   1.837   4.888
 9107TIP3    H227279   5.577   1.687   4.875
 9108TIP3   OH227280   0.522   2.640   4.367
 9108TIP3    H127281   0.610   2.671   4.387
 9108TIP3    H227282   0.480   2.629   4.453
 9109TIP3   OH227283   4.041   2.115   5.854
 9109TIP3    H127284   4.113   2.118   5.917
 9109TIP3    H227285   3.976   2.176   5.889
 9110TIP3   OH227286   6.887   6.963   4.704
 9110TIP3    H127287   6.936   6.883   4.717
 9110TIP3    H227288   6.913   7.020   4.777
 9111TIP3   OH227289   3.717   3.855   6.148
 9111TIP3    H127290   3.796   3.805   6.131
 9111TIP3    H227291   3.680   3.871   6.061
 9112TIP3   OH227292   2.689   4.104   2.167
 9112TIP3    H127293   2.667   4.187   2.124
 9112TIP3    H227294   2.775   4.081   2.132
 9113TIP3   OH227295   5.520   7.357   3.544
 9113TIP3    H127296   5.517   7.325   3.453
 9113TIP3    H227297   5.436   7.400   3.557
 9114TIP3   OH227298   2.625   1.891   6.783
 9114TIP3    H127299   2.554   1.932   6.832
 9114TIP3    H227300   2.649   1.956   6.716
 9115TIP3   OH227301   0.987   0.899   5.928
 9115TIP3    H127302   0.980   0.980   5.978
 9115TIP3    H227303   0.945   0.833   5.983
 9116TIP3   OH227304   3.267   1.725   0.110
 9116TIP3    H127305   3.225   1.688   0.187
 9116TIP3    H227306   3.361   1.720   0.129
 9117TIP3   OH227307   6.260   1.796   2.788
 9117TIP3    H127308   6.293   1.841   2.866
 9117TIP3    H227309   6.305   1.711   2.790
 9118TIP3   OH227310   3.278   7.086   3.033
 9118TIP3    H127311   3.331   7.164   3.053
 9118TIP3    H227312   3.215   7.080   3.105
 9119TIP3   OH227313   0.617   6.174   3.228
 9119TIP3    H127314   0.656   6.170   3.141
 9119TIP3    H227315   0.568   6.257   3.229
 9120TIP3   OH227316   7.079   0.681   0.119
 9120TIP3    H127317   6.987   0.671   0.096
 9120TIP3    H227318   7.115   0.737   0.051
 9121TIP3   OH227319   5.416   1.070   2.406
 9121TIP3    H127320   5.396   1.115   2.324
 9121TIP3    H227321   5.493   1.017   2.386
 9122TIP3   OH227322   0.635   3.737   6.456
 9122TIP3    H127323   0.620   3.825   6.491
 9122TIP3    H227324   0.677   3.752   6.371
 9123TIP3   OH227325   5.496   4.041   4.811
 9123TIP3    H127326   5.585   4.072   4.797
 9123TIP3    H227327   5.448   4.071   4.734
 9124TIP3   OH227328   4.185   6.034   0.779
 9124TIP3    H127329   4.099   6.012   0.816
 9124TIP3    H227330   4.221   6.100   0.838
 9125TIP3   OH227331   3.143   6.047   0.849
 9125TIP3    H127332   3.128   6.137   0.879
 9125TIP3    H227333   3.060   6.002   0.866
 9126TIP3   OH227334   4.544   4.064   2.826
 9126TIP3    H127335   4.594   4.131   2.780
 9126TIP3    H227336   4.503   4.013   2.756
 9127TIP3   OH227337   4.924   2.058   5.715
 9127TIP3    H127338   4.881   1.997   5.775
 9127TIP3    H227339   4.999   2.092   5.764
 9128TIP3   OH227340   0.042   6.293   3.262
 9128TIP3    H127341   0.014   6.221   3.206
 9128TIP3    H227342   0.020   6.265   3.351
 9129TIP3   OH227343   2.809   1.144   3.736
 9129TIP3    H127344   2.805   1.214   3.671
 9129TIP3    H227345   2.795   1.063   3.687
 9130TIP3   OH227346   1.648   3.840   3.838
 9130TIP3    H127347   1.606   3.769   3.789
 9130TIP3    H227348   1.643   3.915   3.779
 9131TIP3   OH227349   6.576   2.315   4.902
 9131TIP3    H127350   6.538   2.344   4.819
 9131TIP3    H227351   6.568   2.219   4.899
 9132TIP3   OH227352   3.723   6.485   2.661
 9132TIP3    H127353   3.667   6.561   2.676
 9132TIP3    H227354   3.796   6.518   2.609
 9133TIP3   OH227355   6.185   7.130   2.134
 9133TIP3    H127356   6.210   7.070   2.205
 9133TIP3    H227357   6.102   7.167   2.162
 9134TIP3   OH227358   3.561   5.590   5.308
 9134TIP3    H127359   3.522   5.538   5.378
 9134TIP3    H227360   3.620   5.530   5.263
 9135TIP3   OH227361   5.249   6.351   4.829
 9135TIP3    H127362   5.204   6.380   4.908
 9135TIP3    H227363   5.243   6.426   4.769
 9136TIP3   OH227364   6.205   7.008   4.155
 9136TIP3    H127365   6.146   7.075   4.121
 9136TIP3    H227366   6.159   6.973   4.232
 9137TIP3   OH227367   0.238   1.723   4.338
 9137TIP3    H127368   0.290   1.746   4.261
 9137TIP3    H227369   0.161   1.678   4.303
 9138TIP3   OH227370   7.928   3.235   2.111
 9138TIP3    H127371   7.968   3.162   2.065
 9138TIP3    H227372   7.881   3.284   2.044
 9139TIP3   OH227373   7.408   0.533   5.538
 9139TIP3    H127374   7.501   0.545   5.519
 9139TIP3    H227375   7.363   0.591   5.476
 9140TIP3   OH227376   3.123   7.263   6.217
 9140TIP3    H127377   3.048   7.321   6.226
 9140TIP3    H227378   3.094   7.181   6.257
 9141TIP3   OH227379   0.155   7.395   2.293
 9141TIP3    H127380   0.101   7.337   2.346
 9141TIP3    H227381   0.145   7.362   2.204
 9142TIP3   OH227382   7.018   2.746   0.700
 9142TIP3    H127383   7.022   2.692   0.778
 9142TIP3    H227384   6.935   2.793   0.708
 9143TIP3   OH227385   5.207   5.535   6.283
 9143TIP3    H127386   5.118   5.548   6.252
 9143TIP3    H227387   5.197   5.486   6.365
 9144TIP3   OH227388   0.801   0.395   3.659
 9144TIP3    H127389   0.753   0.469   3.622
 9144TIP3    H227390   0.838   0.350   3.583
 9145TIP3   OH227391   0.606   4.618   5.336
 9145TIP3    H127392   0.617   4.639   5.243
 9145TIP3    H227393   0.692   4.635   5.375
 9146TIP3   OH227394   5.687   4.076   3.030
 9146TIP3    H127395   5.633   4.121   2.964
 9146TIP3    H227396   5.702   3.989   2.993
 9147TIP3   OH227397   2.668   0.121   0.041
 9147TIP3    H127398   2.673   0.217   0.032
 9147TIP3    H227399   2.716   0.102   0.122
 9148TIP3   OH227400   3.557   3.285   1.731
 9148TIP3    H127401   3.612   3.224   1.681
 9148TIP3    H227402   3.614   3.316   1.802
 9149TIP3   OH227403   5.653   7.669   5.406
 9149TIP3    H127404   5.745   7.669   5.379
 9149TIP3    H227405   5.655   7.641   5.498
 9150TIP3   OH227406   2.341   6.639   5.940
 9150TIP3    H127407   2.373   6.695   6.011
 9150TIP3    H227408   2.337   6.696   5.864
 9151TIP3   OH227409   5.979   7.333   5.969
 9151TIP3    H127410   5.955   7.266   6.033
 9151TIP3    H227411   6.072   7.319   5.953
 9152TIP3   OH227412   6.912   1.369   1.884
 9152TIP3    H127413   6.998   1.337   1.909
 9152TIP3    H227414   6.928   1.455   1.847
 9153TIP3   OH227415   5.467   1.194   2.673
 9153TIP3    H127416   5.404   1.255   2.711
 9153TIP3    H227417   5.432   1.173   2.587
 9154TIP3   OH227418   1.829   2.366   2.856
 9154TIP3    H127419   1.923   2.369   2.868
 9154TIP3    H227420   1.811   2.276   2.828
 9155TIP3   OH227421   4.857   6.351   5.588
 9155TIP3    H127422   4.952   6.346   5.597
 9155TIP3    H227423   4.835   6.441   5.613
 9156TIP3   OH227424   1.930   2.402   1.922
 9156TIP3    H127425   1.892   2.315   1.932
 9156TIP3    H227426   1.880   2.442   1.850
 9157TIP3   OH227427   8.073   3.072   1.954
 9157TIP3    H127428   8.084   2.983   1.921
 9157TIP3    H227429   8.151   3.119   1.925
 9158TIP3   OH227430   1.197   0.255   5.840
 9158TIP3    H127431   1.252   0.269   5.763
 9158TIP3    H227432   1.251   0.203   5.899
 9159TIP3   OH227433   7.541   2.729   0.857
 9159TIP3    H127434   7.468   2.712   0.916
 9159TIP3    H227435   7.556   2.646   0.813
 9160TIP3   OH227436   1.803   4.185   1.447
 9160TIP3    H127437   1.726   4.233   1.419
 9160TIP3    H227438   1.831   4.137   1.369
 9161TIP3   OH227439   8.179   7.241   6.548
 9161TIP3    H127440   8.136   7.241   6.634
 9161TIP3    H227441   8.271   7.223   6.567
 9162TIP3   OH227442   6.280   3.923   2.413
 9162TIP3    H127443   6.354   3.865   2.393
 9162TIP3    H227444   6.206   3.863   2.425
 9163TIP3   OH227445   6.184   1.164   5.585
 9163TIP3    H127446   6.095   1.173   5.551
 9163TIP3    H227447   6.240   1.197   5.515
 9164TIP3   OH227448   7.941   3.562   6.592
 9164TIP3    H127449   7.961   3.651   6.565
 9164TIP3    H227450   7.868   3.536   6.536
 9165TIP3   OH227451   2.398   3.469   5.725
 9165TIP3    H127452   2.399   3.496   5.817
 9165TIP3    H227453   2.364   3.380   5.726
 9166TIP3   OH227454   6.041   5.342   5.386
 9166TIP3    H127455   6.081   5.277   5.328
 9166TIP3    H227456   6.115   5.387   5.426
 9167TIP3   OH227457   0.883   2.686   5.502
 9167TIP3    H127458   0.802   2.638   5.519
 9167TIP3    H227459   0.854   2.775   5.482
 9168TIP3   OH227460   1.789   0.733   0.565
 9168TIP3    H127461   1.819   0.646   0.593
 9168TIP3    H227462   1.831   0.747   0.481
 9169TIP3   OH227463   1.066   2.844   4.002
 9169TIP3    H127464   1.059   2.778   3.933
 9169TIP3    H227465   0.984   2.838   4.050
 9170TIP3   OH227466   1.047   7.039   1.620
 9170TIP3    H127467   1.093   6.977   1.676
 9170TIP3    H227468   1.116   7.082   1.569
 9171TIP3   OH227469   5.078   2.814   5.504
 9171TIP3    H127470   5.064   2.906   5.527
 9171TIP3    H227471   5.036   2.765   5.574
 9172TIP3   OH227472   6.507   6.633   4.640
 9172TIP3    H127473   6.451   6.707   4.618
 9172TIP3    H227474   6.596   6.666   4.625
 9173TIP3   OH227475   2.608   2.001   3.130
 9173TIP3    H127476   2.568   1.914   3.123
 9173TIP3    H227477   2.702   1.984   3.130
 9174TIP3   OH227478   1.426   3.776   0.637
 9174TIP3    H127479   1.498   3.756   0.696
 9174TIP3    H227480   1.358   3.814   0.693
 9175TIP3   OH227481   0.265   5.613   1.003
 9175TIP3    H127482   0.200   5.593   0.935
 9175TIP3    H227483   0.287   5.705   0.988
 9176TIP3   OH227484   7.963   1.065   4.919
 9176TIP3    H127485   7.957   1.015   5.000
 9176TIP3    H227486   8.055   1.055   4.891
 9177TIP3   OH227487   1.486   6.219   2.045
 9177TIP3    H127488   1.480   6.227   1.950
 9177TIP3    H227489   1.395   6.225   2.076
 9178TIP3   OH227490   0.581   7.522   0.916
 9178TIP3    H127491   0.663   7.489   0.881
 9178TIP3    H227492   0.600   7.541   1.008
 9179TIP3   OH227493   2.250   0.068   1.171
 9179TIP3    H127494   2.301   0.028   1.242
 9179TIP3    H227495   2.225  -0.005   1.115
 9180TIP3   OH227496   2.192   3.676   3.929
 9180TIP3    H127497   2.273   3.638   3.896
 9180TIP3    H227498   2.145   3.703   3.851
 9181TIP3   OH227499   4.849   1.486   0.121
 9181TIP3    H127500   4.936   1.476   0.161
 9181TIP3    H227501   4.826   1.578   0.135
 9182TIP3   OH227502   4.868   6.994   5.133
 9182TIP3    H127503   4.876   7.033   5.221
 9182TIP3    H227504   4.934   6.924   5.133
 9183TIP3   OH227505   0.294   6.155   1.475
 9183TIP3    H127506   0.285   6.079   1.533
 9183TIP3    H227507   0.209   6.162   1.432
 9184TIP3   OH227508   6.079   0.130   5.979
 9184TIP3    H127509   6.115   0.103   5.895
 9184TIP3    H227510   5.993   0.167   5.958
 9185TIP3   OH227511   3.954   4.749   4.848
 9185TIP3    H127512   3.900   4.736   4.769
 9185TIP3    H227513   3.891   4.770   4.917
 9186TIP3   OH227514   3.308   6.492   3.886
 9186TIP3    H127515   3.379   6.429   3.896
 9186TIP3    H227516   3.352   6.572   3.856
 9187TIP3   OH227517   6.406   5.826   0.500
 9187TIP3    H127518   6.427   5.772   0.576
 9187TIP3    H227519   6.321   5.793   0.470
 9188TIP3   OH227520   3.389   7.425   1.985
 9188TIP3    H127521   3.371   7.369   1.909
 9188TIP3    H227522   3.427   7.365   2.050
 9189TIP3   OH227523   8.157   5.574   5.020
 9189TIP3    H127524   8.196   5.655   5.053
 9189TIP3    H227525   8.074   5.567   5.067
 9190TIP3   OH227526   0.828   3.860   3.591
 9190TIP3    H127527   0.733   3.850   3.591
 9190TIP3    H227528   0.845   3.939   3.641
 9191TIP3   OH227529   8.156   3.603   4.763
 9191TIP3    H127530   8.089   3.559   4.814
 9191TIP3    H227531   8.108   3.654   4.698
 9192TIP3   OH227532   0.172   6.516   1.430
 9192TIP3    H127533   0.090   6.524   1.478
 9192TIP3    H227534   0.165   6.583   1.361
 9193TIP3   OH227535   4.223   4.491   2.768
 9193TIP3    H127536   4.298   4.550   2.768
 9193TIP3    H227537   4.252   4.416   2.819
 9194TIP3   OH227538   5.940   3.936   2.280
 9194TIP3    H127539   5.992   3.893   2.348
 9194TIP3    H227540   5.950   4.029   2.298
 9195TIP3   OH227541   0.088   5.122   0.891
 9195TIP3    H127542   0.176   5.112   0.855
 9195TIP3    H227543   0.047   5.037   0.879
 9196TIP3   OH227544   0.758   7.569   2.589
 9196TIP3    H127545   0.807   7.532   2.517
 9196TIP3    H227546   0.824   7.611   2.645
 9197TIP3   OH227547   5.155   6.669   0.531
 9197TIP3    H127548   5.110   6.606   0.474
 9197TIP3    H227549   5.163   6.748   0.477
 9198TIP3   OH227550   3.923   6.586   0.728
 9198TIP3    H127551   3.884   6.642   0.660
 9198TIP3    H227552   4.006   6.558   0.690
 9199TIP3   OH227553   1.655   0.844   1.503
 9199TIP3    H127554   1.635   0.931   1.471
 9199TIP3    H227555   1.571   0.811   1.537
 9200TIP3   OH227556   2.628   4.292   0.081
 9200TIP3    H127557   2.649   4.254   0.166
 9200TIP3    H227558   2.562   4.358   0.100
 9201TIP3   OH227559   3.361   1.118   3.020
 9201TIP3    H127560   3.400   1.063   3.087
 9201TIP3    H227561   3.423   1.115   2.947
 9202TIP3   OH227562   3.829   3.547   0.092
 9202TIP3    H127563   3.914   3.566   0.053
 9202TIP3    H227564   3.768   3.602   0.043
 9203TIP3   OH227565   4.096   3.173   3.048
 9203TIP3    H127566   4.126   3.264   3.040
 9203TIP3    H227567   4.075   3.163   3.140
 9204TIP3   OH227568   6.908   5.938   5.674
 9204TIP3    H127569   6.956   5.980   5.745
 9204TIP3    H227570   6.977   5.903   5.616
 9205TIP3   OH227571   4.101   6.826   6.778
 9205TIP3    H127572   4.127   6.742   6.740
 9205TIP3    H227573   4.181   6.878   6.780
 9206TIP3   OH227574   8.085   5.142   1.519
 9206TIP3    H127575   8.113   5.070   1.576
 9206TIP3    H227576   8.153   5.209   1.530
 9207TIP3   OH227577   3.428   4.925   1.024
 9207TIP3    H127578   3.439   4.881   1.109
 9207TIP3    H227579   3.337   4.907   1.000
 9208TIP3   OH227580   7.875   2.890   1.752
 9208TIP3    H127581   7.868   2.885   1.848
 9208TIP3    H227582   7.805   2.834   1.720
 9209TIP3   OH227583   5.230   6.015   6.143
 9209TIP3    H127584   5.319   6.024   6.178
 9209TIP3    H227585   5.240   6.026   6.049
 9210TIP3   OH227586   1.095   3.369   6.455
 9210TIP3    H127587   1.093   3.380   6.360
 9210TIP3    H227588   1.121   3.277   6.468
 9211TIP3   OH227589   1.182   7.391   1.284
 9211TIP3    H127590   1.203   7.306   1.245
 9211TIP3    H227591   1.105   7.374   1.339
 9212TIP3   OH227592   7.328   0.750   5.353
 9212TIP3    H127593   7.298   0.709   5.272
 9212TIP3    H227594   7.274   0.829   5.362
 9213TIP3   OH227595   4.260   3.644   0.674
 9213TIP3    H127596   4.231   3.553   0.669
 9213TIP3    H227597   4.219   3.678   0.753
 9214TIP3   OH227598   6.578   0.443   3.133
 9214TIP3    H127599   6.558   0.536   3.124
 9214TIP3    H227600   6.647   0.427   3.068
 9215TIP3   OH227601   1.145   1.083   1.747
 9215TIP3    H127602   1.103   1.166   1.726
 9215TIP3    H227603   1.162   1.088   1.842
 9216TIP3   OH227604   5.290   4.960   2.055
 9216TIP3    H127605   5.303   4.885   2.114
 9216TIP3    H227606   5.221   4.932   1.995
 9217TIP3   OH227607   0.115   1.295   6.686
 9217TIP3    H127608   0.047   1.327   6.627
 9217TIP3    H227609   0.105   1.200   6.686
 9218TIP3   OH227610   3.022   0.351   5.414
 9218TIP3    H127611   2.927   0.364   5.409
 9218TIP3    H227612   3.043   0.299   5.337
 9219TIP3   OH227613   1.414   7.049   5.768
 9219TIP3    H127614   1.479   6.989   5.806
 9219TIP3    H227615   1.393   7.109   5.839
 9220TIP3   OH227616   2.214   2.483   5.667
 9220TIP3    H127617   2.150   2.555   5.666
 9220TIP3    H227618   2.197   2.437   5.749
 9221TIP3   OH227619   6.628   6.502   1.414
 9221TIP3    H127620   6.542   6.527   1.445
 9221TIP3    H227621   6.617   6.486   1.320
 9222TIP3   OH227622   5.932   1.203   5.879
 9222TIP3    H127623   5.859   1.259   5.851
 9222TIP3    H227624   6.000   1.264   5.906
 9223TIP3   OH227625   7.437   7.601   6.614
 9223TIP3    H127626   7.413   7.673   6.672
 9223TIP3    H227627   7.528   7.618   6.590
 9224TIP3   OH227628   6.732   4.326   2.813
 9224TIP3    H127629   6.723   4.342   2.719
 9224TIP3    H227630   6.744   4.232   2.821
 9225TIP3   OH227631   3.489   4.729   6.665
 9225TIP3    H127632   3.465   4.638   6.678
 9225TIP3    H227633   3.428   4.761   6.599
 9226TIP3   OH227634   2.689   0.338   1.738
 9226TIP3    H127635   2.679   0.418   1.687
 9226TIP3    H227636   2.652   0.359   1.824
 9227TIP3   OH227637   3.943   3.162   0.513
 9227TIP3    H127638   3.963   3.094   0.576
 9227TIP3    H227639   3.992   3.138   0.434
 9228TIP3   OH227640   8.106   4.855   4.204
 9228TIP3    H127641   8.086   4.920   4.270
 9228TIP3    H227642   8.085   4.771   4.245
 9229TIP3   OH227643   2.418   4.090   2.913
 9229TIP3    H127644   2.333   4.050   2.933
 9229TIP3    H227645   2.402   4.184   2.918
 9230TIP3   OH227646   3.927   3.462   5.591
 9230TIP3    H127647   3.941   3.450   5.497
 9230TIP3    H227648   3.842   3.422   5.608
 9231TIP3   OH227649   0.525   5.556   0.329
 9231TIP3    H127650   0.530   5.560   0.424
 9231TIP3    H227651   0.616   5.565   0.299
 9232TIP3   OH227652   5.891   5.872   0.615
 9232TIP3    H127653   5.955   5.820   0.663
 9232TIP3    H227654   5.848   5.926   0.681
 9233TIP3   OH227655   7.969   2.224   6.350
 9233TIP3    H127656   7.996   2.135   6.328
 9233TIP3    H227657   8.012   2.280   6.285
 9234TIP3   OH227658   7.899   2.008   0.525
 9234TIP3    H127659   7.971   2.064   0.554
 9234TIP3    H227660   7.905   2.009   0.429
 9235TIP3   OH227661   0.159   1.427   5.539
 9235TIP3    H127662   0.207   1.500   5.577
 9235TIP3    H227663   0.180   1.352   5.595
 9236TIP3   OH227664   6.532   7.504   5.807
 9236TIP3    H127665   6.519   7.444   5.880
 9236TIP3    H227666   6.536   7.447   5.730
 9237TIP3   OH227667   7.718   0.431   1.763
 9237TIP3    H127668   7.785   0.369   1.734
 9237TIP3    H227669   7.762   0.487   1.826
 9238TIP3   OH227670   1.204   6.096   2.950
 9238TIP3    H127671   1.120   6.142   2.943
 9238TIP3    H227672   1.246   6.110   2.865
 9239TIP3   OH227673   1.094   5.941   2.627
 9239TIP3    H127674   1.099   6.010   2.562
 9239TIP3    H227675   1.167   5.883   2.606
 9240TIP3   OH227676   4.891   0.096   1.711
 9240TIP3    H127677   4.864   0.006   1.727
 9240TIP3    H227678   4.854   0.145   1.785
 9241TIP3   OH227679   1.866   4.240   4.691
 9241TIP3    H127680   1.790   4.249   4.634
 9241TIP3    H227681   1.865   4.147   4.717
 9242TIP3   OH227682   4.162   0.079   0.328
 9242TIP3    H127683   4.241   0.115   0.290
 9242TIP3    H227684   4.193   0.008   0.385
 9243TIP3   OH227685   6.670   5.176   2.065
 9243TIP3    H127686   6.665   5.103   2.126
 9243TIP3    H227687   6.714   5.246   2.113
 9244TIP3   OH227688   6.868   7.560   4.432
 9244TIP3    H127689   6.919   7.579   4.353
 9244TIP3    H227690   6.878   7.638   4.487
 9245TIP3   OH227691   5.350   5.673   6.106
 9245TIP3    H127692   5.312   5.608   6.165
 9245TIP3    H227693   5.416   5.625   6.056
 9246TIP3   OH227694   2.968   5.156   3.979
 9246TIP3    H127695   3.028   5.169   4.053
 9246TIP3    H227696   3.020   5.109   3.914
 9247TIP3   OH227697   6.612   0.231   4.776
 9247TIP3    H127698   6.535   0.285   4.757
 9247TIP3    H227699   6.652   0.272   4.852
 9248TIP3   OH227700   1.601   6.519   4.444
 9248TIP3    H127701   1.649   6.470   4.377
 9248TIP3    H227702   1.592   6.456   4.516
 9249TIP3   OH227703   3.780   6.771   0.577
 9249TIP3    H127704   3.723   6.765   0.500
 9249TIP3    H227705   3.722   6.801   0.647
 9250TIP3   OH227706   2.697   1.153   4.422
 9250TIP3    H127707   2.756   1.087   4.457
 9250TIP3    H227708   2.724   1.234   4.465
 9251TIP3   OH227709   4.532   1.453   3.911
 9251TIP3    H127710   4.480   1.410   3.979
 9251TIP3    H227711   4.598   1.503   3.959
 9252TIP3   OH227712   6.606   1.921   1.511
 9252TIP3    H127713   6.698   1.920   1.483
 9252TIP3    H227714   6.590   1.832   1.542
 9253TIP3   OH227715   4.407   7.301   1.481
 9253TIP3    H127716   4.490   7.259   1.502
 9253TIP3    H227717   4.341   7.233   1.497
 9254TIP3   OH227718   4.817   1.923   5.464
 9254TIP3    H127719   4.893   1.975   5.438
 9254TIP3    H227720   4.811   1.934   5.559
 9255TIP3   OH227721   3.854   4.340   2.511
 9255TIP3    H127722   3.892   4.427   2.524
 9255TIP3    H227723   3.883   4.315   2.423
 9256TIP3   OH227724   0.404   3.869   0.452
 9256TIP3    H127725   0.470   3.802   0.437
 9256TIP3    H227726   0.322   3.830   0.421
 9257TIP3   OH227727   6.211   7.259   0.471
 9257TIP3    H127728   6.212   7.165   0.491
 9257TIP3    H227729   6.118   7.279   0.458
 9258TIP3   OH227730   1.789   5.799   3.077
 9258TIP3    H127731   1.752   5.712   3.092
 9258TIP3    H227732   1.732   5.838   3.010
 9259TIP3   OH227733   2.332   2.365   3.521
 9259TIP3    H127734   2.407   2.424   3.531
 9259TIP3    H227735   2.371   2.279   3.503
 9260TIP3   OH227736   3.510   2.681   6.611
 9260TIP3    H127737   3.500   2.606   6.552
 9260TIP3    H227738   3.540   2.752   6.554
 9261TIP3   OH227739   7.162   5.191   5.823
 9261TIP3    H127740   7.250   5.161   5.801
 9261TIP3    H227741   7.175   5.245   5.901
 9262TIP3   OH227742   7.632   3.334   5.310
 9262TIP3    H127743   7.718   3.297   5.294
 9262TIP3    H227744   7.580   3.310   5.233
 9263TIP3   OH227745   6.805   6.723   5.645
 9263TIP3    H127746   6.898   6.739   5.656
 9263TIP3    H227747   6.771   6.716   5.734
 9264TIP3   OH227748   6.972   2.299   2.687
 9264TIP3    H127749   6.978   2.372   2.625
 9264TIP3    H227750   6.909   2.239   2.647
 9265TIP3   OH227751   7.499   1.953   3.355
 9265TIP3    H127752   7.472   1.867   3.385
 9265TIP3    H227753   7.417   2.000   3.339
 9266TIP3   OH227754   6.526   1.231   3.001
 9266TIP3    H127755   6.519   1.187   2.916
 9266TIP3    H227756   6.620   1.250   3.010
 9267TIP3   OH227757   4.956   6.570   0.826
 9267TIP3    H127758   4.871   6.528   0.844
 9267TIP3    H227759   4.950   6.654   0.870
 9268TIP3   OH227760   3.457   2.395   3.290
 9268TIP3    H127761   3.512   2.391   3.368
 9268TIP3    H227762   3.460   2.306   3.254
 9269TIP3   OH227763   7.731   4.581   1.789
 9269TIP3    H127764   7.769   4.644   1.850
 9269TIP3    H227765   7.794   4.576   1.717
 9270TIP3   OH227766   2.092   5.156   1.708
 9270TIP3    H127767   2.056   5.226   1.653
 9270TIP3    H227768   2.174   5.131   1.665
 9271TIP3   OH227769   5.029   5.149   2.462
 9271TIP3    H127770   5.057   5.110   2.379
 9271TIP3    H227771   4.936   5.128   2.469
 9272TIP3   OH227772   0.583   0.248   6.457
 9272TIP3    H127773   0.496   0.266   6.493
 9272TIP3    H227774   0.581   0.156   6.433
 9273TIP3   OH227775   7.141   7.193   4.207
 9273TIP3    H127776   7.046   7.210   4.212
 9273TIP3    H227777   7.179   7.279   4.191
 9274TIP3   OH227778   7.602   1.307   4.418
 9274TIP3    H127779   7.566   1.227   4.380
 9274TIP3    H227780   7.687   1.280   4.454
 9275TIP3   OH227781   2.114   1.453   4.976
 9275TIP3    H127782   2.153   1.536   5.003
 9275TIP3    H227783   2.025   1.474   4.951
 9276TIP3   OH227784   8.264   0.795   4.049
 9276TIP3    H127785   8.335   0.802   4.113
 9276TIP3    H227786   8.301   0.743   3.978
 9277TIP3   OH227787   3.270   0.900   0.236
 9277TIP3    H127788   3.196   0.879   0.292
 9277TIP3    H227789   3.342   0.917   0.297
 9278TIP3   OH227790   7.976   6.103   0.565
 9278TIP3    H127791   7.992   6.146   0.649
 9278TIP3    H227792   8.052   6.046   0.553
 9279TIP3   OH227793   2.067   2.550   1.662
 9279TIP3    H127794   2.106   2.635   1.641
 9279TIP3    H227795   2.058   2.551   1.757
 9280TIP3   OH227796   5.903   3.224   0.009
 9280TIP3    H127797   5.956   3.298  -0.021
 9280TIP3    H227798   5.965   3.169   0.058
 9281TIP3   OH227799   6.019   1.125   2.313
 9281TIP3    H127800   6.071   1.206   2.312
 9281TIP3    H227801   6.085   1.056   2.308
 9282TIP3   OH227802   3.907   6.230   0.823
 9282TIP3    H127803   3.876   6.254   0.736
 9282TIP3    H227804   3.973   6.296   0.844
 9283TIP3   OH227805   2.420   1.445   1.615
 9283TIP3    H127806   2.378   1.492   1.687
 9283TIP3    H227807   2.420   1.354   1.643
 9284TIP3   OH227808   5.552   4.495   4.606
 9284TIP3    H127809   5.638   4.472   4.571
 9284TIP3    H227810   5.505   4.531   4.531
 9285TIP3   OH227811   3.863   1.107   3.029
 9285TIP3    H127812   3.812   1.148   3.098
 9285TIP3    H227813   3.874   1.016   3.058
 9286TIP3   OH227814   5.714   2.475   6.566
 9286TIP3    H127815   5.635   2.428   6.537
 9286TIP3    H227816   5.786   2.416   6.543
 9287TIP3   OH227817   3.637   0.521   1.403
 9287TIP3    H127818   3.545   0.516   1.377
 9287TIP3    H227819   3.639   0.478   1.488
 9288TIP3   OH227820   6.917   2.516   3.786
 9288TIP3    H127821   6.842   2.475   3.828
 9288TIP3    H227822   6.961   2.564   3.857
 9289TIP3   OH227823   0.823   7.839   0.695
 9289TIP3    H127824   0.897   7.780   0.711
 9289TIP3    H227825   0.852   7.898   0.626
 9290TIP3   OH227826   5.637   5.053   3.594
 9290TIP3    H127827   5.604   5.141   3.578
 9290TIP3    H227828   5.719   5.050   3.545
 9291TIP3   OH227829   1.079   4.188   1.265
 9291TIP3    H127830   1.043   4.117   1.317
 9291TIP3    H227831   1.068   4.159   1.174
 9292TIP3   OH227832   6.162   2.272   6.195
 9292TIP3    H127833   6.088   2.212   6.202
 9292TIP3    H227834   6.190   2.287   6.286
 9293TIP3   OH227835   3.307   7.208   3.382
 9293TIP3    H127836   3.396   7.236   3.360
 9293TIP3    H227837   3.308   7.113   3.369
 9294TIP3   OH227838   1.720   0.953   0.739
 9294TIP3    H127839   1.760   0.878   0.695
 9294TIP3    H227840   1.626   0.941   0.726
 9295TIP3   OH227841   3.590   4.330   5.631
 9295TIP3    H127842   3.629   4.418   5.627
 9295TIP3    H227843   3.662   4.271   5.607
 9296TIP3   OH227844   0.831   1.762   3.873
 9296TIP3    H127845   0.766   1.826   3.900
 9296TIP3    H227846   0.914   1.797   3.907
 9297TIP3   OH227847   2.343   4.676   4.878
 9297TIP3    H127848   2.409   4.612   4.851
 9297TIP3    H227849   2.281   4.625   4.930
 9298TIP3   OH227850   7.684   6.149   6.067
 9298TIP3    H127851   7.645   6.188   6.145
 9298TIP3    H227852   7.660   6.056   6.073
 9299TIP3   OH227853   2.165   1.623   2.252
 9299TIP3    H127854   2.174   1.550   2.314
 9299TIP3    H227855   2.232   1.607   2.186
 9300TIP3   OH227856   8.207   1.168   4.627
 9300TIP3    H127857   8.242   1.143   4.712
 9300TIP3    H227858   8.114   1.145   4.632
 9301TIP3   OH227859   3.410   3.539   3.107
 9301TIP3    H127860   3.435   3.558   3.016
 9301TIP3    H227861   3.365   3.619   3.136
 9302TIP3   OH227862   7.988   6.717   5.321
 9302TIP3    H127863   8.036   6.659   5.262
 9302TIP3    H227864   8.009   6.686   5.409
 9303TIP3   OH227865   4.038   3.129   3.389
 9303TIP3    H127866   4.057   3.043   3.353
 9303TIP3    H227867   4.080   3.130   3.475
 9304TIP3   OH227868   6.775   3.453   2.096
 9304TIP3    H127869   6.827   3.506   2.157
 9304TIP3    H227870   6.685   3.483   2.109
 9305TIP3   OH227871   6.302   2.812   2.127
 9305TIP3    H127872   6.367   2.784   2.062
 9305TIP3    H227873   6.335   2.778   2.210
 9306TIP3   OH227874   4.030   7.443   6.722
 9306TIP3    H127875   4.044   7.510   6.789
 9306TIP3    H227876   4.085   7.370   6.750
 9307TIP3   OH227877   4.943   0.300   3.798
 9307TIP3    H127878   4.934   0.209   3.825
 9307TIP3    H227879   5.009   0.336   3.857
 9308TIP3   OH227880   6.766   6.175   0.988
 9308TIP3    H127881   6.857   6.159   1.013
 9308TIP3    H227882   6.766   6.171   0.892
 9309TIP3   OH227883   5.108   1.338   0.706
 9309TIP3    H127884   5.149   1.352   0.620
 9309TIP3    H227885   5.058   1.418   0.722
 9310TIP3   OH227886   5.915   7.102   1.345
 9310TIP3    H127887   5.915   7.071   1.254
 9310TIP3    H227888   5.980   7.173   1.345
 9311TIP3   OH227889   2.927   1.499   0.882
 9311TIP3    H127890   2.841   1.480   0.918
 9311TIP3    H227891   2.982   1.515   0.959
 9312TIP3   OH227892   2.780   3.152   0.809
 9312TIP3    H127893   2.707   3.190   0.857
 9312TIP3    H227894   2.746   3.068   0.777
 9313TIP3   OH227895   3.392   7.165   6.621
 9313TIP3    H127896   3.408   7.196   6.710
 9313TIP3    H227897   3.400   7.069   6.627
 9314TIP3   OH227898   3.516   3.046   0.176
 9314TIP3    H127899   3.457   3.117   0.201
 9314TIP3    H227900   3.584   3.046   0.243
 9315TIP3   OH227901   6.784   1.973   5.526
 9315TIP3    H127902   6.766   1.925   5.607
 9315TIP3    H227903   6.832   2.051   5.555
 9316TIP3   OH227904   5.792   0.980   1.170
 9316TIP3    H127905   5.886   0.970   1.154
 9316TIP3    H227906   5.782   1.070   1.201
 9317TIP3   OH227907   4.814   6.868   5.949
 9317TIP3    H127908   4.765   6.817   6.014
 9317TIP3    H227909   4.904   6.868   5.981
 9318TIP3   OH227910   8.222   1.125   5.805
 9318TIP3    H127911   8.194   1.074   5.729
 9318TIP3    H227912   8.194   1.215   5.784
 9319TIP3   OH227913   3.658   4.292   1.651
 9319TIP3    H127914   3.736   4.346   1.660
 9319TIP3    H227915   3.657   4.267   1.558
 9320TIP3   OH227916   4.558   5.872   1.427
 9320TIP3    H127917   4.643   5.850   1.390
 9320TIP3    H227918   4.568   5.858   1.521
 9321TIP3   OH227919   5.993   6.272   6.261
 9321TIP3    H127920   5.910   6.230   6.284
 9321TIP3    H227921   6.019   6.230   6.180
 9322TIP3   OH227922   3.038   5.484   4.960
 9322TIP3    H127923   3.059   5.436   5.039
 9322TIP3    H227924   2.965   5.436   4.920
 9323TIP3   OH227925   8.113   6.539   1.321
 9323TIP3    H127926   8.042   6.600   1.302
 9323TIP3    H227927   8.131   6.552   1.415
 9324TIP3   OH227928   5.004   1.060   4.471
 9324TIP3    H127929   4.919   1.052   4.428
 9324TIP3    H227930   5.048   1.130   4.424
 9325TIP3   OH227931   6.165   1.925   4.261
 9325TIP3    H127932   6.220   1.847   4.271
 9325TIP3    H227933   6.091   1.909   4.319
 9326TIP3   OH227934   0.925   4.004   5.491
 9326TIP3    H127935   0.999   4.050   5.531
 9326TIP3    H227936   0.937   3.913   5.516
 9327TIP3   OH227937   0.934   1.147   4.619
 9327TIP3    H127938   0.936   1.163   4.525
 9327TIP3    H227939   0.846   1.113   4.636
 9328TIP3   OH227940   8.277   4.402   0.529
 9328TIP3    H127941   8.288   4.409   0.434
 9328TIP3    H227942   8.220   4.475   0.552
 9329TIP3   OH227943  -0.064   3.945   1.920
 9329TIP3    H127944  -0.005   4.018   1.899
 9329TIP3    H227945  -0.051   3.930   2.013
 9330TIP3   OH227946   3.957   4.245   0.712
 9330TIP3    H127947   3.889   4.180   0.694
 9330TIP3    H227948   4.006   4.209   0.785
 9331TIP3   OH227949   7.248   3.463   6.537
 9331TIP3    H127950   7.332   3.444   6.578
 9331TIP3    H227951   7.244   3.559   6.534
 9332TIP3   OH227952   3.273   0.248   5.495
 9332TIP3    H127953   3.185   0.274   5.466
 9332TIP3    H227954   3.301   0.320   5.552
 9333TIP3   OH227955   4.484   0.461   0.706
 9333TIP3    H127956   4.564   0.480   0.755
 9333TIP3    H227957   4.422   0.430   0.773
 9334TIP3   OH227958   6.882   2.622   3.520
 9334TIP3    H127959   6.846   2.543   3.482
 9334TIP3    H227960   6.893   2.601   3.613
 9335TIP3   OH227961   4.396   0.522   5.922
 9335TIP3    H127962   4.417   0.616   5.927
 9335TIP3    H227963   4.300   0.519   5.929
 9336TIP3   OH227964   2.684   0.801   1.915
 9336TIP3    H127965   2.624   0.763   1.851
 9336TIP3    H227966   2.644   0.885   1.939
 9337TIP3   OH227967   5.639   6.951   1.216
 9337TIP3    H127968   5.609   7.041   1.206
 9337TIP3    H227969   5.577   6.899   1.164
 9338TIP3   OH227970   8.202   0.637   1.329
 9338TIP3    H127971   8.252   0.562   1.296
 9338TIP3    H227972   8.253   0.669   1.403
 9339TIP3   OH227973   5.087   1.697   1.392
 9339TIP3    H127974   5.119   1.745   1.469
 9339TIP3    H227975   5.166   1.672   1.345
 9340TIP3   OH227976   7.920   0.163   3.123
 9340TIP3    H127977   7.902   0.095   3.188
 9340TIP3    H227978   7.833   0.192   3.095
 9341TIP3   OH227979   6.440   3.014   4.166
 9341TIP3    H127980   6.448   3.033   4.260
 9341TIP3    H227981   6.404   2.925   4.163
 9342TIP3   OH227982   1.745   5.644   2.078
 9342TIP3    H127983   1.767   5.651   2.171
 9342TIP3    H227984   1.700   5.726   2.058
 9343TIP3   OH227985   3.810   5.683   2.467
 9343TIP3    H127986   3.768   5.619   2.524
 9343TIP3    H227987   3.903   5.677   2.488
 9344TIP3   OH227988   3.341   7.316   5.124
 9344TIP3    H127989   3.376   7.272   5.046
 9344TIP3    H227990   3.379   7.269   5.198
 9345TIP3   OH227991   5.136   5.607   4.942
 9345TIP3    H127992   5.068   5.568   4.996
 9345TIP3    H227993   5.089   5.653   4.873
 9346TIP3   OH227994   6.829   4.555   2.452
 9346TIP3    H127995   6.902   4.544   2.513
 9346TIP3    H227996   6.787   4.469   2.448
 9347TIP3   OH227997   5.135   2.432   1.283
 9347TIP3    H127998   5.082   2.411   1.206
 9347TIP3    H227999   5.205   2.366   1.281
 9348TIP3   OH228000   6.808   2.956   1.338
 9348TIP3    H128001   6.894   2.982   1.372
 9348TIP3    H228002   6.809   2.984   1.247
 9349TIP3   OH228003   3.737   6.522   3.289
 9349TIP3    H128004   3.792   6.540   3.213
 9349TIP3    H228005   3.775   6.574   3.359
 9350TIP3   OH228006   5.558   6.944   2.844
 9350TIP3    H128007   5.597   6.973   2.761
 9350TIP3    H228008   5.566   6.849   2.842
 9351TIP3   OH228009   6.866   5.869   4.550
 9351TIP3    H128010   6.876   5.931   4.478
 9351TIP3    H228011   6.895   5.917   4.628
 9352TIP3   OH228012   6.615   0.865   2.185
 9352TIP3    H128013   6.574   0.944   2.220
 9352TIP3    H228014   6.542   0.816   2.147
 9353TIP3   OH228015   7.138   5.699   2.030
 9353TIP3    H128016   7.230   5.693   2.056
 9353TIP3    H228017   7.119   5.615   1.989
 9354TIP3   OH228018   0.381   3.397   4.261
 9354TIP3    H128019   0.334   3.423   4.182
 9354TIP3    H228020   0.362   3.466   4.324
 9355TIP3   OH228021   3.368   4.501   5.396
 9355TIP3    H128022   3.457   4.531   5.413
 9355TIP3    H228023   3.312   4.572   5.427
 9356TIP3   OH228024   5.347   4.162   3.055
 9356TIP3    H128025   5.348   4.083   3.001
 9356TIP3    H228026   5.299   4.227   3.004
 9357TIP3   OH228027   1.249   5.488   5.228
 9357TIP3    H128028   1.228   5.458   5.316
 9357TIP3    H228029   1.343   5.505   5.230
 9358TIP3   OH228030   3.379   5.087   2.686
 9358TIP3    H128031   3.350   5.017   2.628
 9358TIP3    H228032   3.349   5.062   2.773
 9359TIP3   OH228033   7.795   0.867   3.687
 9359TIP3    H128034   7.854   0.919   3.741
 9359TIP3    H228035   7.839   0.861   3.602
 9360TIP3   OH228036   2.762   4.215   4.975
 9360TIP3    H128037   2.802   4.236   5.060
 9360TIP3    H228038   2.836   4.206   4.916
 9361TIP3   OH228039   3.579   5.198   3.443
 9361TIP3    H128040   3.534   5.278   3.418
 9361TIP3    H228041   3.672   5.218   3.432
 9362TIP3   OH228042   7.256   1.331   6.777
 9362TIP3    H128043   7.171   1.318   6.735
 9362TIP3    H228044   7.307   1.379   6.712
 9363TIP3   OH228045   6.427   5.734   2.915
 9363TIP3    H128046   6.332   5.746   2.917
 9363TIP3    H228047   6.461   5.810   2.962
 9364TIP3   OH228048   3.991   2.297   4.606
 9364TIP3    H128049   4.084   2.276   4.611
 9364TIP3    H228050   3.961   2.255   4.525
 9365TIP3   OH228051   1.962   0.749   6.082
 9365TIP3    H128052   1.961   0.736   5.987
 9365TIP3    H228053   2.053   0.769   6.103
 9366TIP3   OH228054   1.322   7.695   1.015
 9366TIP3    H128055   1.388   7.698   1.085
 9366TIP3    H228056   1.341   7.773   0.963
 9367TIP3   OH228057   4.973   4.423   2.617
 9367TIP3    H128058   4.917   4.452   2.689
 9367TIP3    H228059   4.952   4.331   2.607
 9368TIP3   OH228060   5.398   3.587   1.374
 9368TIP3    H128061   5.405   3.664   1.317
 9368TIP3    H228062   5.323   3.539   1.339
 9369TIP3   OH228063   2.883   1.558   6.551
 9369TIP3    H128064   2.884   1.637   6.605
 9369TIP3    H228065   2.965   1.513   6.573
 9370TIP3   OH228066   3.926   3.921   5.722
 9370TIP3    H128067   3.888   3.867   5.791
 9370TIP3    H228068   3.997   3.968   5.766
 9371TIP3   OH228069   2.367   6.138   0.316
 9371TIP3    H128070   2.423   6.118   0.391
 9371TIP3    H228071   2.358   6.233   0.318
 9372TIP3   OH228072   4.353   3.064   2.849
 9372TIP3    H128073   4.354   2.968   2.854
 9372TIP3    H228074   4.435   3.086   2.806
 9373TIP3   OH228075   0.927   1.563   0.348
 9373TIP3    H128076   0.939   1.569   0.254
 9373TIP3    H228077   0.974   1.639   0.383
 9374TIP3   OH228078   6.389   7.237   4.183
 9374TIP3    H128079   6.377   7.143   4.171
 9374TIP3    H228080   6.323   7.262   4.248
 9375TIP3   OH228081   2.612   4.387   0.613
 9375TIP3    H128082   2.616   4.481   0.629
 9375TIP3    H228083   2.533   4.358   0.659
 9376TIP3   OH228084   1.868   7.193   1.809
 9376TIP3    H128085   1.874   7.177   1.903
 9376TIP3    H228086   1.855   7.288   1.801
 9377TIP3   OH228087   7.213   4.563   6.478
 9377TIP3    H128088   7.134   4.511   6.489
 9377TIP3    H228089   7.241   4.582   6.568
 9378TIP3   OH228090   2.947   1.110   5.770
 9378TIP3    H128091   2.992   1.069   5.696
 9378TIP3    H228092   2.964   1.204   5.760
 9379TIP3   OH228093   2.874   7.577   5.733
 9379TIP3    H128094   2.779   7.573   5.722
 9379TIP3    H228095   2.909   7.548   5.649
 9380TIP3   OH228096   3.539   0.356   5.638
 9380TIP3    H128097   3.456   0.398   5.663
 9380TIP3    H228098   3.531   0.267   5.671
 9381TIP3   OH228099   6.109   6.002   4.942
 9381TIP3    H128100   6.174   5.943   4.979
 9381TIP3    H228101   6.148   6.032   4.860
 9382TIP3   OH228102   2.579   2.271   5.393
 9382TIP3    H128103   2.620   2.234   5.471
 9382TIP3    H228104   2.596   2.365   5.398
 9383TIP3   OH228105   8.027   2.407   5.313
 9383TIP3    H128106   7.947   2.437   5.271
 9383TIP3    H228107   8.049   2.477   5.375
 9384TIP3   OH228108   0.156   4.766   1.481
 9384TIP3    H128109   0.163   4.778   1.386
 9384TIP3    H228110   0.221   4.826   1.518
 9385TIP3   OH228111   6.383   2.081   1.552
 9385TIP3    H128112   6.463   2.039   1.521
 9385TIP3    H228113   6.406   2.113   1.640
 9386TIP3   OH228114   0.506   1.245   3.107
 9386TIP3    H128115   0.516   1.314   3.172
 9386TIP3    H228116   0.540   1.166   3.150
 9387TIP3   OH228117   5.255   3.807   3.914
 9387TIP3    H128118   5.329   3.790   3.972
 9387TIP3    H228119   5.179   3.810   3.972
 9388TIP3   OH228120   4.617   0.988   4.917
 9388TIP3    H128121   4.628   0.916   4.979
 9388TIP3    H228122   4.552   0.956   4.854
 9389TIP3   OH228123   3.670   3.988   3.363
 9389TIP3    H128124   3.597   3.991   3.424
 9389TIP3    H228125   3.724   4.063   3.387
 9390TIP3   OH228126   4.918   3.470   5.635
 9390TIP3    H128127   5.013   3.466   5.628
 9390TIP3    H228128   4.890   3.511   5.553
 9391TIP3   OH228129   2.724   0.316   1.068
 9391TIP3    H128130   2.797   0.371   1.096
 9391TIP3    H228131   2.748   0.227   1.096
 9392TIP3   OH228132   1.419   7.559   2.441
 9392TIP3    H128133   1.409   7.631   2.503
 9392TIP3    H228134   1.452   7.601   2.361
 9393TIP3   OH228135   3.658   4.080   1.821
 9393TIP3    H128136   3.670   4.161   1.773
 9393TIP3    H228137   3.601   4.103   1.894
 9394TIP3   OH228138   4.002   1.898   1.171
 9394TIP3    H128139   3.965   1.947   1.244
 9394TIP3    H228140   3.968   1.942   1.093
 9395TIP3   OH228141   4.490   7.238   1.974
 9395TIP3    H128142   4.550   7.197   2.036
 9395TIP3    H228143   4.502   7.188   1.893
 9396TIP3   OH228144   0.255   5.866   3.434
 9396TIP3    H128145   0.252   5.956   3.466
 9396TIP3    H228146   0.347   5.840   3.444
 9397TIP3   OH228147   6.906   5.032   1.716
 9397TIP3    H128148   6.848   4.955   1.720
 9397TIP3    H228149   6.855   5.102   1.757
 9398TIP3   OH228150   0.991   7.188   0.092
 9398TIP3    H128151   1.076   7.169   0.051
 9398TIP3    H228152   0.984   7.283   0.090
 9399TIP3   OH228153   1.642   4.243   5.668
 9399TIP3    H128154   1.667   4.333   5.689
 9399TIP3    H228155   1.657   4.235   5.574
 9400TIP3   OH228156   3.426   4.696   4.233
 9400TIP3    H128157   3.501   4.743   4.270
 9400TIP3    H228158   3.375   4.763   4.188
 9401TIP3   OH228159   5.554   6.979   1.834
 9401TIP3    H128160   5.511   6.976   1.748
 9401TIP3    H228161   5.626   6.916   1.827
 9402TIP3   OH228162   3.608   1.790   0.703
 9402TIP3    H128163   3.560   1.861   0.745
 9402TIP3    H228164   3.692   1.827   0.679
 9403TIP3   OH228165   7.392   1.547   2.795
 9403TIP3    H128166   7.429   1.480   2.852
 9403TIP3    H228167   7.466   1.606   2.777
 9404TIP3   OH228168   7.473   7.818   6.240
 9404TIP3    H128169   7.457   7.724   6.228
 9404TIP3    H228170   7.387   7.854   6.261
 9405TIP3   OH228171   0.636   1.400   1.245
 9405TIP3    H128172   0.623   1.316   1.289
 9405TIP3    H228173   0.695   1.379   1.172
 9406TIP3   OH228174   2.895   5.774   3.562
 9406TIP3    H128175   2.939   5.775   3.477
 9406TIP3    H228176   2.915   5.859   3.601
 9407TIP3   OH228177   5.686   0.749   6.567
 9407TIP3    H128178   5.709   0.835   6.533
 9407TIP3    H228179   5.648   0.702   6.493
 9408TIP3   OH228180   4.827   0.368   5.577
 9408TIP3    H128181   4.870   0.287   5.604
 9408TIP3    H228182   4.863   0.387   5.491
 9409TIP3   OH228183   4.984   1.563   0.819
 9409TIP3    H128184   4.895   1.578   0.787
 9409TIP3    H228185   4.973   1.538   0.911
 9410TIP3   OH228186   4.499   1.519   2.574
 9410TIP3    H128187   4.435   1.456   2.606
 9410TIP3    H228188   4.480   1.528   2.481
 9411TIP3   OH228189   4.665   2.932   1.718
 9411TIP3    H128190   4.603   2.908   1.649
 9411TIP3    H228191   4.618   2.914   1.800
 9412TIP3   OH228192   7.506   4.135   2.531
 9412TIP3    H128193   7.462   4.217   2.554
 9412TIP3    H228194   7.478   4.118   2.441
 9413TIP3   OH228195   6.076   3.921   0.566
 9413TIP3    H128196   6.115   3.999   0.528
 9413TIP3    H228197   6.127   3.848   0.529
 9414TIP3   OH228198   0.447   2.282   4.702
 9414TIP3    H128199   0.423   2.202   4.749
 9414TIP3    H228200   0.375   2.343   4.721
 9415TIP3   OH228201   2.627   7.011   4.929
 9415TIP3    H128202   2.581   6.959   4.863
 9415TIP3    H228203   2.630   6.954   5.006
 9416TIP3   OH228204   3.282   6.649   5.722
 9416TIP3    H128205   3.208   6.673   5.777
 9416TIP3    H228206   3.332   6.587   5.776
 9417TIP3   OH228207   0.808   0.121   5.543
 9417TIP3    H128208   0.826   0.120   5.637
 9417TIP3    H228209   0.790   0.029   5.522
 9418TIP3   OH228210   3.468   5.050   4.234
 9418TIP3    H128211   3.428   4.990   4.171
 9418TIP3    H228212   3.530   5.101   4.182
 9419TIP3   OH228213   1.970   7.267   4.955
 9419TIP3    H128214   1.902   7.306   4.899
 9419TIP3    H228215   1.933   7.269   5.043
 9420TIP3   OH228216   7.334   2.352   6.737
 9420TIP3    H128217   7.340   2.422   6.672
 9420TIP3    H228218   7.336   2.271   6.686
 9421TIP3   OH228219   5.375   1.588   5.906
 9421TIP3    H128220   5.319   1.514   5.931
 9421TIP3    H228221   5.348   1.608   5.816
 9422TIP3   OH228222   0.283   3.114   5.411
 9422TIP3    H128223   0.216   3.180   5.426
 9422TIP3    H228224   0.271   3.087   5.320
 9423TIP3   OH228225   0.695   2.896   0.555
 9423TIP3    H128226   0.676   2.898   0.461
 9423TIP3    H228227   0.690   2.803   0.578
 9424TIP3   OH228228   7.887   6.592   3.995
 9424TIP3    H128229   7.970   6.638   4.006
 9424TIP3    H228230   7.862   6.608   3.904
 9425TIP3   OH228231   5.110   5.628   3.260
 9425TIP3    H128232   5.189   5.589   3.299
 9425TIP3    H228233   5.134   5.719   3.245
 9426TIP3   OH228234   7.674   0.092   0.918
 9426TIP3    H128235   7.684   0.069   0.826
 9426TIP3    H228236   7.654   0.009   0.962
 9427TIP3   OH228237   2.021   6.449   0.468
 9427TIP3    H128238   2.049   6.466   0.558
 9427TIP3    H228239   2.101   6.460   0.416
 9428TIP3   OH228240   3.526   2.290   1.946
 9428TIP3    H128241   3.470   2.213   1.959
 9428TIP3    H228242   3.465   2.360   1.922
 9429TIP3   OH228243   6.917   4.209   0.290
 9429TIP3    H128244   6.823   4.199   0.276
 9429TIP3    H228245   6.958   4.176   0.210
 9430TIP3   OH228246   5.528   1.980   4.156
 9430TIP3    H128247   5.458   1.992   4.091
 9430TIP3    H228248   5.541   1.885   4.159
 9431TIP3   OH228249   0.552   5.730   3.040
 9431TIP3    H128250   0.540   5.823   3.023
 9431TIP3    H228251   0.642   5.724   3.074
 9432TIP3   OH228252   4.203   7.755   1.285
 9432TIP3    H128253   4.243   7.669   1.299
 9432TIP3    H228254   4.241   7.811   1.352
 9433TIP3   OH228255   6.905   2.093   0.697
 9433TIP3    H128256   6.995   2.101   0.664
 9433TIP3    H228257   6.860   2.170   0.661
 9434TIP3   OH228258   1.905   6.480   4.133
 9434TIP3    H128259   1.913   6.393   4.096
 9434TIP3    H228260   1.822   6.480   4.180
 9435TIP3   OH228261   2.952   2.810   2.058
 9435TIP3    H128262   3.019   2.820   2.126
 9435TIP3    H228263   2.956   2.891   2.008
 9436TIP3   OH228264   7.241   2.049   1.475
 9436TIP3    H128265   7.177   1.978   1.472
 9436TIP3    H228266   7.191   2.126   1.504
 9437TIP3   OH228267   2.556   0.403   6.425
 9437TIP3    H128268   2.582   0.360   6.343
 9437TIP3    H228269   2.558   0.334   6.491
 9438TIP3   OH228270   2.582   1.809   5.791
 9438TIP3    H128271   2.527   1.792   5.868
 9438TIP3    H228272   2.669   1.827   5.827
 9439TIP3   OH228273   1.153   6.628   2.722
 9439TIP3    H128274   1.099   6.585   2.788
 9439TIP3    H228275   1.095   6.640   2.647
 9440TIP3   OH228276   3.027   2.293   3.991
 9440TIP3    H128277   3.062   2.376   3.959
 9440TIP3    H228278   3.091   2.262   4.054
 9441TIP3   OH228279   8.029   7.104   2.634
 9441TIP3    H128280   7.959   7.164   2.608
 9441TIP3    H228281   8.088   7.157   2.686
 9442TIP3   OH228282   4.436   4.518   3.078
 9442TIP3    H128283   4.514   4.570   3.059
 9442TIP3    H228284   4.471   4.436   3.114
 9443TIP3   OH228285   2.913   5.293   2.198
 9443TIP3    H128286   2.948   5.373   2.158
 9443TIP3    H228287   2.849   5.325   2.262
 9444TIP3   OH228288   4.295   0.927   1.404
 9444TIP3    H128289   4.342   1.009   1.392
 9444TIP3    H228290   4.227   0.948   1.468
 9445TIP3   OH228291   8.125   5.918   5.950
 9445TIP3    H128292   8.135   5.929   6.045
 9445TIP3    H228293   8.031   5.930   5.934
 9446TIP3   OH228294   0.284   5.503   0.548
 9446TIP3    H128295   0.230   5.520   0.625
 9446TIP3    H228296   0.373   5.526   0.576
 9447TIP3   OH228297   1.851   6.863   6.616
 9447TIP3    H128298   1.810   6.805   6.680
 9447TIP3    H228299   1.862   6.809   6.538
 9448TIP3   OH228300   0.549   6.731   1.172
 9448TIP3    H128301   0.596   6.714   1.254
 9448TIP3    H228302   0.612   6.711   1.103
 9449TIP3   OH228303   4.580   5.348   5.401
 9449TIP3    H128304   4.606   5.274   5.345
 9449TIP3    H228305   4.636   5.340   5.479
 9450TIP3   OH228306   7.007   3.569   5.545
 9450TIP3    H128307   7.075   3.538   5.485
 9450TIP3    H228308   7.045   3.560   5.632
 9451TIP3   OH228309   7.504   7.505   2.526
 9451TIP3    H128310   7.492   7.553   2.608
 9451TIP3    H228311   7.465   7.419   2.544
 9452TIP3   OH228312   3.540   4.970   3.589
 9452TIP3    H128313   3.630   4.949   3.616
 9452TIP3    H228314   3.550   5.047   3.533
 9453TIP3   OH228315   6.601   6.924   3.377
 9453TIP3    H128316   6.582   6.909   3.470
 9453TIP3    H228317   6.550   6.857   3.331
 9454TIP3   OH228318   2.579   1.141   5.987
 9454TIP3    H128319   2.531   1.059   5.989
 9454TIP3    H228320   2.572   1.175   6.077
 9455TIP3   OH228321   3.566   4.570   0.415
 9455TIP3    H128322   3.649   4.613   0.392
 9455TIP3    H228323   3.501   4.612   0.360
 9456TIP3   OH228324   4.166   1.159   4.203
 9456TIP3    H128325   4.143   1.240   4.157
 9456TIP3    H228326   4.262   1.156   4.200
 9457TIP3   OH228327   3.436   4.108   6.516
 9457TIP3    H128328   3.492   4.092   6.441
 9457TIP3    H228329   3.430   4.023   6.560
 9458TIP3   OH228330   0.277   0.472   5.926
 9458TIP3    H128331   0.352   0.499   5.978
 9458TIP3    H228332   0.212   0.444   5.991
 9459TIP3   OH228333   7.780   2.927   1.999
 9459TIP3    H128334   7.807   2.933   2.091
 9459TIP3    H228335   7.705   2.987   1.993
 9460TIP3   OH228336   3.999   3.263   4.277
 9460TIP3    H128337   3.953   3.180   4.291
 9460TIP3    H228338   3.935   3.318   4.231
 9461TIP3   OH228339   0.923   2.387   2.879
 9461TIP3    H128340   0.898   2.319   2.942
 9461TIP3    H228341   0.988   2.346   2.823
 9462TIP3   OH228342   2.506   6.275   1.361
 9462TIP3    H128343   2.550   6.288   1.444
 9462TIP3    H228344   2.523   6.183   1.339
 9463TIP3   OH228345   7.422   1.904   4.020
 9463TIP3    H128346   7.384   1.818   4.002
 9463TIP3    H228347   7.495   1.887   4.079
 9464TIP3   OH228348   1.206   3.918   4.920
 9464TIP3    H128349   1.216   3.864   4.998
 9464TIP3    H228350   1.295   3.944   4.896
 9465TIP3   OH228351   2.120   0.282   3.385
 9465TIP3    H128352   2.180   0.211   3.408
 9465TIP3    H228353   2.155   0.319   3.304
 9466TIP3   OH228354   4.016   5.507   0.149
 9466TIP3    H128355   4.075   5.456   0.093
 9466TIP3    H228356   3.986   5.579   0.093
 9467TIP3   OH228357   5.619   6.611   4.213
 9467TIP3    H128358   5.693   6.554   4.232
 9467TIP3    H228359   5.659   6.693   4.185
 9468TIP3   OH228360   7.384   0.826   6.202
 9468TIP3    H128361   7.343   0.824   6.289
 9468TIP3    H228362   7.389   0.734   6.176
 9469TIP3   OH228363   3.096   5.416   4.070
 9469TIP3    H128364   3.191   5.405   4.074
 9469TIP3    H228365   3.063   5.369   4.147
 9470TIP3   OH228366   6.971   6.195   0.082
 9470TIP3    H128367   6.995   6.115   0.035
 9470TIP3    H228368   7.006   6.182   0.170
 9471TIP3   OH228369   3.809   0.618   4.072
 9471TIP3    H128370   3.713   0.623   4.074
 9471TIP3    H228371   3.834   0.674   3.999
 9472TIP3   OH228372   4.704   0.186   2.206
 9472TIP3    H128373   4.664   0.242   2.272
 9472TIP3    H228374   4.640   0.181   2.136
 9473TIP3   OH228375   6.910   6.768   6.122
 9473TIP3    H128376   6.984   6.819   6.090
 9473TIP3    H228377   6.948   6.703   6.181
 9474TIP3   OH228378   7.585   7.170   1.509
 9474TIP3    H128379   7.593   7.261   1.536
 9474TIP3    H228380   7.659   7.155   1.452
 9475TIP3   OH228381   1.907   6.017   4.252
 9475TIP3    H128382   1.865   6.102   4.242
 9475TIP3    H228383   1.963   6.009   4.175
 9476TIP3   OH228384   5.178   2.571   4.484
 9476TIP3    H128385   5.151   2.567   4.393
 9476TIP3    H228386   5.273   2.582   4.480
 9477TIP3   OH228387   7.215   0.884   2.349
 9477TIP3    H128388   7.295   0.918   2.390
 9477TIP3    H228389   7.204   0.937   2.270
 9478TIP3   OH228390   5.883   1.306   5.229
 9478TIP3    H128391   5.885   1.267   5.316
 9478TIP3    H228392   5.924   1.241   5.172
 9479TIP3   OH228393   0.269   1.557   6.352
 9479TIP3    H128394   0.257   1.565   6.447
 9479TIP3    H228395   0.234   1.639   6.317
 9480TIP3   OH228396   6.575   5.217   5.661
 9480TIP3    H128397   6.607   5.293   5.613
 9480TIP3    H228398   6.562   5.150   5.594
 9481TIP3   OH228399   8.227   0.395   0.482
 9481TIP3    H128400   8.284   0.397   0.405
 9481TIP3    H228401   8.285   0.419   0.555
 9482TIP3   OH228402   7.459   0.607   0.690
 9482TIP3    H128403   7.365   0.626   0.693
 9482TIP3    H228404   7.482   0.617   0.597
 9483TIP3   OH228405   4.774   0.963   3.860
 9483TIP3    H128406   4.730   1.047   3.854
 9483TIP3    H228407   4.807   0.959   3.950
 9484TIP3   OH228408   2.216   6.489   4.759
 9484TIP3    H128409   2.291   6.526   4.712
 9484TIP3    H228410   2.161   6.564   4.780
 9485TIP3   OH228411   4.698   6.045   4.972
 9485TIP3    H128412   4.614   6.062   5.016
 9485TIP3    H228413   4.692   6.094   4.890
 9486TIP3   OH228414   1.852   4.350   3.458
 9486TIP3    H128415   1.863   4.366   3.551
 9486TIP3    H228416   1.860   4.255   3.448
 9487TIP3   OH228417   5.688   3.137   1.497
 9487TIP3    H128418   5.605   3.090   1.501
 9487TIP3    H228419   5.668   3.224   1.530
 9488TIP3   OH228420   7.845   4.238   4.348
 9488TIP3    H128421   7.834   4.332   4.336
 9488TIP3    H228422   7.759   4.207   4.376
 9489TIP3   OH228423   7.645   3.019   5.255
 9489TIP3    H128424   7.709   3.054   5.193
 9489TIP3    H228425   7.677   3.048   5.341
 9490TIP3   OH228426   5.900   7.514   6.314
 9490TIP3    H128427   5.919   7.420   6.313
 9490TIP3    H228428   5.925   7.542   6.402
 9491TIP3   OH228429   7.770   3.794   5.046
 9491TIP3    H128430   7.851   3.773   5.000
 9491TIP3    H228431   7.719   3.845   4.983
 9492TIP3   OH228432   2.881   0.325   0.459
 9492TIP3    H128433   2.813   0.388   0.433
 9492TIP3    H228434   2.901   0.347   0.550
 9493TIP3   OH228435   5.463   0.372   1.264
 9493TIP3    H128436   5.410   0.398   1.189
 9493TIP3    H228437   5.496   0.286   1.242
 9494TIP3   OH228438   4.896   3.660   5.420
 9494TIP3    H128439   4.857   3.725   5.362
 9494TIP3    H228440   4.988   3.657   5.394
 9495TIP3   OH228441   1.391   0.982   1.708
 9495TIP3    H128442   1.301   1.013   1.714
 9495TIP3    H228443   1.443   1.060   1.687
 9496TIP3   OH228444   6.243   1.277   5.340
 9496TIP3    H128445   6.323   1.236   5.307
 9496TIP3    H228446   6.208   1.326   5.265
 9497TIP3   OH228447   5.202   7.320   3.307
 9497TIP3    H128448   5.290   7.285   3.293
 9497TIP3    H228449   5.216   7.411   3.333
 9498TIP3   OH228450   0.888   2.539   5.052
 9498TIP3    H128451   0.971   2.493   5.063
 9498TIP3    H228452   0.851   2.502   4.972
 9499TIP3   OH228453   4.101   4.926   1.422
 9499TIP3    H128454   4.044   4.992   1.382
 9499TIP3    H228455   4.087   4.936   1.516
 9500TIP3   OH228456   3.126   7.171   0.822
 9500TIP3    H128457   3.035   7.141   0.834
 9500TIP3    H228458   3.152   7.202   0.909
 9501TIP3   OH228459   3.339   1.079   6.550
 9501TIP3    H128460   3.250   1.043   6.557
 9501TIP3    H228461   3.396   1.003   6.557
 9502TIP3   OH228462   6.415   4.615   4.363
 9502TIP3    H128463   6.497   4.659   4.384
 9502TIP3    H228464   6.364   4.620   4.443
 9503TIP3   OH228465   5.715   1.999   1.411
 9503TIP3    H128466   5.635   2.020   1.459
 9503TIP3    H228467   5.786   2.026   1.469
 9504TIP3   OH228468   1.281   1.676   3.017
 9504TIP3    H128469   1.338   1.724   2.957
 9504TIP3    H228470   1.334   1.666   3.097
 9505TIP3   OH228471   4.007   4.560   5.953
 9505TIP3    H128472   3.929   4.563   6.008
 9505TIP3    H228473   4.069   4.506   6.002
 9506TIP3   OH228474   0.946   3.698   3.813
 9506TIP3    H128475   1.026   3.751   3.817
 9506TIP3    H228476   0.889   3.745   3.753
 9507TIP3   OH228477   2.108   5.867   5.766
 9507TIP3    H128478   2.150   5.841   5.683
 9507TIP3    H228479   2.144   5.807   5.831
 9508TIP3   OH228480   3.356  -0.004   5.210
 9508TIP3    H128481   3.415   0.057   5.165
 9508TIP3    H228482   3.381   0.003   5.302
 9509TIP3   OH228483   2.787   2.376   3.939
 9509TIP3    H128484   2.873   2.339   3.960
 9509TIP3    H228485   2.748   2.313   3.878
 9510TIP3   OH228486   5.551   0.315   5.011
 9510TIP3    H128487   5.524   0.293   4.922
 9510TIP3    H228488   5.630   0.264   5.026
 9511TIP3   OH228489   3.294   5.959   1.115
 9511TIP3    H128490   3.286   5.871   1.152
 9511TIP3    H228491   3.276   5.947   1.022
 9512TIP3   OH228492   5.100   5.475   6.731
 9512TIP3    H128493   5.188   5.440   6.750
 9512TIP3    H228494   5.086   5.455   6.639
 9513TIP3   OH228495   7.052   7.826   6.681
 9513TIP3    H128496   7.144   7.814   6.707
 9513TIP3    H228497   7.051   7.908   6.632
 9514TIP3   OH228498   0.132   3.962   6.510
 9514TIP3    H128499   0.137   4.056   6.528
 9514TIP3    H228500   0.079   3.926   6.581
 9515TIP3   OH228501   0.703   0.082   4.179
 9515TIP3    H128502   0.655   0.137   4.116
 9515TIP3    H228503   0.651   0.002   4.185
 9516TIP3   OH228504   6.652   5.493   2.096
 9516TIP3    H128505   6.595   5.456   2.029
 9516TIP3    H228506   6.701   5.562   2.051
 9517TIP3   OH228507   0.503   3.245   5.294
 9517TIP3    H128508   0.469   3.254   5.204
 9517TIP3    H228509   0.445   3.179   5.334
 9518TIP3   OH228510   7.017   3.693   1.382
 9518TIP3    H128511   7.101   3.700   1.427
 9518TIP3    H228512   7.023   3.612   1.332
 9519TIP3   OH228513   0.005   3.515   0.423
 9519TIP3    H128514   0.100   3.526   0.422
 9519TIP3    H228515  -0.011   3.449   0.490
 9520TIP3   OH228516   0.791   5.408   0.255
 9520TIP3    H128517   0.705   5.389   0.216
 9520TIP3    H228518   0.852   5.351   0.208
 9521TIP3   OH228519   2.331   4.880   0.552
 9521TIP3    H128520   2.254   4.920   0.513
 9521TIP3    H228521   2.303   4.792   0.577
 9522TIP3   OH228522   5.421   6.962   3.093
 9522TIP3    H128523   5.476   6.969   3.015
 9522TIP3    H228524   5.458   6.890   3.143
 9523TIP3   OH228525   0.972   3.153   2.848
 9523TIP3    H128526   1.003   3.063   2.839
 9523TIP3    H228527   0.926   3.170   2.765
 9524TIP3   OH228528   6.392   0.528   6.591
 9524TIP3    H128529   6.355   0.551   6.505
 9524TIP3    H228530   6.317   0.531   6.651
 9525TIP3   OH228531   3.953   2.743   0.480
 9525TIP3    H128532   4.036   2.700   0.501
 9525TIP3    H228533   3.961   2.767   0.388
 9526TIP3   OH228534   3.979   6.028   5.347
 9526TIP3    H128535   3.962   5.961   5.281
 9526TIP3    H228536   3.893   6.065   5.367
 9527TIP3   OH228537   1.178   2.920   6.255
 9527TIP3    H128538   1.091   2.930   6.295
 9527TIP3    H228539   1.199   3.008   6.223
 9528TIP3   OH228540   0.237   2.246   5.082
 9528TIP3    H128541   0.250   2.179   5.015
 9528TIP3    H228542   0.144   2.269   5.075
 9529TIP3   OH228543   4.020   3.209   6.155
 9529TIP3    H128544   4.070   3.264   6.215
 9529TIP3    H228545   3.933   3.203   6.196
 9530TIP3   OH228546   5.973   1.309   4.401
 9530TIP3    H128547   6.047   1.258   4.435
 9530TIP3    H228548   5.943   1.360   4.476
 9531TIP3   OH228549   6.485   3.312   2.679
 9531TIP3    H128550   6.549   3.349   2.739
 9531TIP3    H228551   6.406   3.366   2.692
 9532TIP3   OH228552   5.711   2.850   2.576
 9532TIP3    H128553   5.691   2.822   2.487
 9532TIP3    H228554   5.721   2.769   2.626
 9533TIP3   OH228555   2.861   5.997   0.459
 9533TIP3    H128556   2.835   6.066   0.521
 9533TIP3    H228557   2.845   6.035   0.373
 9534TIP3   OH228558   6.691   4.831   5.659
 9534TIP3    H128559   6.681   4.874   5.744
 9534TIP3    H228560   6.644   4.748   5.669
 9535TIP3   OH228561   1.364   5.802   5.607
 9535TIP3    H128562   1.335   5.885   5.571
 9535TIP3    H228563   1.413   5.825   5.686
 9536TIP3   OH228564   3.439   2.516   0.895
 9536TIP3    H128565   3.460   2.428   0.864
 9536TIP3    H228566   3.463   2.516   0.987
 9537TIP3   OH228567   4.918   5.923   3.654
 9537TIP3    H128568   4.828   5.951   3.643
 9537TIP3    H228569   4.932   5.858   3.584
 9538TIP3   OH228570   5.673   2.316   1.255
 9538TIP3    H128571   5.750   2.373   1.260
 9538TIP3    H228572   5.628   2.329   1.339
 9539TIP3   OH228573   5.811   6.459   3.013
 9539TIP3    H128574   5.838   6.370   2.992
 9539TIP3    H228575   5.716   6.460   2.998
 9540TIP3   OH228576   4.880   2.604   2.348
 9540TIP3    H128577   4.945   2.669   2.322
 9540TIP3    H228578   4.834   2.582   2.267
 9541TIP3   OH228579   4.343   1.023   6.258
 9541TIP3    H128580   4.350   1.035   6.353
 9541TIP3    H228581   4.362   0.930   6.244
 9542TIP3   OH228582   7.614   0.519   5.196
 9542TIP3    H128583   7.675   0.574   5.147
 9542TIP3    H228584   7.579   0.577   5.264
 9543TIP3   OH228585   2.575   6.680   6.531
 9543TIP3    H128586   2.593   6.773   6.545
 9543TIP3    H228587   2.480   6.672   6.539
 9544TIP3   OH228588   7.876   1.189   1.333
 9544TIP3    H128589   7.781   1.197   1.325
 9544TIP3    H228590   7.905   1.271   1.372
 9545TIP3   OH228591   0.708   5.734   3.746
 9545TIP3    H128592   0.613   5.732   3.762
 9545TIP3    H228593   0.726   5.826   3.726
 9546TIP3   OH228594   4.912   5.468   0.468
 9546TIP3    H128595   4.876   5.483   0.381
 9546TIP3    H228596   4.900   5.552   0.514
 9547TIP3   OH228597   0.672   2.854   6.568
 9547TIP3    H128598   0.633   2.939   6.587
 9547TIP3    H228599   0.604   2.806   6.521
 9548TIP3   OH228600   3.925   1.588   5.896
 9548TIP3    H128601   4.000   1.533   5.873
 9548TIP3    H228602   3.885   1.610   5.811
 9549TIP3   OH228603   7.797   6.382   2.733
 9549TIP3    H128604   7.726   6.345   2.786
 9549TIP3    H228605   7.844   6.306   2.700
 9550TIP3   OH228606   8.191   3.133   5.658
 9550TIP3    H128607   8.202   3.167   5.569
 9550TIP3    H228608   8.185   3.211   5.713
 9551TIP3   OH228609   2.676   6.284   1.582
 9551TIP3    H128610   2.749   6.224   1.568
 9551TIP3    H228611   2.638   6.257   1.666
 9552TIP3   OH228612   6.012   1.723   4.659
 9552TIP3    H128613   6.044   1.807   4.627
 9552TIP3    H228614   5.971   1.744   4.743
 9553TIP3   OH228615   0.495   5.210   6.257
 9553TIP3    H128616   0.588   5.193   6.268
 9553TIP3    H228617   0.485   5.227   6.163
 9554TIP3   OH228618   0.102   4.222   5.977
 9554TIP3    H128619   0.035   4.241   5.911
 9554TIP3    H228620   0.158   4.299   5.977
 9555TIP3   OH228621   2.565   5.168   1.771
 9555TIP3    H128622   2.640   5.163   1.713
 9555TIP3    H228623   2.570   5.088   1.824
 9556TIP3   OH228624   6.096   3.632   5.364
 9556TIP3    H128625   6.035   3.632   5.438
 9556TIP3    H228626   6.139   3.717   5.369
 9557TIP3   OH228627   0.909   5.187   5.350
 9557TIP3    H128628   0.921   5.212   5.258
 9557TIP3    H228629   0.995   5.157   5.379
 9558TIP3   OH228630   0.052   2.868   0.289
 9558TIP3    H128631   0.131   2.823   0.317
 9558TIP3    H228632  -0.005   2.799   0.256
 9559TIP3   OH228633   3.317   4.813   1.268
 9559TIP3    H128634   3.226   4.796   1.292
 9559TIP3    H228635   3.354   4.856   1.345
 9560TIP3   OH228636   1.652   0.232   4.032
 9560TIP3    H128637   1.690   0.314   4.001
 9560TIP3    H228638   1.711   0.203   4.101
 9561TIP3   OH228639   7.298   3.644   1.228
 9561TIP3    H128640   7.367   3.678   1.284
 9561TIP3    H228641   7.292   3.551   1.251
 9562TIP3   OH228642   1.803   0.243   3.296
 9562TIP3    H128643   1.745   0.260   3.370
 9562TIP3    H228644   1.829   0.330   3.266
 9563TIP3   OH228645   5.147   6.356   1.278
 9563TIP3    H128646   5.132   6.269   1.314
 9563TIP3    H228647   5.226   6.346   1.224
 9564TIP3   OH228648   6.576   1.057   1.129
 9564TIP3    H128649   6.645   1.102   1.177
 9564TIP3    H228650   6.619   0.981   1.091
 9565TIP3   OH228651   4.167   4.728   3.307
 9565TIP3    H128652   4.086   4.767   3.273
 9565TIP3    H228653   4.221   4.803   3.330
 9566TIP3   OH228654   3.339   4.108   3.325
 9566TIP3    H128655   3.255   4.072   3.353
 9566TIP3    H228656   3.342   4.090   3.231
 9567TIP3   OH228657   0.194   1.555   3.555
 9567TIP3    H128658   0.109   1.598   3.548
 9567TIP3    H228659   0.180   1.484   3.617
 9568TIP3   OH228660   8.268   2.207   3.950
 9568TIP3    H128661   8.205   2.268   3.912
 9568TIP3    H228662   8.251   2.124   3.905
 9569TIP3   OH228663   0.139   2.223   6.347
 9569TIP3    H128664   0.137   2.319   6.346
 9569TIP3    H228665   0.187   2.202   6.428
 9570TIP3   OH228666   5.349   6.525   0.655
 9570TIP3    H128667   5.398   6.490   0.580
 9570TIP3    H228668   5.270   6.562   0.615
 9571TIP3   OH228669   2.021   3.670   5.771
 9571TIP3    H128670   2.033   3.669   5.676
 9571TIP3    H228671   2.101   3.708   5.806
 9572TIP3   OH228672   2.734   4.941   1.848
 9572TIP3    H128673   2.741   4.852   1.884
 9572TIP3    H228674   2.768   4.997   1.917
 9573TIP3   OH228675   0.693   2.778   1.644
 9573TIP3    H128676   0.679   2.863   1.604
 9573TIP3    H228677   0.606   2.739   1.651
 9574TIP3   OH228678   7.031   1.225   1.578
 9574TIP3    H128679   6.936   1.230   1.590
 9574TIP3    H228680   7.065   1.298   1.629
 9575TIP3   OH228681   7.236   0.831   3.811
 9575TIP3    H128682   7.316   0.808   3.763
 9575TIP3    H228683   7.191   0.894   3.755
 9576TIP3   OH228684   0.900   1.515   5.625
 9576TIP3    H128685   0.946   1.562   5.694
 9576TIP3    H228686   0.816   1.560   5.615
 9577TIP3   OH228687   6.233   2.405   2.797
 9577TIP3    H128688   6.215   2.312   2.784
 9577TIP3    H228689   6.284   2.430   2.720
 9578TIP3   OH228690   3.703   5.100   5.860
 9578TIP3    H128691   3.613   5.117   5.832
 9578TIP3    H228692   3.755   5.104   5.780
 9579TIP3   OH228693   6.044   3.228   1.348
 9579TIP3    H128694   6.043   3.200   1.439
 9579TIP3    H228695   6.044   3.146   1.298
 9580TIP3   OH228696   3.055   7.680   1.519
 9580TIP3    H128697   3.140   7.662   1.559
 9580TIP3    H228698   3.033   7.600   1.471
 9581TIP3   OH228699   2.298   7.326   3.244
 9581TIP3    H128700   2.390   7.324   3.216
 9581TIP3    H228701   2.258   7.251   3.201
 9582TIP3   OH228702   4.488   5.072   3.546
 9582TIP3    H128703   4.437   5.153   3.553
 9582TIP3    H228704   4.552   5.090   3.477
 9583TIP3   OH228705   2.947   4.127   2.893
 9583TIP3    H128706   3.010   4.167   2.953
 9583TIP3    H228707   2.931   4.040   2.930
 9584TIP3   OH228708   1.509   7.837   6.749
 9584TIP3    H128709   1.474   7.759   6.706
 9584TIP3    H228710   1.477   7.830   6.839
 9585TIP3   OH228711   2.943   6.478   2.041
 9585TIP3    H128712   2.854   6.475   2.005
 9585TIP3    H228713   2.931   6.505   2.132
 9586TIP3   OH228714   2.771   0.781   0.588
 9586TIP3    H128715   2.845   0.734   0.626
 9586TIP3    H228716   2.783   0.771   0.493
 9587TIP3   OH228717   0.583   5.444   1.972
 9587TIP3    H128718   0.672   5.410   1.963
 9587TIP3    H228719   0.564   5.486   1.888
 9588TIP3   OH228720   6.690   5.221   1.764
 9588TIP3    H128721   6.686   5.226   1.860
 9588TIP3    H228722   6.621   5.280   1.734
 9589TIP3   OH228723   1.004   0.541   0.833
 9589TIP3    H128724   0.950   0.479   0.882
 9589TIP3    H228725   1.062   0.579   0.898
 9590TIP3   OH228726   3.642   3.946   5.902
 9590TIP3    H128727   3.716   3.995   5.866
 9590TIP3    H228728   3.593   3.916   5.826
 9591TIP3   OH228729   3.843   7.184   0.243
 9591TIP3    H128730   3.877   7.149   0.160
 9591TIP3    H228731   3.900   7.147   0.310
 9592TIP3   OH228732   5.136   5.951   5.809
 9592TIP3    H128733   5.219   5.994   5.832
 9592TIP3    H228734   5.130   5.878   5.870
 9593TIP3   OH228735   6.382   7.053   3.855
 9593TIP3    H128736   6.323   7.028   3.926
 9593TIP3    H228737   6.462   7.005   3.872
 9594TIP3   OH228738   1.331   2.136   4.168
 9594TIP3    H128739   1.421   2.112   4.189
 9594TIP3    H228740   1.317   2.219   4.215
 9595TIP3   OH228741   3.749   5.850   4.301
 9595TIP3    H128742   3.659   5.877   4.280
 9595TIP3    H228743   3.775   5.908   4.373
 9596TIP3   OH228744   2.491   0.664   5.552
 9596TIP3    H128745   2.538   0.592   5.510
 9596TIP3    H228746   2.560   0.715   5.595
 9597TIP3   OH228747   6.042   6.948   4.398
 9597TIP3    H128748   5.975   6.883   4.378
 9597TIP3    H228749   6.033   6.965   4.492
 9598TIP3   OH228750   0.485   2.024   0.539
 9598TIP3    H128751   0.458   1.994   0.626
 9598TIP3    H228752   0.530   1.948   0.501
 9599TIP3   OH228753   3.898   2.833   4.104
 9599TIP3    H128754   3.987   2.863   4.116
 9599TIP3    H228755   3.872   2.798   4.189
 9600TIP3   OH228756   0.284   6.162   3.465
 9600TIP3    H128757   0.192   6.180   3.482
 9600TIP3    H228758   0.332   6.223   3.521
 9601TIP3   OH228759   3.527   3.879   3.855
 9601TIP3    H128760   3.478   3.955   3.886
 9601TIP3    H228761   3.501   3.869   3.763
 9602TIP3   OH228762   3.992   4.559   0.450
 9602TIP3    H128763   3.967   4.625   0.385
 9602TIP3    H228764   3.949   4.588   0.531
 9603TIP3   OH228765   0.075   5.403   4.080
 9603TIP3    H128766   0.042   5.486   4.047
 9603TIP3    H228767   0.170   5.416   4.089
 9604TIP3   OH228768   6.066   4.321   2.692
 9604TIP3    H128769   6.098   4.385   2.755
 9604TIP3    H228770   5.984   4.359   2.658
 9605TIP3   OH228771   5.895   0.930   4.192
 9605TIP3    H128772   5.846   0.849   4.208
 9605TIP3    H228773   5.937   0.915   4.107
 9606TIP3   OH228774   5.057   3.241   0.225
 9606TIP3    H128775   5.109   3.255   0.304
 9606TIP3    H228776   5.060   3.147   0.211
 9607TIP3   OH228777   7.424   4.323   3.971
 9607TIP3    H128778   7.407   4.229   3.969
 9607TIP3    H228779   7.512   4.330   4.009
 9608TIP3   OH228780   7.160   2.099   5.992
 9608TIP3    H128781   7.219   2.024   5.984
 9608TIP3    H228782   7.077   2.068   5.954
 9609TIP3   OH228783   6.569   5.135   4.342
 9609TIP3    H128784   6.631   5.068   4.372
 9609TIP3    H228785   6.512   5.149   4.418
 9610TIP3   OH228786   0.547   1.629   1.645
 9610TIP3    H128787   0.504   1.544   1.647
 9610TIP3    H228788   0.612   1.624   1.715
 9611TIP3   OH228789   0.134   2.469   0.310
 9611TIP3    H128790   0.141   2.430   0.223
 9611TIP3    H228791   0.113   2.396   0.368
 9612TIP3   OH228792   2.976   5.589   0.380
 9612TIP3    H128793   2.889   5.601   0.419
 9612TIP3    H228794   3.031   5.652   0.425
 9613TIP3   OH228795   7.616   4.890   0.417
 9613TIP3    H128796   7.557   4.955   0.455
 9613TIP3    H228797   7.558   4.820   0.387
 9614TIP3   OH228798   8.289   6.528   6.492
 9614TIP3    H128799   8.243   6.469   6.432
 9614TIP3    H228800   8.233   6.606   6.496
 9615TIP3   OH228801   3.378   0.827   0.465
 9615TIP3    H128802   3.404   0.737   0.447
 9615TIP3    H228803   3.435   0.854   0.537
 9616TIP3   OH228804   7.618   2.587   2.757
 9616TIP3    H128805   7.654   2.669   2.792
 9616TIP3    H228806   7.542   2.569   2.811
 9617TIP3   OH228807   6.066   7.445   4.054
 9617TIP3    H128808   6.056   7.537   4.079
 9617TIP3    H228809   5.983   7.423   4.011
 9618TIP3   OH228810   1.015   5.000   1.015
 9618TIP3    H128811   0.967   4.927   0.975
 9618TIP3    H228812   1.098   5.003   0.969
 9619TIP3   OH228813   7.327   0.151   4.734
 9619TIP3    H128814   7.270   0.219   4.698
 9619TIP3    H228815   7.372   0.193   4.807
 9620TIP3   OH228816   0.097   5.439   5.102
 9620TIP3    H128817   0.119   5.472   5.189
 9620TIP3    H228818   0.022   5.492   5.074
 9621TIP3   OH228819   7.817   2.689   0.764
 9621TIP3    H128820   7.744   2.643   0.723
 9621TIP3    H228821   7.865   2.621   0.811
 9622TIP3   OH228822   0.669   0.449   2.463
 9622TIP3    H128823   0.748   0.479   2.508
 9622TIP3    H228824   0.669   0.354   2.476
 9623TIP3   OH228825   2.937   7.582   4.327
 9623TIP3    H128826   2.992   7.504   4.328
 9623TIP3    H228827   2.952   7.621   4.241
 9624TIP3   OH228828   3.871   0.964   0.873
 9624TIP3    H128829   3.846   0.941   0.962
 9624TIP3    H228830   3.932   1.037   0.883
 9625TIP3   OH228831   0.410   3.677   2.194
 9625TIP3    H128832   0.329   3.671   2.144
 9625TIP3    H228833   0.463   3.742   2.148
 9626TIP3   OH228834   2.262   3.007   4.563
 9626TIP3    H128835   2.285   3.001   4.656
 9626TIP3    H228836   2.338   3.048   4.522
 9627TIP3   OH228837   1.965   1.475   2.947
 9627TIP3    H128838   1.896   1.415   2.976
 9627TIP3    H228839   2.002   1.433   2.870
 9628TIP3   OH228840   7.174   5.033   1.017
 9628TIP3    H128841   7.083   5.061   1.021
 9628TIP3    H228842   7.196   5.008   1.107
 9629TIP3   OH228843   6.466   2.243   1.765
 9629TIP3    H128844   6.555   2.278   1.753
 9629TIP3    H228845   6.430   2.292   1.839
 9630TIP3   OH228846   7.761   0.415   4.027
 9630TIP3    H128847   7.673   0.396   3.995
 9630TIP3    H228848   7.748   0.482   4.095
 9631TIP3   OH228849   5.059   0.990   0.546
 9631TIP3    H128850   5.060   1.017   0.454
 9631TIP3    H228851   5.144   0.950   0.561
 9632TIP3   OH228852   0.895   2.919   4.289
 9632TIP3    H128853   0.891   2.974   4.211
 9632TIP3    H228854   0.941   2.840   4.261
 9633TIP3   OH228855   1.553   5.120   5.210
 9633TIP3    H128856   1.638   5.130   5.167
 9633TIP3    H228857   1.521   5.210   5.221
 9634TIP3   OH228858   2.592   0.803   2.546
 9634TIP3    H128859   2.579   0.709   2.554
 9634TIP3    H228860   2.624   0.815   2.456
 9635TIP3   OH228861   6.782   0.478   0.683
 9635TIP3    H128862   6.867   0.446   0.652
 9635TIP3    H228863   6.798   0.510   0.771
 9636TIP3   OH228864   3.318   5.741   3.444
 9636TIP3    H128865   3.252   5.774   3.505
 9636TIP3    H228866   3.393   5.800   3.455
 9637TIP3   OH228867   3.414   4.530   5.909
 9637TIP3    H128868   3.471   4.465   5.950
 9637TIP3    H228869   3.457   4.551   5.826
 9638TIP3   OH228870   5.722   1.218   2.767
 9638TIP3    H128871   5.634   1.211   2.730
 9638TIP3    H228872   5.757   1.129   2.763
 9639TIP3   OH228873   7.639   3.728   0.250
 9639TIP3    H128874   7.597   3.814   0.246
 9639TIP3    H228875   7.618   3.696   0.338
 9640TIP3   OH228876   1.244  -0.033   1.955
 9640TIP3    H128877   1.325  -0.001   1.915
 9640TIP3    H228878   1.206   0.044   1.998
 9641TIP3   OH228879   6.672   4.013   1.557
 9641TIP3    H128880   6.638   3.997   1.645
 9641TIP3    H228881   6.703   3.927   1.527
 9642TIP3   OH228882   5.122   3.417   0.444
 9642TIP3    H128883   5.090   3.437   0.356
 9642TIP3    H228884   5.110   3.499   0.492
 9643TIP3   OH228885   2.599   7.471   3.703
 9643TIP3    H128886   2.658   7.400   3.728
 9643TIP3    H228887   2.564   7.503   3.786
 9644TIP3   OH228888   2.198   5.767   1.000
 9644TIP3    H128889   2.236   5.776   0.913
 9644TIP3    H228890   2.218   5.677   1.025
 9645TIP3   OH228891   7.114   3.074   1.206
 9645TIP3    H128892   7.049   3.144   1.200
 9645TIP3    H228893   7.093   3.016   1.133
 9646TIP3   OH228894   4.267   0.667   1.276
 9646TIP3    H128895   4.249   0.741   1.334
 9646TIP3    H228896   4.256   0.702   1.188
 9647TIP3   OH228897   5.308   0.092   4.663
 9647TIP3    H128898   5.238   0.027   4.662
 9647TIP3    H228899   5.382   0.048   4.705
 9648TIP3   OH228900   8.033   4.977   2.227
 9648TIP3    H128901   7.984   4.899   2.203
 9648TIP3    H228902   8.086   4.951   2.302
 9649TIP3   OH228903   1.849   1.700   5.704
 9649TIP3    H128904   1.908   1.627   5.688
 9649TIP3    H228905   1.857   1.718   5.798
 9650TIP3   OH228906   0.233   4.874   5.737
 9650TIP3    H128907   0.224   4.781   5.759
 9650TIP3    H228908   0.257   4.874   5.644
 9651TIP3   OH228909   7.189   0.558   2.475
 9651TIP3    H128910   7.249   0.599   2.414
 9651TIP3    H228911   7.206   0.464   2.467
 9652TIP3   OH228912   5.726   6.942   6.598
 9652TIP3    H128913   5.805   6.974   6.554
 9652TIP3    H228914   5.758   6.876   6.659
 9653TIP3   OH228915   6.713   5.997   4.227
 9653TIP3    H128916   6.800   6.032   4.247
 9653TIP3    H228917   6.675   6.060   4.167
 9654TIP3   OH228918   2.244   1.993   3.703
 9654TIP3    H128919   2.243   2.010   3.797
 9654TIP3    H228920   2.165   1.942   3.686
 9655TIP3   OH228921   6.566   1.830   3.613
 9655TIP3    H128922   6.606   1.761   3.560
 9655TIP3    H228923   6.639   1.864   3.666
 9656TIP3   OH228924   5.799   6.038   3.549
 9656TIP3    H128925   5.888   6.031   3.514
 9656TIP3    H228926   5.785   5.956   3.596
 9657TIP3   OH228927   3.014   4.244   4.263
 9657TIP3    H128928   2.949   4.274   4.200
 9657TIP3    H228929   2.987   4.155   4.285
 9658TIP3   OH228930   1.375   0.973   2.794
 9658TIP3    H128931   1.314   0.900   2.793
 9658TIP3    H228932   1.320   1.051   2.799
 9659TIP3   OH228933   6.196   3.887   0.108
 9659TIP3    H128934   6.251   3.808   0.108
 9659TIP3    H228935   6.130   3.870   0.176
 9660TIP3   OH228936   7.029   2.569   4.667
 9660TIP3    H128937   7.081   2.506   4.617
 9660TIP3    H228938   6.940   2.558   4.633
 9661TIP3   OH228939   8.096   7.823   4.165
 9661TIP3    H128940   8.185   7.789   4.177
 9661TIP3    H228941   8.051   7.754   4.116
 9662TIP3   OH228942   6.013   0.339   1.367
 9662TIP3    H128943   5.945   0.402   1.391
 9662TIP3    H228944   5.983   0.256   1.402
 9663TIP3   OH228945   0.200   5.535   2.729
 9663TIP3    H128946   0.138   5.471   2.695
 9663TIP3    H228947   0.284   5.488   2.733
 9664TIP3   OH228948   2.582   1.473   6.618
 9664TIP3    H128949   2.569   1.461   6.712
 9664TIP3    H228950   2.675   1.457   6.605
 9665TIP3   OH228951   0.756   3.316   0.945
 9665TIP3    H128952   0.664   3.312   0.918
 9665TIP3    H228953   0.805   3.316   0.863
 9666TIP3   OH228954   7.537   7.776   0.127
 9666TIP3    H128955   7.498   7.688   0.123
 9666TIP3    H228956   7.617   7.765   0.177
 9667TIP3   OH228957   3.031   3.326   3.649
 9667TIP3    H128958   2.936   3.321   3.637
 9667TIP3    H228959   3.046   3.295   3.738
 9668TIP3   OH228960   8.153   1.173   6.069
 9668TIP3    H128961   8.239   1.145   6.101
 9668TIP3    H228962   8.165   1.186   5.975
 9669TIP3   OH228963   8.159   5.821   3.223
 9669TIP3    H128964   8.217   5.890   3.192
 9669TIP3    H228965   8.108   5.796   3.146
 9670TIP3   OH228966   5.815   6.111   6.112
 9670TIP3    H128967   5.751   6.165   6.067
 9670TIP3    H228968   5.838   6.043   6.048
 9671TIP3   OH228969   6.921   6.931   5.421
 9671TIP3    H128970   6.937   7.025   5.422
 9671TIP3    H228971   6.910   6.907   5.513
 9672TIP3   OH228972   6.236   5.001   0.351
 9672TIP3    H128973   6.193   4.936   0.406
 9672TIP3    H228974   6.284   5.057   0.413
 9673TIP3   OH228975   5.117   1.913   5.475
 9673TIP3    H128976   5.205   1.936   5.443
 9673TIP3    H228977   5.125   1.915   5.570
 9674TIP3   OH228978   6.151   7.330   4.328
 9674TIP3    H128979   6.086   7.372   4.385
 9674TIP3    H228980   6.148   7.381   4.248
 9675TIP3   OH228981   5.514   2.561   4.094
 9675TIP3    H128982   5.581   2.629   4.097
 9675TIP3    H228983   5.541   2.497   4.160
 9676TIP3   OH228984   0.864   3.732   1.528
 9676TIP3    H128985   0.909   3.658   1.486
 9676TIP3    H228986   0.777   3.733   1.488
 9677TIP3   OH228987   7.138   5.643   0.543
 9677TIP3    H128988   7.156   5.660   0.635
 9677TIP3    H228989   7.171   5.719   0.496
 9678TIP3   OH228990   7.724   5.352   4.542
 9678TIP3    H128991   7.673   5.369   4.463
 9678TIP3    H228992   7.685   5.408   4.609
 9679TIP3   OH228993   0.151   4.709   6.074
 9679TIP3    H128994   0.212   4.783   6.062
 9679TIP3    H228995   0.159   4.687   6.167
 9680TIP3   OH228996   4.868   4.068   1.891
 9680TIP3    H128997   4.817   4.008   1.945
 9680TIP3    H228998   4.828   4.154   1.906
 9681TIP3   OH228999   7.811   7.031   0.334
 9681TIP3    H129000   7.851   7.076   0.260
 9681TIP3    H229001   7.777   7.101   0.389
 9682TIP3   OH229002   0.408   1.387   1.584
 9682TIP3    H129003   0.367   1.356   1.503
 9682TIP3    H229004   0.476   1.323   1.602
 9683TIP3   OH229005   5.531   6.748   6.421
 9683TIP3    H129006   5.468   6.785   6.359
 9683TIP3    H229007   5.579   6.824   6.455
 9684TIP3   OH229008   3.547   2.125   3.955
 9684TIP3    H129009   3.513   2.214   3.966
 9684TIP3    H229010   3.642   2.134   3.964
 9685TIP3   OH229011   0.733   4.190   5.201
 9685TIP3    H129012   0.806   4.135   5.174
 9685TIP3    H229013   0.727   4.177   5.295
 9686TIP3   OH229014   5.592   6.940   0.135
 9686TIP3    H129015   5.588   7.023   0.183
 9686TIP3    H229016   5.600   6.966   0.043
 9687TIP3   OH229017   4.196   2.624   2.676
 9687TIP3    H129018   4.246   2.698   2.709
 9687TIP3    H229019   4.231   2.548   2.723
 9688TIP3   OH229020   3.387   2.972   1.375
 9688TIP3    H129021   3.345   2.934   1.451
 9688TIP3    H229022   3.464   2.917   1.360
 9689TIP3   OH229023   4.810   7.259   2.452
 9689TIP3    H129024   4.812   7.254   2.356
 9689TIP3    H229025   4.719   7.279   2.473
 9690TIP3   OH229026   1.973   1.738   1.632
 9690TIP3    H129027   2.047   1.707   1.580
 9690TIP3    H229028   1.914   1.778   1.569
 9691TIP3   OH229029   7.487   5.793   1.244
 9691TIP3    H129030   7.490   5.884   1.273
 9691TIP3    H229031   7.442   5.797   1.159
 9692TIP3   OH229032   0.626   7.267   3.900
 9692TIP3    H129033   0.613   7.197   3.963
 9692TIP3    H229034   0.721   7.275   3.892
 9693TIP3   OH229035   6.292   1.936   1.307
 9693TIP3    H129036   6.346   2.006   1.270
 9693TIP3    H229037   6.323   1.927   1.397
 9694TIP3   OH229038   4.818   4.747   1.116
 9694TIP3    H129039   4.896   4.758   1.061
 9694TIP3    H229040   4.746   4.737   1.053
 9695TIP3   OH229041   2.471   1.384   2.894
 9695TIP3    H129042   2.509   1.452   2.838
 9695TIP3    H229043   2.383   1.416   2.915
 9696TIP3   OH229044   2.933   4.643   5.436
 9696TIP3    H129045   2.905   4.589   5.362
 9696TIP3    H229046   2.852   4.670   5.478
 9697TIP3   OH229047   5.086   7.176   3.520
 9697TIP3    H129048   5.102   7.211   3.433
 9697TIP3    H229049   5.161   7.120   3.538
 9698TIP3   OH229050   3.950   0.281   1.911
 9698TIP3    H129051   3.921   0.236   1.831
 9698TIP3    H229052   4.040   0.308   1.892
 9699TIP3   OH229053   8.156   4.157   5.411
 9699TIP3    H129054   8.137   4.063   5.420
 9699TIP3    H229055   8.204   4.179   5.491
 9700TIP3   OH229056   7.986   1.560   0.285
 9700TIP3    H129057   7.918   1.584   0.222
 9700TIP3    H229058   8.057   1.525   0.231
 9701TIP3   OH229059   3.972   1.430   1.871
 9701TIP3    H129060   4.006   1.519   1.857
 9701TIP3    H229061   4.005   1.405   1.957
 9702TIP3   OH229062   8.268   2.765   1.625
 9702TIP3    H129063   8.215   2.688   1.644
 9702TIP3    H229064   8.204   2.835   1.612
 9703TIP3   OH229065   3.703   4.524   2.296
 9703TIP3    H129066   3.629   4.481   2.253
 9703TIP3    H229067   3.720   4.470   2.374
 9704TIP3   OH229068   7.224   2.847   0.489
 9704TIP3    H129069   7.155   2.813   0.547
 9704TIP3    H229070   7.305   2.809   0.524
 9705TIP3   OH229071   8.280   1.604   6.023
 9705TIP3    H129072   8.320   1.674   6.074
 9705TIP3    H229073   8.187   1.607   6.046
 9706TIP3   OH229074   6.022   3.446   0.185
 9706TIP3    H129075   6.027   3.490   0.100
 9706TIP3    H229076   6.110   3.450   0.220
 9707TIP3   OH229077   7.633   3.746   0.672
 9707TIP3    H129078   7.553   3.760   0.623
 9707TIP3    H229079   7.680   3.678   0.622
 9708TIP3   OH229080   2.120   5.717   0.303
 9708TIP3    H129081   2.040   5.746   0.347
 9708TIP3    H229082   2.149   5.794   0.254
 9709TIP3   OH229083   0.617   1.803   0.452
 9709TIP3    H129084   0.657   1.723   0.418
 9709TIP3    H229085   0.677   1.832   0.521
 9710TIP3   OH229086   0.870   5.704   0.922
 9710TIP3    H129087   0.846   5.795   0.938
 9710TIP3    H229088   0.798   5.653   0.958
 9711TIP3   OH229089   4.151   2.363   5.439
 9711TIP3    H129090   4.150   2.409   5.523
 9711TIP3    H229091   4.058   2.355   5.415
 9712TIP3   OH229092   6.303   3.712   3.702
 9712TIP3    H129093   6.239   3.683   3.767
 9712TIP3    H229094   6.376   3.746   3.753
 9713TIP3   OH229095   6.867   1.805   0.203
 9713TIP3    H129096   6.935   1.829   0.266
 9713TIP3    H229097   6.831   1.723   0.237
 9714TIP3   OH229098   4.952   2.007   1.844
 9714TIP3    H129099   4.908   2.019   1.759
 9714TIP3    H229100   4.938   1.915   1.865
 9715TIP3   OH229101   4.239   2.216   1.768
 9715TIP3    H129102   4.265   2.136   1.814
 9715TIP3    H229103   4.232   2.189   1.676
 9716TIP3   OH229104   1.304   2.224   2.058
 9716TIP3    H129105   1.313   2.280   1.981
 9716TIP3    H229106   1.246   2.153   2.030
 9717TIP3   OH229107   8.247   0.152   3.005
 9717TIP3    H129108   8.239   0.153   2.910
 9717TIP3    H229109   8.233   0.061   3.030
 9718TIP3   OH229110   1.492   5.505   6.193
 9718TIP3    H129111   1.487   5.548   6.279
 9718TIP3    H229112   1.586   5.502   6.173
 9719TIP3   OH229113   0.222   4.448   5.921
 9719TIP3    H129114   0.221   4.454   5.826
 9719TIP3    H229115   0.217   4.539   5.951
 9720TIP3   OH229116   5.106   5.962   1.752
 9720TIP3    H129117   5.044   5.913   1.806
 9720TIP3    H229118   5.190   5.951   1.796
 9721TIP3   OH229119   6.672   5.055   1.127
 9721TIP3    H129120   6.595   5.003   1.148
 9721TIP3    H229121   6.655   5.088   1.039
 9722TIP3   OH229122   3.155   1.643   0.361
 9722TIP3    H129123   3.069   1.601   0.372
 9722TIP3    H229124   3.212   1.597   0.422
 9723TIP3   OH229125   1.101   1.017   5.343
 9723TIP3    H129126   1.133   0.987   5.428
 9723TIP3    H229127   1.038   1.086   5.364
 9724TIP3   OH229128   1.242   4.781   5.951
 9724TIP3    H129129   1.251   4.788   5.856
 9724TIP3    H229130   1.278   4.695   5.972
 9725TIP3   OH229131   1.900   6.370   5.720
 9725TIP3    H129132   1.888   6.361   5.625
 9725TIP3    H229133   1.970   6.309   5.742
 9726TIP3   OH229134   5.721   3.835   2.871
 9726TIP3    H129135   5.686   3.754   2.909
 9726TIP3    H229136   5.707   3.825   2.777
 9727TIP3   OH229137   2.288   6.036   4.685
 9727TIP3    H129138   2.224   6.105   4.704
 9727TIP3    H229139   2.245   5.981   4.620
 9728TIP3   OH229140   6.930   1.204   2.365
 9728TIP3    H129141   6.900   1.121   2.403
 9728TIP3    H229142   6.853   1.239   2.321
 9729TIP3   OH229143   1.034   2.347   4.749
 9729TIP3    H129144   1.066   2.257   4.752
 9729TIP3    H229145   1.099   2.398   4.797
 9730TIP3   OH229146   2.202   3.979   0.292
 9730TIP3    H129147   2.205   3.994   0.387
 9730TIP3    H229148   2.202   4.067   0.254
 9731TIP3   OH229149   4.340   5.821   2.990
 9731TIP3    H129150   4.333   5.913   3.016
 9731TIP3    H229151   4.429   5.796   3.017
 9732TIP3   OH229152   1.606   3.689   4.197
 9732TIP3    H129153   1.622   3.778   4.166
 9732TIP3    H229154   1.515   3.672   4.173
 9733TIP3   OH229155   0.892   1.225   2.952
 9733TIP3    H129156   0.968   1.279   2.931
 9733TIP3    H229157   0.894   1.216   3.047
 9734TIP3   OH229158   6.741   1.307   2.553
 9734TIP3    H129159   6.828   1.276   2.580
 9734TIP3    H229160   6.757   1.396   2.519
 9735TIP3   OH229161   0.274   3.507   5.291
 9735TIP3    H129162   0.313   3.467   5.213
 9735TIP3    H229163   0.211   3.570   5.257
 9736TIP3   OH229164   1.000   2.431   3.205
 9736TIP3    H129165   1.024   2.477   3.125
 9736TIP3    H229166   1.082   2.423   3.254
 9737TIP3   OH229167   4.719   0.123   0.430
 9737TIP3    H129168   4.717   0.160   0.518
 9737TIP3    H229169   4.807   0.144   0.397
 9738TIP3   OH229170   7.243   2.403   3.875
 9738TIP3    H129171   7.298   2.335   3.916
 9738TIP3    H229172   7.173   2.417   3.938
 9739TIP3   OH229173   1.396   7.618   4.448
 9739TIP3    H129174   1.353   7.703   4.435
 9739TIP3    H229175   1.355   7.583   4.528
 9740TIP3   OH229176   1.023   5.554   5.636
 9740TIP3    H129177   1.015   5.584   5.727
 9740TIP3    H229178   0.968   5.476   5.632
 9741TIP3   OH229179   6.876   3.708   5.787
 9741TIP3    H129180   6.862   3.709   5.882
 9741TIP3    H229181   6.912   3.794   5.767
 9742TIP3   OH229182   0.972   6.553   2.894
 9742TIP3    H129183   0.887   6.535   2.854
 9742TIP3    H229184   0.987   6.480   2.954
 9743TIP3   OH229185   1.048   7.664   4.297
 9743TIP3    H129186   0.997   7.626   4.368
 9743TIP3    H229187   1.058   7.756   4.321
 9744TIP3   OH229188   5.550   5.306   3.568
 9744TIP3    H129189   5.471   5.337   3.612
 9744TIP3    H229190   5.557   5.361   3.490
 9745TIP3   OH229191   1.892   0.309   6.309
 9745TIP3    H129192   1.847   0.394   6.317
 9745TIP3    H229193   1.955   0.323   6.239
 9746TIP3   OH229194   3.896   2.228   2.122
 9746TIP3    H129195   3.882   2.137   2.150
 9746TIP3    H229196   3.986   2.229   2.088
 9747TIP3   OH229197   2.123   0.911   0.345
 9747TIP3    H129198   2.052   0.849   0.326
 9747TIP3    H229199   2.079   0.996   0.355
 9748TIP3   OH229200   0.155   0.351   3.379
 9748TIP3    H129201   0.117   0.349   3.466
 9748TIP3    H229202   0.179   0.260   3.361
 9749TIP3   OH229203   6.476   1.620   0.089
 9749TIP3    H129204   6.403   1.558   0.091
 9749TIP3    H229205   6.445   1.695   0.140
 9750TIP3   OH229206   0.698   2.449   2.471
 9750TIP3    H129207   0.777   2.401   2.447
 9750TIP3    H229208   0.639   2.437   2.396
 9751TIP3   OH229209   3.114   1.215   5.376
 9751TIP3    H129210   3.152   1.303   5.378
 9751TIP3    H229211   3.128   1.185   5.287
 9752TIP3   OH229212   3.472   3.240   1.269
 9752TIP3    H129213   3.470   3.159   1.321
 9752TIP3    H229214   3.461   3.211   1.179
 9753TIP3   OH229215   0.213   1.991   5.844
 9753TIP3    H129216   0.153   2.065   5.855
 9753TIP3    H229217   0.194   1.933   5.918
 9754TIP3   OH229218   3.280   7.700   1.707
 9754TIP3    H129219   3.369   7.667   1.719
 9754TIP3    H229220   3.259   7.745   1.789
 9755TIP3   OH229221   7.771   0.700   1.416
 9755TIP3    H129222   7.782   0.780   1.468
 9755TIP3    H229223   7.807   0.722   1.330
 9756TIP3   OH229224   3.651   6.242   6.518
 9756TIP3    H129225   3.613   6.253   6.430
 9756TIP3    H229226   3.575   6.228   6.574
 9757TIP3   OH229227   8.158   6.753   0.565
 9757TIP3    H129228   8.142   6.691   0.636
 9757TIP3    H229229   8.100   6.826   0.583
 9758TIP3   OH229230   0.516   4.489   5.554
 9758TIP3    H129231   0.423   4.479   5.534
 9758TIP3    H229232   0.551   4.540   5.481
 9759TIP3   OH229233   1.728   7.626   0.038
 9759TIP3    H129234   1.751   7.585   0.121
 9759TIP3    H229235   1.632   7.617   0.033
 9760TIP3   OH229236   5.539   4.939   0.624
 9760TIP3    H129237   5.547   5.002   0.696
 9760TIP3    H229238   5.470   4.878   0.653
 9761TIP3   OH229239   7.119   7.519   4.797
 9761TIP3    H129240   7.110   7.595   4.738
 9761TIP3    H229241   7.194   7.539   4.851
 9762TIP3   OH229242   1.169   5.458   2.195
 9762TIP3    H129243   1.176   5.461   2.291
 9762TIP3    H229244   1.174   5.364   2.174
 9763TIP3   OH229245   0.390   4.711   3.557
 9763TIP3    H129246   0.406   4.781   3.494
 9763TIP3    H229247   0.356   4.638   3.504
 9764TIP3   OH229248   0.196   4.789   0.651
 9764TIP3    H129249   0.219   4.717   0.591
 9764TIP3    H229250   0.209   4.868   0.599
 9765TIP3   OH229251   4.504   4.521   1.627
 9765TIP3    H129252   4.469   4.513   1.539
 9765TIP3    H229253   4.427   4.537   1.682
 9766TIP3   OH229254   3.592   6.105   3.981
 9766TIP3    H129255   3.555   6.095   4.069
 9766TIP3    H229256   3.675   6.056   3.984
 9767TIP3   OH229257   4.286   6.029   0.304
 9767TIP3    H129258   4.242   6.101   0.259
 9767TIP3    H229259   4.376   6.059   0.316
 9768TIP3   OH229260   0.910   7.737   5.979
 9768TIP3    H129261   0.987   7.783   5.944
 9768TIP3    H229262   0.898   7.662   5.920
 9769TIP3   OH229263   5.495   6.793   0.371
 9769TIP3    H129264   5.410   6.804   0.328
 9769TIP3    H229265   5.559   6.816   0.304
 9770TIP3   OH229266   7.364   4.898   5.340
 9770TIP3    H129267   7.442   4.844   5.354
 9770TIP3    H229268   7.352   4.899   5.245
 9771TIP3   OH229269   3.874   1.042   5.810
 9771TIP3    H129270   3.951   1.011   5.857
 9771TIP3    H229271   3.832   1.103   5.871
 9772TIP3   OH229272   0.807   4.551   3.362
 9772TIP3    H129273   0.868   4.606   3.411
 9772TIP3    H229274   0.778   4.605   3.290
 9773TIP3   OH229275   4.059   4.994   3.404
 9773TIP3    H129276   4.098   5.071   3.364
 9773TIP3    H229277   4.062   5.011   3.498
 9774TIP3   OH229278   8.067   1.825   4.567
 9774TIP3    H129279   8.149   1.839   4.519
 9774TIP3    H229280   8.070   1.889   4.638
 9775TIP3   OH229281   0.815   6.686   0.255
 9775TIP3    H129282   0.856   6.767   0.223
 9775TIP3    H229283   0.729   6.713   0.286
 9776TIP3   OH229284   4.393   1.071   3.699
 9776TIP3    H129285   4.426   1.157   3.725
 9776TIP3    H229286   4.346   1.039   3.776
 9777TIP3   OH229287   0.094   0.067   6.595
 9777TIP3    H129288   0.030   0.090   6.529
 9777TIP3    H229289   0.050   0.084   6.678
 9778TIP3   OH229290   4.051   4.709   2.233
 9778TIP3    H129291   4.087   4.777   2.177
 9778TIP3    H229292   3.965   4.743   2.260
 9779TIP3   OH229293   0.716   7.192   3.289
 9779TIP3    H129294   0.629   7.181   3.252
 9779TIP3    H229295   0.700   7.235   3.374
 9780TIP3   OH229296   3.025   0.572   6.366
 9780TIP3    H129297   3.081   0.638   6.409
 9780TIP3    H229298   3.087   0.506   6.334
 9781TIP3   OH229299   3.595   2.839   1.245
 9781TIP3    H129300   3.589   2.865   1.153
 9781TIP3    H229301   3.537   2.763   1.252
 9782TIP3   OH229302   2.061   5.840   1.439
 9782TIP3    H129303   2.148   5.800   1.430
 9782TIP3    H229304   2.063   5.915   1.380
 9783TIP3   OH229305   2.213   0.507   4.248
 9783TIP3    H129306   2.181   0.557   4.322
 9783TIP3    H229307   2.278   0.447   4.285
 9784TIP3   OH229308   7.170   3.109   2.676
 9784TIP3    H129309   7.263   3.087   2.679
 9784TIP3    H229310   7.165   3.197   2.714
 9785TIP3   OH229311   7.254   3.856   1.952
 9785TIP3    H129312   7.290   3.792   2.014
 9785TIP3    H229313   7.160   3.837   1.950
 9786TIP3   OH229314   6.217   6.889   2.799
 9786TIP3    H129315   6.296   6.868   2.749
 9786TIP3    H229316   6.169   6.950   2.742
 9787TIP3   OH229317   6.366   2.160   1.142
 9787TIP3    H129318   6.272   2.168   1.123
 9787TIP3    H229319   6.392   2.247   1.170
 9788TIP3   OH229320   1.437   1.725   0.019
 9788TIP3    H129321   1.429   1.674   0.100
 9788TIP3    H229322   1.394   1.808   0.039
 9789TIP3   OH229323   5.268   0.311   5.787
 9789TIP3    H129324   5.257   0.404   5.767
 9789TIP3    H229325   5.181   0.282   5.815
 9790TIP3   OH229326   5.222   3.152   1.399
 9790TIP3    H129327   5.234   3.063   1.433
 9790TIP3    H229328   5.311   3.185   1.385
 9791TIP3   OH229329   7.830   1.409   2.163
 9791TIP3    H129330   7.920   1.424   2.190
 9791TIP3    H229331   7.805   1.488   2.116
 9792TIP3   OH229332   1.348   3.628   3.005
 9792TIP3    H129333   1.407   3.644   2.932
 9792TIP3    H229334   1.321   3.715   3.033
 9793TIP3   OH229335   7.810   3.326   1.160
 9793TIP3    H129336   7.761   3.352   1.238
 9793TIP3    H229337   7.816   3.406   1.108
 9794TIP3   OH229338   1.009   4.940   5.975
 9794TIP3    H129339   1.052   4.855   5.971
 9794TIP3    H229340   1.080   5.004   5.972
 9795TIP3   OH229341   8.023   7.476   1.156
 9795TIP3    H129342   8.032   7.571   1.160
 9795TIP3    H229343   7.936   7.458   1.193
 9796TIP3   OH229344   0.610   6.750   6.679
 9796TIP3    H129345   0.646   6.735   6.767
 9796TIP3    H229346   0.687   6.768   6.624
 9797TIP3   OH229347   1.974   7.003   5.184
 9797TIP3    H129348   2.033   6.928   5.179
 9797TIP3    H229349   1.927   6.991   5.267
 9798TIP3   OH229350   2.427   5.425   1.520
 9798TIP3    H129351   2.390   5.481   1.452
 9798TIP3    H229352   2.473   5.356   1.473
 9799TIP3   OH229353   5.581   6.548   0.003
 9799TIP3    H129354   5.629   6.488   0.060
 9799TIP3    H229355   5.637   6.625  -0.005
 9800TIP3   OH229356   1.882   3.040   1.406
 9800TIP3    H129357   1.916   3.096   1.336
 9800TIP3    H229358   1.952   2.978   1.424
 9801TIP3   OH229359   7.797   3.041   6.338
 9801TIP3    H129360   7.772   2.983   6.266
 9801TIP3    H229361   7.866   3.097   6.301
 9802TIP3   OH229362   0.357   7.257   3.486
 9802TIP3    H129363   0.297   7.276   3.415
 9802TIP3    H229364   0.423   7.327   3.481
 9803TIP3   OH229365   6.286   2.766   1.479
 9803TIP3    H129366   6.374   2.734   1.503
 9803TIP3    H229367   6.294   2.861   1.478
 9804TIP3   OH229368   3.565   0.451   0.919
 9804TIP3    H129369   3.492   0.509   0.938
 9804TIP3    H229370   3.586   0.410   1.003
 9805TIP3   OH229371   5.712   2.158   2.934
 9805TIP3    H129372   5.638   2.175   2.992
 9805TIP3    H229373   5.691   2.075   2.891
 9806TIP3   OH229374   2.643   2.243   3.772
 9806TIP3    H129375   2.666   2.152   3.754
 9806TIP3    H229376   2.590   2.270   3.697
 9807TIP3   OH229377   1.906   6.583   2.079
 9807TIP3    H129378   1.882   6.655   2.020
 9807TIP3    H229379   1.995   6.604   2.107
 9808TIP3   OH229380   6.593   5.860   5.784
 9808TIP3    H129381   6.652   5.818   5.847
 9808TIP3    H229382   6.619   5.952   5.786
 9809TIP3   OH229383   1.005   0.207   1.798
 9809TIP3    H129384   1.029   0.133   1.743
 9809TIP3    H229385   1.086   0.232   1.843
 9810TIP3   OH229386   6.114   1.732   6.523
 9810TIP3    H129387   6.192   1.760   6.476
 9810TIP3    H229388   6.108   1.638   6.506
 9811TIP3   OH229389   1.611   1.987   2.478
 9811TIP3    H129390   1.693   2.013   2.436
 9811TIP3    H229391   1.544   1.998   2.410
 9812TIP3   OH229392   1.762   5.855   0.194
 9812TIP3    H129393   1.819   5.866   0.270
 9812TIP3    H229394   1.781   5.766   0.162
 9813TIP3   OH229395   0.420   1.379   5.818
 9813TIP3    H129396   0.479   1.343   5.752
 9813TIP3    H229397   0.347   1.316   5.821
 9814TIP3   OH229398   1.129   2.376   1.328
 9814TIP3    H129399   1.053   2.413   1.282
 9814TIP3    H229400   1.193   2.447   1.330
 9815TIP3   OH229401   0.519   4.877   3.372
 9815TIP3    H129402   0.610   4.846   3.372
 9815TIP3    H229403   0.493   4.876   3.280
 9816TIP3   OH229404   1.928   7.264   0.879
 9816TIP3    H129405   1.929   7.299   0.790
 9816TIP3    H229406   1.905   7.172   0.868
 9817TIP3   OH229407   7.117   3.315   5.569
 9817TIP3    H129408   7.207   3.306   5.541
 9817TIP3    H229409   7.120   3.379   5.640
 9818TIP3   OH229410   0.786   0.461   6.754
 9818TIP3    H129411   0.795   0.470   6.659
 9818TIP3    H229412   0.818   0.544   6.789
 9819TIP3   OH229413   4.459   4.733   4.885
 9819TIP3    H129414   4.498   4.680   4.815
 9819TIP3    H229415   4.371   4.753   4.854
 9820TIP3   OH229416   5.588   7.183   0.245
 9820TIP3    H129417   5.558   7.185   0.335
 9820TIP3    H229418   5.669   7.235   0.245
 9821TIP3   OH229419   3.583   2.915   0.982
 9821TIP3    H129420   3.542   2.881   0.902
 9821TIP3    H229421   3.661   2.961   0.950
 9822TIP3   OH229422   0.307   3.923   1.550
 9822TIP3    H129423   0.272   3.869   1.479
 9822TIP3    H229424   0.325   4.008   1.509
 9823TIP3   OH229425   3.341   4.852   2.528
 9823TIP3    H129426   3.256   4.814   2.507
 9823TIP3    H229427   3.392   4.778   2.561
 9824TIP3   OH229428   4.433   7.285   3.652
 9824TIP3    H129429   4.414   7.307   3.743
 9824TIP3    H229430   4.360   7.229   3.626
 9825TIP3   OH229431   3.299   1.381   4.998
 9825TIP3    H129432   3.284   1.398   4.904
 9825TIP3    H229433   3.346   1.459   5.028
 9826TIP3   OH229434   0.651   4.427   2.176
 9826TIP3    H129435   0.635   4.338   2.205
 9826TIP3    H229436   0.566   4.471   2.185
 9827TIP3   OH229437   1.864   2.525   5.507
 9827TIP3    H129438   1.916   2.492   5.434
 9827TIP3    H229439   1.817   2.448   5.540
 9828TIP3   OH229440  -0.023   6.217   3.507
 9828TIP3    H129441  -0.027   6.275   3.583
 9828TIP3    H229442  -0.031   6.129   3.543
 9829TIP3   OH229443   4.920   6.875   2.390
 9829TIP3    H129444   5.006   6.860   2.351
 9829TIP3    H229445   4.934   6.944   2.455
 9830TIP3   OH229446   6.725   7.085   1.608
 9830TIP3    H129447   6.655   7.090   1.673
 9830TIP3    H229448   6.798   7.131   1.648
 9831TIP3   OH229449   1.717   0.809   1.115
 9831TIP3    H129450   1.624   0.828   1.128
 9831TIP3    H229451   1.763   0.879   1.160
 9832TIP3   OH229452   4.482   1.134   4.116
 9832TIP3    H129453   4.493   1.228   4.130
 9832TIP3    H229454   4.570   1.102   4.099
 9833TIP3   OH229455   5.937   2.272   2.838
 9833TIP3    H129456   5.869   2.213   2.872
 9833TIP3    H229457   6.014   2.217   2.829
 9834TIP3   OH229458   7.989   2.139   5.050
 9834TIP3    H129459   7.996   2.150   4.955
 9834TIP3    H229460   7.899   2.111   5.064
 9835TIP3   OH229461   2.731   2.474   6.566
 9835TIP3    H129462   2.762   2.514   6.648
 9835TIP3    H229463   2.805   2.481   6.506
 9836TIP3   OH229464   0.749   4.431   0.765
 9836TIP3    H129465   0.741   4.526   0.765
 9836TIP3    H229466   0.676   4.401   0.710
 9837TIP3   OH229467   7.992   6.266   0.810
 9837TIP3    H129468   7.955   6.276   0.898
 9837TIP3    H229469   8.086   6.273   0.822
 9838TIP3   OH229470   5.965   4.300   3.578
 9838TIP3    H129471   5.903   4.231   3.554
 9838TIP3    H229472   6.007   4.324   3.496
 9839TIP3   OH229473   4.637   1.181   3.373
 9839TIP3    H129474   4.720   1.189   3.420
 9839TIP3    H229475   4.602   1.096   3.400
 9840TIP3   OH229476   0.414   4.527   4.552
 9840TIP3    H129477   0.458   4.484   4.479
 9840TIP3    H229478   0.382   4.454   4.606
 9841TIP3   OH229479   3.962   6.680   5.506
 9841TIP3    H129480   3.883   6.693   5.559
 9841TIP3    H229481   3.942   6.722   5.423
 9842TIP3   OH229482   4.361   3.883   1.337
 9842TIP3    H129483   4.292   3.950   1.335
 9842TIP3    H229484   4.314   3.802   1.357
 9843TIP3   OH229485   5.628   2.687   6.178
 9843TIP3    H129486   5.656   2.596   6.180
 9843TIP3    H229487   5.623   2.709   6.084
 9844TIP3   OH229488   7.197   1.658   6.472
 9844TIP3    H129489   7.157   1.732   6.518
 9844TIP3    H229490   7.286   1.652   6.508
 9845TIP3   OH229491   2.564   7.271   3.222
 9845TIP3    H129492   2.631   7.339   3.222
 9845TIP3    H229493   2.560   7.241   3.131
 9846TIP3   OH229494   0.482   4.857   6.272
 9846TIP3    H129495   0.536   4.835   6.196
 9846TIP3    H229496   0.445   4.943   6.252
 9847TIP3   OH229497   1.752   1.245   5.635
 9847TIP3    H129498   1.736   1.278   5.547
 9847TIP3    H229499   1.666   1.247   5.678
 9848TIP3   OH229500   2.887   1.372   5.090
 9848TIP3    H129501   2.915   1.445   5.145
 9848TIP3    H229502   2.952   1.304   5.105
 9849TIP3   OH229503   3.299   1.628   3.058
 9849TIP3    H129504   3.237   1.621   3.130
 9849TIP3    H229505   3.352   1.705   3.079
 9850TIP3   OH229506   8.195   2.237   4.783
 9850TIP3    H129507   8.258   2.165   4.794
 9850TIP3    H229508   8.211   2.270   4.694
 9851TIP3   OH229509   0.885   1.503   4.046
 9851TIP3    H129510   0.900   1.569   3.977
 9851TIP3    H229511   0.958   1.515   4.107
 9852TIP3   OH229512   5.729   6.784   1.737
 9852TIP3    H129513   5.755   6.693   1.747
 9852TIP3    H229514   5.675   6.785   1.658
 9853TIP3   OH229515   2.844   2.170   5.757
 9853TIP3    H129516   2.828   2.131   5.671
 9853TIP3    H229517   2.797   2.254   5.754
 9854TIP3   OH229518   3.234   7.021   4.887
 9854TIP3    H129519   3.164   7.031   4.951
 9854TIP3    H229520   3.190   6.987   4.808
 9855TIP3   OH229521   1.617   4.599   4.125
 9855TIP3    H129522   1.547   4.643   4.173
 9855TIP3    H229523   1.696   4.649   4.147
 9856TIP3   OH229524   4.165   6.216   6.126
 9856TIP3    H129525   4.224   6.270   6.178
 9856TIP3    H229526   4.086   6.206   6.179
 9857TIP3   OH229527   5.030   1.190   4.111
 9857TIP3    H129528   5.078   1.190   4.193
 9857TIP3    H229529   5.080   1.247   4.053
 9858TIP3   OH229530   8.113   0.391   3.054
 9858TIP3    H129531   8.146   0.302   3.066
 9858TIP3    H229532   8.053   0.404   3.128
 9859TIP3   OH229533   2.630   1.922   0.116
 9859TIP3    H129534   2.582   1.999   0.148
 9859TIP3    H229535   2.584   1.848   0.154
 9860TIP3   OH229536   0.896   6.088   5.361
 9860TIP3    H129537   0.861   6.133   5.438
 9860TIP3    H229538   0.858   6.000   5.365
 9861TIP3   OH229539   4.654   4.337   6.372
 9861TIP3    H129540   4.677   4.377   6.456
 9861TIP3    H229541   4.675   4.244   6.383
 9862TIP3   OH229542   2.883   3.108   6.635
 9862TIP3    H129543   2.862   3.174   6.570
 9862TIP3    H229544   2.953   3.056   6.595
 9863TIP3   OH229545   0.494   6.403   3.129
 9863TIP3    H129546   0.405   6.405   3.164
 9863TIP3    H229547   0.487   6.348   3.051
 9864TIP3   OH229548   5.464   6.056   5.620
 9864TIP3    H129549   5.404   6.066   5.545
 9864TIP3    H229550   5.550   6.046   5.580
 9865TIP3   OH229551   3.387   2.709   4.745
 9865TIP3    H129552   3.304   2.665   4.763
 9865TIP3    H229553   3.418   2.669   4.663
 9866TIP3   OH229554   3.235   3.062   2.143
 9866TIP3    H129555   3.291   3.123   2.094
 9866TIP3    H229556   3.157   3.113   2.165
 9867TIP3   OH229557   6.154   6.639   4.288
 9867TIP3    H129558   6.098   6.679   4.221
 9867TIP3    H229559   6.134   6.546   4.284
 9868TIP3   OH229560   6.778   1.312   2.983
 9868TIP3    H129561   6.845   1.244   2.977
 9868TIP3    H229562   6.815   1.387   2.937
 9869TIP3   OH229563   1.409   6.691   5.876
 9869TIP3    H129564   1.473   6.703   5.806
 9869TIP3    H229565   1.426   6.764   5.936
 9870TIP3   OH229566   6.015   0.126   5.617
 9870TIP3    H129567   6.006   0.133   5.522
 9870TIP3    H229568   5.930   0.097   5.648
 9871TIP3   OH229569   2.292   0.821   3.539
 9871TIP3    H129570   2.352   0.760   3.582
 9871TIP3    H229571   2.230   0.846   3.607
 9872TIP3   OH229572   5.588   6.179   3.420
 9872TIP3    H129573   5.664   6.138   3.462
 9872TIP3    H229574   5.543   6.106   3.376
 9873TIP3   OH229575   3.499   1.256   4.518
 9873TIP3    H129576   3.520   1.318   4.448
 9873TIP3    H229577   3.427   1.204   4.482
 9874TIP3   OH229578   2.028   3.480   5.221
 9874TIP3    H129579   1.934   3.468   5.206
 9874TIP3    H229580   2.032   3.547   5.290
 9875TIP3   OH229581   7.580   2.039   6.614
 9875TIP3    H129582   7.594   2.134   6.613
 9875TIP3    H229583   7.653   2.006   6.667
 9876TIP3   OH229584   7.739   4.139   3.441
 9876TIP3    H129585   7.736   4.197   3.517
 9876TIP3    H229586   7.824   4.156   3.401
 9877TIP3   OH229587   5.459   5.420   1.348
 9877TIP3    H129588   5.504   5.436   1.265
 9877TIP3    H229589   5.419   5.333   1.337
 9878TIP3   OH229590   0.867   7.225   5.512
 9878TIP3    H129591   0.801   7.159   5.533
 9878TIP3    H229592   0.827   7.308   5.539
 9879TIP3   OH229593   0.609   2.189   0.838
 9879TIP3    H129594   0.668   2.118   0.816
 9879TIP3    H229595   0.523   2.147   0.847
 9880TIP3   OH229596   3.922   4.463   3.142
 9880TIP3    H129597   4.009   4.430   3.164
 9880TIP3    H229598   3.862   4.408   3.193
 9881TIP3   OH229599   6.038   3.869   6.032
 9881TIP3    H129600   5.976   3.939   6.054
 9881TIP3    H229601   6.101   3.911   5.972
 9882TIP3   OH229602   1.519   5.132   5.996
 9882TIP3    H129603   1.451   5.189   6.033
 9882TIP3    H229604   1.477   5.090   5.921
 9883TIP3   OH229605   0.728   0.827   2.084
 9883TIP3    H129606   0.669   0.798   2.014
 9883TIP3    H229607   0.726   0.923   2.078
 9884TIP3   OH229608   7.345   2.655   1.370
 9884TIP3    H129609   7.267   2.687   1.324
 9884TIP3    H229610   7.330   2.680   1.461
 9885TIP3   OH229611   7.150   7.095   2.527
 9885TIP3    H129612   7.163   7.137   2.442
 9885TIP3    H229613   7.188   7.007   2.517
 9886TIP3   OH229614   4.578   0.943   3.535
 9886TIP3    H129615   4.521   0.983   3.600
 9886TIP3    H229616   4.578   0.850   3.556
 9887TIP3   OH229617   5.049   2.103   4.059
 9887TIP3    H129618   4.971   2.050   4.078
 9887TIP3    H229619   5.014   2.191   4.043
 9888TIP3   OH229620   0.261   6.951   5.489
 9888TIP3    H129621   0.259   6.930   5.396
 9888TIP3    H229622   0.232   6.871   5.533
 9889TIP3   OH229623   5.013   5.839   6.746
 9889TIP3    H129624   5.074   5.833   6.673
 9889TIP3    H229625   5.066   5.872   6.819
 9890TIP3   OH229626   1.490   6.743   4.309
 9890TIP3    H129627   1.542   6.817   4.339
 9890TIP3    H229628   1.513   6.672   4.369
 9891TIP3   OH229629   2.900   3.522   0.740
 9891TIP3    H129630   2.909   3.572   0.821
 9891TIP3    H229631   2.817   3.552   0.703
 9892TIP3   OH229632   6.935   2.003   3.364
 9892TIP3    H129633   6.891   1.938   3.310
 9892TIP3    H229634   6.971   1.953   3.437
 9893TIP3   OH229635   5.665   2.074   5.373
 9893TIP3    H129636   5.594   2.132   5.400
 9893TIP3    H229637   5.681   2.096   5.281
 9894TIP3   OH229638   5.947   6.633   1.170
 9894TIP3    H129639   5.998   6.714   1.171
 9894TIP3    H229640   5.890   6.643   1.094
 9895TIP3   OH229641   6.162   2.039   6.528
 9895TIP3    H129642   6.241   2.072   6.569
 9895TIP3    H229643   6.186   1.952   6.496
 9896TIP3   OH229644   6.759   4.913   3.854
 9896TIP3    H129645   6.816   4.845   3.891
 9896TIP3    H229646   6.684   4.865   3.820
 9897TIP3   OH229647  -0.003   0.397   1.277
 9897TIP3    H129648  -0.017   0.334   1.207
 9897TIP3    H229649   0.091   0.412   1.278
 9898TIP3   OH229650   6.340   4.307   5.963
 9898TIP3    H129651   6.351   4.278   6.054
 9898TIP3    H229652   6.246   4.299   5.946
 9899TIP3   OH229653   1.583   2.639   1.213
 9899TIP3    H129654   1.631   2.599   1.286
 9899TIP3    H229655   1.644   2.704   1.177
 9900TIP3   OH229656   3.382   1.679   4.987
 9900TIP3    H129657   3.389   1.767   5.024
 9900TIP3    H229658   3.444   1.678   4.914
 9901TIP3   OH229659   2.968   4.697   3.676
 9901TIP3    H129660   2.994   4.744   3.756
 9901TIP3    H229661   2.914   4.625   3.708
 9902TIP3   OH229662   7.131   0.623   4.976
 9902TIP3    H129663   7.057   0.568   5.001
 9902TIP3    H229664   7.204   0.562   4.966
 9903TIP3   OH229665   6.218   3.516   4.143
 9903TIP3    H129666   6.150   3.577   4.171
 9903TIP3    H229667   6.234   3.461   4.219
 9904TIP3   OH229668   2.386   1.165   6.290
 9904TIP3    H129669   2.423   1.097   6.347
 9904TIP3    H229670   2.461   1.221   6.269
 9905TIP3   OH229671   6.226   6.083   3.070
 9905TIP3    H129672   6.232   6.174   3.041
 9905TIP3    H229673   6.211   6.034   2.989
 9906TIP3   OH229674   2.395   2.673   6.685
 9906TIP3    H129675   2.426   2.593   6.641
 9906TIP3    H229676   2.326   2.706   6.627
 9907TIP3   OH229677   3.227   2.312   0.431
 9907TIP3    H129678   3.243   2.407   0.432
 9907TIP3    H229679   3.134   2.304   0.451
 9908TIP3   OH229680   6.615   7.456   1.646
 9908TIP3    H129681   6.658   7.385   1.597
 9908TIP3    H229682   6.631   7.435   1.738
 9909TIP3   OH229683   4.306   1.642   0.662
 9909TIP3    H129684   4.330   1.614   0.751
 9909TIP3    H229685   4.269   1.729   0.674
 9910TIP3   OH229686   7.034   3.432   2.630
 9910TIP3    H129687   7.059   3.490   2.557
 9910TIP3    H229688   7.070   3.475   2.708
 9911TIP3   OH229689   6.626   4.265  -0.012
 9911TIP3    H129690   6.601   4.212   0.064
 9911TIP3    H229691   6.547   4.266  -0.067
 9912TIP3   OH229692   8.213   5.106   3.021
 9912TIP3    H129693   8.282   5.171   3.007
 9912TIP3    H229694   8.169   5.135   3.101
 9913TIP3   OH229695   5.355   2.632   5.382
 9913TIP3    H129696   5.290   2.590   5.326
 9913TIP3    H229697   5.415   2.675   5.322
 9914TIP3   OH229698   2.112   2.785   5.120
 9914TIP3    H129699   2.201   2.807   5.092
 9914TIP3    H229700   2.078   2.866   5.159
 9915TIP3   OH229701   3.495   4.433   4.186
 9915TIP3    H129702   3.484   4.528   4.188
 9915TIP3    H229703   3.408   4.399   4.166
 9916TIP3   OH229704   3.083   0.267   2.439
 9916TIP3    H129705   3.029   0.235   2.511
 9916TIP3    H229706   3.169   0.228   2.453
 9917TIP3   OH229707   1.564   1.896   4.628
 9917TIP3    H129708   1.616   1.928   4.554
 9917TIP3    H229709   1.505   1.969   4.648
 9918TIP3   OH229710   6.510   4.168   1.384
 9918TIP3    H129711   6.422   4.164   1.421
 9918TIP3    H229712   6.564   4.117   1.444
 9919TIP3   OH229713   7.084   6.386   0.925
 9919TIP3    H129714   7.140   6.397   1.003
 9919TIP3    H229715   6.999   6.418   0.952
 9920TIP3   OH229716   1.550   5.530   0.549
 9920TIP3    H129717   1.633   5.567   0.581
 9920TIP3    H229718   1.515   5.596   0.489
 9921TIP3   OH229719   0.560   2.864   2.420
 9921TIP3    H129720   0.614   2.930   2.376
 9921TIP3    H229721   0.488   2.914   2.458
 9922TIP3   OH229722   3.353   5.076   6.747
 9922TIP3    H129723   3.403   5.006   6.706
 9922TIP3    H229724   3.400   5.095   6.829
 9923TIP3   OH229725   4.539   4.920   6.078
 9923TIP3    H129726   4.495   5.003   6.062
 9923TIP3    H229727   4.485   4.878   6.145
 9924TIP3   OH229728   2.646   4.960   0.183
 9924TIP3    H129729   2.602   4.922   0.107
 9924TIP3    H229730   2.584   4.948   0.255
 9925TIP3   OH229731   6.690   2.040   5.920
 9925TIP3    H129732   6.685   2.094   5.999
 9925TIP3    H229733   6.604   2.047   5.880
 9926TIP3   OH229734   2.060   2.879   4.030
 9926TIP3    H129735   2.008   2.850   4.105
 9926TIP3    H229736   2.005   2.859   3.954
 9927TIP3   OH229737   4.843   5.929   0.077
 9927TIP3    H129738   4.834   6.013   0.122
 9927TIP3    H229739   4.800   5.866   0.135
 9928TIP3   OH229740   6.975   0.744   1.059
 9928TIP3    H129741   6.897   0.720   1.109
 9928TIP3    H229742   7.047   0.737   1.121
 9929TIP3   OH229743   8.100   3.794   0.899
 9929TIP3    H129744   8.105   3.701   0.877
 9929TIP3    H229745   8.012   3.819   0.871
 9930TIP3   OH229746   2.058   5.698   0.680
 9930TIP3    H129747   2.144   5.705   0.721
 9930TIP3    H229748   2.027   5.788   0.671
 9931TIP3   OH229749   3.625   5.132   2.448
 9931TIP3    H129750   3.551   5.194   2.444
 9931TIP3    H229751   3.612   5.086   2.531
 9932TIP3   OH229752   0.058   5.852   2.160
 9932TIP3    H129753   0.006   5.885   2.087
 9932TIP3    H229754   0.027   5.762   2.173
 9933TIP3   OH229755   0.973   1.435   5.233
 9933TIP3    H129756   0.902   1.380   5.197
 9933TIP3    H229757   0.999   1.390   5.313
 9934TIP3   OH229758   5.836   3.032   1.827
 9934TIP3    H129759   5.790   2.962   1.874
 9934TIP3    H229760   5.766   3.089   1.796
 9935TIP3   OH229761   2.272   2.976   2.464
 9935TIP3    H129762   2.214   2.933   2.401
 9935TIP3    H229763   2.252   2.934   2.548
 9936TIP3   OH229764   1.540   5.351   5.369
 9936TIP3    H129765   1.567   5.288   5.437
 9936TIP3    H229766   1.569   5.436   5.403
 9937TIP3   OH229767   7.050   2.346   2.330
 9937TIP3    H129768   7.122   2.392   2.373
 9937TIP3    H229769   7.041   2.391   2.246
 9938TIP3   OH229770   7.912   5.503   5.201
 9938TIP3    H129771   7.932   5.592   5.230
 9938TIP3    H229772   7.823   5.508   5.167
 9939TIP3   OH229773   7.030   5.323   0.686
 9939TIP3    H129774   7.050   5.387   0.754
 9939TIP3    H229775   6.992   5.248   0.732
 9940TIP3   OH229776   1.628   3.123   1.659
 9940TIP3    H129777   1.593   3.093   1.742
 9940TIP3    H229778   1.691   3.191   1.683
 9941TIP3   OH229779   6.613   7.769   1.388
 9941TIP3    H129780   6.666   7.815   1.323
 9941TIP3    H229781   6.677   7.723   1.443
 9942TIP3   OH229782   4.782   0.991   6.319
 9942TIP3    H129783   4.745   1.079   6.313
 9942TIP3    H229784   4.807   0.983   6.411
 9943TIP3   OH229785   4.969   2.799   4.905
 9943TIP3    H129786   4.875   2.791   4.892
 9943TIP3    H229787   4.981   2.885   4.945
 9944TIP3   OH229788   3.417   5.487   0.498
 9944TIP3    H129789   3.354   5.524   0.560
 9944TIP3    H229790   3.454   5.563   0.453
 9945TIP3   OH229791   2.933   4.626   4.340
 9945TIP3    H129792   3.020   4.641   4.378
 9945TIP3    H229793   2.948   4.623   4.246
 9946TIP3   OH229794   0.969   4.908   2.398
 9946TIP3    H129795   0.912   4.860   2.338
 9946TIP3    H229796   1.050   4.921   2.348
 9947TIP3   OH229797   6.590   4.620   3.185
 9947TIP3    H129798   6.655   4.562   3.223
 9947TIP3    H229799   6.510   4.567   3.180
 9948TIP3   OH229800   8.204   6.281   2.614
 9948TIP3    H129801   8.204   6.232   2.532
 9948TIP3    H229802   8.284   6.333   2.611
 9949TIP3   OH229803   3.455   0.183   5.048
 9949TIP3    H129804   3.421   0.216   4.965
 9949TIP3    H229805   3.471   0.262   5.100
 9950TIP3   OH229806   7.669   7.574   3.215
 9950TIP3    H129807   7.676   7.668   3.230
 9950TIP3    H229808   7.583   7.550   3.249
 9951TIP3   OH229809   4.701   1.208   0.055
 9951TIP3    H129810   4.619   1.255   0.071
 9951TIP3    H229811   4.765   1.249   0.113
 9952TIP3   OH229812   4.698   0.175   4.428
 9952TIP3    H129813   4.719   0.262   4.394
 9952TIP3    H229814   4.615   0.153   4.386
 9953TIP3   OH229815   4.521   0.510   1.866
 9953TIP3    H129816   4.572   0.480   1.941
 9953TIP3    H229817   4.437   0.537   1.904
 9954TIP3   OH229818   6.472   7.082   5.626
 9954TIP3    H129819   6.378   7.098   5.626
 9954TIP3    H229820   6.480   6.988   5.608
 9955TIP3   OH229821   7.745   1.410   0.748
 9955TIP3    H129822   7.826   1.403   0.697
 9955TIP3    H229823   7.690   1.470   0.698
 9956TIP3   OH229824   2.775   2.283   4.263
 9956TIP3    H129825   2.732   2.256   4.182
 9956TIP3    H229826   2.828   2.207   4.288
 9957TIP3   OH229827   4.766   4.177   0.331
 9957TIP3    H129828   4.793   4.256   0.284
 9957TIP3    H229829   4.670   4.183   0.335
 9958TIP3   OH229830   4.330   5.248   1.572
 9958TIP3    H129831   4.376   5.332   1.578
 9958TIP3    H229832   4.317   5.222   1.663
 9959TIP3   OH229833   6.732   2.611   1.060
 9959TIP3    H129834   6.694   2.597   0.973
 9959TIP3    H229835   6.668   2.667   1.105
 9960TIP3   OH229836   7.202   0.512   6.416
 9960TIP3    H129837   7.216   0.524   6.322
 9960TIP3    H229838   7.110   0.487   6.424
 9961TIP3   OH229839  -0.010   7.093   6.331
 9961TIP3    H129840   0.069   7.066   6.378
 9961TIP3    H229841  -0.056   7.150   6.393
 9962TIP3   OH229842   2.572   7.157   3.838
 9962TIP3    H129843   2.565   7.095   3.910
 9962TIP3    H229844   2.618   7.109   3.770
 9963TIP3   OH229845   4.897   7.856   4.711
 9963TIP3    H129846   4.835   7.828   4.643
 9963TIP3    H229847   4.849   7.843   4.793
 9964TIP3   OH229848   2.336   2.512   0.254
 9964TIP3    H129849   2.305   2.481   0.338
 9964TIP3    H229850   2.366   2.433   0.208
 9965TIP3   OH229851   7.670   1.699   3.130
 9965TIP3    H129852   7.762   1.724   3.121
 9965TIP3    H229853   7.628   1.773   3.173
 9966TIP3   OH229854   6.741   3.902   2.023
 9966TIP3    H129855   6.684   3.902   1.946
 9966TIP3    H229856   6.714   3.977   2.074
 9967TIP3   OH229857   5.051   5.650   5.267
 9967TIP3    H129858   5.030   5.674   5.358
 9967TIP3    H229859   5.026   5.727   5.216
 9968TIP3   OH229860   4.999   2.604   3.045
 9968TIP3    H129861   5.077   2.594   3.099
 9968TIP3    H229862   5.017   2.553   2.966
 9969TIP3   OH229863   3.690   0.076   1.516
 9969TIP3    H129864   3.610   0.107   1.557
 9969TIP3    H229865   3.670  -0.013   1.488
 9970TIP3   OH229866   2.676   4.083   5.688
 9970TIP3    H129867   2.671   4.055   5.597
 9970TIP3    H229868   2.672   4.002   5.739
 9971TIP3   OH229869   6.656   3.753   5.617
 9971TIP3    H129870   6.667   3.838   5.576
 9971TIP3    H229871   6.743   3.730   5.649
 9972TIP3   OH229872   7.657   3.677   6.028
 9972TIP3    H129873   7.631   3.719   5.946
 9972TIP3    H229874   7.628   3.586   6.019
 9973TIP3   OH229875   1.562   3.492   0.122
 9973TIP3    H129876   1.642   3.467   0.170
 9973TIP3    H229877   1.537   3.577   0.160
 9974TIP3   OH229878   5.222   2.809   0.801
 9974TIP3    H129879   5.253   2.825   0.890
 9974TIP3    H229880   5.127   2.810   0.807
 9975TIP3   OH229881   5.767   4.844   1.535
 9975TIP3    H129882   5.835   4.814   1.595
 9975TIP3    H229883   5.810   4.909   1.480
 9976TIP3   OH229884   7.452   2.482   1.129
 9976TIP3    H129885   7.443   2.528   1.213
 9976TIP3    H229886   7.523   2.419   1.144
 9977TIP3   OH229887   2.602   6.141   3.683
 9977TIP3    H129888   2.539   6.199   3.639
 9977TIP3    H229889   2.686   6.185   3.670
 9978TIP3   OH229890   7.673   2.946   6.559
 9978TIP3    H129891   7.720   2.969   6.479
 9978TIP3    H229892   7.675   3.025   6.612
 9979TIP3   OH229893   0.350   2.434   3.869
 9979TIP3    H129894   0.310   2.428   3.782
 9979TIP3    H229895   0.420   2.498   3.858
 9980TIP3   OH229896   2.829   5.376   5.605
 9980TIP3    H129897   2.776   5.296   5.602
 9980TIP3    H229898   2.848   5.394   5.513
 9981TIP3   OH229899   5.330   3.362   6.757
 9981TIP3    H129900   5.412   3.380   6.710
 9981TIP3    H229901   5.268   3.427   6.724
 9982TIP3   OH229902   8.071   6.260   1.392
 9982TIP3    H129903   8.080   6.354   1.378
 9982TIP3    H229904   8.076   6.249   1.487
 9983TIP3   OH229905   1.961   0.085   3.087
 9983TIP3    H129906   1.917   0.110   3.168
 9983TIP3    H229907   1.891   0.058   3.028
 9984TIP3   OH229908   5.811   4.374   4.591
 9984TIP3    H129909   5.860   4.348   4.513
 9984TIP3    H229910   5.873   4.362   4.663
 9985TIP3   OH229911   4.085   0.922   1.592
 9985TIP3    H129912   4.028   0.852   1.560
 9985TIP3    H229913   4.030   1.000   1.592
 9986TIP3   OH229914   5.469   2.613   6.710
 9986TIP3    H129915   5.461   2.624   6.615
 9986TIP3    H229916   5.413   2.680   6.747
 9987TIP3   OH229917   6.845   5.807   5.918
 9987TIP3    H129918   6.853   5.856   5.837
 9987TIP3    H229919   6.931   5.767   5.930
 9988TIP3   OH229920   5.089   2.051   4.688
 9988TIP3    H129921   5.023   2.048   4.619
 9988TIP3    H229922   5.042   2.030   4.768
 9989TIP3   OH229923   6.599   6.964   4.702
 9989TIP3    H129924   6.570   7.053   4.680
 9989TIP3    H229925   6.693   6.964   4.687
 9990TIP3   OH229926   6.778   0.628   5.880
 9990TIP3    H129927   6.850   0.650   5.821
 9990TIP3    H229928   6.812   0.643   5.968
 9991TIP3   OH229929   2.640   4.027   4.755
 9991TIP3    H129930   2.579   3.956   4.777
 9991TIP3    H229931   2.695   4.037   4.833
 9992TIP3   OH229932   3.845   4.133   3.948
 9992TIP3    H129933   3.874   4.169   3.864
 9992TIP3    H229934   3.888   4.048   3.954
 9993TIP3   OH229935   1.495   7.736   2.273
 9993TIP3    H129936   1.541   7.813   2.307
 9993TIP3    H229937   1.421   7.772   2.223
 9994TIP3   OH229938   2.039   0.931   2.373
 9994TIP3    H129939   2.127   0.922   2.409
 9994TIP3    H229940   2.044   0.890   2.287
 9995TIP3   OH229941   4.731   3.345   3.476
 9995TIP3    H129942   4.751   3.251   3.472
 9995TIP3    H229943   4.737   3.366   3.569
 9996TIP3   OH229944   7.851   2.647   4.121
 9996TIP3    H129945   7.829   2.737   4.143
 9996TIP3    H229946   7.775   2.615   4.073
 9997TIP3   OH229947   6.619   0.518   3.412
 9997TIP3    H129948   6.533   0.539   3.449
 9997TIP3    H229949   6.602   0.500   3.320
 9998TIP3   OH229950   2.613   5.510   2.093
 9998TIP3    H129951   2.538   5.560   2.126
 9998TIP3    H229952   2.643   5.560   2.017
 9999TIP3   OH229953  -0.051   4.211   3.705
 9999TIP3    H129954   0.016   4.269   3.668
 9999TIP3    H229955  -0.089   4.262   3.776
10000TIP3   OH229956   1.389   3.320   1.703
10000TIP3    H129957   1.476   3.286   1.683
10000TIP3    H229958   1.363   3.275   1.783
10001TIP3   OH229959   5.454   6.851   1.600
10001TIP3    H129960   5.543   6.848   1.563
10001TIP3    H229961   5.398   6.870   1.525
10002TIP3   OH229962   3.485   2.565   6.376
10002TIP3    H129963   3.555   2.511   6.340
10002TIP3    H229964   3.406   2.512   6.366
10003TIP3   OH229965   7.009   4.287   1.547
10003TIP3    H129966   6.918   4.291   1.576
10003TIP3    H229967   7.021   4.367   1.496
10004TIP3   OH229968   7.540   1.012   4.884
10004TIP3    H129969   7.554   1.027   4.978
10004TIP3    H229970   7.534   0.916   4.876
10005TIP3   OH229971   6.528   5.617   4.182
10005TIP3    H129972   6.529   5.690   4.244
10005TIP3    H229973   6.562   5.543   4.231
10006TIP3   OH229974   5.196   1.236   1.615
10006TIP3    H129975   5.159   1.170   1.674
10006TIP3    H229976   5.153   1.220   1.531
10007TIP3   OH229977   3.026   2.337   4.725
10007TIP3    H129978   3.027   2.255   4.774
10007TIP3    H229979   2.934   2.366   4.729
10008TIP3   OH229980   2.971   0.888   1.478
10008TIP3    H129981   2.959   0.983   1.468
10008TIP3    H229982   2.883   0.854   1.495
10009TIP3   OH229983   5.714   3.311   3.121
10009TIP3    H129984   5.809   3.305   3.119
10009TIP3    H229985   5.684   3.239   3.066
10010TIP3   OH229986   7.736   0.037   1.947
10010TIP3    H129987   7.756   0.067   2.035
10010TIP3    H229988   7.785   0.097   1.890
10011TIP3   OH229989   7.719   4.988   4.200
10011TIP3    H129990   7.741   5.072   4.159
10011TIP3    H229991   7.734   5.003   4.294
10012TIP3   OH229992   4.263   6.821   3.806
10012TIP3    H129993   4.328   6.876   3.850
10012TIP3    H229994   4.198   6.801   3.873
10013TIP3   OH229995   5.697   7.764   1.586
10013TIP3    H129996   5.731   7.826   1.651
10013TIP3    H229997   5.610   7.798   1.564
10014TIP3   OH229998   5.654   3.583   2.061
10014TIP3    H129999   5.609   3.505   2.029
10014TIP3    H230000   5.747   3.564   2.048
10015TIP3   OH230001   1.482   3.749   0.363
10015TIP3    H130002   1.519   3.830   0.329
10015TIP3    H230003   1.464   3.768   0.455
10016TIP3   OH230004   5.939   1.846   5.922
10016TIP3    H130005   5.978   1.784   5.861
10016TIP3    H230006   5.855   1.870   5.883
10017TIP3   OH230007   2.517   4.481   4.765
10017TIP3    H130008   2.519   4.389   4.738
10017TIP3    H230009   2.598   4.492   4.815
10018TIP3   OH230010   1.557   2.736   5.152
10018TIP3    H130011   1.606   2.817   5.136
10018TIP3    H230012   1.600   2.697   5.228
10019TIP3   OH230013   6.575   4.114   6.664
10019TIP3    H130014   6.549   4.170   6.591
10019TIP3    H230015   6.494   4.097   6.712
10020TIP3   OH230016   1.887   4.579   5.595
10020TIP3    H130017   1.928   4.498   5.625
10020TIP3    H230018   1.862   4.561   5.504
10021TIP3   OH230019   7.427   3.767   0.529
10021TIP3    H130020   7.389   3.764   0.441
10021TIP3    H230021   7.353   3.752   0.588
10022TIP3   OH230022   4.666   6.525   2.681
10022TIP3    H130023   4.748   6.550   2.639
10022TIP3    H230024   4.649   6.436   2.649
10023TIP3   OH230025   5.760   4.295   1.595
10023TIP3    H130026   5.813   4.242   1.535
10023TIP3    H230027   5.824   4.334   1.655
10024TIP3   OH230028   6.713   6.999   2.499
10024TIP3    H130029   6.798   6.982   2.539
10024TIP3    H230030   6.716   6.951   2.416
10025TIP3   OH230031   1.601   0.072   5.320
10025TIP3    H130032   1.611   0.010   5.392
10025TIP3    H230033   1.604   0.018   5.241
10026TIP3   OH230034   1.965   3.630   4.314
10026TIP3    H130035   2.030   3.674   4.259
10026TIP3    H230036   1.918   3.702   4.358
10027TIP3   OH230037   7.929   4.334   6.356
10027TIP3    H130038   7.990   4.290   6.297
10027TIP3    H230039   7.980   4.404   6.397
10028TIP3   OH230040   0.763   0.387   4.777
10028TIP3    H130041   0.680   0.345   4.754
10028TIP3    H230042   0.763   0.388   4.873
10029TIP3   OH230043   6.639   7.401   1.917
10029TIP3    H130044   6.708   7.339   1.940
10029TIP3    H230045   6.562   7.370   1.965
10030TIP3   OH230046   0.402   4.196   6.480
10030TIP3    H130047   0.341   4.200   6.553
10030TIP3    H230048   0.369   4.126   6.424
10031TIP3   OH230049   2.517   1.596   2.699
10031TIP3    H130050   2.505   1.681   2.657
10031TIP3    H230051   2.542   1.537   2.628
10032TIP3   OH230052   7.012   6.903   1.568
10032TIP3    H130053   7.055   6.984   1.594
10032TIP3    H230054   7.073   6.861   1.508
10033TIP3   OH230055   0.888   0.548   3.425
10033TIP3    H130056   0.887   0.626   3.480
10033TIP3    H230057   0.830   0.570   3.351
10034TIP3   OH230058   3.706   0.154   4.917
10034TIP3    H130059   3.676   0.141   4.827
10034TIP3    H230060   3.626   0.149   4.970
10035TIP3   OH230061   0.512   7.135   3.131
10035TIP3    H130062   0.502   7.162   3.040
10035TIP3    H230063   0.452   7.061   3.140
10036TIP3   OH230064   0.929   1.251   0.338
10036TIP3    H130065   0.851   1.213   0.299
10036TIP3    H230066   0.975   1.292   0.265
10037TIP3   OH230067   4.302   6.098   3.762
10037TIP3    H130068   4.322   6.172   3.704
10037TIP3    H230069   4.300   6.022   3.704
10038TIP3   OH230070   5.945   5.120   4.969
10038TIP3    H130071   5.865   5.119   4.916
10038TIP3    H230072   5.913   5.116   5.060
10039TIP3   OH230073   5.753   1.089   2.256
10039TIP3    H130074   5.848   1.075   2.262
10039TIP3    H230075   5.736   1.163   2.315
10040TIP3   OH230076   4.204   4.665   1.359
10040TIP3    H130077   4.132   4.614   1.325
10040TIP3    H230078   4.167   4.751   1.378
10041TIP3   OH230079   6.442   2.117   6.527
10041TIP3    H130080   6.530   2.128   6.563
10041TIP3    H230081   6.455   2.110   6.433
10042TIP3   OH230082   6.873   4.704   3.620
10042TIP3    H130083   6.921   4.630   3.581
10042TIP3    H230084   6.836   4.669   3.701
10043TIP3   OH230085   6.379   7.781   1.529
10043TIP3    H130086   6.429   7.782   1.611
10043TIP3    H230087   6.441   7.747   1.465
10044TIP3   OH230088   5.301   1.781   3.307
10044TIP3    H130089   5.381   1.736   3.336
10044TIP3    H230090   5.272   1.830   3.383
10045TIP3   OH230091   3.359   2.145   5.956
10045TIP3    H130092   3.343   2.052   5.943
10045TIP3    H230093   3.272   2.185   5.953
10046TIP3   OH230094   7.573   0.124   0.072
10046TIP3    H130095   7.527   0.161  -0.003
10046TIP3    H230096   7.664   0.116   0.044
10047TIP3   OH230097   8.081   4.890   5.930
10047TIP3    H130098   8.029   4.856   6.003
10047TIP3    H230099   8.147   4.823   5.914
10048TIP3   OH230100   4.612   1.224   6.346
10048TIP3    H130101   4.572   1.301   6.305
10048TIP3    H230102   4.592   1.232   6.439
10049TIP3   OH230103   0.205   5.488   5.748
10049TIP3    H130104   0.115   5.521   5.750
10049TIP3    H230105   0.202   5.417   5.684
10050TIP3   OH230106   4.797   4.369   2.111
10050TIP3    H130107   4.718   4.348   2.061
10050TIP3    H230108   4.868   4.359   2.049
10051TIP3   OH230109   3.403   0.845   0.007
10051TIP3    H130110   3.452   0.767   0.030
10051TIP3    H230111   3.363   0.874   0.090
10052TIP3   OH230112   1.572   2.402   0.948
10052TIP3    H130113   1.573   2.317   0.904
10052TIP3    H230114   1.646   2.449   0.911
10053TIP3   OH230115   0.719   2.942   0.990
10053TIP3    H130116   0.766   3.013   1.033
10053TIP3    H230117   0.669   2.985   0.921
10054TIP3   OH230118   7.240   4.797   3.847
10054TIP3    H130119   7.244   4.825   3.756
10054TIP3    H230120   7.172   4.852   3.886
10055TIP3   OH230121   7.214   2.665   3.647
10055TIP3    H130122   7.229   2.611   3.724
10055TIP3    H230123   7.153   2.733   3.676
10056TIP3   OH230124   0.645   0.056   3.077
10056TIP3    H130125   0.666   0.097   3.161
10056TIP3    H230126   0.550   0.052   3.076
10057TIP3   OH230127   8.000   5.976   3.418
10057TIP3    H130128   7.914   5.934   3.411
10057TIP3    H230129   8.059   5.916   3.371
10058TIP3   OH230130   8.140   0.669   3.035
10058TIP3    H130131   8.140   0.574   3.020
10058TIP3    H230132   8.233   0.693   3.038
10059TIP3   OH230133   4.708   5.556   1.620
10059TIP3    H130134   4.732   5.541   1.711
10059TIP3    H230135   4.696   5.651   1.614
10060TIP3   OH230136   0.487   6.498   6.389
10060TIP3    H130137   0.532   6.474   6.471
10060TIP3    H230138   0.396   6.512   6.415
10061TIP3   OH230139   7.552   4.766   6.450
10061TIP3    H130140   7.602   4.833   6.403
10061TIP3    H230141   7.489   4.816   6.503
10062TIP3   OH230142   6.460   4.426   2.668
10062TIP3    H130143   6.470   4.521   2.660
10062TIP3    H230144   6.533   4.390   2.618
10063TIP3   OH230145   0.691   5.318   5.448
10063TIP3    H130146   0.772   5.273   5.426
10063TIP3    H230147   0.631   5.248   5.474
10064TIP3   OH230148   3.607   0.434   0.208
10064TIP3    H130149   3.680   0.374   0.228
10064TIP3    H230150   3.650   0.514   0.177
10065TIP3   OH230151   7.253   1.463   3.386
10065TIP3    H130152   7.203   1.543   3.401
10065TIP3    H230153   7.189   1.393   3.390
10066TIP3   OH230154   4.049   5.282   0.999
10066TIP3    H130155   4.016   5.360   0.955
10066TIP3    H230156   4.030   5.210   0.939
10067TIP3   OH230157   0.032   6.266   4.553
10067TIP3    H130158   0.085   6.344   4.534
10067TIP3    H230159   0.020   6.268   4.648
10068TIP3   OH230160   2.798   0.727   6.352
10068TIP3    H130161   2.843   0.650   6.319
10068TIP3    H230162   2.774   0.776   6.273
10069TIP3   OH230163   3.319   4.129   0.662
10069TIP3    H130164   3.356   4.060   0.607
10069TIP3    H230165   3.232   4.144   0.627
10070TIP3   OH230166   4.645   1.293   2.145
10070TIP3    H130167   4.715   1.277   2.208
10070TIP3    H230168   4.632   1.210   2.101
10071TIP3   OH230169   2.815   6.839   3.846
10071TIP3    H130170   2.856   6.800   3.769
10071TIP3    H230171   2.858   6.924   3.856
10072TIP3   OH230172   2.930   5.861   2.317
10072TIP3    H130173   3.016   5.861   2.275
10072TIP3    H230174   2.930   5.939   2.372
10073TIP3   OH230175   4.830   7.548   4.437
10073TIP3    H130176   4.819   7.459   4.471
10073TIP3    H230177   4.916   7.575   4.471
10074TIP3   OH230178   0.500   3.727   4.294
10074TIP3    H130179   0.411   3.698   4.313
10074TIP3    H230180   0.496   3.822   4.295
10075TIP3   OH230181   7.101   3.329   5.011
10075TIP3    H130182   7.051   3.384   5.072
10075TIP3    H230183   7.051   3.248   5.006
10076TIP3   OH230184   0.358   4.124   1.212
10076TIP3    H130185   0.364   4.125   1.308
10076TIP3    H230186   0.414   4.196   1.183
10077TIP3   OH230187   5.318   1.299   3.715
10077TIP3    H130188   5.302   1.257   3.630
10077TIP3    H230189   5.406   1.335   3.709
10078TIP3   OH230190   0.564   0.026   1.590
10078TIP3    H130191   0.519  -0.015   1.517
10078TIP3    H230192   0.655  -0.001   1.581
10079TIP3   OH230193   6.632   0.891   6.663
10079TIP3    H130194   6.680   0.921   6.740
10079TIP3    H230195   6.541   0.917   6.680
10080TIP3   OH230196   2.181   5.841   5.014
10080TIP3    H130197   2.122   5.914   4.994
10080TIP3    H230198   2.262   5.883   5.043
10081TIP3   OH230199   5.906   0.109   3.387
10081TIP3    H130200   5.821   0.077   3.356
10081TIP3    H230201   5.920   0.190   3.338
10082TIP3   OH230202   0.699   6.847   5.295
10082TIP3    H130203   0.766   6.857   5.363
10082TIP3    H230204   0.619   6.829   5.344
10083TIP3   OH230205   4.474   3.442   1.621
10083TIP3    H130206   4.511   3.441   1.533
10083TIP3    H230207   4.392   3.394   1.614
10084TIP3   OH230208   6.973   1.335   5.674
10084TIP3    H130209   6.962   1.269   5.605
10084TIP3    H230210   6.896   1.324   5.730
10085TIP3   OH230211   8.263   7.052   0.135
10085TIP3    H130212   8.203   7.124   0.113
10085TIP3    H230213   8.231   6.978   0.082
10086TIP3   OH230214   5.744   5.201   2.417
10086TIP3    H130215   5.816   5.162   2.368
10086TIP3    H230216   5.684   5.232   2.349
10087TIP3   OH230217   8.059   0.983   4.187
10087TIP3    H130218   8.031   1.057   4.134
10087TIP3    H230219   8.131   0.943   4.138
10088TIP3   OH230220   3.707   1.309   2.720
10088TIP3    H130221   3.612   1.305   2.730
10088TIP3    H230222   3.732   1.391   2.763
10089TIP3   OH230223   0.180   5.555   1.632
10089TIP3    H130224   0.187   5.471   1.587
10089TIP3    H230225   0.119   5.606   1.577
10090TIP3   OH230226   6.959   1.980   5.836
10090TIP3    H130227   6.977   2.045   5.768
10090TIP3    H230228   6.876   2.008   5.874
10091TIP3   OH230229   1.391   4.293   5.818
10091TIP3    H130230   1.381   4.201   5.842
10091TIP3    H230231   1.477   4.299   5.777
10092TIP3   OH230232   1.882   5.234   2.897
10092TIP3    H130233   1.858   5.308   2.841
10092TIP3    H230234   1.802   5.215   2.946
10093TIP3   OH230235   4.058   2.013   4.820
10093TIP3    H130236   4.126   2.068   4.781
10093TIP3    H230237   4.080   2.011   4.914
10094TIP3   OH230238   1.479   1.269   1.680
10094TIP3    H130239   1.553   1.273   1.741
10094TIP3    H230240   1.428   1.348   1.698
10095TIP3   OH230241   2.225   4.166   2.168
10095TIP3    H130242   2.245   4.104   2.098
10095TIP3    H230243   2.309   4.183   2.210
10096TIP3   OH230244   3.184   4.945   0.850
10096TIP3    H130245   3.192   5.018   0.788
10096TIP3    H230246   3.150   4.985   0.930
10097TIP3   OH230247   4.174   1.960   2.094
10097TIP3    H130248   4.267   1.938   2.087
10097TIP3    H230249   4.169   2.053   2.073
10098TIP3   OH230250   3.025   1.176   4.386
10098TIP3    H130251   2.940   1.209   4.359
10098TIP3    H230252   3.038   1.098   4.333
10099TIP3   OH230253   0.976   1.731   2.967
10099TIP3    H130254   0.881   1.748   2.965
10099TIP3    H230255   0.984   1.636   2.958
10100TIP3   OH230256   7.445   6.752   0.960
10100TIP3    H130257   7.362   6.790   0.988
10100TIP3    H230258   7.425   6.659   0.943
10101TIP3   OH230259   0.712   5.260   2.431
10101TIP3    H130260   0.707   5.282   2.524
10101TIP3    H230261   0.802   5.232   2.418
10102TIP3   OH230262   4.874   6.210   6.754
10102TIP3    H130263   4.833   6.224   6.839
10102TIP3    H230264   4.918   6.126   6.762
10103TIP3   OH230265   2.974   2.689   4.989
10103TIP3    H130266   2.930   2.624   5.044
10103TIP3    H230267   3.023   2.743   5.051
10104TIP3   OH230268   2.724   6.662   2.476
10104TIP3    H130269   2.749   6.580   2.518
10104TIP3    H230270   2.630   6.669   2.491
10105TIP3   OH230271   1.807   1.652   0.797
10105TIP3    H130272   1.885   1.699   0.767
10105TIP3    H230273   1.740   1.673   0.731
10106TIP3   OH230274   1.128   2.346   5.102
10106TIP3    H130275   1.212   2.328   5.144
10106TIP3    H230276   1.104   2.265   5.059
10107TIP3   OH230277   2.187   7.588   0.691
10107TIP3    H130278   2.139   7.668   0.712
10107TIP3    H230279   2.179   7.534   0.770
10108TIP3   OH230280   7.263   3.116   2.211
10108TIP3    H130281   7.351   3.082   2.229
10108TIP3    H230282   7.209   3.080   2.281
10109TIP3   OH230283   5.409   7.134   5.394
10109TIP3    H130284   5.356   7.213   5.398
10109TIP3    H230285   5.423   7.119   5.300
10110TIP3   OH230286   4.663   5.235   6.238
10110TIP3    H130287   4.714   5.226   6.158
10110TIP3    H230288   4.715   5.190   6.305
10111TIP3   OH230289   3.329   3.889   1.015
10111TIP3    H130290   3.400   3.862   0.957
10111TIP3    H230291   3.259   3.916   0.956
10112TIP3   OH230292   6.427   2.242   0.041
10112TIP3    H130293   6.484   2.255   0.118
10112TIP3    H230294   6.346   2.205   0.077
10113TIP3   OH230295   7.450   0.175   1.872
10113TIP3    H130296   7.472   0.264   1.899
10113TIP3    H230297   7.394   0.142   1.942
10114TIP3   OH230298   3.460   2.591   1.376
10114TIP3    H130299   3.419   2.551   1.453
10114TIP3    H230300   3.452   2.524   1.308
10115TIP3   OH230301   7.886   6.307   3.211
10115TIP3    H130302   7.794   6.326   3.198
10115TIP3    H230303   7.910   6.250   3.138
10116TIP3   OH230304   2.991   5.915   6.481
10116TIP3    H130305   3.038   5.877   6.555
10116TIP3    H230306   2.957   5.998   6.513
10117TIP3   OH230307   2.545   3.910   5.927
10117TIP3    H130308   2.573   3.972   5.995
10117TIP3    H230309   2.626   3.871   5.894
10118TIP3   OH230310   2.605   4.813   3.765
10118TIP3    H130311   2.522   4.859   3.749
10118TIP3    H230312   2.662   4.879   3.803
10119TIP3   OH230313   5.013   7.624   1.814
10119TIP3    H130314   5.006   7.715   1.843
10119TIP3    H230315   5.098   7.619   1.769
10120TIP3   OH230316   4.929   4.764   2.497
10120TIP3    H130317   4.862   4.819   2.536
10120TIP3    H230318   4.883   4.714   2.429
10121TIP3   OH230319   4.709   2.281   6.175
10121TIP3    H130320   4.792   2.233   6.179
10121TIP3    H230321   4.697   2.314   6.264
10122TIP3   OH230322   4.201   0.255   3.308
10122TIP3    H130323   4.277   0.197   3.319
10122TIP3    H230324   4.197   0.270   3.213
10123TIP3   OH230325   2.407   6.785   6.176
10123TIP3    H130326   2.495   6.816   6.198
10123TIP3    H230327   2.350   6.827   6.241
10124TIP3   OH230328   4.048   0.938   0.209
10124TIP3    H130329   3.957   0.953   0.234
10124TIP3    H230330   4.089   1.024   0.212
10125TIP3   OH230331   1.299   0.849   6.635
10125TIP3    H130332   1.266   0.799   6.709
10125TIP3    H230333   1.347   0.785   6.582
10126TIP3   OH230334   4.841   1.296   3.017
10126TIP3    H130335   4.833   1.391   3.017
10126TIP3    H230336   4.755   1.265   3.045
10127TIP3   OH230337   3.841   3.638   1.818
10127TIP3    H130338   3.879   3.599   1.897
10127TIP3    H230339   3.860   3.731   1.825
10128TIP3   OH230340   1.532   6.333   3.071
10128TIP3    H130341   1.607   6.283   3.036
10128TIP3    H230342   1.489   6.367   2.993
10129TIP3   OH230343   5.574   7.086   0.792
10129TIP3    H130344   5.563   7.004   0.840
10129TIP3    H230345   5.494   7.094   0.740
10130TIP3   OH230346   1.689   2.246   1.984
10130TIP3    H130347   1.696   2.157   2.019
10130TIP3    H230348   1.635   2.293   2.048
10131TIP3   OH230349   0.719   5.530   6.546
10131TIP3    H130350   0.702   5.496   6.634
10131TIP3    H230351   0.651   5.596   6.531
10132TIP3   OH230352   5.004   1.337   0.336
10132TIP3    H130353   5.022   1.247   0.307
10132TIP3    H230354   5.069   1.390   0.289
10133TIP3   OH230355   8.092   2.606   0.531
10133TIP3    H130356   8.045   2.688   0.517
10133TIP3    H230357   8.052   2.567   0.608
10134TIP3   OH230358   0.920   1.829   1.645
10134TIP3    H130359   0.967   1.783   1.575
10134TIP3    H230360   0.947   1.784   1.725
10135TIP3   OH230361   5.500   4.077   3.945
10135TIP3    H130362   5.456   4.140   4.003
10135TIP3    H230363   5.457   4.089   3.860
10136TIP3   OH230364   7.132   1.531   1.429
10136TIP3    H130365   7.059   1.536   1.368
10136TIP3    H230366   7.200   1.587   1.390
10137TIP3   OH230367   6.493   4.734   4.024
10137TIP3    H130368   6.512   4.644   3.996
10137TIP3    H230369   6.575   4.764   4.063
10138TIP3   OH230370   5.269   2.181   3.045
10138TIP3    H130371   5.311   2.102   3.079
10138TIP3    H230372   5.178   2.173   3.074
10139TIP3   OH230373   0.130   3.361   1.340
10139TIP3    H130374   0.102   3.394   1.255
10139TIP3    H230375   0.065   3.395   1.402
10140TIP3   OH230376   0.873   1.804   6.414
10140TIP3    H130377   0.841   1.828   6.327
10140TIP3    H230378   0.934   1.874   6.437
10141TIP3   OH230379   4.324   1.240   3.071
10141TIP3    H130380   4.260   1.271   3.008
10141TIP3    H230381   4.281   1.250   3.156
10142TIP3   OH230382   0.470   0.914   6.248
10142TIP3    H130383   0.403   0.859   6.207
10142TIP3    H230384   0.442   0.921   6.339
10143TIP3   OH230385   2.447   3.029   6.239
10143TIP3    H130386   2.464   3.122   6.225
10143TIP3    H230387   2.408   3.025   6.326
10144TIP3   OH230388   6.173   6.070   4.684
10144TIP3    H130389   6.157   6.029   4.599
10144TIP3    H230390   6.184   6.163   4.664
10145TIP3   OH230391   3.784   2.801   2.848
10145TIP3    H130392   3.877   2.825   2.844
10145TIP3    H230393   3.785   2.707   2.865
10146TIP3   OH230394   6.255   5.334   5.008
10146TIP3    H130395   6.327   5.381   4.966
10146TIP3    H230396   6.212   5.399   5.063
10147TIP3   OH230397   2.870   3.458   2.755
10147TIP3    H130398   2.938   3.514   2.717
10147TIP3    H230399   2.833   3.510   2.825
10148TIP3   OH230400   8.345   0.156   4.988
10148TIP3    H130401   8.308   0.068   4.982
10148TIP3    H230402   8.349   0.175   5.082
10149TIP3   OH230403   1.101   4.087   1.010
10149TIP3    H130404   1.037   4.140   0.963
10149TIP3    H230405   1.072   3.997   0.998
10150TIP3   OH230406   7.246   2.569   5.633
10150TIP3    H130407   7.303   2.618   5.574
10150TIP3    H230408   7.219   2.633   5.699
10151TIP3   OH230409   2.522   4.444   2.363
10151TIP3    H130410   2.462   4.439   2.438
10151TIP3    H230411   2.556   4.355   2.354
10152TIP3   OH230412   1.510   6.321   1.293
10152TIP3    H130413   1.464   6.369   1.363
10152TIP3    H230414   1.462   6.344   1.213
10153TIP3   OH230415   0.878   4.805   5.128
10153TIP3    H130416   0.963   4.781   5.089
10153TIP3    H230417   0.816   4.744   5.089
10154TIP3   OH230418   5.866   7.250   3.242
10154TIP3    H130419   5.881   7.340   3.211
10154TIP3    H230420   5.817   7.209   3.171
10155TIP3   OH230421   2.183   1.935   1.197
10155TIP3    H130422   2.143   1.853   1.226
10155TIP3    H230423   2.266   1.939   1.245
10156TIP3   OH230424   4.136   6.269   3.011
10156TIP3    H130425   4.097   6.255   3.098
10156TIP3    H230426   4.172   6.357   3.015
10157TIP3   OH230427   1.490   7.100   6.132
10157TIP3    H130428   1.582   7.080   6.115
10157TIP3    H230429   1.455   7.123   6.046
10158TIP3   OH230430   4.592   4.575   2.232
10158TIP3    H130431   4.553   4.637   2.294
10158TIP3    H230432   4.672   4.545   2.275
10159TIP3   OH230433   0.046   0.103   3.789
10159TIP3    H130434  -0.010   0.073   3.717
10159TIP3    H230435   0.133   0.070   3.768
10160TIP3   OH230436   6.159   6.128   0.416
10160TIP3    H130437   6.240   6.114   0.465
10160TIP3    H230438   6.095   6.154   0.482
10161TIP3   OH230439   6.203   5.276   4.235
10161TIP3    H130440   6.248   5.277   4.319
10161TIP3    H230441   6.117   5.312   4.253
10162TIP3   OH230442   2.168   5.965   0.192
10162TIP3    H130443   2.205   6.030   0.252
10162TIP3    H230444   2.102   6.014   0.142
10163TIP3   OH230445   5.966   1.020   6.183
10163TIP3    H130446   5.896   0.957   6.164
10163TIP3    H230447   6.026   0.972   6.240
10164TIP3   OH230448   1.810   1.273   1.450
10164TIP3    H130449   1.753   1.196   1.443
10164TIP3    H230450   1.757   1.337   1.499
10165TIP3   OH230451   1.507   4.161   3.351
10165TIP3    H130452   1.502   4.254   3.372
10165TIP3    H230453   1.584   4.152   3.296
10166TIP3   OH230454   6.193   2.143   2.822
10166TIP3    H130455   6.162   2.080   2.887
10166TIP3    H230456   6.207   2.091   2.743
10167TIP3   OH230457   6.304   4.722   3.191
10167TIP3    H130458   6.294   4.811   3.226
10167TIP3    H230459   6.279   4.729   3.100
10168TIP3   OH230460   3.780   3.101   6.283
10168TIP3    H130461   3.825   3.040   6.341
10168TIP3    H230462   3.700   3.055   6.257
10169TIP3   OH230463   7.105   3.955   2.312
10169TIP3    H130464   7.020   3.980   2.350
10169TIP3    H230465   7.088   3.948   2.218
10170TIP3   OH230466   8.002   2.540   3.141
10170TIP3    H130467   7.950   2.497   3.210
10170TIP3    H230468   7.958   2.623   3.126
10171TIP3   OH230469   3.814   2.546   2.914
10171TIP3    H130470   3.892   2.490   2.914
10171TIP3    H230471   3.786   2.547   3.005
10172TIP3   OH230472   5.952   4.271   2.011
10172TIP3    H130473   5.858   4.266   1.994
10172TIP3    H230474   5.959   4.285   2.105
10173TIP3   OH230475   3.698   6.080   5.430
10173TIP3    H130476   3.608   6.102   5.454
10173TIP3    H230477   3.691   6.001   5.377
10174TIP3   OH230478   0.672   7.297   5.995
10174TIP3    H130479   0.642   7.363   5.932
10174TIP3    H230480   0.690   7.220   5.941
10175TIP3   OH230481   7.731   3.503   6.431
10175TIP3    H130482   7.669   3.575   6.437
10175TIP3    H230483   7.678   3.428   6.405
10176TIP3   OH230484   4.063   4.236   3.260
10176TIP3    H130485   4.039   4.273   3.345
10176TIP3    H230486   4.125   4.299   3.223
10177TIP3   OH230487   4.910   1.535   6.576
10177TIP3    H130488   4.866   1.506   6.656
10177TIP3    H230489   4.979   1.471   6.561
10178TIP3   OH230490   0.648   1.046   2.867
10178TIP3    H130491   0.557   1.019   2.878
10178TIP3    H230492   0.644   1.142   2.859
10179TIP3   OH230493   2.763   7.689   0.800
10179TIP3    H130494   2.825   7.627   0.837
10179TIP3    H230495   2.761   7.668   0.706
10180TIP3   OH230496   3.502   4.991   2.947
10180TIP3    H130497   3.492   4.907   2.992
10180TIP3    H230498   3.435   5.047   2.986
10181TIP3   OH230499   2.767   4.368   6.442
10181TIP3    H130500   2.800   4.455   6.459
10181TIP3    H230501   2.780   4.355   6.347
10182TIP3   OH230502   4.280   5.113   2.754
10182TIP3    H130503   4.280   5.194   2.704
10182TIP3    H230504   4.187   5.092   2.766
10183TIP3   OH230505   1.906   2.457   3.867
10183TIP3    H130506   1.910   2.440   3.961
10183TIP3    H230507   1.833   2.518   3.857
10184TIP3   OH230508   4.002   0.151   5.232
10184TIP3    H130509   4.043   0.199   5.305
10184TIP3    H230510   3.972   0.219   5.172
10185TIP3   OH230511   5.132   1.494   2.995
10185TIP3    H130512   5.095   1.453   3.073
10185TIP3    H230513   5.102   1.585   2.998
10186TIP3   OH230514   2.484   7.343   5.855
10186TIP3    H130515   2.552   7.298   5.804
10186TIP3    H230516   2.430   7.272   5.889
10187TIP3   OH230517   0.646   3.604   0.632
10187TIP3    H130518   0.571   3.643   0.677
10187TIP3    H230519   0.632   3.627   0.540
10188TIP3   OH230520   1.837   0.731   2.265
10188TIP3    H130521   1.832   0.822   2.293
10188TIP3    H230522   1.871   0.684   2.341
10189TIP3   OH230523   5.732   0.765   0.965
10189TIP3    H130524   5.727   0.840   1.024
10189TIP3    H230525   5.687   0.793   0.886
10190TIP3   OH230526   1.686   5.007   2.262
10190TIP3    H130527   1.707   5.024   2.170
10190TIP3    H230528   1.705   5.090   2.306
10191TIP3   OH230529   1.991   2.139   6.346
10191TIP3    H130530   2.017   2.230   6.330
10191TIP3    H230531   1.954   2.140   6.434
10192TIP3   OH230532   7.767   2.215   3.929
10192TIP3    H130533   7.836   2.196   3.992
10192TIP3    H230534   7.809   2.207   3.844
10193TIP3   OH230535   7.492   6.545   6.269
10193TIP3    H130536   7.495   6.625   6.322
10193TIP3    H230537   7.414   6.555   6.215
10194TIP3   OH230538   0.680   5.000   2.353
10194TIP3    H130539   0.696   5.092   2.374
10194TIP3    H230540   0.725   4.952   2.422
10195TIP3   OH230541   2.959   4.917   6.114
10195TIP3    H130542   2.878   4.949   6.075
10195TIP3    H230543   3.028   4.968   6.072
10196TIP3   OH230544   7.545   4.707   2.696
10196TIP3    H130545   7.473   4.702   2.632
10196TIP3    H230546   7.612   4.649   2.661
10197TIP3   OH230547   1.314   2.712   1.519
10197TIP3    H130548   1.368   2.791   1.512
10197TIP3    H230549   1.298   2.687   1.428
10198TIP3   OH230550   2.530   0.204   0.404
10198TIP3    H130551   2.449   0.235   0.444
10198TIP3    H230552   2.581   0.283   0.387
10199TIP3   OH230553   1.549   6.215   2.304
10199TIP3    H130554   1.622   6.277   2.301
10199TIP3    H230555   1.507   6.223   2.218
10200TIP3   OH230556   0.895   4.251   5.753
10200TIP3    H130557   0.922   4.248   5.661
10200TIP3    H230558   0.970   4.217   5.801
10201TIP3   OH230559   3.441   5.960   0.292
10201TIP3    H130560   3.351   5.959   0.325
10201TIP3    H230561   3.493   5.996   0.364
10202TIP3   OH230562   4.415   3.853   0.981
10202TIP3    H130563   4.501   3.894   0.992
10202TIP3    H230564   4.425   3.797   0.904
10203TIP3   OH230565   4.462   2.271   0.562
10203TIP3    H130566   4.516   2.348   0.544
10203TIP3    H230567   4.519   2.212   0.611
10204TIP3   OH230568   3.545   0.803   2.897
10204TIP3    H130569   3.553   0.897   2.881
10204TIP3    H230570   3.614   0.764   2.843
10205TIP3   OH230571   2.755   2.722   3.330
10205TIP3    H130572   2.806   2.727   3.410
10205TIP3    H230573   2.818   2.743   3.260
10206TIP3   OH230574   6.723   1.465   4.212
10206TIP3    H130575   6.722   1.453   4.117
10206TIP3    H230576   6.758   1.382   4.246
10207TIP3   OH230577   5.566   1.346   4.039
10207TIP3    H130578   5.631   1.356   3.970
10207TIP3    H230579   5.579   1.258   4.073
10208TIP3   OH230580   6.436   3.715   1.265
10208TIP3    H130581   6.463   3.641   1.210
10208TIP3    H230582   6.466   3.691   1.353
10209TIP3   OH230583   2.539   0.476   2.912
10209TIP3    H130584   2.515   0.383   2.901
10209TIP3    H230585   2.629   0.481   2.881
10210TIP3   OH230586   1.243   2.525   4.036
10210TIP3    H130587   1.297   2.505   3.959
10210TIP3    H230588   1.300   2.507   4.111
10211TIP3   OH230589   5.610   1.949   1.003
10211TIP3    H130590   5.583   1.867   1.043
10211TIP3    H230591   5.655   1.997   1.072
10212TIP3   OH230592   2.767   2.823   6.000
10212TIP3    H130593   2.754   2.844   5.907
10212TIP3    H230594   2.746   2.904   6.046
10213TIP3   OH230595   2.834   5.834   6.287
10213TIP3    H130596   2.763   5.781   6.324
10213TIP3    H230597   2.897   5.843   6.359
10214TIP3   OH230598   6.008   7.030   0.781
10214TIP3    H130599   5.930   7.057   0.733
10214TIP3    H230600   5.986   6.942   0.813
10215TIP3   OH230601   6.363   4.784   1.934
10215TIP3    H130602   6.389   4.875   1.922
10215TIP3    H230603   6.344   4.777   2.028
10216TIP3   OH230604   2.558   5.715   0.999
10216TIP3    H130605   2.539   5.630   1.039
10216TIP3    H230606   2.549   5.699   0.905
10217TIP3   OH230607   2.045   6.938   1.344
10217TIP3    H130608   1.983   6.986   1.398
10217TIP3    H230609   2.054   6.853   1.388
10218TIP3   OH230610   7.279   3.334   4.078
10218TIP3    H130611   7.190   3.366   4.069
10218TIP3    H230612   7.280   3.251   4.031
10219TIP3   OH230613   0.509   3.094   6.528
10219TIP3    H130614   0.510   3.102   6.433
10219TIP3    H230615   0.420   3.121   6.553
10220TIP3   OH230616   7.538   3.193   2.431
10220TIP3    H130617   7.632   3.211   2.420
10220TIP3    H230618   7.523   3.113   2.381
10221TIP3   OH230619   5.847   5.392   2.120
10221TIP3    H130620   5.861   5.357   2.033
10221TIP3    H230621   5.757   5.369   2.142
10222TIP3   OH230622   1.826   0.134   4.214
10222TIP3    H130623   1.830   0.196   4.286
10222TIP3    H230624   1.871   0.056   4.247
10223TIP3   OH230625   1.734   1.032   2.214
10223TIP3    H130626   1.792   1.102   2.185
10223TIP3    H230627   1.702   0.992   2.132
10224TIP3   OH230628   4.457   6.675   1.292
10224TIP3    H130629   4.368   6.651   1.317
10224TIP3    H230630   4.469   6.636   1.205
10225TIP3   OH230631   7.528   1.248   0.870
10225TIP3    H130632   7.528   1.153   0.859
10225TIP3    H230633   7.615   1.275   0.842
10226TIP3   OH230634   3.924   0.296   3.379
10226TIP3    H130635   4.019   0.283   3.375
10226TIP3    H230636   3.897   0.307   3.287
10227TIP3   OH230637   5.180   0.697   2.693
10227TIP3    H130638   5.139   0.624   2.647
10227TIP3    H230639   5.155   0.774   2.643
10228TIP3   OH230640   7.626   4.582   0.354
10228TIP3    H130641   7.636   4.602   0.262
10228TIP3    H230642   7.716   4.578   0.388
10229TIP3   OH230643   6.942   2.746   4.205
10229TIP3    H130644   6.869   2.757   4.265
10229TIP3    H230645   7.007   2.696   4.255
10230TIP3   OH230646   7.736   4.576   5.059
10230TIP3    H130647   7.802   4.528   5.009
10230TIP3    H230648   7.771   4.579   5.148
10231TIP3   OH230649   6.283   7.058   0.752
10231TIP3    H130650   6.189   7.046   0.767
10231TIP3    H230651   6.296   7.028   0.662
10232TIP3   OH230652   5.754   7.423   3.647
10232TIP3    H130653   5.794   7.347   3.604
10232TIP3    H230654   5.662   7.420   3.621
10233TIP3   OH230655   2.063   5.980   4.047
10233TIP3    H130656   2.104   5.894   4.045
10233TIP3    H230657   2.018   5.989   3.963
10234TIP3   OH230658   7.888   6.186   2.945
10234TIP3    H130659   7.869   6.111   3.001
10234TIP3    H230660   7.802   6.215   2.913
10235TIP3   OH230661   7.154   6.868   0.796
10235TIP3    H130662   7.144   6.960   0.775
10235TIP3    H230663   7.157   6.864   0.891
10236TIP3   OH230664   7.365   2.954   4.680
10236TIP3    H130665   7.318   2.934   4.761
10236TIP3    H230666   7.350   3.048   4.666
10237TIP3   OH230667   3.479   1.888   0.368
10237TIP3    H130668   3.482   1.967   0.421
10237TIP3    H230669   3.404   1.902   0.310
10238TIP3   OH230670   1.024   0.661   3.147
10238TIP3    H130671   0.952   0.621   3.099
10238TIP3    H230672   0.997   0.752   3.159
10239TIP3   OH230673   2.448   5.318   5.194
10239TIP3    H130674   2.457   5.342   5.286
10239TIP3    H230675   2.359   5.344   5.171
10240TIP3   OH230676   3.333   2.857   0.143
10240TIP3    H130677   3.251   2.905   0.158
10240TIP3    H230678   3.401   2.925   0.143
10241TIP3   OH230679   0.200   4.815   6.373
10241TIP3    H130680   0.252   4.856   6.304
10241TIP3    H230681   0.218   4.869   6.451
10242TIP3   OH230682   5.556   6.520   0.373
10242TIP3    H130683   5.528   6.611   0.369
10242TIP3    H230684   5.649   6.525   0.397
10243TIP3   OH230685   2.212   1.415   0.207
10243TIP3    H130686   2.262   1.348   0.254
10243TIP3    H230687   2.274   1.452   0.145
10244TIP3   OH230688   6.415   6.085   0.498
10244TIP3    H130689   6.415   5.990   0.484
10244TIP3    H230690   6.490   6.116   0.447
10245TIP3   OH230691   8.215   1.381   4.873
10245TIP3    H130692   8.287   1.376   4.809
10245TIP3    H230693   8.250   1.339   4.952
10246TIP3   OH230694   1.583   4.964   0.605
10246TIP3    H130695   1.516   5.031   0.617
10246TIP3    H230696   1.537   4.881   0.623
10247TIP3   OH230697   2.434   4.328   5.793
10247TIP3    H130698   2.399   4.284   5.871
10247TIP3    H230699   2.526   4.342   5.813
10248TIP3   OH230700   7.942   6.782   0.354
10248TIP3    H130701   7.910   6.866   0.320
10248TIP3    H230702   8.037   6.792   0.357
10249TIP3   OH230703   5.785   2.274   3.782
10249TIP3    H130704   5.704   2.224   3.767
10249TIP3    H230705   5.767   2.323   3.862
10250TIP3   OH230706   1.209   7.743   0.559
10250TIP3    H130707   1.131   7.764   0.509
10250TIP3    H230708   1.266   7.697   0.497
10251TIP3   OH230709   5.180   3.447   5.491
10251TIP3    H130710   5.215   3.373   5.442
10251TIP3    H230711   5.154   3.511   5.424
10252TIP3   OH230712   2.114   2.105   1.503
10252TIP3    H130713   2.086   2.096   1.594
10252TIP3    H230714   2.036   2.138   1.458
10253TIP3   OH230715   3.044   7.219   5.904
10253TIP3    H130716   3.109   7.213   5.834
10253TIP3    H230717   3.095   7.218   5.984
10254TIP3   OH230718   2.757   5.404   6.594
10254TIP3    H130719   2.676   5.367   6.562
10254TIP3    H230720   2.790   5.341   6.658
10255TIP3   OH230721   3.041   7.024   4.390
10255TIP3    H130722   3.005   7.013   4.303
10255TIP3    H230723   3.087   6.942   4.408
10256TIP3   OH230724   3.137   2.285   0.168
10256TIP3    H130725   3.203   2.290   0.099
10256TIP3    H230726   3.169   2.346   0.235
10257TIP3   OH230727   3.324   0.574   0.212
10257TIP3    H130728   3.230   0.568   0.227
10257TIP3    H230729   3.354   0.640   0.275
10258TIP3   OH230730   0.629   6.368   4.767
10258TIP3    H130731   0.591   6.335   4.849
10258TIP3    H230732   0.621   6.463   4.773
10259TIP3   OH230733   5.986   7.580   3.589
10259TIP3    H130734   5.922   7.509   3.581
10259TIP3    H230735   6.070   7.535   3.598
10260TIP3   OH230736   0.852   4.993   6.553
10260TIP3    H130737   0.915   4.979   6.483
10260TIP3    H230738   0.849   5.088   6.565
10261TIP3   OH230739   3.314   5.388   4.990
10261TIP3    H130740   3.364   5.321   4.944
10261TIP3    H230741   3.245   5.412   4.928
10262TIP3   OH230742   2.107   6.265   1.010
10262TIP3    H130743   2.180   6.217   1.048
10262TIP3    H230744   2.054   6.293   1.085
10263TIP3   OH230745   1.953   6.249   5.061
10263TIP3    H130746   1.984   6.187   4.995
10263TIP3    H230747   1.860   6.262   5.040
10264TIP3   OH230748   7.453   3.753   3.665
10264TIP3    H130749   7.420   3.693   3.598
10264TIP3    H230750   7.536   3.784   3.630
10265TIP3   OH230751   5.229   1.027   4.618
10265TIP3    H130752   5.152   1.038   4.562
10265TIP3    H230753   5.292   1.092   4.585
10266TIP3   OH230754   5.582   6.450   3.799
10266TIP3    H130755   5.627   6.483   3.721
10266TIP3    H230756   5.550   6.363   3.774
10267TIP3   OH230757   1.377   1.785   2.298
10267TIP3    H130758   1.405   1.857   2.242
10267TIP3    H230759   1.457   1.755   2.340
10268TIP3   OH230760   5.273   1.849   0.925
10268TIP3    H130761   5.242   1.808   0.844
10268TIP3    H230762   5.329   1.783   0.965
10269TIP3   OH230763   4.489   3.794   0.725
10269TIP3    H130764   4.410   3.745   0.701
10269TIP3    H230765   4.499   3.859   0.656
10270TIP3   OH230766   7.977   0.963   1.209
10270TIP3    H130767   7.918   1.008   1.269
10270TIP3    H230768   7.959   1.001   1.124
10271TIP3   OH230769   4.107   3.874   3.954
10271TIP3    H130770   4.110   3.799   4.013
10271TIP3    H230771   4.067   3.841   3.874
10272TIP3   OH230772   4.567   0.120   4.692
10272TIP3    H130773   4.589   0.150   4.604
10272TIP3    H230774   4.634   0.054   4.712
10273TIP3   OH230775   2.148   5.994   2.358
10273TIP3    H130776   2.165   6.066   2.296
10273TIP3    H230777   2.137   5.917   2.302
10274TIP3   OH230778   5.149   4.266   6.111
10274TIP3    H130779   5.179   4.194   6.167
10274TIP3    H230780   5.071   4.299   6.155
10275TIP3   OH230781   4.565   2.070   5.300
10275TIP3    H130782   4.477   2.100   5.323
10275TIP3    H230783   4.589   2.121   5.223
10276TIP3   OH230784   6.768   3.385   3.429
10276TIP3    H130785   6.742   3.472   3.460
10276TIP3    H230786   6.687   3.347   3.395
10277TIP3   OH230787   1.576   1.309   0.637
10277TIP3    H130788   1.512   1.240   0.619
10277TIP3    H230789   1.651   1.286   0.583
10278TIP3   OH230790   6.259   2.882   0.848
10278TIP3    H130791   6.206   2.860   0.772
10278TIP3    H230792   6.301   2.800   0.873
10279TIP3   OH230793   2.668   7.398   5.427
10279TIP3    H130794   2.590   7.356   5.464
10279TIP3    H230795   2.737   7.332   5.435
10280TIP3   OH230796   1.493   7.586   5.174
10280TIP3    H130797   1.438   7.600   5.097
10280TIP3    H230798   1.466   7.500   5.207
10281TIP3   OH230799   3.270   3.945   2.300
10281TIP3    H130800   3.228   3.910   2.222
10281TIP3    H230801   3.250   4.039   2.299
10282TIP3   OH230802   3.434   1.386   3.174
10282TIP3    H130803   3.369   1.378   3.104
10282TIP3    H230804   3.478   1.469   3.157
10283TIP3   OH230805   4.991   2.560   6.638
10283TIP3    H130806   5.004   2.561   6.733
10283TIP3    H230807   5.061   2.504   6.605
10284TIP3   OH230808   8.093   2.476   6.274
10284TIP3    H130809   8.033   2.534   6.321
10284TIP3    H230810   8.096   2.510   6.185
10285TIP3   OH230811   7.953   5.571   2.262
10285TIP3    H130812   7.960   5.475   2.267
10285TIP3    H230813   7.880   5.587   2.203
10286TIP3   OH230814   3.364   2.065   3.748
10286TIP3    H130815   3.445   2.094   3.790
10286TIP3    H230816   3.338   1.987   3.798
10287TIP3   OH230817   4.710   7.340   3.011
10287TIP3    H130818   4.651   7.355   3.085
10287TIP3    H230819   4.701   7.418   2.957
10288TIP3   OH230820   5.460   4.239   5.904
10288TIP3    H130821   5.420   4.321   5.931
10288TIP3    H230822   5.472   4.248   5.810
10289TIP3   OH230823   7.279   7.631   5.820
10289TIP3    H130824   7.372   7.636   5.845
10289TIP3    H230825   7.232   7.664   5.897
10290TIP3   OH230826   3.963   6.528   1.741
10290TIP3    H130827   4.009   6.581   1.676
10290TIP3    H230828   3.874   6.564   1.743
10291TIP3   OH230829   4.129   3.997   3.456
10291TIP3    H130830   4.086   3.988   3.371
10291TIP3    H230831   4.183   4.075   3.449
10292TIP3   OH230832   3.707   5.085   6.127
10292TIP3    H130833   3.712   5.084   6.031
10292TIP3    H230834   3.796   5.064   6.155
10293TIP3   OH230835   6.790   5.588   4.655
10293TIP3    H130836   6.766   5.582   4.748
10293TIP3    H230837   6.803   5.681   4.639
10294TIP3   OH230838   0.845   6.289   6.002
10294TIP3    H130839   0.934   6.293   6.037
10294TIP3    H230840   0.790   6.274   6.079
10295TIP3   OH230841   0.607   2.722   5.450
10295TIP3    H130842   0.520   2.737   5.414
10295TIP3    H230843   0.644   2.653   5.395
10296TIP3   OH230844   0.341   5.507   1.260
10296TIP3    H130845   0.260   5.479   1.305
10296TIP3    H230846   0.310   5.555   1.184
10297TIP3   OH230847   4.340   0.677   0.956
10297TIP3    H130848   4.422   0.703   0.999
10297TIP3    H230849   4.350   0.706   0.866
10298TIP3   OH230850   1.131   4.681   5.059
10298TIP3    H130851   1.078   4.672   4.980
10298TIP3    H230852   1.184   4.759   5.044
10299TIP3   OH230853   3.184   6.610   2.919
10299TIP3    H130854   3.184   6.674   2.991
10299TIP3    H230855   3.149   6.530   2.959
10300TIP3   OH230856   5.311   6.997   4.599
10300TIP3    H130857   5.227   6.999   4.643
10300TIP3    H230858   5.300   6.934   4.528
10301TIP3   OH230859   2.498   2.191   3.269
10301TIP3    H130860   2.509   2.152   3.355
10301TIP3    H230861   2.538   2.129   3.208
10302TIP3   OH230862   2.366   4.966   1.012
10302TIP3    H130863   2.416   4.889   1.041
10302TIP3    H230864   2.306   4.932   0.945
10303TIP3   OH230865   3.502   2.855   1.667
10303TIP3    H130866   3.549   2.791   1.720
10303TIP3    H230867   3.567   2.922   1.647
10304TIP3   OH230868   3.318   6.620   3.383
10304TIP3    H130869   3.398   6.594   3.429
10304TIP3    H230870   3.252   6.627   3.452
10305TIP3   OH230871   1.459   1.042   5.592
10305TIP3    H130872   1.412   1.123   5.572
10305TIP3    H230873   1.391   0.977   5.606
10306TIP3   OH230874   5.721   0.945   3.213
10306TIP3    H130875   5.806   0.920   3.248
10306TIP3    H230876   5.675   0.861   3.200
10307TIP3   OH230877   1.099   1.434   4.664
10307TIP3    H130878   1.191   1.416   4.682
10307TIP3    H230879   1.053   1.399   4.740
10308TIP3   OH230880   5.032   4.357   3.872
10308TIP3    H130881   5.024   4.412   3.794
10308TIP3    H230882   5.116   4.383   3.911
10309TIP3   OH230883   3.971   6.730   6.188
10309TIP3    H130884   3.940   6.820   6.196
10309TIP3    H230885   4.065   6.736   6.209
10310TIP3   OH230886   2.754   3.148   5.855
10310TIP3    H130887   2.793   3.162   5.768
10310TIP3    H230888   2.662   3.129   5.837
10311TIP3   OH230889   2.402   6.492   5.037
10311TIP3    H130890   2.350   6.527   5.110
10311TIP3    H230891   2.420   6.567   4.981
10312TIP3   OH230892   4.628   7.759   2.216
10312TIP3    H130893   4.689   7.832   2.232
10312TIP3    H230894   4.680   7.681   2.234
10313TIP3   OH230895   0.047   7.082   5.084
10313TIP3    H130896   0.051   7.149   5.152
10313TIP3    H230897   0.013   7.129   5.007
10314TIP3   OH230898   0.726   7.386   4.672
10314TIP3    H130899   0.768   7.439   4.605
10314TIP3    H230900   0.666   7.329   4.623
10315TIP3   OH230901   5.108   1.013   4.854
10315TIP3    H130902   5.151   1.010   4.768
10315TIP3    H230903   5.037   0.948   4.847
10316TIP3   OH230904   4.961   5.513   3.721
10316TIP3    H130905   4.953   5.607   3.734
10316TIP3    H230906   5.007   5.481   3.799
10317TIP3   OH230907   7.881   5.891   2.093
10317TIP3    H130908   7.837   5.813   2.127
10317TIP3    H230909   7.922   5.862   2.012
10318TIP3   OH230910   7.783   2.391   6.472
10318TIP3    H130911   7.850   2.336   6.433
10318TIP3    H230912   7.802   2.479   6.440
10319TIP3   OH230913   5.350   5.359   4.303
10319TIP3    H130914   5.307   5.273   4.305
10319TIP3    H230915   5.309   5.408   4.374
10320TIP3   OH230916   3.018   5.554   2.463
10320TIP3    H130917   2.933   5.594   2.483
10320TIP3    H230918   3.042   5.590   2.379
10321TIP3   OH230919   6.204   6.309   3.714
10321TIP3    H130920   6.120   6.272   3.739
10321TIP3    H230921   6.186   6.357   3.633
10322TIP3   OH230922   8.115   2.616   4.381
10322TIP3    H130923   8.084   2.547   4.322
10322TIP3    H230924   8.043   2.628   4.443
10323TIP3   OH230925   3.362   6.189   4.163
10323TIP3    H130926   3.389   6.267   4.211
10323TIP3    H230927   3.331   6.129   4.232
10324TIP3   OH230928   0.628   1.936   5.094
10324TIP3    H130929   0.659   1.976   5.013
10324TIP3    H230930   0.682   1.976   5.163
10325TIP3   OH230931   3.123   6.702   3.207
10325TIP3    H130932   3.049   6.643   3.223
10325TIP3    H230933   3.188   6.677   3.273
10326TIP3   OH230934   0.445   1.638   0.600
10326TIP3    H130935   0.477   1.668   0.515
10326TIP3    H230936   0.370   1.583   0.579
10327TIP3   OH230937   6.108   0.626   3.751
10327TIP3    H130938   6.090   0.698   3.811
10327TIP3    H230939   6.069   0.654   3.668
10328TIP3   OH230940   3.397   6.441   5.839
10328TIP3    H130941   3.404   6.403   5.927
10328TIP3    H230942   3.487   6.460   5.814
10329TIP3   OH230943   0.082   7.608   5.885
10329TIP3    H130944   0.135   7.530   5.904
10329TIP3    H230945   0.117   7.675   5.943
10330TIP3   OH230946   7.280   6.894   5.477
10330TIP3    H130947   7.206   6.905   5.537
10330TIP3    H230948   7.336   6.830   5.520
10331TIP3   OH230949   7.023   5.499   6.388
10331TIP3    H130950   6.967   5.427   6.418
10331TIP3    H230951   7.017   5.496   6.293
10332TIP3   OH230952   3.333   3.262   3.961
10332TIP3    H130953   3.244   3.294   3.944
10332TIP3    H230954   3.321   3.187   4.018
10333TIP3   OH230955   1.315   6.859   0.915
10333TIP3    H130956   1.299   6.784   0.858
10333TIP3    H230957   1.391   6.834   0.968
10334TIP3   OH230958   3.900   6.967   4.030
10334TIP3    H130959   3.942   6.884   4.007
10334TIP3    H230960   3.969   7.017   4.074
10335TIP3   OH230961   0.988   1.485   2.319
10335TIP3    H130962   0.997   1.533   2.401
10335TIP3    H230963   0.997   1.393   2.344
10336TIP3   OH230964   6.857   6.694   5.284
10336TIP3    H130965   6.926   6.631   5.304
10336TIP3    H230966   6.892   6.779   5.312
10337TIP3   OH230967   4.294   0.962   3.975
10337TIP3    H130968   4.340   0.893   3.926
10337TIP3    H230969   4.350   0.977   4.051
10338TIP3   OH230970   0.651   0.054   0.378
10338TIP3    H130971   0.620  -0.016   0.436
10338TIP3    H230972   0.724   0.094   0.425
10339TIP3   OH230973   1.385   0.721   1.527
10339TIP3    H130974   1.373   0.784   1.597
10339TIP3    H230975   1.303   0.724   1.477
10340TIP3   OH230976   7.196   0.897   4.568
10340TIP3    H130977   7.146   0.953   4.509
10340TIP3    H230978   7.279   0.943   4.580
10341TIP3   OH230979   1.387   1.491   4.965
10341TIP3    H130980   1.364   1.542   4.887
10341TIP3    H230981   1.455   1.431   4.936
10342TIP3   OH230982   3.305   4.428   3.108
10342TIP3    H130983   3.373   4.468   3.163
10342TIP3    H230984   3.354   4.385   3.038
10343TIP3   OH230985   4.275   5.504   1.436
10343TIP3    H130986   4.283   5.414   1.406
10343TIP3    H230987   4.355   5.547   1.405
10344TIP3   OH230988   0.171   6.699   0.114
10344TIP3    H130989   0.098   6.698   0.052
10344TIP3    H230990   0.218   6.617   0.098
10345TIP3   OH230991   4.541   4.664   4.608
10345TIP3    H130992   4.464   4.623   4.571
10345TIP3    H230993   4.615   4.621   4.565
10346TIP3   OH230994   7.673   1.651   5.187
10346TIP3    H130995   7.740   1.604   5.137
10346TIP3    H230996   7.654   1.594   5.261
10347TIP3   OH230997   5.096   4.814   3.629
10347TIP3    H130998   5.042   4.843   3.556
10347TIP3    H230999   5.100   4.719   3.621
10348TIP3   OH231000   6.312   0.247   4.521
10348TIP3    H131001   6.385   0.188   4.540
10348TIP3    H231002   6.347   0.335   4.537
10349TIP3   OH231003   2.101   3.272   5.480
10349TIP3    H131004   2.023   3.320   5.452
10349TIP3    H231005   2.162   3.341   5.509
10350TIP3   OH231006   4.740   5.162   0.504
10350TIP3    H131007   4.692   5.239   0.474
10350TIP3    H231008   4.692   5.132   0.581
10351TIP3   OH231009   6.228   1.625   2.370
10351TIP3    H131010   6.323   1.627   2.355
10351TIP3    H231011   6.219   1.604   2.463
10352TIP3   OH231012   0.392   0.690   0.796
10352TIP3    H131013   0.454   0.682   0.724
10352TIP3    H231014   0.307   0.704   0.754
10353TIP3   OH231015   5.785   3.604   4.952
10353TIP3    H131016   5.803   3.614   5.046
10353TIP3    H231017   5.864   3.638   4.909
10354TIP3   OH231018   3.472   1.274   3.615
10354TIP3    H131019   3.463   1.298   3.708
10354TIP3    H231020   3.565   1.258   3.603
10355TIP3   OH231021   7.974   0.689   4.498
10355TIP3    H131022   7.891   0.737   4.496
10355TIP3    H231023   8.041   0.757   4.492
10356TIP3   OH231024   7.445   7.027   3.556
10356TIP3    H131025   7.432   6.958   3.490
10356TIP3    H231026   7.481   7.100   3.506
10357TIP3   OH231027   2.987   6.468   0.064
10357TIP3    H131028   2.961   6.495  -0.024
10357TIP3    H231029   2.951   6.380   0.075
10358TIP3   OH231030   3.081   2.700   1.826
10358TIP3    H131031   3.133   2.773   1.792
10358TIP3    H231032   3.029   2.737   1.896
10359TIP3   OH231033   5.551   5.922   5.964
10359TIP3    H131034   5.611   5.895   6.034
10359TIP3    H231035   5.510   5.840   5.936
10360TIP3   OH231036   7.916   7.786   1.652
10360TIP3    H131037   7.986   7.824   1.705
10360TIP3    H231038   7.836   7.831   1.682
10361TIP3   OH231039   6.970   3.951   2.724
10361TIP3    H131040   6.952   3.870   2.771
10361TIP3    H231041   6.931   4.019   2.778
10362TIP3   OH231042   3.302   0.743   1.900
10362TIP3    H131043   3.213   0.777   1.908
10362TIP3    H231044   3.314   0.688   1.977
10363TIP3   OH231045   1.290   6.184   0.886
10363TIP3    H131046   1.320   6.181   0.795
10363TIP3    H231047   1.254   6.097   0.902
10364TIP3   OH231048   1.287   5.641   6.643
10364TIP3    H131049   1.316   5.718   6.693
10364TIP3    H231050   1.193   5.654   6.633
10365TIP3   OH231051   4.998   0.613   5.710
10365TIP3    H131052   5.006   0.541   5.647
10365TIP3    H231053   4.904   0.634   5.710
10366TIP3   OH231054   1.912   7.765   3.258
10366TIP3    H131055   1.946   7.830   3.319
10366TIP3    H231056   1.976   7.693   3.262
10367TIP3   OH231057   3.688   4.893   5.530
10367TIP3    H131058   3.663   4.876   5.621
10367TIP3    H231059   3.773   4.851   5.520
10368TIP3   OH231060   4.625   4.237   2.424
10368TIP3    H131061   4.654   4.175   2.357
10368TIP3    H231062   4.530   4.231   2.422
10369TIP3   OH231063   3.523   3.904   2.821
10369TIP3    H131064   3.557   3.833   2.767
10369TIP3    H231065   3.594   3.925   2.881
10370TIP3   OH231066   5.113   0.887   2.936
10370TIP3    H131067   5.151   0.843   2.859
10370TIP3    H231068   5.146   0.838   3.010
10371TIP3   OH231069   1.454   4.888   1.501
10371TIP3    H131070   1.510   4.895   1.578
10371TIP3    H231071   1.377   4.939   1.523
10372TIP3   OH231072   6.428   3.203   0.072
10372TIP3    H131073   6.384   3.121   0.047
10372TIP3    H231074   6.500   3.175   0.129
10373TIP3   OH231075   1.907   1.858   6.355
10373TIP3    H131076   1.927   1.951   6.345
10373TIP3    H231077   1.916   1.842   6.449
10374TIP3   OH231078   4.859   0.047   3.445
10374TIP3    H131079   4.947   0.016   3.425
10374TIP3    H231080   4.865   0.143   3.439
10375TIP3   OH231081   6.004   2.609   6.163
10375TIP3    H131082   6.015   2.678   6.097
10375TIP3    H231083   5.997   2.528   6.112
10376TIP3   OH231084   5.770   2.512   4.883
10376TIP3    H131085   5.676   2.504   4.898
10376TIP3    H231086   5.806   2.426   4.906
10377TIP3   OH231087   3.345   2.852   2.526
10377TIP3    H131088   3.310   2.776   2.478
10377TIP3    H231089   3.440   2.843   2.521
10378TIP3   OH231090   1.976   2.041   5.002
10378TIP3    H131091   1.886   2.028   4.972
10378TIP3    H231092   2.021   2.077   4.926
10379TIP3   OH231093   7.920   2.182   0.821
10379TIP3    H131094   7.987   2.134   0.773
10379TIP3    H231095   7.907   2.132   0.901
10380TIP3   OH231096   6.023   2.609   2.827
10380TIP3    H131097   5.949   2.611   2.766
10380TIP3    H231098   6.062   2.522   2.815
10381TIP3   OH231099   1.883   1.011   4.874
10381TIP3    H131100   1.790   0.996   4.862
10381TIP3    H231101   1.918   0.925   4.898
10382TIP3   OH231102   7.594   4.589   5.600
10382TIP3    H131103   7.686   4.602   5.622
10382TIP3    H231104   7.584   4.631   5.514
10383TIP3   OH231105   0.310   6.410   3.835
10383TIP3    H131106   0.374   6.340   3.824
10383TIP3    H231107   0.358   6.491   3.816
10384TIP3   OH231108   3.732   7.809   0.408
10384TIP3    H131109   3.769   7.889   0.446
10384TIP3    H231110   3.807   7.751   0.395
10385TIP3   OH231111   7.403   5.700   2.049
10385TIP3    H131112   7.440   5.647   1.979
10385TIP3    H231113   7.439   5.788   2.035
10386TIP3   OH231114   5.892   2.763   4.955
10386TIP3    H131115   5.846   2.680   4.936
10386TIP3    H231116   5.836   2.830   4.916
10387TIP3   OH231117   4.257   6.724   2.010
10387TIP3    H131118   4.223   6.634   2.008
10387TIP3    H231119   4.190   6.776   1.968
10388TIP3   OH231120   0.724   3.634   0.102
10388TIP3    H131121   0.818   3.638   0.118
10388TIP3    H231122   0.713   3.672   0.015
10389TIP3   OH231123   7.401   1.631   3.861
10389TIP3    H131124   7.442   1.620   3.775
10389TIP3    H231125   7.475   1.632   3.922
10390TIP3   OH231126   2.966   2.368   1.533
10390TIP3    H131127   2.917   2.409   1.604
10390TIP3    H231128   3.025   2.306   1.577
10391TIP3   OH231129   5.295   4.359   0.281
10391TIP3    H131130   5.346   4.280   0.301
10391TIP3    H231131   5.358   4.418   0.239
10392TIP3   OH231132   3.820   0.052   3.392
10392TIP3    H131133   3.871   0.020   3.318
10392TIP3    H231134   3.854   0.140   3.408
10393TIP3   OH231135   3.468   5.424   5.520
10393TIP3    H131136   3.500   5.345   5.477
10393TIP3    H231137   3.512   5.424   5.605
10394TIP3   OH231138   7.365   0.430   2.917
10394TIP3    H131139   7.314   0.485   2.858
10394TIP3    H231140   7.380   0.484   2.994
10395TIP3   OH231141   6.906   6.208   2.566
10395TIP3    H131142   6.885   6.179   2.654
10395TIP3    H231143   6.987   6.258   2.575
10396TIP3   OH231144   0.760   0.258   6.203
10396TIP3    H131145   0.721   0.263   6.116
10396TIP3    H231146   0.686   0.270   6.263
10397TIP3   OH231147   2.859   4.561   5.170
10397TIP3    H131148   2.794   4.509   5.216
10397TIP3    H231149   2.810   4.637   5.138
10398TIP3   OH231150   2.376   4.138   0.490
10398TIP3    H131151   2.291   4.104   0.517
10398TIP3    H231152   2.355   4.216   0.438
10399TIP3   OH231153   1.526   7.303   0.495
10399TIP3    H131154   1.478   7.230   0.534
10399TIP3    H231155   1.575   7.264   0.423
10400TIP3   OH231156   0.308   0.773   2.756
10400TIP3    H131157   0.330   0.685   2.725
10400TIP3    H231158   0.274   0.818   2.678
10401TIP3   OH231159   3.475   4.149   2.030
10401TIP3    H131160   3.491   4.232   2.076
10401TIP3    H231161   3.383   4.129   2.049
10402TIP3   OH231162   6.579   0.689   1.067
10402TIP3    H131163   6.652   0.670   1.125
10402TIP3    H231164   6.611   0.759   1.010
10403TIP3   OH231165   6.837   5.729   5.395
10403TIP3    H131166   6.923   5.724   5.352
10403TIP3    H231167   6.854   5.702   5.485
10404TIP3   OH231168   4.598   2.198   5.687
10404TIP3    H131169   4.678   2.247   5.668
10404TIP3    H231170   4.629   2.112   5.717
10405TIP3   OH231171   7.101   5.863   1.246
10405TIP3    H131172   7.131   5.915   1.321
10405TIP3    H231173   7.075   5.779   1.284
10406TIP3   OH231174   1.742   0.156   0.710
10406TIP3    H131175   1.768   0.102   0.635
10406TIP3    H231176   1.700   0.233   0.671
10407TIP3   OH231177   4.326   7.668   5.022
10407TIP3    H131178   4.323   7.614   4.943
10407TIP3    H231179   4.403   7.636   5.070
10408TIP3   OH231180   1.814   7.475   0.994
10408TIP3    H131181   1.729   7.430   0.985
10408TIP3    H231182   1.878   7.410   0.965
10409TIP3   OH231183   7.057   3.598   4.620
10409TIP3    H131184   7.072   3.604   4.715
10409TIP3    H231185   7.136   3.556   4.587
10410TIP3   OH231186   1.359   1.006   1.340
10410TIP3    H131187   1.265   0.993   1.343
10410TIP3    H231188   1.387   0.966   1.257
10411TIP3   OH231189   2.486   4.237   4.644
10411TIP3    H131190   2.539   4.163   4.675
10411TIP3    H231191   2.396   4.211   4.662
10412TIP3   OH231192   6.876   2.363   4.865
10412TIP3    H131193   6.789   2.398   4.845
10412TIP3    H231194   6.886   2.378   4.959
10413TIP3   OH231195   1.920   6.989   0.814
10413TIP3    H131196   1.826   6.974   0.799
10413TIP3    H231197   1.949   6.911   0.861
10414TIP3   OH231198   2.038   3.403   1.512
10414TIP3    H131199   2.122   3.436   1.543
10414TIP3    H231200   2.007   3.470   1.451
10415TIP3   OH231201   1.098   1.380   0.115
10415TIP3    H131202   1.179   1.357   0.162
10415TIP3    H231203   1.086   1.309   0.052
10416TIP3   OH231204   6.339   5.256   3.335
10416TIP3    H131205   6.363   5.312   3.261
10416TIP3    H231206   6.340   5.314   3.411
10417TIP3   OH231207   0.371   2.067   6.338
10417TIP3    H131208   0.283   2.102   6.328
10417TIP3    H231209   0.423   2.114   6.273
10418TIP3   OH231210   2.699   4.032   5.435
10418TIP3    H131211   2.751   4.077   5.369
10418TIP3    H231212   2.620   4.004   5.389
10419TIP3   OH231213   3.121   2.198   1.743
10419TIP3    H131214   3.097   2.259   1.813
10419TIP3    H231215   3.212   2.174   1.763
10420TIP3   OH231216   1.938   2.138   6.621
10420TIP3    H131217   1.935   2.216   6.676
10420TIP3    H231218   1.984   2.073   6.674
10421TIP3   OH231219   4.122   5.139   0.583
10421TIP3    H131220   4.190   5.071   0.588
10421TIP3    H231221   4.115   5.159   0.490
10422TIP3   OH231222   1.713   0.304   5.258
10422TIP3    H131223   1.807   0.292   5.245
10422TIP3    H231224   1.681   0.217   5.284
10423TIP3   OH231225   6.717   3.279   0.706
10423TIP3    H131226   6.648   3.292   0.640
10423TIP3    H231227   6.738   3.185   0.700
10424TIP3   OH231228   5.684   4.134   4.610
10424TIP3    H131229   5.727   4.217   4.629
10424TIP3    H231230   5.741   4.092   4.546
10425TIP3   OH231231   7.421   4.790   0.122
10425TIP3    H131232   7.508   4.756   0.102
10425TIP3    H231233   7.369   4.768   0.045
10426TIP3   OH231234   0.368   7.626   0.538
10426TIP3    H131235   0.463   7.617   0.535
10426TIP3    H231236   0.346   7.620   0.631
10427TIP3   OH231237   3.344   6.864   1.870
10427TIP3    H131238   3.306   6.802   1.807
10427TIP3    H231239   3.278   6.871   1.939
10428TIP3   OH231240   6.074   3.407   5.636
10428TIP3    H131241   6.148   3.467   5.646
10428TIP3    H231242   6.001   3.463   5.609
10429TIP3   OH231243   2.680   6.507   3.503
10429TIP3    H131244   2.596   6.508   3.548
10429TIP3    H231245   2.701   6.599   3.490
10430TIP3   OH231246   5.838   6.765   2.066
10430TIP3    H131247   5.800   6.688   2.108
10430TIP3    H231248   5.918   6.782   2.115
10431TIP3   OH231249   0.053   3.733   0.689
10431TIP3    H131250  -0.035   3.695   0.698
10431TIP3    H231251   0.113   3.660   0.707
10432TIP3   OH231252   2.612   3.575   1.613
10432TIP3    H131253   2.613   3.574   1.518
10432TIP3    H231254   2.667   3.501   1.639
10433TIP3   OH231255   4.783   1.602   5.640
10433TIP3    H131256   4.866   1.609   5.592
10433TIP3    H231257   4.806   1.557   5.721
10434TIP3   OH231258   0.714   3.318   6.302
10434TIP3    H131259   0.733   3.388   6.240
10434TIP3    H231260   0.660   3.360   6.369
10435TIP3   OH231261   6.342   1.551   2.875
10435TIP3    H131262   6.389   1.488   2.821
10435TIP3    H231263   6.280   1.499   2.925
10436TIP3   OH231264   4.214   1.481   5.404
10436TIP3    H131265   4.175   1.420   5.342
10436TIP3    H231266   4.142   1.506   5.462
10437TIP3   OH231267   1.688   1.510   1.565
10437TIP3    H131268   1.745   1.571   1.519
10437TIP3    H231269   1.624   1.565   1.610
10438TIP3   OH231270   6.941   5.161   5.352
10438TIP3    H131271   6.914   5.098   5.419
10438TIP3    H231272   7.030   5.135   5.329
10439TIP3   OH231273   2.566   5.301   3.738
10439TIP3    H131274   2.558   5.235   3.670
10439TIP3    H231275   2.617   5.371   3.698
10440TIP3   OH231276   7.451   4.086   5.804
10440TIP3    H131277   7.424   4.048   5.721
10440TIP3    H231278   7.521   4.147   5.781
10441TIP3   OH231279   7.595   4.008   5.250
10441TIP3    H131280   7.679   3.980   5.214
10441TIP3    H231281   7.542   3.929   5.252
10442TIP3   OH231282   8.255   7.159   3.598
10442TIP3    H131283   8.311   7.092   3.636
10442TIP3    H231284   8.169   7.143   3.636
10443TIP3   OH231285   6.772   3.606   6.043
10443TIP3    H131286   6.780   3.535   6.107
10443TIP3    H231287   6.742   3.681   6.094
10444TIP3   OH231288   2.114   1.837   5.151
10444TIP3    H131289   2.070   1.910   5.107
10444TIP3    H231290   2.044   1.773   5.166
10445TIP3   OH231291   2.162   7.255   4.754
10445TIP3    H131292   2.212   7.178   4.781
10445TIP3    H231293   2.094   7.263   4.822
10446TIP3   OH231294   6.242   1.282   4.786
10446TIP3    H131295   6.186   1.207   4.806
10446TIP3    H231296   6.233   1.296   4.692
10447TIP3   OH231297   0.680   1.965   3.998
10447TIP3    H131298   0.603   2.009   3.963
10447TIP3    H231299   0.752   2.027   3.984
10448TIP3   OH231300   0.472   7.372   6.681
10448TIP3    H131301   0.530   7.351   6.608
10448TIP3    H231302   0.402   7.424   6.641
10449TIP3   OH231303   6.191   1.119   4.112
10449TIP3    H131304   6.180   1.063   4.189
10449TIP3    H231305   6.171   1.063   4.038
10450TIP3   OH231306   2.985   1.284   3.953
10450TIP3    H131307   2.907   1.336   3.977
10450TIP3    H231308   2.959   1.238   3.873
10451TIP3   OH231309   2.367   6.477   3.409
10451TIP3    H131310   2.344   6.387   3.387
10451TIP3    H231311   2.316   6.496   3.488
10452TIP3   OH231312   4.221   4.129   1.370
10452TIP3    H131313   4.287   4.198   1.371
10452TIP3    H231314   4.171   4.142   1.450
10453TIP3   OH231315   4.970   6.473   3.290
10453TIP3    H131316   5.013   6.453   3.374
10453TIP3    H231317   4.908   6.401   3.277
10454TIP3   OH231318   4.543   3.920   6.630
10454TIP3    H131319   4.466   3.977   6.630
10454TIP3    H231320   4.528   3.859   6.703
10455TIP3   OH231321   6.257   0.741   0.432
10455TIP3    H131322   6.262   0.661   0.379
10455TIP3    H231323   6.245   0.710   0.522
10456TIP3   OH231324   0.338   6.149   5.817
10456TIP3    H131325   0.354   6.234   5.857
10456TIP3    H231326   0.362   6.160   5.725
10457TIP3   OH231327   1.027   1.237   1.322
10457TIP3    H131328   1.117   1.256   1.350
10457TIP3    H231329   1.027   1.142   1.305
10458TIP3   OH231330   3.269   2.610   3.293
10458TIP3    H131331   3.337   2.547   3.317
10458TIP3    H231332   3.245   2.652   3.375
10459TIP3   OH231333   5.372   2.724   6.460
10459TIP3    H131334   5.407   2.813   6.459
10459TIP3    H231335   5.288   2.732   6.414
10460TIP3   OH231336   7.636   1.033   4.165
10460TIP3    H131337   7.551   1.053   4.205
10460TIP3    H231338   7.616   1.019   4.073
10461TIP3   OH231339   1.238   4.920   4.946
10461TIP3    H131340   1.148   4.952   4.940
10461TIP3    H231341   1.282   4.957   4.869
10462TIP3   OH231342   1.701   7.497   3.695
10462TIP3    H131343   1.663   7.555   3.629
10462TIP3    H231344   1.720   7.416   3.647
10463TIP3   OH231345   5.343   7.639   6.403
10463TIP3    H131346   5.339   7.672   6.493
10463TIP3    H231347   5.430   7.598   6.397
10464TIP3   OH231348   7.523   7.009   5.707
10464TIP3    H131349   7.498   7.076   5.643
10464TIP3    H231350   7.618   7.018   5.714
10465TIP3   OH231351   3.783   0.714   4.521
10465TIP3    H131352   3.821   0.705   4.434
10465TIP3    H231353   3.729   0.793   4.516
10466TIP3   OH231354   0.117   5.167   0.296
10466TIP3    H131355   0.138   5.198   0.208
10466TIP3    H231356   0.082   5.243   0.341
10467TIP3   OH231357   4.344   2.299   3.496
10467TIP3    H131358   4.311   2.362   3.431
10467TIP3    H231359   4.276   2.232   3.500
10468TIP3   OH231360   5.997   6.201   0.625
10468TIP3    H131361   6.006   6.285   0.669
10468TIP3    H231362   6.054   6.142   0.674
10469TIP3   OH231363   0.533   1.872   4.732
10469TIP3    H131364   0.505   1.814   4.661
10469TIP3    H231365   0.597   1.930   4.691
10470TIP3   OH231366   0.180   1.906   1.271
10470TIP3    H131367   0.234   1.907   1.350
10470TIP3    H231368   0.105   1.962   1.293
10471TIP3   OH231369   0.121   5.588   4.454
10471TIP3    H131370   0.180   5.663   4.453
10471TIP3    H231371   0.153   5.533   4.526
10472TIP3   OH231372   5.253   0.046   3.226
10472TIP3    H131373   5.252   0.070   3.133
10472TIP3    H231374   5.229   0.127   3.271
10473TIP3   OH231375   7.432   0.202   5.869
10473TIP3    H131376   7.410   0.283   5.824
10473TIP3    H231377   7.522   0.213   5.898
10474TIP3   OH231378   4.330   3.000   3.167
10474TIP3    H131379   4.319   3.026   3.075
10474TIP3    H231380   4.408   2.944   3.167
10475TIP3   OH231381   2.262   5.921   5.388
10475TIP3    H131382   2.187   5.963   5.347
10475TIP3    H231383   2.280   5.844   5.334
10476TIP3   OH231384   3.761   5.294   2.869
10476TIP3    H131385   3.698   5.273   2.800
10476TIP3    H231386   3.757   5.219   2.928
10477TIP3   OH231387   1.583   5.793   2.546
10477TIP3    H131388   1.531   5.716   2.522
10477TIP3    H231389   1.661   5.757   2.589
10478TIP3   OH231390   4.536   7.128   4.805
10478TIP3    H131391   4.620   7.090   4.829
10478TIP3    H231392   4.525   7.104   4.713
10479TIP3   OH231393   5.892   0.464   2.514
10479TIP3    H131394   5.946   0.388   2.537
10479TIP3    H231395   5.815   0.427   2.472
10480TIP3   OH231396   5.929   7.198   5.617
10480TIP3    H131397   5.945   7.292   5.622
10480TIP3    H231398   5.842   7.190   5.578
10481TIP3   OH231399   0.586   4.872   5.559
10481TIP3    H131400   0.548   4.932   5.623
10481TIP3    H231401   0.513   4.852   5.500
10482TIP3   OH231402   0.411   3.237   0.715
10482TIP3    H131403   0.411   3.244   0.619
10482TIP3    H231404   0.491   3.189   0.735
10483TIP3   OH231405   0.711   7.017   0.452
10483TIP3    H131406   0.792   7.014   0.401
10483TIP3    H231407   0.648   6.965   0.402
10484TIP3   OH231408   2.580   1.158   1.466
10484TIP3    H131409   2.625   1.111   1.396
10484TIP3    H231410   2.488   1.132   1.457
10485TIP3   OH231411   7.225   3.151   3.881
10485TIP3    H131412   7.140   3.121   3.912
10485TIP3    H231413   7.206   3.229   3.828
10486TIP3   OH231414   5.778   7.353   5.211
10486TIP3    H131415   5.776   7.444   5.183
10486TIP3    H231416   5.855   7.347   5.267
10487TIP3   OH231417   6.288   5.466   3.576
10487TIP3    H131418   6.323   5.380   3.598
10487TIP3    H231419   6.349   5.502   3.511
10488TIP3   OH231420   7.286   6.811   4.604
10488TIP3    H131421   7.239   6.832   4.684
10488TIP3    H231422   7.230   6.844   4.533
10489TIP3   OH231423   7.580   2.680   6.444
10489TIP3    H131424   7.655   2.650   6.392
10489TIP3    H231425   7.608   2.763   6.481
10490TIP3   OH231426   2.774   5.555   1.540
10490TIP3    H131427   2.855   5.570   1.491
10490TIP3    H231428   2.780   5.612   1.616
10491TIP3   OH231429   4.259   4.554   1.748
10491TIP3    H131430   4.194   4.503   1.797
10491TIP3    H231431   4.257   4.641   1.789
10492TIP3   OH231432   3.510   0.379   2.798
10492TIP3    H131433   3.492   0.372   2.891
10492TIP3    H231434   3.563   0.302   2.778
10493TIP3   OH231435   3.689   7.279   4.628
10493TIP3    H131436   3.747   7.225   4.681
10493TIP3    H231437   3.680   7.361   4.678
10494TIP3   OH231438   4.348   3.757   0.419
10494TIP3    H131439   4.324   3.706   0.497
10494TIP3    H231440   4.265   3.791   0.387
10495TIP3   OH231441   5.975   6.848   0.518
10495TIP3    H131442   5.979   6.764   0.565
10495TIP3    H231443   5.885   6.877   0.528
10496TIP3   OH231444   7.411   5.559   0.109
10496TIP3    H131445   7.319   5.542   0.129
10496TIP3    H231446   7.457   5.480   0.136
10497TIP3   OH231447   0.517   5.780   3.489
10497TIP3    H131448   0.558   5.854   3.534
10497TIP3    H231449   0.525   5.707   3.550
10498TIP3   OH231450   6.510   5.534   2.344
10498TIP3    H131451   6.529   5.446   2.378
10498TIP3    H231452   6.545   5.533   2.254
10499TIP3   OH231453   3.666   4.753   1.593
10499TIP3    H131454   3.680   4.788   1.505
10499TIP3    H231455   3.709   4.816   1.651
10500TIP3   OH231456   4.470   1.104   4.526
10500TIP3    H131457   4.453   1.050   4.603
10500TIP3    H231458   4.389   1.153   4.512
10501TIP3   OH231459   3.202   1.165   0.700
10501TIP3    H131460   3.163   1.128   0.620
10501TIP3    H231461   3.128   1.174   0.761
10502TIP3   OH231462   6.052   0.706   5.416
10502TIP3    H131463   6.117   0.652   5.372
10502TIP3    H231464   6.020   0.653   5.488
10503TIP3   OH231465   7.558   6.282   6.268
10503TIP3    H131466   7.534   6.373   6.252
10503TIP3    H231467   7.485   6.245   6.318
10504TIP3   OH231468   2.342   3.507   6.005
10504TIP3    H131469   2.417   3.538   6.055
10504TIP3    H231470   2.271   3.498   6.069
10505TIP3   OH231471   0.342   5.402   3.711
10505TIP3    H131472   0.315   5.452   3.634
10505TIP3    H231473   0.436   5.420   3.719
10506TIP3   OH231474   6.319   0.440   0.759
10506TIP3    H131475   6.367   0.456   0.841
10506TIP3    H231476   6.251   0.377   0.783
10507TIP3   OH231477   0.913   2.860   2.836
10507TIP3    H131478   0.868   2.833   2.756
10507TIP3    H231479   0.858   2.826   2.906
10508TIP3   OH231480   0.401   6.280   6.583
10508TIP3    H131481   0.471   6.320   6.634
10508TIP3    H231482   0.331   6.346   6.582
10509TIP3   OH231483   1.309   5.487   5.938
10509TIP3    H131484   1.402   5.504   5.948
10509TIP3    H231485   1.268   5.538   6.008
10510TIP3   OH231486   5.458   4.386   3.581
10510TIP3    H131487   5.403   4.338   3.519
10510TIP3    H231488   5.459   4.476   3.546
10511TIP3   OH231489   5.732   2.620   2.767
10511TIP3    H131490   5.684   2.549   2.724
10511TIP3    H231491   5.741   2.591   2.858
10512TIP3   OH231492   2.041   4.324   6.538
10512TIP3    H131493   1.991   4.358   6.463
10512TIP3    H231494   1.996   4.243   6.561
10513TIP3   OH231495   3.645   1.873   1.291
10513TIP3    H131496   3.685   1.947   1.338
10513TIP3    H231497   3.719   1.816   1.270
10514TIP3   OH231498   0.683   3.628   5.355
10514TIP3    H131499   0.751   3.675   5.403
10514TIP3    H231500   0.675   3.544   5.401
10515TIP3   OH231501   3.208   0.388   6.311
10515TIP3    H131502   3.265   0.331   6.260
10515TIP3    H231503   3.238   0.376   6.402
10516TIP3   OH231504   3.406   0.621   6.361
10516TIP3    H131505   3.463   0.608   6.285
10516TIP3    H231506   3.335   0.558   6.349
10517TIP3   OH231507   7.559   0.946   5.679
10517TIP3    H131508   7.466   0.969   5.682
10517TIP3    H231509   7.572   0.890   5.756
10518TIP3   OH231510   7.559   5.052   5.824
10518TIP3    H131511   7.561   5.121   5.758
10518TIP3    H231512   7.530   4.974   5.776
10519TIP3   OH231513   5.582   7.329   3.085
10519TIP3    H131514   5.643   7.402   3.099
10519TIP3    H231515   5.606   7.295   2.999
10520TIP3   OH231516   1.508   1.884   1.093
10520TIP3    H131517   1.583   1.835   1.060
10520TIP3    H231518   1.483   1.838   1.174
10521TIP3   OH231519   4.302   6.600   3.641
10521TIP3    H131520   4.393   6.627   3.652
10521TIP3    H231521   4.252   6.663   3.693
10522TIP3   OH231522   7.481   2.778   0.596
10522TIP3    H131523   7.485   2.771   0.691
10522TIP3    H231524   7.478   2.872   0.579
10523TIP3   OH231525   6.555   2.579   6.123
10523TIP3    H131526   6.615   2.520   6.169
10523TIP3    H231527   6.492   2.605   6.191
10524TIP3   OH231528   6.407   1.596   3.275
10524TIP3    H131529   6.322   1.634   3.252
10524TIP3    H231530   6.406   1.509   3.234
10525TIP3   OH231531   4.674   2.186   6.816
10525TIP3    H131532   4.632   2.197   6.731
10525TIP3    H231533   4.661   2.270   6.861
10526TIP3   OH231534   3.101   5.150   2.342
10526TIP3    H131535   3.053   5.209   2.284
10526TIP3    H231536   3.149   5.092   2.282
10527TIP3   OH231537   4.144   6.816   3.396
10527TIP3    H131538   4.225   6.835   3.347
10527TIP3    H231539   4.159   6.854   3.482
10528TIP3   OH231540   8.147   1.635   1.683
10528TIP3    H131541   8.219   1.636   1.620
10528TIP3    H231542   8.142   1.725   1.715
10529TIP3   OH231543   6.896   4.996   4.286
10529TIP3    H131544   6.893   4.916   4.338
10529TIP3    H231545   6.888   5.067   4.349
10530TIP3   OH231546   6.513  -0.026   1.378
10530TIP3    H131547   6.467   0.047   1.338
10530TIP3    H231548   6.556   0.012   1.455
10531TIP3   OH231549   6.870   4.961   6.358
10531TIP3    H131550   6.867   4.942   6.265
10531TIP3    H231551   6.790   5.009   6.376
10532TIP3   OH231552   1.777   5.209   3.669
10532TIP3    H131553   1.805   5.194   3.759
10532TIP3    H231554   1.682   5.221   3.674
10533TIP3   OH231555   3.282   0.293   1.574
10533TIP3    H131556   3.287   0.385   1.548
10533TIP3    H231557   3.201   0.261   1.535
10534TIP3   OH231558   7.573   7.619   5.636
10534TIP3    H131559   7.554   7.643   5.545
10534TIP3    H231560   7.624   7.539   5.629
10535TIP3   OH231561   3.565   2.818   4.157
10535TIP3    H131562   3.654   2.786   4.146
10535TIP3    H231563   3.561   2.850   4.247
10536TIP3   OH231564   8.143   5.124   2.545
10536TIP3    H131565   8.107   5.115   2.633
10536TIP3    H231566   8.161   5.034   2.518
10537TIP3   OH231567   2.404   1.139   4.541
10537TIP3    H131568   2.498   1.127   4.523
10537TIP3    H231569   2.362   1.066   4.496
10538TIP3   OH231570   2.655   7.406   0.322
10538TIP3    H131571   2.588   7.349   0.360
10538TIP3    H231572   2.680   7.465   0.394
10539TIP3   OH231573   2.471   2.335   5.867
10539TIP3    H131574   2.385   2.377   5.865
10539TIP3    H231575   2.479   2.302   5.956
10540TIP3   OH231576   7.579   0.047   6.521
10540TIP3    H131577   7.487   0.064   6.542
10540TIP3    H231578   7.619   0.024   6.605
10541TIP3   OH231579   0.963   3.615   2.923
10541TIP3    H131580   0.874   3.624   2.889
10541TIP3    H231581   0.988   3.704   2.947
10542TIP3   OH231582   3.297   4.907   0.284
10542TIP3    H131583   3.284   4.992   0.241
10542TIP3    H231584   3.376   4.918   0.337
10543TIP3   OH231585   3.518   2.272   0.819
10543TIP3    H131586   3.556   2.254   0.733
10543TIP3    H231587   3.592   2.300   0.873
10544TIP3   OH231588   1.818   0.935   1.715
10544TIP3    H131589   1.731   0.923   1.678
10544TIP3    H231590   1.865   0.854   1.693
10545TIP3   OH231591   4.154   1.209   0.172
10545TIP3    H131592   4.092   1.282   0.165
10545TIP3    H231593   4.185   1.195   0.082
10546TIP3   OH231594   7.476   5.549   6.099
10546TIP3    H131595   7.567   5.520   6.109
10546TIP3    H231596   7.456   5.596   6.180
10547TIP3   OH231597   4.830   7.228   3.616
10547TIP3    H131598   4.915   7.251   3.579
10547TIP3    H231599   4.812   7.140   3.581
10548TIP3   OH231600   0.810   6.008   3.073
10548TIP3    H131601   0.830   5.976   2.985
10548TIP3    H231602   0.859   6.089   3.082
10549TIP3   OH231603   3.567   7.820   3.857
10549TIP3    H131604   3.472   7.814   3.854
10549TIP3    H231605   3.595   7.822   3.765
10550TIP3   OH231606   0.275   0.235   5.407
10550TIP3    H131607   0.326   0.282   5.341
10550TIP3    H231608   0.319   0.255   5.490
10551TIP3   OH231609   1.934   4.346   3.714
10551TIP3    H131610   1.973   4.395   3.786
10551TIP3    H231611   2.007   4.297   3.676
10552TIP3   OH231612   6.116   4.135   3.908
10552TIP3    H131613   6.029   4.097   3.897
10552TIP3    H231614   6.140   4.167   3.821
10553TIP3   OH231615   6.337   5.334   4.475
10553TIP3    H131616   6.374   5.409   4.427
10553TIP3    H231617   6.250   5.364   4.502
10554TIP3   OH231618   5.960   4.790   6.093
10554TIP3    H131619   5.903   4.793   6.170
10554TIP3    H231620   5.912   4.837   6.025
10555TIP3   OH231621   2.124   2.243   3.400
10555TIP3    H131622   2.177   2.277   3.471
10555TIP3    H231623   2.165   2.276   3.320
10556TIP3   OH231624   4.003   0.020   4.470
10556TIP3    H131625   3.976   0.081   4.539
10556TIP3    H231626   4.063   0.071   4.415
10557TIP3   OH231627   5.496   7.815   2.102
10557TIP3    H131628   5.430   7.760   2.145
10557TIP3    H231629   5.501   7.893   2.158
10558TIP3   OH231630   7.015   1.906   2.094
10558TIP3    H131631   7.106   1.900   2.123
10558TIP3    H231632   7.011   1.851   2.016
10559TIP3   OH231633   4.563   5.856   0.942
10559TIP3    H131634   4.603   5.918   1.003
10559TIP3    H231635   4.472   5.884   0.936
10560TIP3   OH231636   8.224   1.542   6.660
10560TIP3    H131637   8.177   1.475   6.709
10560TIP3    H231638   8.203   1.624   6.705
10561TIP3   OH231639   4.944   7.618   5.472
10561TIP3    H131640   4.895   7.689   5.513
10561TIP3    H231641   4.963   7.557   5.543
10562TIP3   OH231642   1.271   4.274   4.374
10562TIP3    H131643   1.307   4.289   4.461
10562TIP3    H231644   1.279   4.358   4.329
10563TIP3   OH231645   4.236   3.683   4.298
10563TIP3    H131646   4.227   3.642   4.211
10563TIP3    H231647   4.177   3.758   4.295
10564TIP3   OH231648   6.722   2.389   1.780
10564TIP3    H131649   6.774   2.326   1.830
10564TIP3    H231650   6.787   2.441   1.732
10565TIP3   OH231651   2.508   6.610   5.477
10565TIP3    H131652   2.573   6.540   5.487
10565TIP3    H231653   2.438   6.586   5.537
10566TIP3   OH231654   4.985   5.788   0.385
10566TIP3    H131655   4.980   5.795   0.481
10566TIP3    H231656   4.896   5.768   0.358
10567TIP3   OH231657   1.048   3.601   4.132
10567TIP3    H131658   1.010   3.646   4.056
10567TIP3    H231659   1.069   3.672   4.193
10568TIP3   OH231660   5.552   0.450   4.328
10568TIP3    H131661   5.622   0.491   4.378
10568TIP3    H231662   5.491   0.521   4.308
10569TIP3   OH231663   2.130   0.678   2.083
10569TIP3    H131664   2.184   0.603   2.108
10569TIP3    H231665   2.184   0.754   2.105
10570TIP3   OH231666   2.148   4.024   1.815
10570TIP3    H131667   2.108   4.039   1.901
10570TIP3    H231668   2.082   4.053   1.752
10571TIP3   OH231669   0.843   7.607   0.416
10571TIP3    H131670   0.779   7.560   0.470
10571TIP3    H231671   0.836   7.698   0.444
10572TIP3   OH231672   0.293   7.766   3.304
10572TIP3    H131673   0.264   7.826   3.235
10572TIP3    H231674   0.213   7.723   3.334
10573TIP3   OH231675   3.644   0.592   0.699
10573TIP3    H131676   3.567   0.607   0.645
10573TIP3    H231677   3.614   0.533   0.769
10574TIP3   OH231678   2.670   0.516   0.469
10574TIP3    H131679   2.640   0.537   0.557
10574TIP3    H231680   2.647   0.593   0.417
10575TIP3   OH231681   2.663   7.783   4.901
10575TIP3    H131682   2.615   7.847   4.953
10575TIP3    H231683   2.609   7.704   4.904
10576TIP3   OH231684   5.927   5.664   4.380
10576TIP3    H131685   5.872   5.730   4.337
10576TIP3    H231686   5.864   5.600   4.414
10577TIP3   OH231687   3.147   1.111   1.822
10577TIP3    H131688   3.168   1.029   1.778
10577TIP3    H231689   3.088   1.157   1.762
10578TIP3   OH231690   6.988   3.109   5.148
10578TIP3    H131691   6.907   3.137   5.190
10578TIP3    H231692   6.976   3.015   5.134
10579TIP3   OH231693   7.540   6.848   4.849
10579TIP3    H131694   7.503   6.771   4.804
10579TIP3    H231695   7.579   6.812   4.929
10580TIP3   OH231696   6.817   5.772   4.093
10580TIP3    H131697   6.749   5.829   4.129
10580TIP3    H231698   6.839   5.811   4.008
10581TIP3   OH231699   6.662   2.979   5.428
10581TIP3    H131700   6.753   2.982   5.455
10581TIP3    H231701   6.612   2.991   5.509
10582TIP3   OH231702   8.035   6.092   5.180
10582TIP3    H131703   8.073   6.091   5.268
10582TIP3    H231704   8.026   6.185   5.159
10583TIP3   OH231705   4.454   5.146   2.412
10583TIP3    H131706   4.404   5.067   2.430
10583TIP3    H231707   4.388   5.215   2.404
10584TIP3   OH231708   0.068   4.308   5.183
10584TIP3    H131709   0.106   4.392   5.158
10584TIP3    H231710  -0.009   4.331   5.235
10585TIP3   OH231711   5.547   5.211   5.183
10585TIP3    H131712   5.592   5.161   5.251
10585TIP3    H231713   5.511   5.287   5.229
10586TIP3   OH231714   0.576   0.236   3.986
10586TIP3    H131715   0.523   0.181   3.927
10586TIP3    H231716   0.569   0.324   3.948
10587TIP3   OH231717   5.908   1.786   1.161
10587TIP3    H131718   5.929   1.879   1.159
10587TIP3    H231719   5.844   1.773   1.091
10588TIP3   OH231720   0.474   2.244   5.496
10588TIP3    H131721   0.401   2.281   5.546
10588TIP3    H231722   0.481   2.299   5.419
10589TIP3   OH231723   4.471   2.794   3.887
10589TIP3    H131724   4.558   2.818   3.920
10589TIP3    H231725   4.428   2.878   3.872
10590TIP3   OH231726   0.418   7.709   5.437
10590TIP3    H131727   0.353   7.765   5.480
10590TIP3    H231728   0.431   7.751   5.351
10591TIP3   OH231729   1.352   2.230   3.226
10591TIP3    H131730   1.332   2.233   3.132
10591TIP3    H231731   1.405   2.151   3.236
10592TIP3   OH231732   4.992   1.599   4.847
10592TIP3    H131733   5.008   1.520   4.899
10592TIP3    H231734   4.911   1.580   4.800
10593TIP3   OH231735   0.551   3.763   4.874
10593TIP3    H131736   0.498   3.831   4.916
10593TIP3    H231737   0.609   3.732   4.944
10594TIP3   OH231738   7.424   1.505   3.607
10594TIP3    H131739   7.383   1.462   3.532
10594TIP3    H231740   7.447   1.433   3.666
10595TIP3   OH231741   4.388   6.014   3.997
10595TIP3    H131742   4.351   6.042   3.914
10595TIP3    H231743   4.382   6.091   4.054
10596TIP3   OH231744   2.944   0.639   3.430
10596TIP3    H131745   2.944   0.549   3.399
10596TIP3    H231746   3.030   0.673   3.405
10597TIP3   OH231747   7.444   6.878   4.238
10597TIP3    H131748   7.464   6.943   4.170
10597TIP3    H231749   7.400   6.929   4.307
10598TIP3   OH231750   3.652   0.496   2.081
10598TIP3    H131751   3.706   0.520   2.004
10598TIP3    H231752   3.716   0.464   2.145
10599TIP3   OH231753   0.687   1.337   0.556
10599TIP3    H131754   0.672   1.276   0.628
10599TIP3    H231755   0.780   1.359   0.563
10600TIP3   OH231756   0.981   4.077   4.935
10600TIP3    H131757   1.061   4.024   4.936
10600TIP3    H231758   0.929   4.041   5.008
10601TIP3   OH231759   2.260   2.570   1.307
10601TIP3    H131760   2.319   2.640   1.279
10601TIP3    H231761   2.284   2.495   1.254
10602TIP3   OH231762   0.504   4.851   1.692
10602TIP3    H131763   0.588   4.842   1.646
10602TIP3    H231764   0.449   4.901   1.632
10603TIP3   OH231765   6.451   2.068   5.542
10603TIP3    H131766   6.523   2.131   5.537
10603TIP3    H231767   6.376   2.115   5.505
10604TIP3   OH231768   6.285   7.522   0.558
10604TIP3    H131769   6.274   7.428   0.543
10604TIP3    H231770   6.214   7.563   0.510
10605TIP3   OH231771   0.694   4.121   5.907
10605TIP3    H131772   0.610   4.084   5.881
10605TIP3    H231773   0.724   4.168   5.829
10606TIP3   OH231774   1.774   3.946   4.700
10606TIP3    H131775   1.681   3.930   4.686
10606TIP3    H231776   1.816   3.916   4.619
10607TIP3   OH231777   3.012   2.913   5.170
10607TIP3    H131778   2.966   2.992   5.142
10607TIP3    H231779   3.084   2.945   5.224
10608TIP3   OH231780   6.303   1.118   1.110
10608TIP3    H131781   6.381   1.066   1.131
10608TIP3    H231782   6.326   1.207   1.134
10609TIP3   OH231783   4.867   1.991   1.562
10609TIP3    H131784   4.809   2.063   1.535
10609TIP3    H231785   4.955   2.026   1.554
10610TIP3   OH231786   4.219   3.389   3.423
10610TIP3    H131787   4.302   3.397   3.375
10610TIP3    H231788   4.186   3.478   3.428
10611TIP3   OH231789   5.722   5.817   6.149
10611TIP3    H131790   5.677   5.777   6.223
10611TIP3    H231791   5.805   5.770   6.143
10612TIP3   OH231792   4.383   2.376   4.348
10612TIP3    H131793   4.356   2.382   4.439
10612TIP3    H231794   4.304   2.398   4.298
10613TIP3   OH231795   4.850   6.133   0.871
10613TIP3    H131796   4.937   6.158   0.903
10613TIP3    H231797   4.857   6.138   0.776
10614TIP3   OH231798   1.105   4.911   5.593
10614TIP3    H131799   1.010   4.924   5.586
10614TIP3    H231800   1.143   4.981   5.540
10615TIP3   OH231801   5.615   0.958   2.056
10615TIP3    H131802   5.664   0.974   2.137
10615TIP3    H231803   5.541   0.903   2.084
10616TIP3   OH231804   6.854   2.160   3.579
10616TIP3    H131805   6.777   2.117   3.616
10616TIP3    H231806   6.874   2.110   3.500
10617TIP3   OH231807   4.600   4.504   3.359
10617TIP3    H131808   4.637   4.509   3.447
10617TIP3    H231809   4.665   4.457   3.308
10618TIP3   OH231810   4.491   2.889   1.504
10618TIP3    H131811   4.539   2.954   1.452
10618TIP3    H231812   4.422   2.940   1.547
10619TIP3   OH231813   0.714   0.494   6.486
10619TIP3    H131814   0.670   0.410   6.473
10619TIP3    H231815   0.657   0.557   6.441
10620TIP3   OH231816   5.196   6.645   1.183
10620TIP3    H131817   5.183   6.562   1.136
10620TIP3    H231818   5.112   6.690   1.177
10621TIP3   OH231819   0.486   6.838   4.676
10621TIP3    H131820   0.398   6.818   4.644
10621TIP3    H231821   0.521   6.754   4.707
10622TIP3   OH231822   5.791   4.993   6.559
10622TIP3    H131823   5.837   4.915   6.589
10622TIP3    H231824   5.806   5.058   6.629
10623TIP3   OH231825   4.627   1.801   3.272
10623TIP3    H131826   4.575   1.862   3.219
10623TIP3    H231827   4.604   1.714   3.238
10624TIP3   OH231828   3.165   1.859   5.673
10624TIP3    H131829   3.171   1.804   5.596
10624TIP3    H231830   3.177   1.948   5.640
10625TIP3   OH231831   1.769   4.172   5.411
10625TIP3    H131832   1.752   4.150   5.319
10625TIP3    H231833   1.791   4.088   5.452
10626TIP3   OH231834   5.499   0.562   0.879
10626TIP3    H131835   5.566   0.585   0.815
10626TIP3    H231836   5.540   0.495   0.934
10627TIP3   OH231837   2.712   5.622   4.827
10627TIP3    H131838   2.653   5.634   4.752
10627TIP3    H231839   2.656   5.586   4.896
10628TIP3   OH231840   1.618   5.242   0.865
10628TIP3    H131841   1.631   5.274   0.775
10628TIP3    H231842   1.588   5.320   0.913
10629TIP3   OH231843   8.206   1.564   0.083
10629TIP3    H131844   8.236   1.474   0.093
10629TIP3    H231845   8.223   1.585  -0.009
10630TIP3   OH231846   6.462   0.929   0.502
10630TIP3    H131847   6.392   0.865   0.491
10630TIP3    H231848   6.470   0.940   0.597
10631TIP3   OH231849   7.566   2.300   4.753
10631TIP3    H131850   7.528   2.388   4.747
10631TIP3    H231851   7.530   2.253   4.678
10632TIP3   OH231852   4.413   4.468   2.059
10632TIP3    H131853   4.486   4.509   2.107
10632TIP3    H231854   4.371   4.541   2.013
10633TIP3   OH231855   2.318   7.380   4.251
10633TIP3    H131856   2.294   7.354   4.162
10633TIP3    H231857   2.256   7.449   4.274
10634TIP3   OH231858   0.700   3.048   3.579
10634TIP3    H131859   0.736   3.004   3.656
10634TIP3    H231860   0.688   3.139   3.607
10635TIP3   OH231861   2.421   5.638   2.976
10635TIP3    H131862   2.417   5.543   2.961
10635TIP3    H231863   2.414   5.647   3.071
10636TIP3   OH231864   6.079   6.121   4.383
10636TIP3    H131865   6.031   6.058   4.437
10636TIP3    H231866   6.116   6.069   4.312
10637TIP3   OH231867   6.229   1.315   3.074
10637TIP3    H131868   6.316   1.304   3.035
10637TIP3    H231869   6.203   1.226   3.099
10638TIP3   OH231870   4.774   3.721   5.941
10638TIP3    H131871   4.779   3.810   5.906
10638TIP3    H231872   4.680   3.704   5.951
10639TIP3   OH231873   7.365   7.807   2.143
10639TIP3    H131874   7.461   7.808   2.136
10639TIP3    H231875   7.347   7.746   2.214
10640TIP3   OH231876   7.908   1.256   1.052
10640TIP3    H131877   7.841   1.256   1.120
10640TIP3    H231878   7.917   1.164   1.027
10641TIP3   OH231879   3.887   7.302   4.104
10641TIP3    H131880   3.792   7.308   4.113
10641TIP3    H231881   3.920   7.375   4.157
10642TIP3   OH231882   3.239   4.739   5.830
10642TIP3    H131883   3.296   4.684   5.883
10642TIP3    H231884   3.225   4.689   5.750
10643TIP3   OH231885   7.468   5.449   0.841
10643TIP3    H131886   7.424   5.369   0.869
10643TIP3    H231887   7.553   5.419   0.808
10644TIP3   OH231888   4.736   0.063   5.196
10644TIP3    H131889   4.746   0.040   5.289
10644TIP3    H231890   4.750  -0.019   5.149
10645TIP3   OH231891   7.397   4.862   1.158
10645TIP3    H131892   7.393   4.768   1.139
10645TIP3    H231893   7.314   4.882   1.201
10646TIP3   OH231894   0.555   2.106   2.915
10646TIP3    H131895   0.499   2.084   2.990
10646TIP3    H231896   0.536   2.037   2.851
10647TIP3   OH231897   7.754   0.263   3.586
10647TIP3    H131898   7.811   0.296   3.655
10647TIP3    H231899   7.666   0.265   3.624
10648TIP3   OH231900   8.172   2.290   2.242
10648TIP3    H131901   8.191   2.198   2.227
10648TIP3    H231902   8.219   2.312   2.322
10649TIP3   OH231903   3.937   7.773   5.919
10649TIP3    H131904   3.975   7.846   5.969
10649TIP3    H231905   4.008   7.708   5.916
10650TIP3   OH231906   2.373   7.157   0.678
10650TIP3    H131907   2.391   7.150   0.771
10650TIP3    H231908   2.280   7.134   0.669
10651TIP3   OH231909   5.623   3.723   5.608
10651TIP3    H131910   5.596   3.795   5.666
10651TIP3    H231911   5.566   3.731   5.532
10652TIP3   OH231912   7.576   5.298   5.048
10652TIP3    H131913   7.575   5.394   5.046
10652TIP3    H231914   7.484   5.273   5.050
10653TIP3   OH231915   5.715   3.871   0.511
10653TIP3    H131916   5.711   3.792   0.565
10653TIP3    H231917   5.679   3.844   0.427
10654TIP3   OH231918   4.605   4.164   5.542
10654TIP3    H131919   4.517   4.150   5.576
10654TIP3    H231920   4.662   4.158   5.618
10655TIP3   OH231921   3.241   5.986   4.338
10655TIP3    H131922   3.150   6.014   4.332
10655TIP3    H231923   3.252   5.959   4.430
10656TIP3   OH231924   5.954   5.093   3.883
10656TIP3    H131925   5.995   5.078   3.798
10656TIP3    H231926   6.027   5.091   3.945
10657TIP3   OH231927   7.357   4.102   3.093
10657TIP3    H131928   7.436   4.113   3.145
10657TIP3    H231929   7.300   4.175   3.118
10658TIP3   OH231930   3.301   6.936   5.971
10658TIP3    H131931   3.347   7.018   5.990
10658TIP3    H231932   3.226   6.936   6.030
10659TIP3   OH231933   5.250   0.910   2.090
10659TIP3    H131934   5.262   1.002   2.115
10659TIP3    H231935   5.156   0.898   2.089
10660TIP3   OH231936   4.201   3.105   4.593
10660TIP3    H131937   4.133   3.159   4.634
10660TIP3    H231938   4.161   3.019   4.583
10661TIP3   OH231939   5.770   2.356   0.587
10661TIP3    H131940   5.781   2.387   0.677
10661TIP3    H231941   5.803   2.266   0.588
10662TIP3   OH231942   3.980   4.565   2.509
10662TIP3    H131943   3.991   4.637   2.447
10662TIP3    H231944   4.066   4.524   2.513
10663TIP3   OH231945   6.739   2.786   6.334
10663TIP3    H131946   6.706   2.700   6.360
10663TIP3    H231947   6.709   2.797   6.244
10664TIP3   OH231948   2.179   1.616   1.517
10664TIP3    H131949   2.217   1.531   1.497
10664TIP3    H231950   2.241   1.656   1.578
10665TIP3   OH231951   3.590   3.116   2.980
10665TIP3    H131952   3.496   3.112   2.962
10665TIP3    H231953   3.608   3.208   3.000
10666TIP3   OH231954   5.463   4.400   0.721
10666TIP3    H131955   5.513   4.376   0.643
10666TIP3    H231956   5.504   4.349   0.792
10667TIP3   OH231957   0.940   0.219   5.749
10667TIP3    H131958   0.952   0.235   5.655
10667TIP3    H231959   1.011   0.267   5.791
10668TIP3   OH231960   1.596   2.509   4.491
10668TIP3    H131961   1.558   2.470   4.570
10668TIP3    H231962   1.686   2.532   4.516
10669TIP3   OH231963   3.994   3.746   6.759
10669TIP3    H131964   4.001   3.759   6.665
10669TIP3    H231965   4.013   3.653   6.772
10670TIP3   OH231966   2.066   1.013   1.162
10670TIP3    H131967   2.014   1.092   1.148
10670TIP3    H231968   2.142   1.024   1.105
10671TIP3   OH231969   0.335   2.527   5.554
10671TIP3    H131970   0.271   2.599   5.556
10671TIP3    H231971   0.296   2.459   5.608
10672TIP3   OH231972   1.899   6.575   6.114
10672TIP3    H131973   1.860   6.498   6.155
10672TIP3    H231974   1.931   6.544   6.030
10673TIP3   OH231975   3.774   6.158   5.699
10673TIP3    H131976   3.760   6.068   5.728
10673TIP3    H231977   3.780   6.151   5.603
10674TIP3   OH231978   4.490   6.618   0.624
10674TIP3    H131979   4.443   6.678   0.566
10674TIP3    H231980   4.582   6.633   0.605
10675TIP3   OH231981   8.084   7.541   1.597
10675TIP3    H131982   8.091   7.631   1.565
10675TIP3    H231983   8.136   7.539   1.677
10676TIP3   OH231984   5.738   1.272   6.362
10676TIP3    H131985   5.657   1.271   6.413
10676TIP3    H231986   5.796   1.331   6.410
10677TIP3   OH231987   1.509   6.387   1.653
10677TIP3    H131988   1.473   6.303   1.683
10677TIP3    H231989   1.441   6.422   1.595
10678TIP3   OH231990   6.006   1.475   3.073
10678TIP3    H131991   6.090   1.433   3.057
10678TIP3    H231992   5.957   1.464   2.991
10679TIP3   OH231993   3.073   2.251   6.526
10679TIP3    H131994   3.040   2.180   6.471
10679TIP3    H231995   3.155   2.216   6.563
10680TIP3   OH231996   5.355   3.228   6.123
10680TIP3    H131997   5.273   3.236   6.075
10680TIP3    H231998   5.385   3.139   6.105
10681TIP3   OH231999   3.744   5.608   5.994
10681TIP3    H132000   3.737   5.531   6.051
10681TIP3    H232001   3.822   5.653   6.026
10682TIP3   OH232002   3.140   7.721   6.723
10682TIP3    H132003   3.048   7.731   6.749
10682TIP3    H232004   3.148   7.774   6.643
10683TIP3   OH232005   2.492   0.297   3.357
10683TIP3    H132006   2.516   0.365   3.419
10683TIP3    H232007   2.416   0.254   3.396
10684TIP3   OH232008   1.692   6.736   2.557
10684TIP3    H132009   1.764   6.792   2.531
10684TIP3    H232010   1.659   6.775   2.638
10685TIP3   OH232011   7.731   5.753   3.974
10685TIP3    H132012   7.735   5.761   3.879
10685TIP3    H232013   7.796   5.685   3.995
10686TIP3   OH232014   8.265   0.553   3.321
10686TIP3    H132015   8.170   0.560   3.319
10686TIP3    H232016   8.292   0.608   3.395
10687TIP3   OH232017   6.460   4.214   4.643
10687TIP3    H132018   6.513   4.293   4.655
10687TIP3    H232019   6.488   4.179   4.558
10688TIP3   OH232020   7.269   3.852   5.604
10688TIP3    H132021   7.186   3.858   5.652
10688TIP3    H232022   7.243   3.845   5.512
10689TIP3   OH232023   4.867   2.363   3.552
10689TIP3    H132024   4.906   2.334   3.470
10689TIP3    H232025   4.775   2.336   3.546
10690TIP3   OH232026   2.801   4.861   3.209
10690TIP3    H132027   2.876   4.836   3.263
10690TIP3    H232028   2.725   4.825   3.255
10691TIP3   OH232029   6.662   4.558   5.749
10691TIP3    H132030   6.597   4.557   5.819
10691TIP3    H232031   6.734   4.612   5.783
10692TIP3   OH232032   5.946   0.771   2.047
10692TIP3    H132033   5.998   0.814   2.115
10692TIP3    H232034   5.953   0.828   1.971
10693TIP3   OH232035   6.972   5.454   6.110
10693TIP3    H132036   7.004   5.532   6.065
10693TIP3    H232037   6.876   5.461   6.105
10694TIP3   OH232038   0.376   6.638   5.860
10694TIP3    H132039   0.344   6.549   5.876
10694TIP3    H232040   0.320   6.694   5.915
10695TIP3   OH232041   5.383   1.620   3.641
10695TIP3    H132042   5.303   1.580   3.607
10695TIP3    H232043   5.449   1.551   3.637
10696TIP3   OH232044   7.748   7.151   6.731
10696TIP3    H132045   7.735   7.246   6.721
10696TIP3    H232046   7.810   7.143   6.804
10697TIP3   OH232047   5.797   7.138   4.340
10697TIP3    H132048   5.758   7.099   4.418
10697TIP3    H232049   5.891   7.129   4.352
10698TIP3   OH232050   3.981   2.651   6.280
10698TIP3    H132051   3.959   2.568   6.322
10698TIP3    H232052   3.898   2.699   6.277
10699TIP3   OH232053   5.979   5.198   5.806
10699TIP3    H132054   5.888   5.221   5.821
10699TIP3    H232055   5.977   5.132   5.737
10700TIP3   OH232056   1.996   7.428   6.464
10700TIP3    H132057   2.061   7.386   6.521
10700TIP3    H232058   1.966   7.504   6.514
10701TIP3   OH232059   2.858   3.277   4.285
10701TIP3    H132060   2.795   3.336   4.244
10701TIP3    H232061   2.824   3.263   4.373
10702TIP3   OH232062   1.587   3.099   5.598
10702TIP3    H132063   1.624   3.020   5.637
10702TIP3    H232064   1.495   3.099   5.626
10703TIP3   OH232065   1.815   0.314   1.636
10703TIP3    H132066   1.867   0.391   1.614
10703TIP3    H232067   1.767   0.294   1.555
10704TIP3   OH232068   5.038   4.478   6.389
10704TIP3    H132069   5.122   4.479   6.342
10704TIP3    H232070   5.046   4.406   6.451
10705TIP3   OH232071   4.227   4.046   6.217
10705TIP3    H132072   4.139   4.041   6.255
10705TIP3    H232073   4.262   3.957   6.225
10706TIP3   OH232074   1.736   2.573   1.452
10706TIP3    H132075   1.831   2.565   1.451
10706TIP3    H232076   1.707   2.516   1.523
10707TIP3   OH232077   7.362   0.316   0.792
10707TIP3    H132078   7.286   0.333   0.736
10707TIP3    H232079   7.367   0.392   0.849
10708TIP3   OH232080   3.719   4.357   2.034
10708TIP3    H132081   3.772   4.347   1.956
10708TIP3    H232082   3.763   4.425   2.085
10709TIP3   OH232083   6.282   6.941   6.690
10709TIP3    H132084   6.308   7.022   6.645
10709TIP3    H232085   6.290   6.962   6.783
10710TIP3   OH232086   4.166   0.210   5.476
10710TIP3    H132087   4.255   0.207   5.510
10710TIP3    H232088   4.110   0.194   5.551
10711TIP3   OH232089   3.826   4.143   3.548
10711TIP3    H132090   3.809   4.214   3.610
10711TIP3    H232091   3.909   4.104   3.577
10712TIP3   OH232092   6.214   1.063   3.179
10712TIP3    H132093   6.166   0.982   3.159
10712TIP3    H232094   6.230   1.058   3.273
10713TIP3   OH232095   5.859   4.015   4.383
10713TIP3    H132096   5.783   3.956   4.379
10713TIP3    H232097   5.876   4.039   4.292
10714TIP3   OH232098   3.211   6.251   5.778
10714TIP3    H132099   3.220   6.208   5.693
10714TIP3    H232100   3.273   6.324   5.774
10715TIP3   OH232101   8.022   3.595   4.389
10715TIP3    H132102   8.021   3.533   4.461
10715TIP3    H232103   7.968   3.554   4.321
10716TIP3   OH232104   1.492   7.155   1.354
10716TIP3    H132105   1.521   7.244   1.371
10716TIP3    H232106   1.542   7.127   1.277
10717TIP3   OH232107   3.182   1.922   6.318
10717TIP3    H132108   3.191   1.827   6.317
10717TIP3    H232109   3.137   1.941   6.401
10718TIP3   OH232110   0.193   6.861   4.981
10718TIP3    H132111   0.155   6.930   5.036
10718TIP3    H232112   0.280   6.847   5.018
10719TIP3   OH232113   1.218   2.163   3.479
10719TIP3    H132114   1.123   2.156   3.480
10719TIP3    H232115   1.240   2.176   3.387
10720TIP3   OH232116   0.225   5.244   3.891
10720TIP3    H132117   0.140   5.281   3.916
10720TIP3    H232118   0.253   5.297   3.816
10721TIP3   OH232119   5.129   5.736   2.606
10721TIP3    H132120   5.049   5.691   2.578
10721TIP3    H232121   5.118   5.826   2.574
10722TIP3   OH232122   1.490   6.821   5.390
10722TIP3    H132123   1.460   6.781   5.472
10722TIP3    H232124   1.574   6.778   5.372
10723TIP3   OH232125   0.613   4.340   2.784
10723TIP3    H132126   0.566   4.414   2.824
10723TIP3    H232127   0.704   4.350   2.812
10724TIP3   OH232128   1.650   0.747   2.489
10724TIP3    H132129   1.583   0.684   2.516
10724TIP3    H232130   1.699   0.702   2.421
10725TIP3   OH232131   5.385   7.293   5.764
10725TIP3    H132132   5.350   7.331   5.683
10725TIP3    H232133   5.374   7.361   5.830
10726TIP3   OH232134   3.062   4.362   4.489
10726TIP3    H132135   3.055   4.309   4.409
10726TIP3    H232136   3.138   4.418   4.474
10727TIP3   OH232137   5.819   6.706   4.710
10727TIP3    H132138   5.770   6.703   4.627
10727TIP3    H232139   5.840   6.615   4.729
10728TIP3   OH232140   4.273   6.908   5.654
10728TIP3    H132141   4.222   6.827   5.652
10728TIP3    H232142   4.210   6.975   5.680
10729TIP3   OH232143   8.025   3.036   0.739
10729TIP3    H132144   7.990   2.967   0.795
10729TIP3    H232145   8.017   3.002   0.650
10730TIP3   OH232146   2.080   1.634   2.643
10730TIP3    H132147   2.151   1.570   2.633
10730TIP3    H232148   2.121   1.718   2.622
10731TIP3   OH232149   3.821   0.983   0.326
10731TIP3    H132150   3.817   0.888   0.341
10731TIP3    H232151   3.837   1.020   0.413
10732TIP3   OH232152   1.519   0.336   3.671
10732TIP3    H132153   1.456   0.266   3.692
10732TIP3    H232154   1.589   0.291   3.623
10733TIP3   OH232155   1.023   0.095   3.481
10733TIP3    H132156   0.950   0.144   3.444
10733TIP3    H232157   0.992   0.067   3.567
10734TIP3   OH232158   2.177   2.267   1.820
10734TIP3    H132159   2.110   2.320   1.863
10734TIP3    H232160   2.133   2.184   1.802
10735TIP3   OH232161   2.546   5.985   4.848
10735TIP3    H132162   2.604   6.056   4.819
10735TIP3    H232163   2.460   6.008   4.811
10736TIP3   OH232164   2.677   7.439   6.458
10736TIP3    H132165   2.607   7.493   6.421
10736TIP3    H232166   2.751   7.453   6.398
10737TIP3   OH232167   3.687   5.272   3.737
10737TIP3    H132168   3.628   5.306   3.671
10737TIP3    H232169   3.690   5.178   3.721
10738TIP3   OH232170   3.694   0.336   2.540
10738TIP3    H132171   3.717   0.245   2.557
10738TIP3    H232172   3.642   0.332   2.460
10739TIP3   OH232173   3.000   5.318   6.040
10739TIP3    H132174   2.921   5.368   6.019
10739TIP3    H232175   3.044   5.305   5.956
10740TIP3   OH232176   5.367   6.185   5.408
10740TIP3    H132177   5.310   6.166   5.334
10740TIP3    H232178   5.331   6.265   5.447
10741TIP3   OH232179   5.721   0.002   2.566
10741TIP3    H132180   5.652   0.068   2.575
10741TIP3    H232181   5.803   0.051   2.576
10742TIP3   OH232182   7.566   5.318   1.114
10742TIP3    H132183   7.516   5.394   1.142
10742TIP3    H232184   7.534   5.246   1.168
10743TIP3   OH232185   2.244   0.807   0.642
10743TIP3    H132186   2.236   0.826   0.549
10743TIP3    H232187   2.252   0.894   0.683
10744TIP3   OH232188   5.604   5.820   1.130
10744TIP3    H132189   5.539   5.764   1.174
10744TIP3    H232190   5.666   5.844   1.199
10745TIP3   OH232191   4.329   4.267   0.040
10745TIP3    H132192   4.324   4.196   0.104
10745TIP3    H232193   4.239   4.275   0.007
10746TIP3   OH232194   0.365   2.410   6.187
10746TIP3    H132195   0.311   2.411   6.266
10746TIP3    H232196   0.349   2.494   6.146
10747TIP3   OH232197   7.874   3.618   2.389
10747TIP3    H132198   7.959   3.657   2.409
10747TIP3    H232199   7.874   3.535   2.436
10748TIP3   OH232200   2.200   2.809   6.252
10748TIP3    H132201   2.159   2.895   6.260
10748TIP3    H232202   2.259   2.817   6.177
10749TIP3   OH232203   0.472   7.150   2.524
10749TIP3    H132204   0.476   7.076   2.584
10749TIP3    H232205   0.564   7.171   2.505
10750TIP3   OH232206   2.176   6.553   3.584
10750TIP3    H132207   2.108   6.560   3.651
10750TIP3    H232208   2.147   6.612   3.515
10751TIP3   OH232209   3.462   3.432   3.372
10751TIP3    H132210   3.535   3.486   3.400
10751TIP3    H232211   3.450   3.455   3.280
10752TIP3   OH232212   4.998   5.942   1.139
10752TIP3    H132213   4.999   6.032   1.105
10752TIP3    H232214   5.063   5.941   1.208
10753TIP3   OH232215   3.742   0.499   2.769
10753TIP3    H132216   3.749   0.479   2.675
10753TIP3    H232217   3.663   0.453   2.797
10754TIP3   OH232218   7.564   6.936   2.125
10754TIP3    H132219   7.470   6.921   2.133
10754TIP3    H232220   7.603   6.877   2.190
10755TIP3   OH232221   6.352   2.719   5.659
10755TIP3    H132222   6.414   2.663   5.704
10755TIP3    H232223   6.406   2.776   5.604
10756TIP3   OH232224   6.508   3.651   4.095
10756TIP3    H132225   6.479   3.733   4.056
10756TIP3    H232226   6.429   3.598   4.101
10757TIP3   OH232227   1.644   0.117   0.419
10757TIP3    H132228   1.650   0.023   0.438
10757TIP3    H232229   1.667   0.124   0.327
10758TIP3   OH232230   6.275   5.408   0.671
10758TIP3    H132231   6.331   5.471   0.716
10758TIP3    H232232   6.196   5.457   0.650
10759TIP3   OH232233   3.121   0.042   1.809
10759TIP3    H132234   3.050   0.084   1.761
10759TIP3    H232235   3.164  -0.014   1.744
10760TIP3   OH232236   3.646   0.710   0.113
10760TIP3    H132237   3.717   0.714   0.049
10760TIP3    H232238   3.687   0.735   0.196
10761TIP3   OH232239   1.973   5.644   6.193
10761TIP3    H132240   1.984   5.630   6.099
10761TIP3    H232241   2.059   5.625   6.230
10762TIP3   OH232242   0.181   2.990   4.852
10762TIP3    H132243   0.233   2.918   4.817
10762TIP3    H232244   0.093   2.977   4.817
10763TIP3   OH232245   7.280   0.201   5.206
10763TIP3    H132246   7.303   0.159   5.290
10763TIP3    H232247   7.233   0.280   5.232
10764TIP3   OH232248   0.990   4.470   3.169
10764TIP3    H132249   0.957   4.485   3.258
10764TIP3    H232250   1.025   4.381   3.170
10765TIP3   OH232251   4.578   4.931   1.602
10765TIP3    H132252   4.540   4.865   1.661
10765TIP3    H232253   4.643   4.977   1.656
10766TIP3   OH232254   8.202   4.341   2.056
10766TIP3    H132255   8.156   4.276   2.109
10766TIP3    H232256   8.199   4.306   1.967
10767TIP3   OH232257   1.788   3.070   6.347
10767TIP3    H132258   1.700   3.043   6.374
10767TIP3    H232259   1.781   3.165   6.332
10768TIP3   OH232260   3.477   4.949   1.811
10768TIP3    H132261   3.483   4.884   1.881
10768TIP3    H232262   3.397   4.925   1.764
10769TIP3   OH232263   2.874   1.358   0.648
10769TIP3    H132264   2.873   1.432   0.709
10769TIP3    H232265   2.889   1.281   0.704
10770TIP3   OH232266   0.658   7.248   3.578
10770TIP3    H132267   0.679   7.336   3.610
10770TIP3    H232268   0.704   7.189   3.638
10771TIP3   OH232269   7.860   6.532   5.853
10771TIP3    H132270   7.939   6.508   5.901
10771TIP3    H232271   7.857   6.627   5.856
10772TIP3   OH232272   7.944   3.781   3.214
10772TIP3    H132273   7.967   3.810   3.302
10772TIP3    H232274   7.848   3.775   3.215
10773TIP3   OH232275   1.326   7.650   6.105
10773TIP3    H132276   1.298   7.581   6.045
10773TIP3    H232277   1.378   7.605   6.171
10774TIP3   OH232278   6.368   3.983   3.083
10774TIP3    H132279   6.413   3.909   3.042
10774TIP3    H232280   6.315   3.944   3.152
10775TIP3   OH232281   5.117   0.284   4.222
10775TIP3    H132282   5.174   0.208   4.235
10775TIP3    H232283   5.138   0.343   4.294
10776TIP3   OH232284   1.096   7.349   1.691
10776TIP3    H132285   1.038   7.422   1.711
10776TIP3    H232286   1.087   7.336   1.597
10777TIP3   OH232287   8.294   3.967   2.772
10777TIP3    H132288   8.353   3.892   2.769
10777TIP3    H232289   8.223   3.945   2.711
10778TIP3   OH232290   4.194   0.283   6.809
10778TIP3    H132291   4.185   0.336   6.729
10778TIP3    H232292   4.205   0.194   6.778
10779TIP3   OH232293   1.856   6.706   6.374
10779TIP3    H132294   1.882   6.667   6.290
10779TIP3    H232295   1.777   6.756   6.353
10780TIP3   OH232296   2.066   4.838   3.088
10780TIP3    H132297   1.973   4.856   3.103
10780TIP3    H232298   2.110   4.872   3.166
10781TIP3   OH232299   2.614   7.413   1.793
10781TIP3    H132300   2.590   7.349   1.726
10781TIP3    H232301   2.636   7.360   1.870
10782TIP3   OH232302   6.782   3.445   6.263
10782TIP3    H132303   6.871   3.466   6.292
10782TIP3    H232304   6.782   3.350   6.251
10783TIP3   OH232305   6.011   7.468   5.017
10783TIP3    H132306   6.034   7.535   4.953
10783TIP3    H232307   5.930   7.501   5.057
10784TIP3   OH232308   5.469   5.348   5.867
10784TIP3    H132309   5.417   5.365   5.788
10784TIP3    H232310   5.437   5.264   5.900
10785TIP3   OH232311   3.410   3.644   5.470
10785TIP3    H132312   3.390   3.600   5.553
10785TIP3    H232313   3.447   3.575   5.415
10786TIP3   OH232314   5.432   7.531   0.673
10786TIP3    H132315   5.350   7.516   0.626
10786TIP3    H232316   5.424   7.478   0.752
10787TIP3   OH232317   4.069   0.496   1.710
10787TIP3    H132318   4.057   0.458   1.623
10787TIP3    H232319   4.014   0.574   1.710
10788TIP3   OH232320   4.232   3.548   4.038
10788TIP3    H132321   4.321   3.528   4.009
10788TIP3    H232322   4.178   3.538   3.959
10789TIP3   OH232323   4.533   0.835   6.670
10789TIP3    H132324   4.470   0.896   6.631
10789TIP3    H232325   4.484   0.753   6.680
10790TIP3   OH232326   6.178   4.359   0.465
10790TIP3    H132327   6.235   4.426   0.502
10790TIP3    H232328   6.106   4.407   0.424
10791TIP3   OH232329   1.069   2.096   5.048
10791TIP3    H132330   1.135   2.043   5.004
10791TIP3    H232331   1.066   2.063   5.137
10792TIP3   OH232332   6.369   7.578   5.014
10792TIP3    H132333   6.435   7.511   4.998
10792TIP3    H232334   6.411   7.639   5.075
10793TIP3   OH232335   8.249   6.094   4.918
10793TIP3    H132336   8.215   6.172   4.874
10793TIP3    H232337   8.183   6.073   4.985
10794TIP3   OH232338   5.345   1.897   3.754
10794TIP3    H132339   5.343   1.804   3.731
10794TIP3    H232340   5.328   1.943   3.672
10795TIP3   OH232341   1.962   7.665   1.748
10795TIP3    H132342   2.014   7.619   1.682
10795TIP3    H232343   1.931   7.596   1.806
10796TIP3   OH232344   7.072   5.666   5.992
10796TIP3    H132345   7.114   5.731   6.048
10796TIP3    H232346   7.144   5.621   5.948
10797TIP3   OH232347   2.459   1.918   4.194
10797TIP3    H132348   2.484   1.865   4.118
10797TIP3    H232349   2.433   2.002   4.157
10798TIP3   OH232350   0.534   1.868   2.750
10798TIP3    H132351   0.441   1.874   2.772
10798TIP3    H232352   0.542   1.909   2.664
10799TIP3   OH232353   4.660   3.044   4.056
10799TIP3    H132354   4.595   3.114   4.067
10799TIP3    H232355   4.744   3.086   4.075
10800TIP3   OH232356   3.450   2.756   0.800
10800TIP3    H132357   3.471   2.667   0.830
10800TIP3    H232358   3.366   2.776   0.840
10801TIP3   OH232359   7.046   1.112   6.255
10801TIP3    H132360   7.115   1.151   6.202
10801TIP3    H232361   6.966   1.123   6.203
10802TIP3   OH232362   1.828   7.744   5.439
10802TIP3    H132363   1.789   7.751   5.351
10802TIP3    H232364   1.802   7.658   5.470
10803TIP3   OH232365   4.122   5.777   3.806
10803TIP3    H132366   4.150   5.715   3.739
10803TIP3    H232367   4.193   5.779   3.869
10804TIP3   OH232368   1.590   0.947   4.152
10804TIP3    H132369   1.641   0.915   4.226
10804TIP3    H232370   1.656   0.974   4.088
10805TIP3   OH232371   2.163   2.778   3.485
10805TIP3    H132372   2.121   2.696   3.462
10805TIP3    H232373   2.241   2.782   3.430
10806TIP3   OH232374   0.122   5.586   3.078
10806TIP3    H132375   0.064   5.624   3.011
10806TIP3    H232376   0.083   5.501   3.099
10807TIP3   OH232377   4.697   3.229   2.364
10807TIP3    H132378   4.708   3.267   2.451
10807TIP3    H232379   4.602   3.230   2.349
10808TIP3   OH232380   3.436   2.130   0.517
10808TIP3    H132381   3.367   2.197   0.514
10808TIP3    H232382   3.506   2.166   0.463
10809TIP3   OH232383   0.998   3.491   3.182
10809TIP3    H132384   1.084   3.517   3.215
10809TIP3    H232385   0.993   3.531   3.095
10810TIP3   OH232386   1.671   7.377   0.700
10810TIP3    H132387   1.739   7.430   0.659
10810TIP3    H232388   1.618   7.345   0.627
10811TIP3   OH232389   1.076   6.659   1.630
10811TIP3    H132390   1.122   6.718   1.689
10811TIP3    H232391   1.122   6.575   1.639
10812TIP3   OH232392   7.875   5.810   2.415
10812TIP3    H132393   7.872   5.736   2.354
10812TIP3    H232394   7.908   5.883   2.363
10813TIP3   OH232395   8.085   3.817   0.551
10813TIP3    H132396   8.071   3.731   0.592
10813TIP3    H232397   8.001   3.838   0.510
10814TIP3   OH232398   1.390   5.881   0.763
10814TIP3    H132399   1.344   5.802   0.734
10814TIP3    H232400   1.355   5.897   0.851
10815TIP3   OH232401   5.208   1.232   0.940
10815TIP3    H132402   5.156   1.243   0.860
10815TIP3    H232403   5.253   1.148   0.927
10816TIP3   OH232404   5.859   1.910   4.921
10816TIP3    H132405   5.834   1.957   5.000
10816TIP3    H232406   5.825   1.964   4.849
10817TIP3   OH232407   1.861   6.593   1.351
10817TIP3    H132408   1.936   6.632   1.396
10817TIP3    H232409   1.798   6.573   1.421
10818TIP3   OH232410   6.073  -0.003   0.455
10818TIP3    H132411   6.010   0.061   0.422
10818TIP3    H232412   6.091  -0.060   0.380
10819TIP3   OH232413   6.255   0.225   5.715
10819TIP3    H132414   6.304   0.238   5.634
10819TIP3    H232415   6.171   0.189   5.688
10820TIP3   OH232416   5.297   2.029   3.985
10820TIP3    H132417   5.204   2.048   3.999
10820TIP3    H232418   5.298   1.963   3.916
10821TIP3   OH232419   6.231   1.643   3.539
10821TIP3    H132420   6.239   1.556   3.501
10821TIP3    H232421   6.214   1.628   3.632
10822TIP3   OH232422   0.685   5.304   0.525
10822TIP3    H132423   0.718   5.235   0.466
10822TIP3    H232424   0.756   5.368   0.528
10823TIP3   OH232425   1.705   0.154   3.559
10823TIP3    H132426   1.797   0.148   3.587
10823TIP3    H232427   1.669   0.068   3.577
10824TIP3   OH232428   4.201   4.995   4.884
10824TIP3    H132429   4.232   4.905   4.869
10824TIP3    H232430   4.163   5.021   4.800
10825TIP3   OH232431   7.722   3.512   0.572
10825TIP3    H132432   7.634   3.485   0.544
10825TIP3    H232433   7.779   3.490   0.499
10826TIP3   OH232434   2.029   7.243   3.717
10826TIP3    H132435   2.122   7.258   3.728
10826TIP3    H232436   2.016   7.152   3.745
10827TIP3   OH232437   3.740   2.703   5.423
10827TIP3    H132438   3.821   2.698   5.373
10827TIP3    H232439   3.673   2.669   5.364
10828TIP3   OH232440   7.483   1.637   6.656
10828TIP3    H132441   7.532   1.567   6.697
10828TIP3    H232442   7.517   1.641   6.566
10829TIP3   OH232443   7.498   0.555   3.649
10829TIP3    H132444   7.529   0.515   3.568
10829TIP3    H232445   7.484   0.482   3.709
10830TIP3   OH232446   5.268   0.677   5.154
10830TIP3    H132447   5.361   0.654   5.159
10830TIP3    H232448   5.222   0.596   5.173
10831TIP3   OH232449   3.003   5.884   1.573
10831TIP3    H132450   2.980   5.915   1.660
10831TIP3    H232451   3.099   5.878   1.574
10832TIP3   OH232452   5.359   1.560   2.737
10832TIP3    H132453   5.441   1.550   2.690
10832TIP3    H232454   5.334   1.471   2.762
10833TIP3   OH232455   7.762   7.088   2.832
10833TIP3    H132456   7.793   7.174   2.806
10833TIP3    H232457   7.724   7.101   2.919
10834TIP3   OH232458   6.132   7.668   3.826
10834TIP3    H132459   6.065   7.677   3.758
10834TIP3    H232460   6.215   7.673   3.778
10835TIP3   OH232461   3.866   0.746   0.672
10835TIP3    H132462   3.794   0.688   0.696
10835TIP3    H232463   3.879   0.801   0.749
10836TIP3   OH232464   3.071   4.704   0.059
10836TIP3    H132465   3.033   4.790   0.042
10836TIP3    H232466   3.011   4.663   0.122
10837TIP3   OH232467   6.369   2.879   2.827
10837TIP3    H132468   6.360   2.919   2.740
10837TIP3    H232469   6.463   2.879   2.844
10838TIP3   OH232470   8.052   1.159   2.943
10838TIP3    H132471   8.070   1.252   2.958
10838TIP3    H232472   8.130   1.127   2.898
10839TIP3   OH232473   3.228   3.681   5.964
10839TIP3    H132474   3.147   3.724   5.994
10839TIP3    H232475   3.229   3.696   5.869
10840TIP3   OH232476   2.678   6.045   2.268
10840TIP3    H132477   2.623   5.971   2.242
10840TIP3    H232478   2.704   6.025   2.357
10841TIP3   OH232479   3.909   2.155   5.054
10841TIP3    H132480   3.933   2.230   5.107
10841TIP3    H232481   3.902   2.189   4.965
10842TIP3   OH232482   5.140   3.679   5.296
10842TIP3    H132483   5.226   3.652   5.267
10842TIP3    H232484   5.096   3.710   5.217
10843TIP3   OH232485   6.662   1.264   4.607
10843TIP3    H132486   6.730   1.207   4.644
10843TIP3    H232487   6.623   1.306   4.683
10844TIP3   OH232488   2.789   3.462   3.048
10844TIP3    H132489   2.875   3.429   3.022
10844TIP3    H232490   2.796   3.472   3.143
10845TIP3   OH232491   5.547   3.258   4.395
10845TIP3    H132492   5.554   3.284   4.303
10845TIP3    H232493   5.595   3.326   4.443
10846TIP3   OH232494   5.840   4.391   2.591
10846TIP3    H132495   5.858   4.481   2.563
10846TIP3    H232496   5.762   4.366   2.542
10847TIP3   OH232497   6.934   5.690   1.770
10847TIP3    H132498   6.951   5.602   1.804
10847TIP3    H232499   7.018   5.720   1.737
10848TIP3   OH232500   4.061   6.245   2.388
10848TIP3    H132501   3.996   6.178   2.367
10848TIP3    H232502   4.028   6.286   2.468
10849TIP3   OH232503   7.830   4.525   3.974
10849TIP3    H132504   7.797   4.601   4.023
10849TIP3    H232505   7.865   4.562   3.893
10850TIP3   OH232506   2.180   6.272   3.845
10850TIP3    H132507   2.139   6.186   3.843
10850TIP3    H232508   2.242   6.271   3.772
10851TIP3   OH232509   0.494   3.947   2.683
10851TIP3    H132510   0.588   3.947   2.696
10851TIP3    H232511   0.481   3.900   2.600
10852TIP3   OH232512   2.465   0.592   1.029
10852TIP3    H132513   2.499   0.525   1.089
10852TIP3    H232514   2.370   0.585   1.037
10853TIP3   OH232515   7.137   5.219   6.590
10853TIP3    H132516   7.149   5.151   6.523
10853TIP3    H232517   7.213   5.276   6.580
10854TIP3   OH232518   2.926   0.375   4.995
10854TIP3    H132519   2.980   0.310   4.950
10854TIP3    H232520   2.989   0.424   5.048
10855TIP3   OH232521   5.496   4.004   3.241
10855TIP3    H132522   5.566   4.020   3.177
10855TIP3    H232523   5.422   4.054   3.208
10856TIP3   OH232524   5.869   4.766   6.687
10856TIP3    H132525   5.826   4.791   6.769
10856TIP3    H232526   5.943   4.712   6.715
10857TIP3   OH232527   8.220   5.346   4.561
10857TIP3    H132528   8.245   5.435   4.585
10857TIP3    H232529   8.148   5.325   4.620
10858TIP3   OH232530   6.728   1.509   0.201
10858TIP3    H132531   6.660   1.550   0.147
10858TIP3    H232532   6.690   1.425   0.227
10859TIP3   OH232533   3.994   2.997   5.964
10859TIP3    H132534   3.911   2.987   5.917
10859TIP3    H232535   3.994   3.089   5.992
10860TIP3   OH232536   1.753   3.196   5.912
10860TIP3    H132537   1.789   3.234   5.992
10860TIP3    H232538   1.809   3.230   5.843
10861TIP3   OH232539   1.582   6.739   0.968
10861TIP3    H132540   1.560   6.661   0.918
10861TIP3    H232541   1.619   6.705   1.050
10862TIP3   OH232542   4.091   7.778   0.072
10862TIP3    H132543   4.096   7.683   0.062
10862TIP3    H232544   4.163   7.812   0.018
10863TIP3   OH232545   5.093   4.252   2.353
10863TIP3    H132546   5.026   4.238   2.421
10863TIP3    H232547   5.176   4.248   2.400
10864TIP3   OH232548   3.923   0.239   6.286
10864TIP3    H132549   4.003   0.292   6.290
10864TIP3    H232550   3.862   0.284   6.346
10865TIP3   OH232551   2.439   6.423   5.713
10865TIP3    H132552   2.505   6.365   5.674
10865TIP3    H232553   2.489   6.481   5.771
10866TIP3   OH232554   2.053   0.759   4.777
10866TIP3    H132555   1.994   0.714   4.837
10866TIP3    H232556   2.141   0.731   4.803
10867TIP3   OH232557   5.848   1.676   0.408
10867TIP3    H132558   5.937   1.646   0.390
10867TIP3    H232559   5.853   1.714   0.496
10868TIP3   OH232560   5.249   4.894   0.990
10868TIP3    H132561   5.167   4.855   0.959
10868TIP3    H232562   5.300   4.907   0.910
10869TIP3   OH232563   7.104   7.385   1.961
10869TIP3    H132564   7.178   7.326   1.948
10869TIP3    H232565   7.144   7.468   1.987
10870TIP3   OH232566   2.203   5.555   1.731
10870TIP3    H132567   2.266   5.485   1.747
10870TIP3    H232568   2.148   5.556   1.809
10871TIP3   OH232569   4.401   1.929   3.175
10871TIP3    H132570   4.338   1.946   3.106
10871TIP3    H232571   4.382   1.840   3.204
10872TIP3   OH232572   7.180   0.288   2.070
10872TIP3    H132573   7.204   0.198   2.050
10872TIP3    H232574   7.136   0.284   2.154
10873TIP3   OH232575   2.458   5.458   0.553
10873TIP3    H132576   2.505   5.377   0.570
10873TIP3    H232577   2.373   5.430   0.521
10874TIP3   OH232578   4.997   7.152   6.634
10874TIP3    H132579   4.957   7.134   6.720
10874TIP3    H232580   5.080   7.196   6.655
10875TIP3   OH232581   2.021   1.568   3.982
10875TIP3    H132582   2.093   1.559   4.045
10875TIP3    H232583   1.967   1.639   4.018
10876TIP3   OH232584   3.200   4.677   2.104
10876TIP3    H132585   3.229   4.698   2.192
10876TIP3    H232586   3.151   4.595   2.113
10877TIP3   OH232587   4.276   2.090   4.659
10877TIP3    H132588   4.369   2.066   4.661
10877TIP3    H232589   4.243   2.053   4.577
10878TIP3   OH232590   5.937   4.688   5.141
10878TIP3    H132591   5.999   4.761   5.143
10878TIP3    H232592   5.915   4.674   5.233
10879TIP3   OH232593   7.915   4.719   3.799
10879TIP3    H132594   7.885   4.810   3.799
10879TIP3    H232595   7.944   4.704   3.709
10880TIP3   OH232596   1.001   6.231   3.338
10880TIP3    H132597   1.063   6.158   3.348
10880TIP3    H232598   0.972   6.226   3.247
10881TIP3   OH232599   5.799   0.578   4.412
10881TIP3    H132600   5.876   0.617   4.454
10881TIP3    H232601   5.803   0.611   4.321
10882TIP3   OH232602   0.063   7.390   1.597
10882TIP3    H132603   0.007   7.420   1.526
10882TIP3    H232604   0.020   7.422   1.677
10883TIP3   OH232605   7.064   2.942   1.440
10883TIP3    H132606   7.104   2.970   1.358
10883TIP3    H232607   7.060   3.021   1.493
10884TIP3   OH232608   0.236   6.826   6.057
10884TIP3    H132609   0.237   6.803   6.150
10884TIP3    H232610   0.162   6.887   6.048
10885TIP3   OH232611   1.980   2.548   1.346
10885TIP3    H132612   2.074   2.545   1.327
10885TIP3    H232613   1.941   2.488   1.282
10886TIP3   OH232614   5.550   3.098   3.377
10886TIP3    H132615   5.591   3.037   3.438
10886TIP3    H232616   5.572   3.184   3.411
10887TIP3   OH232617   0.172   3.405   2.463
10887TIP3    H132618   0.177   3.427   2.370
10887TIP3    H232619   0.198   3.313   2.468
10888TIP3   OH232620   7.131   5.351   3.791
10888TIP3    H132621   7.135   5.255   3.795
10888TIP3    H232622   7.039   5.370   3.771
10889TIP3   OH232623   2.715   4.720   5.620
10889TIP3    H132624   2.641   4.725   5.680
10889TIP3    H232625   2.791   4.705   5.677
10890TIP3   OH232626   5.605   2.557   0.531
10890TIP3    H132627   5.666   2.612   0.482
10890TIP3    H232628   5.556   2.620   0.585
10891TIP3   OH232629   4.786   1.575   3.003
10891TIP3    H132630   4.797   1.587   2.908
10891TIP3    H232631   4.692   1.584   3.017
10892TIP3   OH232632   1.907   2.160   3.702
10892TIP3    H132633   1.906   2.138   3.795
10892TIP3    H232634   1.936   2.080   3.659
10893TIP3   OH232635   0.296   1.982   2.879
10893TIP3    H132636   0.291   1.892   2.910
10893TIP3    H232637   0.240   2.031   2.940
10894TIP3   OH232638   5.586   3.113   4.821
10894TIP3    H132639   5.582   3.192   4.875
10894TIP3    H232640   5.538   3.047   4.870
10895TIP3   OH232641   6.722   4.421   1.334
10895TIP3    H132642   6.658   4.369   1.382
10895TIP3    H232643   6.774   4.357   1.286
10896TIP3   OH232644   1.101   4.474   2.116
10896TIP3    H132645   1.074   4.525   2.193
10896TIP3    H232646   1.027   4.415   2.099
10897TIP3   OH232647   5.647   4.957   4.999
10897TIP3    H132648   5.690   4.976   5.082
10897TIP3    H232649   5.682   5.022   4.938
10898TIP3   OH232650   4.254   0.258   6.096
10898TIP3    H132651   4.178   0.200   6.103
10898TIP3    H232652   4.219   0.338   6.058
10899TIP3   OH232653   1.806   4.966   1.242
10899TIP3    H132654   1.725   4.917   1.226
10899TIP3    H232655   1.826   5.005   1.157
10900TIP3   OH232656   3.381   7.336   3.066
10900TIP3    H132657   3.419   7.384   2.992
10900TIP3    H232658   3.456   7.312   3.120
10901TIP3   OH232659   6.632   1.619   3.414
10901TIP3    H132660   6.687   1.566   3.356
10901TIP3    H232661   6.546   1.620   3.371
10902TIP3   OH232662   2.377   4.269   5.410
10902TIP3    H132663   2.340   4.317   5.336
10902TIP3    H232664   2.404   4.185   5.373
10903TIP3   OH232665   0.394   1.069   4.994
10903TIP3    H132666   0.331   1.045   5.063
10903TIP3    H232667   0.367   1.157   4.968
10904TIP3   OH232668   3.581   1.724   2.055
10904TIP3    H132669   3.568   1.743   1.962
10904TIP3    H232670   3.565   1.807   2.099
10905TIP3   OH232671   8.191   2.507   2.054
10905TIP3    H132672   8.113   2.544   2.095
10905TIP3    H232673   8.212   2.429   2.105
10906TIP3   OH232674   5.427   4.634   4.397
10906TIP3    H132675   5.401   4.659   4.309
10906TIP3    H232676   5.370   4.684   4.455
10907TIP3   OH232677   4.548   2.092   4.741
10907TIP3    H132678   4.503   2.114   4.823
10907TIP3    H232679   4.594   2.010   4.760
10908TIP3   OH232680   1.282   1.076   3.361
10908TIP3    H132681   1.187   1.077   3.351
10908TIP3    H232682   1.298   1.012   3.430
10909TIP3   OH232683   2.689   2.689   2.070
10909TIP3    H132684   2.698   2.608   2.020
10909TIP3    H232685   2.778   2.708   2.100
10910TIP3   OH232686   1.226   3.854   6.509
10910TIP3    H132687   1.228   3.889   6.598
10910TIP3    H232688   1.150   3.796   6.508
10911TIP3   OH232689   2.384   0.124   0.081
10911TIP3    H132690   2.479   0.118   0.066
10911TIP3    H232691   2.350   0.040   0.048
10912TIP3   OH232692   1.027   4.883   6.783
10912TIP3    H132693   0.968   4.934   6.728
10912TIP3    H232694   1.042   4.802   6.733
10913TIP3   OH232695   1.255   4.424   6.368
10913TIP3    H132696   1.291   4.489   6.427
10913TIP3    H232697   1.197   4.372   6.423
10914TIP3   OH232698   1.344   2.807   5.785
10914TIP3    H132699   1.413   2.741   5.792
10914TIP3    H232700   1.275   2.763   5.734
10915TIP3   OH232701   6.883   5.101   6.668
10915TIP3    H132702   6.966   5.055   6.655
10915TIP3    H232703   6.889   5.178   6.610
10916TIP3   OH232704   0.771   1.087   6.468
10916TIP3    H132705   0.733   1.106   6.383
10916TIP3    H232706   0.745   0.996   6.486
10917TIP3   OH232707   0.372   1.051   0.157
10917TIP3    H132708   0.337   1.116   0.097
10917TIP3    H232709   0.425   1.102   0.219
10918TIP3   OH232710   7.393   0.558   5.014
10918TIP3    H132711   7.366   0.646   5.041
10918TIP3    H232712   7.447   0.526   5.087
10919TIP3   OH232713   0.981   2.632   3.006
10919TIP3    H132714   1.070   2.667   3.003
10919TIP3    H232715   0.987   2.547   2.962
10920TIP3   OH232716   2.549   2.117   2.747
10920TIP3    H132717   2.573   2.026   2.764
10920TIP3    H232718   2.623   2.153   2.698
10921TIP3   OH232719   1.921   6.553   0.795
10921TIP3    H132720   1.841   6.516   0.755
10921TIP3    H232721   1.979   6.478   0.806
10922TIP3   OH232722   1.694   0.482   2.366
10922TIP3    H132723   1.759   0.435   2.314
10922TIP3    H232724   1.701   0.444   2.454
10923TIP3   OH232725   7.670   1.694   5.937
10923TIP3    H132726   7.649   1.686   6.030
10923TIP3    H232727   7.609   1.760   5.904
10924TIP3   OH232728   4.461   4.294   1.791
10924TIP3    H132729   4.459   4.218   1.733
10924TIP3    H232730   4.511   4.360   1.744
10925TIP3   OH232731   6.338   6.331   6.254
10925TIP3    H132732   6.414   6.308   6.306
10925TIP3    H232733   6.334   6.264   6.186
10926TIP3   OH232734   4.573   3.177   0.666
10926TIP3    H132735   4.603   3.206   0.580
10926TIP3    H232736   4.481   3.204   0.670
10927TIP3   OH232737   2.808   1.067   6.730
10927TIP3    H132738   2.793   0.972   6.733
10927TIP3    H232739   2.731   1.104   6.773
10928TIP3   OH232740   0.392   3.209   5.679
10928TIP3    H132741   0.366   3.149   5.749
10928TIP3    H232742   0.374   3.160   5.598
10929TIP3   OH232743   4.271   7.473   1.317
10929TIP3    H132744   4.338   7.417   1.357
10929TIP3    H232745   4.189   7.442   1.355
10930TIP3   OH232746   0.105   7.724   1.976
10930TIP3    H132747   0.159   7.688   1.907
10930TIP3    H232748   0.139   7.813   1.990
10931TIP3   OH232749   1.368   0.839   3.090
10931TIP3    H132750   1.393   0.820   2.999
10931TIP3    H232751   1.374   0.754   3.135
10932TIP3   OH232752   5.165   6.647   3.831
10932TIP3    H132753   5.071   6.649   3.846
10932TIP3    H232754   5.200   6.595   3.903
10933TIP3   OH232755   3.497   2.280   4.701
10933TIP3    H132756   3.411   2.246   4.679
10933TIP3    H232757   3.528   2.322   4.620
10934TIP3   OH232758   6.314   3.109   1.150
10934TIP3    H132759   6.404   3.120   1.121
10934TIP3    H232760   6.320   3.053   1.227
10935TIP3   OH232761   0.106   7.670   2.352
10935TIP3    H132762   0.086   7.682   2.444
10935TIP3    H232763   0.095   7.576   2.337
10936TIP3   OH232764   8.270   3.292   1.957
10936TIP3    H132765   8.227   3.306   2.042
10936TIP3    H232766   8.238   3.364   1.902
10937TIP3   OH232767   6.781   0.174   6.194
10937TIP3    H132768   6.701   0.138   6.156
10937TIP3    H232769   6.777   0.149   6.287
10938TIP3   OH232770   3.332   3.740   5.711
10938TIP3    H132771   3.260   3.801   5.696
10938TIP3    H232772   3.405   3.776   5.662
10939TIP3   OH232773   0.453   2.335   1.989
10939TIP3    H132774   0.415   2.249   1.974
10939TIP3    H232775   0.415   2.391   1.921
10940TIP3   OH232776   2.209   7.388   0.889
10940TIP3    H132777   2.124   7.344   0.900
10940TIP3    H232778   2.274   7.319   0.901
10941TIP3   OH232779   0.209   4.930   2.204
10941TIP3    H132780   0.234   4.996   2.270
10941TIP3    H232781   0.175   4.981   2.131
10942TIP3   OH232782   7.963   6.416   4.771
10942TIP3    H132783   7.902   6.487   4.751
10942TIP3    H232784   7.933   6.343   4.718
10943TIP3   OH232785   1.587   1.714   2.633
10943TIP3    H132786   1.619   1.801   2.656
10943TIP3    H232787   1.661   1.671   2.590
10944TIP3   OH232788   4.817   0.626   5.919
10944TIP3    H132789   4.892   0.601   5.864
10944TIP3    H232790   4.741   0.610   5.863
10945TIP3   OH232791   4.957   4.170   0.938
10945TIP3    H132792   4.990   4.095   0.889
10945TIP3    H232793   4.864   4.174   0.916
10946TIP3   OH232794   5.254   0.718   4.588
10946TIP3    H132795   5.212   0.793   4.630
10946TIP3    H232796   5.324   0.692   4.649
10947TIP3   OH232797   0.515   6.376   2.543
10947TIP3    H132798   0.419   6.379   2.547
10947TIP3    H232799   0.538   6.428   2.466
10948TIP3   OH232800   7.727   6.090   2.197
10948TIP3    H132801   7.778   6.150   2.251
10948TIP3    H232802   7.792   6.028   2.163
10949TIP3   OH232803   0.628   2.756   6.089
10949TIP3    H132804   0.705   2.741   6.034
10949TIP3    H232805   0.623   2.852   6.098
10950TIP3   OH232806   8.234   4.923   0.289
10950TIP3    H132807   8.162   4.944   0.230
10950TIP3    H232808   8.294   4.998   0.283
10951TIP3   OH232809   5.218   7.809   5.658
10951TIP3    H132810   5.191   7.845   5.573
10951TIP3    H232811   5.146   7.752   5.684
10952TIP3   OH232812   8.235   5.910   0.309
10952TIP3    H132813   8.266   5.984   0.360
10952TIP3    H232814   8.216   5.946   0.222
10953TIP3   OH232815   5.516   2.323   0.740
10953TIP3    H132816   5.515   2.346   0.833
10953TIP3    H232817   5.500   2.228   0.739
10954TIP3   OH232818   0.930   0.220   2.338
10954TIP3    H132819   0.842   0.194   2.309
10954TIP3    H232820   0.921   0.233   2.432
10955TIP3   OH232821   3.733   2.783   3.320
10955TIP3    H132822   3.709   2.794   3.412
10955TIP3    H232823   3.747   2.873   3.289
10956TIP3   OH232824   0.935   3.680   4.748
10956TIP3    H132825   0.937   3.702   4.841
10956TIP3    H232826   0.984   3.750   4.704
10957TIP3   OH232827   5.059   2.075   1.271
10957TIP3    H132828   5.042   2.131   1.195
10957TIP3    H232829   5.005   2.113   1.341
10958TIP3   OH232830   4.367   6.207   2.358
10958TIP3    H132831   4.286   6.256   2.372
10958TIP3    H232832   4.382   6.212   2.264
10959TIP3   OH232833   2.394   5.177   0.163
10959TIP3    H132834   2.391   5.262   0.119
10959TIP3    H232835   2.458   5.189   0.233
10960TIP3   OH232836   6.285   1.366   3.473
10960TIP3    H132837   6.357   1.371   3.409
10960TIP3    H232838   6.220   1.309   3.431
10961TIP3   OH232839   7.412   2.201   3.983
10961TIP3    H132840   7.440   2.112   3.960
10961TIP3    H232841   7.416   2.204   4.078
10962TIP3   OH232842   1.311   1.300   2.741
10962TIP3    H132843   1.256   1.230   2.777
10962TIP3    H232844   1.282   1.310   2.650
10963TIP3   OH232845   2.587   2.137   1.533
10963TIP3    H132846   2.577   2.209   1.471
10963TIP3    H232847   2.615   2.179   1.615
10964TIP3   OH232848   4.472   7.483   5.502
10964TIP3    H132849   4.507   7.401   5.468
10964TIP3    H232850   4.414   7.515   5.433
10965TIP3   OH232851   5.623   5.114   6.163
10965TIP3    H132852   5.672   5.034   6.186
10965TIP3    H232853   5.691   5.176   6.137
10966TIP3   OH232854   1.617   5.269   2.995
10966TIP3    H132855   1.577   5.243   3.078
10966TIP3    H232856   1.551   5.250   2.929
10967TIP3   OH232857   8.143   4.641   3.946
10967TIP3    H132858   8.075   4.694   3.906
10967TIP3    H232859   8.112   4.623   4.035
10968TIP3   OH232860   3.824   6.520   1.192
10968TIP3    H132861   3.820   6.567   1.108
10968TIP3    H232862   3.755   6.559   1.245
10969TIP3   OH232863   6.245   4.111   0.461
10969TIP3    H132864   6.212   4.201   0.458
10969TIP3    H232865   6.303   4.109   0.536
10970TIP3   OH232866   0.081   0.073   5.976
10970TIP3    H132867   0.169   0.055   5.943
10970TIP3    H232868   0.089   0.062   6.071
10971TIP3   OH232869   2.496   7.659   3.531
10971TIP3    H132870   2.511   7.604   3.608
10971TIP3    H232871   2.583   7.687   3.503
10972TIP3   OH232872   7.090   1.032   5.357
10972TIP3    H132873   7.063   1.010   5.268
10972TIP3    H232874   7.143   1.111   5.348
10973TIP3   OH232875   5.652   3.043   3.780
10973TIP3    H132876   5.567   3.085   3.795
10973TIP3    H232877   5.697   3.049   3.864
10974TIP3   OH232878   0.653   3.710   1.342
10974TIP3    H132879   0.594   3.779   1.311
10974TIP3    H232880   0.678   3.663   1.262
10975TIP3   OH232881   5.025   5.041   5.743
10975TIP3    H132882   5.119   5.030   5.729
10975TIP3    H232883   5.009   5.004   5.830
10976TIP3   OH232884   2.626   5.909   1.637
10976TIP3    H132885   2.716   5.936   1.657
10976TIP3    H232886   2.573   5.956   1.701
10977TIP3   OH232887   0.079   4.946   4.238
10977TIP3    H132888  -0.011   4.916   4.222
10977TIP3    H232889   0.068   5.034   4.275
10978TIP3   OH232890   0.196   7.763   6.082
10978TIP3    H132891   0.222   7.730   6.168
10978TIP3    H232892   0.270   7.817   6.053
10979TIP3   OH232893   6.328   0.475   2.763
10979TIP3    H132894   6.379   0.432   2.694
10979TIP3    H232895   6.370   0.561   2.774
10980TIP3   OH232896   5.034   2.017   3.318
10980TIP3    H132897   4.995   1.936   3.285
10980TIP3    H232898   5.043   2.072   3.240
10981TIP3   OH232899   6.497   2.454   6.629
10981TIP3    H132900   6.525   2.379   6.680
10981TIP3    H232901   6.475   2.521   6.695
10982TIP3   OH232902   4.972   3.093   6.688
10982TIP3    H132903   4.945   3.153   6.757
10982TIP3    H232904   5.055   3.128   6.656
10983TIP3   OH232905   4.618   7.531   5.086
10983TIP3    H132906   4.705   7.494   5.073
10983TIP3    H232907   4.578   7.476   5.153
10984TIP3   OH232908   2.720   2.998   6.373
10984TIP3    H132909   2.694   2.949   6.451
10984TIP3    H232910   2.651   2.980   6.310
10985TIP3   OH232911   2.446   1.526   1.123
10985TIP3    H132912   2.443   1.562   1.034
10985TIP3    H232913   2.480   1.437   1.112
10986TIP3   OH232914   3.562   6.316   5.635
10986TIP3    H132915   3.620   6.257   5.684
10986TIP3    H232916   3.621   6.365   5.578
10987TIP3   OH232917   0.691   2.659   0.709
10987TIP3    H132918   0.705   2.578   0.660
10987TIP3    H232919   0.698   2.632   0.801
10988TIP3   OH232920   3.957   5.991   1.462
10988TIP3    H132921   3.952   6.018   1.371
10988TIP3    H232922   3.972   6.072   1.511
10989TIP3   OH232923   4.851   4.970   4.147
10989TIP3    H132924   4.855   4.907   4.218
10989TIP3    H232925   4.926   4.949   4.091
10990TIP3   OH232926   3.405   7.591   6.449
10990TIP3    H132927   3.465   7.529   6.491
10990TIP3    H232928   3.347   7.537   6.397
10991TIP3   OH232929   3.237   0.486   0.645
10991TIP3    H132930   3.260   0.534   0.725
10991TIP3    H232931   3.262   0.395   0.664
10992TIP3   OH232932   6.752   3.390   1.815
10992TIP3    H132933   6.773   3.298   1.828
10992TIP3    H232934   6.767   3.431   1.901
10993TIP3   OH232935   0.962   3.754   6.490
10993TIP3    H132936   0.867   3.752   6.496
10993TIP3    H232937   0.982   3.703   6.411
10994TIP3   OH232938   7.534   4.301   5.229
10994TIP3    H132939   7.522   4.307   5.323
10994TIP3    H232940   7.537   4.207   5.211
10995TIP3   OH232941   0.098   0.707   3.062
10995TIP3    H132942   0.191   0.711   3.087
10995TIP3    H232943   0.099   0.679   2.970
10996TIP3   OH232944   6.777   2.906   4.693
10996TIP3    H132945   6.736   2.825   4.724
10996TIP3    H232946   6.843   2.926   4.758
10997TIP3   OH232947   5.011   4.694   6.560
10997TIP3    H132948   5.057   4.682   6.644
10997TIP3    H232949   5.051   4.630   6.502
10998TIP3   OH232950   0.107   4.930   2.883
10998TIP3    H132951   0.136   4.861   2.943
10998TIP3    H232952   0.038   4.976   2.930
10999TIP3   OH232953   7.364   0.511   5.901
10999TIP3    H132954   7.458   0.528   5.903
10999TIP3    H232955   7.328   0.584   5.850
11000TIP3   OH232956   3.627   2.477   0.514
11000TIP3    H132957   3.684   2.485   0.591
11000TIP3    H232958   3.553   2.535   0.533
11001TIP3   OH232959   1.277   3.993   4.415
11001TIP3    H132960   1.271   4.088   4.420
11001TIP3    H232961   1.352   3.971   4.471
11002TIP3   OH232962   4.495   6.690   1.605
11002TIP3    H132963   4.472   6.770   1.559
11002TIP3    H232964   4.462   6.619   1.551
11003TIP3   OH232965   1.570   4.718   5.874
11003TIP3    H132966   1.587   4.811   5.856
11003TIP3    H232967   1.484   4.701   5.836
11004TIP3   OH232968   5.478   3.824   1.233
11004TIP3    H132969   5.451   3.900   1.180
11004TIP3    H232970   5.530   3.862   1.304
11005TIP3   OH232971   1.243   6.902   4.852
11005TIP3    H132972   1.280   6.958   4.920
11005TIP3    H232973   1.149   6.903   4.868
11006TIP3   OH232974   0.537   2.622   3.883
11006TIP3    H132975   0.505   2.677   3.955
11006TIP3    H232976   0.629   2.609   3.902
11007TIP3   OH232977   3.301   0.431   5.725
11007TIP3    H132978   3.304   0.506   5.784
11007TIP3    H232979   3.249   0.366   5.771
11008TIP3   OH232980   6.542   6.667   6.292
11008TIP3    H132981   6.590   6.748   6.275
11008TIP3    H232982   6.495   6.683   6.374
11009TIP3   OH232983   3.037   1.982   6.088
11009TIP3    H132984   3.073   1.948   6.170
11009TIP3    H232985   3.106   1.965   6.023
11010TIP3   OH232986   6.101   3.981   1.386
11010TIP3    H132987   6.097   3.917   1.457
11010TIP3    H232988   6.080   3.931   1.307
11011TIP3   OH232989   7.183   4.834   3.576
11011TIP3    H132990   7.274   4.828   3.548
11011TIP3    H232991   7.137   4.771   3.520
11012TIP3   OH232992   4.142   6.364   5.570
11012TIP3    H132993   4.182   6.281   5.545
11012TIP3    H232994   4.083   6.386   5.498
11013TIP3   OH232995   4.905   0.818   4.830
11013TIP3    H132996   4.964   0.755   4.870
11013TIP3    H232997   4.818   0.793   4.861
11014TIP3   OH232998   5.467  -0.023   1.463
11014TIP3    H132999   5.521  -0.087   1.510
11014TIP3    H233000   5.477   0.058   1.513
11015TIP3   OH233001   1.595   4.270   3.859
11015TIP3    H133002   1.633   4.352   3.827
11015TIP3    H233003   1.545   4.295   3.937
11016TIP3   OH233004   0.550   7.811   0.382
11016TIP3    H133005   0.540   7.739   0.444
11016TIP3    H233006   0.638   7.845   0.398
11017TIP3   OH233007   4.812   3.863   2.136
11017TIP3    H133008   4.871   3.789   2.153
11017TIP3    H233009   4.771   3.881   2.220
11018TIP3   OH233010  -0.024   6.653   4.937
11018TIP3    H133011  -0.085   6.678   4.868
11018TIP3    H233012   0.025   6.733   4.957
11019TIP3   OH233013   2.542   4.736   1.065
11019TIP3    H133014   2.503   4.666   1.013
11019TIP3    H233015   2.592   4.692   1.133
11020TIP3   OH233016   0.279   2.512   1.482
11020TIP3    H133017   0.300   2.606   1.482
11020TIP3    H233018   0.251   2.494   1.392
11021TIP3   OH233019   8.269   6.045   6.149
11021TIP3    H133020   8.309   6.023   6.065
11021TIP3    H233021   8.310   6.128   6.175
11022TIP3   OH233022   7.238   0.878   0.916
11022TIP3    H133023   7.245   0.921   0.831
11022TIP3    H233024   7.205   0.790   0.897
11023TIP3   OH233025   6.840   4.372   5.988
11023TIP3    H133026   6.855   4.460   5.954
11023TIP3    H233027   6.773   4.383   6.055
11024TIP3   OH233028   7.814   5.505   2.851
11024TIP3    H133029   7.768   5.432   2.892
11024TIP3    H233030   7.813   5.486   2.758
11025TIP3   OH233031   1.831   3.703   0.246
11025TIP3    H133032   1.890   3.717   0.320
11025TIP3    H233033   1.754   3.662   0.284
11026TIP3   OH233034   3.204   5.892   2.291
11026TIP3    H133035   3.203   5.988   2.298
11026TIP3    H233036   3.174   5.861   2.376
11027TIP3   OH233037   0.247   5.849   5.744
11027TIP3    H133038   0.307   5.777   5.728
11027TIP3    H233039   0.270   5.881   5.831
11028TIP3   OH233040   5.906   3.909   6.559
11028TIP3    H133041   5.865   3.938   6.477
11028TIP3    H233042   5.904   3.814   6.555
11029TIP3   OH233043   6.187   0.170   2.972
11029TIP3    H133044   6.255   0.202   3.031
11029TIP3    H233045   6.141   0.102   3.022
11030TIP3   OH233046   5.378   1.164   1.888
11030TIP3    H133047   5.325   1.233   1.927
11030TIP3    H233048   5.390   1.101   1.959
11031TIP3   OH233049   7.536   5.355   6.337
11031TIP3    H133050   7.482   5.325   6.265
11031TIP3    H233051   7.614   5.393   6.295
11032TIP3   OH233052   5.599   5.448   3.314
11032TIP3    H133053   5.627   5.417   3.228
11032TIP3    H233054   5.659   5.519   3.335
11033TIP3   OH233055   2.101   2.152   5.948
11033TIP3    H133056   2.165   2.141   6.019
11033TIP3    H233057   2.080   2.062   5.921
11034TIP3   OH233058   6.741   2.309   1.390
11034TIP3    H133059   6.813   2.309   1.453
11034TIP3    H233060   6.782   2.331   1.307
11035TIP3   OH233061   2.803   4.731   0.175
11035TIP3    H133062   2.751   4.658   0.209
11035TIP3    H233063   2.742   4.805   0.173
11036TIP3   OH233064   4.309   6.415   4.893
11036TIP3    H133065   4.250   6.384   4.963
11036TIP3    H233066   4.321   6.339   4.836
11037TIP3   OH233067   5.474   1.534   3.061
11037TIP3    H133068   5.484   1.570   3.149
11037TIP3    H233069   5.462   1.611   3.005
11038TIP3   OH233070   6.047   2.699   2.207
11038TIP3    H133071   6.121   2.746   2.168
11038TIP3    H233072   6.085   2.650   2.280
11039TIP3   OH233073   0.068   1.249   5.067
11039TIP3    H133074   0.154   1.266   5.106
11039TIP3    H233075   0.010   1.237   5.143
11040TIP3   OH233076   3.764   4.613   1.263
11040TIP3    H133077   3.843   4.561   1.279
11040TIP3    H233078   3.693   4.549   1.268
11041TIP3   OH233079   1.890   1.160   1.860
11041TIP3    H133080   1.956   1.139   1.926
11041TIP3    H233081   1.873   1.076   1.816
11042TIP3   OH233082   6.834   0.766   5.037
11042TIP3    H133083   6.755   0.714   5.024
11042TIP3    H233084   6.892   0.742   4.965
11043TIP3   OH233085   1.616   1.517   1.969
11043TIP3    H133086   1.624   1.428   1.934
11043TIP3    H233087   1.706   1.547   1.979
11044TIP3   OH233088   5.500   3.993   5.547
11044TIP3    H133089   5.420   4.031   5.511
11044TIP3    H233090   5.550   3.963   5.471
11045TIP3   OH233091   6.488   2.328   4.018
11045TIP3    H133092   6.571   2.372   4.038
11045TIP3    H233093   6.421   2.393   4.040
11046TIP3   OH233094   1.484   1.833   4.963
11046TIP3    H133095   1.394   1.846   4.993
11046TIP3    H233096   1.476   1.783   4.882
11047TIP3   OH233097   4.109   6.097   3.504
11047TIP3    H133098   4.045   6.041   3.548
11047TIP3    H233099   4.192   6.049   3.512
11048TIP3   OH233100   7.098   6.345   4.588
11048TIP3    H133101   7.030   6.279   4.599
11048TIP3    H233102   7.082   6.381   4.501
11049TIP3   OH233103   6.607   4.045   4.828
11049TIP3    H133104   6.547   4.093   4.771
11049TIP3    H233105   6.692   4.053   4.785
11050TIP3   OH233106   0.021   4.878   5.362
11050TIP3    H133107   0.050   4.969   5.354
11050TIP3    H233108  -0.046   4.880   5.430
11051TIP3   OH233109   7.480   1.670   2.463
11051TIP3    H133110   7.516   1.730   2.398
11051TIP3    H233111   7.534   1.683   2.541
11052TIP3   OH233112   2.005   4.874   1.381
11052TIP3    H133113   1.965   4.796   1.421
11052TIP3    H233114   1.931   4.924   1.346
11053TIP3   OH233115   4.775   1.909   4.037
11053TIP3    H133116   4.808   1.915   3.947
11053TIP3    H233117   4.680   1.895   4.027
11054TIP3   OH233118   2.715   0.099   6.183
11054TIP3    H133119   2.686   0.027   6.240
11054TIP3    H233120   2.805   0.116   6.211
11055TIP3   OH233121   3.242   2.463   1.894
11055TIP3    H133122   3.172   2.421   1.945
11055TIP3    H233123   3.212   2.553   1.883
11056TIP3   OH233124   5.443   3.917   6.569
11056TIP3    H133125   5.452   3.955   6.657
11056TIP3    H233126   5.351   3.894   6.563
11057TIP3   OH233127   5.708   1.892   1.821
11057TIP3    H133128   5.726   1.854   1.907
11057TIP3    H233129   5.789   1.936   1.796
11058TIP3   OH233130   1.153   6.689   3.940
11058TIP3    H133131   1.233   6.703   3.990
11058TIP3    H233132   1.166   6.738   3.859
11059TIP3   OH233133   3.482   6.256   0.276
11059TIP3    H133134   3.490   6.350   0.291
11059TIP3    H233135   3.395   6.234   0.309
11060TIP3   OH233136   6.077   1.698   5.744
11060TIP3    H133137   6.121   1.739   5.670
11060TIP3    H233138   6.106   1.606   5.742
11061TIP3   OH233139   2.176   0.921   1.644
11061TIP3    H133140   2.113   0.940   1.574
11061TIP3    H233141   2.122   0.890   1.717
11062TIP3   OH233142   8.101   6.131   0.054
11062TIP3    H133143   8.110   6.037   0.037
11062TIP3    H233144   8.011   6.141   0.086
11063TIP3   OH233145   7.937   6.232   6.119
11063TIP3    H133146   7.917   6.249   6.212
11063TIP3    H233147   7.859   6.188   6.086
11064TIP3   OH233148   4.074   4.157   3.790
11064TIP3    H133149   4.097   4.066   3.811
11064TIP3    H233150   4.149   4.208   3.819
11065TIP3   OH233151   5.376   3.904   1.844
11065TIP3    H133152   5.346   3.844   1.776
11065TIP3    H233153   5.361   3.991   1.807
11066TIP3   OH233154   2.220   2.299   0.778
11066TIP3    H133155   2.302   2.255   0.756
11066TIP3    H233156   2.248   2.381   0.819
11067TIP3   OH233157   4.819   2.467   5.376
11067TIP3    H133158   4.724   2.457   5.362
11067TIP3    H233159   4.849   2.517   5.300
11068TIP3   OH233160   7.421   6.042   3.747
11068TIP3    H133161   7.343   6.056   3.693
11068TIP3    H233162   7.392   6.056   3.837
11069TIP3   OH233163   4.851   3.964   5.850
11069TIP3    H133164   4.833   4.050   5.813
11069TIP3    H233165   4.927   3.977   5.906
11070TIP3   OH233166   6.471   4.283   0.413
11070TIP3    H133167   6.382   4.295   0.380
11070TIP3    H233168   6.459   4.242   0.499
11071TIP3   OH233169   1.174   2.494   1.605
11071TIP3    H133170   1.085   2.528   1.608
11071TIP3    H233171   1.229   2.572   1.595
11072TIP3   OH233172   6.840   0.811   4.250
11072TIP3    H133173   6.923   0.775   4.284
11072TIP3    H233174   6.785   0.819   4.328
11073TIP3   OH233175   2.933   0.015   5.210
11073TIP3    H133176   2.916  -0.059   5.268
11073TIP3    H233177   3.021   0.044   5.234
11074TIP3   OH233178   5.831   0.958   5.786
11074TIP3    H133179   5.871   0.900   5.851
11074TIP3    H233180   5.866   1.045   5.806
11075TIP3   OH233181   1.630   0.131   0.134
11075TIP3    H133182   1.579   0.058   0.168
11075TIP3    H233183   1.589   0.151   0.050
11076TIP3   OH233184   3.643   5.236   4.080
11076TIP3    H133185   3.705   5.280   4.138
11076TIP3    H233186   3.692   5.217   4.001
11077TIP3   OH233187   5.865   5.123   3.452
11077TIP3    H133188   5.920   5.064   3.400
11077TIP3    H233189   5.927   5.179   3.499
11078TIP3   OH233190   4.348   4.346   0.614
11078TIP3    H133191   4.291   4.394   0.554
11078TIP3    H233192   4.435   4.384   0.601
11079TIP3   OH233193   0.417   4.970   3.132
11079TIP3    H133194   0.462   5.023   3.066
11079TIP3    H233195   0.331   4.953   3.094
11080TIP3   OH233196   0.253   3.937   3.718
11080TIP3    H133197   0.209   3.922   3.634
11080TIP3    H233198   0.209   4.014   3.755
11081TIP3   OH233199   7.860   6.070   1.346
11081TIP3    H133200   7.943   6.117   1.346
11081TIP3    H233201   7.795   6.134   1.376
11082TIP3   OH233202   5.645   1.920   3.279
11082TIP3    H133203   5.708   1.953   3.343
11082TIP3    H233204   5.601   1.848   3.323
11083TIP3   OH233205   3.110   5.716   4.731
11083TIP3    H133206   3.067   5.766   4.800
11083TIP3    H233207   3.061   5.737   4.652
11084TIP3   OH233208   0.354   1.572   2.085
11084TIP3    H133209   0.367   1.654   2.134
11084TIP3    H233210   0.442   1.540   2.069
11085TIP3   OH233211   5.895   5.588   1.576
11085TIP3    H133212   5.919   5.588   1.483
11085TIP3    H233213   5.819   5.530   1.581
11086TIP3   OH233214   0.404   2.686   1.724
11086TIP3    H133215   0.330   2.734   1.762
11086TIP3    H233216   0.399   2.707   1.631
11087TIP3   OH233217   6.235   5.735   5.593
11087TIP3    H133218   6.162   5.700   5.543
11087TIP3    H233219   6.216   5.712   5.684
11088TIP3   OH233220   1.530   4.613   3.879
11088TIP3    H133221   1.560   4.599   3.969
11088TIP3    H233222   1.477   4.692   3.883
11089TIP3   OH233223   7.240   1.149   0.752
11089TIP3    H133224   7.325   1.144   0.795
11089TIP3    H233225   7.239   1.077   0.690
11090TIP3   OH233226   4.084   0.759   2.376
11090TIP3    H133227   4.140   0.837   2.377
11090TIP3    H233228   4.075   0.738   2.283
11091TIP3   OH233229   6.673   4.804   2.434
11091TIP3    H133230   6.588   4.761   2.442
11091TIP3    H233231   6.737   4.734   2.449
11092TIP3   OH233232   2.190   1.005   5.356
11092TIP3    H133233   2.231   1.061   5.422
11092TIP3    H233234   2.263   0.975   5.301
11093TIP3   OH233235   7.729   1.659   1.221
11093TIP3    H133236   7.780   1.611   1.156
11093TIP3    H233237   7.748   1.614   1.304
11094TIP3   OH233238   4.353   4.283   5.462
11094TIP3    H133239   4.303   4.334   5.398
11094TIP3    H233240   4.437   4.268   5.420
11095TIP3   OH233241   3.383   4.800   4.832
11095TIP3    H133242   3.293   4.813   4.802
11095TIP3    H233243   3.382   4.828   4.923
11096TIP3   OH233244   6.433   7.590   2.354
11096TIP3    H133245   6.462   7.668   2.402
11096TIP3    H233246   6.469   7.601   2.266
11097TIP3   OH233247   1.733   1.805   1.809
11097TIP3    H133248   1.806   1.761   1.765
11097TIP3    H233249   1.727   1.891   1.767
11098TIP3   OH233250   7.712   6.292   5.020
11098TIP3    H133251   7.800   6.302   5.057
11098TIP3    H233252   7.724   6.299   4.926
11099TIP3   OH233253   0.527   1.209   0.332
11099TIP3    H133254   0.485   1.218   0.418
11099TIP3    H233255   0.558   1.297   0.311
11100TIP3   OH233256   4.446   0.239   2.696
11100TIP3    H133257   4.515   0.173   2.696
11100TIP3    H233258   4.364   0.190   2.687
11101TIP3   OH233259   0.051   2.109   2.977
11101TIP3    H133260   0.026   2.201   2.968
11101TIP3    H233261   0.006   2.064   2.906
11102TIP3   OH233262   7.980   1.083   5.235
11102TIP3    H133263   8.066   1.083   5.277
11102TIP3    H233264   7.976   1.166   5.187
11103TIP3   OH233265   5.655   1.890   3.749
11103TIP3    H133266   5.694   1.864   3.665
11103TIP3    H233267   5.619   1.976   3.733
11104TIP3   OH233268   2.920   7.182   5.443
11104TIP3    H133269   2.862   7.192   5.367
11104TIP3    H233270   2.943   7.272   5.467
11105TIP3   OH233271   1.234   0.311   3.316
11105TIP3    H133272   1.215   0.247   3.384
11105TIP3    H233273   1.274   0.384   3.362
11106TIP3   OH233274   4.838   4.112   5.382
11106TIP3    H133275   4.764   4.143   5.436
11106TIP3    H233276   4.880   4.045   5.436
11107TIP3   OH233277   5.431   2.367   3.917
11107TIP3    H133278   5.465   2.446   3.959
11107TIP3    H233279   5.393   2.316   3.989
11108TIP3   OH233280   5.482   2.399   5.177
11108TIP3    H133281   5.389   2.418   5.163
11108TIP3    H233282   5.511   2.359   5.095
11109TIP3   OH233283   7.894   7.173   5.069
11109TIP3    H133284   7.918   7.191   4.978
11109TIP3    H233285   7.923   7.083   5.084
11110TIP3   OH233286   5.242   5.360   2.085
11110TIP3    H133287   5.292   5.283   2.060
11110TIP3    H233288   5.209   5.340   2.173
11111TIP3   OH233289   0.282   1.326   3.951
11111TIP3    H133290   0.375   1.337   3.932
11111TIP3    H233291   0.273   1.350   4.043
11112TIP3   OH233292   1.201   2.441   2.985
11112TIP3    H133293   1.209   2.479   2.898
11112TIP3    H233294   1.218   2.347   2.972
11113TIP3   OH233295   2.897   0.633   0.144
11113TIP3    H133296   2.891   0.611   0.051
11113TIP3    H233297   2.953   0.565   0.181
11114TIP3   OH233298   5.795   1.264   1.264
11114TIP3    H133299   5.884   1.293   1.283
11114TIP3    H233300   5.747   1.279   1.346
11115TIP3   OH233301   4.185   6.141   6.484
11115TIP3    H133302   4.265   6.176   6.444
11115TIP3    H233303   4.200   6.047   6.491
11116TIP3   OH233304   4.155   6.919   2.541
11116TIP3    H133305   4.238   6.893   2.502
11116TIP3    H233306   4.089   6.888   2.479
11117TIP3   OH233307   1.352   1.008   6.012
11117TIP3    H133308   1.350   1.083   6.072
11117TIP3    H233309   1.440   1.010   5.975
11118TIP3   OH233310   0.537   1.673   6.171
11118TIP3    H133311   0.521   1.705   6.259
11118TIP3    H233312   0.627   1.702   6.151
11119TIP3   OH233313   8.267   1.283   0.662
11119TIP3    H133314   8.284   1.341   0.736
11119TIP3    H233315   8.258   1.196   0.701
11120TIP3   OH233316   3.790   2.752   4.345
11120TIP3    H133317   3.744   2.810   4.407
11120TIP3    H233318   3.801   2.670   4.393
11121TIP3   OH233319   5.564   0.762   5.325
11121TIP3    H133320   5.561   0.707   5.403
11121TIP3    H233321   5.586   0.700   5.254
11122TIP3   OH233322   3.175   4.152   6.582
11122TIP3    H133323   3.269   4.134   6.584
11122TIP3    H233324   3.154   4.175   6.672
11123TIP3   OH233325   6.325   2.630   2.949
11123TIP3    H133326   6.280   2.585   2.877
11123TIP3    H233327   6.332   2.721   2.919
11124TIP3   OH233328   3.526   7.655   5.381
11124TIP3    H133329   3.577   7.609   5.447
11124TIP3    H233330   3.434   7.640   5.406
11125TIP3   OH233331   7.874   0.229   6.161
11125TIP3    H133332   7.964   0.259   6.175
11125TIP3    H233333   7.822   0.282   6.221
11126TIP3   OH233334   0.488   3.992   3.873
11126TIP3    H133335   0.555   3.932   3.840
11126TIP3    H233336   0.419   3.990   3.806
11127TIP3   OH233337   6.324   0.755   1.146
11127TIP3    H133338   6.347   0.827   1.205
11127TIP3    H233339   6.406   0.732   1.102
11128TIP3   OH233340   8.212   4.220   6.496
11128TIP3    H133341   8.176   4.178   6.418
11128TIP3    H233342   8.154   4.295   6.512
11129TIP3   OH233343   2.191   7.610   2.932
11129TIP3    H133344   2.234   7.644   2.853
11129TIP3    H233345   2.242   7.532   2.955
11130TIP3   OH233346   2.717   1.953   1.104
11130TIP3    H133347   2.719   2.006   1.024
11130TIP3    H233348   2.803   1.911   1.108
11131TIP3   OH233349   5.048   0.988   1.110
11131TIP3    H133350   5.088   0.953   1.030
11131TIP3    H233351   5.122   1.015   1.164
11132TIP3   OH233352   6.719   3.952   0.632
11132TIP3    H133353   6.785   3.883   0.623
11132TIP3    H233354   6.770   4.033   0.632
11133TIP3   OH233355   0.499   0.689   6.473
11133TIP3    H133356   0.524   0.681   6.565
11133TIP3    H233357   0.551   0.761   6.439
11134TIP3   OH233358   1.698   3.502   2.954
11134TIP3    H133359   1.749   3.562   3.008
11134TIP3    H233360   1.630   3.557   2.914
11135TIP3   OH233361   3.110   5.172   5.844
11135TIP3    H133362   3.153   5.125   5.916
11135TIP3    H233363   3.118   5.114   5.769
11136TIP3   OH233364   3.199   4.201   2.316
11136TIP3    H133365   3.117   4.239   2.285
11136TIP3    H233366   3.202   4.221   2.410
11137TIP3   OH233367   1.378   5.093   3.800
11137TIP3    H133368   1.286   5.091   3.828
11137TIP3    H233369   1.427   5.070   3.878
11138TIP3   OH233370   2.172   0.750   4.079
11138TIP3    H133371   2.158   0.795   4.162
11138TIP3    H233372   2.162   0.657   4.100
11139TIP3   OH233373   6.996   3.203   4.697
11139TIP3    H133374   6.978   3.123   4.747
11139TIP3    H233375   6.922   3.260   4.714
11140TIP3   OH233376   2.297   4.179   3.972
11140TIP3    H133377   2.319   4.184   3.879
11140TIP3    H233378   2.379   4.197   4.017
11141TIP3   OH233379   4.188   6.563   0.637
11141TIP3    H133380   4.219   6.473   0.634
11141TIP3    H233381   4.265   6.614   0.661
11142TIP3   OH233382   5.429   1.329   1.687
11142TIP3    H133383   5.343   1.314   1.649
11142TIP3    H233384   5.433   1.271   1.763
11143TIP3   OH233385   7.219   3.595   5.748
11143TIP3    H133386   7.225   3.551   5.833
11143TIP3    H233387   7.250   3.684   5.764
11144TIP3   OH233388   0.134   6.881   1.919
11144TIP3    H133389   0.180   6.861   1.837
11144TIP3    H233390   0.202   6.883   1.986
11145TIP3   OH233391   8.264   1.546   0.406
11145TIP3    H133392   8.220   1.609   0.349
11145TIP3    H233393   8.226   1.461   0.383
11146TIP3   OH233394   6.318   0.711   3.234
11146TIP3    H133395   6.282   0.663   3.309
11146TIP3    H233396   6.317   0.648   3.162
11147TIP3   OH233397   4.105   6.561   4.723
11147TIP3    H133398   4.127   6.615   4.798
11147TIP3    H233399   4.189   6.549   4.677
11148TIP3   OH233400   7.857   0.017   3.380
11148TIP3    H133401   7.807  -0.041   3.438
11148TIP3    H233402   7.831   0.105   3.407
11149TIP3   OH233403   2.777   2.224   2.570
11149TIP3    H133404   2.796   2.305   2.522
11149TIP3    H233405   2.842   2.223   2.640
11150TIP3   OH233406   2.988   6.694   5.098
11150TIP3    H133407   2.987   6.763   5.032
11150TIP3    H233408   3.055   6.722   5.161
11151TIP3   OH233409   5.073   3.375   4.162
11151TIP3    H133410   5.025   3.444   4.209
11151TIP3    H233411   5.120   3.328   4.230
11152TIP3   OH233412   5.679   7.597   0.575
11152TIP3    H133413   5.687   7.584   0.480
11152TIP3    H233414   5.597   7.554   0.598
11153TIP3   OH233415   2.655   2.521   5.530
11153TIP3    H133416   2.565   2.550   5.546
11153TIP3    H233417   2.703   2.601   5.510
11154TIP3   OH233418   2.062   1.211   0.035
11154TIP3    H133419   2.144   1.187   0.078
11154TIP3    H233420   2.079   1.299   0.000
11155TIP3   OH233421   5.937   7.024   5.849
11155TIP3    H133422   5.933   7.094   5.783
11155TIP3    H233423   6.026   6.990   5.842
11156TIP3   OH233424   7.986   0.067   2.825
11156TIP3    H133425   7.903   0.020   2.811
11156TIP3    H233426   7.980   0.099   2.915
11157TIP3   OH233427   0.354   6.981   2.280
11157TIP3    H133428   0.370   6.991   2.186
11157TIP3    H233429   0.391   7.060   2.319
11158TIP3   OH233430   5.158   4.152   3.321
11158TIP3    H133431   5.162   4.108   3.406
11158TIP3    H233432   5.224   4.108   3.268
11159TIP3   OH233433   7.887   1.172   6.020
11159TIP3    H133434   7.896   1.173   5.925
11159TIP3    H233435   7.971   1.205   6.052
11160TIP3   OH233436   0.084   5.532   0.776
11160TIP3    H133437   0.032   5.570   0.705
11160TIP3    H233438   0.028   5.464   0.814
11161TIP3   OH233439   7.087   5.597   3.028
11161TIP3    H133440   7.053   5.530   2.967
11161TIP3    H233441   7.135   5.657   2.972
11162TIP3   OH233442   0.537   1.551   6.521
11162TIP3    H133443   0.516   1.493   6.448
11162TIP3    H233444   0.508   1.637   6.492
11163TIP3   OH233445   2.468   2.524   2.228
11163TIP3    H133446   2.471   2.605   2.279
11163TIP3    H233447   2.402   2.471   2.272
11164TIP3   OH233448   2.862   4.327   2.566
11164TIP3    H133449   2.888   4.378   2.642
11164TIP3    H233450   2.906   4.243   2.577
11165TIP3   OH233451   7.792   7.328   1.941
11165TIP3    H133452   7.828   7.323   1.852
11165TIP3    H233453   7.867   7.345   1.997
11166TIP3   OH233454   2.417   5.676   6.042
11166TIP3    H133455   2.380   5.709   6.124
11166TIP3    H233456   2.466   5.598   6.067
11167TIP3   OH233457   6.559   1.441   2.137
11167TIP3    H133458   6.654   1.431   2.129
11167TIP3    H233459   6.540   1.522   2.091
11168TIP3   OH233460   3.552   7.395   6.545
11168TIP3    H133461   3.588   7.386   6.457
11168TIP3    H233462   3.555   7.306   6.581
11169TIP3   OH233463   4.624   7.451   2.246
11169TIP3    H133464   4.595   7.411   2.328
11169TIP3    H233465   4.718   7.431   2.242
11170TIP3   OH233466   5.433   4.971   3.749
11170TIP3    H133467   5.494   4.986   3.676
11170TIP3    H233468   5.487   4.979   3.827
11171TIP3   OH233469   6.237   0.297   1.533
11171TIP3    H133470   6.173   0.328   1.469
11171TIP3    H233471   6.219   0.203   1.541
11172TIP3   OH233472   8.158   5.101   5.029
11172TIP3    H133473   8.115   5.059   5.103
11172TIP3    H233474   8.099   5.172   5.003
11173TIP3   OH233475   6.662   6.829   3.660
11173TIP3    H133476   6.721   6.798   3.729
11173TIP3    H233477   6.654   6.755   3.600
11174TIP3   OH233478   2.186   6.582   2.180
11174TIP3    H133479   2.197   6.674   2.156
11174TIP3    H233480   2.232   6.534   2.111
11175TIP3   OH233481   0.682   7.018   1.497
11175TIP3    H133482   0.725   6.935   1.518
11175TIP3    H233483   0.627   6.997   1.421
11176TIP3   OH233484   2.219   2.596   2.111
11176TIP3    H133485   2.125   2.614   2.119
11176TIP3    H233486   2.239   2.539   2.185
11177TIP3   OH233487   7.824   6.795   5.782
11177TIP3    H133488   7.882   6.821   5.853
11177TIP3    H233489   7.807   6.876   5.733
11178TIP3   OH233490   3.903   4.526   0.722
11178TIP3    H133491   3.997   4.534   0.703
11178TIP3    H233492   3.892   4.435   0.751
11179TIP3   OH233493   5.055   7.474   5.673
11179TIP3    H133494   5.136   7.489   5.722
11179TIP3    H233495   5.080   7.415   5.602
11180TIP3   OH233496   5.314   2.041   0.425
11180TIP3    H133497   5.225   2.052   0.457
11180TIP3    H233498   5.306   2.042   0.329
11181TIP3   OH233499   3.342   3.103   2.929
11181TIP3    H133500   3.319   3.149   2.848
11181TIP3    H233501   3.267   3.045   2.945
11182TIP3   OH233502   1.363   4.747   4.229
11182TIP3    H133503   1.329   4.824   4.182
11182TIP3    H233504   1.385   4.781   4.316
11183TIP3   OH233505   6.368   2.284   5.305
11183TIP3    H133506   6.447   2.299   5.253
11183TIP3    H233507   6.361   2.362   5.360
11184TIP3   OH233508   0.622   1.613   2.780
11184TIP3    H133509   0.565   1.555   2.831
11184TIP3    H233510   0.577   1.698   2.783
11185TIP3   OH233511   4.443   5.461   1.720
11185TIP3    H133512   4.509   5.497   1.661
11185TIP3    H233513   4.407   5.537   1.766
11186TIP3   OH233514   0.826   7.419   4.408
11186TIP3    H133515   0.771   7.407   4.330
11186TIP3    H233516   0.915   7.405   4.376
11187TIP3   OH233517   6.598   0.350   5.074
11187TIP3    H133518   6.583   0.275   5.131
11187TIP3    H233519   6.550   0.421   5.115
11188TIP3   OH233520   6.368   7.782   4.789
11188TIP3    H133521   6.335   7.818   4.872
11188TIP3    H233522   6.370   7.687   4.803
11189TIP3   OH233523   0.834   5.538   5.074
11189TIP3    H133524   0.869   5.584   4.997
11189TIP3    H233525   0.748   5.507   5.046
11190TIP3   OH233526   0.219   6.960   4.262
11190TIP3    H133527   0.251   6.984   4.175
11190TIP3    H233528   0.200   7.043   4.304
11191TIP3   OH233529   7.223   4.782   1.674
11191TIP3    H133530   7.177   4.834   1.609
11191TIP3    H233531   7.155   4.728   1.715
11192TIP3   OH233532   3.991   3.533   2.001
11192TIP3    H133533   3.932   3.543   2.076
11192TIP3    H233534   4.056   3.602   2.013
11193TIP3   OH233535   4.320   3.663   6.476
11193TIP3    H133536   4.371   3.665   6.557
11193TIP3    H233537   4.265   3.586   6.483
11194TIP3   OH233538   3.930   1.821   6.560
11194TIP3    H133539   3.857   1.808   6.620
11194TIP3    H233540   3.889   1.830   6.474
11195TIP3   OH233541   3.211   4.809   5.215
11195TIP3    H133542   3.296   4.805   5.260
11195TIP3    H233543   3.161   4.875   5.263
11196TIP3   OH233544   2.082   1.061   6.161
11196TIP3    H133545   2.109   1.037   6.250
11196TIP3    H233546   2.108   0.986   6.108
11197TIP3   OH233547   3.749   1.485   2.391
11197TIP3    H133548   3.695   1.535   2.451
11197TIP3    H233549   3.834   1.529   2.392
11198TIP3   OH233550   1.504   4.552   1.536
11198TIP3    H133551   1.428   4.586   1.490
11198TIP3    H233552   1.558   4.513   1.467
11199TIP3   OH233553   5.165   7.518   4.962
11199TIP3    H133554   5.114   7.505   4.882
11199TIP3    H233555   5.256   7.510   4.934
11200TIP3   OH233556   5.889   3.384   2.372
11200TIP3    H133557   5.956   3.451   2.355
11200TIP3    H233558   5.906   3.357   2.463
11201TIP3   OH233559   8.036   5.107   4.645
11201TIP3    H133560   8.072   5.056   4.718
11201TIP3    H233561   8.004   5.188   4.686
11202TIP3   OH233562   0.891   5.166   3.940
11202TIP3    H133563   0.892   5.259   3.918
11202TIP3    H233564   0.824   5.129   3.883
11203TIP3   OH233565   6.413   2.714   4.969
11203TIP3    H133566   6.333   2.759   4.994
11203TIP3    H233567   6.477   2.739   5.036
11204TIP3   OH233568   5.777   0.123   5.029
11204TIP3    H133569   5.744   0.034   5.044
11204TIP3    H233570   5.872   0.114   5.033
11205TIP3   OH233571   3.265   0.919   1.567
11205TIP3    H133572   3.178   0.950   1.543
11205TIP3    H233573   3.322   0.994   1.550
11206TIP3   OH233574   1.168   2.524   2.717
11206TIP3    H133575   1.084   2.544   2.675
11206TIP3    H233576   1.215   2.472   2.651
11207TIP3   OH233577   1.586   0.743   6.141
11207TIP3    H133578   1.650   0.677   6.167
11207TIP3    H233579   1.596   0.750   6.046
11208TIP3   OH233580   1.358   0.089   6.042
11208TIP3    H133581   1.349   0.032   6.118
11208TIP3    H233582   1.407   0.037   5.978
11209TIP3   OH233583   6.251   1.586   4.838
11209TIP3    H133584   6.218   1.654   4.780
11209TIP3    H233585   6.229   1.504   4.794
11210TIP3   OH233586   6.068   0.823   3.184
11210TIP3    H133587   6.151   0.786   3.214
11210TIP3    H233588   6.029   0.753   3.132
11211TIP3   OH233589   2.325   2.807   0.451
11211TIP3    H133590   2.277   2.724   0.452
11211TIP3    H233591   2.390   2.799   0.521
11212TIP3   OH233592   7.997   1.450   1.837
11212TIP3    H133593   8.061   1.511   1.800
11212TIP3    H233594   8.045   1.404   1.906
11213TIP3   OH233595   3.963   2.489   1.095
11213TIP3    H133596   3.908   2.564   1.073
11213TIP3    H233597   4.047   2.527   1.120
11214TIP3   OH233598   2.302   2.780   2.705
11214TIP3    H133599   2.306   2.688   2.679
11214TIP3    H233600   2.389   2.815   2.686
11215TIP3   OH233601   4.453   4.785   5.439
11215TIP3    H133602   4.448   4.801   5.533
11215TIP3    H233603   4.504   4.704   5.431
11216TIP3   OH233604   7.073   0.155   0.568
11216TIP3    H133605   6.999   0.148   0.507
11216TIP3    H233606   7.052   0.092   0.638
11217TIP3   OH233607   1.651   3.698   0.774
11217TIP3    H133608   1.705   3.730   0.847
11217TIP3    H233609   1.599   3.627   0.813
11218TIP3   OH233610   7.004   5.432   2.836
11218TIP3    H133611   7.034   5.437   2.745
11218TIP3    H233612   6.927   5.376   2.832
11219TIP3   OH233613   5.108   6.059   3.961
11219TIP3    H133614   5.072   6.112   4.032
11219TIP3    H233615   5.203   6.060   3.976
11220TIP3   OH233616   4.333   6.776   0.864
11220TIP3    H133617   4.329   6.725   0.944
11220TIP3    H233618   4.414   6.747   0.821
11221TIP3   OH233619   6.049   5.750   0.097
11221TIP3    H133620   6.087   5.838   0.103
11221TIP3    H233621   6.048   5.730   0.004
11222TIP3   OH233622   6.813   2.666   1.990
11222TIP3    H133623   6.908   2.658   1.982
11222TIP3    H233624   6.782   2.577   2.005
11223TIP3   OH233625   6.964   4.989   3.652
11223TIP3    H133626   7.027   4.919   3.635
11223TIP3    H233627   6.894   4.947   3.703
11224TIP3   OH233628   2.610   0.728   0.293
11224TIP3    H133629   2.536   0.680   0.257
11224TIP3    H233630   2.669   0.739   0.219
11225TIP3   OH233631   1.788   1.306   4.419
11225TIP3    H133632   1.763   1.376   4.479
11225TIP3    H233633   1.884   1.302   4.426
11226TIP3   OH233634   4.448   1.482   1.531
11226TIP3    H133635   4.380   1.548   1.547
11226TIP3    H233636   4.500   1.482   1.611
11227TIP3   OH233637   1.621   3.278   1.407
11227TIP3    H133638   1.623   3.206   1.469
11227TIP3    H233639   1.615   3.235   1.321
11228TIP3   OH233640   7.385   4.368   1.156
11228TIP3    H133641   7.462   4.367   1.214
11228TIP3    H233642   7.326   4.302   1.193
11229TIP3   OH233643   1.230   1.924   4.892
11229TIP3    H133644   1.181   1.847   4.864
11229TIP3    H233645   1.201   1.993   4.832
11230TIP3   OH233646   7.662   5.620   1.547
11230TIP3    H133647   7.658   5.539   1.497
11230TIP3    H233648   7.704   5.682   1.487
11231TIP3   OH233649   3.522   5.764   3.131
11231TIP3    H133650   3.464   5.699   3.093
11231TIP3    H233651   3.481   5.848   3.109
11232TIP3   OH233652   4.914   5.529   1.404
11232TIP3    H133653   4.995   5.556   1.448
11232TIP3    H233654   4.861   5.489   1.473
11233TIP3   OH233655   4.457   5.991   3.287
11233TIP3    H133656   4.396   5.998   3.214
11233TIP3    H233657   4.525   5.931   3.257
11234TIP3   OH233658   6.730   2.483   3.034
11234TIP3    H133659   6.641   2.473   3.068
11234TIP3    H233660   6.737   2.577   3.013
11235TIP3   OH233661   2.546   2.882   2.629
11235TIP3    H133662   2.515   2.972   2.620
11235TIP3    H233663   2.641   2.888   2.625
11236TIP3   OH233664   6.301   7.410   5.500
11236TIP3    H133665   6.280   7.333   5.553
11236TIP3    H233666   6.260   7.392   5.415
11237TIP3   OH233667   7.517   5.903   4.431
11237TIP3    H133668   7.597   5.852   4.441
11237TIP3    H233669   7.545   5.981   4.381
11238TIP3   OH233670   3.326   6.171   3.519
11238TIP3    H133671   3.368   6.253   3.547
11238TIP3    H233672   3.398   6.108   3.514
11239TIP3   OH233673   1.459   5.111   6.742
11239TIP3    H133674   1.473   5.166   6.819
11239TIP3    H233675   1.487   5.166   6.668
11240TIP3   OH233676   1.956   1.287   0.764
11240TIP3    H133677   1.962   1.198   0.798
11240TIP3    H233678   1.872   1.319   0.797
11241TIP3   OH233679   7.964   7.281   4.759
11241TIP3    H133680   7.968   7.200   4.709
11241TIP3    H233681   7.933   7.347   4.697
11242TIP3   OH233682   7.115   1.474   5.382
11242TIP3    H133683   7.181   1.544   5.378
11242TIP3    H233684   7.069   1.489   5.465
11243TIP3   OH233685   4.376   1.596   4.446
11243TIP3    H133686   4.449   1.639   4.402
11243TIP3    H233687   4.309   1.587   4.379
11244TIP3   OH233688   7.619   1.158   6.109
11244TIP3    H133689   7.703   1.145   6.065
11244TIP3    H233690   7.640   1.220   6.180
11245TIP3   OH233691   5.815   1.597   3.659
11245TIP3    H133692   5.902   1.556   3.659
11245TIP3    H233693   5.783   1.585   3.569
11246TIP3   OH233694   3.405   2.289   6.508
11246TIP3    H133695   3.350   2.249   6.442
11246TIP3    H233696   3.493   2.289   6.470
11247TIP3   OH233697   5.035   0.124   0.118
11247TIP3    H133698   4.956   0.111   0.065
11247TIP3    H233699   5.022   0.069   0.195
11248TIP3   OH233700   5.424   1.946   1.443
11248TIP3    H133701   5.410   1.852   1.444
11248TIP3    H233702   5.403   1.973   1.354
11249TIP3   OH233703   4.924   4.070   1.405
11249TIP3    H133704   4.939   4.131   1.333
11249TIP3    H233705   4.844   4.101   1.446
11250TIP3   OH233706   2.225   3.160   0.130
11250TIP3    H133707   2.231   3.252   0.153
11250TIP3    H233708   2.176   3.120   0.202
11251TIP3   OH233709   2.123   4.035   3.430
11251TIP3    H133710   2.144   4.112   3.375
11251TIP3    H233711   2.042   4.059   3.474
11252TIP3   OH233712   4.202   5.620   3.147
11252TIP3    H133713   4.240   5.687   3.090
11252TIP3    H233714   4.108   5.624   3.130
11253TIP3   OH233715   6.518   4.072   2.616
11253TIP3    H133716   6.472   4.117   2.687
11253TIP3    H233717   6.541   4.141   2.555
11254TIP3   OH233718   1.352   4.869   6.630
11254TIP3    H133719   1.343   4.891   6.537
11254TIP3    H233720   1.383   4.950   6.671
11255TIP3   OH233721   5.567   1.020   4.973
11255TIP3    H133722   5.611   0.936   4.962
11255TIP3    H233723   5.477   0.998   4.996
11256TIP3   OH233724   2.300   1.565   4.093
11256TIP3    H133725   2.370   1.532   4.149
11256TIP3    H233726   2.345   1.600   4.016
11257TIP3   OH233727   1.983   4.339   5.676
11257TIP3    H133728   2.069   4.306   5.647
11257TIP3    H233729   1.925   4.263   5.671
11258TIP3   OH233730   3.847   3.342   3.333
11258TIP3    H133731   3.925   3.289   3.350
11258TIP3    H233732   3.781   3.309   3.392
11259TIP3   OH233733   1.233   1.523   3.960
11259TIP3    H133734   1.199   1.519   4.050
11259TIP3    H233735   1.264   1.613   3.950
11260TIP3   OH233736   0.202   4.701   4.224
11260TIP3    H133737   0.145   4.777   4.212
11260TIP3    H233738   0.265   4.728   4.291
11261TIP3   OH233739   3.726   6.286   1.814
11261TIP3    H133740   3.729   6.379   1.839
11261TIP3    H233741   3.781   6.242   1.879
11262TIP3   OH233742   0.027   5.492   1.235
11262TIP3    H133743   0.067   5.417   1.192
11262TIP3    H233744   0.001   5.550   1.163
11263TIP3   OH233745   3.500   5.671   0.301
11263TIP3    H133746   3.595   5.669   0.286
11263TIP3    H233747   3.479   5.765   0.307
11264TIP3   OH233748   6.454   6.630   0.502
11264TIP3    H133749   6.481   6.566   0.436
11264TIP3    H233750   6.384   6.680   0.461
11265TIP3   OH233751   7.219   0.272   2.580
11265TIP3    H133752   7.315   0.277   2.575
11265TIP3    H233753   7.198   0.188   2.538
11266TIP3   OH233754   3.837   1.921   0.950
11266TIP3    H133755   3.867   1.833   0.926
11266TIP3    H233756   3.748   1.927   0.914
11267TIP3   OH233757   2.286   0.766   1.336
11267TIP3    H133758   2.249   0.833   1.395
11267TIP3    H233759   2.210   0.731   1.290
11268TIP3   OH233760   3.839   3.305   6.501
11268TIP3    H133761   3.802   3.253   6.429
11268TIP3    H233762   3.850   3.392   6.463
11269TIP3   OH233763   3.258   5.392   5.767
11269TIP3    H133764   3.247   5.334   5.843
11269TIP3    H233765   3.298   5.336   5.700
11270TIP3   OH233766   2.813   5.086   4.828
11270TIP3    H133767   2.872   5.117   4.759
11270TIP3    H233768   2.790   4.997   4.802
11271TIP3   OH233769   5.143   3.396   3.828
11271TIP3    H133770   5.148   3.379   3.922
11271TIP3    H233771   5.084   3.328   3.794
11272TIP3   OH233772   4.777   3.675   1.882
11272TIP3    H133773   4.804   3.589   1.913
11272TIP3    H233774   4.774   3.729   1.960
11273TIP3   OH233775   7.320   3.051   3.624
11273TIP3    H133776   7.272   3.036   3.705
11273TIP3    H233777   7.406   3.084   3.652
11274TIP3   OH233778   7.593   6.435   3.649
11274TIP3    H133779   7.545   6.517   3.655
11274TIP3    H233780   7.620   6.416   3.739
11275TIP3   OH233781   7.324   5.581   5.882
11275TIP3    H133782   7.374   5.557   5.960
11275TIP3    H233783   7.387   5.574   5.810
11276TIP3   OH233784   3.685   4.867   1.333
11276TIP3    H133785   3.699   4.778   1.303
11276TIP3    H233786   3.769   4.911   1.319
11277TIP3   OH233787   6.440   7.289   2.058
11277TIP3    H133788   6.415   7.366   2.109
11277TIP3    H233789   6.370   7.226   2.075
11278TIP3   OH233790   6.934   5.230   1.111
11278TIP3    H133791   6.997   5.286   1.155
11278TIP3    H233792   6.885   5.189   1.183
11279TIP3   OH233793   0.251   4.580   0.493
11279TIP3    H133794   0.308   4.573   0.417
11279TIP3    H233795   0.255   4.494   0.534
11280TIP3   OH233796   7.272   6.304   5.748
11280TIP3    H133797   7.337   6.281   5.682
11280TIP3    H233798   7.306   6.385   5.787
11281TIP3   OH233799   7.918   5.089   2.748
11281TIP3    H133800   7.967   5.018   2.789
11281TIP3    H233801   7.871   5.046   2.676
11282TIP3   OH233802   2.960   5.302   4.309
11282TIP3    H133803   2.960   5.333   4.400
11282TIP3    H233804   2.993   5.212   4.315
11283TIP3   OH233805   4.642   6.222   3.583
11283TIP3    H133806   4.576   6.287   3.607
11283TIP3    H233807   4.725   6.260   3.612
11284TIP3   OH233808   6.216   4.309   5.125
11284TIP3    H133809   6.264   4.289   5.044
11284TIP3    H233810   6.268   4.377   5.168
11285TIP3   OH233811   4.594   1.077   1.990
11285TIP3    H133812   4.530   1.006   1.983
11285TIP3    H233813   4.670   1.045   1.941
11286TIP3   OH233814   3.780   6.685   0.955
11286TIP3    H133815   3.802   6.658   0.866
11286TIP3    H233816   3.832   6.765   0.969
11287TIP3   OH233817   1.752   1.935   4.858
11287TIP3    H133818   1.695   1.972   4.791
11287TIP3    H233819   1.697   1.871   4.904
11288TIP3   OH233820   5.202   2.524   5.116
11288TIP3    H133821   5.161   2.528   5.029
11288TIP3    H233822   5.195   2.432   5.141
11289TIP3   OH233823   1.341   3.720   0.130
11289TIP3    H133824   1.302   3.807   0.139
11289TIP3    H233825   1.372   3.698   0.218
11290TIP3   OH233826   3.115   1.164   2.894
11290TIP3    H133827   3.112   1.211   2.811
11290TIP3    H233828   3.205   1.132   2.900
11291TIP3   OH233829   3.546   5.984   1.834
11291TIP3    H133830   3.614   6.045   1.861
11291TIP3    H233831   3.489   5.976   1.911
11292TIP3   OH233832   4.629   3.257   5.176
11292TIP3    H133833   4.707   3.268   5.232
11292TIP3    H233834   4.614   3.344   5.138
11293TIP3   OH233835   7.289   1.697   6.202
11293TIP3    H133836   7.283   1.793   6.205
11293TIP3    H233837   7.241   1.667   6.279
11294TIP3   OH233838   7.029   0.198   2.269
11294TIP3    H133839   6.976   0.276   2.249
11294TIP3    H233840   6.993   0.166   2.352
11295TIP3   OH233841   3.975   1.394   6.522
11295TIP3    H133842   3.902   1.353   6.568
11295TIP3    H233843   3.933   1.445   6.451
11296TIP3   OH233844   6.922   6.489   0.148
11296TIP3    H133845   7.014   6.515   0.151
11296TIP3    H233846   6.924   6.394   0.140
11297TIP3   OH233847   7.089   2.699   3.918
11297TIP3    H133848   7.175   2.726   3.951
11297TIP3    H233849   7.060   2.771   3.863
11298TIP3   OH233850   3.585   3.817   0.905
11298TIP3    H133851   3.588   3.803   0.810
11298TIP3    H233852   3.643   3.891   0.921
11299TIP3   OH233853   4.884   0.593   3.063
11299TIP3    H133854   4.881   0.590   2.967
11299TIP3    H233855   4.968   0.636   3.082
11300TIP3   OH233856   6.799   7.369   0.036
11300TIP3    H133857   6.817   7.300   0.100
11300TIP3    H233858   6.764   7.323  -0.040
11301TIP3   OH233859   0.117   3.695   0.128
11301TIP3    H133860   0.081   3.623   0.077
11301TIP3    H233861   0.074   3.773   0.093
11302TIP3   OH233862   7.084   0.369   0.727
11302TIP3    H133863   7.083   0.303   0.658
11302TIP3    H233864   7.031   0.332   0.797
11303TIP3   OH233865   2.208   3.828   1.392
11303TIP3    H133866   2.262   3.750   1.388
11303TIP3    H233867   2.242   3.877   1.467
11304TIP3   OH233868   1.591   4.573   1.784
11304TIP3    H133869   1.554   4.557   1.697
11304TIP3    H233870   1.553   4.657   1.812
11305TIP3   OH233871   7.091   3.994   1.485
11305TIP3    H133872   7.059   3.916   1.530
11305TIP3    H233873   7.033   4.064   1.515
11306TIP3   OH233874   0.902   1.934   4.668
11306TIP3    H133875   0.866   1.851   4.636
11306TIP3    H233876   0.828   1.995   4.663
11307TIP3   OH233877   1.104   1.939   3.108
11307TIP3    H133878   1.067   1.863   3.063
11307TIP3    H233879   1.034   1.968   3.167
11308TIP3   OH233880   2.054   7.653   2.138
11308TIP3    H133881   2.092   7.723   2.087
11308TIP3    H233882   2.128   7.617   2.188
11309TIP3   OH233883   6.087   0.314   5.287
11309TIP3    H133884   6.003   0.329   5.244
11309TIP3    H233885   6.100   0.219   5.281
11310TIP3   OH233886   2.584   5.616   5.350
11310TIP3    H133887   2.651   5.632   5.283
11310TIP3    H233888   2.503   5.651   5.312
11311TIP3   OH233889   4.263   1.078   0.851
11311TIP3    H133890   4.333   1.130   0.813
11311TIP3    H233891   4.279   0.989   0.820
11312TIP3   OH233892   0.625   0.602   0.270
11312TIP3    H133893   0.658   0.666   0.333
11312TIP3    H233894   0.554   0.647   0.225
11313TIP3   OH233895   0.464   3.588   3.714
11313TIP3    H133896   0.389   3.555   3.665
11313TIP3    H233897   0.441   3.573   3.806
11314TIP3   OH233898   2.126   6.227   4.165
11314TIP3    H133899   2.155   6.138   4.184
11314TIP3    H233900   2.040   6.215   4.124
11315TIP3   OH233901   1.840   4.087   5.853
11315TIP3    H133902   1.768   4.119   5.799
11315TIP3    H233903   1.912   4.074   5.792
11316TIP3   OH233904   7.462   6.503   3.025
11316TIP3    H133905   7.495   6.472   2.941
11316TIP3    H233906   7.504   6.447   3.090
11317TIP3   OH233907   7.382   4.010   6.066
11317TIP3    H133908   7.401   4.046   5.979
11317TIP3    H233909   7.416   4.075   6.127
11318TIP3   OH233910   7.210   1.408   5.757
11318TIP3    H133911   7.194   1.480   5.817
11318TIP3    H233912   7.122   1.379   5.730
11319TIP3   OH233913   6.132   7.553   5.864
11319TIP3    H133914   6.076   7.540   5.940
11319TIP3    H233915   6.092   7.501   5.795
11320TIP3   OH233916   3.575   6.454   0.782
11320TIP3    H133917   3.561   6.369   0.824
11320TIP3    H233918   3.656   6.443   0.733
11321TIP3   OH233919   1.563   3.322   1.955
11321TIP3    H133920   1.617   3.242   1.958
11321TIP3    H233921   1.624   3.391   1.929
11322TIP3   OH233922   6.688   4.784   0.299
11322TIP3    H133923   6.676   4.839   0.377
11322TIP3    H233924   6.775   4.746   0.310
11323TIP3   OH233925   0.899   1.101   6.074
11323TIP3    H133926   0.817   1.138   6.107
11323TIP3    H233927   0.946   1.074   6.153
11324TIP3   OH233928   3.246   1.394   4.018
11324TIP3    H133929   3.164   1.356   3.985
11324TIP3    H233930   3.284   1.325   4.072
11325TIP3   OH233931   8.332   5.320   2.726
11325TIP3    H133932   8.334   5.262   2.650
11325TIP3    H233933   8.239   5.337   2.741
11326TIP3   OH233934   1.403   0.222   1.136
11326TIP3    H133935   1.411   0.259   1.048
11326TIP3    H233936   1.489   0.184   1.154
11327TIP3   OH233937   5.719   5.263   5.872
11327TIP3    H133938   5.709   5.328   5.942
11327TIP3    H233939   5.642   5.275   5.817
11328TIP3   OH233940   6.796   1.525   0.502
11328TIP3    H133941   6.788   1.463   0.429
11328TIP3    H233942   6.745   1.485   0.572
11329TIP3   OH233943   4.978   4.669   1.955
11329TIP3    H133944   5.015   4.610   2.021
11329TIP3    H233945   4.959   4.749   2.004
11330TIP3   OH233946   1.118   1.876   2.237
11330TIP3    H133947   1.046   1.837   2.287
11330TIP3    H233948   1.193   1.820   2.255
11331TIP3   OH233949   6.462   1.315   2.680
11331TIP3    H133950   6.413   1.358   2.611
11331TIP3    H233951   6.551   1.307   2.645
11332TIP3   OH233952   3.289   7.145   0.080
11332TIP3    H133953   3.357   7.211   0.093
11332TIP3    H233954   3.221   7.190   0.029
11333TIP3   OH233955   5.559   7.639   3.095
11333TIP3    H133956   5.640   7.634   3.045
11333TIP3    H233957   5.497   7.585   3.046
11334TIP3   OH233958   2.009   1.419   5.842
11334TIP3    H133959   2.050   1.385   5.922
11334TIP3    H233960   1.919   1.439   5.867
11335TIP3   OH233961   4.257   1.792   5.996
11335TIP3    H133962   4.243   1.805   6.090
11335TIP3    H233963   4.256   1.881   5.960
11336TIP3   OH233964   3.307   3.642   0.178
11336TIP3    H133965   3.241   3.605   0.236
11336TIP3    H233966   3.358   3.701   0.234
11337TIP3   OH233967   2.119   0.929   5.883
11337TIP3    H133968   2.052   0.994   5.903
11337TIP3    H233969   2.094   0.893   5.798
11338TIP3   OH233970   4.262   7.502   6.427
11338TIP3    H133971   4.201   7.574   6.439
11338TIP3    H233972   4.325   7.534   6.362
11339TIP3   OH233973   1.872   4.310   0.184
11339TIP3    H133974   1.781   4.341   0.185
11339TIP3    H233975   1.918   4.374   0.129
11340TIP3   OH233976   0.669   0.782   0.746
11340TIP3    H133977   0.591   0.795   0.800
11340TIP3    H233978   0.742   0.799   0.805
11341TIP3   OH233979   5.453   3.598   3.423
11341TIP3    H133980   5.482   3.534   3.488
11341TIP3    H233981   5.525   3.660   3.418
11342TIP3   OH233982   0.386   4.768   5.176
11342TIP3    H133983   0.316   4.708   5.149
11342TIP3    H233984   0.398   4.748   5.269
11343TIP3   OH233985   7.368   7.590   4.492
11343TIP3    H133986   7.274   7.591   4.475
11343TIP3    H233987   7.403   7.663   4.442
11344TIP3   OH233988   4.617   1.906   5.719
11344TIP3    H133989   4.640   1.815   5.701
11344TIP3    H233990   4.526   1.913   5.691
11345TIP3   OH233991   8.178   1.313   4.389
11345TIP3    H133992   8.251   1.283   4.335
11345TIP3    H233993   8.199   1.284   4.478
11346TIP3   OH233994   4.318   0.433   0.069
11346TIP3    H133995   4.266   0.397  -0.002
11346TIP3    H233996   4.310   0.368   0.140
11347TIP3   OH233997   6.504   7.140   6.226
11347TIP3    H133998   6.561   7.138   6.304
11347TIP3    H233999   6.554   7.093   6.159
11348TIP3   OH234000   6.271   4.180   1.508
11348TIP3    H134001   6.193   4.139   1.471
11348TIP3    H234002   6.244   4.270   1.526
11349TIP3   OH234003   7.456   4.209   6.285
11349TIP3    H134004   7.543   4.177   6.306
11349TIP3    H234005   7.460   4.303   6.305
11350TIP3   OH234006   0.369   1.433   1.198
11350TIP3    H134007   0.464   1.421   1.203
11350TIP3    H234008   0.334   1.376   1.266
11351TIP3   OH234009   5.389   0.600   3.496
11351TIP3    H134010   5.421   0.642   3.576
11351TIP3    H234011   5.397   0.506   3.514
11352TIP3   OH234012   0.097   0.682   3.515
11352TIP3    H134013   0.043   0.757   3.540
11352TIP3    H234014   0.187   0.710   3.534
11353TIP3   OH234015   5.365   3.399   3.675
11353TIP3    H134016   5.388   3.308   3.659
11353TIP3    H234017   5.282   3.396   3.723
11354TIP3   OH234018   2.153   5.260   2.862
11354TIP3    H134019   2.151   5.349   2.896
11354TIP3    H234020   2.074   5.219   2.897
11355TIP3   OH234021   7.200   0.752   1.914
11355TIP3    H134022   7.264   0.768   1.983
11355TIP3    H234023   7.208   0.827   1.855
11356TIP3   OH234024   7.168   1.016   1.788
11356TIP3    H134025   7.077   1.047   1.785
11356TIP3    H234026   7.220   1.095   1.774
11357TIP3   OH234027   7.830   5.857   1.653
11357TIP3    H134028   7.899   5.851   1.719
11357TIP3    H234029   7.808   5.767   1.633
11358TIP3   OH234030   0.902   3.999   6.054
11358TIP3    H134031   0.967   4.069   6.045
11358TIP3    H234032   0.837   4.018   5.986
11359TIP3   OH234033   6.428   0.470   4.612
11359TIP3    H134034   6.447   0.563   4.603
11359TIP3    H234035   6.415   0.456   4.706
11360TIP3   OH234036   5.939   1.808   6.271
11360TIP3    H134037   5.849   1.831   6.294
11360TIP3    H234038   5.930   1.744   6.201
11361TIP3   OH234039   6.301   0.521   4.011
11361TIP3    H134040   6.326   0.432   3.985
11361TIP3    H234041   6.283   0.514   4.105
11362TIP3   OH234042   7.495   3.114   5.846
11362TIP3    H134043   7.498   3.019   5.844
11362TIP3    H234044   7.424   3.138   5.786
11363TIP3   OH234045   4.790   1.853   6.758
11363TIP3    H134046   4.762   1.933   6.803
11363TIP3    H234047   4.740   1.783   6.799
11364TIP3   OH234048   5.320   1.986   1.185
11364TIP3    H134049   5.290   1.946   1.103
11364TIP3    H234050   5.241   2.024   1.224
11365TIP3   OH234051   7.327   7.394   3.505
11365TIP3    H134052   7.362   7.455   3.440
11365TIP3    H234053   7.359   7.308   3.476
11366TIP3   OH234054   1.723   4.764   2.868
11366TIP3    H134055   1.700   4.699   2.934
11366TIP3    H234056   1.683   4.845   2.900
11367TIP3   OH234057   7.633   6.233   2.881
11367TIP3    H134058   7.604   6.196   2.964
11367TIP3    H234059   7.577   6.190   2.815
11368TIP3   OH234060   3.394   0.802   5.770
11368TIP3    H134061   3.405   0.809   5.865
11368TIP3    H234062   3.301   0.781   5.758
11369TIP3   OH234063   4.505   4.017   1.684
11369TIP3    H134064   4.410   4.011   1.678
11369TIP3    H234065   4.532   3.932   1.720
11370TIP3   OH234066   0.133   4.718   3.024
11370TIP3    H134067   0.075   4.713   3.101
11370TIP3    H234068   0.183   4.636   3.027
11371TIP3   OH234069   1.640   0.918   6.793
11371TIP3    H134070   1.639   0.823   6.804
11371TIP3    H234071   1.636   0.931   6.698
11372TIP3   OH234072   5.585   4.709   3.884
11372TIP3    H134073   5.493   4.682   3.889
11372TIP3    H234074   5.598   4.733   3.792
11373TIP3   OH234075   7.787   2.984   3.450
11373TIP3    H134076   7.871   2.940   3.433
11373TIP3    H234077   7.811   3.074   3.470
11374TIP3   OH234078   6.344   4.783   1.366
11374TIP3    H134079   6.428   4.783   1.413
11374TIP3    H234080   6.308   4.870   1.383
11375TIP3   OH234081   1.997   7.580   6.218
11375TIP3    H134082   1.990   7.569   6.123
11375TIP3    H234083   1.909   7.605   6.246
11376TIP3   OH234084   1.238   0.222   4.268
11376TIP3    H134085   1.215   0.314   4.275
11376TIP3    H234086   1.327   0.216   4.302
11377TIP3   OH234087   3.315   5.497   2.571
11377TIP3    H134088   3.230   5.488   2.529
11377TIP3    H234089   3.354   5.575   2.533
11378TIP3   OH234090   1.357   7.105   1.688
11378TIP3    H134091   1.452   7.119   1.694
11378TIP3    H234092   1.336   7.120   1.596
11379TIP3   OH234093   6.484   0.294   1.390
11379TIP3    H134094   6.428   0.227   1.429
11379TIP3    H234095   6.426   0.369   1.375
11380TIP3   OH234096   1.297   0.028   0.639
11380TIP3    H134097   1.372   0.023   0.698
11380TIP3    H234098   1.334   0.064   0.558
11381TIP3   OH234099   6.786   4.619   3.869
11381TIP3    H134100   6.704   4.569   3.876
11381TIP3    H234101   6.829   4.606   3.954
11382TIP3   OH234102   2.276   3.196   2.780
11382TIP3    H134103   2.231   3.113   2.792
11382TIP3    H234104   2.267   3.241   2.864
11383TIP3   OH234105   7.133   7.074   5.654
11383TIP3    H134106   7.161   7.154   5.610
11383TIP3    H234107   7.044   7.092   5.683
11384TIP3   OH234108   2.558   6.422   4.031
11384TIP3    H134109   2.595   6.486   4.092
11384TIP3    H234110   2.487   6.380   4.080
11385TIP3   OH234111   3.581   6.473   2.945
11385TIP3    H134112   3.659   6.516   2.982
11385TIP3    H234113   3.614   6.430   2.866
11386TIP3   OH234114   2.612   1.642   2.288
11386TIP3    H134115   2.703   1.616   2.273
11386TIP3    H234116   2.604   1.727   2.244
11387TIP3   OH234117   7.635   0.741   5.881
11387TIP3    H134118   7.654   0.805   5.949
11387TIP3    H234119   7.636   0.657   5.926
11388TIP3   OH234120   8.205   7.282   1.957
11388TIP3    H134121   8.293   7.255   1.985
11388TIP3    H234122   8.157   7.199   1.948
11389TIP3   OH234123   0.280   3.474   0.456
11389TIP3    H134124   0.308   3.517   0.537
11389TIP3    H234125   0.350   3.412   0.436
11390TIP3   OH234126   6.181   3.187   6.537
11390TIP3    H134127   6.210   3.241   6.464
11390TIP3    H234128   6.096   3.151   6.509
11391TIP3   OH234129   2.153   1.461   4.702
11391TIP3    H134130   2.177   1.390   4.762
11391TIP3    H234131   2.097   1.420   4.636
11392TIP3   OH234132   6.615   1.015   1.865
11392TIP3    H134133   6.660   0.930   1.860
11392TIP3    H234134   6.598   1.028   1.958
11393TIP3   OH234135   2.770   4.808   5.097
11393TIP3    H134136   2.802   4.895   5.120
11393TIP3    H234137   2.676   4.820   5.082
11394TIP3   OH234138   0.308   4.046   2.942
11394TIP3    H134139   0.403   4.050   2.945
11394TIP3    H234140   0.288   3.994   2.864
11395TIP3   OH234141   5.334   1.228   0.285
11395TIP3    H134142   5.335   1.171   0.362
11395TIP3    H234143   5.412   1.202   0.236
11396TIP3   OH234144   6.512   2.793   1.125
11396TIP3    H134145   6.558   2.861   1.075
11396TIP3    H234146   6.531   2.814   1.216
11397TIP3   OH234147   0.859   4.164   1.744
11397TIP3    H134148   0.928   4.188   1.683
11397TIP3    H234149   0.781   4.153   1.690
11398TIP3   OH234150   5.149   7.069   5.142
11398TIP3    H134151   5.134   7.163   5.153
11398TIP3    H234152   5.224   7.063   5.083
11399TIP3   OH234153   0.969   3.562   1.261
11399TIP3    H134154   0.891   3.560   1.206
11399TIP3    H234155   1.040   3.588   1.202
11400TIP3   OH234156   1.491   6.764   4.883
11400TIP3    H134157   1.403   6.793   4.859
11400TIP3    H234158   1.536   6.845   4.910
11401TIP3   OH234159   6.076   7.428   0.100
11401TIP3    H134160   6.166   7.456   0.117
11401TIP3    H234161   6.079   7.388   0.013
11402TIP3   OH234162   4.139   3.712   3.432
11402TIP3    H134163   4.096   3.797   3.441
11402TIP3    H234164   4.069   3.648   3.450
11403TIP3   OH234165   5.516   6.219   0.394
11403TIP3    H134166   5.425   6.191   0.389
11403TIP3    H234167   5.518   6.302   0.345
11404TIP3   OH234168   0.920   3.157   5.834
11404TIP3    H134169   0.986   3.225   5.820
11404TIP3    H234170   0.929   3.099   5.758
11405TIP3   OH234171   3.851   0.723   0.391
11405TIP3    H134172   3.903   0.643   0.375
11405TIP3    H234173   3.854   0.734   0.486
11406TIP3   OH234174   4.893   5.580   2.595
11406TIP3    H134175   4.853   5.527   2.663
11406TIP3    H234176   4.844   5.558   2.516
11407TIP3   OH234177   6.132   2.533   4.556
11407TIP3    H134178   6.133   2.437   4.553
11407TIP3    H234179   6.185   2.554   4.633
11408TIP3   OH234180   7.992   2.547   2.265
11408TIP3    H134181   7.909   2.523   2.306
11408TIP3    H234182   8.050   2.473   2.284
11409TIP3   OH234183   3.489   4.773   5.343
11409TIP3    H134184   3.522   4.821   5.419
11409TIP3    H234185   3.567   4.738   5.301
11410TIP3   OH234186   7.507   6.158   4.258
11410TIP3    H134187   7.477   6.105   4.184
11410TIP3    H234188   7.441   6.227   4.267
11411TIP3   OH234189   5.736   5.853   0.875
11411TIP3    H134190   5.688   5.829   0.955
11411TIP3    H234191   5.701   5.796   0.808
11412TIP3   OH234192   5.894   5.842   3.934
11412TIP3    H134193   5.860   5.858   3.847
11412TIP3    H234194   5.972   5.787   3.920
11413TIP3   OH234195   5.096   0.685   2.302
11413TIP3    H134196   5.100   0.772   2.261
11413TIP3    H234197   5.003   0.666   2.309
11414TIP3   OH234198   8.078   6.896   4.328
11414TIP3    H134199   8.010   6.928   4.387
11414TIP3    H234200   8.076   6.801   4.338
11415TIP3   OH234201   2.889   0.239   5.746
11415TIP3    H134202   2.842   0.307   5.698
11415TIP3    H234203   2.821   0.177   5.773
11416TIP3   OH234204   8.243   2.765   4.178
11416TIP3    H134205   8.206   2.750   4.265
11416TIP3    H234206   8.230   2.682   4.132
11417TIP3   OH234207   4.206   5.940   2.377
11417TIP3    H134208   4.243   6.017   2.421
11417TIP3    H234209   4.111   5.949   2.387
11418TIP3   OH234210   5.994   1.955   0.298
11418TIP3    H134211   6.027   1.901   0.370
11418TIP3    H234212   6.072   1.998   0.262
11419TIP3   OH234213   6.688   7.359   3.580
11419TIP3    H134214   6.782   7.374   3.568
11419TIP3    H234215   6.666   7.408   3.659
11420TIP3   OH234216   3.908   7.361   0.747
11420TIP3    H134217   3.966   7.390   0.817
11420TIP3    H234218   3.871   7.442   0.711
11421TIP3   OH234219   2.731   5.585   4.503
11421TIP3    H134220   2.680   5.564   4.425
11421TIP3    H234221   2.795   5.650   4.473
11422TIP3   OH234222   2.582   6.672   4.917
11422TIP3    H134223   2.554   6.685   4.826
11422TIP3    H234224   2.664   6.623   4.909
11423TIP3   OH234225   0.634   6.410   6.635
11423TIP3    H134226   0.729   6.397   6.638
11423TIP3    H234227   0.619   6.489   6.687
11424TIP3   OH234228   5.622   0.592   0.139
11424TIP3    H134229   5.634   0.687   0.130
11424TIP3    H234230   5.582   0.565   0.056
11425TIP3   OH234231   6.750   2.156   2.573
11425TIP3    H134232   6.746   2.061   2.561
11425TIP3    H234233   6.697   2.173   2.651
11426TIP3   OH234234   6.180   6.159   2.119
11426TIP3    H134235   6.218   6.244   2.139
11426TIP3    H234236   6.157   6.164   2.026
11427TIP3   OH234237   0.470   3.866   1.160
11427TIP3    H134238   0.421   3.936   1.203
11427TIP3    H234239   0.406   3.821   1.106
11428TIP3   OH234240   4.977   2.350   2.439
11428TIP3    H134241   5.072   2.342   2.436
11428TIP3    H234242   4.960   2.444   2.432
11429TIP3   OH234243   0.998   6.874   4.542
11429TIP3    H134244   1.078   6.908   4.583
11429TIP3    H234245   0.947   6.952   4.521
11430TIP3   OH234246   5.087   1.069   0.253
11430TIP3    H134247   5.172   1.106   0.228
11430TIP3    H234248   5.078   0.992   0.197
11431TIP3   OH234249   8.042   5.274   0.135
11431TIP3    H134250   8.028   5.359   0.095
11431TIP3    H234251   8.082   5.221   0.066
11432TIP3   OH234252   2.340   5.072   1.582
11432TIP3    H134253   2.418   5.112   1.619
11432TIP3    H234254   2.373   4.994   1.537
11433TIP3   OH234255   7.630   7.043   0.665
11433TIP3    H134256   7.697   6.977   0.684
11433TIP3    H234257   7.572   7.040   0.740
11434TIP3   OH234258   6.000   3.039   5.368
11434TIP3    H134259   6.006   3.124   5.324
11434TIP3    H234260   6.002   3.061   5.461
11435TIP3   OH234261   5.680   7.849   6.233
11435TIP3    H134262   5.614   7.885   6.292
11435TIP3    H234263   5.704   7.765   6.273
11436TIP3   OH234264   4.612   6.008   2.851
11436TIP3    H134265   4.656   6.039   2.930
11436TIP3    H234266   4.644   5.919   2.839
11437TIP3   OH234267   1.684   5.166   4.948
11437TIP3    H134268   1.697   5.249   4.993
11437TIP3    H234269   1.754   5.109   4.981
11438TIP3   OH234270   7.706   4.494   2.742
11438TIP3    H134271   7.775   4.436   2.775
11438TIP3    H234272   7.687   4.552   2.816
11439TIP3   OH234273   1.153   3.372   2.807
11439TIP3    H134274   1.088   3.303   2.816
11439TIP3    H234275   1.104   3.454   2.817
11440TIP3   OH234276   0.272   0.939   3.177
11440TIP3    H134277   0.215   0.875   3.218
11440TIP3    H234278   0.231   1.024   3.197
11441TIP3   OH234279   1.126   2.939   0.179
11441TIP3    H134280   1.151   2.859   0.227
11441TIP3    H234281   1.187   2.942   0.106
11442TIP3   OH234282   3.210   5.621   0.604
11442TIP3    H134283   3.124   5.663   0.597
11442TIP3    H234284   3.257   5.675   0.668
11443TIP3   OH234285   3.987   6.539   2.523
11443TIP3    H134286   4.017   6.512   2.437
11443TIP3    H234287   3.991   6.635   2.521
11444TIP3   OH234288   7.129   6.368   0.667
11444TIP3    H134289   7.117   6.459   0.641
11444TIP3    H234290   7.085   6.361   0.752
11445TIP3   OH234291   7.437   5.524   1.256
11445TIP3    H134292   7.520   5.494   1.294
11445TIP3    H234293   7.449   5.618   1.242
11446TIP3   OH234294   8.126   7.522   0.240
11446TIP3    H134295   8.116   7.579   0.316
11446TIP3    H234296   8.130   7.434   0.276
11447TIP3   OH234297   4.783   5.302   2.230
11447TIP3    H134298   4.773   5.393   2.256
11447TIP3    H234299   4.791   5.254   2.313
11448TIP3   OH234300   7.845   5.148   1.348
11448TIP3    H134301   7.913   5.113   1.405
11448TIP3    H234302   7.793   5.072   1.322
11449TIP3   OH234303   4.581   5.375   0.404
11449TIP3    H134304   4.618   5.433   0.470
11449TIP3    H234305   4.540   5.434   0.341
11450TIP3   OH234306   4.969   5.465   2.038
11450TIP3    H134307   5.041   5.411   2.071
11450TIP3    H234308   4.968   5.541   2.096
11451TIP3   OH234309   6.543   1.688   5.444
11451TIP3    H134310   6.558   1.633   5.368
11451TIP3    H234311   6.607   1.658   5.508
11452TIP3   OH234312   4.251   0.436   4.200
11452TIP3    H134313   4.283   0.513   4.153
11452TIP3    H234314   4.155   0.446   4.198
11453TIP3   OH234315   6.356   5.512   6.658
11453TIP3    H134316   6.332   5.602   6.682
11453TIP3    H234317   6.286   5.458   6.697
11454TIP3   OH234318   0.908   5.309   5.686
11454TIP3    H134319   0.927   5.216   5.681
11454TIP3    H234320   0.836   5.316   5.748
11455TIP3   OH234321   1.351   1.329   4.655
11455TIP3    H134322   1.346   1.236   4.636
11455TIP3    H234323   1.355   1.371   4.568
11456TIP3   OH234324   7.035   6.007   3.324
11456TIP3    H134325   7.003   5.961   3.246
11456TIP3    H234326   7.024   6.099   3.304
11457TIP3   OH234327   6.774   3.169   5.270
11457TIP3    H134328   6.745   3.087   5.310
11457TIP3    H234329   6.693   3.211   5.239
11458TIP3   OH234330   3.498   3.278   4.729
11458TIP3    H134331   3.441   3.327   4.788
11458TIP3    H234332   3.455   3.193   4.720
11459TIP3   OH234333   7.396   4.880   5.027
11459TIP3    H134334   7.361   4.791   5.020
11459TIP3    H234335   7.491   4.869   5.028
11460TIP3   OH234336   1.696   2.707   3.362
11460TIP3    H134337   1.631   2.695   3.292
11460TIP3    H234338   1.778   2.675   3.324
11461TIP3   OH234339   1.177   1.641   0.147
11461TIP3    H134340   1.151   1.549   0.143
11461TIP3    H234341   1.268   1.638   0.178
11462TIP3   OH234342   1.434   1.601   0.263
11462TIP3    H134343   1.372   1.559   0.323
11462TIP3    H234344   1.514   1.549   0.271
11463TIP3   OH234345   4.170   1.100   1.128
11463TIP3    H134346   4.201   1.103   1.038
11463TIP3    H234347   4.136   1.188   1.145
11464TIP3   OH234348   5.456   1.504   6.400
11464TIP3    H134349   5.408   1.585   6.385
11464TIP3    H234350   5.479   1.505   6.493
11465TIP3   OH234351   2.355   5.793   1.669
11465TIP3    H134352   2.306   5.715   1.643
11465TIP3    H234353   2.417   5.807   1.597
11466TIP3   OH234354   3.942   3.547   2.871
11466TIP3    H134355   4.000   3.518   2.941
11466TIP3    H234356   3.861   3.573   2.916
11467TIP3   OH234357   5.910   2.775   1.988
11467TIP3    H134358   5.977   2.794   1.922
11467TIP3    H234359   5.961   2.746   2.064
11468TIP3   OH234360   0.415   3.520   5.556
11468TIP3    H134361   0.374   3.454   5.612
11468TIP3    H234362   0.359   3.526   5.479
11469TIP3   OH234363   3.217   2.884   0.859
11469TIP3    H134364   3.164   2.870   0.938
11469TIP3    H234365   3.162   2.938   0.802
11470TIP3   OH234366   2.138   3.882   2.381
11470TIP3    H134367   2.141   3.829   2.461
11470TIP3    H234368   2.172   3.967   2.407
11471TIP3   OH234369   6.996   1.614   3.184
11471TIP3    H134370   7.066   1.588   3.124
11471TIP3    H234371   7.040   1.664   3.252
11472TIP3   OH234372   0.320   0.452   1.502
11472TIP3    H134373   0.305   0.433   1.410
11472TIP3    H234374   0.414   0.468   1.509
11473TIP3   OH234375   7.085   3.551   1.005
11473TIP3    H134376   7.002   3.597   1.020
11473TIP3    H234377   7.151   3.608   1.045
11474TIP3   OH234378   3.143   1.695   5.457
11474TIP3    H134379   3.210   1.630   5.436
11474TIP3    H234380   3.084   1.693   5.382
11475TIP3   OH234381   1.801   0.478   0.179
11475TIP3    H134382   1.854   0.405   0.149
11475TIP3    H234383   1.766   0.450   0.263
11476TIP3   OH234384   1.756   1.377   0.916
11476TIP3    H134385   1.705   1.371   0.997
11476TIP3    H234386   1.693   1.407   0.850
11477TIP3   OH234387   2.338   5.356   0.811
11477TIP3    H134388   2.336   5.269   0.772
11477TIP3    H234389   2.289   5.411   0.749
11478TIP3   OH234390   6.698   0.975   4.900
11478TIP3    H134391   6.606   0.950   4.892
11478TIP3    H234392   6.745   0.892   4.907
11479TIP3   OH234393   3.498   7.539   5.059
11479TIP3    H134394   3.472   7.567   4.972
11479TIP3    H234395   3.440   7.465   5.079
11480TIP3   OH234396   5.208   7.827   0.684
11480TIP3    H134397   5.298   7.834   0.716
11480TIP3    H234398   5.164   7.773   0.749
11481TIP3   OH234399   3.493   4.657   2.159
11481TIP3    H134400   3.443   4.578   2.179
11481TIP3    H234401   3.447   4.727   2.206
11482TIP3   OH234402   5.179   5.217   3.314
11482TIP3    H134403   5.136   5.231   3.230
11482TIP3    H234404   5.144   5.285   3.372
11483TIP3   OH234405   5.821   5.495   5.633
11483TIP3    H134406   5.768   5.465   5.707
11483TIP3    H234407   5.771   5.468   5.556
11484TIP3   OH234408   2.332   6.276   2.929
11484TIP3    H134409   2.293   6.274   2.842
11484TIP3    H234410   2.260   6.252   2.988
11485TIP3   OH234411   3.797   2.686   1.032
11485TIP3    H134412   3.850   2.765   1.043
11485TIP3    H234413   3.707   2.716   1.042
11486TIP3   OH234414   5.956   4.915   1.926
11486TIP3    H134415   5.945   4.836   1.979
11486TIP3    H234416   6.022   4.966   1.974
11487TIP3   OH234417   6.412   6.406   2.104
11487TIP3    H134418   6.459   6.484   2.074
11487TIP3    H234419   6.418   6.344   2.031
11488TIP3   OH234420   6.538   2.704   4.066
11488TIP3    H134421   6.459   2.709   4.012
11488TIP3    H234422   6.604   2.752   4.016
11489TIP3   OH234423   0.304   7.549   3.893
11489TIP3    H134424   0.333   7.465   3.857
11489TIP3    H234425   0.221   7.528   3.937
11490TIP3   OH234426   0.633   2.108   5.680
11490TIP3    H134427   0.617   2.166   5.606
11490TIP3    H234428   0.684   2.035   5.644
11491TIP3   OH234429   1.854   2.890   5.953
11491TIP3    H134430   1.892   2.817   5.904
11491TIP3    H234431   1.795   2.933   5.891
11492TIP3   OH234432   3.207   2.710   3.030
11492TIP3    H134433   3.222   2.628   2.984
11492TIP3    H234434   3.225   2.691   3.122
11493TIP3   OH234435   6.039   3.683   3.128
11493TIP3    H134436   6.128   3.713   3.149
11493TIP3    H234437   6.031   3.697   3.034
11494TIP3   OH234438   4.147   2.178   4.388
11494TIP3    H134439   4.217   2.124   4.352
11494TIP3    H234440   4.098   2.208   4.312
11495TIP3   OH234441   1.323   1.621   1.570
11495TIP3    H134442   1.276   1.549   1.614
11495TIP3    H234443   1.386   1.651   1.634
11496TIP3   OH234444   3.139   4.204   3.919
11496TIP3    H134445   3.174   4.290   3.940
11496TIP3    H234446   3.063   4.220   3.863
11497TIP3   OH234447   4.037   7.569   4.160
11497TIP3    H134448   4.006   7.584   4.070
11497TIP3    H234449   4.123   7.610   4.162
11498TIP3   OH234450   7.541   6.570   2.234
11498TIP3    H134451   7.513   6.601   2.320
11498TIP3    H234452   7.635   6.557   2.243
11499TIP3   OH234453   5.325   5.544   4.514
11499TIP3    H134454   5.396   5.598   4.480
11499TIP3    H234455   5.341   5.539   4.608
11500TIP3   OH234456   4.272   4.918   0.942
11500TIP3    H134457   4.207   4.852   0.966
11500TIP3    H234458   4.271   4.981   1.013
11501TIP3   OH234459   7.663   3.061   5.536
11501TIP3    H134460   7.618   2.986   5.577
11501TIP3    H234461   7.681   3.120   5.609
11502TIP3   OH234462   4.394   3.254   4.732
11502TIP3    H134463   4.347   3.192   4.675
11502TIP3    H234464   4.467   3.285   4.679
11503TIP3   OH234465   6.039   3.092   0.442
11503TIP3    H134466   5.964   3.102   0.500
11503TIP3    H234467   6.090   3.172   0.455
11504TIP3   OH234468   1.706   2.364   3.583
11504TIP3    H134469   1.713   2.301   3.511
11504TIP3    H234470   1.767   2.332   3.649
11505TIP3   OH234471   2.877   3.183   3.386
11505TIP3    H134472   2.854   3.217   3.473
11505TIP3    H234473   2.795   3.152   3.349
11506TIP3   OH234474   5.219   2.746   6.051
11506TIP3    H134475   5.137   2.697   6.050
11506TIP3    H234476   5.237   2.765   5.959
11507TIP3   OH234477   2.563   4.025   0.731
11507TIP3    H134478   2.505   4.091   0.692
11507TIP3    H234479   2.647   4.069   0.739
11508TIP3   OH234480   1.118   1.500   2.068
11508TIP3    H134481   1.083   1.489   2.157
11508TIP3    H234482   1.211   1.519   2.082
11509TIP3   OH234483   6.595   5.060   6.692
11509TIP3    H134484   6.688   5.056   6.714
11509TIP3    H234485   6.593   5.094   6.602
11510TIP3   OH234486   6.925   6.914   1.844
11510TIP3    H134487   6.947   6.877   1.758
11510TIP3    H234488   6.989   6.875   1.904
11511TIP3   OH234489   4.455   5.430   5.017
11511TIP3    H134490   4.477   5.412   5.108
11511TIP3    H234491   4.361   5.416   5.012
11512TIP3   OH234492   5.681   5.834   4.595
11512TIP3    H134493   5.590   5.850   4.621
11512TIP3    H234494   5.677   5.811   4.503
11513TIP3   OH234495   0.031   7.538   5.177
11513TIP3    H134496   0.038   7.594   5.255
11513TIP3    H234497   0.115   7.492   5.173
11514TIP3   OH234498   5.821   4.489   5.381
11514TIP3    H134499   5.754   4.427   5.410
11514TIP3    H234500   5.838   4.465   5.290
11515TIP3   OH234501   2.540   2.530   3.546
11515TIP3    H134502   2.612   2.490   3.498
11515TIP3    H234503   2.558   2.624   3.543
11516TIP3   OH234504   0.275   6.514   6.574
11516TIP3    H134505   0.284   6.591   6.630
11516TIP3    H234506   0.197   6.531   6.521
11517TIP3   OH234507   6.047   6.390   5.908
11517TIP3    H134508   6.060   6.453   5.838
11517TIP3    H234509   5.975   6.335   5.878
11518TIP3   OH234510   7.718   4.061   4.564
11518TIP3    H134511   7.761   4.001   4.625
11518TIP3    H234512   7.669   4.005   4.505
11519TIP3   OH234513   5.705   2.281   4.593
11519TIP3    H134514   5.611   2.297   4.594
11519TIP3    H234515   5.745   2.368   4.598
11520TIP3   OH234516   4.667   1.279   0.853
11520TIP3    H134517   4.613   1.206   0.884
11520TIP3    H234518   4.738   1.238   0.805
11521TIP3   OH234519   0.492   5.710   5.599
11521TIP3    H134520   0.474   5.773   5.529
11521TIP3    H234521   0.557   5.651   5.561
11522TIP3   OH234522   3.899   7.112   1.206
11522TIP3    H134523   3.945   7.179   1.256
11522TIP3    H234524   3.882   7.043   1.271
11523TIP3   OH234525   7.152   6.120   3.559
11523TIP3    H134526   7.064   6.153   3.541
11523TIP3    H234527   7.197   6.126   3.474
11524TIP3   OH234528   6.134   4.885   5.230
11524TIP3    H134529   6.158   4.976   5.251
11524TIP3    H234530   6.196   4.860   5.161
11525TIP3   OH234531   4.924   3.650   3.842
11525TIP3    H134532   5.006   3.648   3.890
11525TIP3    H234533   4.873   3.719   3.884
11526TIP3   OH234534   5.338   1.638   4.288
11526TIP3    H134535   5.398   1.674   4.222
11526TIP3    H234536   5.379   1.659   4.371
11527TIP3   OH234537   7.741   7.232   2.569
11527TIP3    H134538   7.665   7.256   2.516
11527TIP3    H234539   7.797   7.182   2.510
11528TIP3   OH234540   4.436   1.204   1.424
11528TIP3    H134541   4.473   1.223   1.337
11528TIP3    H234542   4.485   1.261   1.483
11529TIP3   OH234543   4.502   2.311   2.916
11529TIP3    H134544   4.559   2.302   2.993
11529TIP3    H234545   4.519   2.232   2.864
11530TIP3   OH234546   6.490   2.460   4.680
11530TIP3    H134547   6.499   2.442   4.586
11530TIP3    H234548   6.405   2.503   4.687
11531TIP3   OH234549   6.708   2.361   0.150
11531TIP3    H134550   6.666   2.382   0.234
11531TIP3    H234551   6.674   2.427   0.089
11532TIP3   OH234552   1.725   7.598   2.782
11532TIP3    H134553   1.757   7.592   2.872
11532TIP3    H234554   1.797   7.638   2.734
11533TIP3   OH234555   3.996   5.685   6.015
11533TIP3    H134556   4.048   5.611   6.046
11533TIP3    H234557   4.037   5.762   6.055
11534TIP3   OH234558   4.781   2.751   4.492
11534TIP3    H134559   4.768   2.734   4.585
11534TIP3    H234560   4.717   2.695   4.448
11535TIP3   OH234561   1.306   0.669   6.151
11535TIP3    H134562   1.300   0.710   6.065
11535TIP3    H234563   1.398   0.646   6.161
11536TIP3   OH234564   5.081   0.655   1.126
11536TIP3    H134565   5.033   0.647   1.209
11536TIP3    H234566   5.166   0.691   1.151
11537TIP3   OH234567   8.258   0.884   3.630
11537TIP3    H134568   8.167   0.902   3.654
11537TIP3    H234569   8.295   0.971   3.614
11538TIP3   OH234570   5.716   0.694   2.582
11538TIP3    H134571   5.714   0.705   2.678
11538TIP3    H234572   5.776   0.622   2.568
11539TIP3   OH234573   3.998   3.878   1.597
11539TIP3    H134574   3.961   3.826   1.526
11539TIP3    H234575   3.948   3.853   1.675
11540TIP3   OH234576   7.662   2.797   4.919
11540TIP3    H134577   7.755   2.777   4.913
11540TIP3    H234578   7.618   2.725   4.874
11541TIP3   OH234579   0.251   4.344   0.615
11541TIP3    H134580   0.262   4.251   0.635
11541TIP3    H234581   0.159   4.353   0.593
11542TIP3   OH234582   2.150   4.565   2.424
11542TIP3    H134583   2.208   4.564   2.500
11542TIP3    H234584   2.075   4.511   2.450
11543TIP3   OH234585   3.721   7.327   1.108
11543TIP3    H134586   3.776   7.249   1.117
11543TIP3    H234587   3.782   7.400   1.123
11544TIP3   OH234588   5.344   6.952   1.218
11544TIP3    H134589   5.266   6.991   1.258
11544TIP3    H234590   5.403   7.026   1.203
11545TIP3   OH234591   0.211   2.485   3.144
11545TIP3    H134592   0.305   2.464   3.140
11545TIP3    H234593   0.174   2.414   3.197
11546TIP3   OH234594   7.229   4.891   0.504
11546TIP3    H134595   7.255   4.829   0.436
11546TIP3    H234596   7.155   4.850   0.548
11547TIP3   OH234597   5.995   2.157   6.781
11547TIP3    H134598   6.016   2.109   6.701
11547TIP3    H234599   5.994   2.090   6.849
11548TIP3   OH234600   7.583   2.834   5.715
11548TIP3    H134601   7.650   2.808   5.779
11548TIP3    H234602   7.580   2.761   5.653
11549TIP3   OH234603   2.818   7.759   3.653
11549TIP3    H134604   2.867   7.834   3.619
11549TIP3    H234605   2.804   7.781   3.745
11550TIP3   OH234606   0.551   2.611   4.875
11550TIP3    H134607   0.614   2.551   4.835
11550TIP3    H234608   0.568   2.605   4.969
11551TIP3   OH234609   4.668   4.447   4.830
11551TIP3    H134610   4.652   4.514   4.762
11551TIP3    H234611   4.586   4.397   4.832
11552TIP3   OH234612   7.322   5.010   1.772
11552TIP3    H134613   7.283   5.036   1.856
11552TIP3    H234614   7.298   4.918   1.762
11553TIP3   OH234615   1.884   1.552   2.134
11553TIP3    H134616   1.909   1.459   2.140
11553TIP3    H234617   1.966   1.600   2.143
11554TIP3   OH234618   4.339   2.973   1.695
11554TIP3    H134619   4.252   2.948   1.726
11554TIP3    H234620   4.393   2.977   1.774
11555TIP3   OH234621   5.528   1.524   4.755
11555TIP3    H134622   5.541   1.592   4.689
11555TIP3    H234623   5.586   1.453   4.729
11556TIP3   OH234624   5.735   5.393   3.064
11556TIP3    H134625   5.675   5.322   3.042
11556TIP3    H234626   5.822   5.359   3.042
11557TIP3   OH234627   0.224   5.498   6.263
11557TIP3    H134628   0.137   5.469   6.233
11557TIP3    H234629   0.280   5.421   6.252
11558TIP3   OH234630   7.493   1.988   1.580
11558TIP3    H134631   7.526   2.059   1.523
11558TIP3    H234632   7.400   1.984   1.561
11559TIP3   OH234633   7.726   1.439   0.162
11559TIP3    H134634   7.664   1.413   0.229
11559TIP3    H234635   7.717   1.534   0.156
11560TIP3   OH234636   3.971   3.064   1.710
11560TIP3    H134637   4.037   3.123   1.674
11560TIP3    H234638   3.961   3.093   1.801
11561TIP3   OH234639   6.010   3.196   1.980
11561TIP3    H134640   5.940   3.146   1.937
11561TIP3    H234641   6.033   3.144   2.057
11562TIP3   OH234642   0.643   7.323   0.647
11562TIP3    H134643   0.681   7.244   0.686
11562TIP3    H234644   0.558   7.296   0.614
11563TIP3   OH234645   7.242   1.052   1.163
11563TIP3    H134646   7.336   1.046   1.179
11563TIP3    H234647   7.228   1.004   1.081
11564TIP3   OH234648   1.719   6.942   3.207
11564TIP3    H134649   1.625   6.961   3.198
11564TIP3    H234650   1.762   7.025   3.186
11565TIP3   OH234651   3.960   0.063   6.081
11565TIP3    H134652   3.944   0.123   6.154
11565TIP3    H234653   3.966  -0.024   6.121
11566TIP3   OH234654   2.949   4.417   0.191
11566TIP3    H134655   3.026   4.420   0.248
11566TIP3    H234656   2.877   4.443   0.249
11567TIP3   OH234657   4.370   3.496   6.143
11567TIP3    H134658   4.367   3.428   6.211
11567TIP3    H234659   4.291   3.481   6.091
11568TIP3   OH234660   8.342   1.415   5.841
11568TIP3    H134661   8.341   1.490   5.900
11568TIP3    H234662   8.249   1.392   5.830
11569TIP3   OH234663   6.073   6.600   4.624
11569TIP3    H134664   6.035   6.671   4.675
11569TIP3    H234665   6.142   6.642   4.573
11570TIP3   OH234666   4.856   2.872   2.517
11570TIP3    H134667   4.920   2.944   2.513
11570TIP3    H234668   4.835   2.854   2.426
11571TIP3   OH234669   1.532   3.489   0.891
11571TIP3    H134670   1.447   3.478   0.932
11571TIP3    H234671   1.577   3.405   0.904
11572TIP3   OH234672   5.518   4.779   2.979
11572TIP3    H134673   5.480   4.863   3.004
11572TIP3    H234674   5.449   4.715   2.996
11573TIP3   OH234675   7.790   3.248   3.194
11573TIP3    H134676   7.771   3.329   3.146
11573TIP3    H234677   7.884   3.253   3.213
11574TIP3   OH234678   0.017   7.109   5.558
11574TIP3    H134679   0.092   7.066   5.519
11574TIP3    H234680   0.040   7.202   5.560
11575TIP3   OH234681   6.882   5.953   6.402
11575TIP3    H134682   6.854   5.901   6.477
11575TIP3    H234683   6.848   5.906   6.326
11576TIP3   OH234684   7.071   5.819   0.138
11576TIP3    H134685   7.095   5.845   0.227
11576TIP3    H234686   7.049   5.726   0.145
11577TIP3   OH234687   1.879   4.635   3.743
11577TIP3    H134688   1.949   4.649   3.680
11577TIP3    H234689   1.827   4.563   3.705
11578TIP3   OH234690   0.985   4.604   2.668
11578TIP3    H134691   0.973   4.599   2.763
11578TIP3    H234692   1.030   4.522   2.646
11579TIP3   OH234693   6.145   7.256   1.195
11579TIP3    H134694   6.227   7.306   1.196
11579TIP3    H234695   6.143   7.216   1.108
11580TIP3   OH234696   2.761   5.656   5.575
11580TIP3    H134697   2.708   5.649   5.496
11580TIP3    H234698   2.737   5.579   5.627
11581TIP3   OH234699   1.858   2.953   0.257
11581TIP3    H134700   1.836   2.996   0.175
11581TIP3    H234701   1.802   2.995   0.322
11582TIP3   OH234702   5.720   2.739   6.453
11582TIP3    H134703   5.718   2.656   6.501
11582TIP3    H234704   5.655   2.728   6.383
11583TIP3   OH234705   6.864   5.729   2.843
11583TIP3    H134706   6.880   5.818   2.875
11583TIP3    H234707   6.915   5.673   2.901
11584TIP3   OH234708   1.338   1.802   3.973
11584TIP3    H134709   1.266   1.864   3.984
11584TIP3    H234710   1.408   1.855   3.934
11585TIP3   OH234711   2.556   4.042   1.684
11585TIP3    H134712   2.528   3.953   1.706
11585TIP3    H234713   2.650   4.043   1.703
11586TIP3   OH234714   6.975   7.231   2.959
11586TIP3    H134715   7.042   7.269   3.016
11586TIP3    H234716   6.895   7.280   2.979
11587TIP3   OH234717   8.295   7.794   0.674
11587TIP3    H134718   8.233   7.831   0.738
11587TIP3    H234719   8.249   7.720   0.636
11588TIP3   OH234720   7.501   2.825   3.729
11588TIP3    H134721   7.474   2.845   3.818
11588TIP3    H234722   7.484   2.731   3.718
11589TIP3   OH234723   7.093   6.530   3.139
11589TIP3    H134724   7.083   6.595   3.209
11589TIP3    H234725   7.135   6.579   3.068
11590TIP3   OH234726   3.087   4.550   4.805
11590TIP3    H134727   3.136   4.470   4.787
11590TIP3    H234728   3.100   4.566   4.898
11591TIP3   OH234729   3.426   2.218   5.366
11591TIP3    H134730   3.389   2.271   5.296
11591TIP3    H234731   3.388   2.255   5.446
11592TIP3   OH234732   3.899   4.247   2.237
11592TIP3    H134733   3.816   4.248   2.190
11592TIP3    H234734   3.952   4.315   2.194
11593TIP3   OH234735   6.328   1.876   3.437
11593TIP3    H134736   6.420   1.874   3.465
11593TIP3    H234737   6.296   1.788   3.455
11594TIP3   OH234738   3.947   0.476   4.851
11594TIP3    H134739   4.035   0.440   4.861
11594TIP3    H234740   3.959   0.552   4.793
11595TIP3   OH234741   2.715   3.972   3.541
11595TIP3    H134742   2.686   4.057   3.572
11595TIP3    H234743   2.665   3.957   3.461
11596TIP3   OH234744   6.502   1.599   1.890
11596TIP3    H134745   6.428   1.660   1.892
11596TIP3    H234746   6.542   1.613   1.804
11597TIP3   OH234747   2.100   2.761   4.579
11597TIP3    H134748   2.161   2.829   4.552
11597TIP3    H234749   2.154   2.697   4.626
11598TIP3   OH234750   4.106   3.456   6.004
11598TIP3    H134751   4.108   3.492   5.915
11598TIP3    H234752   4.119   3.362   5.992
11599TIP3   OH234753   4.742   5.900   6.312
11599TIP3    H134754   4.735   5.852   6.394
11599TIP3    H234755   4.743   5.992   6.338
11600TIP3   OH234756   5.698   0.833   0.400
11600TIP3    H134757   5.777   0.780   0.414
11600TIP3    H234758   5.698   0.849   0.305
11601TIP3   OH234759   1.064   4.635   5.658
11601TIP3    H134760   0.994   4.610   5.718
11601TIP3    H234761   1.068   4.730   5.664
11602TIP3   OH234762   0.346   5.326   6.743
11602TIP3    H134763   0.351   5.298   6.651
11602TIP3    H234764   0.308   5.414   6.739
11603TIP3   OH234765   5.769   6.026   6.370
11603TIP3    H134766   5.770   6.039   6.276
11603TIP3    H234767   5.837   5.961   6.386
11604TIP3   OH234768   6.899   5.334   3.655
11604TIP3    H134769   6.833   5.304   3.717
11604TIP3    H234770   6.853   5.337   3.571
11605TIP3   OH234771   7.991   4.085   4.785
11605TIP3    H134772   8.068   4.130   4.821
11605TIP3    H234773   7.978   4.124   4.699
11606TIP3   OH234774   4.503   4.098   1.206
11606TIP3    H134775   4.541   4.057   1.128
11606TIP3    H234776   4.460   4.025   1.251
11607TIP3   OH234777   4.382   2.521   1.770
11607TIP3    H134778   4.367   2.427   1.774
11607TIP3    H234779   4.361   2.544   1.679
11608TIP3   OH234780   4.671   4.887   0.794
11608TIP3    H134781   4.756   4.930   0.787
11608TIP3    H234782   4.675   4.815   0.731
11609TIP3   OH234783   0.372   7.512   5.170
11609TIP3    H134784   0.382   7.473   5.256
11609TIP3    H234785   0.447   7.481   5.120
11610TIP3   OH234786   0.924   3.998   5.195
11610TIP3    H134787   0.905   3.941   5.269
11610TIP3    H234788   0.996   4.053   5.225
11611TIP3   OH234789   4.962   2.263   2.166
11611TIP3    H134790   5.005   2.180   2.146
11611TIP3    H234791   4.989   2.284   2.255
11612TIP3   OH234792   7.002   5.901   3.044
11612TIP3    H134793   7.035   5.967   2.982
11612TIP3    H234794   7.068   5.832   3.042
11613TIP3   OH234795   1.545   7.159   0.820
11613TIP3    H134796   1.595   7.237   0.797
11613TIP3    H234797   1.455   7.191   0.830
11614TIP3   OH234798   1.587   6.878   1.749
11614TIP3    H134799   1.590   6.969   1.777
11614TIP3    H234800   1.553   6.830   1.824
11615TIP3   OH234801   5.537   5.754   0.371
11615TIP3    H134802   5.464   5.817   0.371
11615TIP3    H234803   5.615   5.808   0.362
11616TIP3   OH234804   4.580   3.428   1.329
11616TIP3    H134805   4.598   3.520   1.310
11616TIP3    H234806   4.649   3.402   1.390
11617TIP3   OH234807   4.995   5.365   5.538
11617TIP3    H134808   4.917   5.326   5.577
11617TIP3    H234809   4.973   5.378   5.446
11618TIP3   OH234810   7.092   3.188   2.980
11618TIP3    H134811   7.174   3.139   2.982
11618TIP3    H234812   7.101   3.254   3.049
11619TIP3   OH234813   2.050   4.779   1.096
11619TIP3    H134814   1.977   4.716   1.102
11619TIP3    H234815   2.061   4.809   1.186
11620TIP3   OH234816   2.595   6.343   0.374
11620TIP3    H134817   2.645   6.261   0.376
11620TIP3    H234818   2.635   6.395   0.304
11621TIP3   OH234819   4.396   2.653   4.087
11621TIP3    H134820   4.466   2.689   4.142
11621TIP3    H234821   4.408   2.694   4.002
11622TIP3   OH234822   4.398   6.905   2.377
11622TIP3    H134823   4.480   6.898   2.427
11622TIP3    H234824   4.389   6.821   2.333
11623TIP3   OH234825   3.909   4.783   5.421
11623TIP3    H134826   3.956   4.763   5.340
11623TIP3    H234827   3.930   4.874   5.440
11624TIP3   OH234828   5.982   3.758   2.075
11624TIP3    H134829   5.958   3.822   2.142
11624TIP3    H234830   5.979   3.674   2.120
11625TIP3   OH234831   1.898   4.278   1.894
11625TIP3    H134832   1.882   4.259   1.987
11625TIP3    H234833   1.821   4.242   1.849
11626TIP3   OH234834   0.128   0.503   0.294
11626TIP3    H134835   0.083   0.564   0.236
11626TIP3    H234836   0.203   0.472   0.243
11627TIP3   OH234837   4.517   4.487   0.226
11627TIP3    H134838   4.430   4.487   0.187
11627TIP3    H234839   4.571   4.537   0.164
11628TIP3   OH234840   0.801   2.188   2.976
11628TIP3    H134841   0.859   2.124   2.936
11628TIP3    H234842   0.713   2.153   2.962
11629TIP3   OH234843   5.855   1.830   3.031
11629TIP3    H134844   5.887   1.891   3.097
11629TIP3    H234845   5.787   1.879   2.984
11630TIP3   OH234846   1.084   6.950   5.640
11630TIP3    H134847   1.087   6.986   5.728
11630TIP3    H234848   1.144   6.876   5.642
11631TIP3   OH234849   2.229   3.769   1.753
11631TIP3    H134850   2.204   3.859   1.732
11631TIP3    H234851   2.174   3.746   1.828
11632TIP3   OH234852   5.834   1.479   6.564
11632TIP3    H134853   5.923   1.506   6.540
11632TIP3    H234854   5.808   1.540   6.634
11633TIP3   OH234855   6.552   7.607   1.131
11633TIP3    H134856   6.611   7.664   1.181
11633TIP3    H234857   6.540   7.652   1.047
11634TIP3   OH234858   0.129   3.792   0.418
11634TIP3    H134859   0.054   3.748   0.377
11634TIP3    H234860   0.119   3.772   0.512
11635TIP3   OH234861   0.987   7.215   5.057
11635TIP3    H134862   1.035   7.134   5.075
11635TIP3    H234863   0.912   7.212   5.116
11636TIP3   OH234864   3.760   0.998   1.945
11636TIP3    H134865   3.703   0.924   1.925
11636TIP3    H234866   3.703   1.060   1.990
11637TIP3   OH234867   2.751   1.903   1.532
11637TIP3    H134868   2.710   1.832   1.484
11637TIP3    H234869   2.695   1.979   1.517
11638TIP3   OH234870   3.061   1.549   4.382
11638TIP3    H134871   3.041   1.628   4.433
11638TIP3    H234872   3.094   1.487   4.447
11639TIP3   OH234873   3.996   7.079   0.479
11639TIP3    H134874   4.062   7.149   0.482
11639TIP3    H234875   3.963   7.074   0.568
11640TIP3   OH234876   4.161   5.773   1.870
11640TIP3    H134877   4.256   5.768   1.864
11640TIP3    H234878   4.130   5.696   1.823
11641TIP3   OH234879   6.393   3.274   6.231
11641TIP3    H134880   6.374   3.181   6.216
11641TIP3    H234881   6.452   3.273   6.307
11642TIP3   OH234882   6.938   6.931   4.438
11642TIP3    H134883   6.986   7.001   4.393
11642TIP3    H234884   6.916   6.968   4.523
11643TIP3   OH234885   6.705   2.836   3.506
11643TIP3    H134886   6.745   2.922   3.496
11643TIP3    H234887   6.778   2.777   3.527
11644TIP3   OH234888   0.047   1.880   5.158
11644TIP3    H134889   0.127   1.838   5.190
11644TIP3    H234890  -0.020   1.812   5.163
11645TIP3   OH234891   5.166   7.397   0.974
11645TIP3    H134892   5.253   7.387   0.936
11645TIP3    H234893   5.182   7.426   1.063
11646TIP3   OH234894   1.536   7.826   6.385
11646TIP3    H134895   1.513   7.872   6.465
11646TIP3    H234896   1.474   7.753   6.380
11647TIP3   OH234897   5.998   5.137   4.426
11647TIP3    H134898   6.060   5.066   4.409
11647TIP3    H234899   5.974   5.169   4.339
11648TIP3   OH234900   6.604   2.989   2.958
11648TIP3    H134901   6.649   2.912   2.992
11648TIP3    H234902   6.673   3.055   2.949
11649TIP3   OH234903   0.966   3.486   5.308
11649TIP3    H134904   1.045   3.467   5.358
11649TIP3    H234905   0.914   3.405   5.313
11650TIP3   OH234906   8.200   2.414   6.550
11650TIP3    H134907   8.175   2.407   6.458
11650TIP3    H234908   8.141   2.480   6.587
11651TIP3   OH234909   0.848   2.177   6.141
11651TIP3    H134910   0.880   2.132   6.063
11651TIP3    H234911   0.834   2.268   6.114
11652TIP3   OH234912   4.554   7.578   0.450
11652TIP3    H134913   4.470   7.557   0.490
11652TIP3    H234914   4.618   7.528   0.500
11653TIP3   OH234915   5.058   5.561   1.793
11653TIP3    H134916   5.003   5.516   1.858
11653TIP3    H234917   5.045   5.654   1.811
11654TIP3   OH234918   5.079   2.714  -0.014
11654TIP3    H134919   5.095   2.704   0.080
11654TIP3    H234920   4.983   2.716  -0.021
11655TIP3   OH234921   6.998   4.150   4.472
11655TIP3    H134922   7.011   4.226   4.415
11655TIP3    H234923   7.063   4.161   4.541
11656TIP3   OH234924   5.367   1.271   4.564
11656TIP3    H134925   5.456   1.303   4.579
11656TIP3    H234926   5.318   1.300   4.642
11657TIP3   OH234927   5.039   2.793   2.696
11657TIP3    H134928   5.088   2.864   2.738
11657TIP3    H234929   4.976   2.838   2.639
11658TIP3   OH234930   4.714   7.147   4.401
11658TIP3    H134931   4.684   7.173   4.314
11658TIP3    H234932   4.644   7.092   4.435
11659TIP3   OH234933   0.984   5.433   1.219
11659TIP3    H134934   1.075   5.456   1.201
11659TIP3    H234935   0.987   5.381   1.300
11660TIP3   OH234936   3.828   7.844   0.001
11660TIP3    H134937   3.759   7.778  -0.008
11660TIP3    H234938   3.900   7.798   0.044
11661TIP3   OH234939   5.790   3.446   0.922
11661TIP3    H134940   5.806   3.427   0.829
11661TIP3    H234941   5.775   3.361   0.963
11662TIP3   OH234942   0.317   0.217   6.638
11662TIP3    H134943   0.239   0.162   6.631
11662TIP3    H234944   0.386   0.156   6.664
11663TIP3   OH234945   5.969   7.426   4.501
11663TIP3    H134946   5.975   7.507   4.552
11663TIP3    H234947   5.883   7.429   4.461
11664TIP3   OH234948   2.729   6.818   5.134
11664TIP3    H134949   2.767   6.818   5.221
11664TIP3    H234950   2.780   6.753   5.085
11665TIP3   OH234951   0.504   7.255   1.157
11665TIP3    H134952   0.556   7.328   1.190
11665TIP3    H234953   0.419   7.293   1.135
11666TIP3   OH234954   5.732   5.696   5.838
11666TIP3    H134955   5.715   5.654   5.922
11666TIP3    H234956   5.649   5.740   5.816
11667TIP3   OH234957   4.621   2.255   3.498
11667TIP3    H134958   4.526   2.259   3.494
11667TIP3    H234959   4.641   2.168   3.532
11668TIP3   OH234960   8.223   5.609   0.569
11668TIP3    H134961   8.160   5.544   0.599
11668TIP3    H234962   8.235   5.588   0.476
11669TIP3   OH234963   1.283   0.600   3.248
11669TIP3    H134964   1.202   0.623   3.200
11669TIP3    H234965   1.255   0.592   3.339
11670TIP3   OH234966   5.311   1.007   3.810
11670TIP3    H134967   5.318   1.091   3.764
11670TIP3    H234968   5.401   0.975   3.814
11671TIP3   OH234969   6.587   5.806   0.127
11671TIP3    H134970   6.535   5.748   0.181
11671TIP3    H234971   6.663   5.828   0.181
11672TIP3   OH234972   4.519   1.524   3.183
11672TIP3    H134973   4.574   1.462   3.232
11672TIP3    H234974   4.451   1.470   3.143
11673TIP3   OH234975   5.191   7.294   4.766
11673TIP3    H134976   5.210   7.283   4.673
11673TIP3    H234977   5.114   7.349   4.769
11674TIP3   OH234978   3.516   2.257   6.810
11674TIP3    H134979   3.608   2.283   6.805
11674TIP3    H234980   3.503   2.202   6.733
11675TIP3   OH234981   0.590   4.798   2.099
11675TIP3    H134982   0.554   4.778   2.186
11675TIP3    H234983   0.522   4.850   2.056
11676TIP3   OH234984   3.881   3.568   6.401
11676TIP3    H134985   3.874   3.603   6.313
11676TIP3    H234986   3.816   3.617   6.452
11677TIP3   OH234987   1.009   1.339   1.738
11677TIP3    H134988   0.955   1.390   1.798
11677TIP3    H234989   0.955   1.331   1.659
11678TIP3   OH234990   1.928   2.850   3.801
11678TIP3    H134991   1.898   2.934   3.765
11678TIP3    H234992   1.971   2.807   3.727
11679TIP3   OH234993   8.190   4.242   4.945
11679TIP3    H134994   8.221   4.293   4.871
11679TIP3    H234995   8.256   4.256   5.013
11680TIP3   OH234996   7.291   4.014   6.457
11680TIP3    H134997   7.249   4.083   6.508
11680TIP3    H234998   7.348   4.060   6.396
11681TIP3   OH234999   1.922   4.807   4.692
11681TIP3    H135000   1.951   4.829   4.604
11681TIP3    H235001   1.923   4.890   4.740
11682TIP3   OH235002   7.581   3.874   2.338
11682TIP3    H135003   7.654   3.891   2.279
11682TIP3    H235004   7.509   3.928   2.304
11683TIP3   OH235005   3.158   6.434   1.887
11683TIP3    H135006   3.095   6.462   1.953
11683TIP3    H235007   3.243   6.438   1.931
11684TIP3   OH235008   7.726   5.573   2.113
11684TIP3    H135009   7.648   5.617   2.080
11684TIP3    H235010   7.698   5.484   2.132
11685TIP3   OH235011   4.825   7.587   6.575
11685TIP3    H135012   4.747   7.585   6.630
11685TIP3    H235013   4.821   7.672   6.531
11686TIP3   OH235014   0.684   2.294   3.217
11686TIP3    H135015   0.754   2.288   3.151
11686TIP3    H235016   0.625   2.361   3.182
11687TIP3   OH235017   4.008   2.432   6.687
11687TIP3    H135018   4.053   2.374   6.749
11687TIP3    H235019   4.079   2.479   6.643
11688TIP3   OH235020   0.436   1.653   2.395
11688TIP3    H135021   0.425   1.724   2.332
11688TIP3    H235022   0.526   1.662   2.425
11689TIP3   OH235023   1.269   3.445   6.694
11689TIP3    H135024   1.309   3.366   6.658
11689TIP3    H235025   1.188   3.455   6.644
11690TIP3   OH235026   3.323   7.743   5.798
11690TIP3    H135027   3.228   7.751   5.787
11690TIP3    H235028   3.355   7.723   5.710
11691TIP3   OH235029   5.898   6.333   3.434
11691TIP3    H135030   5.987   6.300   3.445
11691TIP3    H235031   5.855   6.268   3.379
11692TIP3   OH235032   7.115   5.876   4.110
11692TIP3    H135033   7.085   5.793   4.072
11692TIP3    H235034   7.204   5.856   4.142
11693TIP3   OH235035   0.256   2.720   0.363
11693TIP3    H135036   0.211   2.639   0.339
11693TIP3    H235037   0.344   2.711   0.326
11694TIP3   OH235038   0.100   0.083   0.472
11694TIP3    H135039   0.065   0.051   0.556
11694TIP3    H235040   0.192   0.056   0.473
11695TIP3   OH235041   8.062   6.199   1.121
11695TIP3    H135042   8.079   6.224   1.212
11695TIP3    H235043   7.966   6.190   1.117
11696TIP3   OH235044   1.098   4.041   0.663
11696TIP3    H135045   1.188   4.042   0.630
11696TIP3    H235046   1.065   3.954   0.641
11697TIP3   OH235047   2.927   0.435   6.620
11697TIP3    H135048   2.995   0.468   6.680
11697TIP3    H235049   2.945   0.479   6.537
11698TIP3   OH235050   3.966   2.054   2.870
11698TIP3    H135051   3.911   2.106   2.929
11698TIP3    H235052   3.936   2.079   2.782
11699TIP3   OH235053   7.564   7.689   5.368
11699TIP3    H135054   7.639   7.665   5.313
11699TIP3    H235055   7.518   7.757   5.318
11700TIP3   OH235056   5.919   2.419   2.595
11700TIP3    H135057   5.831   2.447   2.567
11700TIP3    H235058   5.904   2.370   2.676
11701TIP3   OH235059   6.808   1.225   5.205
11701TIP3    H135060   6.841   1.313   5.188
11701TIP3    H235061   6.868   1.168   5.156
11702TIP3   OH235062   6.941   2.917   2.913
11702TIP3    H135063   7.030   2.892   2.889
11702TIP3    H235064   6.945   3.012   2.926
11703TIP3   OH235065   1.139   0.808   1.837
11703TIP3    H135066   1.182   0.798   1.752
11703TIP3    H235067   1.188   0.750   1.895
11704TIP3   OH235068   3.373   2.598   0.525
11704TIP3    H135069   3.394   2.689   0.501
11704TIP3    H235070   3.297   2.606   0.582
11705TIP3   OH235071   1.568   4.384   5.026
11705TIP3    H135072   1.602   4.356   4.941
11705TIP3    H235073   1.474   4.395   5.011
11706TIP3   OH235074   2.851   4.990   5.350
11706TIP3    H135075   2.859   4.897   5.328
11706TIP3    H235076   2.845   5.034   5.265
11707TIP3   OH235077   6.279   4.804   2.200
11707TIP3    H135078   6.341   4.800   2.273
11707TIP3    H235079   6.222   4.728   2.213
11708TIP3   OH235080   0.655   6.995   5.847
11708TIP3    H135081   0.710   6.922   5.819
11708TIP3    H235082   0.613   6.965   5.927
11709TIP3   OH235083   3.693   7.514   5.994
11709TIP3    H135084   3.748   7.442   6.027
11709TIP3    H235085   3.747   7.556   5.927
11710TIP3   OH235086   3.682   4.941   0.060
11710TIP3    H135087   3.672   4.846   0.060
11710TIP3    H235088   3.594   4.975   0.072
11711TIP3   OH235089   1.429   0.541   0.031
11711TIP3    H135090   1.349   0.525  -0.019
11711TIP3    H235091   1.441   0.462   0.084
11712TIP3   OH235092   1.902   6.574   5.076
11712TIP3    H135093   1.875   6.562   4.985
11712TIP3    H235094   1.933   6.488   5.104
11713TIP3   OH235095   3.386   5.717   6.219
11713TIP3    H135096   3.319   5.786   6.226
11713TIP3    H235097   3.468   5.765   6.208
11714TIP3   OH235098   4.734   2.723   4.773
11714TIP3    H135099   4.782   2.640   4.769
11714TIP3    H235100   4.641   2.698   4.768
11715TIP3   OH235101   0.704   0.583   4.278
11715TIP3    H135102   0.774   0.649   4.286
11715TIP3    H235103   0.750   0.500   4.277
11716TIP3   OH235104   2.047   0.835   1.852
11716TIP3    H135105   2.030   0.901   1.919
11716TIP3    H235106   2.030   0.752   1.896
11717TIP3   OH235107   6.683   4.455   0.488
11717TIP3    H135108   6.597   4.420   0.466
11717TIP3    H235109   6.727   4.466   0.404
11718TIP3   OH235110   8.171   6.124   2.374
11718TIP3    H135111   8.208   6.169   2.299
11718TIP3    H235112   8.229   6.050   2.389
11719TIP3   OH235113   6.770   7.552   5.174
11719TIP3    H135114   6.840   7.490   5.153
11719TIP3    H235115   6.765   7.610   5.098
11720TIP3   OH235116   1.025   1.352   4.407
11720TIP3    H135117   1.034   1.378   4.499
11720TIP3    H235118   1.108   1.309   4.385
11721TIP3   OH235119   6.728   6.858   4.176
11721TIP3    H135120   6.787   6.923   4.216
11721TIP3    H235121   6.661   6.843   4.242
11722TIP3   OH235122   6.210   7.387   6.168
11722TIP3    H135123   6.220   7.318   6.102
11722TIP3    H235124   6.256   7.462   6.131
11723TIP3   OH235125   3.700   0.424   4.571
11723TIP3    H135126   3.687   0.457   4.660
11723TIP3    H235127   3.754   0.491   4.528
11724TIP3   OH235128   7.363   4.048   2.263
11724TIP3    H135129   7.278   4.032   2.302
11724TIP3    H235130   7.344   4.099   2.184
11725TIP3   OH235131   3.709   5.794   5.349
11725TIP3    H135132   3.636   5.734   5.335
11725TIP3    H235133   3.784   5.751   5.306
11726TIP3   OH235134   8.201   4.632   6.203
11726TIP3    H135135   8.248   4.643   6.120
11726TIP3    H235136   8.132   4.699   6.201
11727TIP3   OH235137   2.618   6.184   2.556
11727TIP3    H135138   2.691   6.236   2.522
11727TIP3    H235139   2.659   6.119   2.613
11728TIP3   OH235140   0.817   3.189   4.541
11728TIP3    H135141   0.843   3.259   4.480
11728TIP3    H235142   0.756   3.232   4.601
11729TIP3   OH235143   8.240   4.275   1.567
11729TIP3    H135144   8.245   4.334   1.491
11729TIP3    H235145   8.197   4.196   1.533
11730TIP3   OH235146   0.764   7.569   5.257
11730TIP3    H135147   0.803   7.644   5.303
11730TIP3    H235148   0.718   7.609   5.182
11731TIP3   OH235149   6.195   5.176   5.221
11731TIP3    H135150   6.220   5.157   5.131
11731TIP3    H235151   6.252   5.248   5.247
11732TIP3   OH235152   6.124   4.402   3.963
11732TIP3    H135153   6.061   4.432   3.898
11732TIP3    H235154   6.102   4.309   3.976
11733TIP3   OH235155   7.262   2.727   2.213
11733TIP3    H135156   7.169   2.749   2.212
11733TIP3    H235157   7.286   2.730   2.305
11734TIP3   OH235158   3.497   7.189   4.941
11734TIP3    H135159   3.556   7.141   4.884
11734TIP3    H235160   3.448   7.246   4.882
11735TIP3   OH235161   2.394   5.342   6.634
11735TIP3    H135162   2.449   5.305   6.564
11735TIP3    H235163   2.321   5.281   6.642
11736TIP3   OH235164   2.029   4.783   3.935
11736TIP3    H135165   2.121   4.768   3.912
11736TIP3    H235166   1.985   4.701   3.910
11737TIP3   OH235167   3.980   6.998   0.109
11737TIP3    H135168   3.976   6.948   0.190
11737TIP3    H235169   3.929   6.947   0.047
11738TIP3   OH235170   0.433   6.922   2.697
11738TIP3    H135171   0.465   6.860   2.632
11738TIP3    H235172   0.400   6.868   2.769
11739TIP3   OH235173   2.202   4.164   6.368
11739TIP3    H135174   2.198   4.174   6.272
11739TIP3    H235175   2.156   4.241   6.402
11740TIP3   OH235176   4.400   7.421   0.617
11740TIP3    H135177   4.351   7.343   0.591
11740TIP3    H235178   4.412   7.411   0.712
11741TIP3   OH235179   1.129   6.316   6.334
11741TIP3    H135180   1.101   6.403   6.305
11741TIP3    H235181   1.158   6.273   6.254
11742TIP3   OH235182   3.727   5.521   6.582
11742TIP3    H135183   3.640   5.538   6.544
11742TIP3    H235184   3.789   5.552   6.516
11743TIP3   OH235185   5.574   3.236   0.745
11743TIP3    H135186   5.514   3.243   0.820
11743TIP3    H235187   5.547   3.157   0.699
11744TIP3   OH235188   5.951   6.919   1.591
11744TIP3    H135189   5.868   6.880   1.617
11744TIP3    H235190   5.930   6.979   1.520
11745TIP3   OH235191   1.201   6.057   1.869
11745TIP3    H135192   1.152   5.982   1.901
11745TIP3    H235193   1.144   6.132   1.888
11746TIP3   OH235194   2.100   6.693   1.461
11746TIP3    H135195   2.093   6.649   1.546
11746TIP3    H235196   2.185   6.667   1.427
11747TIP3   OH235197   8.011   7.792   6.555
11747TIP3    H135198   8.002   7.703   6.522
11747TIP3    H235199   7.977   7.847   6.485
11748TIP3   OH235200   6.100   0.260   6.471
11748TIP3    H135201   6.162   0.206   6.423
11748TIP3    H235202   6.126   0.252   6.563
11749TIP3   OH235203   3.598   4.027   6.315
11749TIP3    H135204   3.625   4.115   6.287
11749TIP3    H235205   3.660   3.968   6.272
11750TIP3   OH235206   2.468   3.880   1.082
11750TIP3    H135207   2.403   3.869   1.012
11750TIP3    H235208   2.532   3.810   1.067
11751TIP3   OH235209   5.888   5.208   1.585
11751TIP3    H135210   5.900   5.206   1.680
11751TIP3    H235211   5.830   5.282   1.570
11752TIP3   OH235212   5.297   0.848   0.527
11752TIP3    H135213   5.326   0.939   0.517
11752TIP3    H235214   5.347   0.800   0.461
11753TIP3   OH235215   1.158   5.871   4.089
11753TIP3    H135216   1.189   5.960   4.072
11753TIP3    H235217   1.173   5.825   4.007
11754TIP3   OH235218   4.301   7.683   6.686
11754TIP3    H135219   4.243   7.657   6.757
11754TIP3    H235220   4.244   7.691   6.610
11755TIP3   OH235221   3.387   7.152   5.488
11755TIP3    H135222   3.367   7.080   5.549
11755TIP3    H235223   3.316   7.149   5.424
11756TIP3   OH235224   3.633   2.462   0.253
11756TIP3    H135225   3.625   2.448   0.347
11756TIP3    H235226   3.552   2.508   0.229
11757TIP3   OH235227   2.125   1.159   2.990
11757TIP3    H135228   2.124   1.083   3.047
11757TIP3    H235229   2.073   1.133   2.914
11758TIP3   OH235230   0.578   1.335   4.741
11758TIP3    H135231   0.530   1.368   4.666
11758TIP3    H235232   0.642   1.403   4.760
11759TIP3   OH235233   2.552   5.985   1.327
11759TIP3    H135234   2.527   5.917   1.390
11759TIP3    H235235   2.647   5.978   1.321
11760TIP3   OH235236   7.536   3.907   1.578
11760TIP3    H135237   7.581   3.991   1.587
11760TIP3    H235238   7.460   3.915   1.637
11761TIP3   OH235239   4.534   0.746   2.203
11761TIP3    H135240   4.509   0.783   2.118
11761TIP3    H235241   4.511   0.813   2.267
11762TIP3   OH235242   4.295   5.979   4.731
11762TIP3    H135243   4.278   5.975   4.637
11762TIP3    H235244   4.384   5.946   4.742
11763TIP3   OH235245   0.869   2.512   1.252
11763TIP3    H135246   0.817   2.558   1.188
11763TIP3    H235247   0.821   2.522   1.334
11764TIP3   OH235248   7.465   3.658   3.211
11764TIP3    H135249   7.509   3.721   3.154
11764TIP3    H235250   7.528   3.642   3.282
11765TIP3   OH235251   3.340   3.473   1.707
11765TIP3    H135252   3.396   3.397   1.694
11765TIP3    H235253   3.253   3.437   1.721
11766TIP3   OH235254   3.912   2.531   0.224
11766TIP3    H135255   3.863   2.613   0.224
11766TIP3    H235256   3.846   2.463   0.242
11767TIP3   OH235257   1.864   4.765   1.705
11767TIP3    H135258   1.878   4.735   1.795
11767TIP3    H235259   1.922   4.710   1.652
11768TIP3   OH235260   7.812   1.632   1.994
11768TIP3    H135261   7.852   1.719   1.997
11768TIP3    H235262   7.850   1.591   1.917
11769TIP3   OH235263   7.121   6.298   5.050
11769TIP3    H135264   7.143   6.215   5.008
11769TIP3    H235265   7.059   6.275   5.119
11770TIP3   OH235266   0.066   5.864   0.918
11770TIP3    H135267  -0.006   5.926   0.905
11770TIP3    H235268   0.091   5.838   0.829
11771TIP3   OH235269   4.869   4.630   5.487
11771TIP3    H135270   4.831   4.709   5.448
11771TIP3    H235271   4.923   4.592   5.417
11772TIP3   OH235272   5.446   0.203   1.638
11772TIP3    H135273   5.375   0.247   1.592
11772TIP3    H235274   5.500   0.274   1.673
11773TIP3   OH235275   5.555   4.093   3.592
11773TIP3    H135276   5.500   4.163   3.626
11773TIP3    H235277   5.506   4.013   3.610
11774TIP3   OH235278   5.996   2.144   3.171
11774TIP3    H135279   5.931   2.206   3.204
11774TIP3    H235280   6.069   2.199   3.142
11775TIP3   OH235281   6.817   0.215   3.759
11775TIP3    H135282   6.752   0.285   3.746
11775TIP3    H235283   6.779   0.160   3.827
11776TIP3   OH235284   7.558   3.114   0.355
11776TIP3    H135285   7.488   3.070   0.307
11776TIP3    H235286   7.541   3.093   0.447
11777TIP3   OH235287   5.959   1.045   1.588
11777TIP3    H135288   5.934   1.136   1.570
11777TIP3    H235289   6.041   1.032   1.540
11778TIP3   OH235290   4.016   7.736   3.120
11778TIP3    H135291   4.061   7.803   3.070
11778TIP3    H235292   3.923   7.755   3.107
11779TIP3   OH235293   2.755   3.237   4.591
11779TIP3    H135294   2.808   3.200   4.662
11779TIP3    H235295   2.743   3.328   4.616
11780TIP3   OH235296   5.192   7.107   2.248
11780TIP3    H135297   5.166   7.049   2.177
11780TIP3    H235298   5.286   7.121   2.234
11781TIP3   OH235299   7.329   7.396   0.926
11781TIP3    H135300   7.261   7.441   0.877
11781TIP3    H235301   7.383   7.354   0.859
11782TIP3   OH235302   1.670   2.333   0.694
11782TIP3    H135303   1.582   2.295   0.696
11782TIP3    H235304   1.723   2.268   0.646
11783TIP3   OH235305   1.402   7.263   2.414
11783TIP3    H135306   1.479   7.225   2.457
11783TIP3    H235307   1.424   7.356   2.404
11784TIP3   OH235308   2.534   7.822   0.840
11784TIP3    H135309   2.606   7.767   0.809
11784TIP3    H235310   2.485   7.766   0.901
11785TIP3   OH235311   6.834   7.426   0.843
11785TIP3    H135312   6.754   7.472   0.817
11785TIP3    H235313   6.813   7.390   0.930
11786TIP3   OH235314   1.714   1.983   2.057
11786TIP3    H135315   1.717   1.922   1.983
11786TIP3    H235316   1.729   1.927   2.134
11787TIP3   OH235317   2.344   6.772   3.963
11787TIP3    H135318   2.326   6.799   3.873
11787TIP3    H235319   2.283   6.701   3.979
11788TIP3   OH235320   4.382   1.728   1.239
11788TIP3    H135321   4.430   1.646   1.246
11788TIP3    H235322   4.394   1.757   1.149
11789TIP3   OH235323   4.722   3.389   4.043
11789TIP3    H135324   4.786   3.319   4.057
11789TIP3    H235325   4.720   3.437   4.125
11790TIP3   OH235326   3.955   6.474   1.415
11790TIP3    H135327   3.917   6.404   1.468
11790TIP3    H235328   3.903   6.475   1.335
11791TIP3   OH235329   8.325   6.303   0.054
11791TIP3    H135330   8.241   6.264   0.029
11791TIP3    H235331   8.331   6.383   0.002
11792TIP3   OH235332   3.620   2.542   2.689
11792TIP3    H135333   3.553   2.577   2.747
11792TIP3    H235334   3.701   2.549   2.738
11793TIP3   OH235335   6.637   2.107   1.192
11793TIP3    H135336   6.560   2.130   1.245
11793TIP3    H235337   6.683   2.189   1.181
11794TIP3   OH235338   3.944   1.687   0.827
11794TIP3    H135339   3.875   1.636   0.870
11794TIP3    H235340   3.964   1.637   0.748
11795TIP3   OH235341   7.078   6.425   6.036
11795TIP3    H135342   6.986   6.435   6.061
11795TIP3    H235343   7.075   6.413   5.941
11796TIP3   OH235344   5.929   5.235   0.455
11796TIP3    H135345   5.944   5.163   0.516
11796TIP3    H235346   5.836   5.253   0.461
11797TIP3   OH235347   2.929   0.978   3.229
11797TIP3    H135348   2.959   1.068   3.225
11797TIP3    H235349   2.917   0.960   3.322
11798TIP3   OH235350   1.314   4.733   2.587
11798TIP3    H135351   1.335   4.646   2.622
11798TIP3    H235352   1.333   4.727   2.494
11799TIP3   OH235353   6.695   0.874   4.524
11799TIP3    H135354   6.717   0.954   4.573
11799TIP3    H235355   6.606   0.889   4.493
11800TIP3   OH235356   4.649   5.862   6.046
11800TIP3    H135357   4.675   5.878   6.137
11800TIP3    H235358   4.578   5.924   6.029
11801TIP3   OH235359   0.168   3.479   0.713
11801TIP3    H135360   0.120   3.422   0.653
11801TIP3    H235361   0.182   3.425   0.791
11802TIP3   OH235362   7.948   7.460   4.085
11802TIP3    H135363   7.869   7.476   4.033
11802TIP3    H235364   7.948   7.366   4.100
11803TIP3   OH235365   5.906   2.131   5.991
11803TIP3    H135366   5.975   2.069   5.967
11803TIP3    H235367   5.828   2.076   6.002
11804TIP3   OH235368   7.159   2.567   6.795
11804TIP3    H135369   7.098   2.535   6.729
11804TIP3    H235370   7.224   2.497   6.804
11805TIP3   OH235371   7.074   4.023   0.461
11805TIP3    H135372   7.084   3.934   0.426
11805TIP3    H235373   6.995   4.056   0.419
11806TIP3   OH235374   0.102   1.900   1.994
11806TIP3    H135375   0.149   1.824   1.961
11806TIP3    H235376   0.145   1.975   1.954
11807TIP3   OH235377   6.942   1.625   2.141
11807TIP3    H135378   6.976   1.645   2.228
11807TIP3    H235379   6.889   1.701   2.117
11808TIP3   OH235380   1.011   0.644   4.264
11808TIP3    H135381   0.970   0.729   4.280
11808TIP3    H235382   1.012   0.637   4.168
11809TIP3   OH235383   1.095   1.775   0.443
11809TIP3    H135384   1.046   1.792   0.524
11809TIP3    H235385   1.186   1.771   0.470
11810TIP3   OH235386   6.318   4.739   1.660
11810TIP3    H135387   6.348   4.800   1.593
11810TIP3    H235388   6.358   4.770   1.741
11811TIP3   OH235389   5.122   5.132   6.619
11811TIP3    H135390   5.103   5.054   6.567
11811TIP3    H235391   5.092   5.109   6.707
11812TIP3   OH235392   2.927   3.846   0.428
11812TIP3    H135393   2.878   3.816   0.504
11812TIP3    H235394   2.860   3.865   0.362
11813TIP3   OH235395   5.048   7.486   3.026
11813TIP3    H135396   5.003   7.569   3.008
11813TIP3    H235397   4.978   7.423   3.040
11814TIP3   OH235398   7.234   0.276   4.098
11814TIP3    H135399   7.276   0.210   4.153
11814TIP3    H235400   7.218   0.232   4.014
11815TIP3   OH235401   8.039   3.926   2.629
11815TIP3    H135402   8.028   3.833   2.609
11815TIP3    H235403   8.015   3.972   2.549
11816TIP3   OH235404   5.091   1.039   1.382
11816TIP3    H135405   5.104   0.944   1.384
11816TIP3    H235406   4.996   1.049   1.380
11817TIP3   OH235407   4.026   0.493   3.630
11817TIP3    H135408   3.959   0.524   3.691
11817TIP3    H235409   4.082   0.569   3.615
11818TIP3   OH235410   6.680   5.458   5.545
11818TIP3    H135411   6.631   5.538   5.567
11818TIP3    H235412   6.769   5.489   5.528
11819TIP3   OH235413   6.727  -0.024   4.845
11819TIP3    H135414   6.699   0.046   4.787
11819TIP3    H235415   6.773   0.020   4.916
11820TIP3   OH235416   2.685   0.815   1.545
11820TIP3    H135417   2.680   0.727   1.583
11820TIP3    H235418   2.616   0.864   1.590
11821TIP3   OH235419   6.780   0.385   2.947
11821TIP3    H135420   6.838   0.430   3.009
11821TIP3    H235421   6.797   0.429   2.863
11822TIP3   OH235422   5.886   5.836   2.571
11822TIP3    H135423   5.795   5.809   2.562
11822TIP3    H235424   5.917   5.847   2.481
11823TIP3   OH235425   0.707   6.341   0.130
11823TIP3    H135426   0.654   6.413   0.164
11823TIP3    H235427   0.670   6.321   0.044
11824TIP3   OH235428   2.168   2.297   4.269
11824TIP3    H135429   2.236   2.239   4.305
11824TIP3    H235430   2.192   2.384   4.301
11825TIP3   OH235431   5.749   6.977   2.619
11825TIP3    H135432   5.710   7.043   2.561
11825TIP3    H235433   5.739   6.895   2.571
11826TIP3   OH235434   7.170   3.011   0.901
11826TIP3    H135435   7.189   3.101   0.929
11826TIP3    H235436   7.185   3.012   0.807
11827TIP3   OH235437   4.779   6.384   1.431
11827TIP3    H135438   4.793   6.390   1.525
11827TIP3    H235439   4.737   6.299   1.418
11828TIP3   OH235440   7.877   0.580   3.794
11828TIP3    H135441   7.845   0.666   3.767
11828TIP3    H235442   7.851   0.573   3.886
11829TIP3   OH235443   6.492   2.385   1.324
11829TIP3    H135444   6.458   2.398   1.412
11829TIP3    H235445   6.585   2.362   1.337
11830TIP3   OH235446   7.643   6.914   6.217
11830TIP3    H135447   7.607   6.851   6.155
11830TIP3    H235448   7.578   6.985   6.220
11831TIP3   OH235449   5.046   2.542   0.951
11831TIP3    H135450   5.123   2.517   0.900
11831TIP3    H235451   5.000   2.460   0.967
11832TIP3   OH235452   4.830   3.260   4.785
11832TIP3    H135453   4.898   3.195   4.804
11832TIP3    H235454   4.762   3.211   4.740
11833TIP3   OH235455   8.252   5.219   5.907
11833TIP3    H135456   8.184   5.225   5.974
11833TIP3    H235457   8.205   5.233   5.825
11834TIP3   OH235458   7.685   0.402   5.510
11834TIP3    H135459   7.736   0.414   5.430
11834TIP3    H235460   7.742   0.433   5.580
11835TIP3   OH235461   6.174   7.192   2.966
11835TIP3    H135462   6.152   7.208   3.058
11835TIP3    H235463   6.270   7.200   2.962
11836TIP3   OH235464   8.122   0.541   0.238
11836TIP3    H135465   8.131   0.503   0.326
11836TIP3    H235466   8.159   0.629   0.246
11837TIP3   OH235467   5.291   3.355   2.185
11837TIP3    H135468   5.248   3.353   2.099
11837TIP3    H235469   5.261   3.275   2.228
11838TIP3   OH235470   7.085   4.104   1.835
11838TIP3    H135471   7.011   4.162   1.820
11838TIP3    H235472   7.060   4.022   1.793
11839TIP3   OH235473   7.004   2.157   1.817
11839TIP3    H135474   7.070   2.088   1.831
11839TIP3    H235475   7.025   2.193   1.731
11840TIP3   OH235476   4.724   3.825   6.460
11840TIP3    H135477   4.664   3.877   6.514
11840TIP3    H235478   4.667   3.763   6.415
11841TIP3   OH235479   3.374   5.334   3.188
11841TIP3    H135480   3.357   5.242   3.167
11841TIP3    H235481   3.395   5.375   3.104
11842TIP3   OH235482   5.233   5.313   6.449
11842TIP3    H135483   5.328   5.296   6.449
11842TIP3    H235484   5.196   5.241   6.501
11843TIP3   OH235485   0.864   6.253   5.581
11843TIP3    H135486   0.783   6.229   5.625
11843TIP3    H235487   0.842   6.333   5.532
11844TIP3   OH235488   2.825   4.074   1.421
11844TIP3    H135489   2.917   4.057   1.441
11844TIP3    H235490   2.810   4.164   1.450
11845TIP3   OH235491   2.986   2.479   4.291
11845TIP3    H135492   2.939   2.401   4.260
11845TIP3    H235493   2.955   2.550   4.236
11846TIP3   OH235494   1.024   7.116   6.288
11846TIP3    H135495   1.103   7.161   6.258
11846TIP3    H235496   1.010   7.148   6.377
11847TIP3   OH235497   1.199   4.245   3.466
11847TIP3    H135498   1.269   4.181   3.480
11847TIP3    H235499   1.224   4.320   3.520
11848TIP3   OH235500   4.567   1.176   0.482
11848TIP3    H135501   4.599   1.143   0.399
11848TIP3    H235502   4.613   1.258   0.495
11849TIP3   OH235503   7.117   3.781   4.840
11849TIP3    H135504   7.082   3.870   4.831
11849TIP3    H235505   7.203   3.786   4.798
11850TIP3   OH235506   4.727   0.637   5.624
11850TIP3    H135507   4.752   0.552   5.589
11850TIP3    H235508   4.632   0.633   5.633
11851TIP3   OH235509   5.409   5.079   1.310
11851TIP3    H135510   5.344   5.124   1.256
11851TIP3    H235511   5.494   5.110   1.277
11852TIP3   OH235512   3.614   1.063   2.884
11852TIP3    H135513   3.640   1.153   2.902
11852TIP3    H235514   3.694   1.020   2.856
11853TIP3   OH235515   0.577   3.467   2.028
11853TIP3    H135516   0.491   3.473   1.986
11853TIP3    H235517   0.639   3.493   1.961
11854TIP3   OH235518   7.804   3.198   2.352
11854TIP3    H135519   7.858   3.133   2.396
11854TIP3    H235520   7.852   3.220   2.272
11855TIP3   OH235521   2.041   0.793   6.621
11855TIP3    H135522   2.118   0.758   6.576
11855TIP3    H235523   2.008   0.860   6.562
11856TIP3   OH235524   1.511   0.500   5.917
11856TIP3    H135525   1.577   0.431   5.919
11856TIP3    H235526   1.529   0.549   5.838
11857TIP3   OH235527   4.245   2.215   1.261
11857TIP3    H135528   4.302   2.164   1.320
11857TIP3    H235529   4.221   2.292   1.312
11858TIP3   OH235530   2.408   4.523   0.185
11858TIP3    H135531   2.464   4.576   0.241
11858TIP3    H235532   2.372   4.584   0.121
11859TIP3   OH235533   7.050   0.211   6.113
11859TIP3    H135534   7.085   0.125   6.135
11859TIP3    H235535   6.958   0.205   6.138
11860TIP3   OH235536   0.586   7.621   1.902
11860TIP3    H135537   0.657   7.683   1.887
11860TIP3    H235538   0.532   7.663   1.969
11861TIP3   OH235539   2.230   4.213   5.615
11861TIP3    H135540   2.256   4.228   5.524
11861TIP3    H235541   2.312   4.220   5.664
11862TIP3   OH235542   1.278   6.636   2.465
11862TIP3    H135543   1.296   6.618   2.558
11862TIP3    H235544   1.364   6.652   2.427
11863TIP3   OH235545   1.172   0.579   3.493
11863TIP3    H135546   1.084   0.554   3.466
11863TIP3    H235547   1.165   0.593   3.587
11864TIP3   OH235548   1.265   1.184   0.247
11864TIP3    H135549   1.189   1.134   0.217
11864TIP3    H235550   1.337   1.154   0.191
11865TIP3   OH235551   6.615   0.994   3.371
11865TIP3    H135552   6.557   0.985   3.295
11865TIP3    H235553   6.703   0.995   3.334
11866TIP3   OH235554   6.456   7.295   1.389
11866TIP3    H135555   6.419   7.340   1.312
11866TIP3    H235556   6.393   7.313   1.459
11867TIP3   OH235557   3.675   0.566   3.725
11867TIP3    H135558   3.735   0.631   3.761
11867TIP3    H235559   3.640   0.607   3.646
11868TIP3   OH235560  -0.004   4.433   4.775
11868TIP3    H135561   0.002   4.526   4.796
11868TIP3    H235562   0.067   4.416   4.713
11869TIP3   OH235563   7.548   1.241   5.312
11869TIP3    H135564   7.563   1.332   5.335
11869TIP3    H235565   7.616   1.192   5.359
11870TIP3   OH235566   4.454   6.223   0.168
11870TIP3    H135567   4.521   6.216   0.235
11870TIP3    H235568   4.399   6.296   0.196
11871TIP3   OH235569   6.191   5.208   1.827
11871TIP3    H135570   6.222   5.146   1.893
11871TIP3    H235571   6.192   5.159   1.745
11872TIP3   OH235572   5.324   3.790   3.271
11872TIP3    H135573   5.397   3.845   3.244
11872TIP3    H235574   5.359   3.737   3.343
11873TIP3   OH235575   3.949   5.329   0.380
11873TIP3    H135576   4.007   5.334   0.305
11873TIP3    H235577   3.862   5.345   0.344
11874TIP3   OH235578   2.274   4.374   5.184
11874TIP3    H135579   2.346   4.323   5.147
11874TIP3    H235580   2.230   4.413   5.108
11875TIP3   OH235581   1.114   4.680   5.349
11875TIP3    H135582   1.139   4.686   5.256
11875TIP3    H235583   1.177   4.735   5.394
11876TIP3   OH235584   3.165   0.552   5.509
11876TIP3    H135585   3.190   0.514   5.593
11876TIP3    H235586   3.080   0.512   5.488
11877TIP3   OH235587   5.282   4.675   5.702
11877TIP3    H135588   5.216   4.727   5.656
11877TIP3    H235589   5.261   4.584   5.679
11878TIP3   OH235590   6.269   6.263   5.793
11878TIP3    H135591   6.224   6.231   5.715
11878TIP3    H235592   6.200   6.308   5.843
11879TIP3   OH235593   0.217   5.594   2.352
11879TIP3    H135594   0.154   5.666   2.350
11879TIP3    H235595   0.269   5.609   2.431
11880TIP3   OH235596   2.563   2.451   0.739
11880TIP3    H135597   2.528   2.462   0.827
11880TIP3    H235598   2.543   2.534   0.694
11881TIP3   OH235599   8.163   3.053   2.353
11881TIP3    H135600   8.163   2.967   2.310
11881TIP3    H235601   8.073   3.066   2.382
11882TIP3   OH235602   0.769   0.336   1.837
11882TIP3    H135603   0.853   0.297   1.811
11882TIP3    H235604   0.786   0.430   1.842
11883TIP3   OH235605   7.894   5.895   2.693
11883TIP3    H135606   7.909   5.988   2.711
11883TIP3    H235607   7.858   5.893   2.605
11884TIP3   OH235608   1.522   2.794   4.508
11884TIP3    H135609   1.612   2.762   4.500
11884TIP3    H235610   1.531   2.889   4.511
11885TIP3   OH235611   5.830   3.194   4.816
11885TIP3    H135612   5.848   3.230   4.903
11885TIP3    H235613   5.741   3.158   4.824
11886TIP3   OH235614   1.490   7.243   4.078
11886TIP3    H135615   1.485   7.326   4.127
11886TIP3    H235616   1.545   7.187   4.133
11887TIP3   OH235617   4.891   1.304   3.550
11887TIP3    H135618   4.983   1.318   3.528
11887TIP3    H235619   4.880   1.343   3.637
11888TIP3   OH235620   2.756   0.332   3.985
11888TIP3    H135621   2.732   0.329   4.077
11888TIP3    H235622   2.848   0.304   3.983
11889TIP3   OH235623   8.151   1.840   1.888
11889TIP3    H135624   8.240   1.848   1.923
11889TIP3    H235625   8.095   1.831   1.965
11890TIP3   OH235626   7.112   1.751   4.319
11890TIP3    H135627   7.044   1.704   4.271
11890TIP3    H235628   7.193   1.707   4.294
11891TIP3   OH235629   1.853   5.356   5.718
11891TIP3    H135630   1.820   5.285   5.773
11891TIP3    H235631   1.788   5.426   5.728
11892TIP3   OH235632   7.241   1.422   0.597
11892TIP3    H135633   7.215   1.487   0.663
11892TIP3    H235634   7.305   1.367   0.642
11893TIP3   OH235635   3.438   3.350   5.455
11893TIP3    H135636   3.399   3.276   5.502
11893TIP3    H235637   3.530   3.350   5.483
11894TIP3   OH235638   0.120   2.964   4.316
11894TIP3    H135639   0.086   2.890   4.267
11894TIP3    H235640   0.127   2.933   4.406
11895TIP3   OH235641   8.023   5.399   0.554
11895TIP3    H135642   7.992   5.312   0.582
11895TIP3    H235643   8.085   5.381   0.484
11896TIP3   OH235644   0.793   4.777   1.682
11896TIP3    H135645   0.810   4.764   1.589
11896TIP3    H235646   0.869   4.825   1.715
11897TIP3   OH235647   1.209   2.169   2.959
11897TIP3    H135648   1.277   2.135   2.901
11897TIP3    H235649   1.181   2.094   3.011
11898TIP3   OH235650   4.593   2.516   0.244
11898TIP3    H135651   4.594   2.513   0.340
11898TIP3    H235652   4.525   2.453   0.219
11899TIP3   OH235653   0.602   4.526   6.097
11899TIP3    H135654   0.552   4.510   6.177
11899TIP3    H235655   0.663   4.452   6.091
11900TIP3   OH235656   0.629   1.132   0.714
11900TIP3    H135657   0.594   1.092   0.794
11900TIP3    H235658   0.556   1.130   0.653
11901TIP3   OH235659   7.166   6.519   0.340
11901TIP3    H135660   7.120   6.484   0.416
11901TIP3    H235661   7.141   6.612   0.337
11902TIP3   OH235662   5.771   6.372   5.163
11902TIP3    H135663   5.766   6.458   5.204
11902TIP3    H235664   5.797   6.314   5.234
11903TIP3   OH235665   8.329   2.986   3.741
11903TIP3    H135666   8.267   3.040   3.789
11903TIP3    H235667   8.274   2.929   3.686
11904TIP3   OH235668   5.484   3.761   6.232
11904TIP3    H135669   5.392   3.744   6.253
11904TIP3    H235670   5.482   3.836   6.171
11905TIP3   OH235671   5.463   6.793   2.016
11905TIP3    H135672   5.533   6.830   1.961
11905TIP3    H235673   5.482   6.699   2.020
11906TIP3   OH235674   1.827   0.908   6.328
11906TIP3    H135675   1.907   0.960   6.339
11906TIP3    H235676   1.820   0.893   6.234
11907TIP3   OH235677   3.687   4.151   0.638
11907TIP3    H135678   3.657   4.207   0.567
11907TIP3    H235679   3.627   4.168   0.710
11908TIP3   OH235680   6.545   2.445   2.815
11908TIP3    H135681   6.482   2.477   2.880
11908TIP3    H235682   6.630   2.478   2.845
11909TIP3   OH235683   5.581   1.560   0.510
11909TIP3    H135684   5.590   1.477   0.556
11909TIP3    H235685   5.663   1.568   0.461
11910TIP3   OH235686   8.060   2.157   1.993
11910TIP3    H135687   8.001   2.230   2.009
11910TIP3    H235688   8.134   2.196   1.946
11911TIP3   OH235689   6.738   2.275   4.433
11911TIP3    H135690   6.648   2.304   4.414
11911TIP3    H235691   6.732   2.179   4.431
11912TIP3   OH235692   0.049   6.105   5.299
11912TIP3    H135693   0.035   6.163   5.374
11912TIP3    H235694  -0.015   6.035   5.311
11913TIP3   OH235695   6.929   6.809   6.726
11913TIP3    H135696   6.956   6.815   6.818
11913TIP3    H235697   6.850   6.756   6.727
11914TIP3   OH235698   7.413   7.428   0.505
11914TIP3    H135699   7.424   7.478   0.424
11914TIP3    H235700   7.353   7.357   0.480
11915TIP3   OH235701   4.737   6.880   6.540
11915TIP3    H135702   4.814   6.934   6.522
11915TIP3    H235703   4.683   6.887   6.461
11916TIP3   OH235704   7.746   3.276   4.530
11916TIP3    H135705   7.661   3.310   4.502
11916TIP3    H235706   7.792   3.257   4.448
11917TIP3   OH235707   3.423   5.694   6.788
11917TIP3    H135708   3.361   5.626   6.812
11917TIP3    H235709   3.403   5.767   6.846
11918TIP3   OH235710   6.084   4.792   1.087
11918TIP3    H135711   5.992   4.802   1.113
11918TIP3    H235712   6.110   4.708   1.124
11919TIP3   OH235713   4.561   1.001   0.239
11919TIP3    H135714   4.486   0.963   0.285
11919TIP3    H235715   4.537   0.994   0.146
11920TIP3   OH235716   7.632   4.365   3.037
11920TIP3    H135717   7.620   4.313   3.116
11920TIP3    H235718   7.727   4.377   3.031
11921TIP3   OH235719   2.505   0.368   1.186
11921TIP3    H135720   2.529   0.345   1.276
11921TIP3    H235721   2.575   0.331   1.132
11922TIP3   OH235722   3.668   0.324   1.159
11922TIP3    H135723   3.763   0.310   1.154
11922TIP3    H235724   3.659   0.414   1.190
11923TIP3   OH235725   6.169   1.115   4.503
11923TIP3    H135726   6.160   1.055   4.428
11923TIP3    H235727   6.246   1.168   4.483
11924TIP3   OH235728   8.144   0.132   6.746
11924TIP3    H135729   8.169   0.216   6.784
11924TIP3    H235730   8.061   0.149   6.702
11925TIP3   OH235731   3.117   7.557   2.514
11925TIP3    H135732   3.042   7.503   2.538
11925TIP3    H235733   3.103   7.579   2.422
11926TIP3   OH235734   4.700   0.361   2.431
11926TIP3    H135735   4.688   0.456   2.421
11926TIP3    H235736   4.678   0.344   2.523
11927TIP3   OH235737   5.046   5.856   4.401
11927TIP3    H135738   4.978   5.875   4.337
11927TIP3    H235739   5.003   5.863   4.486
11928TIP3   OH235740   2.827   7.200   5.170
11928TIP3    H135741   2.737   7.233   5.159
11928TIP3    H235742   2.881   7.265   5.125
11929TIP3   OH235743   1.990   6.517   6.730
11929TIP3    H135744   2.049   6.519   6.805
11929TIP3    H235745   2.011   6.435   6.684
11930TIP3   OH235746   5.840   5.901   2.267
11930TIP3    H135747   5.787   5.822   2.273
11930TIP3    H235748   5.927   5.870   2.241
11931TIP3   OH235749   6.825   5.640   2.397
11931TIP3    H135750   6.818   5.688   2.314
11931TIP3    H235751   6.794   5.702   2.463
11932TIP3   OH235752   4.708   3.253   5.560
11932TIP3    H135753   4.703   3.291   5.648
11932TIP3    H235754   4.789   3.288   5.524
11933TIP3   OH235755   1.989   4.859   0.045
11933TIP3    H135756   1.899   4.888   0.038
11933TIP3    H235757   2.022   4.860  -0.045
11934TIP3   OH235758   5.483   5.943   3.286
11934TIP3    H135759   5.509   6.006   3.218
11934TIP3    H235760   5.443   5.871   3.238
11935TIP3   OH235761   5.279   0.563   2.918
11935TIP3    H135762   5.247   0.616   2.846
11935TIP3    H235763   5.352   0.513   2.881
11936TIP3   OH235764   5.463   0.717   6.776
11936TIP3    H135765   5.417   0.704   6.693
11936TIP3    H235766   5.535   0.776   6.754
11937TIP3   OH235767   3.555   7.651   2.007
11937TIP3    H135768   3.495   7.577   2.018
11937TIP3    H235769   3.536   7.708   2.082
11938TIP3   OH235770   4.241   1.373   2.404
11938TIP3    H135771   4.230   1.468   2.406
11938TIP3    H235772   4.261   1.350   2.495
11939TIP3   OH235773   7.790   3.379   0.803
11939TIP3    H135774   7.699   3.351   0.811
11939TIP3    H235775   7.789   3.443   0.732
11940TIP3   OH235776   2.108   6.936   5.738
11940TIP3    H135777   2.203   6.942   5.745
11940TIP3    H235778   2.093   6.850   5.698
11941TIP3   OH235779   2.587   4.312   2.044
11941TIP3    H135780   2.500   4.352   2.052
11941TIP3    H235781   2.609   4.323   1.951
11942TIP3   OH235782   5.966   2.226   5.562
11942TIP3    H135783   5.955   2.134   5.537
11942TIP3    H235784   6.001   2.268   5.484
11943TIP3   OH235785   7.884   2.078   1.171
11943TIP3    H135786   7.977   2.098   1.185
11943TIP3    H235787   7.854   2.041   1.253
11944TIP3   OH235788   1.772   5.801   4.847
11944TIP3    H135789   1.786   5.767   4.759
11944TIP3    H235790   1.839   5.759   4.900
11945TIP3   OH235791   3.110   4.781   6.384
11945TIP3    H135792   3.160   4.803   6.305
11945TIP3    H235793   3.076   4.693   6.367
11946TIP3   OH235794   2.619   1.778   4.374
11946TIP3    H135795   2.550   1.830   4.333
11946TIP3    H235796   2.588   1.688   4.369
11947TIP3   OH235797   6.163   3.153   6.035
11947TIP3    H135798   6.070   3.133   6.052
11947TIP3    H235799   6.209   3.114   6.109
11948TIP3   OH235800   3.947   2.697   5.811
11948TIP3    H135801   3.954   2.774   5.754
11948TIP3    H235802   4.011   2.712   5.880
11949TIP3   OH235803   1.272   1.462   1.778
11949TIP3    H135804   1.290   1.446   1.871
11949TIP3    H235805   1.184   1.427   1.764
11950TIP3   OH235806   0.284   3.571   2.676
11950TIP3    H135807   0.355   3.517   2.711
11950TIP3    H235808   0.229   3.508   2.629
11951TIP3   OH235809   0.836   0.724   6.066
11951TIP3    H135810   0.891   0.678   6.130
11951TIP3    H235811   0.753   0.676   6.067
11952TIP3   OH235812   3.899   6.269   2.876
11952TIP3    H135813   3.824   6.261   2.935
11952TIP3    H235814   3.975   6.272   2.934
11953TIP3   OH235815   7.406   2.957   2.722
11953TIP3    H135816   7.475   3.018   2.695
11953TIP3    H235817   7.447   2.902   2.788
11954TIP3   OH235818   4.590   6.643   3.659
11954TIP3    H135819   4.600   6.739   3.657
11954TIP3    H235820   4.676   6.611   3.686
11955TIP3   OH235821   0.605   4.437   3.975
11955TIP3    H135822   0.652   4.491   4.038
11955TIP3    H235823   0.513   4.454   3.993
11956TIP3   OH235824   8.257   2.567   3.003
11956TIP3    H135825   8.323   2.574   3.072
11956TIP3    H235826   8.175   2.551   3.050
11957TIP3   OH235827   6.117   1.559   0.748
11957TIP3    H135828   6.081   1.502   0.815
11957TIP3    H235829   6.198   1.594   0.786
11958TIP3   OH235830   5.318   7.783   0.052
11958TIP3    H135831   5.398   7.764   0.004
11958TIP3    H235832   5.347   7.828   0.131
11959TIP3   OH235833   3.654   7.412   1.634
11959TIP3    H135834   3.591   7.343   1.612
11959TIP3    H235835   3.738   7.378   1.602
11960TIP3   OH235836   2.614   0.081   1.815
11960TIP3    H135837   2.627   0.166   1.774
11960TIP3    H235838   2.562   0.099   1.893
11961TIP3   OH235839   3.631   4.614   4.904
11961TIP3    H135840   3.547   4.584   4.939
11961TIP3    H235841   3.613   4.703   4.873
11962TIP3   OH235842   0.515   2.322   2.718
11962TIP3    H135843   0.433   2.285   2.684
11962TIP3    H235844   0.551   2.254   2.774
11963TIP3   OH235845   5.674   2.173   2.592
11963TIP3    H135846   5.684   2.246   2.653
11963TIP3    H235847   5.678   2.214   2.505
11964TIP3   OH235848   7.778   2.443   5.826
11964TIP3    H135849   7.688   2.450   5.795
11964TIP3    H235850   7.771   2.409   5.915
11965TIP3   OH235851   6.971   7.151   6.335
11965TIP3    H135852   6.923   7.083   6.382
11965TIP3    H235853   6.989   7.218   6.401
11966TIP3   OH235854   1.731   7.280   6.589
11966TIP3    H135855   1.800   7.246   6.647
11966TIP3    H235856   1.771   7.280   6.502
11967TIP3   OH235857   2.039   4.137   5.244
11967TIP3    H135858   2.033   4.200   5.171
11967TIP3    H235859   1.998   4.058   5.210
11968TIP3   OH235860   5.705   6.880   4.010
11968TIP3    H135861   5.775   6.892   3.947
11968TIP3    H235862   5.625   6.889   3.959
11969TIP3   OH235863   6.418   6.055   2.472
11969TIP3    H135864   6.485   5.988   2.460
11969TIP3    H235865   6.437   6.120   2.405
11970TIP3   OH235866   2.370   3.388   0.631
11970TIP3    H135867   2.353   3.321   0.565
11970TIP3    H235868   2.285   3.429   0.647
11971TIP3   OH235869   0.992   3.299   1.334
11971TIP3    H135870   0.978   3.393   1.320
11971TIP3    H235871   1.085   3.286   1.319
11972TIP3   OH235872   4.255   4.133   5.146
11972TIP3    H135873   4.252   4.179   5.230
11972TIP3    H235874   4.167   4.144   5.110
11973TIP3   OH235875   3.683   1.196   0.160
11973TIP3    H135876   3.689   1.183   0.066
11973TIP3    H235877   3.742   1.131   0.198
11974TIP3   OH235878   4.026   3.007   0.247
11974TIP3    H135879   4.094   2.944   0.271
11974TIP3    H235880   4.072   3.091   0.244
11975TIP3   OH235881   7.249   6.701   2.971
11975TIP3    H135882   7.333   6.658   2.987
11975TIP3    H235883   7.238   6.697   2.876
11976TIP3   OH235884   4.810   0.341   0.944
11976TIP3    H135885   4.806   0.370   1.035
11976TIP3    H235886   4.777   0.416   0.894
11977TIP3   OH235887   7.248   4.687   0.305
11977TIP3    H135888   7.247   4.594   0.280
11977TIP3    H235889   7.305   4.728   0.241
11978TIP3   OH235890   4.148   1.190   1.414
11978TIP3    H135891   4.234   1.219   1.443
11978TIP3    H235892   4.162   1.160   1.324
11979TIP3   OH235893   3.439   3.072   6.461
11979TIP3    H135894   3.437   3.155   6.412
11979TIP3    H235895   3.523   3.034   6.439
11980TIP3   OH235896   0.183   6.076   2.931
11980TIP3    H135897   0.256   6.075   2.993
11980TIP3    H235898   0.200   6.002   2.873
11981TIP3   OH235899   0.312   3.641   4.794
11981TIP3    H135900   0.358   3.558   4.789
11981TIP3    H235901   0.378   3.705   4.821
11982TIP3   OH235902   7.920   0.761   2.826
11982TIP3    H135903   7.942   0.698   2.757
11982TIP3    H235904   7.947   0.718   2.907
11983TIP3   OH235905   8.252   5.701   2.906
11983TIP3    H135906   8.238   5.690   2.812
11983TIP3    H235907   8.166   5.723   2.941
11984TIP3   OH235908   6.955   4.752   5.548
11984TIP3    H135909   6.863   4.777   5.558
11984TIP3    H235910   6.970   4.754   5.453
11985TIP3   OH235911   3.022   0.641   5.101
11985TIP3    H135912   2.949   0.680   5.054
11985TIP3    H235913   3.060   0.714   5.150
11986TIP3   OH235914   4.399   3.261   2.443
11986TIP3    H135915   4.414   3.302   2.528
11986TIP3    H235916   4.326   3.201   2.458
11987TIP3   OH235917   3.142   5.635   5.932
11987TIP3    H135918   3.217   5.609   5.878
11987TIP3    H235919   3.161   5.599   6.019
11988TIP3   OH235920   5.355   6.873   2.510
11988TIP3    H135921   5.326   6.820   2.585
11988TIP3    H235922   5.279   6.877   2.452
11989TIP3   OH235923   1.050   5.527   2.752
11989TIP3    H135924   0.979   5.563   2.805
11989TIP3    H235925   1.122   5.589   2.763
11990TIP3   OH235926   7.540   4.251   1.863
11990TIP3    H135927   7.498   4.168   1.889
11990TIP3    H235928   7.632   4.228   1.851
11991TIP3   OH235929   5.074   7.679   0.853
11991TIP3    H135930   5.112   7.599   0.890
11991TIP3    H235931   5.023   7.649   0.777
11992TIP3   OH235932   4.516   5.690   3.532
11992TIP3    H135933   4.438   5.646   3.499
11992TIP3    H235934   4.581   5.620   3.541
11993TIP3   OH235935   1.754   7.512   5.184
11993TIP3    H135936   1.665   7.544   5.173
11993TIP3    H235937   1.743   7.418   5.204
11994TIP3   OH235938   4.823   5.056   3.695
11994TIP3    H135939   4.879   5.082   3.768
11994TIP3    H235940   4.735   5.049   3.733
11995TIP3   OH235941   4.120   4.076   5.524
11995TIP3    H135942   4.175   4.154   5.520
11995TIP3    H235943   4.177   4.008   5.561
11996TIP3   OH235944   7.536   4.359   4.412
11996TIP3    H135945   7.526   4.415   4.335
11996TIP3    H235946   7.473   4.394   4.475
11997TIP3   OH235947   6.620   6.450   0.735
11997TIP3    H135948   6.664   6.371   0.704
11997TIP3    H235949   6.533   6.446   0.696
11998TIP3   OH235950   2.782   4.807   6.294
11998TIP3    H135951   2.847   4.843   6.234
11998TIP3    H235952   2.833   4.763   6.362
11999TIP3   OH235953   4.204   3.213   1.620
11999TIP3    H135954   4.268   3.143   1.631
11999TIP3    H235955   4.162   3.194   1.535
12000TIP3   OH235956   7.539   2.612   5.568
12000TIP3    H135957   7.507   2.553   5.500
12000TIP3    H235958   7.542   2.559   5.647
12001TIP3   OH235959   6.408   0.145   2.204
12001TIP3    H135960   6.375   0.223   2.160
12001TIP3    H235961   6.334   0.085   2.204
12002TIP3   OH235962   0.147   7.749   6.693
12002TIP3    H135963   0.159   7.833   6.650
12002TIP3    H235964   0.068   7.712   6.654
12003TIP3   OH235965   1.431   4.777   5.622
12003TIP3    H135966   1.436   4.862   5.578
12003TIP3    H235967   1.438   4.713   5.552
12004TIP3   OH235968   1.599   1.961   3.086
12004TIP3    H135969   1.681   1.932   3.125
12004TIP3    H235970   1.531   1.938   3.150
12005TIP3   OH235971   3.602   6.087   6.283
12005TIP3    H135972   3.639   6.016   6.335
12005TIP3    H235973   3.607   6.056   6.193
12006TIP3   OH235974   2.826   5.668   1.791
12006TIP3    H135975   2.871   5.737   1.841
12006TIP3    H235976   2.737   5.669   1.825
12007TIP3   OH235977   3.556   7.626   1.199
12007TIP3    H135978   3.605   7.610   1.280
12007TIP3    H235979   3.579   7.716   1.175
12008TIP3   OH235980   6.977   6.437   5.764
12008TIP3    H135981   6.886   6.415   5.744
12008TIP3    H235982   7.028   6.381   5.705
12009TIP3   OH235983   2.964   6.540   2.333
12009TIP3    H135984   2.915   6.467   2.370
12009TIP3    H235985   2.914   6.617   2.358
12010TIP3   OH235986   2.874   6.934   2.481
12010TIP3    H135987   2.821   6.854   2.476
12010TIP3    H235988   2.824   6.992   2.538
12011TIP3   OH235989   6.288   3.588   5.673
12011TIP3    H135990   6.330   3.643   5.739
12011TIP3    H235991   6.352   3.519   5.654
12012TIP3   OH235992   6.668   0.609   6.575
12012TIP3    H135993   6.672   0.694   6.619
12012TIP3    H235994   6.577   0.581   6.584
12013TIP3   OH235995   4.449   5.747   0.502
12013TIP3    H135996   4.433   5.723   0.411
12013TIP3    H235997   4.369   5.792   0.529
12014TIP3   OH235998   6.339   2.511   1.144
12014TIP3    H135999   6.373   2.465   1.221
12014TIP3    H236000   6.256   2.549   1.174
12015TIP3   OH236001   0.323   0.056   1.788
12015TIP3    H136002   0.415   0.038   1.770
12015TIP3    H236003   0.297  -0.010   1.852
12016TIP3   OH236004   3.831   7.571   5.756
12016TIP3    H136005   3.853   7.663   5.772
12016TIP3    H236006   3.784   7.572   5.673
12017TIP3   OH236007   1.019   7.219   0.433
12017TIP3    H136008   0.977   7.279   0.495
12017TIP3    H236009   1.110   7.247   0.429
12018TIP3   OH236010   0.218   6.475   4.957
12018TIP3    H136011   0.198   6.567   4.939
12018TIP3    H236012   0.220   6.434   4.871
12019TIP3   OH236013   0.541   5.145   3.460
12019TIP3    H136014   0.450   5.132   3.489
12019TIP3    H236015   0.576   5.057   3.450
12020TIP3   OH236016   0.406   2.578   4.596
12020TIP3    H136017   0.333   2.517   4.607
12020TIP3    H236018   0.473   2.547   4.656
12021TIP3   OH236019   4.337   3.249   4.399
12021TIP3    H136020   4.287   3.183   4.446
12021TIP3    H236021   4.282   3.328   4.403
12022TIP3   OH236022   0.347   7.257   5.062
12022TIP3    H136023   0.401   7.189   5.022
12022TIP3    H236024   0.396   7.338   5.049
12023TIP3   OH236025   2.685   5.111   2.445
12023TIP3    H136026   2.742   5.065   2.506
12023TIP3    H236027   2.708   5.204   2.457
12024TIP3   OH236028   6.930   0.197   1.706
12024TIP3    H136029   7.017   0.158   1.707
12024TIP3    H236030   6.945   0.289   1.732
12025TIP3   OH236031   2.982   2.727   1.500
12025TIP3    H136032   2.955   2.705   1.589
12025TIP3    H236033   3.062   2.778   1.512
12026TIP3   OH236034   3.771   6.351   5.011
12026TIP3    H136035   3.864   6.350   4.989
12026TIP3    H236036   3.726   6.340   4.927
12027TIP3   OH236037   7.387   0.652   1.206
12027TIP3    H136038   7.303   0.691   1.229
12027TIP3    H236039   7.417   0.610   1.286
12028TIP3   OH236040   2.988   5.770   0.585
12028TIP3    H136041   2.911   5.821   0.558
12028TIP3    H236042   3.002   5.796   0.676
12029TIP3   OH236043   3.879   5.451   0.887
12029TIP3    H136044   3.928   5.517   0.839
12029TIP3    H236045   3.875   5.376   0.827
12030TIP3   OH236046   3.870   6.827   5.840
12030TIP3    H136047   3.873   6.908   5.893
12030TIP3    H236048   3.777   6.810   5.828
12031TIP3   OH236049   7.448   1.425   1.352
12031TIP3    H136050   7.537   1.450   1.376
12031TIP3    H236051   7.446   1.435   1.257
12032TIP3   OH236052   1.919   4.727   6.570
12032TIP3    H136053   1.935   4.773   6.488
12032TIP3    H236054   2.003   4.729   6.615
12033TIP3   OH236055   2.479   2.216   0.616
12033TIP3    H136056   2.548   2.189   0.556
12033TIP3    H236057   2.510   2.299   0.653
12034TIP3   OH236058   6.166   5.800   1.402
12034TIP3    H136059   6.133   5.825   1.488
12034TIP3    H236060   6.225   5.726   1.418
12035TIP3   OH236061   7.456   0.202   5.013
12035TIP3    H136062   7.387   0.243   5.065
12035TIP3    H236063   7.498   0.140   5.072
12036TIP3   OH236064   3.405   4.918   4.006
12036TIP3    H136065   3.381   4.929   3.914
12036TIP3    H236066   3.499   4.902   4.006
12037TIP3   OH236067   5.573   1.383   4.983
12037TIP3    H136068   5.645   1.439   5.012
12037TIP3    H236069   5.535   1.429   4.909
12038TIP3   OH236070   2.134   1.183   4.187
12038TIP3    H136071   2.204   1.146   4.243
12038TIP3    H236072   2.164   1.166   4.098
12039TIP3   OH236073   2.973   1.645   5.263
12039TIP3    H136074   2.896   1.595   5.292
12039TIP3    H236075   2.938   1.732   5.245
12040TIP3   OH236076   6.816   0.163   6.489
12040TIP3    H136077   6.739   0.192   6.538
12040TIP3    H236078   6.882   0.230   6.506
12041TIP3   OH236079   4.749   7.287   1.176
12041TIP3    H136080   4.767   7.193   1.185
12041TIP3    H236081   4.744   7.302   1.082
12042TIP3   OH236082   2.464   2.682   1.098
12042TIP3    H136083   2.547   2.728   1.111
12042TIP3    H236084   2.409   2.745   1.053
12043TIP3   OH236085   5.808   4.465   0.944
12043TIP3    H136086   5.811   4.431   1.033
12043TIP3    H236087   5.746   4.538   0.947
12044TIP3   OH236088   6.439   5.008   2.436
12044TIP3    H136089   6.384   4.982   2.509
12044TIP3    H236090   6.493   4.931   2.418
12045TIP3   OH236091   5.101   7.139   2.804
12045TIP3    H136092   5.121   7.165   2.894
12045TIP3    H236093   5.185   7.143   2.758
12046TIP3   OH236094   5.034   2.336   6.081
12046TIP3    H136095   4.980   2.259   6.066
12046TIP3    H236096   5.014   2.361   6.172
12047TIP3   OH236097   0.129   2.002   0.124
12047TIP3    H136098   0.193   2.010   0.194
12047TIP3    H236099   0.139   1.912   0.092
12048TIP3   OH236100   2.562   3.981   3.322
12048TIP3    H136101   2.499   4.052   3.317
12048TIP3    H236102   2.583   3.960   3.230
12049TIP3   OH236103   0.660   1.141   4.981
12049TIP3    H136104   0.658   1.181   4.894
12049TIP3    H236105   0.570   1.110   4.994
12050TIP3   OH236106   0.692   5.317   3.006
12050TIP3    H136107   0.729   5.269   3.080
12050TIP3    H236108   0.619   5.366   3.043
12051TIP3   OH236109   6.673   1.268   5.608
12051TIP3    H136110   6.619   1.254   5.530
12051TIP3    H236111   6.735   1.195   5.608
12052TIP3   OH236112   0.146   5.814   5.244
12052TIP3    H136113   0.074   5.834   5.304
12052TIP3    H236114   0.225   5.822   5.298
12053TIP3   OH236115   1.045   4.727   6.425
12053TIP3    H136116   1.015   4.688   6.507
12053TIP3    H236117   0.966   4.737   6.372
12054TIP3   OH236118   6.671   7.210   2.296
12054TIP3    H136119   6.700   7.145   2.360
12054TIP3    H236120   6.628   7.277   2.349
12055TIP3   OH236121   5.340   6.847   6.220
12055TIP3    H136122   5.333   6.940   6.199
12055TIP3    H236123   5.426   6.822   6.185
12056TIP3   OH236124   0.152   0.991   4.706
12056TIP3    H136125   0.147   0.897   4.690
12056TIP3    H236126   0.095   1.005   4.781
12057TIP3   OH236127   4.784   3.971   4.798
12057TIP3    H136128   4.722   3.982   4.870
12057TIP3    H236129   4.776   4.052   4.747
12058TIP3   OH236130   6.250   2.567   4.795
12058TIP3    H136131   6.316   2.635   4.811
12058TIP3    H236132   6.218   2.544   4.882
12059TIP3   OH236133   7.867   4.914   5.726
12059TIP3    H136134   7.854   5.008   5.719
12059TIP3    H236135   7.923   4.903   5.802
12060TIP3   OH236136   1.535   0.229   2.505
12060TIP3    H136137   1.520   0.181   2.423
12060TIP3    H236138   1.448   0.244   2.540
12061TIP3   OH236139   0.090   5.336   3.429
12061TIP3    H136140   0.175   5.325   3.385
12061TIP3    H236141   0.042   5.398   3.374
12062TIP3   OH236142   4.542   3.699   1.429
12062TIP3    H136143   4.555   3.718   1.521
12062TIP3    H236144   4.496   3.775   1.394
12063TIP3   OH236145   2.989   6.298   2.534
12063TIP3    H136146   2.970   6.205   2.546
12063TIP3    H236147   3.079   6.308   2.567
12064TIP3   OH236148   0.176   2.334   4.121
12064TIP3    H136149   0.098   2.300   4.078
12064TIP3    H236150   0.239   2.347   4.049
12065TIP3   OH236151   6.293   6.538   3.408
12065TIP3    H136152   6.199   6.531   3.424
12065TIP3    H236153   6.307   6.629   3.383
12066TIP3   OH236154   6.635   0.890   3.990
12066TIP3    H136155   6.540   0.882   3.998
12066TIP3    H236156   6.670   0.825   4.052
12067TIP3   OH236157   7.432   4.879   5.631
12067TIP3    H136158   7.378   4.909   5.559
12067TIP3    H236159   7.404   4.788   5.646
12068TIP3   OH236160   4.574   0.070   1.280
12068TIP3    H136161   4.523   0.070   1.199
12068TIP3    H236162   4.663   0.094   1.252
12069TIP3   OH236163   0.972   6.782   5.057
12069TIP3    H136164   0.965   6.819   4.968
12069TIP3    H236165   1.003   6.854   5.111
12070TIP3   OH236166   7.400   2.812   2.479
12070TIP3    H136167   7.385   2.861   2.560
12070TIP3    H236168   7.467   2.748   2.501
12071TIP3   OH236169   8.209   6.441   1.056
12071TIP3    H136170   8.199   6.480   1.143
12071TIP3    H236171   8.207   6.347   1.071
12072TIP3   OH236172   2.375   0.503   1.834
12072TIP3    H136173   2.428   0.455   1.898
12072TIP3    H236174   2.284   0.486   1.861
12073TIP3   OH236175   4.433   6.314   5.955
12073TIP3    H136176   4.353   6.363   5.972
12073TIP3    H236177   4.473   6.358   5.881
12074TIP3   OH236178   0.927   6.647   2.541
12074TIP3    H136179   0.865   6.581   2.571
12074TIP3    H236180   0.872   6.715   2.500
12075TIP3   OH236181   7.612   2.671   0.378
12075TIP3    H136182   7.564   2.704   0.454
12075TIP3    H236183   7.697   2.714   0.383
12076TIP3   OH236184   3.762   0.379   6.458
12076TIP3    H136185   3.682   0.353   6.504
12076TIP3    H236186   3.766   0.474   6.468
12077TIP3   OH236187   6.927   5.035   2.126
12077TIP3    H136188   6.955   5.055   2.215
12077TIP3    H236189   6.837   5.003   2.136
12078TIP3   OH236190   7.388   6.154   1.377
12078TIP3    H136191   7.345   6.221   1.429
12078TIP3    H236192   7.467   6.196   1.344
12079TIP3   OH236193   2.484   4.844   2.164
12079TIP3    H136194   2.566   4.807   2.197
12079TIP3    H236195   2.461   4.913   2.226
12080TIP3   OH236196   2.030   4.379   4.053
12080TIP3    H136197   1.988   4.420   4.129
12080TIP3    H236198   2.116   4.421   4.047
12081TIP3   OH236199   2.696   5.571   0.431
12081TIP3    H136200   2.628   5.544   0.492
12081TIP3    H236201   2.666   5.540   0.345
12082TIP3   OH236202   3.880   5.817   5.568
12082TIP3    H136203   3.839   5.811   5.482
12082TIP3    H236204   3.945   5.887   5.559
12083TIP3   OH236205   6.747   7.679   2.968
12083TIP3    H136206   6.680   7.745   2.983
12083TIP3    H236207   6.752   7.671   2.873
12084TIP3   OH236208   3.255   1.536   2.169
12084TIP3    H136209   3.183   1.504   2.114
12084TIP3    H236210   3.212   1.572   2.246
12085TIP3   OH236211   1.319   3.088   5.332
12085TIP3    H136212   1.297   3.020   5.269
12085TIP3    H236213   1.391   3.136   5.291
12086TIP3   OH236214   2.177   7.383   1.443
12086TIP3    H136215   2.206   7.319   1.378
12086TIP3    H236216   2.148   7.330   1.517
12087TIP3   OH236217   7.417   2.523   2.939
12087TIP3    H136218   7.413   2.587   3.011
12087TIP3    H236219   7.402   2.438   2.981
12088TIP3   OH236220   4.901   3.595   6.519
12088TIP3    H136221   4.870   3.682   6.494
12088TIP3    H236222   4.862   3.536   6.454
12089TIP3   OH236223   0.286   2.898   2.019
12089TIP3    H136224   0.267   2.992   2.012
12089TIP3    H236225   0.254   2.861   1.937
12090TIP3   OH236226   0.177   3.400   2.183
12090TIP3    H136227   0.251   3.432   2.131
12090TIP3    H236228   0.102   3.448   2.150
12091TIP3   OH236229   7.758   5.810   3.344
12091TIP3    H136230   7.671   5.849   3.353
12091TIP3    H236231   7.744   5.731   3.293
12092TIP3   OH236232   4.740   5.041   5.715
12092TIP3    H136233   4.832   5.030   5.740
12092TIP3    H236234   4.695   4.967   5.755
12093TIP3   OH236235   6.105   6.582   5.730
12093TIP3    H136236   6.174   6.647   5.716
12093TIP3    H236237   6.073   6.562   5.641
12094TIP3   OH236238   7.807   1.522   1.005
12094TIP3    H136239   7.864   1.446   1.014
12094TIP3    H236240   7.764   1.510   0.920
12095TIP3   OH236241   3.328   6.618   1.353
12095TIP3    H136242   3.336   6.709   1.382
12095TIP3    H236243   3.409   6.600   1.306
12096TIP3   OH236244   1.279   3.108   4.620
12096TIP3    H136245   1.328   3.155   4.552
12096TIP3    H236246   1.209   3.064   4.572
12097TIP3   OH236247   4.068   3.596   0.951
12097TIP3    H136248   3.984   3.569   0.914
12097TIP3    H236249   4.045   3.639   1.034
12098TIP3   OH236250   3.687   3.162   2.699
12098TIP3    H136251   3.767   3.215   2.704
12098TIP3    H236252   3.668   3.138   2.790
12099TIP3   OH236253   5.813   0.381   2.860
12099TIP3    H136254   5.853   0.380   2.773
12099TIP3    H236255   5.783   0.471   2.872
12100TIP3   OH236256   1.555   3.873   5.897
12100TIP3    H136257   1.601   3.821   5.963
12100TIP3    H236258   1.612   3.872   5.820
12101TIP3   OH236259   3.248   7.619   3.596
12101TIP3    H136260   3.268   7.692   3.655
12101TIP3    H236261   3.334   7.583   3.574
12102TIP3   OH236262   0.237   3.628   4.373
12102TIP3    H136263   0.212   3.632   4.465
12102TIP3    H236264   0.181   3.692   4.330
12103TIP3   OH236265   1.266   2.976   3.887
12103TIP3    H136266   1.200   2.937   3.943
12103TIP3    H236267   1.217   3.029   3.824
12104TIP3   OH236268   4.032   2.963   2.899
12104TIP3    H136269   4.032   3.051   2.937
12104TIP3    H236270   4.081   2.972   2.817
12105TIP3   OH236271   4.861   4.951   2.855
12105TIP3    H136272   4.776   4.931   2.814
12105TIP3    H236273   4.840   5.005   2.931
12106TIP3   OH236274   2.466   5.211   6.216
12106TIP3    H136275   2.517   5.162   6.152
12106TIP3    H236276   2.396   5.151   6.243
12107TIP3   OH236277   1.356   6.435   2.864
12107TIP3    H136278   1.304   6.369   2.820
12107TIP3    H236279   1.373   6.501   2.797
12108TIP3   OH236280   7.971   0.894   3.493
12108TIP3    H136281   7.986   0.987   3.513
12108TIP3    H236282   7.957   0.893   3.398
12109TIP3   OH236283   1.806   2.457   5.888
12109TIP3    H136284   1.865   2.384   5.868
12109TIP3    H236285   1.721   2.416   5.904
12110TIP3   OH236286   5.937   5.658   6.178
12110TIP3    H136287   5.997   5.603   6.127
12110TIP3    H236288   5.993   5.699   6.244
12111TIP3   OH236289   7.712   6.873   2.360
12111TIP3    H136290   7.669   6.854   2.444
12111TIP3    H236291   7.801   6.899   2.384
12112TIP3   OH236292   4.988   0.714   0.877
12112TIP3    H136293   4.980   0.693   0.970
12112TIP3    H236294   5.069   0.672   0.850
12113TIP3   OH236295   5.415   5.673   4.024
12113TIP3    H136296   5.491   5.722   3.995
12113TIP3    H236297   5.362   5.737   4.072
12114TIP3   OH236298   4.068   3.307   4.960
12114TIP3    H136299   4.157   3.341   4.946
12114TIP3    H236300   4.035   3.357   5.035
12115TIP3   OH236301   6.055  -0.056   1.292
12115TIP3    H136302   6.006  -0.004   1.355
12115TIP3    H236303   6.135  -0.006   1.277
12116TIP3   OH236304   5.092   3.057   1.190
12116TIP3    H136305   5.150   2.997   1.144
12116TIP3    H236306   5.139   3.078   1.271
12117TIP3   OH236307   0.879   0.900   1.798
12117TIP3    H136308   0.869   0.943   1.713
12117TIP3    H236309   0.973   0.893   1.810
12118TIP3   OH236310   5.750   6.740   0.263
12118TIP3    H136311   5.717   6.815   0.214
12118TIP3    H236312   5.801   6.690   0.200
12119TIP3   OH236313   7.409   5.589   2.317
12119TIP3    H136314   7.423   5.602   2.223
12119TIP3    H236315   7.477   5.642   2.359
12120TIP3   OH236316   3.215   0.457   1.149
12120TIP3    H136317   3.178   0.379   1.190
12120TIP3    H236318   3.290   0.480   1.204
12121TIP3   OH236319   8.013   0.958   3.847
12121TIP3    H136320   8.014   0.897   3.920
12121TIP3    H236321   8.066   1.032   3.876
12122TIP3   OH236322   4.628   4.447   0.534
12122TIP3    H136323   4.620   4.422   0.442
12122TIP3    H236324   4.716   4.419   0.559
12123TIP3   OH236325   7.909   2.642   6.448
12123TIP3    H136326   7.966   2.713   6.418
12123TIP3    H236327   7.930   2.632   6.541
12124TIP3   OH236328   2.968   2.896   3.746
12124TIP3    H136329   2.940   2.808   3.771
12124TIP3    H236330   2.946   2.902   3.653
12125TIP3   OH236331   8.208   1.886   6.515
12125TIP3    H136332   8.202   1.833   6.594
12125TIP3    H236333   8.207   1.976   6.546
12126TIP3   OH236334   5.777   1.514   4.275
12126TIP3    H136335   5.703   1.503   4.334
12126TIP3    H236336   5.799   1.426   4.246
12127TIP3   OH236337   2.202   0.172   1.433
12127TIP3    H136338   2.152   0.253   1.420
12127TIP3    H236339   2.219   0.140   1.345
12128TIP3   OH236340   3.542   4.604   5.679
12128TIP3    H136341   3.610   4.597   5.612
12128TIP3    H236342   3.572   4.675   5.737
12129TIP3   OH236343   5.239   3.958   2.551
12129TIP3    H136344   5.283   4.043   2.546
12129TIP3    H236345   5.227   3.932   2.459
12130TIP3   OH236346   0.250   7.494   6.531
12130TIP3    H136347   0.223   7.523   6.444
12130TIP3    H236348   0.232   7.569   6.588
12131TIP3   OH236349   3.379   0.782   1.205
12131TIP3    H136350   3.457   0.746   1.162
12131TIP3    H236351   3.413   0.852   1.261
12132TIP3   OH236352   0.553   6.139   4.635
12132TIP3    H136353   0.530   6.104   4.721
12132TIP3    H236354   0.561   6.234   4.649
12133TIP3   OH236355   5.281   1.643   4.827
12133TIP3    H136356   5.357   1.588   4.807
12133TIP3    H236357   5.214   1.581   4.855
12134TIP3   OH236358   2.092   4.970   5.296
12134TIP3    H136359   2.052   4.912   5.361
12134TIP3    H236360   2.116   5.049   5.344
12135TIP3   OH236361   3.170   3.587   0.692
12135TIP3    H136362   3.075   3.594   0.706
12135TIP3    H236363   3.199   3.526   0.760
12136TIP3   OH236364   7.427   3.372   6.763
12136TIP3    H136365   7.427   3.279   6.787
12136TIP3    H236366   7.502   3.408   6.809
12137TIP3   OH236367   1.736   1.123   3.389
12137TIP3    H136368   1.803   1.056   3.405
12137TIP3    H236369   1.699   1.099   3.304
12138TIP3   OH236370   5.144   1.750   0.434
12138TIP3    H136371   5.173   1.831   0.477
12138TIP3    H236372   5.049   1.749   0.446
12139TIP3   OH236373   0.493   0.723   5.941
12139TIP3    H136374   0.561   0.672   5.985
12139TIP3    H236375   0.539   0.798   5.905
12140TIP3   OH236376   5.686   2.288   3.508
12140TIP3    H136377   5.652   2.226   3.573
12140TIP3    H236378   5.646   2.372   3.531
12141TIP3   OH236379   2.645   2.561   4.079
12141TIP3    H136380   2.696   2.494   4.033
12141TIP3    H236381   2.556   2.525   4.083
12142TIP3   OH236382   6.450   2.069   2.335
12142TIP3    H136383   6.436   2.137   2.268
12142TIP3    H236384   6.539   2.038   2.319
12143TIP3   OH236385   0.555   1.988   2.493
12143TIP3    H136386   0.646   2.000   2.520
12143TIP3    H236387   0.549   2.035   2.410
12144TIP3   OH236388   7.400   0.399   0.347
12144TIP3    H136389   7.355   0.321   0.316
12144TIP3    H236390   7.448   0.370   0.424
12145TIP3   OH236391   6.869   7.489   6.775
12145TIP3    H136392   6.961   7.513   6.770
12145TIP3    H236393   6.861   7.410   6.721
12146TIP3   OH236394   5.607   5.716   2.249
12146TIP3    H136395   5.562   5.656   2.310
12146TIP3    H236396   5.661   5.658   2.195
12147TIP3   OH236397   3.308   7.500   4.392
12147TIP3    H136398   3.285   7.593   4.383
12147TIP3    H236399   3.394   7.502   4.434
12148TIP3   OH236400   5.190   5.181   2.963
12148TIP3    H136401   5.159   5.259   3.010
12148TIP3    H236402   5.136   5.176   2.885
12149TIP3   OH236403   1.283   7.156   1.114
12149TIP3    H136404   1.287   7.084   1.177
12149TIP3    H236405   1.349   7.134   1.049
12150TIP3   OH236406   2.017   1.302   5.587
12150TIP3    H136407   2.023   1.335   5.677
12150TIP3    H236408   1.925   1.280   5.576
12151TIP3   OH236409   1.494   0.270   4.361
12151TIP3    H136410   1.577   0.261   4.314
12151TIP3    H236411   1.520   0.299   4.449
12152TIP3   OH236412   3.590   0.963   2.296
12152TIP3    H136413   3.591   0.868   2.284
12152TIP3    H236414   3.586   0.974   2.391
12153TIP3   OH236415   3.141   0.192   0.317
12153TIP3    H136416   3.116   0.230   0.401
12153TIP3    H236417   3.194   0.116   0.341
12154TIP3   OH236418   0.442   5.432   5.428
12154TIP3    H136419   0.432   5.346   5.469
12154TIP3    H236420   0.534   5.437   5.403
12155TIP3   OH236421   1.067   3.770   0.592
12155TIP3    H136422   1.092   3.708   0.523
12155TIP3    H236423   1.062   3.716   0.671
12156TIP3   OH236424   2.345   3.464   6.686
12156TIP3    H136425   2.364   3.468   6.779
12156TIP3    H236426   2.400   3.532   6.647
12157TIP3   OH236427   8.087   4.662   5.076
12157TIP3    H136428   8.022   4.723   5.108
12157TIP3    H236429   8.040   4.607   5.013
12158TIP3   OH236430   4.181   0.385   1.361
12158TIP3    H136431   4.090   0.412   1.372
12158TIP3    H236432   4.225   0.462   1.326
12159TIP3   OH236433   5.569   5.962   2.899
12159TIP3    H136434   5.640   5.917   2.854
12159TIP3    H236435   5.611   6.005   2.973
12160TIP3   OH236436   0.451   4.340   1.052
12160TIP3    H136437   0.464   4.404   1.122
12160TIP3    H236438   0.418   4.391   0.978
12161TIP3   OH236439   8.181   3.380   5.814
12161TIP3    H136440   8.126   3.450   5.780
12161TIP3    H236441   8.156   3.371   5.906
12162TIP3   OH236442   6.767   3.919   5.398
12162TIP3    H136443   6.789   3.936   5.306
12162TIP3    H236444   6.762   4.005   5.438
12163TIP3   OH236445   5.504   3.347   5.715
12163TIP3    H136446   5.592   3.315   5.696
12163TIP3    H236447   5.518   3.425   5.769
12164TIP3   OH236448   7.859   1.244   4.477
12164TIP3    H136449   7.922   1.302   4.433
12164TIP3    H236450   7.912   1.189   4.534
12165TIP3   OH236451   7.165   6.349   6.468
12165TIP3    H136452   7.190   6.437   6.497
12165TIP3    H236453   7.081   6.332   6.511
12166TIP3   OH236454   0.838   6.138   4.762
12166TIP3    H136455   0.790   6.221   4.764
12166TIP3    H236456   0.884   6.135   4.846
12167TIP3   OH236457   6.298   2.150   4.315
12167TIP3    H136458   6.380   2.135   4.268
12167TIP3    H236459   6.249   2.068   4.304
12168TIP3   OH236460   3.021   4.898   2.187
12168TIP3    H136461   3.106   4.930   2.157
12168TIP3    H236462   3.036   4.877   2.280
12169TIP3   OH236463   1.817   3.380   4.368
12169TIP3    H136464   1.737   3.398   4.320
12169TIP3    H236465   1.877   3.450   4.344
12170TIP3   OH236466   0.924   7.791   5.363
12170TIP3    H136467   0.952   7.753   5.446
12170TIP3    H236468   0.926   7.886   5.378
12171TIP3   OH236469   5.918   2.610   5.241
12171TIP3    H136470   5.884   2.668   5.173
12171TIP3    H236471   5.870   2.633   5.320
12172TIP3   OH236472   0.475   5.786   2.634
12172TIP3    H136473   0.478   5.692   2.616
12172TIP3    H236474   0.551   5.803   2.690
12173TIP3   OH236475   5.068   2.054   0.534
12173TIP3    H136476   5.046   2.076   0.624
12173TIP3    H236477   4.983   2.037   0.492
12174TIP3   OH236478   1.873   3.447   5.487
12174TIP3    H136479   1.920   3.530   5.486
12174TIP3    H236480   1.792   3.465   5.439
12175TIP3   OH236481   6.893   6.655   2.523
12175TIP3    H136482   6.798   6.646   2.534
12175TIP3    H236483   6.904   6.744   2.488
12176TIP3   OH236484   2.466   3.171   2.402
12176TIP3    H136485   2.409   3.094   2.408
12176TIP3    H236486   2.425   3.235   2.461
12177TIP3   OH236487   7.622   2.644   2.491
12177TIP3    H136488   7.670   2.575   2.446
12177TIP3    H236489   7.620   2.616   2.583
12178TIP3   OH236490   4.190   4.240   4.588
12178TIP3    H136491   4.106   4.260   4.548
12178TIP3    H236492   4.233   4.180   4.526
12179TIP3   OH236493   4.238   1.411   3.296
12179TIP3    H136494   4.300   1.372   3.356
12179TIP3    H236495   4.165   1.441   3.351
12180TIP3   OH236496   5.726   2.756   4.147
12180TIP3    H136497   5.737   2.834   4.201
12180TIP3    H236498   5.812   2.741   4.108
12181TIP3   OH236499   8.193   6.867   5.179
12181TIP3    H136500   8.117   6.877   5.121
12181TIP3    H236501   8.258   6.928   5.145
12182TIP3   OH236502   8.042   6.539   1.936
12182TIP3    H136503   8.114   6.596   1.909
12182TIP3    H236504   8.063   6.517   2.027
12183TIP3   OH236505   6.809   7.263   3.227
12183TIP3    H136506   6.833   7.256   3.319
12183TIP3    H236507   6.842   7.349   3.200
12184TIP3   OH236508   7.152   1.006   0.409
12184TIP3    H136509   7.206   0.974   0.337
12184TIP3    H236510   7.112   1.086   0.375
12185TIP3   OH236511   5.017   1.647   5.509
12185TIP3    H136512   5.030   1.732   5.550
12185TIP3    H236513   5.026   1.663   5.415
12186TIP3   OH236514   1.010   5.699   6.605
12186TIP3    H136515   0.957   5.624   6.631
12186TIP3    H236516   1.002   5.702   6.509
12187TIP3   OH236517   2.881   6.525   2.940
12187TIP3    H136518   2.822   6.546   3.012
12187TIP3    H236519   2.952   6.475   2.980
12188TIP3   OH236520   2.299   3.596   5.195
12188TIP3    H136521   2.211   3.569   5.220
12188TIP3    H236522   2.302   3.690   5.211
12189TIP3   OH236523   7.248   3.185   6.558
12189TIP3    H136524   7.301   3.137   6.495
12189TIP3    H236525   7.249   3.275   6.528
12190TIP3   OH236526   4.498   7.850   1.997
12190TIP3    H136527   4.439   7.785   1.960
12190TIP3    H236528   4.545   7.804   2.066
12191TIP3   OH236529   5.397   2.841   5.843
12191TIP3    H136530   5.368   2.828   5.753
12191TIP3    H236531   5.419   2.753   5.874
12192TIP3   OH236532   5.339   4.693   2.599
12192TIP3    H136533   5.300   4.749   2.532
12192TIP3    H236534   5.426   4.732   2.615
12193TIP3   OH236535   6.451   1.105   0.274
12193TIP3    H136536   6.467   1.057   0.354
12193TIP3    H236537   6.470   1.043   0.204
12194TIP3   OH236538   4.100   1.389   4.079
12194TIP3    H136539   4.005   1.389   4.066
12194TIP3    H236540   4.135   1.425   3.997
12195TIP3   OH236541   4.868   2.611   6.067
12195TIP3    H136542   4.914   2.609   5.983
12195TIP3    H236543   4.921   2.556   6.125
12196TIP3   OH236544   6.401   1.836   5.202
12196TIP3    H136545   6.439   1.807   5.285
12196TIP3    H236546   6.315   1.870   5.224
12197TIP3   OH236547   2.010   3.963   2.050
12197TIP3    H136548   2.051   3.954   2.136
12197TIP3    H236549   1.916   3.957   2.068
12198TIP3   OH236550   5.622   4.478   0.471
12198TIP3    H136551   5.686   4.467   0.541
12198TIP3    H236552   5.657   4.428   0.398
12199TIP3   OH236553   2.496   4.875   2.582
12199TIP3    H136554   2.438   4.945   2.552
12199TIP3    H236555   2.584   4.907   2.564
12200TIP3   OH236556   2.759   3.799   0.635
12200TIP3    H136557   2.687   3.859   0.616
12200TIP3    H236558   2.777   3.812   0.728
12201TIP3   OH236559   2.634   5.917   5.156
12201TIP3    H136560   2.539   5.911   5.148
12201TIP3    H236561   2.667   5.834   5.124
12202TIP3   OH236562   5.888   6.515   6.577
12202TIP3    H136563   5.864   6.470   6.496
12202TIP3    H236564   5.983   6.529   6.570
12203TIP3   OH236565   2.126   6.075   1.316
12203TIP3    H136566   2.174   6.036   1.243
12203TIP3    H236567   2.122   6.168   1.295
12204TIP3   OH236568   8.111   3.737   0.256
12204TIP3    H136569   8.082   3.793   0.329
12204TIP3    H236570   8.185   3.688   0.292
12205TIP3   OH236571   7.028   4.968   5.921
12205TIP3    H136572   7.079   4.899   5.880
12205TIP3    H236573   7.083   5.045   5.917
12206TIP3   OH236574   7.998   3.293   3.773
12206TIP3    H136575   8.083   3.333   3.759
12206TIP3    H236576   7.971   3.261   3.687
12207TIP3   OH236577   5.979   1.972   2.494
12207TIP3    H136578   5.907   1.948   2.553
12207TIP3    H236579   6.054   1.986   2.552
12208TIP3   OH236580   2.514   3.469   0.313
12208TIP3    H136581   2.575   3.494   0.383
12208TIP3    H236582   2.536   3.378   0.294
12209TIP3   OH236583   4.968   0.112   2.493
12209TIP3    H136584   4.898   0.049   2.480
12209TIP3    H236585   4.933   0.175   2.556
12210TIP3   OH236586   2.566   0.181   2.863
12210TIP3    H136587   2.650   0.217   2.890
12210TIP3    H236588   2.549   0.111   2.926
12211TIP3   OH236589   1.731   3.110   2.098
12211TIP3    H136590   1.761   3.073   2.181
12211TIP3    H236591   1.798   3.174   2.075
12212TIP3   OH236592   2.408   2.771   5.833
12212TIP3    H136593   2.388   2.857   5.868
12212TIP3    H236594   2.322   2.730   5.818
12213TIP3   OH236595   1.628   7.132   2.042
12213TIP3    H136596   1.552   7.074   2.034
12213TIP3    H236597   1.590   7.220   2.048
12214TIP3   OH236598   7.356   1.858   2.790
12214TIP3    H136599   7.321   1.774   2.820
12214TIP3    H236600   7.309   1.923   2.842
12215TIP3   OH236601   3.609   4.834   4.360
12215TIP3    H136602   3.665   4.873   4.427
12215TIP3    H236603   3.561   4.909   4.324
12216TIP3   OH236604   3.164   6.062   0.011
12216TIP3    H136605   3.144   6.134   0.070
12216TIP3    H236606   3.259   6.059   0.008
12217TIP3   OH236607   7.722   1.567   3.737
12217TIP3    H136608   7.650   1.504   3.729
12217TIP3    H236609   7.691   1.645   3.691
12218TIP3   OH236610   2.846   1.582   3.056
12218TIP3    H136611   2.808   1.495   3.053
12218TIP3    H236612   2.874   1.593   3.147
12219TIP3   OH236613   7.794   7.620   0.732
12219TIP3    H136614   7.849   7.544   0.753
12219TIP3    H236615   7.839   7.661   0.658
12220TIP3   OH236616   3.475   4.264   3.668
12220TIP3    H136617   3.438   4.352   3.670
12220TIP3    H236618   3.563   4.275   3.705
12221TIP3   OH236619   4.870   4.669   0.441
12221TIP3    H136620   4.809   4.694   0.511
12221TIP3    H236621   4.847   4.724   0.367
12222TIP3   OH236622  -0.030   6.622   5.739
12222TIP3    H136623  -0.022   6.717   5.747
12222TIP3    H236624  -0.025   6.606   5.645
12223TIP3   OH236625   2.078   7.561   3.284
12223TIP3    H136626   2.161   7.608   3.271
12223TIP3    H236627   2.104   7.469   3.292
12224TIP3   OH236628   0.360   0.551   2.591
12224TIP3    H136629   0.269   0.537   2.565
12224TIP3    H236630   0.402   0.466   2.579
12225TIP3   OH236631   5.166   2.988   3.454
12225TIP3    H136632   5.150   2.972   3.547
12225TIP3    H236633   5.078   3.003   3.418
12226TIP3   OH236634   2.353   1.728   1.696
12226TIP3    H136635   2.334   1.816   1.663
12226TIP3    H236636   2.410   1.742   1.772
12227TIP3   OH236637   4.419   6.740   5.259
12227TIP3    H136638   4.335   6.706   5.226
12227TIP3    H236639   4.418   6.833   5.235
12228TIP3   OH236640   2.471   2.412   0.988
12228TIP3    H136641   2.517   2.383   1.066
12228TIP3    H236642   2.421   2.489   1.015
12229TIP3   OH236643   5.732   4.638   4.992
12229TIP3    H136644   5.793   4.641   5.066
12229TIP3    H236645   5.780   4.681   4.921
12230TIP3   OH236646   2.485   3.561   0.929
12230TIP3    H136647   2.514   3.614   1.004
12230TIP3    H236648   2.423   3.617   0.884
12231TIP3   OH236649   2.285   5.393   3.615
12231TIP3    H136650   2.197   5.429   3.605
12231TIP3    H236651   2.300   5.393   3.710
12232TIP3   OH236652   7.965   1.548   6.167
12232TIP3    H136653   7.991   1.638   6.148
12232TIP3    H236654   8.027   1.519   6.234
12233TIP3   OH236655   6.350   6.430   0.662
12233TIP3    H136656   6.299   6.490   0.716
12233TIP3    H236657   6.386   6.485   0.593
12234TIP3   OH236658   0.693   2.249   1.919
12234TIP3    H136659   0.603   2.264   1.948
12234TIP3    H236660   0.741   2.326   1.947
12235TIP3   OH236661   4.204   5.583   2.084
12235TIP3    H136662   4.235   5.555   1.998
12235TIP3    H236663   4.249   5.666   2.099
12236TIP3   OH236664   4.772   6.622   0.573
12236TIP3    H136665   4.829   6.587   0.642
12236TIP3    H236666   4.765   6.715   0.592
12237TIP3   OH236667   1.203   0.044   1.171
12237TIP3    H136668   1.252   0.126   1.164
12237TIP3    H236669   1.257  -0.019   1.124
12238TIP3   OH236670   4.804   6.972   1.805
12238TIP3    H136671   4.777   6.881   1.801
12238TIP3    H236672   4.891   6.973   1.765
12239TIP3   OH236673   3.927   0.597   1.020
12239TIP3    H136674   3.853   0.634   0.972
12239TIP3    H236675   3.970   0.672   1.061
12240TIP3   OH236676   7.199   3.589   3.903
12240TIP3    H136677   7.204   3.666   3.961
12240TIP3    H236678   7.136   3.531   3.946
12241TIP3   OH236679   1.512   3.921   4.570
12241TIP3    H136680   1.458   3.842   4.568
12241TIP3    H236681   1.576   3.909   4.499
12242TIP3   OH236682   4.366   4.828   6.280
12242TIP3    H136683   4.385   4.734   6.288
12242TIP3    H236684   4.277   4.837   6.314
12243TIP3   OH236685   2.320   0.922   4.912
12243TIP3    H136686   2.371   0.956   4.986
12243TIP3    H236687   2.233   0.905   4.949
12244TIP3   OH236688   4.608   3.028   4.381
12244TIP3    H136689   4.607   2.938   4.349
12244TIP3    H236690   4.546   3.074   4.324
12245TIP3   OH236691   5.443   0.751   4.408
12245TIP3    H136692   5.367   0.733   4.463
12245TIP3    H236693   5.484   0.827   4.449
12246TIP3   OH236694   1.719   4.855   3.781
12246TIP3    H136695   1.768   4.775   3.764
12246TIP3    H236696   1.749   4.884   3.867
12247TIP3   OH236697   2.580   6.933   6.638
12247TIP3    H136698   2.617   7.003   6.585
12247TIP3    H236699   2.610   6.950   6.727
12248TIP3   OH236700   0.027   4.805   5.090
12248TIP3    H136701  -0.053   4.758   5.065
12248TIP3    H236702   0.009   4.838   5.178
12249TIP3   OH236703   0.199   3.517   4.063
12249TIP3    H136704   0.128   3.551   4.117
12249TIP3    H236705   0.231   3.593   4.014
12250TIP3   OH236706   6.399   5.364   5.278
12250TIP3    H136707   6.421   5.447   5.235
12250TIP3    H236708   6.484   5.323   5.294
12251TIP3   OH236709   1.244   7.086   4.346
12251TIP3    H136710   1.253   7.061   4.438
12251TIP3    H236711   1.163   7.138   4.344
12252TIP3   OH236712   2.142   2.118   0.187
12252TIP3    H136713   2.185   2.097   0.270
12252TIP3    H236714   2.206   2.092   0.120
12253TIP3   OH236715   4.381   2.674   5.597
12253TIP3    H136716   4.369   2.667   5.692
12253TIP3    H236717   4.409   2.586   5.570
12254TIP3   OH236718   1.491   1.148   6.795
12254TIP3    H136719   1.567   1.090   6.797
12254TIP3    H236720   1.447   1.128   6.712
12255TIP3   OH236721   7.773   3.340   6.056
12255TIP3    H136722   7.802   3.275   5.993
12255TIP3    H236723   7.690   3.372   6.021
12256TIP3   OH236724   2.837   5.374   0.126
12256TIP3    H136725   2.832   5.308   0.056
12256TIP3    H236726   2.916   5.424   0.105
12257TIP3   OH236727   2.255   7.279   3.972
12257TIP3    H136728   2.301   7.236   3.900
12257TIP3    H236729   2.223   7.361   3.934
12258TIP3   OH236730   1.657   5.090   4.661
12258TIP3    H136731   1.722   5.144   4.616
12258TIP3    H236732   1.679   5.099   4.754
12259TIP3   OH236733   0.383   0.714   3.474
12259TIP3    H136734   0.397   0.629   3.516
12259TIP3    H236735   0.412   0.778   3.539
12260TIP3   OH236736   3.036   6.301   1.666
12260TIP3    H136737   3.044   6.357   1.743
12260TIP3    H236738   3.024   6.362   1.593
12261TIP3   OH236739   4.564   2.606   2.840
12261TIP3    H136740   4.649   2.614   2.796
12261TIP3    H236741   4.554   2.512   2.856
12262TIP3   OH236742   2.769   2.079   5.497
12262TIP3    H136743   2.772   2.052   5.406
12262TIP3    H236744   2.703   2.023   5.537
12263TIP3   OH236745   4.613   6.486   3.418
12263TIP3    H136746   4.604   6.518   3.508
12263TIP3    H236747   4.618   6.565   3.365
12264TIP3   OH236748   1.132   3.361   6.176
12264TIP3    H136749   1.071   3.291   6.151
12264TIP3    H236750   1.139   3.415   6.098
12265TIP3   OH236751   6.877   2.527   1.578
12265TIP3    H136752   6.786   2.533   1.550
12265TIP3    H236753   6.927   2.557   1.502
12266TIP3   OH236754   3.517   3.525   2.582
12266TIP3    H136755   3.535   3.438   2.548
12266TIP3    H236756   3.449   3.560   2.526
12267TIP3   OH236757   3.007   2.144   4.425
12267TIP3    H136758   2.992   2.077   4.359
12267TIP3    H236759   2.937   2.130   4.490
12268TIP3   OH236760   6.215   0.078   5.238
12268TIP3    H136761   6.231  -0.001   5.289
12268TIP3    H236762   6.281   0.076   5.169
12269TIP3   OH236763   7.860   5.955   5.018
12269TIP3    H136764   7.899   6.028   5.065
12269TIP3    H236765   7.772   5.947   5.055
12270TIP3   OH236766   0.763   3.932   2.636
12270TIP3    H136767   0.845   3.922   2.684
12270TIP3    H236768   0.763   4.022   2.605
12271TIP3   OH236769   1.403   5.257   4.888
12271TIP3    H136770   1.373   5.190   4.827
12271TIP3    H236771   1.490   5.228   4.914
12272TIP3   OH236772   1.555   6.532   0.778
12272TIP3    H136773   1.564   6.599   0.710
12272TIP3    H236774   1.625   6.470   0.761
12273TIP3   OH236775   2.038   6.820   0.231
12273TIP3    H136776   2.020   6.842   0.140
12273TIP3    H236777   2.074   6.901   0.269
12274TIP3   OH236778   2.724   2.433   5.772
12274TIP3    H136779   2.713   2.447   5.678
12274TIP3    H236780   2.635   2.434   5.807
12275TIP3   OH236781   5.119   1.304   1.201
12275TIP3    H136782   5.160   1.271   1.121
12275TIP3    H236783   5.025   1.301   1.183
12276TIP3   OH236784   1.733   2.303   5.619
12276TIP3    H136785   1.701   2.213   5.612
12276TIP3    H236786   1.655   2.355   5.640
12277TIP3   OH236787   5.486   1.140   3.111
12277TIP3    H136788   5.549   1.071   3.131
12277TIP3    H236789   5.539   1.219   3.097
12278TIP3   OH236790   6.162   6.643   2.890
12278TIP3    H136791   6.098   6.588   2.843
12278TIP3    H236792   6.145   6.731   2.858
12279TIP3   OH236793   7.729   6.643   6.099
12279TIP3    H136794   7.636   6.654   6.116
12279TIP3    H236795   7.733   6.596   6.016
12280TIP3   OH236796   3.599   3.024   4.881
12280TIP3    H136797   3.670   3.013   4.943
12280TIP3    H236798   3.589   3.118   4.871
12281TIP3   OH236799   3.209   4.093   0.161
12281TIP3    H136800   3.256   4.175   0.147
12281TIP3    H236801   3.118   4.118   0.170
12282TIP3   OH236802   3.362   2.077   4.384
12282TIP3    H136803   3.449   2.050   4.413
12282TIP3    H236804   3.317   1.996   4.362
12283TIP3   OH236805   8.109   5.629   4.664
12283TIP3    H136806   8.195   5.643   4.702
12283TIP3    H236807   8.059   5.707   4.689
12284TIP3   OH236808   3.570   1.746   1.068
12284TIP3    H136809   3.572   1.789   1.153
12284TIP3    H236810   3.539   1.812   1.007
12285TIP3   OH236811   1.637   4.245   6.365
12285TIP3    H136812   1.661   4.337   6.371
12285TIP3    H236813   1.718   4.198   6.388
12286TIP3   OH236814   4.831   4.406   3.150
12286TIP3    H136815   4.885   4.419   3.072
12286TIP3    H236816   4.758   4.352   3.120
12287TIP3   OH236817   3.855   4.344   5.268
12287TIP3    H136818   3.767   4.318   5.297
12287TIP3    H236819   3.843   4.368   5.176
12288TIP3   OH236820   1.472   1.846   2.861
12288TIP3    H136821   1.499   1.878   2.947
12288TIP3    H236822   1.548   1.799   2.828
12289TIP3   OH236823   2.259   1.297   0.692
12289TIP3    H136824   2.166   1.290   0.669
12289TIP3    H236825   2.269   1.386   0.725
12290TIP3   OH236826   6.052   4.092  -0.005
12290TIP3    H136827   5.997   4.116   0.069
12290TIP3    H236828   6.103   4.017   0.025
12291TIP3   OH236829   2.490   2.758   2.384
12291TIP3    H136830   2.500   2.775   2.478
12291TIP3    H236831   2.567   2.800   2.345
12292TIP3   OH236832   1.869   3.562   1.116
12292TIP3    H136833   1.892   3.483   1.068
12292TIP3    H236834   1.864   3.535   1.207
12293TIP3   OH236835   3.524   6.481   1.880
12293TIP3    H136836   3.531   6.443   1.792
12293TIP3    H236837   3.523   6.405   1.939
12294TIP3   OH236838   5.844   0.242   0.382
12294TIP3    H136839   5.838   0.308   0.451
12294TIP3    H236840   5.802   0.164   0.419
12295TIP3   OH236841   4.843   1.487   1.082
12295TIP3    H136842   4.852   1.394   1.061
12295TIP3    H236843   4.838   1.490   1.177
12296TIP3   OH236844   1.110   5.460   3.740
12296TIP3    H136845   1.156   5.429   3.663
12296TIP3    H236846   1.018   5.465   3.713
12297TIP3   OH236847   5.127   6.451   5.077
12297TIP3    H136848   5.040   6.478   5.107
12297TIP3    H236849   5.178   6.532   5.078
12298TIP3   OH236850   4.800   1.567   5.144
12298TIP3    H136851   4.800   1.491   5.086
12298TIP3    H236852   4.766   1.534   5.227
12299TIP3   OH236853   1.008   6.668   5.984
12299TIP3    H136854   0.958   6.732   6.035
12299TIP3    H236855   0.941   6.618   5.937
12300TIP3   OH236856   6.701   3.954   4.104
12300TIP3    H136857   6.725   4.047   4.103
12300TIP3    H236858   6.619   3.951   4.153
12301TIP3   OH236859   1.165   6.509   0.560
12301TIP3    H136860   1.206   6.434   0.517
12301TIP3    H236861   1.183   6.583   0.501
12302TIP3   OH236862   7.112   1.674   4.905
12302TIP3    H136863   7.106   1.583   4.877
12302TIP3    H236864   7.035   1.716   4.867
12303TIP3   OH236865   5.810   5.953   1.292
12303TIP3    H136866   5.841   6.043   1.303
12303TIP3    H236867   5.815   5.916   1.380
12304TIP3   OH236868   4.592   1.077   6.075
12304TIP3    H136869   4.667   1.045   6.125
12304TIP3    H236870   4.545   1.134   6.136
12305TIP3   OH236871   6.538   6.875   4.434
12305TIP3    H136872   6.495   6.931   4.499
12305TIP3    H236873   6.466   6.824   4.397
12306TIP3   OH236874   0.774   7.775   4.433
12306TIP3    H136875   0.743   7.691   4.397
12306TIP3    H236876   0.786   7.831   4.356
12307TIP3   OH236877   0.833   3.960   0.065
12307TIP3    H136878   0.860   3.902   0.136
12307TIP3    H236879   0.776   3.906   0.010
12308TIP3   OH236880   4.717   3.370   3.140
12308TIP3    H136881   4.795   3.363   3.196
12308TIP3    H236882   4.750   3.359   3.051
12309TIP3   OH236883   4.453   0.083   1.024
12309TIP3    H136884   4.425   0.173   1.009
12309TIP3    H236885   4.523   0.068   0.960
12310TIP3   OH236886   5.837   0.783   2.313
12310TIP3    H136887   5.774   0.711   2.317
12310TIP3    H236888   5.835   0.811   2.221
12311TIP3   OH236889   5.167   3.414   5.773
12311TIP3    H136890   5.181   3.436   5.681
12311TIP3    H236891   5.162   3.318   5.774
12312TIP3   OH236892   7.689   5.734   6.354
12312TIP3    H136893   7.652   5.738   6.442
12312TIP3    H236894   7.784   5.743   6.367
12313TIP3   OH236895   1.299   2.093   5.226
12313TIP3    H136896   1.339   2.021   5.274
12313TIP3    H236897   1.329   2.082   5.136
12314TIP3   OH236898   3.635   3.862   0.077
12314TIP3    H136899   3.592   3.945   0.059
12314TIP3    H236900   3.651   3.824  -0.010
12315TIP3   OH236901   0.706   6.761   4.336
12315TIP3    H136902   0.775   6.718   4.387
12315TIP3    H236903   0.709   6.718   4.251
12316TIP3   OH236904   1.667   1.576   4.264
12316TIP3    H136905   1.592   1.547   4.211
12316TIP3    H236906   1.681   1.505   4.326
12317TIP3   OH236907   7.916   3.813   3.904
12317TIP3    H136908   7.920   3.717   3.905
12317TIP3    H236909   8.000   3.840   3.940
12318TIP3   OH236910   7.736   1.802   6.748
12318TIP3    H136911   7.645   1.774   6.756
12318TIP3    H236912   7.787   1.724   6.772
12319TIP3   OH236913   0.631   4.178   2.342
12319TIP3    H136914   0.609   4.211   2.429
12319TIP3    H236915   0.643   4.084   2.354
12320TIP3   OH236916   1.443   1.791   1.336
12320TIP3    H136917   1.438   1.756   1.425
12320TIP3    H236918   1.351   1.803   1.310
12321TIP3   OH236919   7.030   5.771   5.070
12321TIP3    H136920   6.960   5.793   5.131
12321TIP3    H236921   7.029   5.675   5.067
12322TIP3   OH236922   6.083   4.712   3.956
12322TIP3    H136923   6.081   4.621   3.928
12322TIP3    H236924   5.991   4.737   3.966
12323TIP3   OH236925   5.449   5.734   3.109
12323TIP3    H136926   5.540   5.714   3.088
12323TIP3    H236927   5.410   5.761   3.025
12324TIP3   OH236928   8.007   7.150   5.776
12324TIP3    H136929   8.022   7.243   5.759
12324TIP3    H236930   8.018   7.141   5.871
12325TIP3   OH236931   5.941   6.949   1.080
12325TIP3    H136932   5.919   7.020   1.020
12325TIP3    H236933   5.856   6.911   1.104
12326TIP3   OH236934   6.218   6.189   1.599
12326TIP3    H136935   6.171   6.142   1.531
12326TIP3    H236936   6.150   6.235   1.648
12327TIP3   OH236937   4.219   4.698   0.238
12327TIP3    H136938   4.249   4.787   0.218
12327TIP3    H236939   4.259   4.644   0.169
12328TIP3   OH236940   0.801   1.674   0.733
12328TIP3    H136941   0.727   1.615   0.715
12328TIP3    H236942   0.802   1.684   0.828
12329TIP3   OH236943   6.253   5.198   2.739
12329TIP3    H136944   6.344   5.211   2.766
12329TIP3    H236945   6.202   5.222   2.816
12330TIP3   OH236946   7.432   3.216   4.716
12330TIP3    H136947   7.346   3.256   4.727
12330TIP3    H236948   7.464   3.252   4.633
12331TIP3   OH236949   4.209   0.854   3.275
12331TIP3    H136950   4.215   0.766   3.312
12331TIP3    H236951   4.288   0.864   3.222
12332TIP3   OH236952   1.990   7.781   2.392
12332TIP3    H136953   1.981   7.719   2.319
12332TIP3    H236954   1.958   7.864   2.357
12333TIP3   OH236955   7.478   6.516   0.453
12333TIP3    H136956   7.446   6.586   0.511
12333TIP3    H236957   7.495   6.442   0.512
12334TIP3   OH236958   8.221   4.415   1.343
12334TIP3    H136959   8.300   4.369   1.317
12334TIP3    H236960   8.227   4.500   1.301
12335TIP3   OH236961   4.633   0.963   0.686
12335TIP3    H136962   4.709   0.905   0.677
12335TIP3    H236963   4.648   1.032   0.622
12336TIP3   OH236964   4.908   6.913   0.463
12336TIP3    H136965   4.897   6.873   0.376
12336TIP3    H236966   4.939   6.841   0.518
12337TIP3   OH236967   5.848   1.857   4.178
12337TIP3    H136968   5.767   1.807   4.162
12337TIP3    H236969   5.881   1.878   4.091
12338TIP3   OH236970   7.867   2.337   1.983
12338TIP3    H136971   7.820   2.374   1.908
12338TIP3    H236972   7.801   2.288   2.032
12339TIP3   OH236973   4.630   2.548   5.932
12339TIP3    H136974   4.603   2.483   5.996
12339TIP3    H236975   4.696   2.601   5.978
12340TIP3   OH236976   7.378   5.677   0.981
12340TIP3    H136977   7.295   5.647   0.944
12340TIP3    H236978   7.442   5.612   0.954
12341TIP3   OH236979   6.717   1.776   5.933
12341TIP3    H136980   6.694   1.869   5.926
12341TIP3    H236981   6.800   1.768   5.886
12342TIP3   OH236982   1.462   7.045   0.556
12342TIP3    H136983   1.509   6.963   0.540
12342TIP3    H236984   1.478   7.063   0.648
12343TIP3   OH236985   3.500   1.872   4.093
12343TIP3    H136986   3.421   1.836   4.053
12343TIP3    H236987   3.505   1.962   4.060
12344TIP3   OH236988   0.508   5.489   1.500
12344TIP3    H136989   0.587   5.437   1.483
12344TIP3    H236990   0.438   5.439   1.459
12345TIP3   OH236991   5.784   4.900   6.307
12345TIP3    H136992   5.766   4.825   6.363
12345TIP3    H236993   5.793   4.974   6.367
12346TIP3   OH236994   8.129   6.880   5.723
12346TIP3    H136995   8.098   6.970   5.736
12346TIP3    H236996   8.204   6.872   5.782
12347TIP3   OH236997   7.543   1.903   2.344
12347TIP3    H136998   7.475   1.934   2.405
12347TIP3    H236999   7.528   1.954   2.264
12348TIP3   OH237000   4.925   0.024   0.753
12348TIP3    H137001   4.966   0.037   0.839
12348TIP3    H237002   4.865   0.099   0.743
12349TIP3   OH237003   6.205   4.977   4.364
12349TIP3    H137004   6.283   4.971   4.419
12349TIP3    H237005   6.217   4.910   4.298
12350TIP3   OH237006   6.726   5.309   4.627
12350TIP3    H137007   6.782   5.385   4.613
12350TIP3    H237008   6.744   5.251   4.553
12351TIP3   OH237009   0.153   4.752   1.868
12351TIP3    H137010   0.149   4.847   1.854
12351TIP3    H237011   0.143   4.742   1.963
12352TIP3   OH237012   7.223   0.147   3.862
12352TIP3    H137013   7.228   0.051   3.869
12352TIP3    H237014   7.249   0.166   3.772
12353TIP3   OH237015   4.347   1.556   3.609
12353TIP3    H137016   4.408   1.630   3.606
12353TIP3    H237017   4.384   1.491   3.550
12354TIP3   OH237018   6.564   7.110   1.230
12354TIP3    H137019   6.536   7.177   1.293
12354TIP3    H237020   6.552   7.027   1.277
12355TIP3   OH237021   6.215   1.415   1.723
12355TIP3    H137022   6.173   1.463   1.795
12355TIP3    H237023   6.228   1.481   1.655
12356TIP3   OH237024   6.978   1.715   5.846
12356TIP3    H137025   7.045   1.682   5.905
12356TIP3    H237026   6.975   1.809   5.863
12357TIP3   OH237027   0.943   7.602   2.192
12357TIP3    H137028   0.865   7.652   2.216
12357TIP3    H237029   1.013   7.667   2.191
12358TIP3   OH237030   4.185   0.760   0.572
12358TIP3    H137031   4.193   0.740   0.479
12358TIP3    H237032   4.096   0.793   0.582
12359TIP3   OH237033   1.468   6.022   5.488
12359TIP3    H137034   1.536   5.976   5.439
12359TIP3    H237035   1.401   6.044   5.423
12360TIP3   OH237036   2.139   4.484   4.981
12360TIP3    H137037   2.050   4.502   5.012
12360TIP3    H237038   2.126   4.440   4.896
12361TIP3   OH237039   6.968   2.054   1.242
12361TIP3    H137040   7.038   2.002   1.203
12361TIP3    H237041   6.904   2.065   1.172
12362TIP3   OH237042   8.220   7.267   2.440
12362TIP3    H137043   8.237   7.343   2.496
12362TIP3    H237044   8.251   7.192   2.491
12363TIP3   OH237045   7.025   2.316   1.335
12363TIP3    H137046   7.074   2.366   1.269
12363TIP3    H237047   6.991   2.240   1.286
12364TIP3   OH237048   6.179   1.011   4.758
12364TIP3    H137049   6.112   0.944   4.769
12364TIP3    H237050   6.164   1.046   4.670
12365TIP3   OH237051   7.588   1.021   1.663
12365TIP3    H137052   7.549   0.943   1.624
12365TIP3    H237053   7.574   1.090   1.598
12366TIP3   OH237054   1.768   6.475   0.391
12366TIP3    H137055   1.857   6.440   0.390
12366TIP3    H237056   1.775   6.559   0.435
12367TIP3   OH237057   7.394   5.883   5.835
12367TIP3    H137058   7.310   5.843   5.856
12367TIP3    H237059   7.379   5.977   5.840
12368TIP3   OH237060   3.341   3.256   0.217
12368TIP3    H137061   3.356   3.277   0.125
12368TIP3    H237062   3.343   3.341   0.262
12369TIP3   OH237063   5.385   3.607   1.045
12369TIP3    H137064   5.336   3.607   1.127
12369TIP3    H237065   5.470   3.646   1.067
12370TIP3   OH237066   0.504   1.293   5.336
12370TIP3    H137067   0.568   1.319   5.270
12370TIP3    H237068   0.554   1.243   5.400
12371TIP3   OH237069   3.951   0.197   4.058
12371TIP3    H137070   3.904   0.185   3.976
12371TIP3    H237071   4.029   0.141   4.050
12372TIP3   OH237072   1.612   5.479   0.995
12372TIP3    H137073   1.662   5.532   0.933
12372TIP3    H237074   1.554   5.541   1.039
12373TIP3   OH237075   1.947   7.363   0.564
12373TIP3    H137076   1.913   7.344   0.477
12373TIP3    H237077   2.031   7.407   0.549
12374TIP3   OH237078   7.882   3.266   4.276
12374TIP3    H137079   7.847   3.254   4.188
12374TIP3    H237080   7.968   3.306   4.263
12375TIP3   OH237081   4.805   4.831   6.100
12375TIP3    H137082   4.723   4.880   6.096
12375TIP3    H237083   4.791   4.765   6.167
12376TIP3   OH237084   0.437   5.875   2.269
12376TIP3    H137085   0.500   5.807   2.247
12376TIP3    H237086   0.416   5.859   2.361
12377TIP3   OH237087   0.572   6.829   0.305
12377TIP3    H137088   0.506   6.814   0.237
12377TIP3    H237089   0.531   6.800   0.386
12378TIP3   OH237090   0.474   4.498   1.274
12378TIP3    H137091   0.458   4.498   1.369
12378TIP3    H237092   0.439   4.582   1.244
12379TIP3   OH237093   2.078   6.889   2.339
12379TIP3    H137094   1.996   6.862   2.380
12379TIP3    H237095   2.070   6.983   2.326
12380TIP3   OH237096   6.552   0.178   2.870
12380TIP3    H137097   6.506   0.249   2.826
12380TIP3    H237098   6.631   0.220   2.905
12381TIP3   OH237099   3.453   2.544   2.233
12381TIP3    H137100   3.521   2.478   2.220
12381TIP3    H237101   3.485   2.622   2.187
12382TIP3   OH237102   1.815   3.168   0.505
12382TIP3    H137103   1.869   3.168   0.426
12382TIP3    H237104   1.740   3.223   0.482
12383TIP3   OH237105   3.967   2.110   0.339
12383TIP3    H137106   4.020   2.030   0.341
12383TIP3    H237107   4.029   2.180   0.362
12384TIP3   OH237108   6.221   3.886   5.414
12384TIP3    H137109   6.202   3.965   5.465
12384TIP3    H237110   6.305   3.855   5.449
12385TIP3   OH237111   4.492   6.454   6.498
12385TIP3    H137112   4.588   6.455   6.494
12385TIP3    H237113   4.471   6.422   6.586
12386TIP3   OH237114   3.002   1.991   6.507
12386TIP3    H137115   2.987   1.909   6.553
12386TIP3    H237116   2.921   2.007   6.459
12387TIP3   OH237117   6.905   2.291   5.289
12387TIP3    H137118   6.863   2.207   5.308
12387TIP3    H237119   6.849   2.356   5.331
12388TIP3   OH237120   2.094   1.217   4.799
12388TIP3    H137121   2.147   1.150   4.757
12388TIP3    H237122   2.007   1.178   4.808
12389TIP3   OH237123   1.570   7.396   1.027
12389TIP3    H137124   1.608   7.310   1.044
12389TIP3    H237125   1.521   7.417   1.107
12390TIP3   OH237126   4.013   7.145   5.419
12390TIP3    H137127   4.003   7.114   5.510
12390TIP3    H237128   3.926   7.133   5.381
12391TIP3   OH237129   3.999   4.843   0.553
12391TIP3    H137130   4.070   4.779   0.553
12391TIP3    H237131   4.004   4.886   0.638
12392TIP3   OH237132   7.616   4.763   5.347
12392TIP3    H137133   7.680   4.808   5.403
12392TIP3    H237134   7.637   4.793   5.259
12393TIP3   OH237135   6.971   5.898   2.222
12393TIP3    H137136   6.937   5.932   2.305
12393TIP3    H237137   7.065   5.894   2.235
12394TIP3   OH237138   1.312   4.262   1.379
12394TIP3    H137139   1.307   4.352   1.348
12394TIP3    H237140   1.222   4.229   1.370
12395TIP3   OH237141   4.732   5.302   5.630
12395TIP3    H137142   4.694   5.311   5.718
12395TIP3    H237143   4.758   5.210   5.625
12396TIP3   OH237144   2.217   4.849   5.545
12396TIP3    H137145   2.250   4.778   5.489
12396TIP3    H237146   2.271   4.924   5.522
12397TIP3   OH237147   6.088   4.330   5.895
12397TIP3    H137148   6.133   4.393   5.838
12397TIP3    H237149   6.021   4.292   5.839
12398TIP3   OH237150   4.985   1.030   5.131
12398TIP3    H137151   4.920   1.011   5.064
12398TIP3    H237152   5.042   1.096   5.091
12399TIP3   OH237153   6.840   6.640   2.134
12399TIP3    H137154   6.801   6.586   2.066
12399TIP3    H237155   6.934   6.626   2.125
12400TIP3   OH237156   2.404   0.162   5.998
12400TIP3    H137157   2.328   0.167   6.056
12400TIP3    H237158   2.388   0.084   5.944
12401TIP3   OH237159   7.768   5.607   6.073
12401TIP3    H137160   7.776   5.533   6.133
12401TIP3    H237161   7.847   5.659   6.088
12402TIP3   OH237162   4.079   2.412   0.702
12402TIP3    H137163   3.997   2.453   0.730
12402TIP3    H237164   4.143   2.438   0.767
12403TIP3   OH237165   2.952   2.529   0.894
12403TIP3    H137166   2.926   2.601   0.837
12403TIP3    H237167   3.015   2.479   0.842
12404TIP3   OH237168   4.678   2.448   1.081
12404TIP3    H137169   4.771   2.427   1.094
12404TIP3    H237170   4.665   2.440   0.986
12405TIP3   OH237171   3.955   4.345   1.839
12405TIP3    H137172   4.033   4.323   1.889
12405TIP3    H237173   3.957   4.441   1.834
12406TIP3   OH237174   3.701   0.336   1.610
12406TIP3    H137175   3.653   0.393   1.670
12406TIP3    H237176   3.704   0.251   1.653
12407TIP3   OH237177   1.462   6.046   4.839
12407TIP3    H137178   1.420   6.117   4.790
12407TIP3    H237179   1.533   6.089   4.886
12408TIP3   OH237180   1.552   1.400   3.669
12408TIP3    H137181   1.520   1.384   3.580
12408TIP3    H237182   1.528   1.491   3.687
12409TIP3   OH237183   5.533   1.858   6.622
12409TIP3    H137184   5.497   1.938   6.585
12409TIP3    H237185   5.607   1.888   6.676
12410TIP3   OH237186   4.949   7.424   3.319
12410TIP3    H137187   4.905   7.340   3.304
12410TIP3    H237188   5.042   7.403   3.314
12411TIP3   OH237189   3.540   6.325   6.048
12411TIP3    H137190   3.471   6.259   6.046
12411TIP3    H237191   3.620   6.277   6.029
12412TIP3   OH237192   4.827   6.431   2.412
12412TIP3    H137193   4.775   6.368   2.461
12412TIP3    H237194   4.889   6.378   2.362
12413TIP3   OH237195   5.743   4.096   1.082
12413TIP3    H137196   5.705   4.031   1.022
12413TIP3    H237197   5.706   4.179   1.053
12414TIP3   OH237198   4.233   4.917   2.438
12414TIP3    H137199   4.154   4.972   2.437
12414TIP3    H237200   4.236   4.882   2.527
12415TIP3   OH237201   2.903   6.729   0.353
12415TIP3    H137202   2.996   6.739   0.337
12415TIP3    H237203   2.863   6.808   0.318
12416TIP3   OH237204   6.638   0.662   4.866
12416TIP3    H137205   6.695   0.630   4.796
12416TIP3    H237206   6.566   0.598   4.868
12417TIP3   OH237207   3.619   7.333   6.237
12417TIP3    H137208   3.653   7.321   6.148
12417TIP3    H237209   3.534   7.376   6.225
12418TIP3   OH237210   3.115   6.943   2.336
12418TIP3    H137211   3.147   7.005   2.402
12418TIP3    H237212   3.027   6.919   2.367
12419TIP3   OH237213   4.553   0.813   5.322
12419TIP3    H137214   4.550   0.720   5.344
12419TIP3    H237215   4.473   0.828   5.272
12420TIP3   OH237216   0.070   0.121   5.582
12420TIP3    H137217   0.122   0.169   5.518
12420TIP3    H237218   0.133   0.063   5.625
12421TIP3   OH237219   2.018   5.692   3.676
12421TIP3    H137220   2.024   5.598   3.661
12421TIP3    H237221   2.072   5.707   3.754
12422TIP3   OH237222   2.098   1.097   1.994
12422TIP3    H137223   2.161   1.169   1.992
12422TIP3    H237224   2.148   1.023   2.028
12423TIP3   OH237225   0.536   4.332   0.634
12423TIP3    H137226   0.551   4.261   0.572
12423TIP3    H237227   0.462   4.381   0.598
12424TIP3   OH237228   2.690   5.133   5.573
12424TIP3    H137229   2.717   5.093   5.491
12424TIP3    H237230   2.594   5.137   5.568
12425TIP3   OH237231   3.043   5.243   5.136
12425TIP3    H137232   3.110   5.227   5.069
12425TIP3    H237233   2.976   5.177   5.119
12426TIP3   OH237234  -0.010   1.569   0.683
12426TIP3    H137235   0.071   1.616   0.703
12426TIP3    H237236  -0.024   1.584   0.589
12427TIP3   OH237237   5.396   1.680   1.468
12427TIP3    H137238   5.357   1.677   1.555
12427TIP3    H237239   5.378   1.593   1.431
12428TIP3   OH237240   0.469   7.241   2.875
12428TIP3    H137241   0.552   7.200   2.850
12428TIP3    H237242   0.473   7.329   2.836
12429TIP3   OH237243   3.761   6.237   1.041
12429TIP3    H137244   3.832   6.222   0.979
12429TIP3    H237245   3.802   6.282   1.115
12430TIP3   OH237246   6.050   6.404   4.388
12430TIP3    H137247   6.036   6.439   4.476
12430TIP3    H237248   6.056   6.310   4.399
12431TIP3   OH237249   8.222   0.084   0.969
12431TIP3    H137250   8.128   0.104   0.974
12431TIP3    H237251   8.231   0.000   1.015
12432TIP3   OH237252   4.167   5.533   0.358
12432TIP3    H137253   4.115   5.517   0.279
12432TIP3    H237254   4.256   5.509   0.333
12433TIP3   OH237255   6.787   2.361   0.625
12433TIP3    H137256   6.700   2.334   0.655
12433TIP3    H237257   6.773   2.444   0.579
12434TIP3   OH237258   1.135   7.541   6.383
12434TIP3    H137259   1.074   7.586   6.324
12434TIP3    H237260   1.216   7.592   6.376
12435TIP3   OH237261   7.366   0.682   4.586
12435TIP3    H137262   7.296   0.736   4.549
12435TIP3    H237263   7.447   0.721   4.552
12436TIP3   OH237264   1.791   5.723   3.860
12436TIP3    H137265   1.865   5.719   3.800
12436TIP3    H237266   1.718   5.685   3.812
12437TIP3   OH237267   7.184   7.715   6.087
12437TIP3    H137268   7.172   7.792   6.143
12437TIP3    H237269   7.191   7.642   6.148
12438TIP3   OH237270   6.459   3.634   0.481
12438TIP3    H137271   6.490   3.553   0.441
12438TIP3    H237272   6.510   3.641   0.562
12439TIP3   OH237273   7.642   4.298   0.607
12439TIP3    H137274   7.596   4.214   0.604
12439TIP3    H237275   7.599   4.348   0.677
12440TIP3   OH237276   5.688   5.405   1.577
12440TIP3    H137277   5.640   5.390   1.659
12440TIP3    H237278   5.620   5.423   1.513
12441TIP3   OH237279   7.761   4.815   1.279
12441TIP3    H137280   7.758   4.791   1.186
12441TIP3    H237281   7.669   4.817   1.306
12442TIP3   OH237282   0.089   6.906   3.596
12442TIP3    H137283   0.150   6.913   3.522
12442TIP3    H237284   0.064   6.813   3.598
12443TIP3   OH237285   0.216   7.154   0.177
12443TIP3    H137286   0.262   7.099   0.115
12443TIP3    H237287   0.123   7.137   0.160
12444TIP3   OH237288   0.461   3.619   3.272
12444TIP3    H137289   0.555   3.635   3.279
12444TIP3    H237290   0.446   3.603   3.179
12445TIP3   OH237291   1.031   4.618   3.558
12445TIP3    H137292   1.110   4.614   3.503
12445TIP3    H237293   1.036   4.703   3.601
12446TIP3   OH237294   6.496   5.256   4.113
12446TIP3    H137295   6.520   5.213   4.030
12446TIP3    H237296   6.489   5.183   4.175
12447TIP3   OH237297   7.264   4.352   3.242
12447TIP3    H137298   7.331   4.372   3.308
12447TIP3    H237299   7.181   4.360   3.289
12448TIP3   OH237300   1.178   3.340   5.681
12448TIP3    H137301   1.239   3.387   5.623
12448TIP3    H237302   1.222   3.257   5.699
12449TIP3   OH237303   4.133   3.088   6.645
12449TIP3    H137304   4.222   3.075   6.611
12449TIP3    H237305   4.110   3.004   6.683
12450TIP3   OH237306   3.406   5.454   2.928
12450TIP3    H137307   3.389   5.543   2.897
12450TIP3    H237308   3.419   5.403   2.849
12451TIP3   OH237309   4.093   4.142   0.128
12451TIP3    H137310   4.043   4.184   0.198
12451TIP3    H237311   4.050   4.171   0.048
12452TIP3   OH237312   5.512   0.428   2.830
12452TIP3    H137313   5.472   0.441   2.744
12452TIP3    H237314   5.579   0.362   2.815
12453TIP3   OH237315   5.985   2.956   2.625
12453TIP3    H137316   5.890   2.943   2.617
12453TIP3    H237317   6.005   2.923   2.713
12454TIP3   OH237318   5.314   1.569   5.352
12454TIP3    H137319   5.232   1.613   5.331
12454TIP3    H237320   5.344   1.532   5.269
12455TIP3   OH237321   5.142   4.104   4.144
12455TIP3    H137322   5.190   4.068   4.218
12455TIP3    H237323   5.207   4.155   4.095
12456TIP3   OH237324   6.165   2.940   1.677
12456TIP3    H137325   6.258   2.916   1.681
12456TIP3    H237326   6.164   3.032   1.703
12457TIP3   OH237327   3.438   7.558   0.338
12457TIP3    H137328   3.393   7.476   0.315
12457TIP3    H237329   3.466   7.545   0.428
12458TIP3   OH237330   7.778   0.356   3.329
12458TIP3    H137331   7.869   0.386   3.332
12458TIP3    H237332   7.770   0.298   3.404
12459TIP3   OH237333   8.151   7.558   0.574
12459TIP3    H137334   8.228   7.501   0.567
12459TIP3    H237335   8.085   7.503   0.618
12460TIP3   OH237336   2.891   3.876   3.937
12460TIP3    H137337   2.892   3.818   4.014
12460TIP3    H237338   2.809   3.855   3.892
12461TIP3   OH237339   0.561   3.827   3.620
12461TIP3    H137340   0.534   3.737   3.640
12461TIP3    H237341   0.509   3.851   3.543
12462TIP3   OH237342   4.182   7.252   0.903
12462TIP3    H137343   4.123   7.265   0.977
12462TIP3    H237344   4.247   7.189   0.934
12463TIP3   OH237345   2.605   0.592   1.697
12463TIP3    H137346   2.580   0.573   1.606
12463TIP3    H237347   2.524   0.583   1.746
12464TIP3   OH237348   7.733   7.087   4.176
12464TIP3    H137349   7.639   7.092   4.159
12464TIP3    H237350   7.773   7.129   4.100
12465TIP3   OH237351   6.543   7.386   5.036
12465TIP3    H137352   6.491   7.307   5.029
12465TIP3    H237353   6.591   7.377   5.118
12466TIP3   OH237354   3.590   2.003   5.390
12466TIP3    H137355   3.530   2.076   5.405
12466TIP3    H237356   3.666   2.024   5.445
12467TIP3   OH237357   4.340   4.556   6.562
12467TIP3    H137358   4.312   4.503   6.637
12467TIP3    H237359   4.423   4.594   6.589
12468TIP3   OH237360   1.518   0.735   4.995
12468TIP3    H137361   1.426   0.708   4.994
12468TIP3    H237362   1.566   0.656   4.973
12469TIP3   OH237363   8.066   1.288   2.273
12469TIP3    H137364   8.073   1.222   2.342
12469TIP3    H237365   8.147   1.338   2.279
12470TIP3   OH237366   5.345   0.322   6.165
12470TIP3    H137367   5.309   0.407   6.192
12470TIP3    H237368   5.323   0.263   6.236
12471TIP3   OH237369   6.240   0.238   6.192
12471TIP3    H137370   6.183   0.183   6.138
12471TIP3    H237371   6.269   0.180   6.263
12472TIP3   OH237372   7.046   3.929   5.770
12472TIP3    H137373   7.040   3.978   5.688
12472TIP3    H237374   7.042   3.996   5.838
12473TIP3   OH237375   0.082   1.375   3.719
12473TIP3    H137376   0.012   1.439   3.735
12473TIP3    H237377   0.124   1.364   3.804
12474TIP3   OH237378   6.728   3.514   3.826
12474TIP3    H137379   6.648   3.539   3.780
12474TIP3    H237380   6.778   3.596   3.834
12475TIP3   OH237381   6.874   0.484   5.022
12475TIP3    H137382   6.898   0.419   4.955
12475TIP3    H237383   6.787   0.456   5.051
12476TIP3   OH237384   3.245   1.150   4.165
12476TIP3    H137385   3.255   1.098   4.085
12476TIP3    H237386   3.151   1.162   4.174
12477TIP3   OH237387   3.520   5.603   4.986
12477TIP3    H137388   3.454   5.542   5.017
12477TIP3    H237389   3.590   5.547   4.951
12478TIP3   OH237390   2.327   0.354   4.488
12478TIP3    H137391   2.398   0.328   4.547
12478TIP3    H237392   2.264   0.397   4.545
12479TIP3   OH237393   6.648   4.292   5.179
12479TIP3    H137394   6.698   4.350   5.237
12479TIP3    H237395   6.704   4.280   5.103
12480TIP3   OH237396   5.776   1.223   3.246
12480TIP3    H137397   5.763   1.278   3.169
12480TIP3    H237398   5.769   1.133   3.213
12481TIP3   OH237399   5.924   4.932   4.629
12481TIP3    H137400   5.971   4.977   4.700
12481TIP3    H237401   5.965   4.963   4.549
12482TIP3   OH237402   3.740   3.318   5.279
12482TIP3    H137403   3.737   3.242   5.337
12482TIP3    H237404   3.834   3.332   5.264
12483TIP3   OH237405   7.086   5.182   6.215
12483TIP3    H137406   7.008   5.203   6.266
12483TIP3    H237407   7.147   5.145   6.279
12484TIP3   OH237408   2.236   0.404   3.938
12484TIP3    H137409   2.152   0.358   3.936
12484TIP3    H237410   2.260   0.406   4.030
12485TIP3   OH237411   6.894   5.118   0.832
12485TIP3    H137412   6.833   5.051   0.862
12485TIP3    H237413   6.895   5.183   0.902
12486TIP3   OH237414   0.591   0.330   2.062
12486TIP3    H137415   0.623   0.345   1.973
12486TIP3    H237416   0.502   0.296   2.050
12487TIP3   OH237417   6.691   6.469   6.430
12487TIP3    H137418   6.650   6.530   6.368
12487TIP3    H237419   6.636   6.390   6.425
12488TIP3   OH237420   3.738   7.738   6.568
12488TIP3    H137421   3.747   7.712   6.476
12488TIP3    H237422   3.800   7.810   6.579
12489TIP3   OH237423   2.495   6.617   2.260
12489TIP3    H137424   2.535   6.546   2.311
12489TIP3    H237425   2.454   6.573   2.186
12490TIP3   OH237426   3.455   3.518   4.589
12490TIP3    H137427   3.378   3.493   4.539
12490TIP3    H237428   3.495   3.435   4.615
12491TIP3   OH237429   3.722   4.329   1.090
12491TIP3    H137430   3.631   4.319   1.118
12491TIP3    H237431   3.768   4.256   1.131
12492TIP3   OH237432   5.630   1.368   1.979
12492TIP3    H137433   5.658   1.286   1.938
12492TIP3    H237434   5.686   1.435   1.939
12493TIP3   OH237435   3.652   1.233   1.146
12493TIP3    H137436   3.689   1.270   1.227
12493TIP3    H237437   3.714   1.260   1.078
12494TIP3   OH237438   0.509   5.838   6.326
12494TIP3    H137439   0.489   5.766   6.266
12494TIP3    H237440   0.487   5.804   6.413
12495TIP3   OH237441   3.702   6.297   4.755
12495TIP3    H137442   3.616   6.294   4.713
12495TIP3    H237443   3.737   6.208   4.747
12496TIP3   OH237444   1.165   5.902   3.627
12496TIP3    H137445   1.082   5.948   3.637
12496TIP3    H237446   1.154   5.850   3.547
12497TIP3   OH237447   1.540   2.132   5.462
12497TIP3    H137448   1.449   2.141   5.433
12497TIP3    H237449   1.585   2.095   5.387
12498TIP3   OH237450   2.838   2.582   4.486
12498TIP3    H137451   2.763   2.557   4.431
12498TIP3    H237452   2.914   2.557   4.434
12499TIP3   OH237453   0.337   4.227   0.035
12499TIP3    H137454   0.273   4.187  -0.025
12499TIP3    H237455   0.422   4.202  -0.001
12500TIP3   OH237456   5.742   0.742   1.350
12500TIP3    H137457   5.705   0.691   1.278
12500TIP3    H237458   5.772   0.823   1.310
12501TIP3   OH237459   0.271   4.971   4.029
12501TIP3    H137460   0.183   4.963   4.065
12501TIP3    H237461   0.327   4.988   4.104
12502TIP3   OH237462   3.435   2.600   5.946
12502TIP3    H137463   3.410   2.650   6.023
12502TIP3    H237464   3.443   2.510   5.977
12503TIP3   OH237465   6.591   4.710   2.126
12503TIP3    H137466   6.533   4.717   2.050
12503TIP3    H237467   6.567   4.626   2.166
12504TIP3   OH237468   0.337   5.139   0.791
12504TIP3    H137469   0.353   5.163   0.700
12504TIP3    H237470   0.371   5.213   0.842
12505TIP3   OH237471   7.354   6.174   6.393
12505TIP3    H137472   7.310   6.092   6.374
12505TIP3    H237473   7.284   6.233   6.421
12506TIP3   OH237474   7.187   6.984   4.003
12506TIP3    H137475   7.215   7.046   4.071
12506TIP3    H237476   7.093   7.000   3.993
12507TIP3   OH237477   5.018   3.975   5.545
12507TIP3    H137478   4.958   3.988   5.618
12507TIP3    H237479   5.055   3.888   5.560
12508TIP3   OH237480   5.203   3.481   0.868
12508TIP3    H137481   5.255   3.507   0.944
12508TIP3    H237482   5.187   3.388   0.880
12509TIP3   OH237483   5.410   2.458   6.395
12509TIP3    H137484   5.395   2.411   6.313
12509TIP3    H237485   5.422   2.550   6.368
12510TIP3   OH237486   5.241   1.687   2.520
12510TIP3    H137487   5.179   1.656   2.587
12510TIP3    H237488   5.313   1.625   2.524
12511TIP3   OH237489   3.402   6.265   1.999
12511TIP3    H137490   3.370   6.295   2.084
12511TIP3    H237491   3.448   6.183   2.019
12512TIP3   OH237492   2.483   1.059   5.091
12512TIP3    H137493   2.489   1.126   5.159
12512TIP3    H237494   2.506   0.978   5.136
12513TIP3   OH237495   7.614   1.426   6.778
12513TIP3    H137496   7.689   1.481   6.801
12513TIP3    H237497   7.587   1.385   6.860
12514TIP3   OH237498   3.505   2.992   3.842
12514TIP3    H137499   3.467   3.012   3.927
12514TIP3    H237500   3.534   2.901   3.849
12515TIP3   OH237501   5.851   2.526   4.622
12515TIP3    H137502   5.840   2.508   4.715
12515TIP3    H237503   5.945   2.538   4.611
12516TIP3   OH237504   7.137   7.308   1.087
12516TIP3    H137505   7.100   7.394   1.108
12516TIP3    H237506   7.207   7.326   1.026
12517TIP3   OH237507   8.287   6.932   2.210
12517TIP3    H137508   8.251   6.854   2.253
12517TIP3    H237509   8.214   6.968   2.160
12518TIP3   OH237510   2.229   2.450   5.986
12518TIP3    H137511   2.211   2.366   6.029
12518TIP3    H237512   2.169   2.512   6.028
12519TIP3   OH237513   4.205   1.442   3.811
12519TIP3    H137514   4.245   1.475   3.731
12519TIP3    H237515   4.228   1.350   3.813
12520TIP3   OH237516   0.935   3.765   5.005
12520TIP3    H137517   1.030   3.776   5.018
12520TIP3    H237518   0.896   3.838   5.053
12521TIP3   OH237519   7.635   1.889   5.358
12521TIP3    H137520   7.629   1.816   5.297
12521TIP3    H237521   7.729   1.900   5.372
12522TIP3   OH237522   0.295   7.225   1.550
12522TIP3    H137523   0.204   7.254   1.562
12522TIP3    H237524   0.337   7.297   1.502
12523TIP3   OH237525   5.568   1.103   4.705
12523TIP3    H137526   5.607   1.190   4.702
12523TIP3    H237527   5.580   1.074   4.796
12524TIP3   OH237528   3.025   6.940   3.149
12524TIP3    H137529   2.984   6.961   3.233
12524TIP3    H237530   3.067   6.855   3.164
12525TIP3   OH237531   6.264   4.493   2.831
12525TIP3    H137532   6.306   4.572   2.865
12525TIP3    H237533   6.335   4.442   2.793
12526TIP3   OH237534   0.883   0.530   5.743
12526TIP3    H137535   0.974   0.552   5.764
12526TIP3    H237536   0.832   0.569   5.814
12527TIP3   OH237537   4.258   1.652   2.470
12527TIP3    H137538   4.333   1.664   2.412
12527TIP3    H237539   4.296   1.641   2.557
12528TIP3   OH237540   4.594   1.202   3.094
12528TIP3    H137541   4.609   1.197   3.188
12528TIP3    H237542   4.499   1.205   3.084
12529TIP3   OH237543   7.823   3.237   3.539
12529TIP3    H137544   7.854   3.293   3.468
12529TIP3    H237545   7.759   3.290   3.585
12530TIP3   OH237546   5.730   7.326   5.861
12530TIP3    H137547   5.825   7.311   5.862
12530TIP3    H237548   5.703   7.313   5.952
12531TIP3   OH237549   5.758   2.149   0.306
12531TIP3    H137550   5.819   2.076   0.302
12531TIP3    H237551   5.698   2.127   0.377
12532TIP3   OH237552   1.511   2.143   1.008
12532TIP3    H137553   1.597   2.114   0.978
12532TIP3    H237554   1.479   2.072   1.063
12533TIP3   OH237555   5.355   7.600   2.260
12533TIP3    H137556   5.286   7.639   2.314
12533TIP3    H237557   5.309   7.546   2.196
12534TIP3   OH237558   3.069   5.575   0.114
12534TIP3    H137559   3.164   5.564   0.114
12534TIP3    H237560   3.043   5.559   0.205
12535TIP3   OH237561   1.608   3.521   4.622
12535TIP3    H137562   1.529   3.532   4.675
12535TIP3    H237563   1.587   3.449   4.562
12536TIP3   OH237564   0.679   4.247   6.505
12536TIP3    H137565   0.589   4.215   6.503
12536TIP3    H237566   0.675   4.336   6.470
12537TIP3   OH237567   3.597   6.681   6.524
12537TIP3    H137568   3.552   6.686   6.440
12537TIP3    H237569   3.686   6.655   6.503
12538TIP3   OH237570   2.093   0.880   3.120
12538TIP3    H137571   2.009   0.838   3.135
12538TIP3    H237572   2.142   0.817   3.067
12539TIP3   OH237573   4.963   7.556   0.636
12539TIP3    H137574   5.010   7.566   0.554
12539TIP3    H237575   4.885   7.506   0.613
12540TIP3   OH237576   1.213   2.998   3.117
12540TIP3    H137577   1.227   2.976   3.025
12540TIP3    H237578   1.288   3.053   3.140
12541TIP3   OH237579   0.058   4.871   2.610
12541TIP3    H137580   0.131   4.810   2.601
12541TIP3    H237581   0.065   4.904   2.700
12542TIP3   OH237582   1.628   3.834   3.196
12542TIP3    H137583   1.660   3.850   3.284
12542TIP3    H237584   1.597   3.919   3.166
12543TIP3   OH237585   7.858   7.105   1.406
12543TIP3    H137586   7.911   7.182   1.426
12543TIP3    H237587   7.859   7.100   1.310
12544TIP3   OH237588   2.365   7.722   2.708
12544TIP3    H137589   2.336   7.813   2.712
12544TIP3    H237590   2.460   7.726   2.721
12545TIP3   OH237591   4.384   0.232   5.602
12545TIP3    H137592   4.462   0.261   5.556
12545TIP3    H237593   4.417   0.169   5.667
12546TIP3   OH237594   0.531   4.274   3.496
12546TIP3    H137595   0.614   4.241   3.531
12546TIP3    H237596   0.513   4.219   3.419
12547TIP3   OH237597   5.374   1.539   3.945
12547TIP3    H137598   5.446   1.590   3.908
12547TIP3    H237599   5.416   1.462   3.983
12548TIP3   OH237600   1.865   1.328   5.230
12548TIP3    H137601   1.785   1.275   5.229
12548TIP3    H237602   1.917   1.292   5.302
12549TIP3   OH237603   6.952   0.604   2.853
12549TIP3    H137604   7.009   0.616   2.777
12549TIP3    H237605   6.937   0.693   2.886
12550TIP3   OH237606   5.049   1.748   4.590
12550TIP3    H137607   4.991   1.823   4.600
12550TIP3    H237608   5.056   1.712   4.678
12551TIP3   OH237609   3.011   2.345   1.977
12551TIP3    H137610   2.963   2.383   2.050
12551TIP3    H237611   3.034   2.257   2.006
12552TIP3   OH237612   4.349   3.570   5.487
12552TIP3    H137613   4.349   3.482   5.450
12552TIP3    H237614   4.295   3.622   5.427
12553TIP3   OH237615   7.981   2.391   2.924
12553TIP3    H137616   8.000   2.299   2.943
12553TIP3    H237617   7.995   2.436   3.008
12554TIP3   OH237618   7.970   6.775   6.014
12554TIP3    H137619   8.024   6.851   6.035
12554TIP3    H237620   7.904   6.773   6.083
12555TIP3   OH237621   6.243   3.301   0.436
12555TIP3    H137622   6.257   3.353   0.357
12555TIP3    H237623   6.327   3.256   0.450
12556TIP3   OH237624   0.509   2.451   3.051
12556TIP3    H137625   0.482   2.541   3.031
12556TIP3    H237626   0.554   2.422   2.971
12557TIP3   OH237627   4.593   2.958   2.196
12557TIP3    H137628   4.682   2.923   2.200
12557TIP3    H237629   4.604   3.050   2.173
12558TIP3   OH237630   1.229   6.227   2.684
12558TIP3    H137631   1.137   6.220   2.660
12558TIP3    H237632   1.273   6.254   2.604
12559TIP3   OH237633   1.589   2.918   0.884
12559TIP3    H137634   1.613   2.881   0.970
12559TIP3    H237635   1.673   2.935   0.842
12560TIP3   OH237636   7.903   0.499   5.355
12560TIP3    H137637   7.912   0.593   5.371
12560TIP3    H237638   7.956   0.458   5.424
12561TIP3   OH237639   6.174   4.416   1.976
12561TIP3    H137640   6.099   4.359   1.962
12561TIP3    H237641   6.226   4.372   2.043
12562TIP3   OH237642   6.629   3.204   5.998
12562TIP3    H137643   6.565   3.220   5.929
12562TIP3    H237644   6.704   3.164   5.953
12563TIP3   OH237645   4.877   4.081   3.719
12563TIP3    H137646   4.791   4.048   3.744
12563TIP3    H237647   4.933   4.064   3.795
12564TIP3   OH237648   4.674   0.450   6.691
12564TIP3    H137649   4.712   0.512   6.753
12564TIP3    H237650   4.645   0.377   6.746
12565TIP3   OH237651   6.426   0.729   2.851
12565TIP3    H137652   6.401   0.820   2.836
12565TIP3    H237653   6.481   0.731   2.930
12566TIP3   OH237654   0.086   6.352   3.986
12566TIP3    H137655   0.160   6.366   3.926
12566TIP3    H237656   0.088   6.258   4.004
12567TIP3   OH237657   0.452   2.718   6.470
12567TIP3    H137658   0.526   2.677   6.426
12567TIP3    H237659   0.437   2.663   6.547
12568TIP3   OH237660   0.968   4.325   4.203
12568TIP3    H137661   0.938   4.260   4.139
12568TIP3    H237662   1.064   4.320   4.199
12569TIP3   OH237663   5.288   2.448   6.151
12569TIP3    H137664   5.212   2.401   6.115
12569TIP3    H237665   5.283   2.535   6.111
12570TIP3   OH237666   3.899   3.354   1.389
12570TIP3    H137667   3.905   3.373   1.482
12570TIP3    H237668   3.958   3.279   1.376
12571TIP3   OH237669   7.228   3.856   5.316
12571TIP3    H137670   7.169   3.795   5.272
12571TIP3    H237671   7.236   3.930   5.255
12572TIP3   OH237672   2.169   1.908   2.808
12572TIP3    H137673   2.235   1.973   2.832
12572TIP3    H237674   2.208   1.860   2.734
12573TIP3   OH237675   5.493   7.645   2.514
12573TIP3    H137676   5.464   7.639   2.422
12573TIP3    H237677   5.519   7.556   2.536
12574TIP3   OH237678   1.384   6.288   5.647
12574TIP3    H137679   1.386   6.355   5.579
12574TIP3    H237680   1.438   6.217   5.612
12575TIP3   OH237681   6.516   3.224   4.794
12575TIP3    H137682   6.533   3.201   4.886
12575TIP3    H237683   6.481   3.144   4.755
12576TIP3   OH237684   2.429   7.291   0.435
12576TIP3    H137685   2.347   7.340   0.437
12576TIP3    H237686   2.445   7.268   0.527
12577TIP3   OH237687   0.113   1.833   1.024
12577TIP3    H137688   0.019   1.820   1.016
12577TIP3    H237689   0.125   1.870   1.111
12578TIP3   OH237690   3.925   3.386   2.645
12578TIP3    H137691   3.997   3.323   2.647
12578TIP3    H237692   3.946   3.449   2.714
12579TIP3   OH237693   6.906   5.639   4.373
12579TIP3    H137694   6.867   5.679   4.295
12579TIP3    H237695   6.903   5.707   4.440
12580TIP3   OH237696   4.297   1.088   3.381
12580TIP3    H137697   4.247   1.041   3.314
12580TIP3    H237698   4.347   1.020   3.426
12581TIP3   OH237699   6.102   7.622   4.827
12581TIP3    H137700   6.088   7.717   4.823
12581TIP3    H237701   6.027   7.585   4.780
12582TIP3   OH237702   6.135   7.363   5.259
12582TIP3    H137703   6.160   7.274   5.233
12582TIP3    H237704   6.087   7.398   5.185
12583TIP3   OH237705   3.143   4.410   0.911
12583TIP3    H137706   3.174   4.344   0.973
12583TIP3    H237707   3.048   4.406   0.917
12584TIP3   OH237708   1.266   0.000   4.502
12584TIP3    H137709   1.198  -0.009   4.569
12584TIP3    H237710   1.291   0.092   4.506
12585TIP3   OH237711   5.349   1.946   5.332
12585TIP3    H137712   5.379   1.862   5.296
12585TIP3    H237713   5.410   2.011   5.297
12586TIP3   OH237714   3.730   3.371   1.978
12586TIP3    H137715   3.726   3.336   2.067
12586TIP3    H237716   3.704   3.463   1.987
12587TIP3   OH237717   5.782   1.670   2.318
12587TIP3    H137718   5.877   1.679   2.317
12587TIP3    H237719   5.755   1.706   2.402
12588TIP3   OH237720   8.231   7.514   1.822
12588TIP3    H137721   8.226   7.596   1.872
12588TIP3    H237722   8.219   7.446   1.888
12589TIP3   OH237723   2.933   5.759   4.919
12589TIP3    H137724   2.964   5.669   4.933
12589TIP3    H237725   2.844   5.748   4.886
12590TIP3   OH237726   1.014   2.951   1.282
12590TIP3    H137727   1.084   2.971   1.345
12590TIP3    H237728   1.008   3.029   1.227
12591TIP3   OH237729   7.177   4.352   2.296
12591TIP3    H137730   7.196   4.296   2.221
12591TIP3    H237731   7.086   4.380   2.282
12592TIP3   OH237732   2.971   1.236   1.643
12592TIP3    H137733   2.904   1.304   1.649
12592TIP3    H237734   2.984   1.223   1.549
12593TIP3   OH237735   5.666   7.191   5.572
12593TIP3    H137736   5.664   7.234   5.658
12593TIP3    H237737   5.578   7.205   5.537
12594TIP3   OH237738   7.971   5.777   0.304
12594TIP3    H137739   8.018   5.772   0.387
12594TIP3    H237740   8.036   5.806   0.240
12595TIP3   OH237741   1.353   2.497   1.081
12595TIP3    H137742   1.396   2.551   1.148
12595TIP3    H237743   1.422   2.478   1.018
12596TIP3   OH237744   3.275   5.605   5.454
12596TIP3    H137745   3.325   5.524   5.466
12596TIP3    H237746   3.302   5.661   5.527
12597TIP3   OH237747   8.186   5.025   3.643
12597TIP3    H137748   8.144   4.940   3.634
12597TIP3    H237749   8.120   5.088   3.615
12598TIP3   OH237750   5.481   7.555   5.203
12598TIP3    H137751   5.391   7.583   5.190
12598TIP3    H237752   5.512   7.607   5.277
12599TIP3   OH237753   7.004   0.806   2.501
12599TIP3    H137754   7.088   0.835   2.465
12599TIP3    H237755   7.015   0.711   2.512
12600TIP3   OH237756   3.613   6.731   2.433
12600TIP3    H137757   3.527   6.689   2.431
12600TIP3    H237758   3.599   6.813   2.480
12601TIP3   OH237759   0.513   0.896   3.663
12601TIP3    H137760   0.474   0.963   3.607
12601TIP3    H237761   0.519   0.938   3.749
12602TIP3   OH237762   2.558   4.497   4.215
12602TIP3    H137763   2.553   4.581   4.169
12602TIP3    H237764   2.548   4.519   4.308
12603TIP3   OH237765   5.563   1.418   6.153
12603TIP3    H137766   5.487   1.389   6.104
12603TIP3    H237767   5.527   1.453   6.235
12604TIP3   OH237768   1.905   1.544   6.160
12604TIP3    H137769   1.956   1.466   6.180
12604TIP3    H237770   1.836   1.514   6.100
12605TIP3   OH237771   4.507   5.839   5.348
12605TIP3    H137772   4.444   5.816   5.280
12605TIP3    H237773   4.572   5.769   5.346
12606TIP3   OH237774   0.552   0.989   3.261
12606TIP3    H137775   0.463   0.970   3.232
12606TIP3    H237776   0.560   0.944   3.345
12607TIP3   OH237777   2.540   6.962   2.504
12607TIP3    H137778   2.475   6.896   2.481
12607TIP3    H237779   2.564   6.942   2.595
12608TIP3   OH237780   7.471   4.612   5.044
12608TIP3    H137781   7.453   4.536   5.100
12608TIP3    H237782   7.565   4.625   5.052
12609TIP3   OH237783   1.950   4.388   1.279
12609TIP3    H137784   1.938   4.298   1.307
12609TIP3    H237785   2.045   4.398   1.271
12610TIP3   OH237786   3.858   7.087   0.766
12610TIP3    H137787   3.849   7.182   0.759
12610TIP3    H237788   3.780   7.052   0.721
12611TIP3   OH237789   6.141   6.307   2.722
12611TIP3    H137790   6.199   6.233   2.705
12611TIP3    H237791   6.167   6.338   2.808
12612TIP3   OH237792   3.559   6.943   3.289
12612TIP3    H137793   3.631   6.897   3.332
12612TIP3    H237794   3.576   7.036   3.308
12613TIP3   OH237795   0.414   4.866   4.717
12613TIP3    H137796   0.362   4.843   4.794
12613TIP3    H237797   0.431   4.959   4.726
12614TIP3   OH237798   4.514   3.680   5.957
12614TIP3    H137799   4.460   3.680   5.878
12614TIP3    H237800   4.495   3.596   5.999
12615TIP3   OH237801   0.720   7.545   3.339
12615TIP3    H137802   0.743   7.610   3.405
12615TIP3    H237803   0.802   7.526   3.294
12616TIP3   OH237804   3.998   6.744   1.510
12616TIP3    H137805   3.938   6.809   1.474
12616TIP3    H237806   3.971   6.662   1.469
12617TIP3   OH237807   5.573   6.665   2.779
12617TIP3    H137808   5.501   6.658   2.716
12617TIP3    H237809   5.593   6.574   2.802
12618TIP3   OH237810   5.292   5.171   4.536
12618TIP3    H137811   5.223   5.109   4.561
12618TIP3    H237812   5.354   5.118   4.485
12619TIP3   OH237813   6.020   2.865   2.887
12619TIP3    H137814   5.930   2.879   2.916
12619TIP3    H237815   6.028   2.771   2.877
12620TIP3   OH237816   5.214   1.920   1.936
12620TIP3    H137817   5.250   1.995   1.983
12620TIP3    H237818   5.124   1.946   1.915
12621TIP3   OH237819   7.821   6.443   0.661
12621TIP3    H137820   7.860   6.361   0.691
12621TIP3    H237821   7.741   6.451   0.713
12622TIP3   OH237822   1.077   2.609   3.842
12622TIP3    H137823   1.119   2.586   3.925
12622TIP3    H237824   1.149   2.640   3.787
12623TIP3   OH237825   3.091   7.146   5.099
12623TIP3    H137826   2.998   7.129   5.111
12623TIP3    H237827   3.095   7.225   5.046
12624TIP3   OH237828   1.231   6.379   3.128
12624TIP3    H137829   1.271   6.374   3.041
12624TIP3    H237830   1.146   6.336   3.118
12625TIP3   OH237831   7.118   4.753   5.766
12625TIP3    H137832   7.072   4.781   5.686
12625TIP3    H237833   7.187   4.694   5.735
12626TIP3   OH237834   5.687   3.596   6.100
12626TIP3    H137835   5.630   3.528   6.135
12626TIP3    H237836   5.640   3.678   6.118
12627TIP3   OH237837   7.205   0.617   0.775
12627TIP3    H137838   7.236   0.571   0.853
12627TIP3    H237839   7.141   0.558   0.736
12628TIP3   OH237840   8.129   1.193   3.986
12628TIP3    H137841   8.220   1.169   4.005
12628TIP3    H237842   8.113   1.271   4.040
12629TIP3   OH237843   2.754   1.351   4.596
12629TIP3    H137844   2.684   1.377   4.656
12629TIP3    H237845   2.820   1.311   4.653
12630TIP3   OH237846   5.876   6.627   2.781
12630TIP3    H137847   5.785   6.640   2.755
12630TIP3    H237848   5.871   6.577   2.863
12631TIP3   OH237849   6.063   2.685   5.629
12631TIP3    H137850   6.052   2.762   5.684
12631TIP3    H237851   6.156   2.665   5.635
12632TIP3   OH237852   2.083   6.728   3.381
12632TIP3    H137853   2.160   6.785   3.376
12632TIP3    H237854   2.051   6.721   3.291
12633TIP3   OH237855   1.621   7.160   1.672
12633TIP3    H137856   1.634   7.224   1.602
12633TIP3    H237857   1.710   7.139   1.702
12634TIP3   OH237858   0.156   7.230   6.562
12634TIP3    H137859   0.220   7.300   6.553
12634TIP3    H237860   0.181   7.185   6.643
12635TIP3   OH237861   7.777   6.026   3.136
12635TIP3    H137862   7.731   6.085   3.195
12635TIP3    H237863   7.809   5.956   3.193
12636TIP3   OH237864   4.721   2.717   3.601
12636TIP3    H137865   4.793   2.669   3.641
12636TIP3    H237866   4.735   2.808   3.626
12637TIP3   OH237867   3.820   5.885   0.314
12637TIP3    H137868   3.808   5.790   0.315
12637TIP3    H237869   3.831   5.909   0.407
12638TIP3   OH237870   1.531   5.791   0.416
12638TIP3    H137871   1.601   5.808   0.353
12638TIP3    H237872   1.565   5.824   0.499
12639TIP3   OH237873   3.044   1.264   3.435
12639TIP3    H137874   3.100   1.218   3.372
12639TIP3    H237875   3.090   1.254   3.519
12640TIP3   OH237876   5.713   6.317   0.144
12640TIP3    H137877   5.731   6.282   0.232
12640TIP3    H237878   5.706   6.239   0.089
12641TIP3   OH237879   5.713   4.441   1.216
12641TIP3    H137880   5.782   4.420   1.279
12641TIP3    H237881   5.683   4.529   1.240
12642TIP3   OH237882   8.119   0.727   0.497
12642TIP3    H137883   8.026   0.708   0.492
12642TIP3    H237884   8.147   0.689   0.580
12643TIP3   OH237885   1.737   3.070   2.629
12643TIP3    H137886   1.756   3.158   2.661
12643TIP3    H237887   1.774   3.011   2.695
12644TIP3   OH237888   0.774   0.184   6.702
12644TIP3    H137889   0.766   0.279   6.714
12644TIP3    H237890   0.815   0.174   6.616
12645TIP3   OH237891   6.941   6.697   3.334
12645TIP3    H137892   6.944   6.792   3.348
12645TIP3    H237893   6.961   6.660   3.420
12646TIP3   OH237894   7.379   7.177   6.431
12646TIP3    H137895   7.347   7.213   6.349
12646TIP3    H237896   7.394   7.084   6.412
12647TIP3   OH237897   4.633   6.774   6.156
12647TIP3    H137898   4.709   6.718   6.172
12647TIP3    H237899   4.565   6.713   6.127
12648TIP3   OH237900   5.349   0.421   5.436
12648TIP3    H137901   5.368   0.513   5.419
12648TIP3    H237902   5.404   0.399   5.512
12649TIP3   OH237903   4.179   2.061   0.100
12649TIP3    H137904   4.166   2.127   0.032
12649TIP3    H237905   4.271   2.071   0.126
12650TIP3   OH237906   2.052   0.892   3.664
12650TIP3    H137907   1.960   0.871   3.645
12650TIP3    H237908   2.048   0.969   3.721
12651TIP3   OH237909   0.313   0.333   5.157
12651TIP3    H137910   0.404   0.354   5.179
12651TIP3    H237911   0.278   0.415   5.121
12652TIP3   OH237912   5.031   5.323   4.586
12652TIP3    H137913   5.123   5.297   4.590
12652TIP3    H237914   5.000   5.292   4.502
12653TIP3   OH237915   1.186   7.133   3.169
12653TIP3    H137916   1.223   7.094   3.090
12653TIP3    H237917   1.110   7.079   3.189
12654TIP3   OH237918   2.728   2.377   3.386
12654TIP3    H137919   2.807   2.431   3.388
12654TIP3    H237920   2.751   2.302   3.330
12655TIP3   OH237921   3.768   7.483   1.914
12655TIP3    H137922   3.757   7.389   1.930
12655TIP3    H237923   3.689   7.523   1.950
12656TIP3   OH237924   6.869   4.063   2.428
12656TIP3    H137925   6.813   3.987   2.447
12656TIP3    H237926   6.820   4.138   2.463
12657TIP3   OH237927   4.316   5.919   3.536
12657TIP3    H137928   4.357   5.941   3.453
12657TIP3    H237929   4.369   5.848   3.572
12658TIP3   OH237930   6.349   3.078   6.721
12658TIP3    H137931   6.378   3.147   6.781
12658TIP3    H237932   6.277   3.117   6.673
12659TIP3   OH237933   5.410   2.940   2.661
12659TIP3    H137934   5.391   2.867   2.602
12659TIP3    H237935   5.389   2.907   2.748
12660TIP3   OH237936   0.398   1.627   5.960
12660TIP3    H137937   0.460   1.617   6.033
12660TIP3    H237938   0.382   1.538   5.930
12661TIP3   OH237939   6.616   4.951   2.738
12661TIP3    H137940   6.659   5.033   2.764
12661TIP3    H237941   6.687   4.887   2.736
12662TIP3   OH237942   6.169   6.623   1.897
12662TIP3    H137943   6.253   6.612   1.852
12662TIP3    H237944   6.191   6.622   1.990
12663TIP3   OH237945   4.557   2.509   2.513
12663TIP3    H137946   4.478   2.538   2.467
12663TIP3    H237947   4.597   2.590   2.545
12664TIP3   OH237948   5.161   4.185   1.687
12664TIP3    H137949   5.151   4.091   1.671
12664TIP3    H237950   5.072   4.219   1.691
12665TIP3   OH237951   4.190   4.479   3.202
12665TIP3    H137952   4.261   4.496   3.140
12665TIP3    H237953   4.194   4.554   3.263
12666TIP3   OH237954   6.557   7.506   4.763
12666TIP3    H137955   6.640   7.551   4.773
12666TIP3    H237956   6.549   7.452   4.842
12667TIP3   OH237957   3.934   7.062   1.959
12667TIP3    H137958   3.953   7.084   2.050
12667TIP3    H237959   3.838   7.059   1.955
12668TIP3   OH237960   7.085   7.395   0.773
12668TIP3    H137961   7.060   7.330   0.839
12668TIP3    H237962   7.003   7.415   0.727
12669TIP3   OH237963   6.747   4.244   0.878
12669TIP3    H137964   6.748   4.186   0.802
12669TIP3    H237965   6.726   4.330   0.842
12670TIP3   OH237966   7.532   0.543   6.294
12670TIP3    H137967   7.543   0.587   6.379
12670TIP3    H237968   7.460   0.482   6.308
12671TIP3   OH237969   6.522   5.706   4.995
12671TIP3    H137970   6.560   5.628   5.035
12671TIP3    H237971   6.510   5.767   5.068
12672TIP3   OH237972   6.122   1.443   6.509
12672TIP3    H137973   6.082   1.393   6.438
12672TIP3    H237974   6.181   1.381   6.552
12673TIP3   OH237975   0.502   2.981   1.597
12673TIP3    H137976   0.521   3.045   1.665
12673TIP3    H237977   0.518   3.027   1.515
12674TIP3   OH237978   1.680   6.601   1.591
12674TIP3    H137979   1.665   6.688   1.627
12674TIP3    H237980   1.599   6.553   1.611
12675TIP3   OH237981   1.083   0.864   1.521
12675TIP3    H137982   1.119   0.919   1.591
12675TIP3    H237983   0.999   0.904   1.500
12676TIP3   OH237984   3.119   4.764   1.850
12676TIP3    H137985   3.169   4.757   1.931
12676TIP3    H237986   3.109   4.858   1.836
12677TIP3   OH237987   6.583   2.814   1.416
12677TIP3    H137988   6.672   2.847   1.404
12677TIP3    H237989   6.587   2.767   1.500
12678TIP3   OH237990   3.327   0.985   2.714
12678TIP3    H137991   3.250   0.995   2.658
12678TIP3    H237992   3.313   0.902   2.759
12679TIP3   OH237993   4.307   6.759   0.441
12679TIP3    H137994   4.277   6.785   0.354
12679TIP3    H237995   4.242   6.796   0.501
12680TIP3   OH237996   6.092   1.556   1.925
12680TIP3    H137997   6.069   1.644   1.895
12680TIP3    H237998   6.155   1.572   1.996
12681TIP3   OH237999   6.167   5.321   6.751
12681TIP3    H138000   6.077   5.288   6.745
12681TIP3    H238001   6.210   5.262   6.813
12682TIP3   OH238002   0.273   4.228   3.659
12682TIP3    H138003   0.302   4.239   3.568
12682TIP3    H238004   0.348   4.255   3.711
12683TIP3   OH238005   5.570   1.263   1.463
12683TIP3    H138006   5.528   1.270   1.548
12683TIP3    H238007   5.497   1.259   1.401
12684TIP3   OH238008   4.185   6.927   0.687
12684TIP3    H138009   4.107   6.931   0.742
12684TIP3    H238010   4.252   6.890   0.745
12685TIP3   OH238011   4.308   2.361   4.646
12685TIP3    H138012   4.278   2.272   4.666
12685TIP3    H238013   4.370   2.382   4.715
12686TIP3   OH238014   7.662   4.680   2.292
12686TIP3    H138015   7.639   4.590   2.316
12686TIP3    H238016   7.578   4.726   2.287
12687TIP3   OH238017   2.649   6.431   5.121
12687TIP3    H138018   2.689   6.477   5.048
12687TIP3    H238019   2.555   6.445   5.109
12688TIP3   OH238020   1.941   1.676   3.759
12688TIP3    H138021   1.914   1.630   3.680
12688TIP3    H238022   1.965   1.606   3.820
12689TIP3   OH238023   2.550   6.525   0.582
12689TIP3    H138024   2.639   6.561   0.579
12689TIP3    H238025   2.549   6.459   0.513
12690TIP3   OH238026   3.943   7.145   1.566
12690TIP3    H138027   3.897   7.079   1.514
12690TIP3    H238028   3.902   7.228   1.540
12691TIP3   OH238029   3.473   7.234   1.521
12691TIP3    H138030   3.422   7.153   1.515
12691TIP3    H238031   3.489   7.259   1.430
12692TIP3   OH238032   1.037   3.005   4.528
12692TIP3    H138033   1.016   2.951   4.452
12692TIP3    H238034   0.963   3.065   4.536
12693TIP3   OH238035   2.497   6.688   3.335
12693TIP3    H138036   2.434   6.617   3.331
12693TIP3    H238037   2.495   6.716   3.427
12694TIP3   OH238038   2.219   0.098   6.477
12694TIP3    H138039   2.181   0.181   6.505
12694TIP3    H238040   2.187   0.085   6.388
12695TIP3   OH238041   5.784   3.424   0.572
12695TIP3    H138042   5.877   3.444   0.560
12695TIP3    H238043   5.747   3.429   0.484
12696TIP3   OH238044   1.316   5.078   3.477
12696TIP3    H138045   1.248   5.029   3.522
12696TIP3    H238046   1.398   5.034   3.501
12697TIP3   OH238047   5.854   7.420   1.830
12697TIP3    H138048   5.873   7.424   1.924
12697TIP3    H238049   5.767   7.381   1.825
12698TIP3   OH238050   0.390   3.858   3.418
12698TIP3    H138051   0.342   3.825   3.494
12698TIP3    H238052   0.375   3.793   3.350
12699TIP3   OH238053   3.010   1.156   2.074
12699TIP3    H138054   3.073   1.152   2.002
12699TIP3    H238055   3.018   1.072   2.118
12700TIP3   OH238056   0.936   4.159   3.530
12700TIP3    H138057   1.019   4.208   3.534
12700TIP3    H238058   0.939   4.102   3.607
12701TIP3   OH238059   2.525   3.675   4.081
12701TIP3    H138060   2.561   3.689   3.994
12701TIP3    H238061   2.498   3.583   4.082
12702TIP3   OH238062   0.961   1.995   2.808
12702TIP3    H138063   1.017   1.923   2.839
12702TIP3    H238064   0.876   1.978   2.848
12703TIP3   OH238065   5.970   3.666   0.990
12703TIP3    H138066   5.993   3.592   0.934
12703TIP3    H238067   5.968   3.742   0.931
12704TIP3   OH238068   8.037   1.963   6.296
12704TIP3    H138069   8.085   1.945   6.377
12704TIP3    H238070   7.955   1.914   6.305
12705TIP3   OH238071   3.785   4.066   4.991
12705TIP3    H138072   3.754   4.156   4.978
12705TIP3    H238073   3.738   4.014   4.926
12706TIP3   OH238074   3.013   3.441   4.842
12706TIP3    H138075   2.942   3.497   4.810
12706TIP3    H238076   2.997   3.357   4.800
12707TIP3   OH238077   4.984   0.099   2.955
12707TIP3    H138078   5.010   0.012   2.985
12707TIP3    H238079   5.058   0.155   2.978
12708TIP3   OH238080   7.405   4.760   4.084
12708TIP3    H138081   7.334   4.745   4.021
12708TIP3    H238082   7.409   4.680   4.136
12709TIP3   OH238083   3.556   4.428   6.557
12709TIP3    H138084   3.513   4.438   6.472
12709TIP3    H238085   3.494   4.377   6.610
12710TIP3   OH238086   5.253   6.007   0.545
12710TIP3    H138087   5.252   6.071   0.616
12710TIP3    H238088   5.189   6.040   0.482
12711TIP3   OH238089   1.248   0.673   5.007
12711TIP3    H138090   1.211   0.701   5.091
12711TIP3    H238091   1.195   0.718   4.941
12712TIP3   OH238092   4.765   5.106   3.066
12712TIP3    H138093   4.755   5.053   3.145
12712TIP3    H238094   4.679   5.145   3.052
12713TIP3   OH238095   3.210   0.285   1.875
12713TIP3    H138096   3.200   0.190   1.884
12713TIP3    H238097   3.239   0.298   1.785
12714TIP3   OH238098   2.376   5.735   4.721
12714TIP3    H138099   2.354   5.680   4.646
12714TIP3    H238100   2.314   5.808   4.715
12715TIP3   OH238101   8.055   5.509   0.989
12715TIP3    H138102   8.005   5.474   1.064
12715TIP3    H238103   8.085   5.432   0.942
12716TIP3   OH238104   6.540   5.241   1.435
12716TIP3    H138105   6.484   5.243   1.358
12716TIP3    H238106   6.627   5.264   1.403
12717TIP3   OH238107   5.409   3.133   0.934
12717TIP3    H138108   5.316   3.152   0.922
12717TIP3    H238109   5.437   3.193   1.004
12718TIP3   OH238110   0.969   0.072   6.156
12718TIP3    H138111   0.940   0.035   6.072
12718TIP3    H238112   0.915   0.150   6.168
12719TIP3   OH238113   7.972   6.636   3.464
12719TIP3    H138114   8.034   6.620   3.392
12719TIP3    H238115   7.895   6.585   3.441
12720TIP3   OH238116   7.243   4.287   4.996
12720TIP3    H138117   7.257   4.350   5.067
12720TIP3    H238118   7.211   4.209   5.040
12721TIP3   OH238119   2.448   6.848   5.797
12721TIP3    H138120   2.477   6.883   5.881
12721TIP3    H238121   2.528   6.841   5.745
12722TIP3   OH238122   7.277   5.990   5.504
12722TIP3    H138123   7.364   5.964   5.536
12722TIP3    H238124   7.291   6.075   5.463
12723TIP3   OH238125   3.519   1.292   5.542
12723TIP3    H138126   3.572   1.220   5.576
12723TIP3    H238127   3.562   1.371   5.576
12724TIP3   OH238128   5.603   3.166   1.830
12724TIP3    H138129   5.538   3.180   1.762
12724TIP3    H238130   5.582   3.231   1.898
12725TIP3   OH238131   6.936   7.060   6.074
12725TIP3    H138132   6.932   7.081   6.168
12725TIP3    H238133   7.023   7.024   6.061
12726TIP3   OH238134   2.894   0.410   0.733
12726TIP3    H138135   2.942   0.416   0.815
12726TIP3    H238136   2.802   0.423   0.757
12727TIP3   OH238137   2.156   5.583   4.836
12727TIP3    H138138   2.082   5.567   4.895
12727TIP3    H238139   2.195   5.664   4.869
12728TIP3   OH238140   3.810   4.923   1.747
12728TIP3    H138141   3.792   5.016   1.738
12728TIP3    H238142   3.799   4.905   1.840
12729TIP3   OH238143   0.747   0.687   1.091
12729TIP3    H138144   0.829   0.668   1.135
12729TIP3    H238145   0.703   0.603   1.084
12730TIP3   OH238146   3.674   2.862   6.455
12730TIP3    H138147   3.758   2.836   6.419
12730TIP3    H238148   3.696   2.925   6.524
12731TIP3   OH238149   4.048   6.368   6.579
12731TIP3    H138150   3.976   6.338   6.633
12731TIP3    H238151   4.092   6.287   6.551
12732TIP3   OH238152   1.987   6.764   0.953
12732TIP3    H138153   2.059   6.723   1.001
12732TIP3    H238154   1.954   6.696   0.895
12733TIP3   OH238155   0.719   7.173   2.753
12733TIP3    H138156   0.813   7.190   2.765
12733TIP3    H238157   0.710   7.078   2.762
12734TIP3   OH238158   5.257   3.117   4.916
12734TIP3    H138159   5.234   3.171   4.840
12734TIP3    H238160   5.308   3.175   4.972
12735TIP3   OH238161   5.256   5.629   2.277
12735TIP3    H138162   5.241   5.549   2.327
12735TIP3    H238163   5.246   5.603   2.186
12736TIP3   OH238164   5.987   4.975   0.591
12736TIP3    H138165   6.027   4.888   0.582
12736TIP3    H238166   5.912   4.973   0.532
12737TIP3   OH238167   1.305   7.395   5.184
12737TIP3    H138168   1.257   7.412   5.265
12737TIP3    H238169   1.247   7.338   5.134
12738TIP3   OH238170   1.869   7.056   2.781
12738TIP3    H138171   1.923   6.992   2.828
12738TIP3    H238172   1.901   7.141   2.811
12739TIP3   OH238173   6.200   6.772   1.563
12739TIP3    H138174   6.281   6.737   1.525
12739TIP3    H238175   6.182   6.852   1.513
12740TIP3   OH238176   4.591   4.996   3.806
12740TIP3    H138177   4.536   5.042   3.869
12740TIP3    H238178   4.544   5.006   3.722
12741TIP3   OH238179   7.826   4.166   2.239
12741TIP3    H138180   7.914   4.180   2.204
12741TIP3    H238181   7.770   4.222   2.187
12742TIP3   OH238182   5.739   4.974   4.000
12742TIP3    H138183   5.757   4.880   3.994
12742TIP3    H238184   5.811   5.015   3.952
12743TIP3   OH238185   0.568   6.281   5.018
12743TIP3    H138186   0.621   6.248   5.091
12743TIP3    H238187   0.491   6.224   5.018
12744TIP3   OH238188   1.633   5.646   1.606
12744TIP3    H138189   1.675   5.566   1.638
12744TIP3    H238190   1.660   5.714   1.669
12745TIP3   OH238191   7.942   6.470   6.577
12745TIP3    H138192   7.926   6.528   6.651
12745TIP3    H238193   7.912   6.519   6.500
12746TIP3   OH238194   7.019   4.851   4.951
12746TIP3    H138195   7.010   4.814   4.863
12746TIP3    H238196   6.961   4.797   5.006
12747TIP3   OH238197   1.251   7.333   2.087
12747TIP3    H138198   1.215   7.261   2.035
12747TIP3    H238199   1.204   7.328   2.170
12748TIP3   OH238200   4.939   5.567   0.008
12748TIP3    H138201   4.970   5.501  -0.053
12748TIP3    H238202   5.007   5.572   0.075
12749TIP3   OH238203   2.343   5.399   3.878
12749TIP3    H138204   2.299   5.315   3.891
12749TIP3    H238205   2.430   5.375   3.848
12750TIP3   OH238206   4.970   7.250   5.512
12750TIP3    H138207   4.957   7.159   5.483
12750TIP3    H238208   4.902   7.264   5.578
12751TIP3   OH238209   6.432   6.687   1.068
12751TIP3    H138210   6.487   6.735   1.129
12751TIP3    H238211   6.354   6.740   1.059
12752TIP3   OH238212   1.516   2.103   1.577
12752TIP3    H138213   1.516   2.098   1.481
12752TIP3    H238214   1.424   2.099   1.601
12753TIP3   OH238215   3.769   5.766   1.505
12753TIP3    H138216   3.846   5.823   1.510
12753TIP3    H238217   3.790   5.705   1.434
12754TIP3   OH238218   2.240   5.628   6.342
12754TIP3    H138219   2.240   5.533   6.332
12754TIP3    H238220   2.326   5.648   6.380
12755TIP3   OH238221   0.041   4.405   0.149
12755TIP3    H138222   0.029   4.310   0.153
12755TIP3    H238223   0.124   4.417   0.102
12756TIP3   OH238224   5.675   3.664   3.886
12756TIP3    H138225   5.590   3.649   3.844
12756TIP3    H238226   5.674   3.605   3.961
12757TIP3   OH238227   2.364   1.032   1.115
12757TIP3    H138228   2.412   1.037   1.197
12757TIP3    H238229   2.307   1.109   1.116
12758TIP3   OH238230   0.057   5.718   1.433
12758TIP3    H138231   0.023   5.662   1.364
12758TIP3    H238232   0.084   5.798   1.388
12759TIP3   OH238233   6.505   3.222   5.186
12759TIP3    H138234   6.480   3.302   5.140
12759TIP3    H238235   6.435   3.207   5.250
12760TIP3   OH238236   3.940   3.655   1.171
12760TIP3    H138237   3.853   3.650   1.132
12760TIP3    H238238   3.923   3.669   1.264
12761TIP3   OH238239   1.496   3.641   6.689
12761TIP3    H138240   1.562   3.654   6.620
12761TIP3    H238241   1.429   3.586   6.649
12762TIP3   OH238242   2.457   3.074   3.086
12762TIP3    H138243   2.451   2.980   3.100
12762TIP3    H238244   2.368   3.106   3.101
12763TIP3   OH238245   1.085   0.139   4.929
12763TIP3    H138246   1.083   0.215   4.987
12763TIP3    H238247   1.017   0.081   4.964
12764TIP3   OH238248   4.880   4.321   1.610
12764TIP3    H138249   4.868   4.365   1.526
12764TIP3    H238250   4.799   4.270   1.622
12765TIP3   OH238251   4.679   7.573   2.863
12765TIP3    H138252   4.728   7.528   2.794
12765TIP3    H238253   4.599   7.603   2.819
12766TIP3   OH238254   2.920   4.764   5.789
12766TIP3    H138255   2.921   4.764   5.884
12766TIP3    H238256   2.895   4.854   5.765
12767TIP3   OH238257   6.577   4.047   3.400
12767TIP3    H138258   6.563   3.969   3.346
12767TIP3    H238259   6.671   4.061   3.398
12768TIP3   OH238260   3.249   0.368   6.575
12768TIP3    H138261   3.256   0.311   6.652
12768TIP3    H238262   3.283   0.452   6.605
12769TIP3   OH238263   7.223   4.530   0.892
12769TIP3    H138264   7.221   4.492   0.804
12769TIP3    H238265   7.154   4.596   0.891
12770TIP3   OH238266   3.294   6.025   3.042
12770TIP3    H138267   3.355   6.097   3.055
12770TIP3    H238268   3.255   6.010   3.128
12771TIP3   OH238269   6.283   5.529   1.154
12771TIP3    H138270   6.351   5.503   1.092
12771TIP3    H238271   6.254   5.615   1.124
12772TIP3   OH238272   3.844   5.993   3.957
12772TIP3    H138273   3.918   6.036   3.915
12772TIP3    H238274   3.884   5.938   4.025
12773TIP3   OH238275   2.200   6.648  -0.005
12773TIP3    H138276   2.269   6.622  -0.066
12773TIP3    H238277   2.155   6.720  -0.049
12774TIP3   OH238278   0.236   4.992   6.174
12774TIP3    H138279   0.179   5.053   6.222
12774TIP3    H238280   0.266   5.042   6.098
12775TIP3   OH238281   4.332   0.416   3.827
12775TIP3    H138282   4.413   0.370   3.804
12775TIP3    H238283   4.271   0.393   3.758
12776TIP3   OH238284   6.651   7.154   5.818
12776TIP3    H138285   6.610   7.078   5.858
12776TIP3    H238286   6.617   7.156   5.729
12777TIP3   OH238287   2.572   4.933   4.115
12777TIP3    H138288   2.556   4.980   4.197
12777TIP3    H238289   2.569   5.001   4.048
12778TIP3   OH238290   4.796   5.720   6.570
12778TIP3    H138291   4.703   5.702   6.587
12778TIP3    H238292   4.826   5.766   6.648
12779TIP3   OH238293   5.334   0.135   3.993
12779TIP3    H138294   5.418   0.177   4.015
12779TIP3    H238295   5.274   0.209   3.979
12780TIP3   OH238296   7.482   7.810   1.788
12780TIP3    H138297   7.392   7.823   1.758
12780TIP3    H238298   7.507   7.724   1.754
12781TIP3   OH238299   0.853   7.520   0.969
12781TIP3    H138300   0.905   7.511   1.048
12781TIP3    H238301   0.862   7.435   0.925
12782TIP3   OH238302   6.023   2.429   5.873
12782TIP3    H138303   6.023   2.334   5.881
12782TIP3    H238304   5.949   2.448   5.814
12783TIP3   OH238305   1.824   0.796   3.108
12783TIP3    H138306   1.783   0.818   3.024
12783TIP3    H238307   1.757   0.818   3.174
12784TIP3   OH238308   2.738   3.042   3.846
12784TIP3    H138309   2.766   2.960   3.806
12784TIP3    H238310   2.643   3.033   3.855
12785TIP3   OH238311   2.387   1.128   0.102
12785TIP3    H138312   2.481   1.110   0.099
12785TIP3    H238313   2.346   1.042   0.097
12786TIP3   OH238314   4.968   6.509   5.954
12786TIP3    H138315   4.935   6.419   5.951
12786TIP3    H238316   5.000   6.526   5.866
12787TIP3   OH238317   4.472   6.985   4.591
12787TIP3    H138318   4.558   6.942   4.591
12787TIP3    H238319   4.409   6.913   4.583
12788TIP3   OH238320   4.903   1.357   3.808
12788TIP3    H138321   4.974   1.325   3.864
12788TIP3    H238322   4.823   1.341   3.859
12789TIP3   OH238323   5.005   6.729   2.816
12789TIP3    H138324   4.959   6.684   2.745
12789TIP3    H238325   5.003   6.666   2.889
12790TIP3   OH238326   2.085   0.742   0.048
12790TIP3    H138327   2.118   0.652   0.054
12790TIP3    H238328   2.046   0.747  -0.039
12791TIP3   OH238329   5.671   3.622   4.203
12791TIP3    H138330   5.595   3.652   4.252
12791TIP3    H238331   5.743   3.624   4.266
12792TIP3   OH238332   7.344   2.579   6.539
12792TIP3    H138333   7.429   2.601   6.501
12792TIP3    H238334   7.304   2.664   6.559
12793TIP3   OH238335   2.313   7.610   4.954
12793TIP3    H138336   2.268   7.531   4.983
12793TIP3    H238337   2.382   7.578   4.896
12794TIP3   OH238338   5.243   4.727   2.178
12794TIP3    H138339   5.322   4.676   2.197
12794TIP3    H238340   5.178   4.661   2.151
12795TIP3   OH238341   8.135   0.350   5.546
12795TIP3    H138342   8.176   0.266   5.568
12795TIP3    H238343   8.186   0.415   5.596
12796TIP3   OH238344   6.538   3.287   0.970
12796TIP3    H138345   6.587   3.294   0.888
12796TIP3    H238346   6.477   3.214   0.956
12797TIP3   OH238347   6.512   0.140   6.097
12797TIP3    H138348   6.461   0.066   6.063
12797TIP3    H238349   6.447   0.199   6.134
12798TIP3   OH238350   5.645   3.395   2.578
12798TIP3    H138351   5.640   3.304   2.550
12798TIP3    H238352   5.574   3.405   2.642
12799TIP3   OH238353   4.898   2.947   0.616
12799TIP3    H138354   4.926   3.024   0.568
12799TIP3    H238355   4.882   2.979   0.705
12800TIP3   OH238356   6.391   4.184   2.822
12800TIP3    H138357   6.409   4.278   2.834
12800TIP3    H238358   6.338   4.160   2.897
12801TIP3   OH238359   3.913   2.838   2.349
12801TIP3    H138360   3.996   2.798   2.376
12801TIP3    H238361   3.846   2.787   2.394
12802TIP3   OH238362   4.440   0.105   3.303
12802TIP3    H138363   4.503   0.070   3.240
12802TIP3    H238364   4.494   0.143   3.373
12803TIP3   OH238365   6.647   4.578   2.916
12803TIP3    H138366   6.617   4.568   3.006
12803TIP3    H238367   6.685   4.493   2.894
12804TIP3   OH238368   6.677   0.192   0.499
12804TIP3    H138369   6.665   0.168   0.591
12804TIP3    H238370   6.719   0.278   0.502
12805TIP3   OH238371   7.158   0.833   1.274
12805TIP3    H138372   7.169   0.926   1.254
12805TIP3    H238373   7.169   0.827   1.369
12806TIP3   OH238374   3.865   1.167   1.724
12806TIP3    H138375   3.811   1.129   1.794
12806TIP3    H238376   3.885   1.255   1.754
12807TIP3   OH238377   5.572   0.133   0.907
12807TIP3    H138378   5.575   0.043   0.939
12807TIP3    H238379   5.535   0.183   0.980
12808TIP3   OH238380   7.204   3.720   3.183
12808TIP3    H138381   7.296   3.702   3.203
12808TIP3    H238382   7.204   3.741   3.090
12809TIP3   OH238383   6.518   4.196   3.177
12809TIP3    H138384   6.570   4.152   3.244
12809TIP3    H238385   6.477   4.125   3.128
12810TIP3   OH238386   6.800   3.656   5.385
12810TIP3    H138387   6.846   3.606   5.453
12810TIP3    H238388   6.781   3.741   5.426
12811TIP3   OH238389   0.521   0.076   5.517
12811TIP3    H138390   0.593   0.140   5.519
12811TIP3    H238391   0.555   0.000   5.563
12812TIP3   OH238392   4.185   1.824   3.752
12812TIP3    H138393   4.091   1.817   3.740
12812TIP3    H238394   4.216   1.865   3.671
12813TIP3   OH238395   5.947   3.384   6.574
12813TIP3    H138396   5.945   3.317   6.505
12813TIP3    H238397   5.998   3.344   6.644
12814TIP3   OH238398   8.018   4.461   2.614
12814TIP3    H138399   7.947   4.402   2.640
12814TIP3    H238400   8.090   4.438   2.673
12815TIP3   OH238401   0.333   0.927   6.491
12815TIP3    H138402   0.401   0.975   6.537
12815TIP3    H238403   0.287   0.878   6.559
12816TIP3   OH238404   2.134   6.305   5.862
12816TIP3    H138405   2.091   6.231   5.906
12816TIP3    H238406   2.206   6.266   5.813
12817TIP3   OH238407   6.508   6.514   3.859
12817TIP3    H138408   6.468   6.578   3.801
12817TIP3    H238409   6.439   6.491   3.921
12818TIP3   OH238410   3.375   7.292   0.420
12818TIP3    H138411   3.298   7.236   0.410
12818TIP3    H238412   3.380   7.309   0.514
12819TIP3   OH238413   6.251   5.838   2.423
12819TIP3    H138414   6.296   5.921   2.439
12819TIP3    H238415   6.263   5.822   2.329
12820TIP3   OH238416   6.275   2.666   3.212
12820TIP3    H138417   6.289   2.645   3.119
12820TIP3    H238418   6.321   2.749   3.224
12821TIP3   OH238419   0.535   0.400   5.343
12821TIP3    H138420   0.543   0.484   5.297
12821TIP3    H238421   0.566   0.418   5.432
12822TIP3   OH238422   5.290   1.093   6.118
12822TIP3    H138423   5.203   1.057   6.130
12822TIP3    H238424   5.317   1.123   6.204
12823TIP3   OH238425   2.974   1.919   2.250
12823TIP3    H138426   3.022   1.871   2.317
12823TIP3    H238427   2.910   1.971   2.298
12824TIP3   OH238428   5.153   2.077   5.861
12824TIP3    H138429   5.190   1.998   5.823
12824TIP3    H238430   5.107   2.047   5.940
12825TIP3   OH238431   3.211   6.011   2.778
12825TIP3    H138432   3.244   6.017   2.868
12825TIP3    H238433   3.175   6.098   2.760
12826TIP3   OH238434   1.600   0.568   0.403
12826TIP3    H138435   1.647   0.649   0.420
12826TIP3    H238436   1.516   0.596   0.366
12827TIP3   OH238437   0.047   1.777   6.262
12827TIP3    H138438   0.016   1.842   6.325
12827TIP3    H238439   0.111   1.824   6.208
12828TIP3   OH238440   7.948   7.145   1.721
12828TIP3    H138441   7.981   7.108   1.803
12828TIP3    H238442   7.907   7.072   1.676
12829TIP3   OH238443   1.907   5.043   5.710
12829TIP3    H138444   1.868   5.088   5.784
12829TIP3    H238445   1.836   4.991   5.673
12830TIP3   OH238446   2.549   2.566   4.342
12830TIP3    H138447   2.501   2.649   4.345
12830TIP3    H238448   2.590   2.566   4.255
12831TIP3   OH238449   0.707   3.497   3.745
12831TIP3    H138450   0.624   3.530   3.711
12831TIP3    H238451   0.701   3.507   3.840
12832TIP3   OH238452   6.394   4.729   2.438
12832TIP3    H138453   6.326   4.663   2.420
12832TIP3    H238454   6.371   4.763   2.525
12833TIP3   OH238455   2.287   3.434   3.415
12833TIP3    H138456   2.340   3.458   3.338
12833TIP3    H238457   2.270   3.517   3.459
12834TIP3   OH238458   4.660   2.479   0.536
12834TIP3    H138459   4.654   2.574   0.545
12834TIP3    H238460   4.753   2.461   0.526
12835TIP3   OH238461   0.184   1.283   4.467
12835TIP3    H138462   0.129   1.206   4.452
12835TIP3    H238463   0.173   1.302   4.560
12836TIP3   OH238464   3.779   3.387   5.976
12836TIP3    H138465   3.761   3.386   5.882
12836TIP3    H238466   3.874   3.389   5.982
12837TIP3   OH238467   6.197   0.641   6.144
12837TIP3    H138468   6.256   0.617   6.216
12837TIP3    H238469   6.250   0.631   6.065
12838TIP3   OH238470   7.670   3.012   0.137
12838TIP3    H138471   7.639   3.092   0.179
12838TIP3    H238472   7.716   3.042   0.059
12839TIP3   OH238473   2.861   5.031   5.758
12839TIP3    H138474   2.928   5.097   5.770
12839TIP3    H238475   2.804   5.067   5.690
12840TIP3   OH238476   6.045   7.609   1.754
12840TIP3    H138477   5.957   7.572   1.768
12840TIP3    H238478   6.037   7.659   1.673
12841TIP3   OH238479   5.194   0.163   5.114
12841TIP3    H138480   5.125   0.098   5.099
12841TIP3    H238481   5.198   0.213   5.033
12842TIP3   OH238482   5.698   4.302   6.395
12842TIP3    H138483   5.630   4.242   6.363
12842TIP3    H238484   5.749   4.323   6.317
12843TIP3   OH238485   3.797   5.917   6.407
12843TIP3    H138486   3.791   5.924   6.503
12843TIP3    H238487   3.740   5.843   6.385
12844TIP3   OH238488   1.193   6.450   3.684
12844TIP3    H138489   1.270   6.437   3.739
12844TIP3    H238490   1.223   6.435   3.595
12845TIP3   OH238491   7.615   0.864   2.519
12845TIP3    H138492   7.578   0.939   2.471
12845TIP3    H238493   7.706   0.889   2.536
12846TIP3   OH238494   3.548   0.730   3.182
12846TIP3    H138495   3.562   0.636   3.191
12846TIP3    H238496   3.542   0.743   3.087
12847TIP3   OH238497   4.834   4.201   5.708
12847TIP3    H138498   4.783   4.255   5.768
12847TIP3    H238499   4.883   4.263   5.654
12848TIP3   OH238500   4.203   1.608   4.225
12848TIP3    H138501   4.154   1.556   4.161
12848TIP3    H238502   4.224   1.689   4.178
12849TIP3   OH238503   1.093   5.764   5.480
12849TIP3    H138504   1.188   5.771   5.489
12849TIP3    H238505   1.071   5.683   5.527
12850TIP3   OH238506   1.797   4.927   3.155
12850TIP3    H138507   1.830   5.004   3.202
12850TIP3    H238508   1.702   4.929   3.168
12851TIP3   OH238509   3.969   5.036   6.187
12851TIP3    H138510   4.009   4.949   6.178
12851TIP3    H238511   4.031   5.085   6.241
12852TIP3   OH238512   1.419   0.130   4.755
12852TIP3    H138513   1.362   0.174   4.692
12852TIP3    H238514   1.388   0.159   4.840
12853TIP3   OH238515   5.608   0.603   0.615
12853TIP3    H138516   5.545   0.538   0.584
12853TIP3    H238517   5.692   0.574   0.579
12854TIP3   OH238518   7.144   6.910   3.154
12854TIP3    H138519   7.193   6.847   3.101
12854TIP3    H238520   7.117   6.861   3.231
12855TIP3   OH238521   4.965   5.715   4.750
12855TIP3    H138522   4.934   5.796   4.710
12855TIP3    H238523   4.926   5.646   4.696
12856TIP3   OH238524   0.234   6.361   2.635
12856TIP3    H138525   0.251   6.268   2.621
12856TIP3    H238526   0.199   6.366   2.724
12857TIP3   OH238527   4.783   6.513   4.935
12857TIP3    H138528   4.699   6.556   4.954
12857TIP3    H238529   4.849   6.572   4.972
12858TIP3   OH238530   3.265   2.617   2.405
12858TIP3    H138531   3.238   2.529   2.433
12858TIP3    H238532   3.336   2.602   2.343
12859TIP3   OH238533   0.094   3.884   3.434
12859TIP3    H138534   0.052   3.816   3.380
12859TIP3    H238535   0.052   3.965   3.407
12860TIP3   OH238536   0.122   0.722   0.704
12860TIP3    H138537   0.126   0.776   0.625
12860TIP3    H238538   0.028   0.715   0.723
12861TIP3   OH238539   1.390   6.405   3.862
12861TIP3    H138540   1.416   6.314   3.871
12861TIP3    H238541   1.345   6.425   3.945
12862TIP3   OH238542   4.116   6.902   6.424
12862TIP3    H138543   4.160   6.984   6.445
12862TIP3    H238544   4.184   6.848   6.385
12863TIP3   OH238545   4.220   3.371   1.850
12863TIP3    H138546   4.148   3.365   1.913
12863TIP3    H238547   4.208   3.294   1.793
12864TIP3   OH238548   8.015   2.417   4.181
12864TIP3    H138549   8.053   2.405   4.094
12864TIP3    H238550   7.944   2.479   4.167
12865TIP3   OH238551   5.364   6.706   5.777
12865TIP3    H138552   5.408   6.644   5.719
12865TIP3    H238553   5.427   6.777   5.788
12866TIP3   OH238554   6.721   0.399   1.379
12866TIP3    H138555   6.639   0.351   1.390
12866TIP3    H238556   6.779   0.363   1.447
12867TIP3   OH238557   4.896   4.479   2.891
12867TIP3    H138558   4.923   4.571   2.886
12867TIP3    H238559   4.805   4.479   2.864
12868TIP3   OH238560   0.778   2.315   4.134
12868TIP3    H138561   0.761   2.359   4.217
12868TIP3    H238562   0.871   2.294   4.136
12869TIP3   OH238563   3.415   7.159   3.852
12869TIP3    H138564   3.358   7.226   3.814
12869TIP3    H238565   3.378   7.141   3.938
12870TIP3   OH238566   5.157   2.567   2.548
12870TIP3    H138567   5.114   2.640   2.592
12870TIP3    H238568   5.160   2.593   2.456
12871TIP3   OH238569   4.999   0.051   1.464
12871TIP3    H138570   5.086   0.028   1.497
12871TIP3    H238571   4.945   0.060   1.543
12872TIP3   OH238572   3.027   2.087   4.837
12872TIP3    H138573   3.046   2.016   4.776
12872TIP3    H238574   2.931   2.090   4.842
12873TIP3   OH238575   5.529   0.306   5.963
12873TIP3    H138576   5.463   0.301   5.894
12873TIP3    H238577   5.479   0.297   6.044
12874TIP3   OH238578   5.247   5.219   1.833
12874TIP3    H138579   5.176   5.168   1.871
12874TIP3    H238580   5.237   5.306   1.871
12875TIP3   OH238581   3.412   1.289   6.216
12875TIP3    H138582   3.443   1.203   6.245
12875TIP3    H238583   3.380   1.274   6.127
12876TIP3   OH238584   2.330   0.671   4.703
12876TIP3    H138585   2.343   0.679   4.798
12876TIP3    H238586   2.418   0.681   4.667
12877TIP3   OH238587   5.647   0.592   4.672
12877TIP3    H138588   5.706   0.649   4.721
12877TIP3    H238589   5.670   0.608   4.580
12878TIP3   OH238590   6.925   2.864   5.435
12878TIP3    H138591   6.970   2.834   5.356
12878TIP3    H238592   6.951   2.801   5.503
12879TIP3   OH238593   1.339   5.059   0.518
12879TIP3    H138594   1.249   5.085   0.498
12879TIP3    H238595   1.392   5.133   0.487
12880TIP3   OH238596   4.299   3.444   4.917
12880TIP3    H138597   4.342   3.375   4.867
12880TIP3    H238598   4.303   3.521   4.860
12881TIP3   OH238599   5.343   2.330   2.620
12881TIP3    H138600   5.302   2.279   2.551
12881TIP3    H238601   5.297   2.414   2.619
12882TIP3   OH238602   3.584   2.583   3.751
12882TIP3    H138603   3.570   2.663   3.700
12882TIP3    H238604   3.570   2.610   3.842
12883TIP3   OH238605   2.758   5.018   6.487
12883TIP3    H138606   2.743   4.961   6.411
12883TIP3    H238607   2.807   4.963   6.548
12884TIP3   OH238608   2.388   1.876   1.371
12884TIP3    H138609   2.454   1.809   1.385
12884TIP3    H238610   2.374   1.914   1.458
12885TIP3   OH238611   4.659   2.202   5.072
12885TIP3    H138612   4.736   2.258   5.062
12885TIP3    H238613   4.586   2.255   5.038
12886TIP3   OH238614   0.484   4.113   4.128
12886TIP3    H138615   0.468   4.140   4.038
12886TIP3    H238616   0.578   4.096   4.133
12887TIP3   OH238617   1.543   2.944   6.356
12887TIP3    H138618   1.450   2.967   6.349
12887TIP3    H238619   1.560   2.891   6.279
12888TIP3   OH238620   1.309   6.555   1.991
12888TIP3    H138621   1.280   6.520   1.907
12888TIP3    H238622   1.293   6.483   2.053
12889TIP3   OH238623   0.413   2.870   5.764
12889TIP3    H138624   0.453   2.805   5.823
12889TIP3    H238625   0.487   2.908   5.717
12890TIP3   OH238626   4.536   2.280   2.012
12890TIP3    H138627   4.456   2.227   2.010
12890TIP3    H238628   4.507   2.365   2.045
12891TIP3   OH238629   0.429   0.980   5.396
12891TIP3    H138630   0.520   0.980   5.364
12891TIP3    H238631   0.388   0.907   5.350
12892TIP3   OH238632   3.164   3.948   4.434
12892TIP3    H138633   3.170   3.901   4.352
12892TIP3    H238634   3.246   3.998   4.439
12893TIP3   OH238635   6.920   4.530   4.103
12893TIP3    H138636   7.014   4.545   4.092
12893TIP3    H238637   6.900   4.567   4.189
12894TIP3   OH238638   2.651   3.022   5.276
12894TIP3    H138639   2.590   3.079   5.230
12894TIP3    H238640   2.728   3.076   5.292
12895TIP3   OH238641   7.343   4.680   6.095
12895TIP3    H138642   7.256   4.645   6.077
12895TIP3    H238643   7.402   4.605   6.084
12896TIP3   OH238644   7.806   4.498   4.295
12896TIP3    H138645   7.788   4.566   4.360
12896TIP3    H238646   7.798   4.542   4.211
12897TIP3   OH238647   1.396   5.559   2.511
12897TIP3    H138648   1.416   5.472   2.546
12897TIP3    H238649   1.313   5.549   2.466
12898TIP3   OH238650   6.631   1.740   6.435
12898TIP3    H138651   6.659   1.649   6.424
12898TIP3    H238652   6.549   1.746   6.386
12899TIP3   OH238653   7.046   7.796   2.717
12899TIP3    H138654   6.993   7.868   2.682
12899TIP3    H238655   7.073   7.747   2.640
12900TIP3   OH238656   5.331   4.142   1.099
12900TIP3    H138657   5.243   4.172   1.121
12900TIP3    H238658   5.329   4.130   1.004
12901TIP3   OH238659   6.394   3.051   2.599
12901TIP3    H138660   6.414   3.142   2.623
12901TIP3    H238661   6.479   3.012   2.581
12902TIP3   OH238662   3.604   4.361   2.606
12902TIP3    H138663   3.674   4.328   2.550
12902TIP3    H238664   3.598   4.298   2.677
12903TIP3   OH238665   5.716   3.573   3.603
12903TIP3    H138666   5.710   3.614   3.690
12903TIP3    H238667   5.689   3.642   3.542
12904TIP3   OH238668   0.310   7.544   1.841
12904TIP3    H138669   0.386   7.542   1.899
12904TIP3    H238670   0.339   7.596   1.765
12905TIP3   OH238671   5.211   5.218   1.549
12905TIP3    H138672   5.208   5.132   1.508
12905TIP3    H238673   5.226   5.200   1.642
12906TIP3   OH238674   7.349   5.102   0.208
12906TIP3    H138675   7.327   5.078   0.118
12906TIP3    H238676   7.393   5.024   0.243
12907TIP3   OH238677   2.877   6.881   5.959
12907TIP3    H138678   2.930   6.915   6.031
12907TIP3    H238679   2.843   6.959   5.915
12908TIP3   OH238680   1.478   2.431   5.658
12908TIP3    H138681   1.409   2.367   5.676
12908TIP3    H238682   1.432   2.514   5.647
12909TIP3   OH238683   0.308   4.475   0.878
12909TIP3    H138684   0.303   4.446   0.787
12909TIP3    H238685   0.221   4.509   0.898
12910TIP3   OH238686   0.890   0.105   4.371
12910TIP3    H138687   0.970   0.115   4.319
12910TIP3    H238688   0.821   0.090   4.307
12911TIP3   OH238689   3.971   3.254   1.929
12911TIP3    H138690   4.007   3.242   2.016
12911TIP3    H238691   3.913   3.330   1.936
12912TIP3   OH238692   4.917   1.835   0.883
12912TIP3    H138693   4.922   1.745   0.852
12912TIP3    H238694   4.842   1.836   0.943
12913TIP3   OH238695   7.560   4.292   0.296
12913TIP3    H138696   7.489   4.355   0.292
12913TIP3    H238697   7.605   4.311   0.378
12914TIP3   OH238698   7.373   5.510   2.579
12914TIP3    H138699   7.364   5.518   2.484
12914TIP3    H238700   7.383   5.600   2.610
12915TIP3   OH238701   4.011   2.479   4.370
12915TIP3    H138702   3.975   2.456   4.284
12915TIP3    H238703   3.972   2.414   4.429
12916TIP3   OH238704   3.242   3.029   5.319
12916TIP3    H138705   3.274   3.107   5.273
12916TIP3    H238706   3.218   3.061   5.406
12917TIP3   OH238707   3.007   5.640   1.424
12917TIP3    H138708   3.033   5.722   1.465
12917TIP3    H238709   3.070   5.576   1.457
12918TIP3   OH238710   5.332   3.695   2.624
12918TIP3    H138711   5.310   3.781   2.590
12918TIP3    H238712   5.369   3.648   2.549
12919TIP3   OH238713   0.132   6.696   4.280
12919TIP3    H138714   0.135   6.791   4.269
12919TIP3    H238715   0.048   6.670   4.241
12920TIP3   OH238716   3.848   5.621   3.917
12920TIP3    H138717   3.909   5.695   3.915
12920TIP3    H238718   3.771   5.653   3.964
12921TIP3   OH238719   1.848   0.587   4.654
12921TIP3    H138720   1.786   0.657   4.634
12921TIP3    H238721   1.932   0.632   4.662
12922TIP3   OH238722   6.446   5.684   2.634
12922TIP3    H138723   6.427   5.692   2.728
12922TIP3    H238724   6.374   5.630   2.600
12923TIP3   OH238725   5.259   4.681   2.872
12923TIP3    H138726   5.302   4.689   2.787
12923TIP3    H238727   5.165   4.680   2.851
12924TIP3   OH238728   1.931   7.537   2.951
12924TIP3    H138729   1.943   7.443   2.963
12924TIP3    H238730   2.019   7.572   2.936
12925TIP3   OH238731   6.615   5.066   6.420
12925TIP3    H138732   6.594   4.976   6.396
12925TIP3    H238733   6.558   5.119   6.364
12926TIP3   OH238734   2.988   1.355   2.393
12926TIP3    H138735   3.009   1.437   2.349
12926TIP3    H238736   3.070   1.306   2.393
12927TIP3   OH238737   0.352   3.006   0.476
12927TIP3    H138738   0.373   2.913   0.476
12927TIP3    H238739   0.295   3.018   0.553
12928TIP3   OH238740   1.029   6.854   6.364
12928TIP3    H138741   1.124   6.844   6.365
12928TIP3    H238742   1.014   6.939   6.321
12929TIP3   OH238743   3.385   4.315   0.172
12929TIP3    H138744   3.448   4.345   0.106
12929TIP3    H238745   3.436   4.261   0.231
12930TIP3   OH238746   4.440   4.898   5.691
12930TIP3    H138747   4.353   4.858   5.690
12930TIP3    H238748   4.493   4.839   5.744
12931TIP3   OH238749   2.612   4.474   0.945
12931TIP3    H138750   2.668   4.511   0.878
12931TIP3    H238751   2.560   4.407   0.900
12932TIP3   OH238752   7.069   4.567   5.121
12932TIP3    H138753   7.056   4.642   5.180
12932TIP3    H238754   7.135   4.513   5.166
12933TIP3   OH238755   3.698   6.654   1.725
12933TIP3    H138756   3.628   6.608   1.772
12933TIP3    H238757   3.711   6.734   1.775
12934TIP3   OH238758   6.291   4.296   2.499
12934TIP3    H138759   6.369   4.331   2.542
12934TIP3    H238760   6.222   4.302   2.565
12935TIP3   OH238761   0.654   1.724   3.115
12935TIP3    H138762   0.576   1.764   3.152
12935TIP3    H238763   0.666   1.643   3.164
12936TIP3   OH238764   0.038   7.032   3.129
12936TIP3    H138765   0.012   6.970   3.197
12936TIP3    H238766   0.080   7.104   3.176
12937TIP3   OH238767   4.777   4.678   6.353
12937TIP3    H138768   4.728   4.700   6.432
12937TIP3    H238769   4.868   4.669   6.383
12938TIP3   OH238770   0.649   4.269   5.464
12938TIP3    H138771   0.739   4.301   5.473
12938TIP3    H238772   0.596   4.334   5.511
12939TIP3   OH238773   0.098   2.828   2.478
12939TIP3    H138774   0.025   2.879   2.511
12939TIP3    H238775   0.176   2.871   2.514
12940TIP3   OH238776   0.220   7.231   4.494
12940TIP3    H138777   0.161   7.296   4.534
12940TIP3    H238778   0.263   7.188   4.568
12941TIP3   OH238779   7.072   7.713   3.298
12941TIP3    H138780   7.021   7.762   3.233
12941TIP3    H238781   7.156   7.699   3.256
12942TIP3   OH238782   7.218   1.643   5.917
12942TIP3    H138783   7.256   1.713   5.863
12942TIP3    H238784   7.241   1.667   6.007
12943TIP3   OH238785   3.891   0.018   0.300
12943TIP3    H138786   3.983   0.035   0.318
12943TIP3    H238787   3.886  -0.077   0.284
12944TIP3   OH238788   2.389   7.427   1.171
12944TIP3    H138789   2.379   7.520   1.190
12944TIP3    H238790   2.441   7.393   1.244
12945TIP3   OH238791   7.621   1.240   1.185
12945TIP3    H138792   7.558   1.305   1.155
12945TIP3    H238793   7.574   1.157   1.181
12946TIP3   OH238794   2.498   2.781   1.404
12946TIP3    H138795   2.512   2.713   1.469
12946TIP3    H238796   2.582   2.788   1.358
12947TIP3   OH238797   3.243   0.406   5.108
12947TIP3    H138798   3.211   0.475   5.166
12947TIP3    H238799   3.264   0.452   5.027
12948TIP3   OH238800   0.518   2.776   4.120
12948TIP3    H138801   0.504   2.730   4.203
12948TIP3    H238802   0.494   2.866   4.138
12949TIP3   OH238803   1.075   4.815   1.352
12949TIP3    H138804   1.131   4.792   1.277
12949TIP3    H238805   1.120   4.887   1.395
12950TIP3   OH238806   2.044   1.257   1.608
12950TIP3    H138807   1.995   1.252   1.689
12950TIP3    H238808   1.981   1.286   1.543
12951TIP3   OH238809   1.056   2.309   4.164
12951TIP3    H138810   1.127   2.350   4.212
12951TIP3    H238811   1.084   2.310   4.073
12952TIP3   OH238812   6.721   0.609   5.258
12952TIP3    H138813   6.733   0.704   5.247
12952TIP3    H238814   6.628   0.595   5.240
12953TIP3   OH238815   1.119   3.415   2.478
12953TIP3    H138816   1.210   3.443   2.476
12953TIP3    H238817   1.122   3.320   2.474
12954TIP3   OH238818   5.061   1.157   2.946
12954TIP3    H138819   4.973   1.175   2.978
12954TIP3    H238820   5.060   1.065   2.922
12955TIP3   OH238821   0.572   2.928   4.772
12955TIP3    H138822   0.495   2.871   4.775
12955TIP3    H238823   0.546   3.002   4.717
12956TIP3   OH238824   0.732   6.686   5.078
12956TIP3    H138825   0.714   6.711   5.169
12956TIP3    H238826   0.814   6.731   5.057
12957TIP3   OH238827   2.352   4.478   6.068
12957TIP3    H138828   2.310   4.548   6.017
12957TIP3    H238829   2.443   4.479   6.041
12958TIP3   OH238830   1.060   2.660   1.933
12958TIP3    H138831   1.135   2.720   1.928
12958TIP3    H238832   0.988   2.709   1.892
12959TIP3   OH238833   7.634   6.652   0.706
12959TIP3    H138834   7.631   6.676   0.613
12959TIP3    H238835   7.560   6.698   0.746
12960TIP3   OH238836   6.594   0.481   4.025
12960TIP3    H138837   6.619   0.554   3.969
12960TIP3    H238838   6.515   0.510   4.070
12961TIP3   OH238839   2.316   6.693   6.573
12961TIP3    H138840   2.235   6.710   6.525
12961TIP3    H238841   2.291   6.699   6.665
12962TIP3   OH238842   2.000   1.099   6.629
12962TIP3    H138843   1.916   1.144   6.614
12962TIP3    H238844   2.033   1.136   6.711
12963TIP3   OH238845   2.818   1.390   3.589
12963TIP3    H138846   2.750   1.397   3.522
12963TIP3    H238847   2.897   1.364   3.540
12964TIP3   OH238848   0.772   6.458   0.862
12964TIP3    H138849   0.744   6.471   0.771
12964TIP3    H238850   0.866   6.438   0.856
12965TIP3   OH238851   1.968   0.529   3.426
12965TIP3    H138852   1.944   0.502   3.514
12965TIP3    H238853   2.041   0.471   3.402
12966TIP3   OH238854   2.651   4.613   2.595
12966TIP3    H138855   2.618   4.523   2.591
12966TIP3    H238856   2.573   4.668   2.595
12967TIP3   OH238857   0.229   2.208   4.356
12967TIP3    H138858   0.324   2.210   4.370
12967TIP3    H238859   0.215   2.268   4.282
12968TIP3   OH238860   4.433   1.803   0.157
12968TIP3    H138861   4.410   1.714   0.182
12968TIP3    H238862   4.515   1.794   0.108
12969TIP3   OH238863   3.765   1.613   4.914
12969TIP3    H138864   3.781   1.703   4.886
12969TIP3    H238865   3.705   1.578   4.848
12970TIP3   OH238866   2.862   3.253   6.077
12970TIP3    H138867   2.851   3.212   5.991
12970TIP3    H238868   2.943   3.216   6.111
12971TIP3   OH238869   2.620   3.964   3.058
12971TIP3    H138870   2.712   3.947   3.039
12971TIP3    H238871   2.591   4.022   2.987
12972TIP3   OH238872   5.494   7.623   6.100
12972TIP3    H138873   5.545   7.651   6.024
12972TIP3    H238874   5.469   7.705   6.143
12973TIP3   OH238875   7.835   6.540   0.398
12973TIP3    H138876   7.875   6.627   0.393
12973TIP3    H238877   7.823   6.524   0.492
12974TIP3   OH238878   4.677   5.918   0.544
12974TIP3    H138879   4.712   5.877   0.624
12974TIP3    H238880   4.610   5.857   0.513
12975TIP3   OH238881   4.859   1.998   3.533
12975TIP3    H138882   4.897   2.049   3.462
12975TIP3    H238883   4.848   1.910   3.496
12976TIP3   OH238884   2.048   0.600   2.481
12976TIP3    H138885   2.118   0.665   2.475
12976TIP3    H238886   2.094   0.516   2.484
12977TIP3   OH238887   1.099   4.332   6.557
12977TIP3    H138888   1.162   4.281   6.608
12977TIP3    H238889   1.024   4.273   6.544
12978TIP3   OH238890   1.334   6.146   5.135
12978TIP3    H138891   1.265   6.188   5.083
12978TIP3    H238892   1.413   6.155   5.083
12979TIP3   OH238893   0.883   0.937   2.950
12979TIP3    H138894   0.830   0.878   2.897
12979TIP3    H238895   0.831   1.017   2.957
12980TIP3   OH238896   3.347   0.285   0.078
12980TIP3    H138897   3.283   0.282   0.007
12980TIP3    H238898   3.312   0.226   0.145
12981TIP3   OH238899   0.646   0.955   5.924
12981TIP3    H138900   0.691   0.980   6.005
12981TIP3    H238901   0.715   0.954   5.858
12982TIP3   OH238902   6.230   1.040   3.719
12982TIP3    H138903   6.183   1.121   3.739
12982TIP3    H238904   6.182   0.972   3.767
12983TIP3   OH238905   1.400   3.032   3.409
12983TIP3    H138906   1.408   3.084   3.329
12983TIP3    H238907   1.487   2.997   3.425
12984TIP3   OH238908   5.195   3.662   4.935
12984TIP3    H138909   5.155   3.606   4.869
12984TIP3    H238910   5.123   3.716   4.967
12985TIP3   OH238911   7.745   4.938   0.148
12985TIP3    H138912   7.749   4.843   0.164
12985TIP3    H238913   7.788   4.977   0.224
12986TIP3   OH238914   7.676   0.272   6.383
12986TIP3    H138915   7.631   0.274   6.298
12986TIP3    H238916   7.647   0.191   6.424
12987TIP3   OH238917   0.990   4.554   6.098
12987TIP3    H138918   0.953   4.534   6.012
12987TIP3    H238919   1.084   4.566   6.082
12988TIP3   OH238920   1.510   3.304   5.114
12988TIP3    H138921   1.498   3.250   5.036
12988TIP3    H238922   1.547   3.244   5.179
12989TIP3   OH238923   7.398   5.700   3.854
12989TIP3    H138924   7.309   5.673   3.877
12989TIP3    H238925   7.407   5.788   3.890
12990TIP3   OH238926   4.532   1.744   4.254
12990TIP3    H138927   4.536   1.796   4.174
12990TIP3    H238928   4.562   1.803   4.323
12991TIP3   OH238929   2.581   2.687   3.796
12991TIP3    H138930   2.661   2.678   3.847
12991TIP3    H238931   2.538   2.602   3.803
12992TIP3   OH238932   3.057   0.973   2.519
12992TIP3    H138933   2.987   1.034   2.496
12992TIP3    H238934   3.017   0.912   2.581
12993TIP3   OH238935   5.751   4.398   0.215
12993TIP3    H138936   5.662   4.371   0.193
12993TIP3    H238937   5.776   4.458   0.145
12994TIP3   OH238938   5.880   0.388   5.134
12994TIP3    H138939   5.795   0.348   5.152
12994TIP3    H238940   5.881   0.400   5.039
12995TIP3   OH238941   0.101   2.234   5.913
12995TIP3    H138942   0.073   2.319   5.881
12995TIP3    H238943   0.094   2.240   6.009
12996TIP3   OH238944   6.264   7.693   5.523
12996TIP3    H138945   6.210   7.672   5.446
12996TIP3    H238946   6.306   7.610   5.545
12997TIP3   OH238947   7.472   3.027   3.906
12997TIP3    H138948   7.514   3.045   3.822
12997TIP3    H238949   7.389   3.074   3.903
12998TIP3   OH238950   5.942   2.160   0.632
12998TIP3    H138951   5.966   2.080   0.584
12998TIP3    H238952   6.024   2.187   0.674
12999TIP3   OH238953   5.959   7.236   2.223
12999TIP3    H138954   5.884   7.204   2.173
12999TIP3    H238955   5.924   7.248   2.312
13000TIP3   OH238956   7.738   5.144   6.057
13000TIP3    H138957   7.648   5.140   6.088
13000TIP3    H238958   7.732   5.128   5.963
13001TIP3   OH238959   1.774   2.773   1.841
13001TIP3    H138960   1.818   2.803   1.761
13001TIP3    H238961   1.689   2.818   1.839
13002TIP3   OH238962   8.203   0.570   3.827
13002TIP3    H138963   8.114   0.600   3.844
13002TIP3    H238964   8.192   0.488   3.778
13003TIP3   OH238965   5.600   0.149   4.466
13003TIP3    H138966   5.637   0.217   4.410
13003TIP3    H238967   5.644   0.161   4.550
13004TIP3   OH238968   2.442   4.732   6.520
13004TIP3    H138969   2.351   4.742   6.550
13004TIP3    H238970   2.472   4.651   6.561
13005TIP3   OH238971   5.062   3.343   2.381
13005TIP3    H138972   5.149   3.314   2.407
13005TIP3    H238973   5.051   3.428   2.425
13006TIP3   OH238974   4.895   0.260   2.737
13006TIP3    H138975   4.824   0.305   2.782
13006TIP3    H238976   4.940   0.211   2.806
13007TIP3   OH238977   5.865   2.626   1.584
13007TIP3    H138978   5.836   2.686   1.516
13007TIP3    H238979   5.787   2.608   1.636
13008TIP3   OH238980   0.770   6.804   1.836
13008TIP3    H138981   0.849   6.846   1.801
13008TIP3    H238982   0.698   6.844   1.787
13009TIP3   OH238983   0.889   2.005   3.630
13009TIP3    H138984   0.900   2.035   3.540
13009TIP3    H238985   0.889   1.909   3.624
13010TIP3   OH238986   2.636   0.363   6.129
13010TIP3    H138987   2.677   0.278   6.144
13010TIP3    H238988   2.593   0.354   6.044
13011TIP3   OH238989   5.752   7.835   4.587
13011TIP3    H138990   5.711   7.903   4.533
13011TIP3    H238991   5.737   7.754   4.538
13012TIP3   OH238992   1.649   1.257   1.877
13012TIP3    H138993   1.603   1.186   1.922
13012TIP3    H238994   1.741   1.231   1.880
13013TIP3   OH238995   7.591   3.308   1.384
13013TIP3    H138996   7.530   3.273   1.318
13013TIP3    H238997   7.594   3.240   1.451
13014TIP3   OH238998   5.388   1.220   6.350
13014TIP3    H138999   5.441   1.175   6.416
13014TIP3    H239000   5.390   1.312   6.376
13015TIP3   OH239001   1.764   1.292   2.985
13015TIP3    H139002   1.729   1.215   2.939
13015TIP3    H239003   1.710   1.365   2.956
13016TIP3   OH239004   7.592   3.617   2.363
13016TIP3    H139005   7.686   3.629   2.375
13016TIP3    H239006   7.557   3.705   2.359
13017TIP3   OH239007   4.524   5.541   1.344
13017TIP3    H139008   4.557   5.467   1.293
13017TIP3    H239009   4.601   5.577   1.388
13018TIP3   OH239010   2.360   1.713   5.948
13018TIP3    H139011   2.305   1.733   6.023
13018TIP3    H239012   2.300   1.716   5.873
13019TIP3   OH239013   4.735   4.545   1.431
13019TIP3    H139014   4.722   4.564   1.524
13019TIP3    H239015   4.646   4.542   1.395
13020TIP3   OH239016   7.123   5.440   6.810
13020TIP3    H139017   7.141   5.360   6.762
13020TIP3    H239018   7.036   5.467   6.780
13021TIP3   OH239019   1.887   0.601   1.359
13021TIP3    H139020   1.885   0.627   1.451
13021TIP3    H239021   1.848   0.675   1.313
13022TIP3   OH239022   5.633   2.109   6.282
13022TIP3    H139023   5.727   2.089   6.280
13022TIP3    H239024   5.630   2.204   6.294
13023TIP3   OH239025   2.789   5.663   5.175
13023TIP3    H139026   2.806   5.636   5.085
13023TIP3    H239027   2.872   5.650   5.221
13024TIP3   OH239028   8.184   1.630   1.014
13024TIP3    H139029   8.187   1.686   1.092
13024TIP3    H239030   8.109   1.663   0.964
13025TIP3   OH239031   6.489   3.282   4.083
13025TIP3    H139032   6.506   3.202   4.131
13025TIP3    H239033   6.434   3.335   4.141
13026TIP3   OH239034   5.243   4.414   2.581
13026TIP3    H139035   5.256   4.504   2.552
13026TIP3    H239036   5.148   4.405   2.590
13027TIP3   OH239037   5.401   6.120   5.873
13027TIP3    H139038   5.429   6.102   5.783
13027TIP3    H239039   5.445   6.054   5.925
13028TIP3   OH239040   0.375   3.042   1.148
13028TIP3    H139041   0.369   2.958   1.102
13028TIP3    H239042   0.285   3.075   1.151
13029TIP3   OH239043   3.018   2.051   5.153
13029TIP3    H139044   3.015   2.135   5.198
13029TIP3    H239045   3.105   2.046   5.115
13030TIP3   OH239046   2.815   4.326   5.749
13030TIP3    H139047   2.748   4.345   5.815
13030TIP3    H239048   2.791   4.240   5.714
13031TIP3   OH239049   6.141   0.959   0.131
13031TIP3    H139050   6.163   0.866   0.143
13031TIP3    H239051   6.147   0.996   0.219
13032TIP3   OH239052   4.878   1.673   0.472
13032TIP3    H139053   4.860   1.681   0.565
13032TIP3    H239054   4.809   1.615   0.438
13033TIP3   OH239055   7.306   2.268   3.012
13033TIP3    H139056   7.322   2.244   3.103
13033TIP3    H239057   7.249   2.344   3.017
13034TIP3   OH239058   7.520   0.270   0.552
13034TIP3    H139059   7.571   0.194   0.577
13034TIP3    H239060   7.448   0.273   0.615
13035TIP3   OH239061   0.050   0.355   1.993
13035TIP3    H139062  -0.003   0.379   2.069
13035TIP3    H239063   0.000   0.287   1.949
13036TIP3   OH239064   0.578   5.613   4.202
13036TIP3    H139065   0.551   5.580   4.288
13036TIP3    H239066   0.570   5.537   4.144
13037TIP3   OH239067   0.246   7.601   1.197
13037TIP3    H139068   0.205   7.629   1.116
13037TIP3    H239069   0.268   7.509   1.183
13038TIP3   OH239070   5.862   1.068   4.644
13038TIP3    H139071   5.888   1.110   4.562
13038TIP3    H239072   5.894   1.126   4.712
13039TIP3   OH239073   8.029   1.290   3.729
13039TIP3    H139074   8.062   1.242   3.805
13039TIP3    H239075   7.985   1.366   3.766
13040TIP3   OH239076   4.931   0.250   2.062
13040TIP3    H139077   4.990   0.175   2.057
13040TIP3    H239078   4.858   0.220   2.117
13041TIP3   OH239079   4.523   6.761   2.083
13041TIP3    H139080   4.579   6.703   2.031
13041TIP3    H239081   4.434   6.733   2.064
13042TIP3   OH239082   7.225   7.308   5.216
13042TIP3    H139083   7.290   7.378   5.228
13042TIP3    H239084   7.277   7.230   5.197
13043TIP3   OH239085   5.175   0.448   2.112
13043TIP3    H139086   5.141   0.358   2.113
13043TIP3    H239087   5.107   0.500   2.156
13044TIP3   OH239088   7.985   1.651   0.535
13044TIP3    H139089   8.017   1.613   0.617
13044TIP3    H239090   8.001   1.582   0.470
13045TIP3   OH239091   2.454   2.433   6.560
13045TIP3    H139092   2.436   2.346   6.596
13045TIP3    H239093   2.549   2.434   6.547
13046TIP3   OH239094   3.325   3.776   3.137
13046TIP3    H139095   3.251   3.767   3.196
13046TIP3    H239096   3.298   3.843   3.075
13047TIP3   OH239097   2.584   6.179   5.281
13047TIP3    H139098   2.600   6.252   5.221
13047TIP3    H239099   2.577   6.103   5.224
13048TIP3   OH239100   2.226   3.265   5.760
13048TIP3    H139101   2.165   3.192   5.750
13048TIP3    H239102   2.197   3.311   5.838
13049TIP3   OH239103   6.775   6.712   4.504
13049TIP3    H139104   6.855   6.763   4.519
13049TIP3    H239105   6.713   6.775   4.469
13050TIP3   OH239106   6.238   7.128   0.188
13050TIP3    H139107   6.191   7.122   0.271
13050TIP3    H239108   6.327   7.099   0.208
13051TIP3   OH239109   7.829   4.041   3.110
13051TIP3    H139110   7.902   4.022   3.169
13051TIP3    H239111   7.870   4.053   3.024
13052TIP3   OH239112   7.672   6.719   5.034
13052TIP3    H139113   7.611   6.646   5.028
13052TIP3    H239114   7.719   6.705   5.117
13053TIP3   OH239115   7.014   7.736   0.166
13053TIP3    H139116   6.933   7.752   0.119
13053TIP3    H239117   6.988   7.684   0.242
13054TIP3   OH239118   2.333   3.998   6.727
13054TIP3    H139119   2.353   4.090   6.709
13054TIP3    H239120   2.417   3.960   6.752
13055TIP3   OH239121   4.901   0.576   2.785
13055TIP3    H139122   4.976   0.534   2.743
13055TIP3    H239123   4.872   0.642   2.721
13056TIP3   OH239124   3.253   1.487   0.804
13056TIP3    H139125   3.161   1.487   0.778
13056TIP3    H239126   3.267   1.399   0.841
13057TIP3   OH239127   6.644   1.768   1.240
13057TIP3    H139128   6.649   1.820   1.160
13057TIP3    H239129   6.654   1.831   1.311
13058TIP3   OH239130   0.102   3.251   6.479
13058TIP3    H139131   0.019   3.293   6.500
13058TIP3    H239132   0.133   3.216   6.562
13059TIP3   OH239133   5.609   2.968   6.587
13059TIP3    H139134   5.658   3.002   6.662
13059TIP3    H239135   5.660   2.892   6.558
13060TIP3   OH239136   3.043   5.736   2.787
13060TIP3    H139137   3.073   5.724   2.696
13060TIP3    H239138   2.953   5.703   2.786
13061TIP3   OH239139   6.770   4.327   6.403
13061TIP3    H139140   6.733   4.411   6.432
13061TIP3    H239141   6.695   4.277   6.371
13062TIP3   OH239142   3.281   1.432   2.853
13062TIP3    H139143   3.275   1.497   2.923
13062TIP3    H239144   3.235   1.473   2.779
13063TIP3   OH239145   0.084   1.150   3.567
13063TIP3    H139146   0.089   1.230   3.619
13063TIP3    H239147   0.175   1.123   3.556
13064TIP3   OH239148   1.461   1.104   0.063
13064TIP3    H139149   1.468   1.156  -0.016
13064TIP3    H239150   1.444   1.015   0.032
13065TIP3   OH239151   6.436   7.335   0.297
13065TIP3    H139152   6.365   7.321   0.360
13065TIP3    H239153   6.438   7.254   0.246
13066TIP3   OH239154   2.172   4.704   5.991
13066TIP3    H139155   2.093   4.689   6.044
13066TIP3    H239156   2.140   4.706   5.901
13067TIP3   OH239157   2.523   4.444   3.490
13067TIP3    H139158   2.514   4.361   3.538
13067TIP3    H239159   2.504   4.421   3.399
13068TIP3   OH239160   3.347   3.172   5.988
13068TIP3    H139161   3.436   3.161   6.022
13068TIP3    H239162   3.301   3.094   6.018
13069TIP3   OH239163   0.193   2.737   2.241
13069TIP3    H139164   0.175   2.780   2.324
13069TIP3    H239165   0.198   2.809   2.177
13070TIP3   OH239166   4.094   3.822   6.514
13070TIP3    H139167   4.118   3.906   6.553
13070TIP3    H239168   4.177   3.777   6.499
13071TIP3   OH239169   4.151   1.118   5.580
13071TIP3    H139170   4.079   1.091   5.523
13071TIP3    H239171   4.217   1.151   5.520
13072TIP3   OH239172   1.715   0.464   3.841
13072TIP3    H139173   1.676   0.411   3.771
13072TIP3    H239174   1.640   0.494   3.893
13073TIP3   OH239175   1.368   0.250   5.003
13073TIP3    H139176   1.422   0.327   4.987
13073TIP3    H239177   1.321   0.270   5.084
13074TIP3   OH239178   7.948   3.375   6.268
13074TIP3    H139179   7.891   3.424   6.327
13074TIP3    H239180   7.902   3.377   6.184
13075TIP3   OH239181   0.781   6.132   1.984
13075TIP3    H139182   0.770   6.065   2.051
13075TIP3    H239183   0.768   6.086   1.901
13076TIP3   OH239184   7.501   4.415   3.403
13076TIP3    H139185   7.504   4.463   3.486
13076TIP3    H239186   7.547   4.472   3.341
13077TIP3   OH239187   2.940   0.197   1.672
13077TIP3    H139188   2.850   0.223   1.690
13077TIP3    H239189   2.984   0.278   1.645
13078TIP3   OH239190   3.363   2.455   3.684
13078TIP3    H139191   3.436   2.504   3.721
13078TIP3    H239192   3.404   2.376   3.649
13079TIP3   OH239193   7.157   1.220   5.983
13079TIP3    H139194   7.092   1.164   5.940
13079TIP3    H239195   7.237   1.167   5.984
13080TIP3   OH239196   2.858   0.656   5.357
13080TIP3    H139197   2.842   0.654   5.262
13080TIP3    H239198   2.820   0.574   5.389
13081TIP3   OH239199   7.166   1.136   3.123
13081TIP3    H139200   7.254   1.173   3.118
13081TIP3    H239201   7.181   1.042   3.130
13082TIP3   OH239202   0.521   3.526   4.530
13082TIP3    H139203   0.449   3.476   4.569
13082TIP3    H239204   0.515   3.508   4.436
13083TIP3   OH239205   1.403   0.048   1.652
13083TIP3    H139206   1.439  -0.009   1.720
13083TIP3    H239207   1.393   0.133   1.694
13084TIP3   OH239208   3.484   1.163   5.323
13084TIP3    H139209   3.438   1.089   5.362
13084TIP3    H239210   3.489   1.228   5.393
13085TIP3   OH239211   3.758   0.199   0.862
13085TIP3    H139212   3.673   0.172   0.897
13085TIP3    H239213   3.794   0.256   0.930
13086TIP3   OH239214   2.006   0.083   2.427
13086TIP3    H139215   2.002   0.006   2.370
13086TIP3    H239216   1.932   0.073   2.486
13087TIP3   OH239217   7.111   5.750   3.723
13087TIP3    H139218   7.123   5.681   3.788
13087TIP3    H239219   7.016   5.758   3.712
13088TIP3   OH239220   4.864   3.895   1.180
13088TIP3    H139221   4.893   3.950   1.252
13088TIP3    H239222   4.918   3.816   1.186
13089TIP3   OH239223   6.268   5.010   6.689
13089TIP3    H139224   6.274   4.926   6.643
13089TIP3    H239225   6.218   4.990   6.769
13090TIP3   OH239226   7.224   6.611   6.490
13090TIP3    H139227   7.194   6.702   6.496
13090TIP3    H239228   7.306   6.610   6.539
13091TIP3   OH239229   2.569   2.965   5.687
13091TIP3    H139230   2.509   2.894   5.709
13091TIP3    H239231   2.656   2.928   5.705
13092TIP3   OH239232   7.564   6.956   6.713
13092TIP3    H139233   7.627   6.887   6.734
13092TIP3    H239234   7.617   7.035   6.706
13093TIP3   OH239235   4.565   0.273   5.394
13093TIP3    H139236   4.637   0.328   5.364
13093TIP3    H239237   4.608   0.190   5.418
13094TIP3   OH239238   1.662   7.194   5.774
13094TIP3    H139239   1.695   7.256   5.709
13094TIP3    H239240   1.609   7.133   5.723
13095TIP3   OH239241   3.265   2.591   4.206
13095TIP3    H139242   3.184   2.556   4.245
13095TIP3    H239243   3.277   2.676   4.249
13096TIP3   OH239244   4.880   1.214   1.146
13096TIP3    H139245   4.787   1.194   1.153
13096TIP3    H239246   4.923   1.128   1.145
13097TIP3   OH239247   6.684   7.260   5.269
13097TIP3    H139248   6.648   7.328   5.326
13097TIP3    H239249   6.774   7.249   5.298
13098TIP3   OH239250   2.679   4.642   0.681
13098TIP3    H139251   2.774   4.654   0.686
13098TIP3    H239252   2.643   4.731   0.690
13099TIP3   OH239253   6.081   4.452   5.401
13099TIP3    H139254   5.991   4.482   5.409
13099TIP3    H239255   6.094   4.443   5.306
13100TIP3   OH239256   2.357   5.564   6.769
13100TIP3    H139257   2.400   5.482   6.745
13100TIP3    H239258   2.264   5.547   6.755
13101TIP3   OH239259   2.627   6.516   6.214
13101TIP3    H139260   2.554   6.563   6.255
13101TIP3    H239261   2.698   6.520   6.278
13102TIP3   OH239262   1.544   0.462   5.072
13102TIP3    H139263   1.482   0.475   5.143
13102TIP3    H239264   1.622   0.425   5.114
13103TIP3   OH239265   1.304   7.242   5.967
13103TIP3    H139266   1.281   7.322   5.919
13103TIP3    H239267   1.284   7.262   6.058
13104TIP3   OH239268   1.803   2.597   6.759
13104TIP3    H139269   1.726   2.539   6.756
13104TIP3    H239270   1.867   2.555   6.701
13105TIP3   OH239271   3.297   0.183   4.473
13105TIP3    H139272   3.313   0.100   4.429
13105TIP3    H239273   3.369   0.240   4.446
13106TIP3   OH239274   4.017   0.477   4.499
13106TIP3    H139275   3.998   0.566   4.529
13106TIP3    H239276   4.003   0.480   4.405
13107TIP3   OH239277   1.014   1.133   2.405
13107TIP3    H139278   0.944   1.196   2.427
13107TIP3    H239279   1.004   1.063   2.469
13108TIP3   OH239280   0.112   7.461   0.574
13108TIP3    H139281   0.127   7.371   0.545
13108TIP3    H239282   0.189   7.509   0.546
13109TIP3   OH239283   0.711   5.291   1.404
13109TIP3    H139284   0.798   5.259   1.380
13109TIP3    H239285   0.677   5.330   1.323
13110TIP3   OH239286   2.896   4.612   1.790
13110TIP3    H139287   2.981   4.654   1.799
13110TIP3    H239288   2.838   4.660   1.849
13111TIP3   OH239289   0.685   0.026   5.799
13111TIP3    H139290   0.775   0.002   5.821
13111TIP3    H239291   0.659  -0.037   5.732
13112TIP3   OH239292   5.810   2.322   6.332
13112TIP3    H139293   5.879   2.386   6.351
13112TIP3    H239294   5.854   2.238   6.337
13113TIP3   OH239295   7.974   4.351   6.048
13113TIP3    H139296   8.055   4.338   6.097
13113TIP3    H239297   7.957   4.266   6.008
13114TIP3   OH239298   3.290   7.805   3.822
13114TIP3    H139299   3.224   7.872   3.803
13114TIP3    H239300   3.251   7.753   3.892
13115TIP3   OH239301   0.451   6.835   0.819
13115TIP3    H139302   0.545   6.827   0.801
13115TIP3    H239303   0.414   6.753   0.789
13116TIP3   OH239304   6.987   5.474   0.941
13116TIP3    H139305   6.922   5.412   0.974
13116TIP3    H239306   7.060   5.466   1.001
13117TIP3   OH239307   7.267   2.205   2.107
13117TIP3    H139308   7.302   2.246   2.028
13117TIP3    H239309   7.183   2.249   2.122
13118TIP3   OH239310   6.154   0.922   4.306
13118TIP3    H139311   6.209   0.868   4.249
13118TIP3    H239312   6.066   0.886   4.297
13119TIP3   OH239313   1.393   2.818   1.986
13119TIP3    H139314   1.339   2.848   1.914
13119TIP3    H239315   1.345   2.844   2.065
13120TIP3   OH239316   2.999   7.235   2.114
13120TIP3    H139317   3.045   7.244   2.198
13120TIP3    H239318   3.068   7.241   2.049
13121TIP3   OH239319   4.944   0.410   2.321
13121TIP3    H139320   4.856   0.398   2.355
13121TIP3    H239321   4.961   0.330   2.270
13122TIP3   OH239322   1.198   0.764   2.825
13122TIP3    H139323   1.143   0.697   2.865
13122TIP3    H239324   1.216   0.730   2.737
13123TIP3   OH239325   4.270   7.792   1.010
13123TIP3    H139326   4.249   7.795   1.103
13123TIP3    H239327   4.357   7.753   1.006
13124TIP3   OH239328   3.284   0.893   6.041
13124TIP3    H139329   3.293   0.988   6.031
13124TIP3    H239330   3.373   0.863   6.059
13125TIP3   OH239331   7.087   3.044   2.426
13125TIP3    H139332   7.138   3.051   2.507
13125TIP3    H239333   7.003   3.085   2.447
13126TIP3   OH239334   7.156   4.122   3.493
13126TIP3    H139335   7.227   4.146   3.553
13126TIP3    H239336   7.175   4.032   3.468
13127TIP3   OH239337   5.877   3.427   2.085
13127TIP3    H139338   5.889   3.384   2.169
13127TIP3    H239339   5.925   3.372   2.023
13128TIP3   OH239340   1.343   5.011   2.588
13128TIP3    H139341   1.311   4.921   2.599
13128TIP3    H239342   1.284   5.050   2.523
13129TIP3   OH239343   4.750   7.356   0.563
13129TIP3    H139344   4.775   7.381   0.474
13129TIP3    H239345   4.673   7.300   0.552
13130TIP3   OH239346   6.180   2.476   5.036
13130TIP3    H139347   6.112   2.454   5.100
13130TIP3    H239348   6.262   2.450   5.078
13131TIP3   OH239349   4.657   2.713   6.222
13131TIP3    H139350   4.667   2.770   6.298
13131TIP3    H239351   4.746   2.682   6.203
13132TIP3   OH239352   2.904   7.197   4.622
13132TIP3    H139353   2.952   7.261   4.674
13132TIP3    H239354   2.841   7.249   4.572
13133TIP3   OH239355   7.947   1.345   0.564
13133TIP3    H139356   8.009   1.343   0.636
13133TIP3    H239357   8.000   1.359   0.486
13134TIP3   OH239358   1.026   0.543   6.531
13134TIP3    H139359   0.933   0.566   6.521
13134TIP3    H239360   1.059   0.607   6.594
13135TIP3   OH239361   4.418   3.939   2.629
13135TIP3    H139362   4.340   3.886   2.614
13135TIP3    H239363   4.478   3.913   2.558
13136TIP3   OH239364   7.453   4.424   6.040
13136TIP3    H139365   7.398   4.362   6.089
13136TIP3    H239366   7.539   4.383   6.038
13137TIP3   OH239367   0.163   3.126   1.685
13137TIP3    H139368   0.088   3.169   1.645
13137TIP3    H239369   0.164   3.157   1.776
13138TIP3   OH239370   5.158   1.821   1.624
13138TIP3    H139371   5.100   1.837   1.699
13138TIP3    H239372   5.216   1.897   1.622
13139TIP3   OH239373   7.084   6.625   1.391
13139TIP3    H139374   7.124   6.712   1.390
13139TIP3    H239375   7.157   6.564   1.383
13140TIP3   OH239376   0.019   4.102   2.418
13140TIP3    H139377   0.022   4.120   2.512
13140TIP3    H239378   0.110   4.085   2.395
13141TIP3   OH239379   6.639   0.457   4.396
13141TIP3    H139380   6.598   0.375   4.422
13141TIP3    H239381   6.641   0.510   4.476
13142TIP3   OH239382   3.176   5.917   0.360
13142TIP3    H139383   3.113   5.877   0.420
13142TIP3    H239384   3.124   5.979   0.309
13143TIP3   OH239385   5.106   6.595   6.383
13143TIP3    H139386   5.104   6.677   6.432
13143TIP3    H239387   5.167   6.612   6.311
13144TIP3   OH239388   6.611   1.644   0.798
13144TIP3    H139389   6.645   1.555   0.790
13144TIP3    H239390   6.617   1.681   0.710
13145TIP3   OH239391   4.304   1.309   1.763
13145TIP3    H139392   4.396   1.291   1.744
13145TIP3    H239393   4.263   1.223   1.771
13146TIP3   OH239394   2.603   1.320   6.201
13146TIP3    H139395   2.653   1.363   6.271
13146TIP3    H239396   2.528   1.376   6.187
13147TIP3   OH239397   6.809   4.197   1.125
13147TIP3    H139398   6.888   4.248   1.104
13147TIP3    H239399   6.758   4.198   1.044
13148TIP3   OH239400   2.190   0.088   2.903
13148TIP3    H139401   2.101   0.084   2.938
13148TIP3    H239402   2.179   0.108   2.810
13149TIP3   OH239403   4.580   5.372   4.454
13149TIP3    H139404   4.614   5.362   4.543
13149TIP3    H239405   4.488   5.395   4.467
13150TIP3   OH239406   6.493   6.468   4.905
13150TIP3    H139407   6.588   6.458   4.911
13150TIP3    H239408   6.481   6.544   4.848
13151TIP3   OH239409   2.399   3.721   3.413
13151TIP3    H139410   2.354   3.742   3.495
13151TIP3    H239411   2.480   3.771   3.416
13152TIP3   OH239412   5.884   1.159   5.475
13152TIP3    H139413   5.883   1.070   5.440
13152TIP3    H239414   5.792   1.179   5.491
13153TIP3   OH239415   2.984   0.997   4.165
13153TIP3    H139416   2.916   1.040   4.113
13153TIP3    H239417   2.980   0.905   4.139
13154TIP3   OH239418   7.712   5.012   0.723
13154TIP3    H139419   7.652   4.996   0.796
13154TIP3    H239420   7.655   5.038   0.651
13155TIP3   OH239421   1.653   3.651   6.067
13155TIP3    H139422   1.625   3.589   6.133
13155TIP3    H239423   1.740   3.621   6.040
13156TIP3   OH239424   8.017   4.757   3.535
13156TIP3    H139425   7.997   4.797   3.451
13156TIP3    H239426   8.098   4.708   3.520
13157TIP3   OH239427   5.580   0.924   5.919
13157TIP3    H139428   5.492   0.920   5.882
13157TIP3    H239429   5.636   0.951   5.845
13158TIP3   OH239430   0.991   7.732   6.260
13158TIP3    H139431   0.966   7.753   6.170
13158TIP3    H239432   0.919   7.767   6.313
13159TIP3   OH239433   1.770   6.676   4.835
13159TIP3    H139434   1.817   6.754   4.864
13159TIP3    H239435   1.680   6.706   4.821
13160TIP3   OH239436   7.293   2.965   4.951
13160TIP3    H139437   7.282   2.949   5.044
13160TIP3    H239438   7.386   2.988   4.942
13161TIP3   OH239439   0.029   3.282   3.504
13161TIP3    H139440   0.109   3.230   3.508
13161TIP3    H239441   0.008   3.287   3.411
13162TIP3   OH239442   0.216   5.817   2.560
13162TIP3    H139443   0.166   5.780   2.632
13162TIP3    H239444   0.302   5.836   2.597
13163TIP3   OH239445   1.266   6.695   0.380
13163TIP3    H139446   1.241   6.780   0.416
13163TIP3    H239447   1.361   6.694   0.383
13164TIP3   OH239448   2.610   6.676   1.220
13164TIP3    H139449   2.527   6.682   1.174
13164TIP3    H239450   2.609   6.748   1.282
13165TIP3   OH239451   2.339   1.169   5.809
13165TIP3    H139452   2.427   1.206   5.816
13165TIP3    H239453   2.343   1.088   5.860
13166TIP3   OH239454   4.677   6.266   4.818
13166TIP3    H139455   4.711   6.321   4.889
13166TIP3    H239456   4.587   6.296   4.807
13167TIP3   OH239457   2.301   7.508   2.547
13167TIP3    H139458   2.338   7.429   2.586
13167TIP3    H239459   2.350   7.580   2.587
13168TIP3   OH239460   4.517   1.081   0.943
13168TIP3    H139461   4.555   0.997   0.968
13168TIP3    H239462   4.424   1.062   0.930
13169TIP3   OH239463   6.562   3.599   5.248
13169TIP3    H139464   6.646   3.608   5.293
13169TIP3    H239465   6.497   3.630   5.312
13170TIP3   OH239466   7.938   1.058   1.907
13170TIP3    H139467   7.896   0.972   1.901
13170TIP3    H239468   7.922   1.098   1.821
13171TIP3   OH239469   8.289   6.529   0.438
13171TIP3    H139470   8.226   6.490   0.377
13171TIP3    H239471   8.236   6.564   0.509
13172TIP3   OH239472   0.235   0.666   5.754
13172TIP3    H139473   0.328   0.687   5.764
13172TIP3    H239474   0.221   0.592   5.813
13173TIP3   OH239475   1.790   6.318   1.658
13173TIP3    H139476   1.818   6.400   1.615
13173TIP3    H239477   1.695   6.317   1.648
13174TIP3   OH239478   1.634   2.216   5.916
13174TIP3    H139479   1.543   2.235   5.938
13174TIP3    H239480   1.631   2.141   5.857
13175TIP3   OH239481   2.861   7.182   2.745
13175TIP3    H139482   2.825   7.097   2.769
13175TIP3    H239483   2.866   7.230   2.828
13176TIP3   OH239484   0.163   4.307   6.609
13176TIP3    H139485   0.106   4.307   6.533
13176TIP3    H239486   0.111   4.347   6.679
13177TIP3   OH239487   1.720   0.888   0.212
13177TIP3    H139488   1.644   0.932   0.173
13177TIP3    H239489   1.775   0.959   0.243
13178TIP3   OH239490   1.564   1.737   5.659
13178TIP3    H139491   1.553   1.829   5.684
13178TIP3    H239492   1.654   1.732   5.627
13179TIP3   OH239493   2.258   6.973   3.325
13179TIP3    H139494   2.288   6.983   3.235
13179TIP3    H239495   2.325   7.017   3.377
13180TIP3   OH239496   3.679   4.605   5.235
13180TIP3    H139497   3.758   4.658   5.247
13180TIP3    H239498   3.642   4.635   5.152
13181TIP3   OH239499   5.666   0.228   6.655
13181TIP3    H139500   5.672   0.196   6.565
13181TIP3    H239501   5.577   0.265   6.661
13182TIP3   OH239502   6.691   6.904   6.248
13182TIP3    H139503   6.715   6.933   6.336
13182TIP3    H239504   6.773   6.870   6.211
13183TIP3   OH239505   7.991   4.082   6.006
13183TIP3    H139506   8.054   4.040   5.947
13183TIP3    H239507   7.926   4.015   6.024
13184TIP3   OH239508   1.750   2.829   1.102
13184TIP3    H139509   1.831   2.783   1.079
13184TIP3    H239510   1.774   2.922   1.101
13185TIP3   OH239511   0.867   1.094   1.990
13185TIP3    H139512   0.898   1.026   1.930
13185TIP3    H239513   0.881   1.056   2.077
13186TIP3   OH239514   5.812   4.631   4.470
13186TIP3    H139515   5.815   4.548   4.517
13186TIP3    H239516   5.902   4.644   4.440
13187TIP3   OH239517   7.879   7.280   5.427
13187TIP3    H139518   7.934   7.206   5.400
13187TIP3    H239519   7.924   7.316   5.504
13188TIP3   OH239520   5.053   5.702   1.038
13188TIP3    H139521   5.016   5.787   1.059
13188TIP3    H239522   5.127   5.722   0.980
13189TIP3   OH239523   6.572   4.737   3.465
13189TIP3    H139524   6.658   4.715   3.501
13189TIP3    H239525   6.564   4.684   3.386
13190TIP3   OH239526   4.884   1.172   0.704
13190TIP3    H139527   4.967   1.217   0.723
13190TIP3    H239528   4.905   1.113   0.632
13191TIP3   OH239529   0.379   4.616   1.811
13191TIP3    H139530   0.430   4.692   1.781
13191TIP3    H239531   0.296   4.652   1.839
13192TIP3   OH239532   6.496   5.951   1.672
13192TIP3    H139533   6.591   5.940   1.674
13192TIP3    H239534   6.476   5.972   1.581
13193TIP3   OH239535   1.906   3.674   2.330
13193TIP3    H139536   1.919   3.580   2.339
13193TIP3    H239537   1.994   3.709   2.312
13194TIP3   OH239538   5.673   1.337   6.785
13194TIP3    H139539   5.734   1.263   6.785
13194TIP3    H239540   5.727   1.412   6.760
13195TIP3   OH239541   0.694   7.008   6.438
13195TIP3    H139542   0.711   7.102   6.431
13195TIP3    H239543   0.608   7.002   6.479
13196TIP3   OH239544   1.303   6.846   6.386
13196TIP3    H139545   1.310   6.927   6.438
13196TIP3    H239546   1.393   6.826   6.360
13197TIP3   OH239547   8.116   3.255   3.227
13197TIP3    H139548   8.195   3.290   3.186
13197TIP3    H239549   8.117   3.162   3.205
13198TIP3   OH239550   4.074   1.547   4.776
13198TIP3    H139551   4.004   1.546   4.710
13198TIP3    H239552   4.118   1.631   4.762
13199TIP3   OH239553   0.582   3.215   4.246
13199TIP3    H139554   0.541   3.129   4.241
13199TIP3    H239555   0.508   3.275   4.263
13200TIP3   OH239556   3.138   6.144   2.283
13200TIP3    H139557   3.083   6.140   2.362
13200TIP3    H239558   3.129   6.235   2.253
13201TIP3   OH239559   3.894   3.785   3.328
13201TIP3    H139560   3.818   3.825   3.370
13201TIP3    H239561   3.912   3.842   3.254
13202TIP3   OH239562   3.251   1.892   5.939
13202TIP3    H139563   3.288   1.805   5.953
13202TIP3    H239564   3.203   1.884   5.856
13203TIP3   OH239565   0.578   6.464   6.113
13203TIP3    H139566   0.668   6.474   6.145
13203TIP3    H239567   0.524   6.499   6.184
13204TIP3   OH239568   7.349   7.582   1.127
13204TIP3    H139569   7.255   7.584   1.107
13204TIP3    H239570   7.390   7.547   1.048
13205TIP3   OH239571   2.877   2.191   3.259
13205TIP3    H139572   2.865   2.104   3.222
13205TIP3    H239573   2.970   2.194   3.282
13206TIP3   OH239574   0.709   7.000   1.022
13206TIP3    H139575   0.671   6.914   1.035
13206TIP3    H239576   0.747   6.998   0.934
13207TIP3   OH239577   2.257   2.636   0.763
13207TIP3    H139578   2.285   2.717   0.805
13207TIP3    H239579   2.162   2.645   0.755
13208TIP3   OH239580   7.894   1.845   5.821
13208TIP3    H139581   7.961   1.841   5.753
13208TIP3    H239582   7.874   1.754   5.842
13209TIP3   OH239583   1.226   5.772   4.326
13209TIP3    H139584   1.242   5.678   4.323
13209TIP3    H239585   1.206   5.796   4.235
13210TIP3   OH239586   4.084   3.041   2.508
13210TIP3    H139587   4.110   2.950   2.518
13210TIP3    H239588   3.991   3.037   2.484
13211TIP3   OH239589   7.049   1.471   4.450
13211TIP3    H139590   6.999   1.422   4.515
13211TIP3    H239591   6.984   1.518   4.399
13212TIP3   OH239592   7.371   2.486   4.973
13212TIP3    H139593   7.314   2.418   4.939
13212TIP3    H239594   7.368   2.555   4.906
13213TIP3   OH239595   0.341   4.292   4.348
13213TIP3    H139596   0.396   4.366   4.321
13213TIP3    H239597   0.355   4.226   4.280
13214TIP3   OH239598   6.124   1.469   2.609
13214TIP3    H139599   6.115   1.512   2.695
13214TIP3    H239600   6.118   1.375   2.629
13215TIP3   OH239601   8.009   2.475   0.759
13215TIP3    H139602   7.997   2.381   0.769
13215TIP3    H239603   8.093   2.494   0.801
13216TIP3   OH239604   6.541   2.078   3.829
13216TIP3    H139605   6.466   2.092   3.770
13216TIP3    H239606   6.579   2.165   3.841
13217TIP3   OH239607   3.040   5.139   2.814
13217TIP3    H139608   3.045   5.215   2.871
13217TIP3    H239609   3.065   5.172   2.728
13218TIP3   OH239610   6.396   0.473   4.879
13218TIP3    H139611   6.429   0.416   4.948
13218TIP3    H239612   6.304   0.487   4.901
13219TIP3   OH239613   7.884   0.270   1.637
13219TIP3    H139614   7.881   0.188   1.589
13219TIP3    H239615   7.968   0.309   1.613
13220TIP3   OH239616   0.561   5.348   0.104
13220TIP3    H139617   0.575   5.426   0.051
13220TIP3    H239618   0.494   5.374   0.168
13221TIP3   OH239619   0.834   0.055   1.990
13221TIP3    H139620   0.847   0.082   1.899
13221TIP3    H239621   0.918   0.074   2.032
13222TIP3   OH239622   2.048   5.399   5.510
13222TIP3    H139623   1.961   5.416   5.544
13222TIP3    H239624   2.106   5.408   5.586
13223TIP3   OH239625   4.216   2.304   0.468
13223TIP3    H139626   4.305   2.279   0.494
13223TIP3    H239627   4.174   2.329   0.551
13224TIP3   OH239628   6.538   3.572   6.308
13224TIP3    H139629   6.619   3.534   6.274
13224TIP3    H239630   6.567   3.649   6.357
13225TIP3   OH239631   0.717   3.709   2.804
13225TIP3    H139632   0.713   3.778   2.738
13225TIP3    H239633   0.702   3.753   2.887
13226TIP3   OH239634   4.365   7.127   0.281
13226TIP3    H139635   4.286   7.131   0.335
13226TIP3    H239636   4.356   7.201   0.221
13227TIP3   OH239637   6.062   5.434   0.293
13227TIP3    H139638   6.039   5.357   0.344
13227TIP3    H239639   6.005   5.431   0.217
13228TIP3   OH239640   6.943   3.104   3.907
13228TIP3    H139641   6.849   3.116   3.921
13228TIP3    H239642   6.975   3.070   3.990
13229TIP3   OH239643   3.347   6.974   5.688
13229TIP3    H139644   3.324   6.956   5.779
13229TIP3    H239645   3.429   6.926   5.674
13230TIP3   OH239646   1.336   3.349   4.040
13230TIP3    H139647   1.399   3.278   4.036
13230TIP3    H239648   1.251   3.305   4.036
13231TIP3   OH239649   7.407   3.296   1.987
13231TIP3    H139650   7.446   3.347   2.058
13231TIP3    H239651   7.350   3.233   2.033
13232TIP3   OH239652   0.730   3.416   2.459
13232TIP3    H139653   0.791   3.437   2.388
13232TIP3    H239654   0.645   3.407   2.416
13233TIP3   OH239655   6.860   3.925   4.382
13233TIP3    H139656   6.873   3.951   4.290
13233TIP3    H239657   6.899   3.996   4.432
13234TIP3   OH239658   0.690   1.117   5.419
13234TIP3    H139659   0.762   1.068   5.459
13234TIP3    H239660   0.686   1.084   5.329
13235TIP3   OH239661   4.087   1.574   6.142
13235TIP3    H139662   4.154   1.637   6.167
13235TIP3    H239663   4.055   1.605   6.058
13236TIP3   OH239664   2.275   5.593   2.570
13236TIP3    H139665   2.349   5.536   2.588
13236TIP3    H239666   2.204   5.533   2.545
13237TIP3   OH239667   0.269   0.976   0.572
13237TIP3    H139668   0.199   0.962   0.508
13237TIP3    H239669   0.348   0.945   0.527
13238TIP3   OH239670   2.417   0.728   5.276
13238TIP3    H139671   2.408   0.744   5.370
13238TIP3    H239672   2.330   0.697   5.249
13239TIP3   OH239673   1.285   3.232   4.860
13239TIP3    H139674   1.255   3.183   4.784
13239TIP3    H239675   1.360   3.182   4.892
13240TIP3   OH239676   4.916   7.620   5.050
13240TIP3    H139677   5.008   7.627   5.024
13240TIP3    H239678   4.880   7.552   4.994
13241TIP3   OH239679   5.539   4.617   6.316
13241TIP3    H139680   5.559   4.617   6.222
13241TIP3    H239681   5.624   4.630   6.358
13242TIP3   OH239682   4.574   5.671   3.889
13242TIP3    H139683   4.638   5.608   3.923
13242TIP3    H239684   4.514   5.619   3.836
13243TIP3   OH239685   3.175   3.624   4.303
13243TIP3    H139686   3.268   3.643   4.295
13243TIP3    H239687   3.164   3.591   4.392
13244TIP3   OH239688   2.499   2.469   4.591
13244TIP3    H139689   2.522   2.500   4.503
13244TIP3    H239690   2.498   2.373   4.583
13245TIP3   OH239691   7.896   2.015   6.733
13245TIP3    H139692   7.942   2.001   6.816
13245TIP3    H239693   7.841   1.938   6.723
13246TIP3   OH239694   5.340   6.749   3.648
13246TIP3    H139695   5.293   6.722   3.568
13246TIP3    H239696   5.284   6.718   3.719
13247TIP3   OH239697   8.186   1.821   0.389
13247TIP3    H139698   8.128   1.763   0.438
13247TIP3    H239699   8.132   1.898   0.369
13248TIP3   OH239700   6.692   6.229   1.257
13248TIP3    H139701   6.688   6.232   1.162
13248TIP3    H239702   6.620   6.285   1.287
13249TIP3   OH239703   4.910   4.382   6.827
13249TIP3    H139704   4.999   4.353   6.808
13249TIP3    H239705   4.855   4.330   6.769
13250TIP3   OH239706   1.593   1.458   6.326
13250TIP3    H139707   1.570   1.438   6.417
13250TIP3    H239708   1.600   1.554   6.323
13251TIP3   OH239709   4.368   4.233   3.781
13251TIP3    H139710   4.462   4.251   3.776
13251TIP3    H239711   4.361   4.143   3.811
13252TIP3   OH239712   6.151   1.342   1.430
13252TIP3    H139713   6.233   1.385   1.451
13252TIP3    H239714   6.102   1.341   1.513
13253TIP3   OH239715   0.297   0.512   6.422
13253TIP3    H139716   0.362   0.582   6.425
13253TIP3    H239717   0.292   0.480   6.512
13254TIP3   OH239718   2.328   2.213   2.918
13254TIP3    H139719   2.407   2.172   2.882
13254TIP3    H239720   2.274   2.231   2.841
13255TIP3   OH239721   4.537   6.933   1.181
13255TIP3    H139722   4.524   6.859   1.241
13255TIP3    H239723   4.599   6.989   1.227
13256TIP3   OH239724   4.494   0.877   5.659
13256TIP3    H139725   4.467   0.806   5.600
13256TIP3    H239726   4.523   0.947   5.600
13257TIP3   OH239727   2.348   7.663   6.051
13257TIP3    H139728   2.313   7.722   5.985
13257TIP3    H239729   2.272   7.611   6.079
13258TIP3   OH239730   4.227   6.300   0.604
13258TIP3    H139731   4.154   6.274   0.548
13258TIP3    H239732   4.241   6.225   0.661
13259TIP3   OH239733   6.165   3.938   3.272
13259TIP3    H139734   6.198   3.915   3.358
13259TIP3    H239735   6.075   3.965   3.287
13260TIP3   OH239736   0.978   1.686   5.833
13260TIP3    H139737   0.893   1.655   5.865
13260TIP3    H239738   1.025   1.712   5.912
13261TIP3   OH239739   4.072   7.627   5.161
13261TIP3    H139740   4.158   7.626   5.119
13261TIP3    H239741   4.034   7.711   5.137
13262TIP3   OH239742   0.911   4.453   5.190
13262TIP3    H139743   0.937   4.443   5.098
13262TIP3    H239744   0.841   4.388   5.201
13263TIP3   OH239745   3.673   1.684   4.145
13263TIP3    H139746   3.671   1.682   4.240
13263TIP3    H239747   3.624   1.763   4.121
13264TIP3   OH239748   0.310   3.664   0.999
13264TIP3    H139749   0.386   3.639   0.946
13264TIP3    H239750   0.272   3.581   1.028
13265TIP3   OH239751   0.317   4.192   1.465
13265TIP3    H139752   0.259   4.254   1.422
13265TIP3    H239753   0.335   4.231   1.551
13266TIP3   OH239754   5.314   5.766   0.637
13266TIP3    H139755   5.280   5.832   0.576
13266TIP3    H239756   5.277   5.684   0.606
13267TIP3   OH239757   5.954   3.658   5.808
13267TIP3    H139758   5.972   3.727   5.872
13267TIP3    H239759   5.998   3.580   5.844
13268TIP3   OH239760   3.371   6.120   6.435
13268TIP3    H139761   3.450   6.145   6.387
13268TIP3    H239762   3.302   6.174   6.397
13269TIP3   OH239763   3.406   7.161   1.831
13269TIP3    H139764   3.406   7.165   1.735
13269TIP3    H239765   3.378   7.072   1.852
13270TIP3   OH239766   4.302   3.879   5.633
13270TIP3    H139767   4.379   3.850   5.585
13270TIP3    H239768   4.275   3.802   5.683
13271TIP3   OH239769   3.297   3.209   3.529
13271TIP3    H139770   3.344   3.159   3.462
13271TIP3    H239771   3.319   3.164   3.611
13272TIP3   OH239772   0.445   1.262   2.009
13272TIP3    H139773   0.507   1.208   1.960
13272TIP3    H239774   0.491   1.284   2.090
13273TIP3   OH239775   5.391   7.261   2.445
13273TIP3    H139776   5.321   7.296   2.390
13273TIP3    H239777   5.378   7.304   2.530
13274TIP3   OH239778   2.696   2.813   1.139
13274TIP3    H139779   2.741   2.847   1.216
13274TIP3    H239780   2.733   2.726   1.125
13275TIP3   OH239781   3.939   5.395   4.068
13275TIP3    H139782   3.909   5.478   4.029
13275TIP3    H239783   4.031   5.388   4.043
13276TIP3   OH239784   0.714   1.719   4.303
13276TIP3    H139785   0.804   1.737   4.274
13276TIP3    H239786   0.683   1.803   4.337
13277TIP3   OH239787   7.096   1.563   0.791
13277TIP3    H139788   7.051   1.492   0.835
13277TIP3    H239789   7.132   1.617   0.862
13278TIP3   OH239790   0.929   0.759   3.989
13278TIP3    H139791   0.861   0.819   3.958
13278TIP3    H239792   0.991   0.754   3.917
13279TIP3   OH239793   4.477   6.311   6.730
13279TIP3    H139794   4.561   6.351   6.753
13279TIP3    H239795   4.496   6.217   6.729
13280TIP3   OH239796   1.668   2.446   2.530
13280TIP3    H139797   1.703   2.499   2.602
13280TIP3    H239798   1.573   2.454   2.539
13281TIP3   OH239799   6.710   2.866   6.066
13281TIP3    H139800   6.639   2.870   6.002
13281TIP3    H239801   6.781   2.819   6.021
13282TIP3   OH239802   2.189   3.041   0.821
13282TIP3    H139803   2.116   2.986   0.792
13282TIP3    H239804   2.201   3.104   0.750
13283TIP3   OH239805   7.560   6.986   0.189
13283TIP3    H139806   7.535   6.898   0.217
13283TIP3    H239807   7.650   6.996   0.220
13284TIP3   OH239808   2.194   5.371   1.285
13284TIP3    H139809   2.226   5.281   1.274
13284TIP3    H239810   2.134   5.366   1.359
13285TIP3   OH239811   2.466   0.120   5.695
13285TIP3    H139812   2.521   0.099   5.620
13285TIP3    H239813   2.390   0.062   5.685
13286TIP3   OH239814   8.233   0.828   0.893
13286TIP3    H139815   8.293   0.756   0.913
13286TIP3    H239816   8.190   0.848   0.976
13287TIP3   OH239817   4.749   2.363   3.966
13287TIP3    H139818   4.827   2.318   3.934
13287TIP3    H239819   4.678   2.299   3.956
13288TIP3   OH239820   5.119   7.377   4.152
13288TIP3    H139821   5.205   7.383   4.193
13288TIP3    H239822   5.092   7.286   4.165
13289TIP3   OH239823   7.374   5.817   4.197
13289TIP3    H139824   7.436   5.862   4.140
13289TIP3    H239825   7.399   5.841   4.286
13290TIP3   OH239826   4.988   4.326   5.469
13290TIP3    H139827   4.931   4.260   5.429
13290TIP3    H239828   4.994   4.395   5.403
13291TIP3   OH239829   6.517   2.969   3.670
13291TIP3    H139830   6.586   2.933   3.614
13291TIP3    H239831   6.495   2.897   3.730
13292TIP3   OH239832   1.237   2.065   1.670
13292TIP3    H139833   1.179   2.009   1.722
13292TIP3    H239834   1.178   2.114   1.612
13293TIP3   OH239835   7.252   5.607   1.468
13293TIP3    H139836   7.164   5.609   1.432
13293TIP3    H239837   7.309   5.591   1.392
13294TIP3   OH239838   5.514   5.513   6.743
13294TIP3    H139839   5.509   5.417   6.737
13294TIP3    H239840   5.553   5.540   6.661
13295TIP3   OH239841   5.908   4.027   3.281
13295TIP3    H139842   5.897   4.083   3.204
13295TIP3    H239843   5.870   4.077   3.353
13296TIP3   OH239844   2.465   0.235   4.139
13296TIP3    H139845   2.478   0.155   4.190
13296TIP3    H239846   2.510   0.219   4.057
13297TIP3   OH239847   5.206   3.192   6.563
13297TIP3    H139848   5.251   3.128   6.508
13297TIP3    H239849   5.273   3.222   6.624
13298TIP3   OH239850   2.324   5.130   3.494
13298TIP3    H139851   2.382   5.144   3.419
13298TIP3    H239852   2.318   5.215   3.537
13299TIP3   OH239853   1.945   7.624   5.029
13299TIP3    H139854   1.893   7.599   5.106
13299TIP3    H239855   2.003   7.550   5.015
13300TIP3   OH239856   7.370   0.128   2.832
13300TIP3    H139857   7.335   0.213   2.805
13300TIP3    H239858   7.465   0.136   2.816
13301TIP3   OH239859   5.018   1.956   6.323
13301TIP3    H139860   5.096   1.998   6.360
13301TIP3    H239861   4.978   1.910   6.396
13302TIP3   OH239862   6.596   7.808   3.244
13302TIP3    H139863   6.600   7.713   3.253
13302TIP3    H239864   6.591   7.841   3.333
13303TIP3   OH239865   4.823   1.167   4.672
13303TIP3    H139866   4.900   1.111   4.668
13303TIP3    H239867   4.760   1.126   4.612
13304TIP3   OH239868   0.774   2.417   4.841
13304TIP3    H139869   0.773   2.322   4.853
13304TIP3    H239870   0.850   2.433   4.786
13305TIP3   OH239871   4.787   6.919   5.662
13305TIP3    H139872   4.724   6.982   5.699
13305TIP3    H239873   4.820   6.871   5.738
13306TIP3   OH239874   1.294   2.683   3.620
13306TIP3    H139875   1.347   2.611   3.586
13306TIP3    H239876   1.357   2.743   3.661
13307TIP3   OH239877   6.069   2.395   4.224
13307TIP3    H139878   6.018   2.322   4.260
13307TIP3    H239879   6.159   2.376   4.250
13308TIP3   OH239880   4.468   0.338   0.370
13308TIP3    H139881   4.474   0.247   0.341
13308TIP3    H239882   4.526   0.343   0.447
13309TIP3   OH239883   4.448   1.512   4.723
13309TIP3    H139884   4.371   1.456   4.726
13309TIP3    H239885   4.438   1.563   4.643
13310TIP3   OH239886   5.699   6.982   2.199
13310TIP3    H139887   5.753   6.903   2.207
13310TIP3    H239888   5.669   6.999   2.288
13311TIP3   OH239889   2.712   7.723   3.304
13311TIP3    H139890   2.623   7.756   3.296
13311TIP3    H239891   2.766   7.802   3.313
13312TIP3   OH239892   1.464   2.109   5.008
13312TIP3    H139893   1.476   2.022   4.969
13312TIP3    H239894   1.469   2.169   4.934
13313TIP3   OH239895   3.060   0.536   0.350
13313TIP3    H139896   3.023   0.488   0.424
13313TIP3    H239897   3.059   0.474   0.278
13314TIP3   OH239898   3.688   0.594   5.545
13314TIP3    H139899   3.755   0.564   5.484
13314TIP3    H239900   3.666   0.517   5.597
13315TIP3   OH239901   7.681   4.933   4.706
13315TIP3    H139902   7.588   4.954   4.711
13315TIP3    H239903   7.721   4.987   4.775
13316TIP3   OH239904   3.160   1.505   6.665
13316TIP3    H139905   3.239   1.530   6.712
13316TIP3    H239906   3.144   1.414   6.689
13317TIP3   OH239907   0.642   4.669   5.749
13317TIP3    H139908   0.563   4.620   5.729
13317TIP3    H239909   0.648   4.734   5.680
13318TIP3   OH239910   4.495   4.915   4.546
13318TIP3    H139911   4.413   4.888   4.505
13318TIP3    H239912   4.535   4.834   4.576
13319TIP3   OH239913   1.105   0.398   5.133
13319TIP3    H139914   1.124   0.474   5.188
13319TIP3    H239915   1.077   0.435   5.049
13320TIP3   OH239916   7.170   7.550  -0.034
13320TIP3    H139917   7.181   7.459  -0.007
13320TIP3    H239918   7.125   7.592   0.039
13321TIP3   OH239919   5.232   6.245   0.693
13321TIP3    H139920   5.158   6.258   0.752
13321TIP3    H239921   5.275   6.330   0.689
13322TIP3   OH239922   1.951   1.760   4.654
13322TIP3    H139923   1.895   1.801   4.720
13322TIP3    H239924   2.011   1.705   4.705
13323TIP3   OH239925   7.174   1.396   1.126
13323TIP3    H139926   7.186   1.397   1.221
13323TIP3    H239927   7.262   1.402   1.090
13324TIP3   OH239928   8.243   5.393   1.488
13324TIP3    H139929   8.175   5.458   1.466
13324TIP3    H239930   8.311   5.407   1.423
13325TIP3   OH239931   7.551   6.007   5.584
13325TIP3    H139932   7.615   6.060   5.631
13325TIP3    H239933   7.555   5.921   5.626
13326TIP3   OH239934   4.050   2.402   2.992
13326TIP3    H139935   4.120   2.399   2.928
13326TIP3    H239936   4.074   2.337   3.058
13327TIP3   OH239937   3.146   3.552   4.012
13327TIP3    H139938   3.148   3.583   4.103
13327TIP3    H239939   3.231   3.578   3.976
13328TIP3   OH239940   3.175   6.211   3.975
13328TIP3    H139941   3.187   6.300   3.943
13328TIP3    H239942   3.238   6.203   4.046
13329TIP3   OH239943   1.423   1.837   4.257
13329TIP3    H139944   1.391   1.816   4.169
13329TIP3    H239945   1.452   1.928   4.251
13330TIP3   OH239946   4.222   0.349   3.044
13330TIP3    H139947   4.248   0.438   3.022
13330TIP3    H239948   4.130   0.343   3.018
13331TIP3   OH239949   5.296   4.343   1.907
13331TIP3    H139950   5.295   4.427   1.862
13331TIP3    H239951   5.241   4.286   1.853
13332TIP3   OH239952   1.787   4.251   2.175
13332TIP3    H139953   1.854   4.235   2.241
13332TIP3    H239954   1.717   4.295   2.222
13333TIP3   OH239955   0.464   6.651   3.923
13333TIP3    H139956   0.442   6.612   4.008
13333TIP3    H239957   0.436   6.742   3.932
13334TIP3   OH239958   7.710   4.007   2.633
13334TIP3    H139959   7.763   3.954   2.573
13334TIP3    H239960   7.656   4.062   2.575
13335TIP3   OH239961   3.737   3.714   3.881
13335TIP3    H139962   3.666   3.778   3.887
13335TIP3    H239963   3.697   3.638   3.838
13336TIP3   OH239964   4.314   5.769   0.206
13336TIP3    H139965   4.257   5.736   0.137
13336TIP3    H239966   4.268   5.845   0.241
13337TIP3   OH239967   5.657   5.686   2.761
13337TIP3    H139968   5.566   5.689   2.793
13337TIP3    H239969   5.650   5.654   2.671
13338TIP3   OH239970   4.367   2.791   3.620
13338TIP3    H139971   4.388   2.755   3.706
13338TIP3    H239972   4.418   2.739   3.558
13339TIP3   OH239973   6.830   6.141   2.813
13339TIP3    H139974   6.745   6.114   2.846
13339TIP3    H239975   6.842   6.230   2.847
13340TIP3   OH239976   8.017   6.620   4.374
13340TIP3    H139977   8.055   6.541   4.334
13340TIP3    H239978   7.922   6.606   4.368
13341TIP3   OH239979   6.167   6.231   3.440
13341TIP3    H139980   6.200   6.184   3.364
13341TIP3    H239981   6.243   6.277   3.474
13342TIP3   OH239982   3.423   5.731   0.748
13342TIP3    H139983   3.502   5.704   0.702
13342TIP3    H239984   3.413   5.823   0.726
13343TIP3   OH239985   5.541   7.738   4.125
13343TIP3    H139986   5.583   7.823   4.138
13343TIP3    H239987   5.582   7.703   4.046
13344TIP3   OH239988   7.144   5.062   3.842
13344TIP3    H139989   7.094   5.086   3.920
13344TIP3    H239990   7.081   5.019   3.785
13345TIP3   OH239991   5.358   3.537   4.445
13345TIP3    H139992   5.289   3.601   4.461
13345TIP3    H239993   5.360   3.528   4.349
13346TIP3   OH239994   6.758   5.877   6.178
13346TIP3    H139995   6.799   5.865   6.093
13346TIP3    H239996   6.683   5.818   6.177
13347TIP3   OH239997   3.481   2.585   4.534
13347TIP3    H139998   3.466   2.496   4.503
13347TIP3    H239999   3.577   2.595   4.533
13348TIP3   OH240000   4.721   1.107   4.412
13348TIP3    H140001   4.744   1.193   4.377
13348TIP3    H240002   4.637   1.120   4.456
13349TIP3   OH240003   3.678   3.618   2.088
13349TIP3    H140004   3.715   3.656   2.168
13349TIP3    H240005   3.626   3.689   2.050
13350TIP3   OH240006   3.136   4.562   2.660
13350TIP3    H140007   3.193   4.623   2.707
13350TIP3    H240008   3.062   4.548   2.720
13351TIP3   OH240009   5.334   7.552   1.441
13351TIP3    H140010   5.349   7.576   1.532
13351TIP3    H240011   5.289   7.468   1.446
13352TIP3   OH240012   4.286   1.915   5.090
13352TIP3    H140013   4.191   1.923   5.085
13352TIP3    H240014   4.302   1.862   5.168
13353TIP3   OH240015   3.434   4.749   3.075
13353TIP3    H140016   3.462   4.805   3.148
13353TIP3    H240017   3.468   4.663   3.097
13354TIP3   OH240018   3.691   2.433   6.082
13354TIP3    H140019   3.602   2.400   6.098
13354TIP3    H240020   3.700   2.430   5.986
13355TIP3   OH240021   3.195   3.642   1.065
13355TIP3    H140022   3.244   3.724   1.068
13355TIP3    H240023   3.226   3.599   0.986
13356TIP3   OH240024   2.736   1.170   5.379
13356TIP3    H140025   2.739   1.095   5.438
13356TIP3    H240026   2.820   1.169   5.334
13357TIP3   OH240027   4.837   2.879   2.942
13357TIP3    H140028   4.751   2.870   2.984
13357TIP3    H240029   4.863   2.789   2.922
13358TIP3   OH240030   2.609   3.420   3.343
13358TIP3    H140031   2.635   3.329   3.352
13358TIP3    H240032   2.544   3.420   3.273
13359TIP3   OH240033   4.375   6.780   2.943
13359TIP3    H140034   4.371   6.799   3.037
13359TIP3    H240035   4.468   6.772   2.924
13360TIP3   OH240036   5.695   4.389   2.320
13360TIP3    H140037   5.647   4.456   2.271
13360TIP3    H240038   5.633   4.316   2.327
13361TIP3   OH240039   7.292   1.371   6.298
13361TIP3    H140040   7.306   1.278   6.318
13361TIP3    H240041   7.358   1.417   6.348
13362TIP3   OH240042   6.788   5.161   1.365
13362TIP3    H140043   6.773   5.121   1.451
13362TIP3    H240044   6.736   5.108   1.304
13363TIP3   OH240045   5.040   3.062   6.293
13363TIP3    H140046   5.022   3.100   6.206
13363TIP3    H240047   5.027   3.135   6.353
13364TIP3   OH240048   4.550   2.176   2.584
13364TIP3    H140049   4.613   2.238   2.546
13364TIP3    H240050   4.584   2.090   2.559
13365TIP3   OH240051   7.943   0.206   5.801
13365TIP3    H140052   8.033   0.239   5.810
13365TIP3    H240053   7.953   0.112   5.785
13366TIP3   OH240054   7.409   4.923   2.789
13366TIP3    H140055   7.431   4.830   2.788
13366TIP3    H240056   7.426   4.952   2.699
13367TIP3   OH240057   1.167   4.685   0.327
13367TIP3    H140058   1.077   4.697   0.298
13367TIP3    H240059   1.168   4.597   0.365
13368TIP3   OH240060   3.891   4.004   2.347
13368TIP3    H140061   3.845   4.016   2.431
13368TIP3    H240062   3.893   4.092   2.309
13369TIP3   OH240063   7.018   4.298   3.322
13369TIP3    H140064   7.072   4.228   3.360
13369TIP3    H240065   7.009   4.273   3.230
13370TIP3   OH240066   5.707   1.302   2.420
13370TIP3    H140067   5.753   1.351   2.488
13370TIP3    H240068   5.667   1.369   2.365
13371TIP3   OH240069   5.077   2.533   5.923
13371TIP3    H140070   5.057   2.449   5.963
13371TIP3    H240071   5.112   2.511   5.837
13372TIP3   OH240072   6.090   3.300   4.777
13372TIP3    H140073   6.148   3.351   4.835
13372TIP3    H240074   6.019   3.270   4.834
13373TIP3   OH240075   3.336   3.703   0.485
13373TIP3    H140076   3.332   3.798   0.474
13373TIP3    H240077   3.267   3.684   0.549
13374TIP3   OH240078   6.801   6.409   6.088
13374TIP3    H140079   6.712   6.435   6.064
13374TIP3    H240080   6.791   6.324   6.130
13375TIP3   OH240081   4.836   5.044   1.720
13375TIP3    H140082   4.891   4.966   1.708
13375TIP3    H240083   4.877   5.092   1.791
13376TIP3   OH240084   1.453   4.111   6.535
13376TIP3    H140085   1.512   4.157   6.475
13376TIP3    H240086   1.511   4.059   6.591
13377TIP3   OH240087   3.413   1.334   1.131
13377TIP3    H140088   3.496   1.292   1.152
13377TIP3    H240089   3.400   1.316   1.037
13378TIP3   OH240090   1.040   2.462   6.292
13378TIP3    H140091   0.958   2.413   6.288
13378TIP3    H240092   1.016   2.545   6.334
13379TIP3   OH240093   6.522   6.460   4.267
13379TIP3    H140094   6.564   6.489   4.186
13379TIP3    H240095   6.430   6.448   4.244
13380TIP3   OH240096   1.411   2.779   4.770
13380TIP3    H140097   1.330   2.829   4.778
13380TIP3    H240098   1.440   2.795   4.680
13381TIP3   OH240099   7.774   1.737   1.605
13381TIP3    H140100   7.799   1.791   1.680
13381TIP3    H240101   7.847   1.746   1.543
13382TIP3   OH240102   3.394   5.812   4.869
13382TIP3    H140103   3.369   5.766   4.789
13382TIP3    H240104   3.438   5.746   4.922
13383TIP3   OH240105   1.801   7.684   6.402
13383TIP3    H140106   1.766   7.773   6.405
13383TIP3    H240107   1.769   7.643   6.483
13384TIP3   OH240108   1.353   2.465   1.868
13384TIP3    H140109   1.264   2.487   1.843
13384TIP3    H240110   1.406   2.487   1.791
13385TIP3   OH240111   6.534   0.299   5.780
13385TIP3    H140112   6.448   0.280   5.744
13385TIP3    H240113   6.568   0.370   5.726
13386TIP3   OH240114   3.614   5.734   4.649
13386TIP3    H140115   3.524   5.702   4.652
13386TIP3    H240116   3.661   5.667   4.599
13387TIP3   OH240117   1.786   7.579   1.315
13387TIP3    H140118   1.831   7.663   1.331
13387TIP3    H240119   1.773   7.576   1.220
13388TIP3   OH240120   0.109   3.639   4.616
13388TIP3    H140121   0.167   3.620   4.691
13388TIP3    H240122   0.023   3.606   4.643
13389TIP3   OH240123   7.205   4.889   6.758
13389TIP3    H140124   7.287   4.880   6.708
13389TIP3    H240125   7.142   4.921   6.694
13390TIP3   OH240126   7.217   3.818   5.967
13390TIP3    H140127   7.261   3.893   6.007
13390TIP3    H240128   7.181   3.852   5.885
13391TIP3   OH240129   1.387   0.081   3.662
13391TIP3    H140130   1.387  -0.013   3.643
13391TIP3    H240131   1.298   0.100   3.691
13392TIP3   OH240132   1.313   4.188   4.626
13392TIP3    H140133   1.219   4.172   4.638
13392TIP3    H240134   1.355   4.127   4.686
13393TIP3   OH240135   1.679   3.548   0.476
13393TIP3    H140136   1.593   3.586   0.461
13393TIP3    H240137   1.704   3.580   0.563
13394TIP3   OH240138   6.881   0.255   4.862
13394TIP3    H140139   6.939   0.269   4.787
13394TIP3    H240140   6.923   0.186   4.913
13395TIP3   OH240141   1.169   7.595   0.181
13395TIP3    H140142   1.245   7.586   0.123
13395TIP3    H240143   1.177   7.523   0.243
13396TIP3   OH240144   8.043   5.528   0.032
13396TIP3    H140145   8.129   5.564   0.055
13396TIP3    H240146   8.037   5.539  -0.063
13397TIP3   OH240147   5.158   0.756   6.621
13397TIP3    H140148   5.165   0.847   6.592
13397TIP3    H240149   5.089   0.758   6.688
13398TIP3   OH240150   4.540   3.973   6.038
13398TIP3    H140151   4.596   3.995   5.964
13398TIP3    H240152   4.533   3.877   6.034
13399TIP3   OH240153   0.560   2.864   2.095
13399TIP3    H140154   0.588   2.932   2.156
13399TIP3    H240155   0.466   2.878   2.083
13400TIP3   OH240156   1.253   7.792   1.920
13400TIP3    H140157   1.218   7.704   1.907
13400TIP3    H240158   1.238   7.836   1.836
13401TIP3   OH240159   2.263   0.544   3.439
13401TIP3    H140160   2.284   0.528   3.531
13401TIP3    H240161   2.194   0.610   3.441
13402TIP3   OH240162   2.765   0.264   4.771
13402TIP3    H140163   2.684   0.276   4.821
13402TIP3    H240164   2.827   0.227   4.834
13403TIP3   OH240165   4.026   0.975   4.905
13403TIP3    H140166   4.086   0.956   4.833
13403TIP3    H240167   4.035   0.899   4.964
13404TIP3   OH240168   4.450   7.299   5.141
13404TIP3    H140169   4.518   7.258   5.195
13404TIP3    H240170   4.372   7.301   5.198
13405TIP3   OH240171   6.963   2.153   5.637
13405TIP3    H140172   7.029   2.168   5.569
13405TIP3    H240173   6.917   2.236   5.645
13406TIP3   OH240174   3.443   5.103   5.747
13406TIP3    H140175   3.450   5.084   5.653
13406TIP3    H240176   3.361   5.062   5.774
13407TIP3   OH240177   7.758  -0.050   6.209
13407TIP3    H140178   7.773   0.045   6.204
13407TIP3    H240179   7.702  -0.061   6.285
13408TIP3   OH240180   3.060   7.257   0.548
13408TIP3    H140181   3.083   7.223   0.635
13408TIP3    H240182   3.038   7.349   0.564
13409TIP3   OH240183   5.430   1.990   5.686
13409TIP3    H140184   5.490   2.035   5.628
13409TIP3    H240185   5.357   1.964   5.630
13410TIP3   OH240186   3.744   0.784   5.030
13410TIP3    H140187   3.838   0.775   5.044
13410TIP3    H240188   3.705   0.758   5.113
13411TIP3   OH240189   2.815   6.558   4.929
13411TIP3    H140190   2.883   6.612   4.969
13411TIP3    H240191   2.861   6.477   4.906
13412TIP3   OH240192   5.722   6.023   2.042
13412TIP3    H140193   5.768   6.006   2.125
13412TIP3    H240194   5.685   5.939   2.018
13413TIP3   OH240195   7.921   6.247   2.327
13413TIP3    H140196   7.934   6.340   2.311
13413TIP3    H240197   8.008   6.215   2.351
13414TIP3   OH240198   7.877   5.323   1.599
13414TIP3    H140199   7.897   5.257   1.533
13414TIP3    H240200   7.942   5.392   1.585
13415TIP3   OH240201   1.412   5.057   2.285
13415TIP3    H140202   1.477   4.990   2.261
13415TIP3    H240203   1.463   5.138   2.290
13416TIP3   OH240204   6.272   6.439   5.072
13416TIP3    H140205   6.351   6.440   5.018
13416TIP3    H240206   6.202   6.415   5.012
13417TIP3   OH240207   6.046   5.274   2.544
13417TIP3    H140208   6.053   5.225   2.462
13417TIP3    H240209   6.120   5.244   2.597
13418TIP3   OH240210   3.751   5.279   2.060
13418TIP3    H140211   3.760   5.206   2.122
13418TIP3    H240212   3.659   5.278   2.035
13419TIP3   OH240213   1.646   1.444   0.322
13419TIP3    H140214   1.611   1.365   0.281
13419TIP3    H240215   1.740   1.442   0.304
13420TIP3   OH240216   7.436   3.073   6.395
13420TIP3    H140217   7.459   3.008   6.461
13420TIP3    H240218   7.453   3.029   6.311
13421TIP3   OH240219   0.553   6.080   6.728
13421TIP3    H140220   0.474   6.107   6.682
13421TIP3    H240221   0.609   6.042   6.660
13422TIP3   OH240222   6.655   5.242   0.549
13422TIP3    H140223   6.723   5.270   0.610
13422TIP3    H240224   6.614   5.323   0.519
13423TIP3   OH240225   0.415   1.904   1.056
13423TIP3    H140226   0.443   1.910   1.148
13423TIP3    H240227   0.459   1.825   1.023
13424TIP3   OH240228   1.902   3.386   3.158
13424TIP3    H140229   1.879   3.477   3.139
13424TIP3    H240230   1.925   3.349   3.073
13425TIP3   OH240231   8.004   2.992   4.921
13425TIP3    H140232   8.070   2.993   4.990
13425TIP3    H240233   7.952   2.914   4.938
13426TIP3   OH240234   6.605   5.621   5.239
13426TIP3    H140235   6.561   5.697   5.276
13426TIP3    H240236   6.698   5.635   5.259
13427TIP3   OH240237   7.301   2.350   5.460
13427TIP3    H140238   7.237   2.284   5.487
13427TIP3    H240239   7.285   2.424   5.519
13428TIP3   OH240240   3.819   3.690   5.870
13428TIP3    H140241   3.816   3.669   5.964
13428TIP3    H240242   3.737   3.657   5.835
13429TIP3   OH240243   6.750   0.236   5.921
13429TIP3    H140244   6.667   0.250   5.874
13429TIP3    H240245   6.727   0.245   6.013
13430TIP3   OH240246   5.281   4.494   6.265
13430TIP3    H140247   5.365   4.536   6.282
13430TIP3    H240248   5.288   4.459   6.176
13431TIP3   OH240249   2.477   7.563   6.292
13431TIP3    H140250   2.434   7.589   6.373
13431TIP3    H240251   2.405   7.536   6.234
13432TIP3   OH240252   5.490   4.763   1.512
13432TIP3    H140253   5.496   4.669   1.529
13432TIP3    H240254   5.574   4.798   1.539
13433TIP3   OH240255   3.878   5.356   5.919
13433TIP3    H140256   3.812   5.366   5.851
13433TIP3    H240257   3.828   5.359   6.001
13434TIP3   OH240258   1.308   5.817   3.282
13434TIP3    H140259   1.281   5.824   3.191
13434TIP3    H240260   1.231   5.782   3.327
13435TIP3   OH240261   7.539   7.684   5.905
13435TIP3    H140262   7.552   7.698   5.811
13435TIP3    H240263   7.623   7.648   5.935
13436TIP3   OH240264   8.194   4.352   1.043
13436TIP3    H140265   8.267   4.322   1.097
13436TIP3    H240266   8.218   4.328   0.954
13437TIP3   OH240267   0.038   3.908   2.180
13437TIP3    H140268  -0.023   3.942   2.246
13437TIP3    H240269   0.125   3.930   2.214
13438TIP3   OH240270   6.038   1.174   5.046
13438TIP3    H140271   5.953   1.159   5.003
13438TIP3    H240272   6.084   1.090   5.037
13439TIP3   OH240273   4.561   3.877   4.635
13439TIP3    H140274   4.619   3.922   4.697
13439TIP3    H240275   4.556   3.936   4.560
13440TIP3   OH240276   7.635   2.339   5.543
13440TIP3    H140277   7.601   2.307   5.459
13440TIP3    H240278   7.726   2.311   5.544
13441TIP3   OH240279   5.885   0.916   0.661
13441TIP3    H140280   5.812   0.876   0.708
13441TIP3    H240281   5.911   0.851   0.596
13442TIP3   OH240282   6.352   4.791   5.949
13442TIP3    H140283   6.287   4.771   5.881
13442TIP3    H240284   6.307   4.850   6.009
13443TIP3   OH240285   5.191   3.937   1.571
13443TIP3    H140286   5.107   3.892   1.575
13443TIP3    H240287   5.206   3.953   1.477
13444TIP3   OH240288   2.843   5.094   0.491
13444TIP3    H140289   2.892   5.176   0.486
13444TIP3    H240290   2.869   5.045   0.413
13445TIP3   OH240291   8.144   4.815   2.415
13445TIP3    H140292   8.089   4.741   2.443
13445TIP3    H240293   8.225   4.805   2.465
13446TIP3   OH240294   5.877   7.235   6.328
13446TIP3    H140295   5.895   7.182   6.250
13446TIP3    H240296   5.783   7.223   6.343
13447TIP3   OH240297   3.364   7.447   2.565
13447TIP3    H140298   3.391   7.512   2.630
13447TIP3    H240299   3.280   7.479   2.532
13448TIP3   OH240300   4.774   0.217   5.923
13448TIP3    H140301   4.683   0.228   5.895
13448TIP3    H240302   4.768   0.189   6.015
13449TIP3   OH240303   1.202   4.392   5.228
13449TIP3    H140304   1.247   4.387   5.144
13449TIP3    H240305   1.118   4.433   5.208
13450TIP3   OH240306   4.476   1.413   4.184
13450TIP3    H140307   4.548   1.439   4.242
13450TIP3    H240308   4.399   1.457   4.221
13451TIP3   OH240309   1.062   2.334   0.697
13451TIP3    H140310   1.105   2.345   0.782
13451TIP3    H240311   1.095   2.251   0.664
13452TIP3   OH240312   3.489   4.413   2.915
13452TIP3    H140313   3.429   4.443   2.846
13452TIP3    H240314   3.565   4.380   2.867
13453TIP3   OH240315   7.756   4.295   6.664
13453TIP3    H140316   7.766   4.364   6.599
13453TIP3    H240317   7.841   4.289   6.707
13454TIP3   OH240318   4.669   4.070   6.309
13454TIP3    H140319   4.670   3.976   6.329
13454TIP3    H240320   4.625   4.076   6.224
13455TIP3   OH240321   1.286   5.496   1.223
13455TIP3    H140322   1.347   5.546   1.169
13455TIP3    H240323   1.304   5.524   1.312
13456TIP3   OH240324   3.408   4.374   2.223
13456TIP3    H140325   3.468   4.325   2.280
13456TIP3    H240326   3.322   4.338   2.241
13457TIP3   OH240327   4.292   4.461   5.694
13457TIP3    H140328   4.324   4.426   5.610
13457TIP3    H240329   4.220   4.403   5.717
13458TIP3   OH240330   3.149   2.565   0.293
13458TIP3    H140331   3.120   2.655   0.306
13458TIP3    H240332   3.099   2.534   0.217
13459TIP3   OH240333   4.435   6.142   4.477
13459TIP3    H140334   4.409   6.178   4.392
13459TIP3    H240335   4.415   6.049   4.470
13460TIP3   OH240336   3.001   0.647   0.669
13460TIP3    H140337   3.003   0.551   0.663
13460TIP3    H240338   3.090   0.674   0.648
13461TIP3   OH240339   6.827   7.108   4.191
13461TIP3    H140340   6.803   7.115   4.099
13461TIP3    H240341   6.769   7.169   4.236
13462TIP3   OH240342   7.774   4.013   4.059
13462TIP3    H140343   7.833   3.982   4.128
13462TIP3    H240344   7.792   3.956   3.984
13463TIP3   OH240345   4.018   3.645   4.509
13463TIP3    H140346   4.049   3.561   4.474
13463TIP3    H240347   4.056   3.711   4.452
13464TIP3   OH240348   1.134   2.288   1.793
13464TIP3    H140349   1.201   2.231   1.757
13464TIP3    H240350   1.136   2.366   1.737
13465TIP3   OH240351   3.215   7.745   2.710
13465TIP3    H140352   3.306   7.732   2.682
13465TIP3    H240353   3.166   7.678   2.664
13466TIP3   OH240354   7.668   6.314   0.292
13466TIP3    H140355   7.631   6.293   0.378
13466TIP3    H240356   7.679   6.409   0.293
13467TIP3   OH240357   6.388   4.496   1.812
13467TIP3    H140358   6.381   4.583   1.773
13467TIP3    H240359   6.318   4.493   1.877
13468TIP3   OH240360   1.926   5.791   1.011
13468TIP3    H140361   2.018   5.809   0.994
13468TIP3    H240362   1.913   5.819   1.102
13469TIP3   OH240363   3.414   5.141   0.041
13469TIP3    H140364   3.484   5.174  -0.015
13469TIP3    H240365   3.401   5.211   0.105
13470TIP3   OH240366   7.858   1.469   5.934
13470TIP3    H140367   7.771   1.434   5.951
13470TIP3    H240368   7.891   1.496   6.020
13471TIP3   OH240369   8.260   4.967   6.434
13471TIP3    H140370   8.334   4.910   6.412
13471TIP3    H240371   8.185   4.908   6.440
13472TIP3   OH240372   1.316   5.461   3.956
13472TIP3    H140373   1.354   5.375   3.976
13472TIP3    H240374   1.235   5.441   3.909
13473TIP3   OH240375   1.443   0.704   5.723
13473TIP3    H140376   1.359   0.737   5.757
13473TIP3    H240377   1.500   0.781   5.721
13474TIP3   OH240378   4.594   3.762   2.857
13474TIP3    H140379   4.608   3.797   2.769
13474TIP3    H240380   4.631   3.828   2.916
13475TIP3   OH240381   4.059   1.820   1.713
13475TIP3    H140382   3.984   1.775   1.673
13475TIP3    H240383   4.085   1.885   1.647
13476TIP3   OH240384   1.849   2.864   4.541
13476TIP3    H140385   1.885   2.944   4.505
13476TIP3    H240386   1.922   2.802   4.540
13477TIP3   OH240387   4.033   2.324   1.394
13477TIP3    H140388   4.094   2.395   1.379
13477TIP3    H240389   3.976   2.355   1.465
13478TIP3   OH240390   6.609   7.592   3.430
13478TIP3    H140391   6.523   7.629   3.451
13478TIP3    H240392   6.599   7.498   3.446
13479TIP3   OH240393   4.746   3.422   3.737
13479TIP3    H140394   4.779   3.478   3.807
13479TIP3    H240395   4.725   3.340   3.780
13480TIP3   OH240396   8.137   0.562   0.709
13480TIP3    H140397   8.092   0.497   0.655
13480TIP3    H240398   8.152   0.518   0.792
13481TIP3   OH240399   4.236   5.432   0.598
13481TIP3    H140400   4.181   5.356   0.618
13481TIP3    H240401   4.209   5.459   0.510
13482TIP3   OH240402   4.819   5.481   0.801
13482TIP3    H140403   4.798   5.493   0.894
13482TIP3    H240404   4.740   5.506   0.755
13483TIP3   OH240405   2.116   3.529   4.716
13483TIP3    H140406   2.153   3.486   4.794
13483TIP3    H240407   2.022   3.526   4.729
13484TIP3   OH240408   6.704   2.095   5.273
13484TIP3    H140409   6.694   2.047   5.355
13484TIP3    H240410   6.701   2.027   5.205
13485TIP3   OH240411   1.413   6.602   6.709
13485TIP3    H140412   1.328   6.596   6.665
13485TIP3    H240413   1.463   6.664   6.655
13486TIP3   OH240414   4.256   7.260   5.328
13486TIP3    H140415   4.265   7.321   5.401
13486TIP3    H240416   4.183   7.203   5.353
13487TIP3   OH240417   0.378   7.547   2.857
13487TIP3    H140418   0.443   7.555   2.927
13487TIP3    H240419   0.428   7.522   2.779
13488TIP3   OH240420   4.470   2.884   5.860
13488TIP3    H140421   4.532   2.872   5.788
13488TIP3    H240422   4.428   2.798   5.870
13489TIP3   OH240423   4.587   1.166   6.715
13489TIP3    H140424   4.582   1.247   6.665
13489TIP3    H240425   4.680   1.145   6.717
13490TIP3   OH240426   5.515   1.555   0.096
13490TIP3    H140427   5.475   1.626   0.145
13490TIP3    H240428   5.598   1.538   0.141
13491TIP3   OH240429   7.677   3.567   3.435
13491TIP3    H140430   7.765   3.537   3.413
13491TIP3    H240431   7.681   3.662   3.427
13492TIP3   OH240432   1.003   1.681   1.887
13492TIP3    H140433   0.917   1.676   1.928
13492TIP3    H240434   1.056   1.616   1.933
13493TIP3   OH240435   6.098   2.343   2.169
13493TIP3    H140436   6.098   2.415   2.232
13493TIP3    H240437   6.063   2.381   2.089
13494TIP3   OH240438   6.824   5.155   5.807
13494TIP3    H140439   6.861   5.073   5.774
13494TIP3    H240440   6.753   5.175   5.746
13495TIP3   OH240441   2.139   5.552   4.334
13495TIP3    H140442   2.182   5.555   4.420
13495TIP3    H240443   2.206   5.514   4.276
13496TIP3   OH240444   6.322   0.503   1.300
13496TIP3    H140445   6.302   0.574   1.239
13496TIP3    H240446   6.320   0.543   1.386
13497TIP3   OH240447   1.955   2.409   0.194
13497TIP3    H140448   1.927   2.340   0.254
13497TIP3    H240449   1.910   2.487   0.226
13498TIP3   OH240450   5.061   6.021   5.550
13498TIP3    H140451   5.047   6.000   5.642
13498TIP3    H240452   5.074   6.116   5.548
13499TIP3   OH240453   0.419   5.902   4.043
13499TIP3    H140454   0.432   5.995   4.024
13499TIP3    H240455   0.350   5.900   4.109
13500TIP3   OH240456   7.132   3.716   5.104
13500TIP3    H140457   7.055   3.662   5.122
13500TIP3    H240458   7.134   3.725   5.009
13501TIP3   OH240459   3.048   4.757   0.375
13501TIP3    H140460   2.983   4.787   0.311
13501TIP3    H240461   3.129   4.801   0.348
13502TIP3   OH240462   7.738   4.829   2.874
13502TIP3    H140463   7.819   4.804   2.830
13502TIP3    H240464   7.669   4.787   2.822
13503TIP3   OH240465   3.629   0.901   0.626
13503TIP3    H140466   3.675   0.819   0.643
13503TIP3    H240467   3.698   0.961   0.598
13504TIP3   OH240468   7.293   2.259   5.169
13504TIP3    H140469   7.336   2.266   5.254
13504TIP3    H240470   7.344   2.316   5.111
13505TIP3   OH240471   6.600   0.069   5.499
13505TIP3    H140472   6.678   0.120   5.522
13505TIP3    H240473   6.554   0.057   5.582
13506TIP3   OH240474   2.748   6.717   2.176
13506TIP3    H140475   2.677   6.671   2.223
13506TIP3    H240476   2.778   6.653   2.111
13507TIP3   OH240477   3.448   3.628   2.832
13507TIP3    H140478   3.479   3.586   2.752
13507TIP3    H240479   3.356   3.648   2.815
13508TIP3   OH240480   2.924   0.743   2.377
13508TIP3    H140481   3.004   0.758   2.428
13508TIP3    H240482   2.914   0.648   2.375
13509TIP3   OH240483   1.767   4.842   5.559
13509TIP3    H140484   1.792   4.754   5.585
13509TIP3    H240485   1.764   4.840   5.464
13510TIP3   OH240486   3.114   4.821   4.793
13510TIP3    H140487   3.110   4.727   4.773
13510TIP3    H240488   3.083   4.863   4.713
13511TIP3   OH240489   2.699   6.492   0.178
13511TIP3    H140490   2.784   6.469   0.141
13511TIP3    H240491   2.682   6.580   0.145
13512TIP3   OH240492   2.429   1.385   3.621
13512TIP3    H140493   2.425   1.322   3.693
13512TIP3    H240494   2.337   1.408   3.604
13513TIP3   OH240495   3.954   7.697   4.435
13513TIP3    H140496   3.966   7.670   4.344
13513TIP3    H240497   4.004   7.778   4.443
13514TIP3   OH240498   5.210   0.890   2.505
13514TIP3    H140499   5.283   0.951   2.495
13514TIP3    H240500   5.135   0.934   2.465
13515TIP3   OH240501   2.939   5.054   1.478
13515TIP3    H140502   2.914   5.143   1.452
13515TIP3    H240503   2.856   5.007   1.486
13516TIP3   OH240504   7.186   0.965   5.624
13516TIP3    H140505   7.241   1.042   5.638
13516TIP3    H240506   7.151   0.976   5.535
13517TIP3   OH240507   5.936   4.418   6.489
13517TIP3    H140508   6.024   4.444   6.463
13517TIP3    H240509   5.903   4.367   6.416
13518TIP3   OH240510   6.323   5.706   4.787
13518TIP3    H140511   6.391   5.732   4.849
13518TIP3    H240512   6.372   5.681   4.708
13519TIP3   OH240513   1.628   1.662   4.762
13519TIP3    H140514   1.539   1.626   4.754
13519TIP3    H240515   1.630   1.733   4.697
13520TIP3   OH240516   6.357   3.477   0.750
13520TIP3    H140517   6.392   3.474   0.661
13520TIP3    H240518   6.431   3.503   0.805
13521TIP3   OH240519   2.525   3.324   4.863
13521TIP3    H140520   2.568   3.384   4.802
13521TIP3    H240521   2.560   3.238   4.841
13522TIP3   OH240522   1.709   4.770   0.936
13522TIP3    H140523   1.720   4.865   0.950
13522TIP3    H240524   1.764   4.730   1.003
13523TIP3   OH240525   7.950   3.852   1.479
13523TIP3    H140526   7.885   3.914   1.446
13523TIP3    H240527   7.973   3.885   1.566
13524TIP3   OH240528   8.003   6.648   5.586
13524TIP3    H140529   7.947   6.643   5.664
13524TIP3    H240530   8.072   6.709   5.609
13525TIP3   OH240531   6.913   7.087   5.811
13525TIP3    H140532   6.906   7.081   5.906
13525TIP3    H240533   6.824   7.076   5.779
13526TIP3   OH240534   4.369   7.119   2.870
13526TIP3    H140535   4.311   7.090   2.941
13526TIP3    H240536   4.443   7.059   2.874
13527TIP3   OH240537   3.073   6.850   3.550
13527TIP3    H140538   3.141   6.868   3.486
13527TIP3    H240539   3.120   6.832   3.632
13528TIP3   OH240540   8.192   0.922   2.406
13528TIP3    H140541   8.113   0.910   2.354
13528TIP3    H240542   8.199   1.016   2.419
13529TIP3   OH240543   6.011   0.782   3.479
13529TIP3    H140544   5.915   0.775   3.481
13529TIP3    H240545   6.031   0.812   3.391
13530TIP3   OH240546   3.343   3.035   4.108
13530TIP3    H140547   3.388   2.970   4.163
13530TIP3    H240548   3.252   3.033   4.139
13531TIP3   OH240549   5.380   7.698   6.666
13531TIP3    H140550   5.352   7.660   6.749
13531TIP3    H240551   5.390   7.791   6.684
13532TIP3   OH240552   8.141   2.125   6.604
13532TIP3    H140553   8.153   2.219   6.596
13532TIP3    H240554   8.049   2.113   6.626
13533TIP3   OH240555   7.999   1.348   4.166
13533TIP3    H140556   7.930   1.403   4.202
13533TIP3    H240557   8.043   1.311   4.243
13534TIP3   OH240558   6.804   3.907   6.152
13534TIP3    H140559   6.897   3.930   6.145
13534TIP3    H240560   6.770   3.919   6.064
13535TIP3   OH240561   3.258   3.169   5.581
13535TIP3    H140562   3.268   3.079   5.610
13535TIP3    H240563   3.233   3.218   5.659
13536TIP3   OH240564   6.841   4.026   3.399
13536TIP3    H140565   6.878   4.072   3.325
13536TIP3    H240566   6.916   3.988   3.445
13537TIP3   OH240567   1.283   6.929   2.622
13537TIP3    H140568   1.301   6.846   2.666
13537TIP3    H240569   1.189   6.927   2.605
13538TIP3   OH240570   7.416   2.524   4.187
13538TIP3    H140571   7.328   2.532   4.224
13538TIP3    H240572   7.417   2.589   4.116
13539TIP3   OH240573   6.155   2.822   5.030
13539TIP3    H140574   6.062   2.800   5.036
13539TIP3    H240575   6.157   2.917   5.023
13540TIP3   OH240576   6.761   5.610   1.499
13540TIP3    H140577   6.691   5.642   1.442
13540TIP3    H240578   6.724   5.612   1.587
13541TIP3   OH240579   6.770   6.362   2.344
13541TIP3    H140580   6.801   6.433   2.289
13541TIP3    H240581   6.850   6.322   2.378
13542TIP3   OH240582   3.928   0.597   2.955
13542TIP3    H140583   3.910   0.688   2.976
13542TIP3    H240584   3.882   0.582   2.873
13543TIP3   OH240585   1.097   6.726   0.143
13543TIP3    H140586   1.096   6.691   0.232
13543TIP3    H240587   1.159   6.799   0.147
13544TIP3   OH240588   0.745   2.433   5.505
13544TIP3    H140589   0.666   2.447   5.452
13544TIP3    H240590   0.804   2.384   5.447
13545TIP3   OH240591   5.809   3.619   6.638
13545TIP3    H140592   5.840   3.530   6.623
13545TIP3    H240593   5.733   3.629   6.580
13546TIP3   OH240594   6.572   7.342   5.564
13546TIP3    H140595   6.541   7.253   5.580
13546TIP3    H240596   6.501   7.383   5.514
13547TIP3   OH240597   3.671   7.540   0.719
13547TIP3    H140598   3.583   7.563   0.691
13547TIP3    H240599   3.658   7.474   0.787
13548TIP3   OH240600   5.922   4.391   5.143
13548TIP3    H140601   6.007   4.410   5.103
13548TIP3    H240602   5.860   4.390   5.069
13549TIP3   OH240603   1.184   1.793   3.427
13549TIP3    H140604   1.180   1.724   3.361
13549TIP3    H240605   1.203   1.746   3.509
13550TIP3   OH240606   4.645   4.762   2.001
13550TIP3    H140607   4.630   4.709   2.079
13550TIP3    H240608   4.561   4.805   1.984
13551TIP3   OH240609   7.739   7.575   3.911
13551TIP3    H140610   7.793   7.647   3.880
13551TIP3    H240611   7.649   7.604   3.897
13552TIP3   OH240612   7.499   3.414   0.423
13552TIP3    H140613   7.523   3.323   0.437
13552TIP3    H240614   7.421   3.409   0.367
13553TIP3   OH240615   8.034   0.749   5.995
13553TIP3    H140616   8.045   0.702   6.077
13553TIP3    H240617   8.098   0.820   5.998
13554TIP3   OH240618   6.511   1.199   0.774
13554TIP3    H140619   6.483   1.248   0.851
13554TIP3    H240620   6.484   1.109   0.791
13555TIP3   OH240621   4.635   6.976   6.784
13555TIP3    H140622   4.645   7.069   6.764
13555TIP3    H240623   4.680   6.931   6.713
13556TIP3   OH240624   6.704   2.224   0.894
13556TIP3    H140625   6.763   2.161   0.852
13556TIP3    H240626   6.634   2.239   0.829
13557TIP3   OH240627   5.563   6.384   2.739
13557TIP3    H140628   5.505   6.398   2.664
13557TIP3    H240629   5.564   6.289   2.751
13558TIP3   OH240630   6.588   1.188   5.374
13558TIP3    H140631   6.550   1.100   5.379
13558TIP3    H240632   6.659   1.180   5.310
13559TIP3   OH240633   3.605   7.124   3.603
13559TIP3    H140634   3.657   7.052   3.639
13559TIP3    H240635   3.515   7.105   3.630
13560TIP3   OH240636   0.380   5.763   4.822
13560TIP3    H140637   0.324   5.830   4.783
13560TIP3    H240638   0.440   5.811   4.880
13561TIP3   OH240639   4.390   0.728   3.854
13561TIP3    H140640   4.477   0.716   3.816
13561TIP3    H240641   4.373   0.646   3.900
13562TIP3   OH240642   2.224   5.400   3.330
13562TIP3    H140643   2.182   5.485   3.322
13562TIP3    H240644   2.288   5.411   3.401
13563TIP3   OH240645   2.988   1.865   3.428
13563TIP3    H140646   2.902   1.904   3.443
13563TIP3    H240647   3.045   1.909   3.492
13564TIP3   OH240648   0.989   1.217   6.357
13564TIP3    H140649   0.927   1.174   6.416
13564TIP3    H240650   1.042   1.146   6.321
13565TIP3   OH240651   2.071   1.256   4.427
13565TIP3    H140652   2.071   1.180   4.485
13565TIP3    H240653   2.064   1.220   4.339
13566TIP3   OH240654   4.468   1.355   4.998
13566TIP3    H140655   4.433   1.443   4.984
13566TIP3    H240656   4.427   1.301   4.931
13567TIP3   OH240657   3.687   1.851   3.433
13567TIP3    H140658   3.638   1.927   3.401
13567TIP3    H240659   3.630   1.812   3.500
13568TIP3   OH240660   4.564   2.618   1.441
13568TIP3    H140661   4.546   2.710   1.461
13568TIP3    H240662   4.537   2.608   1.350
13569TIP3   OH240663   0.376   2.768   5.264
13569TIP3    H140664   0.330   2.718   5.196
13569TIP3    H240665   0.404   2.848   5.220
13570TIP3   OH240666   5.316   0.835   0.057
13570TIP3    H140667   5.366   0.912   0.028
13570TIP3    H240668   5.378   0.786   0.112
13571TIP3   OH240669   0.183   1.007   0.835
13571TIP3    H140670   0.108   0.951   0.856
13571TIP3    H240671   0.208   0.980   0.746
13572TIP3   OH240672   3.787   0.582   5.975
13572TIP3    H140673   3.761   0.548   6.061
13572TIP3    H240674   3.748   0.669   5.971
13573TIP3   OH240675   1.504   0.473   1.590
13573TIP3    H140676   1.472   0.562   1.573
13573TIP3    H240677   1.579   0.485   1.649
13574TIP3   OH240678   5.636   0.250   5.292
13574TIP3    H140679   5.633   0.287   5.380
13574TIP3    H240680   5.545   0.235   5.269
13575TIP3   OH240681   4.172   5.071   0.276
13575TIP3    H140682   4.257   5.105   0.304
13575TIP3    H240683   4.182   5.055   0.182
13576TIP3   OH240684   7.442   1.483   5.631
13576TIP3    H140685   7.348   1.480   5.649
13576TIP3    H240686   7.481   1.425   5.696
13577TIP3   OH240687   5.242   3.275   4.697
13577TIP3    H140688   5.181   3.276   4.623
13577TIP3    H240689   5.266   3.366   4.710
13578TIP3   OH240690   0.228   2.578   2.650
13578TIP3    H140691   0.161   2.644   2.629
13578TIP3    H240692   0.249   2.594   2.742
13579TIP3   OH240693   6.516   2.525   5.394
13579TIP3    H140694   6.564   2.478   5.327
13579TIP3    H240695   6.539   2.480   5.476
13580TIP3   OH240696   7.199   7.321   5.514
13580TIP3    H140697   7.154   7.381   5.574
13580TIP3    H240698   7.181   7.357   5.427
13581TIP3   OH240699   5.249   3.587   5.951
13581TIP3    H140700   5.241   3.526   5.878
13581TIP3    H240701   5.313   3.652   5.922
13582TIP3   OH240702   1.145   6.045   6.425
13582TIP3    H140703   1.140   6.137   6.398
13582TIP3    H240704   1.138   6.047   6.520
13583TIP3   OH240705   3.566   1.289   6.531
13583TIP3    H140706   3.639   1.228   6.539
13583TIP3    H240707   3.608   1.375   6.527
13584TIP3   OH240708   2.555   2.176   0.243
13584TIP3    H140709   2.501   2.233   0.189
13584TIP3    H240710   2.638   2.223   0.253
13585TIP3   OH240711   2.886   2.422   5.982
13585TIP3    H140712   2.823   2.436   5.911
13585TIP3    H240713   2.848   2.468   6.057
13586TIP3   OH240714   4.879   4.023   6.664
13586TIP3    H140715   4.794   4.028   6.707
13586TIP3    H240716   4.867   3.955   6.597
13587TIP3   OH240717   4.782   4.309   3.432
13587TIP3    H140718   4.838   4.325   3.356
13587TIP3    H240719   4.714   4.250   3.401
13588TIP3   OH240720   0.949   2.591   2.585
13588TIP3    H140721   0.901   2.674   2.584
13588TIP3    H240722   0.941   2.558   2.495
13589TIP3   OH240723   7.110   6.157   0.341
13589TIP3    H140724   7.105   6.074   0.388
13589TIP3    H240725   7.203   6.179   0.340
13590TIP3   OH240726   3.839   7.069   3.067
13590TIP3    H140727   3.807   7.152   3.031
13590TIP3    H240728   3.825   7.076   3.161
13591TIP3   OH240729   2.405   1.547   2.104
13591TIP3    H140730   2.425   1.579   2.016
13591TIP3    H240731   2.488   1.554   2.152
13592TIP3   OH240732   7.786   3.034   1.148
13592TIP3    H140733   7.783   3.130   1.147
13592TIP3    H240734   7.695   3.008   1.157
13593TIP3   OH240735   1.856   0.326   0.418
13593TIP3    H140736   1.861   0.357   0.508
13593TIP3    H240737   1.780   0.267   0.418
13594TIP3   OH240738   6.357   6.612   1.373
13594TIP3    H140739   6.365   6.618   1.277
13594TIP3    H240740   6.290   6.546   1.387
13595TIP3   OH240741   1.388   2.236   0.726
13595TIP3    H140742   1.308   2.188   0.704
13595TIP3    H240743   1.379   2.257   0.819
13596TIP3   OH240744   6.409   1.449   1.075
13596TIP3    H140745   6.377   1.510   1.142
13596TIP3    H240746   6.504   1.457   1.080
13597TIP3   OH240747   6.098   1.436   5.684
13597TIP3    H140748   6.065   1.352   5.651
13597TIP3    H240749   6.192   1.434   5.664
13598TIP3   OH240750   2.715   0.686   1.201
13598TIP3    H140751   2.713   0.703   1.106
13598TIP3    H240752   2.634   0.726   1.233
13599TIP3   OH240753   3.417   5.982   5.360
13599TIP3    H140754   3.365   5.922   5.307
13599TIP3    H240755   3.479   6.021   5.299
13600TIP3   OH240756   5.933   6.177   2.342
13600TIP3    H140757   6.020   6.187   2.302
13600TIP3    H240758   5.911   6.085   2.330
13601TIP3   OH240759   2.455   3.828   5.516
13601TIP3    H140760   2.396   3.888   5.469
13601TIP3    H240761   2.510   3.791   5.448
13602TIP3   OH240762   2.859   0.091   3.694
13602TIP3    H140763   2.795   0.035   3.738
13602TIP3    H240764   2.808   0.139   3.628
13603TIP3   OH240765   4.918   1.802   3.204
13603TIP3    H140766   4.926   1.733   3.270
13603TIP3    H240767   4.829   1.791   3.169
13604TIP3   OH240768   5.895   1.857   6.649
13604TIP3    H140769   5.849   1.881   6.569
13604TIP3    H240770   5.979   1.822   6.620
13605TIP3   OH240771   2.303   7.423   3.505
13605TIP3    H140772   2.305   7.416   3.409
13605TIP3    H240773   2.374   7.484   3.526
13606TIP3   OH240774   5.715   3.673   0.711
13606TIP3    H140775   5.630   3.680   0.753
13606TIP3    H240776   5.716   3.585   0.673
13607TIP3   OH240777   6.814   5.182   6.084
13607TIP3    H140778   6.813   5.174   5.989
13607TIP3    H240779   6.906   5.200   6.105
13608TIP3   OH240780   2.446   0.872   1.719
13608TIP3    H140781   2.472   0.926   1.794
13608TIP3    H240782   2.358   0.902   1.698
13609TIP3   OH240783   0.804   2.408   6.020
13609TIP3    H140784   0.760   2.488   6.050
13609TIP3    H240785   0.808   2.416   5.925
13610TIP3   OH240786   3.681   5.020   2.718
13610TIP3    H140787   3.693   4.938   2.669
13610TIP3    H240788   3.612   5.000   2.781
13611TIP3   OH240789   1.823   6.039   1.542
13611TIP3    H140790   1.909   5.998   1.547
13611TIP3    H240791   1.819   6.095   1.619
13612TIP3   OH240792   0.316   0.268   0.410
13612TIP3    H140793   0.269   0.226   0.337
13612TIP3    H240794   0.257   0.336   0.441
13613TIP3   OH240795   2.579   1.215   4.184
13613TIP3    H140796   2.551   1.307   4.181
13613TIP3    H240797   2.611   1.203   4.273
13614TIP3   OH240798   2.171   4.231   0.190
13614TIP3    H140799   2.078   4.250   0.203
13614TIP3    H240800   2.215   4.307   0.229
13615TIP3   OH240801   6.961   4.249   5.271
13615TIP3    H140802   6.972   4.309   5.197
13615TIP3    H240803   6.901   4.295   5.330
13616TIP3   OH240804   6.815   5.351   0.247
13616TIP3    H140805   6.870   5.395   0.311
13616TIP3    H240806   6.821   5.258   0.270
13617TIP3   OH240807   7.741   7.637   5.136
13617TIP3    H140808   7.770   7.580   5.065
13617TIP3    H240809   7.819   7.648   5.191
13618TIP3   OH240810   2.762   0.902   5.498
13618TIP3    H140811   2.726   0.859   5.575
13618TIP3    H240812   2.808   0.832   5.451
13619TIP3   OH240813   7.365   5.266   1.564
13619TIP3    H140814   7.321   5.272   1.479
13619TIP3    H240815   7.361   5.172   1.585
13620TIP3   OH240816   4.574   4.119   0.604
13620TIP3    H140817   4.598   4.031   0.573
13620TIP3    H240818   4.541   4.164   0.527
13621TIP3   OH240819   1.760   7.198   4.226
13621TIP3    H140820   1.682   7.183   4.280
13621TIP3    H240821   1.817   7.124   4.245
13622TIP3   OH240822   6.668   1.958   2.206
13622TIP3    H140823   6.659   1.924   2.116
13622TIP3    H240824   6.719   2.039   2.196
13623TIP3   OH240825   1.668   3.910   6.193
13623TIP3    H140826   1.649   3.817   6.183
13623TIP3    H240827   1.762   3.918   6.175
13624TIP3   OH240828   1.829   0.353   2.803
13624TIP3    H140829   1.907   0.402   2.832
13624TIP3    H240830   1.784   0.331   2.884
13625TIP3   OH240831   3.680   4.377   3.948
13625TIP3    H140832   3.624   4.387   4.025
13625TIP3    H240833   3.739   4.305   3.970
13626TIP3   OH240834   1.401   0.671   6.478
13626TIP3    H140835   1.430   0.739   6.418
13626TIP3    H240836   1.448   0.592   6.449
13627TIP3   OH240837   2.756   2.104   4.859
13627TIP3    H140838   2.701   2.178   4.884
13627TIP3    H240839   2.705   2.027   4.884
13628TIP3   OH240840   4.446   0.943   2.367
13628TIP3    H140841   4.460   0.909   2.455
13628TIP3    H240842   4.371   1.002   2.376
13629TIP3   OH240843   2.219   7.578   1.620
13629TIP3    H140844   2.225   7.506   1.558
13629TIP3    H240845   2.296   7.632   1.602
13630TIP3   OH240846   6.086   4.133   4.540
13630TIP3    H140847   6.017   4.072   4.514
13630TIP3    H240848   6.064   4.215   4.496
13631TIP3   OH240849   0.120   0.425   0.679
13631TIP3    H140850   0.183   0.497   0.671
13631TIP3    H240851   0.161   0.364   0.740
13632TIP3   OH240852   0.075   6.935   3.882
13632TIP3    H140853   0.078   6.913   3.789
13632TIP3    H240854   0.167   6.941   3.908
13633TIP3   OH240855   3.119   0.383   3.215
13633TIP3    H140856   3.126   0.431   3.132
13633TIP3    H240857   3.175   0.306   3.202
13634TIP3   OH240858   3.497   5.243   6.334
13634TIP3    H140859   3.430   5.242   6.266
13634TIP3    H240860   3.528   5.152   6.339
13635TIP3   OH240861   3.734   3.315   4.599
13635TIP3    H140862   3.663   3.309   4.663
13635TIP3    H240863   3.694   3.283   4.517
13636TIP3   OH240864   4.187   5.561   3.646
13636TIP3    H140865   4.254   5.493   3.641
13636TIP3    H240866   4.105   5.514   3.635
13637TIP3   OH240867   6.546   5.013   3.515
13637TIP3    H140868   6.550   4.918   3.506
13637TIP3    H240869   6.622   5.045   3.467
13638TIP3   OH240870   1.168   2.085   0.645
13638TIP3    H140871   1.137   2.011   0.697
13638TIP3    H240872   1.206   2.045   0.567
13639TIP3   OH240873   0.675   0.525   0.678
13639TIP3    H140874   0.737   0.497   0.746
13639TIP3    H240875   0.686   0.620   0.674
13640TIP3   OH240876   7.219   1.999   1.859
13640TIP3    H140877   7.269   2.078   1.839
13640TIP3    H240878   7.285   1.934   1.884
13641TIP3   OH240879   6.068   1.506   1.206
13641TIP3    H140880   6.053   1.466   1.121
13641TIP3    H240881   6.123   1.443   1.253
13642TIP3   OH240882   2.029   6.959   1.847
13642TIP3    H140883   1.952   6.903   1.861
13642TIP3    H240884   1.993   7.043   1.820
13643TIP3   OH240885   4.922   0.441   6.092
13643TIP3    H140886   4.917   0.527   6.049
13643TIP3    H240887   4.834   0.405   6.084
13644TIP3   OH240888   2.258   5.193   3.165
13644TIP3    H140889   2.248   5.210   3.071
13644TIP3    H240890   2.246   5.278   3.207
13645TIP3   OH240891   6.735   0.875   0.652
13645TIP3    H140892   6.722   0.818   0.576
13645TIP3    H240893   6.821   0.914   0.638
13646TIP3   OH240894   6.872   7.436   1.355
13646TIP3    H140895   6.873   7.520   1.401
13646TIP3    H240896   6.918   7.376   1.413
13647TIP3   OH240897   0.838   1.323   1.497
13647TIP3    H140898   0.837   1.417   1.481
13647TIP3    H240899   0.860   1.284   1.412
13648TIP3   OH240900   3.987   0.181   5.684
13648TIP3    H140901   3.925   0.109   5.674
13648TIP3    H240902   3.932   0.257   5.704
13649TIP3   OH240903   3.204   0.075   6.492
13649TIP3    H140904   3.194   0.113   6.580
13649TIP3    H240905   3.295   0.045   6.490
13650TIP3   OH240906   5.489   3.425   0.489
13650TIP3    H140907   5.540   3.347   0.512
13650TIP3    H240908   5.481   3.474   0.571
13651TIP3   OH240909   0.316   2.078   2.192
13651TIP3    H140910   0.304   2.151   2.252
13651TIP3    H240911   0.254   2.095   2.120
13652TIP3   OH240912   2.586   7.622   4.525
13652TIP3    H140913   2.627   7.671   4.454
13652TIP3    H240914   2.628   7.536   4.524
13653TIP3   OH240915   6.817   4.022   5.158
13653TIP3    H140916   6.877   4.074   5.211
13653TIP3    H240917   6.846   4.035   5.068
13654TIP3   OH240918   1.284   1.217   5.839
13654TIP3    H140919   1.203   1.253   5.876
13654TIP3    H240920   1.315   1.155   5.905
13655TIP3   OH240921   3.206   7.789   6.222
13655TIP3    H140922   3.207   7.694   6.234
13655TIP3    H240923   3.259   7.803   6.143
13656TIP3   OH240924   7.973   2.976   1.357
13656TIP3    H140925   8.043   2.974   1.291
13656TIP3    H240926   7.892   2.982   1.306
13657TIP3   OH240927   3.650   4.897   0.859
13657TIP3    H140928   3.571   4.905   0.912
13657TIP3    H240929   3.661   4.803   0.846
13658TIP3   OH240930   7.659   6.253   1.461
13658TIP3    H140931   7.623   6.196   1.528
13658TIP3    H240932   7.717   6.313   1.508
13659TIP3   OH240933   4.698   7.223   5.929
13659TIP3    H140934   4.694   7.261   6.017
13659TIP3    H240935   4.754   7.146   5.939
13660TIP3   OH240936   0.322   1.507   0.941
13660TIP3    H140937   0.333   1.492   1.035
13660TIP3    H240938   0.329   1.420   0.901
13661TIP3   OH240939   0.786   4.790   3.679
13661TIP3    H140940   0.808   4.738   3.602
13661TIP3    H240941   0.865   4.842   3.695
13662TIP3   OH240942   7.201   7.665   3.558
13662TIP3    H140943   7.240   7.586   3.520
13662TIP3    H240944   7.132   7.690   3.496
13663TIP3   OH240945   3.874   3.433   2.375
13663TIP3    H140946   3.874   3.528   2.366
13663TIP3    H240947   3.857   3.417   2.468
13664TIP3   OH240948   8.091   4.541   4.185
13664TIP3    H140949   8.118   4.545   4.277
13664TIP3    H240950   8.013   4.484   4.186
13665TIP3   OH240951   5.843   6.965   3.142
13665TIP3    H140952   5.880   6.884   3.176
13665TIP3    H240953   5.843   6.955   3.047
13666TIP3   OH240954   1.708   1.819   3.822
13666TIP3    H140955   1.737   1.878   3.891
13666TIP3    H240956   1.787   1.771   3.796
13667TIP3   OH240957   7.500   5.576   5.658
13667TIP3    H140958   7.561   5.649   5.665
13667TIP3    H240959   7.465   5.582   5.569
13668TIP3   OH240960   4.753   7.332   0.885
13668TIP3    H140961   4.782   7.273   0.816
13668TIP3    H240962   4.798   7.415   0.866
13669TIP3   OH240963   0.133   7.685   0.925
13669TIP3    H140964   0.084   7.605   0.905
13669TIP3    H240965   0.123   7.740   0.848
13670TIP3   OH240966   2.868   2.658   3.796
13670TIP3    H140967   2.898   2.585   3.851
13670TIP3    H240968   2.870   2.623   3.707
13671TIP3   OH240969   8.049   6.065   5.594
13671TIP3    H140970   8.028   6.156   5.617
13671TIP3    H240971   8.144   6.060   5.603
13672TIP3   OH240972   1.783   4.472   6.562
13672TIP3    H140973   1.740   4.489   6.479
13672TIP3    H240974   1.828   4.554   6.583
13673TIP3   OH240975   5.157   6.535   4.159
13673TIP3    H140976   5.195   6.457   4.200
13673TIP3    H240977   5.232   6.585   4.127
13674TIP3   OH240978   1.680   4.537   6.054
13674TIP3    H140979   1.632   4.454   6.049
13674TIP3    H240980   1.641   4.591   5.985
13675TIP3   OH240981   6.250   4.554   3.413
13675TIP3    H140982   6.280   4.619   3.349
13675TIP3    H240983   6.320   4.488   3.414
13676TIP3   OH240984   0.476   1.183   4.157
13676TIP3    H140985   0.555   1.231   4.131
13676TIP3    H240986   0.420   1.249   4.196
13677TIP3   OH240987   2.669   7.433   6.072
13677TIP3    H140988   2.625   7.493   6.133
13677TIP3    H240989   2.604   7.419   6.003
13678TIP3   OH240990   5.724   1.740   5.675
13678TIP3    H140991   5.663   1.775   5.740
13678TIP3    H240992   5.701   1.648   5.667
13679TIP3   OH240993   7.933   1.232   6.624
13679TIP3    H140994   7.962   1.156   6.673
13679TIP3    H240995   7.928   1.303   6.689
13680TIP3   OH240996   1.074   5.129   6.431
13680TIP3    H140997   1.033   5.088   6.355
13680TIP3    H240998   1.023   5.209   6.446
13681TIP3   OH240999   5.224   2.908   2.195
13681TIP3    H141000   5.181   2.973   2.138
13681TIP3    H241001   5.255   2.958   2.270
13682TIP3   OH241002   6.739   1.592   3.037
13682TIP3    H141003   6.833   1.589   3.019
13682TIP3    H241004   6.716   1.503   3.061
13683TIP3   OH241005   7.699   6.022   0.636
13683TIP3    H141006   7.790   6.019   0.605
13683TIP3    H241007   7.662   5.938   0.608
13684TIP3   OH241008   2.748   6.074   6.497
13684TIP3    H141009   2.671   6.131   6.501
13684TIP3    H241010   2.753   6.046   6.406
13685TIP3   OH241011   4.567   1.195   2.401
13685TIP3    H141012   4.552   1.243   2.320
13685TIP3    H241013   4.562   1.103   2.376
13686TIP3   OH241014   0.025   2.645   5.478
13686TIP3    H141015  -0.070   2.653   5.489
13686TIP3    H241016   0.041   2.677   5.389
13687TIP3   OH241017   0.937   0.612   2.147
13687TIP3    H141018   0.888   0.693   2.131
13687TIP3    H241019   0.877   0.543   2.121
13688TIP3   OH241020   7.960   3.447   3.371
13688TIP3    H141021   8.001   3.526   3.408
13688TIP3    H241022   8.033   3.397   3.336
13689TIP3   OH241023   3.955   5.541   5.597
13689TIP3    H141024   4.040   5.574   5.627
13689TIP3    H241025   3.894   5.612   5.616
13690TIP3   OH241026   4.964   3.555   4.342
13690TIP3    H141027   4.869   3.565   4.335
13690TIP3    H241028   4.977   3.499   4.419
13691TIP3   OH241029   4.469   1.512   5.273
13691TIP3    H141030   4.408   1.495   5.345
13691TIP3    H241031   4.555   1.501   5.311
13692TIP3   OH241032   6.499   1.327   3.283
13692TIP3    H141033   6.590   1.356   3.276
13692TIP3    H241034   6.493   1.252   3.223
13693TIP3   OH241035   1.477   7.486   3.883
13693TIP3    H141036   1.516   7.555   3.937
13693TIP3    H241037   1.552   7.442   3.844
13694TIP3   OH241038   7.625   2.759   5.181
13694TIP3    H141039   7.627   2.850   5.212
13694TIP3    H241040   7.631   2.766   5.086
13695TIP3   OH241041   1.411   3.827   2.516
13695TIP3    H141042   1.409   3.917   2.483
13695TIP3    H241043   1.325   3.814   2.557
13696TIP3   OH241044   1.640   6.686   3.123
13696TIP3    H141045   1.704   6.669   3.054
13696TIP3    H241046   1.659   6.775   3.153
13697TIP3   OH241047   0.454   0.064   4.758
13697TIP3    H141048   0.508   0.135   4.725
13697TIP3    H241049   0.371   0.072   4.710
13698TIP3   OH241050   0.279   0.767   3.866
13698TIP3    H141051   0.356   0.716   3.893
13698TIP3    H241052   0.309   0.857   3.868
13699TIP3   OH241053   6.760   0.974   5.678
13699TIP3    H141054   6.812   0.983   5.598
13699TIP3    H241055   6.818   1.005   5.747
13700TIP3   OH241056   4.280   2.425   2.401
13700TIP3    H141057   4.279   2.375   2.482
13700TIP3    H241058   4.188   2.433   2.376
13701TIP3   OH241059   3.356   5.657   4.632
13701TIP3    H141060   3.264   5.652   4.657
13701TIP3    H241061   3.362   5.607   4.550
13702TIP3   OH241062   1.994   7.012   4.248
13702TIP3    H141063   2.069   7.032   4.304
13702TIP3    H241064   2.022   7.039   4.161
13703TIP3   OH241065   2.809   6.805   5.395
13703TIP3    H141066   2.897   6.817   5.431
13703TIP3    H241067   2.756   6.778   5.470
13704TIP3   OH241068   5.728   3.851   2.604
13704TIP3    H141069   5.748   3.769   2.560
13704TIP3    H241070   5.675   3.900   2.541
13705TIP3   OH241071   7.202   5.874   0.391
13705TIP3    H141072   7.262   5.908   0.325
13705TIP3    H241073   7.248   5.884   0.474
13706TIP3   OH241074   4.616   5.267   6.567
13706TIP3    H141075   4.660   5.322   6.631
13706TIP3    H241076   4.683   5.247   6.502
13707TIP3   OH241077   1.460   4.188   2.042
13707TIP3    H141078   1.475   4.282   2.052
13707TIP3    H241079   1.366   4.177   2.059
13708TIP3   OH241080   3.875   4.322   0.374
13708TIP3    H141081   3.903   4.412   0.392
13708TIP3    H241082   3.884   4.277   0.458
13709TIP3   OH241083   1.780   7.102   3.531
13709TIP3    H141084   1.688   7.124   3.548
13709TIP3    H241085   1.806   7.050   3.607
13710TIP3   OH241086   7.492   0.402   3.348
13710TIP3    H141087   7.422   0.350   3.387
13710TIP3    H241088   7.542   0.340   3.296
13711TIP3   OH241089   7.315   2.792   0.051
13711TIP3    H141090   7.233   2.747   0.075
13711TIP3    H241091   7.377   2.721   0.036
13712TIP3   OH241092   6.846   6.897   0.978
13712TIP3    H141093   6.877   6.873   0.890
13712TIP3    H241094   6.808   6.816   1.013
13713TIP3   OH241095   3.015   6.448   1.146
13713TIP3    H141096   3.081   6.498   1.099
13713TIP3    H241097   3.062   6.372   1.179
13714TIP3   OH241098   6.090   0.346   2.738
13714TIP3    H141099   6.160   0.412   2.740
13714TIP3    H241100   6.123   0.275   2.792
13715TIP3   OH241101   3.192   1.123   4.787
13715TIP3    H141102   3.277   1.096   4.751
13715TIP3    H241103   3.130   1.060   4.750
13716TIP3   OH241104   2.865   6.770   6.322
13716TIP3    H141105   2.859   6.778   6.418
13716TIP3    H241106   2.885   6.678   6.307
13717TIP3   OH241107   8.021   7.622   4.749
13717TIP3    H141108   8.105   7.589   4.780
13717TIP3    H241109   7.988   7.555   4.690
13718TIP3   OH241110   8.065   5.235   2.153
13718TIP3    H141111   8.058   5.145   2.186
13718TIP3    H241112   8.065   5.225   2.058
13719TIP3   OH241113   0.015   1.427   2.429
13719TIP3    H141114  -0.017   1.498   2.484
13719TIP3    H241115   0.052   1.470   2.352
13720TIP3   OH241116   0.338   6.618   2.662
13720TIP3    H141117   0.281   6.643   2.735
13720TIP3    H241118   0.298   6.539   2.626
13721TIP3   OH241119   8.242   2.891   5.131
13721TIP3    H141120   8.290   2.968   5.099
13721TIP3    H241121   8.229   2.909   5.224
13722TIP3   OH241122   5.924   4.148   6.677
13722TIP3    H141123   5.924   4.069   6.623
13722TIP3    H241124   5.926   4.220   6.614
13723TIP3   OH241125   2.556   0.190   0.803
13723TIP3    H141126   2.477   0.238   0.829
13723TIP3    H241127   2.542   0.101   0.835
13724TIP3   OH241128   4.771   1.265   4.069
13724TIP3    H141129   4.862   1.240   4.080
13724TIP3    H241130   4.758   1.338   4.130
13725TIP3   OH241131   1.274   2.684   4.485
13725TIP3    H141132   1.367   2.705   4.493
13725TIP3    H241133   1.272   2.609   4.426
13726TIP3   OH241134   5.168   4.313   4.369
13726TIP3    H141135   5.104   4.332   4.438
13726TIP3    H241136   5.145   4.225   4.339
13727TIP3   OH241137   1.725   2.914   4.255
13727TIP3    H141138   1.684   2.964   4.184
13727TIP3    H241139   1.735   2.977   4.326
13728TIP3   OH241140   1.738   5.987   3.974
13728TIP3    H141141   1.691   5.987   4.057
13728TIP3    H241142   1.742   5.895   3.949
13729TIP3   OH241143   5.134   0.686   3.106
13729TIP3    H141144   5.148   0.647   3.192
13729TIP3    H241145   5.192   0.636   3.048
13730TIP3   OH241146   0.942   7.434   2.407
13730TIP3    H141147   0.944   7.501   2.339
13730TIP3    H241148   1.012   7.373   2.382
13731TIP3   OH241149   1.945   2.071   2.586
13731TIP3    H141150   1.951   2.158   2.548
13731TIP3    H241151   1.969   2.083   2.678
13732TIP3   OH241152   4.019   6.662   4.449
13732TIP3    H141153   4.026   6.639   4.542
13732TIP3    H241154   3.964   6.741   4.448
13733TIP3   OH241155   6.466   7.445  -0.037
13733TIP3    H141156   6.423   7.360  -0.049
13733TIP3    H241157   6.510   7.439   0.048
13734TIP3   OH241158   5.702   5.118   4.518
13734TIP3    H141159   5.789   5.081   4.504
13734TIP3    H241160   5.715   5.212   4.514
13735TIP3   OH241161   4.934   5.236   4.334
13735TIP3    H141162   4.892   5.313   4.296
13735TIP3    H241163   4.871   5.165   4.323
13736TIP3   OH241164   7.268   5.437   0.405
13736TIP3    H141165   7.251   5.515   0.459
13736TIP3    H241166   7.264   5.364   0.466
13737TIP3   OH241167   0.903   4.444   3.717
13737TIP3    H141168   0.817   4.428   3.677
13737TIP3    H241169   0.940   4.517   3.668
13738TIP3   OH241170   3.872   0.346   5.086
13738TIP3    H141171   3.819   0.278   5.045
13738TIP3    H241172   3.899   0.403   5.014
13739TIP3   OH241173   4.390   3.064   3.874
13739TIP3    H141174   4.329   3.110   3.816
13739TIP3    H241175   4.343   3.057   3.957
13740TIP3   OH241176   0.224   4.017   4.111
13740TIP3    H141177   0.186   4.096   4.071
13740TIP3    H241178   0.317   4.039   4.123
13741TIP3   OH241179   1.413   0.357   0.893
13741TIP3    H141180   1.450   0.445   0.886
13741TIP3    H241181   1.335   0.360   0.836
13742TIP3   OH241182   8.053   1.806   2.430
13742TIP3    H141183   8.148   1.812   2.421
13742TIP3    H241184   8.033   1.714   2.410
13743TIP3   OH241185   1.618   6.052   6.420
13743TIP3    H141186   1.633   6.134   6.468
13743TIP3    H241187   1.556   6.004   6.474
13744TIP3   OH241188   2.249   5.668   5.579
13744TIP3    H141189   2.298   5.641   5.657
13744TIP3    H241190   2.301   5.738   5.541
13745TIP3   OH241191   3.305   0.087   2.945
13745TIP3    H141192   3.367   0.018   2.970
13745TIP3    H241193   3.336   0.165   2.990
13746TIP3   OH241194   6.947   7.509   4.151
13746TIP3    H141195   6.922   7.600   4.137
13746TIP3    H241196   6.864   7.461   4.155
13747TIP3   OH241197   7.045   5.960   1.971
13747TIP3    H141198   7.069   5.878   1.927
13747TIP3    H241199   7.037   5.936   2.063
13748TIP3   OH241200   1.123   4.299   0.630
13748TIP3    H141201   1.031   4.324   0.614
13748TIP3    H241202   1.121   4.204   0.636
13749TIP3   OH241203   0.072   3.116   2.182
13749TIP3    H141204   0.069   3.210   2.194
13749TIP3    H241205  -0.005   3.083   2.228
13750TIP3   OH241206   5.820   1.188   0.535
13750TIP3    H141207   5.815   1.230   0.450
13750TIP3    H241208   5.878   1.112   0.521
13751TIP3   OH241209   4.057   1.725   1.985
13751TIP3    H141210   4.062   1.767   1.900
13751TIP3    H241211   4.102   1.786   2.044
13752TIP3   OH241212   6.026   5.139   0.206
13752TIP3    H141213   5.958   5.167   0.267
13752TIP3    H241214   6.078   5.075   0.255
13753TIP3   OH241215   4.948   4.816   0.074
13753TIP3    H141216   4.918   4.790  -0.013
13753TIP3    H241217   5.021   4.757   0.093
13754TIP3   OH241218   1.426   2.660   5.510
13754TIP3    H141219   1.494   2.723   5.535
13754TIP3    H241220   1.388   2.697   5.430
13755TIP3   OH241221   3.943   4.502   6.412
13755TIP3    H141222   3.882   4.436   6.378
13755TIP3    H241223   3.978   4.464   6.492
13756TIP3   OH241224   6.124   1.869   4.913
13756TIP3    H141225   6.033   1.896   4.910
13756TIP3    H241226   6.133   1.822   4.996
13757TIP3   OH241227   5.440   2.715   0.247
13757TIP3    H141228   5.529   2.715   0.210
13757TIP3    H241229   5.390   2.658   0.188
13758TIP3   OH241230   4.774   4.169   2.951
13758TIP3    H141231   4.864   4.158   2.920
13758TIP3    H241232   4.721   4.166   2.871
13759TIP3   OH241233   4.995   2.976   4.653
13759TIP3    H141234   5.007   2.916   4.727
13759TIP3    H241235   4.900   2.982   4.643
13760TIP3   OH241236   2.347   6.378   1.711
13760TIP3    H141237   2.419   6.436   1.738
13760TIP3    H241238   2.387   6.291   1.706
13761TIP3   OH241239   1.977   2.988   3.212
13761TIP3    H141240   1.889   2.997   3.175
13761TIP3    H241241   1.977   2.901   3.253
13762TIP3   OH241242   3.783   3.038   3.214
13762TIP3    H141243   3.771   3.076   3.126
13762TIP3    H241244   3.809   3.112   3.268
13763TIP3   OH241245   4.968   5.662   6.263
13763TIP3    H141246   4.884   5.626   6.236
13763TIP3    H241247   4.972   5.747   6.220
13764TIP3   OH241248   3.463   3.094   0.579
13764TIP3    H141249   3.455   2.999   0.579
13764TIP3    H241250   3.516   3.114   0.502
13765TIP3   OH241251   1.396   5.243   1.231
13765TIP3    H141252   1.379   5.330   1.194
13765TIP3    H241253   1.420   5.260   1.322
13766TIP3   OH241254   1.210   4.943   0.848
13766TIP3    H141255   1.165   4.913   0.769
13766TIP3    H241256   1.303   4.925   0.832
13767TIP3   OH241257   7.355   7.107   5.987
13767TIP3    H141258   7.374   7.199   6.004
13767TIP3    H241259   7.375   7.095   5.894
13768TIP3   OH241260   6.435   0.988   6.036
13768TIP3    H141261   6.354   0.984   5.987
13768TIP3    H241262   6.504   0.974   5.971
13769TIP3   OH241263   3.451   5.040   0.612
13769TIP3    H141264   3.501   5.122   0.607
13769TIP3    H241265   3.359   5.068   0.609
13770TIP3   OH241266   7.832   6.933   5.398
13770TIP3    H141267   7.914   6.983   5.407
13770TIP3    H241268   7.860   6.843   5.381
13771TIP3   OH241269   0.692   0.992   4.686
13771TIP3    H141270   0.598   1.009   4.693
13771TIP3    H241271   0.704   0.908   4.730
13772TIP3   OH241272   4.314   5.290   6.539
13772TIP3    H141273   4.306   5.272   6.446
13772TIP3    H241274   4.405   5.268   6.560
13773TIP3   OH241275   4.793   3.832   2.650
13773TIP3    H141276   4.880   3.831   2.690
13773TIP3    H241277   4.792   3.754   2.594
13774TIP3   OH241278   4.981   1.692   1.818
13774TIP3    H141279   5.043   1.633   1.776
13774TIP3    H241280   4.970   1.658   1.906
13775TIP3   OH241281   4.891   0.594   4.170
13775TIP3    H141282   4.892   0.671   4.227
13775TIP3    H241283   4.902   0.520   4.230
13776TIP3   OH241284   3.125   3.292   6.204
13776TIP3    H141285   3.143   3.386   6.199
13776TIP3    H241286   3.208   3.251   6.181
13777TIP3   OH241287   7.439   4.156   4.263
13777TIP3    H141288   7.397   4.114   4.338
13777TIP3    H241289   7.490   4.227   4.301
13778TIP3   OH241290   3.018   0.825   0.352
13778TIP3    H141291   3.017   0.730   0.354
13778TIP3    H241292   2.990   0.848   0.264
13779TIP3   OH241293   0.527   2.758   3.597
13779TIP3    H141294   0.622   2.744   3.601
13779TIP3    H241295   0.496   2.733   3.684
13780TIP3   OH241296   8.257   2.065   6.181
13780TIP3    H141297   8.189   2.025   6.235
13780TIP3    H241298   8.327   2.086   6.243
13781TIP3   OH241299   0.439   1.942   0.785
13781TIP3    H141300   0.386   1.864   0.773
13781TIP3    H241301   0.427   1.965   0.877
13782TIP3   OH241302   2.476   7.501   2.856
13782TIP3    H141303   2.506   7.515   2.946
13782TIP3    H241304   2.539   7.548   2.802
13783TIP3   OH241305   7.892   3.607   1.337
13783TIP3    H141306   7.874   3.633   1.246
13783TIP3    H241307   7.933   3.684   1.376
13784TIP3   OH241308   0.449   4.475   2.469
13784TIP3    H141309   0.497   4.395   2.488
13784TIP3    H241310   0.357   4.449   2.465
13785TIP3   OH241311   3.051   1.962   3.936
13785TIP3    H141312   2.977   1.923   3.890
13785TIP3    H241313   3.034   2.056   3.933
13786TIP3   OH241314   3.670   3.351   3.094
13786TIP3    H141315   3.677   3.344   3.189
13786TIP3    H241316   3.632   3.438   3.079
13787TIP3   OH241317   2.787   3.367   1.145
13787TIP3    H141318   2.726   3.339   1.077
13787TIP3    H241319   2.874   3.350   1.107
13788TIP3   OH241320   0.702   0.725   3.320
13788TIP3    H141321   0.663   0.710   3.234
13788TIP3    H241322   0.640   0.685   3.382
13789TIP3   OH241323   0.590   5.590   1.180
13789TIP3    H141324   0.516   5.565   1.234
13789TIP3    H241325   0.557   5.663   1.126
13790TIP3   OH241326   3.023   0.344   1.457
13790TIP3    H141327   2.968   0.405   1.408
13790TIP3    H241328   2.984   0.258   1.441
13791TIP3   OH241329   0.821   4.574   4.162
13791TIP3    H141330   0.882   4.506   4.189
13791TIP3    H241331   0.865   4.618   4.089
13792TIP3   OH241332   6.802   3.185   2.972
13792TIP3    H141333   6.810   3.162   3.065
13792TIP3    H241334   6.891   3.208   2.946
13793TIP3   OH241335   6.863   2.837   5.099
13793TIP3    H141336   6.800   2.766   5.087
13793TIP3    H241337   6.947   2.800   5.070
13794TIP3   OH241338   1.593   4.524   3.603
13794TIP3    H141339   1.525   4.458   3.616
13794TIP3    H241340   1.595   4.572   3.686
13795TIP3   OH241341   2.427   0.737   2.905
13795TIP3    H141342   2.469   0.808   2.856
13795TIP3    H241343   2.471   0.658   2.876
13796TIP3   OH241344   0.764   7.118   5.244
13796TIP3    H141345   0.732   7.029   5.261
13796TIP3    H241346   0.783   7.154   5.330
13797TIP3   OH241347   7.604   0.740   1.036
13797TIP3    H141348   7.523   0.730   1.086
13797TIP3    H241349   7.664   0.677   1.074
13798TIP3   OH241350   1.752   6.775   5.263
13798TIP3    H141351   1.813   6.792   5.335
13798TIP3    H241352   1.805   6.729   5.198
13799TIP3   OH241353   4.999   6.402   2.796
13799TIP3    H141354   5.044   6.450   2.727
13799TIP3    H241355   5.005   6.311   2.770
13800TIP3   OH241356   5.929   3.089   6.428
13800TIP3    H141357   5.857   3.137   6.389
13800TIP3    H241358   5.945   3.016   6.368
13801TIP3   OH241359   0.455   1.379   6.304
13801TIP3    H141360   0.382   1.439   6.313
13801TIP3    H241361   0.415   1.292   6.307
13802TIP3   OH241362   8.155   1.765   5.498
13802TIP3    H141363   8.181   1.856   5.509
13802TIP3    H241364   8.178   1.722   5.580
13803TIP3   OH241365   3.224   5.975   3.290
13803TIP3    H141366   3.255   6.028   3.363
13803TIP3    H241367   3.226   5.885   3.323
13804TIP3   OH241368   2.956   1.794   1.167
13804TIP3    H141369   2.924   1.704   1.171
13804TIP3    H241370   3.049   1.786   1.146
13805TIP3   OH241371   2.450   6.386   6.015
13805TIP3    H141372   2.407   6.466   5.988
13805TIP3    H241373   2.522   6.415   6.071
13806TIP3   OH241374   7.280   5.093   6.383
13806TIP3    H141375   7.359   5.125   6.429
13806TIP3    H241376   7.298   5.001   6.365
13807TIP3   OH241377   6.725   3.885   3.087
13807TIP3    H141378   6.796   3.837   3.130
13807TIP3    H241379   6.654   3.821   3.080
13808TIP3   OH241380   7.793   5.794   4.371
13808TIP3    H141381   7.788   5.715   4.318
13808TIP3    H241382   7.835   5.858   4.314
13809TIP3   OH241383   5.845   4.131   1.380
13809TIP3    H141384   5.917   4.069   1.374
13809TIP3    H241385   5.804   4.129   1.293
13810TIP3   OH241386   6.641   2.766   5.621
13810TIP3    H141387   6.637   2.754   5.526
13810TIP3    H241388   6.721   2.720   5.647
13811TIP3   OH241389   0.918   5.201   4.223
13811TIP3    H141390   0.885   5.177   4.136
13811TIP3    H241391   0.857   5.160   4.284
13812TIP3   OH241392   7.425   6.009   0.307
13812TIP3    H141393   7.426   6.067   0.231
13812TIP3    H241394   7.516   5.984   0.321
13813TIP3   OH241395   8.174   3.403   6.583
13813TIP3    H141396   8.126   3.486   6.588
13813TIP3    H241397   8.117   3.340   6.627
13814TIP3   OH241398   7.718   2.118   6.294
13814TIP3    H141399   7.744   2.032   6.328
13814TIP3    H241400   7.788   2.177   6.322
13815TIP3   OH241401   1.928   6.072   5.575
13815TIP3    H141402   1.889   6.078   5.488
13815TIP3    H241403   1.859   6.034   5.629
13816TIP3   OH241404   0.875   1.833   2.348
13816TIP3    H141405   0.801   1.779   2.377
13816TIP3    H241406   0.875   1.907   2.409
13817TIP3   OH241407   1.913   0.773   5.570
13817TIP3    H141408   1.937   0.698   5.516
13817TIP3    H241409   1.846   0.819   5.520
13818TIP3   OH241410   3.022   1.692   6.224
13818TIP3    H141411   2.990   1.691   6.134
13818TIP3    H241412   3.110   1.655   6.219
13819TIP3   OH241413   7.971   5.091   6.558
13819TIP3    H141414   8.025   5.141   6.619
13819TIP3    H241415   7.909   5.043   6.614
13820TIP3   OH241416   2.007   0.358   5.240
13820TIP3    H141417   2.096   0.334   5.214
13820TIP3    H241418   2.012   0.451   5.262
13821TIP3   OH241419   3.589   0.667   5.293
13821TIP3    H141420   3.586   0.704   5.381
13821TIP3    H241421   3.649   0.593   5.301
13822TIP3   OH241422   0.283   3.751   3.939
13822TIP3    H141423   0.251   3.822   3.995
13822TIP3    H241424   0.308   3.794   3.857
13823TIP3   OH241425   4.685   0.691   4.050
13823TIP3    H141426   4.678   0.783   4.073
13823TIP3    H241427   4.766   0.662   4.093
13824TIP3   OH241428   7.538   6.543   2.728
13824TIP3    H141429   7.512   6.626   2.768
13824TIP3    H241430   7.633   6.543   2.733
13825TIP3   OH241431   0.924   6.245   2.720
13825TIP3    H141432   0.923   6.261   2.814
13825TIP3    H241433   0.873   6.318   2.683
13826TIP3   OH241434   3.679   6.419   0.509
13826TIP3    H141435   3.715   6.470   0.437
13826TIP3    H241436   3.586   6.437   0.508
13827TIP3   OH241437   0.080   2.542   5.916
13827TIP3    H141438   0.056   2.594   5.839
13827TIP3    H241439   0.091   2.605   5.986
13828TIP3   OH241440   4.803   0.436   5.284
13828TIP3    H141441   4.863   0.506   5.310
13828TIP3    H241442   4.836   0.405   5.200
13829TIP3   OH241443   2.266   5.505   1.047
13829TIP3    H141444   2.234   5.462   1.127
13829TIP3    H241445   2.266   5.435   0.981
13830TIP3   OH241446   6.564   1.878   5.685
13830TIP3    H141447   6.499   1.947   5.698
13830TIP3    H241448   6.590   1.887   5.593
13831TIP3   OH241449   0.399   5.845   5.346
13831TIP3    H141450   0.482   5.814   5.309
13831TIP3    H241451   0.404   5.940   5.338
13832TIP3   OH241452   3.558   3.897   5.613
13832TIP3    H141453   3.595   3.976   5.575
13832TIP3    H241454   3.620   3.828   5.590
13833TIP3   OH241455   7.377   6.493   3.982
13833TIP3    H141456   7.350   6.543   4.059
13833TIP3    H241457   7.368   6.555   3.909
13834TIP3   OH241458   3.508   2.248   3.592
13834TIP3    H141459   3.450   2.183   3.633
13834TIP3    H241460   3.531   2.209   3.508
13835TIP3   OH241461   0.672   6.888   2.106
13835TIP3    H141462   0.671   6.899   2.011
13835TIP3    H241463   0.716   6.966   2.139
13836TIP3   OH241464   5.138   6.618   2.524
13836TIP3    H141465   5.168   6.665   2.446
13836TIP3    H241466   5.046   6.598   2.506
13837TIP3   OH241467   6.146   1.635   5.378
13837TIP3    H141468   6.174   1.686   5.454
13837TIP3    H241469   6.207   1.562   5.374
13838TIP3   OH241470   3.131   4.986   5.415
13838TIP3    H141471   3.038   4.970   5.432
13838TIP3    H241472   3.142   5.080   5.431
13839TIP3   OH241473   0.235  -0.015   3.132
13839TIP3    H141474   0.149   0.023   3.152
13839TIP3    H241475   0.277  -0.027   3.217
13840TIP3   OH241476   1.232   3.511   5.420
13840TIP3    H141477   1.249   3.534   5.328
13840TIP3    H241478   1.319   3.488   5.455
13841TIP3   OH241479   7.467   0.834   1.450
13841TIP3    H141480   7.373   0.847   1.466
13841TIP3    H241481   7.483   0.743   1.473
13842TIP3   OH241482   3.940   3.656   4.067
13842TIP3    H141483   3.892   3.690   3.991
13842TIP3    H241484   3.919   3.562   4.068
13843TIP3   OH241485   7.711   2.716   0.129
13843TIP3    H141486   7.690   2.808   0.114
13843TIP3    H241487   7.672   2.696   0.214
13844TIP3   OH241488   0.802   6.152   4.445
13844TIP3    H141489   0.798   6.191   4.532
13844TIP3    H241490   0.814   6.059   4.461
13845TIP3   OH241491   1.051   2.461   4.457
13845TIP3    H141492   1.130   2.420   4.421
13845TIP3    H241493   1.003   2.389   4.499
13846TIP3   OH241494   7.901   4.467   3.217
13846TIP3    H141495   7.926   4.378   3.243
13846TIP3    H241496   7.840   4.496   3.285
13847TIP3   OH241497   7.765   6.406   1.661
13847TIP3    H141498   7.725   6.395   1.747
13847TIP3    H241499   7.763   6.501   1.646
13848TIP3   OH241500   1.070   0.955   6.262
13848TIP3    H141501   1.163   0.957   6.239
13848TIP3    H241502   1.047   0.863   6.263
13849TIP3   OH241503   1.720   6.353   6.235
13849TIP3    H141504   1.722   6.349   6.331
13849TIP3    H241505   1.632   6.324   6.211
13850TIP3   OH241506   0.956   4.268   6.237
13850TIP3    H141507   0.941   4.230   6.323
13850TIP3    H241508   1.049   4.252   6.220
13851TIP3   OH241509   0.642   3.978   5.514
13851TIP3    H141510   0.594   4.048   5.470
13851TIP3    H241511   0.729   4.014   5.530
13852TIP3   OH241512   0.355   1.074   3.510
13852TIP3    H141513   0.368   1.081   3.415
13852TIP3    H241514   0.374   1.162   3.543
13853TIP3   OH241515   1.159   5.681   5.046
13853TIP3    H141516   1.156   5.601   5.097
13853TIP3    H241517   1.107   5.744   5.097
13854TIP3   OH241518   6.795   3.693   1.733
13854TIP3    H141519   6.754   3.686   1.647
13854TIP3    H241520   6.784   3.606   1.771
13855TIP3   OH241521   4.530   0.228   5.108
13855TIP3    H141522   4.600   0.165   5.124
13855TIP3    H241523   4.505   0.257   5.196
13856TIP3   OH241524   6.990   4.365   2.907
13856TIP3    H141525   7.052   4.388   2.838
13856TIP3    H241526   6.905   4.389   2.871
13857TIP3   OH241527   4.475   3.583   4.440
13857TIP3    H141528   4.394   3.612   4.398
13857TIP3    H241529   4.456   3.587   4.533
13858TIP3   OH241530   8.239   4.605   1.799
13858TIP3    H141531   8.287   4.666   1.855
13858TIP3    H241532   8.216   4.657   1.722
13859TIP3   OH241533   0.493   2.913   3.375
13859TIP3    H141534   0.399   2.905   3.360
13859TIP3    H241535   0.506   2.889   3.466
13860TIP3   OH241536   4.844   3.375   1.412
13860TIP3    H141537   4.921   3.354   1.464
13860TIP3    H241538   4.836   3.302   1.351
13861TIP3   OH241539   6.216   0.366   3.689
13861TIP3    H141540   6.291   0.425   3.679
13861TIP3    H241541   6.140   0.424   3.685
13862TIP3   OH241542   3.570   1.629   5.816
13862TIP3    H141543   3.515   1.614   5.739
13862TIP3    H241544   3.628   1.553   5.819
13863TIP3   OH241545   0.648   3.054   2.707
13863TIP3    H141546   0.727   3.081   2.662
13863TIP3    H241547   0.576   3.085   2.651
13864TIP3   OH241548   2.246   5.544   2.135
13864TIP3    H141549   2.230   5.486   2.060
13864TIP3    H241550   2.291   5.489   2.199
13865TIP3   OH241551   4.038   3.209   3.834
13865TIP3    H141552   4.095   3.253   3.771
13865TIP3    H241553   4.098   3.171   3.898
13866TIP3   OH241554   2.118   5.653   3.328
13866TIP3    H141555   2.116   5.724   3.393
13866TIP3    H241556   2.052   5.677   3.264
13867TIP3   OH241557   0.787   3.979   0.761
13867TIP3    H141558   0.731   4.017   0.828
13867TIP3    H241559   0.802   3.889   0.790
13868TIP3   OH241560   1.552   6.714   2.292
13868TIP3    H141561   1.488   6.784   2.302
13868TIP3    H241562   1.602   6.715   2.374
13869TIP3   OH241563   0.527   0.491   3.890
13869TIP3    H141564   0.540   0.541   3.970
13869TIP3    H241565   0.577   0.538   3.824
13870TIP3   OH241566   6.536   1.838   4.649
13870TIP3    H141567   6.444   1.865   4.655
13870TIP3    H241568   6.584   1.920   4.637
13871TIP3   OH241569   6.134   6.322   6.528
13871TIP3    H141570   6.145   6.301   6.435
13871TIP3    H241571   6.162   6.413   6.536
13872TIP3   OH241572   7.306   5.492   1.714
13872TIP3    H141573   7.321   5.405   1.677
13872TIP3    H241574   7.301   5.550   1.639
13873TIP3   OH241575   1.345   5.357   0.689
13873TIP3    H141576   1.419   5.410   0.658
13873TIP3    H241577   1.363   5.344   0.782
13874TIP3   OH241578   1.347   0.706   0.341
13874TIP3    H141579   1.316   0.779   0.394
13874TIP3    H241580   1.325   0.730   0.251
13875TIP3   OH241581   7.403   7.695   3.740
13875TIP3    H141582   7.329   7.682   3.681
13875TIP3    H241583   7.367   7.749   3.811
13876TIP3   OH241584   4.721   5.505   3.545
13876TIP3    H141585   4.795   5.491   3.605
13876TIP3    H241586   4.727   5.433   3.483
13877TIP3   OH241587   2.474   6.313   4.694
13877TIP3    H141588   2.410   6.276   4.754
13877TIP3    H241589   2.558   6.281   4.725
13878TIP3   OH241590   6.273   2.483   1.810
13878TIP3    H141591   6.347   2.516   1.862
13878TIP3    H241592   6.208   2.552   1.814
13879TIP3   OH241593   6.590   0.019   2.541
13879TIP3    H141594   6.512   0.069   2.517
13879TIP3    H241595   6.619   0.058   2.624
13880TIP3   OH241596   3.046   0.934   4.637
13880TIP3    H141597   2.997   0.916   4.558
13880TIP3    H241598   3.060   0.848   4.677
13881TIP3   OH241599   6.709   3.619   0.155
13881TIP3    H141600   6.726   3.587   0.066
13881TIP3    H241601   6.665   3.702   0.143
13882TIP3   OH241602   5.106   7.212   6.201
13882TIP3    H141603   5.040   7.225   6.270
13882TIP3    H241604   5.085   7.279   6.136
13883TIP3   OH241605   0.413   5.494   2.974
13883TIP3    H141606   0.467   5.561   3.014
13883TIP3    H241607   0.328   5.536   2.960
13884TIP3   OH241608   4.209   5.641   5.186
13884TIP3    H141609   4.233   5.569   5.127
13884TIP3    H241610   4.273   5.709   5.168
13885TIP3   OH241611   6.025   7.689   4.520
13885TIP3    H141612   5.964   7.732   4.580
13885TIP3    H241613   6.102   7.745   4.519
13886TIP3   OH241614   2.774   2.481   2.460
13886TIP3    H141615   2.803   2.544   2.394
13886TIP3    H241616   2.753   2.534   2.537
13887TIP3   OH241617   6.107   2.121   1.414
13887TIP3    H141618   6.097   2.162   1.328
13887TIP3    H241619   6.173   2.053   1.400
13888TIP3   OH241620   6.346   6.728   5.691
13888TIP3    H141621   6.377   6.640   5.715
13888TIP3    H241622   6.403   6.753   5.618
13889TIP3   OH241623   0.241   2.996   3.322
13889TIP3    H141624   0.152   3.018   3.294
13889TIP3    H241625   0.256   3.050   3.400
13890TIP3   OH241626   5.822   3.337   5.852
13890TIP3    H141627   5.763   3.412   5.858
13890TIP3    H241628   5.904   3.368   5.892
13891TIP3   OH241629   4.029   0.918   1.938
13891TIP3    H141630   3.938   0.936   1.914
13891TIP3    H241631   4.054   0.993   1.992
13892TIP3   OH241632   1.097   3.724   5.563
13892TIP3    H141633   1.142   3.644   5.536
13892TIP3    H241634   1.122   3.736   5.654
13893TIP3   OH241635   2.095   5.076   3.335
13893TIP3    H141636   2.140   5.082   3.419
13893TIP3    H241637   2.155   5.116   3.273
13894TIP3   OH241638   7.295   1.194   2.618
13894TIP3    H141639   7.365   1.136   2.648
13894TIP3    H241640   7.336   1.250   2.553
13895TIP3   OH241641   3.885   1.436   0.196
13895TIP3    H141642   3.807   1.381   0.201
13895TIP3    H241643   3.884   1.471   0.107
13896TIP3   OH241644   4.478   0.684   1.664
13896TIP3    H141645   4.504   0.652   1.578
13896TIP3    H241646   4.497   0.612   1.724
13897TIP3   OH241647   1.751   6.187   1.330
13897TIP3    H141648   1.670   6.238   1.326
13897TIP3    H241649   1.741   6.133   1.408
13898TIP3   OH241650   5.590   6.172   3.086
13898TIP3    H141651   5.661   6.215   3.038
13898TIP3    H241652   5.528   6.242   3.103
13899TIP3   OH241653   6.608   6.918   3.918
13899TIP3    H141654   6.652   6.880   3.995
13899TIP3    H241655   6.631   6.859   3.847
13900TIP3   OH241656   0.085   1.697   3.240
13900TIP3    H141657   0.092   1.638   3.165
13900TIP3    H241658   0.173   1.698   3.277
13901TIP3   OH241659   0.514   0.193   0.665
13901TIP3    H141660   0.550   0.107   0.685
13901TIP3    H241661   0.492   0.188   0.572
13902TIP3   OH241662   3.084   6.866   6.168
13902TIP3    H141663   2.998   6.864   6.210
13902TIP3    H241664   3.133   6.795   6.209
13903TIP3   OH241665   1.485   6.546   2.645
13903TIP3    H141666   1.547   6.614   2.618
13903TIP3    H241667   1.534   6.464   2.639
13904TIP3   OH241668   2.924   3.357   2.177
13904TIP3    H141669   2.833   3.379   2.195
13904TIP3    H241670   2.924   3.322   2.088
13905TIP3   OH241671   7.745   7.385   2.789
13905TIP3    H141672   7.654   7.415   2.797
13905TIP3    H241673   7.741   7.314   2.725
13906TIP3   OH241674   3.228   6.641   6.262
13906TIP3    H141675   3.186   6.626   6.347
13906TIP3    H241676   3.185   6.578   6.203
13907TIP3   OH241677   3.518   0.553   6.121
13907TIP3    H141678   3.565   0.627   6.082
13907TIP3    H241679   3.443   0.540   6.062
13908TIP3   OH241680   3.662   1.582   4.487
13908TIP3    H141681   3.621   1.657   4.531
13908TIP3    H241682   3.600   1.555   4.421
13909TIP3   OH241683   3.625   3.237   0.721
13909TIP3    H141684   3.569   3.188   0.662
13909TIP3    H241685   3.602   3.329   0.704
13910TIP3   OH241686   0.753   4.502   1.624
13910TIP3    H141687   0.761   4.554   1.704
13910TIP3    H241688   0.844   4.481   1.600
13911TIP3   OH241689   1.928   3.850   1.518
13911TIP3    H141690   2.009   3.813   1.482
13911TIP3    H241691   1.913   3.930   1.468
13912TIP3   OH241692   4.163   0.198   4.326
13912TIP3    H141693   4.160   0.274   4.269
13912TIP3    H241694   4.245   0.155   4.304
13913TIP3   OH241695   0.486   4.977   1.928
13913TIP3    H141696   0.459   5.068   1.915
13913TIP3    H241697   0.508   4.946   1.839
13914TIP3   OH241698   1.727   2.731   2.343
13914TIP3    H141699   1.633   2.740   2.331
13914TIP3    H241700   1.739   2.717   2.437
13915TIP3   OH241701   2.870   6.441   0.503
13915TIP3    H141702   2.942   6.448   0.566
13915TIP3    H241703   2.882   6.517   0.446
13916TIP3   OH241704   5.841   0.925   3.724
13916TIP3    H141705   5.912   0.940   3.663
13916TIP3    H241706   5.884   0.904   3.807
13917TIP3   OH241707   2.513   6.471   2.579
13917TIP3    H141708   2.490   6.378   2.577
13917TIP3    H241709   2.601   6.474   2.615
13918TIP3   OH241710   1.581   7.429   5.909
13918TIP3    H141711   1.640   7.375   5.962
13918TIP3    H241712   1.594   7.518   5.942
13919TIP3   OH241713   3.799   0.157   3.842
13919TIP3    H141714   3.808   0.073   3.797
13919TIP3    H241715   3.793   0.221   3.770
13920TIP3   OH241716   4.857   1.325   6.251
13920TIP3    H141717   4.773   1.298   6.288
13920TIP3    H241718   4.857   1.420   6.258
13921TIP3   OH241719   5.987   2.996   4.680
13921TIP3    H141720   5.962   3.063   4.743
13921TIP3    H241721   5.923   2.926   4.692
13922TIP3   OH241722   0.633   1.495   3.822
13922TIP3    H141723   0.637   1.550   3.900
13922TIP3    H241724   0.610   1.554   3.751
13923TIP3   OH241725   2.042   6.804   2.667
13923TIP3    H141726   1.985   6.874   2.637
13923TIP3    H241727   2.080   6.837   2.749
13924TIP3   OH241728   2.114   2.312   3.866
13924TIP3    H141729   2.056   2.387   3.852
13924TIP3    H241730   2.124   2.273   3.779
13925TIP3   OH241731   3.406   6.860   2.901
13925TIP3    H141732   3.434   6.829   2.987
13925TIP3    H241733   3.358   6.940   2.918
13926TIP3   OH241734   5.214   4.562   6.713
13926TIP3    H141735   5.166   4.487   6.747
13926TIP3    H241736   5.221   4.622   6.788
13927TIP3   OH241737   6.489   4.126   5.307
13927TIP3    H141738   6.534   4.202   5.271
13927TIP3    H241739   6.498   4.059   5.240
13928TIP3   OH241740   5.144   3.734   0.932
13928TIP3    H141741   5.176   3.650   0.901
13928TIP3    H241742   5.170   3.737   1.024
13929TIP3   OH241743   1.645   7.538   4.874
13929TIP3    H141744   1.708   7.575   4.936
13929TIP3    H241745   1.628   7.609   4.812
13930TIP3   OH241746   0.928   7.116   4.156
13930TIP3    H141747   0.915   7.202   4.116
13930TIP3    H241748   0.911   7.054   4.085
13931TIP3   OH241749   4.178   0.954   4.686
13931TIP3    H141750   4.273   0.945   4.698
13931TIP3    H241751   4.167   0.967   4.591
13932TIP3   OH241752   7.842   2.676   4.507
13932TIP3    H141753   7.754   2.641   4.495
13932TIP3    H241754   7.837   2.766   4.473
13933TIP3   OH241755   0.802   5.273   1.941
13933TIP3    H141756   0.773   5.233   1.859
13933TIP3    H241757   0.802   5.202   2.004
13934TIP3   OH241758   1.976   7.259   1.269
13934TIP3    H141759   1.979   7.301   1.355
13934TIP3    H241760   2.065   7.269   1.234
13935TIP3   OH241761   1.844   4.372   2.979
13935TIP3    H141762   1.755   4.385   3.012
13935TIP3    H241763   1.835   4.369   2.884
13936TIP3   OH241764   2.028   5.049   1.952
13936TIP3    H141765   2.018   4.955   1.940
13936TIP3    H241766   2.061   5.081   1.868
13937TIP3   OH241767   8.283   2.384   5.630
13937TIP3    H141768   8.259   2.474   5.608
13937TIP3    H241769   8.201   2.344   5.660
13938TIP3   OH241770   4.017   3.918   3.682
13938TIP3    H141771   3.956   3.872   3.625
13938TIP3    H241772   4.076   3.965   3.623
13939TIP3   OH241773   0.373   7.535   4.727
13939TIP3    H141774   0.429   7.489   4.665
13939TIP3    H241775   0.292   7.484   4.729
13940TIP3   OH241776   7.585   0.797   5.440
13940TIP3    H141777   7.498   0.792   5.401
13940TIP3    H241778   7.573   0.852   5.518
13941TIP3   OH241779   1.371   6.865   6.110
13941TIP3    H141780   1.320   6.877   6.190
13941TIP3    H241781   1.419   6.947   6.099
13942TIP3   OH241782   3.960   4.077   6.294
13942TIP3    H141783   3.874   4.105   6.324
13942TIP3    H241784   3.959   4.095   6.200
13943TIP3   OH241785   2.588   6.906   1.360
13943TIP3    H141786   2.508   6.946   1.395
13943TIP3    H241787   2.658   6.944   1.413
13944TIP3   OH241788   2.809   7.148   6.699
13944TIP3    H141789   2.764   7.111   6.775
13944TIP3    H241790   2.877   7.084   6.677
13945TIP3   OH241791   3.064   3.348   1.887
13945TIP3    H141792   3.069   3.335   1.793
13945TIP3    H241793   3.060   3.443   1.899
13946TIP3   OH241794   4.684   0.361   2.871
13946TIP3    H141795   4.634   0.379   2.951
13946TIP3    H241796   4.618   0.361   2.802
13947TIP3   OH241797   4.187   1.644   1.526
13947TIP3    H141798   4.178   1.652   1.431
13947TIP3    H241799   4.137   1.566   1.549
13948TIP3   OH241800   2.955   1.206   1.351
13948TIP3    H141801   2.889   1.164   1.296
13948TIP3    H241802   3.021   1.239   1.290
13949TIP3   OH241803   2.873   2.144   2.899
13949TIP3    H141804   2.784   2.109   2.901
13949TIP3    H241805   2.899   2.145   2.991
13950TIP3   OH241806   5.424   3.103   3.120
13950TIP3    H141807   5.468   3.106   3.205
13950TIP3    H241808   5.371   3.182   3.117
13951TIP3   OH241809   4.078   2.259   4.142
13951TIP3    H141810   4.011   2.326   4.126
13951TIP3    H241811   4.140   2.270   4.070
13952TIP3   OH241812   0.577   5.168   4.994
13952TIP3    H141813   0.616   5.256   4.991
13952TIP3    H241814   0.642   5.114   5.039
13953TIP3   OH241815   8.016   7.193   3.733
13953TIP3    H141816   8.015   7.149   3.818
13953TIP3    H241817   7.930   7.234   3.727
13954TIP3   OH241818   3.217   3.700   5.178
13954TIP3    H141819   3.258   3.773   5.223
13954TIP3    H241820   3.159   3.661   5.243
13955TIP3   OH241821   2.908   3.248   6.394
13955TIP3    H141822   2.985   3.235   6.339
13955TIP3    H241823   2.835   3.219   6.339
13956TIP3   OH241824   6.813   2.536   5.381
13956TIP3    H141825   6.903   2.567   5.382
13956TIP3    H241826   6.767   2.594   5.320
13957TIP3   OH241827   5.409   0.412   0.567
13957TIP3    H141828   5.320   0.433   0.594
13957TIP3    H241829   5.399   0.359   0.489
13958TIP3   OH241830   7.942   6.317   5.629
13958TIP3    H141831   7.933   6.408   5.599
13958TIP3    H241832   7.991   6.323   5.711
13959TIP3   OH241833   1.376   0.041   3.154
13959TIP3    H141834   1.288   0.026   3.189
13959TIP3    H241835   1.362   0.102   3.082
13960TIP3   OH241836   1.501   0.087   0.840
13960TIP3    H141837   1.480   0.177   0.866
13960TIP3    H241838   1.596   0.085   0.831
13961TIP3   OH241839   7.954   0.929   1.503
13961TIP3    H141840   8.020   0.906   1.569
13961TIP3    H241841   7.995   0.907   1.419
13962TIP3   OH241842   1.137   2.849   4.765
13962TIP3    H141843   1.098   2.893   4.840
13962TIP3    H241844   1.103   2.895   4.689
13963TIP3   OH241845   1.320   4.422   0.802
13963TIP3    H141846   1.270   4.448   0.879
13963TIP3    H241847   1.262   4.363   0.755
13964TIP3   OH241848   7.630   5.997   4.031
13964TIP3    H141849   7.655   5.905   4.033
13964TIP3    H241850   7.610   6.014   3.938
13965TIP3   OH241851   5.476   5.427   6.170
13965TIP3    H141852   5.414   5.384   6.111
13965TIP3    H241853   5.464   5.382   6.254
13966TIP3   OH241854   7.247   4.803   6.323
13966TIP3    H141855   7.296   4.766   6.250
13966TIP3    H241856   7.229   4.728   6.380
13967TIP3   OH241857   4.667   7.058   3.378
13967TIP3    H141858   4.696   7.129   3.321
13967TIP3    H241859   4.748   7.021   3.412
13968TIP3   OH241860   4.993   6.824   4.470
13968TIP3    H141861   5.050   6.801   4.543
13968TIP3    H241862   5.002   6.919   4.461
13969TIP3   OH241863   7.690   5.106   6.436
13969TIP3    H141864   7.636   5.178   6.406
13969TIP3    H241865   7.707   5.126   6.528
13970TIP3   OH241866   5.829   2.007   2.058
13970TIP3    H141867   5.872   2.054   2.130
13970TIP3    H241868   5.765   2.069   2.024
13971TIP3   OH241869   1.581   1.576   0.577
13971TIP3    H141870   1.593   1.536   0.490
13971TIP3    H241871   1.563   1.502   0.635
13972TIP3   OH241872   1.956   2.870   1.648
13972TIP3    H141873   2.037   2.827   1.620
13972TIP3    H241874   1.976   2.963   1.643
13973TIP3   OH241875   7.517   7.210   2.053
13973TIP3    H141876   7.527   7.115   2.046
13973TIP3    H241877   7.597   7.246   2.015
13974TIP3   OH241878   2.265   3.563   1.588
13974TIP3    H141879   2.253   3.645   1.636
13974TIP3    H241880   2.327   3.585   1.519
13975TIP3   OH241881   2.412   5.799   2.694
13975TIP3    H141882   2.464   5.739   2.747
13975TIP3    H241883   2.362   5.742   2.636
13976TIP3   OH241884   1.160   7.455   5.860
13976TIP3    H141885   1.146   7.549   5.846
13976TIP3    H241886   1.170   7.419   5.772
13977TIP3   OH241887   6.834   1.173   3.652
13977TIP3    H141888   6.917   1.151   3.693
13977TIP3    H241889   6.801   1.089   3.618
13978TIP3   OH241890   2.972   1.759   1.486
13978TIP3    H141891   2.893   1.810   1.501
13978TIP3    H241892   3.016   1.803   1.413
13979TIP3   OH241893   3.613   3.495   0.458
13979TIP3    H141894   3.607   3.580   0.414
13979TIP3    H241895   3.526   3.456   0.447
13980TIP3   OH241896   4.900   6.434   1.191
13980TIP3    H141897   4.983   6.398   1.221
13980TIP3    H241898   4.844   6.434   1.269
13981TIP3   OH241899   5.208   2.219   2.378
13981TIP3    H141900   5.174   2.136   2.410
13981TIP3    H241901   5.280   2.195   2.320
13982TIP3   OH241902   3.561   5.944   1.241
13982TIP3    H141903   3.477   5.985   1.219
13982TIP3    H241904   3.550   5.914   1.331
13983TIP3   OH241905   1.893   2.912   5.367
13983TIP3    H141906   1.960   2.968   5.407
13983TIP3    H241907   1.917   2.909   5.275
13984TIP3   OH241908   7.008   3.589   0.199
13984TIP3    H141909   7.031   3.544   0.119
13984TIP3    H241910   6.923   3.552   0.225
13985TIP3   OH241911   1.887   0.616   1.965
13985TIP3    H141912   1.964   0.595   2.019
13985TIP3    H241913   1.844   0.531   1.952
13986TIP3   OH241914   7.692   4.293   6.079
13986TIP3    H141915   7.784   4.319   6.085
13986TIP3    H241916   7.684   4.220   6.140
13987TIP3   OH241917   2.126   6.721   6.380
13987TIP3    H141918   2.168   6.661   6.318
13987TIP3    H241919   2.033   6.699   6.375
13988TIP3   OH241920   0.635   1.987   2.057
13988TIP3    H141921   0.667   2.063   2.009
13988TIP3    H241922   0.622   2.019   2.147
13989TIP3   OH241923   1.494   4.976   5.458
13989TIP3    H141924   1.512   4.975   5.364
13989TIP3    H241925   1.564   5.030   5.495
13990TIP3   OH241926   2.663   3.770   3.809
13990TIP3    H141927   2.655   3.693   3.753
13990TIP3    H241928   2.629   3.842   3.757
13991TIP3   OH241929   6.715   0.059   1.600
13991TIP3    H141930   6.778   0.120   1.639
13991TIP3    H241931   6.735  -0.026   1.639
13992TIP3   OH241932   1.052   2.191   5.417
13992TIP3    H141933   1.125   2.130   5.404
13992TIP3    H241934   1.078   2.243   5.492
13993TIP3   OH241935   6.553   6.739   0.154
13993TIP3    H141936   6.522   6.649   0.140
13993TIP3    H241937   6.631   6.729   0.209
13994TIP3   OH241938   6.563   0.243   1.770
13994TIP3    H141939   6.525   0.271   1.687
13994TIP3    H241940   6.603   0.159   1.751
13995TIP3   OH241941   0.988   3.641   6.220
13995TIP3    H141942   1.063   3.684   6.178
13995TIP3    H241943   0.979   3.558   6.174
13996TIP3   OH241944   2.535   5.976   1.051
13996TIP3    H141945   2.514   5.992   1.143
13996TIP3    H241946   2.551   5.881   1.046
13997TIP3   OH241947   4.446   1.962   6.331
13997TIP3    H141948   4.419   1.950   6.422
13997TIP3    H241949   4.454   2.057   6.321
13998TIP3   OH241950   2.167   4.877   2.810
13998TIP3    H141951   2.097   4.926   2.766
13998TIP3    H241952   2.131   4.856   2.896
13999TIP3   OH241953   5.474   0.144   0.652
13999TIP3    H141954   5.493   0.108   0.738
13999TIP3    H241955   5.498   0.237   0.659
14000TIP3   OH241956   2.293   2.349   1.572
14000TIP3    H141957   2.229   2.419   1.561
14000TIP3    H241958   2.276   2.314   1.660
14001TIP3   OH241959   5.735  -0.011   1.729
14001TIP3    H141960   5.811   0.004   1.785
14001TIP3    H241961   5.763  -0.079   1.668
14002TIP3   OH241962   2.382   3.523   3.191
14002TIP3    H141963   2.355   3.581   3.120
14002TIP3    H241964   2.422   3.580   3.255
14003TIP3   OH241965   1.157   0.351   2.762
14003TIP3    H141966   1.210   0.422   2.726
14003TIP3    H241967   1.094   0.394   2.819
14004TIP3   OH241968   6.903   6.220   5.243
14004TIP3    H141969   6.815   6.219   5.203
14004TIP3    H241970   6.911   6.135   5.285
14005TIP3   OH241971   5.028   5.315   3.550
14005TIP3    H141972   5.105   5.278   3.595
14005TIP3    H241973   5.019   5.403   3.587
14006TIP3   OH241974   3.095   6.839   5.547
14006TIP3    H141975   3.145   6.854   5.467
14006TIP3    H241976   3.157   6.796   5.606
14007TIP3   OH241977   6.991   4.062   6.564
14007TIP3    H141978   6.916   4.050   6.622
14007TIP3    H241979   6.970   4.010   6.487
14008TIP3   OH241980   8.188   0.461   6.592
14008TIP3    H141981   8.135   0.540   6.579
14008TIP3    H241982   8.194   0.451   6.687
14009TIP3   OH241983   7.647   3.548   1.553
14009TIP3    H141984   7.713   3.558   1.621
14009TIP3    H241985   7.687   3.489   1.489
14010TIP3   OH241986   6.021   6.901   6.628
14010TIP3    H141987   5.972   6.852   6.694
14010TIP3    H241988   6.107   6.914   6.666
14011TIP3   OH241989   8.263   5.721   3.454
14011TIP3    H141990   8.334   5.784   3.469
14011TIP3    H241991   8.230   5.743   3.367
14012TIP3   OH241992   5.483   4.836   5.814
14012TIP3    H141993   5.578   4.836   5.797
14012TIP3    H241994   5.452   4.756   5.772
14013TIP3   OH241995   1.348   5.542   3.159
14013TIP3    H141996   1.387   5.482   3.223
14013TIP3    H241997   1.356   5.628   3.200
14014TIP3   OH241998   1.765   6.364   0.675
14014TIP3    H141999   1.785   6.275   0.704
14014TIP3    H242000   1.751   6.356   0.581
14015TIP3   OH242001   7.155   5.374   3.482
14015TIP3    H142002   7.236   5.348   3.524
14015TIP3    H242003   7.087   5.360   3.548
14016TIP3   OH242004   1.917   7.553   5.941
14016TIP3    H142005   1.922   7.635   5.891
14016TIP3    H242006   1.834   7.560   5.989
14017TIP3   OH242007   8.202   4.714   1.543
14017TIP3    H142008   8.142   4.771   1.496
14017TIP3    H242009   8.286   4.726   1.499
14018TIP3   OH242010   3.500   7.855   1.558
14018TIP3    H142011   3.564   7.799   1.601
14018TIP3    H242012   3.416   7.815   1.578
14019TIP3   OH242013   0.289   4.076   0.667
14019TIP3    H142014   0.369   4.029   0.645
14019TIP3    H242015   0.288   4.078   0.763
14020TIP3   OH242016   1.933   7.292   5.226
14020TIP3    H142017   1.976   7.209   5.249
14020TIP3    H242018   1.840   7.269   5.217
14021TIP3   OH242019   6.331   3.904   2.754
14021TIP3    H142020   6.287   3.967   2.812
14021TIP3    H242021   6.368   3.957   2.684
14022TIP3   OH242022   2.092   2.228   2.103
14022TIP3    H142023   2.133   2.172   2.037
14022TIP3    H242024   2.043   2.167   2.159
14023TIP3   OH242025   3.802   7.104   4.815
14023TIP3    H142026   3.880   7.151   4.845
14023TIP3    H242027   3.836   7.020   4.783
14024TIP3   OH242028   3.843   3.384   0.299
14024TIP3    H142029   3.782   3.404   0.370
14024TIP3    H242030   3.825   3.450   0.232
14025TIP3   OH242031   5.364   4.948   0.191
14025TIP3    H142032   5.343   4.856   0.206
14025TIP3    H242033   5.395   4.980   0.276
14026TIP3   OH242034   5.562   6.302   1.528
14026TIP3    H142035   5.489   6.362   1.513
14026TIP3    H242036   5.545   6.228   1.470
14027TIP3   OH242037   2.974   7.203   0.303
14027TIP3    H142038   2.920   7.281   0.291
14027TIP3    H242039   3.016   7.216   0.388
14028TIP3   OH242040   3.576   0.124   4.000
14028TIP3    H142041   3.514   0.168   3.943
14028TIP3    H242042   3.661   0.162   3.977
14029TIP3   OH242043   3.558   3.429   4.007
14029TIP3    H142044   3.504   3.352   3.988
14029TIP3    H242045   3.647   3.394   4.013
14030TIP3   OH242046   1.873   2.178   0.301
14030TIP3    H142047   1.872   2.119   0.376
14030TIP3    H242048   1.965   2.180   0.273
14031TIP3   OH242049   4.987   2.184   3.091
14031TIP3    H142050   4.959   2.192   3.000
14031TIP3    H242051   4.915   2.221   3.142
14032TIP3   OH242052   1.849   5.015   0.551
14032TIP3    H142053   1.894   4.988   0.631
14032TIP3    H242054   1.757   4.991   0.566
14033TIP3   OH242055   6.843   0.234   5.542
14033TIP3    H142056   6.801   0.292   5.607
14033TIP3    H242057   6.848   0.287   5.463
14034TIP3   OH242058   5.351   1.393   2.426
14034TIP3    H142059   5.390   1.348   2.351
14034TIP3    H242060   5.426   1.423   2.477
14035TIP3   OH242061   3.102   2.369   3.078
14035TIP3    H142062   3.087   2.282   3.116
14035TIP3    H242063   3.174   2.355   3.016
14036TIP3   OH242064   2.649   0.033   1.514
14036TIP3    H142065   2.742   0.049   1.498
14036TIP3    H242066   2.644   0.010   1.607
14037TIP3   OH242067   4.308   2.685   4.986
14037TIP3    H142068   4.277   2.723   4.904
14037TIP3    H242069   4.233   2.634   5.017
14038TIP3   OH242070   1.516   2.081   1.292
14038TIP3    H142071   1.596   2.124   1.260
14038TIP3    H242072   1.535   1.988   1.282
14039TIP3   OH242073   2.165   2.816   5.699
14039TIP3    H142074   2.140   2.908   5.687
14039TIP3    H242075   2.086   2.774   5.733
14040TIP3   OH242076   1.780   5.175   5.924
14040TIP3    H142077   1.810   5.186   6.014
14040TIP3    H242078   1.688   5.150   5.932
14041TIP3   OH242079   1.405   3.343   6.423
14041TIP3    H142080   1.371   3.276   6.364
14041TIP3    H242081   1.386   3.310   6.511
14042TIP3   OH242082   6.697   2.616   5.063
14042TIP3    H142083   6.700   2.652   4.974
14042TIP3    H242084   6.618   2.561   5.064
14043TIP3   OH242085   2.666   0.589   3.299
14043TIP3    H142086   2.581   0.633   3.302
14043TIP3    H242087   2.720   0.636   3.362
14044TIP3   OH242088   5.734   2.622   5.944
14044TIP3    H142089   5.666   2.557   5.924
14044TIP3    H242090   5.786   2.627   5.863
14045TIP3   OH242091   6.743   5.403   2.673
14045TIP3    H142092   6.687   5.355   2.612
14045TIP3    H242093   6.826   5.413   2.626
14046TIP3   OH242094   1.502   7.096   5.316
14046TIP3    H142095   1.441   7.150   5.366
14046TIP3    H242096   1.492   7.008   5.354
14047TIP3   OH242097   6.230   6.353   4.162
14047TIP3    H142098   6.159   6.336   4.224
14047TIP3    H242099   6.220   6.285   4.095
14048TIP3   OH242100   5.040   6.025   2.141
14048TIP3    H142101   5.105   6.066   2.084
14048TIP3    H242102   4.960   6.077   2.128
14049TIP3   OH242103   5.990   1.859   3.284
14049TIP3    H142104   5.997   1.858   3.380
14049TIP3    H242105   5.962   1.948   3.264
14050TIP3   OH242106   0.732   5.151   1.694
14050TIP3    H142107   0.753   5.059   1.682
14050TIP3    H242108   0.732   5.187   1.605
14051TIP3   OH242109   7.109   2.924   3.463
14051TIP3    H142110   7.085   3.004   3.510
14051TIP3    H242111   7.204   2.931   3.451
14052TIP3   OH242112   8.057   5.955   3.701
14052TIP3    H142113   8.030   6.035   3.747
14052TIP3    H242114   8.039   5.974   3.609
14053TIP3   OH242115   8.129   7.243   1.157
14053TIP3    H142116   8.123   7.337   1.141
14053TIP3    H242117   8.072   7.203   1.092
14054TIP3   OH242118   2.354   6.880   5.521
14054TIP3    H142119   2.415   6.816   5.485
14054TIP3    H242120   2.322   6.840   5.602
14055TIP3   OH242121   4.936   3.053   3.302
14055TIP3    H142122   4.964   3.048   3.211
14055TIP3    H242123   4.841   3.064   3.298
14056TIP3   OH242124   1.855   1.465   4.877
14056TIP3    H142125   1.808   1.474   4.959
14056TIP3    H242126   1.829   1.380   4.843
14057TIP3   OH242127   6.804   4.292   3.786
14057TIP3    H142128   6.753   4.320   3.862
14057TIP3    H242129   6.823   4.373   3.739
14058TIP3   OH242130   4.579   4.997   4.112
14058TIP3    H142131   4.562   5.033   4.198
14058TIP3    H242132   4.675   4.998   4.104
14059TIP3   OH242133   1.839   5.278   4.545
14059TIP3    H142134   1.913   5.255   4.488
14059TIP3    H242135   1.809   5.362   4.511
14060TIP3   OH242136   5.919   2.916   5.794
14060TIP3    H142137   5.824   2.922   5.787
14060TIP3    H242138   5.951   3.000   5.762
14061TIP3   OH242139   3.019   4.291   5.499
14061TIP3    H142140   2.947   4.295   5.562
14061TIP3    H242141   3.097   4.281   5.553
14062TIP3   OH242142   7.781   4.609   3.488
14062TIP3    H142143   7.872   4.638   3.482
14062TIP3    H242144   7.782   4.543   3.557
14063TIP3   OH242145   0.988   5.209   2.456
14063TIP3    H142146   1.074   5.228   2.418
14063TIP3    H242147   0.983   5.114   2.457
14064TIP3   OH242148   6.668   1.153   0.575
14064TIP3    H142149   6.667   1.060   0.597
14064TIP3    H242150   6.617   1.194   0.645
14065TIP3   OH242151   7.049   2.027   6.373
14065TIP3    H142152   6.971   1.978   6.347
14065TIP3    H242153   7.041   2.035   6.468
14066TIP3   OH242154   4.741   2.809   0.297
14066TIP3    H142155   4.774   2.891   0.334
14066TIP3    H242156   4.697   2.766   0.369
14067TIP3   OH242157   6.892   0.956   1.290
14067TIP3    H142158   6.944   0.888   1.248
14067TIP3    H242159   6.956   1.012   1.335
14068TIP3   OH242160   8.280   3.962   0.053
14068TIP3    H142161   8.281   4.011   0.135
14068TIP3    H242162   8.321   4.020  -0.010
14069TIP3   OH242163   1.677   3.398   3.393
14069TIP3    H142164   1.601   3.429   3.345
14069TIP3    H242165   1.741   3.376   3.326
14070TIP3   OH242166   1.633   0.892   2.904
14070TIP3    H142167   1.549   0.912   2.863
14070TIP3    H242168   1.670   0.821   2.851
14071TIP3   OH242169   1.828   6.392   3.495
14071TIP3    H142170   1.811   6.441   3.415
14071TIP3    H242171   1.745   6.350   3.516
14072TIP3   OH242172   5.135   7.483   6.265
14072TIP3    H142173   5.201   7.538   6.308
14072TIP3    H242174   5.098   7.431   6.336
14073TIP3   OH242175   0.865   2.374   0.506
14073TIP3    H142176   0.912   2.385   0.588
14073TIP3    H242177   0.772   2.378   0.530
14074TIP3   OH242178   6.270   5.080   5.602
14074TIP3    H142179   6.357   5.056   5.569
14074TIP3    H242180   6.274   5.060   5.695
14075TIP3   OH242181   0.354   0.519   1.790
14075TIP3    H142182   0.290   0.487   1.853
14075TIP3    H242183   0.374   0.444   1.735
14076TIP3   OH242184   2.737   6.367   4.362
14076TIP3    H142185   2.808   6.362   4.297
14076TIP3    H242186   2.669   6.418   4.318
14077TIP3   OH242187   2.579   3.121   6.680
14077TIP3    H142188   2.529   3.087   6.606
14077TIP3    H242189   2.668   3.087   6.666
14078TIP3   OH242190   3.637   2.027   5.024
14078TIP3    H142191   3.685   1.979   4.956
14078TIP3    H242192   3.703   2.085   5.063
14079TIP3   OH242193   4.720   3.613   1.097
14079TIP3    H142194   4.715   3.708   1.088
14079TIP3    H242195   4.629   3.583   1.093
14080TIP3   OH242196   0.191   2.313   2.640
14080TIP3    H142197   0.195   2.409   2.634
14080TIP3    H242198   0.125   2.297   2.707
14081TIP3   OH242199   3.286   1.629   6.242
14081TIP3    H142200   3.335   1.547   6.249
14081TIP3    H242201   3.312   1.664   6.157
14082TIP3   OH242202   7.889   3.946   2.409
14082TIP3    H142203   7.916   3.867   2.362
14082TIP3    H242204   7.871   4.010   2.340
14083TIP3   OH242205   2.856   6.222   3.143
14083TIP3    H142206   2.780   6.229   3.201
14083TIP3    H242207   2.930   6.211   3.203
14084TIP3   OH242208   4.291   1.428   6.327
14084TIP3    H142209   4.272   1.412   6.419
14084TIP3    H242210   4.206   1.450   6.289
14085TIP3   OH242211   3.674   6.791   3.064
14085TIP3    H142212   3.634   6.746   3.138
14085TIP3    H242213   3.709   6.872   3.102
14086TIP3   OH242214   3.922   0.325   1.077
14086TIP3    H142215   3.927   0.412   1.037
14086TIP3    H242216   4.011   0.290   1.067
14087TIP3   OH242217   1.416   2.475   3.834
14087TIP3    H142218   1.401   2.401   3.775
14087TIP3    H242219   1.486   2.525   3.792
14088TIP3   OH242220   3.341   1.641   5.946
14088TIP3    H142221   3.423   1.660   5.901
14088TIP3    H242222   3.337   1.545   5.949
14089TIP3   OH242223   8.248   0.134   6.374
14089TIP3    H142224   8.239   0.225   6.348
14089TIP3    H242225   8.159   0.099   6.370
14090TIP3   OH242226   5.205   6.857   0.348
14090TIP3    H142227   5.210   6.952   0.359
14090TIP3    H242228   5.212   6.844   0.253
14091TIP3   OH242229  -0.008   0.219   0.278
14091TIP3    H142230   0.015   0.179   0.361
14091TIP3    H242231   0.060   0.190   0.217
14092TIP3   OH242232   1.949   3.471   2.682
14092TIP3    H142233   1.934   3.407   2.752
14092TIP3    H242234   1.901   3.549   2.710
14093TIP3   OH242235   7.186   1.578   2.009
14093TIP3    H142236   7.267   1.619   2.040
14093TIP3    H242237   7.121   1.602   2.075
14094TIP3   OH242238   0.443   4.466   6.313
14094TIP3    H142239   0.386   4.404   6.359
14094TIP3    H242240   0.449   4.541   6.372
14095TIP3   OH242241   0.869   0.268   2.607
14095TIP3    H142242   0.908   0.339   2.658
14095TIP3    H242243   0.873   0.192   2.665
14096TIP3   OH242244   6.586   6.592   3.503
14096TIP3    H142245   6.513   6.539   3.472
14096TIP3    H242246   6.635   6.534   3.561
14097TIP3   OH242247   7.850   3.197   3.983
14097TIP3    H142248   7.762   3.235   3.974
14097TIP3    H242249   7.906   3.254   3.930
14098TIP3   OH242250   1.134   7.809   2.164
14098TIP3    H142251   1.065   7.875   2.163
14098TIP3    H242252   1.179   7.820   2.080
14099TIP3   OH242253   5.002   3.947   3.207
14099TIP3    H142254   5.004   3.894   3.286
14099TIP3    H242255   4.999   4.037   3.238
14100TIP3   OH242256   1.297   3.910   4.099
14100TIP3    H142257   1.383   3.918   4.059
14100TIP3    H242258   1.315   3.877   4.188
14101TIP3   OH242259   7.447   6.622   2.490
14101TIP3    H142260   7.492   6.587   2.566
14101TIP3    H242261   7.358   6.586   2.496
14102TIP3   OH242262   3.455   4.978   1.501
14102TIP3    H142263   3.537   4.944   1.465
14102TIP3    H242264   3.477   5.003   1.591
14103TIP3   OH242265   1.587   5.875   5.300
14103TIP3    H142266   1.646   5.909   5.233
14103TIP3    H242267   1.500   5.883   5.263
14104TIP3   OH242268   5.975   3.105   3.632
14104TIP3    H142269   5.892   3.062   3.657
14104TIP3    H242270   5.953   3.198   3.627
14105TIP3   OH242271   5.557   0.111   1.232
14105TIP3    H142272   5.474   0.089   1.190
14105TIP3    H242273   5.549   0.079   1.322
14106TIP3   OH242274   4.447   1.663   2.293
14106TIP3    H142275   4.419   1.725   2.226
14106TIP3    H242276   4.539   1.684   2.309
14107TIP3   OH242277   8.145   0.914   4.442
14107TIP3    H142278   8.118   0.957   4.361
14107TIP3    H242279   8.113   0.972   4.511
14108TIP3   OH242280   6.767   6.400   4.970
14108TIP3    H142281   6.814   6.437   5.045
14108TIP3    H242282   6.829   6.407   4.897
14109TIP3   OH242283   4.237   0.547   3.391
14109TIP3    H142284   4.242   0.482   3.321
14109TIP3    H242285   4.326   0.551   3.426
14110TIP3   OH242286   7.249   7.052   1.631
14110TIP3    H142287   7.302   6.973   1.637
14110TIP3    H242288   7.274   7.104   1.708
14111TIP3   OH242289   3.066   7.253   3.003
14111TIP3    H142290   3.124   7.177   2.993
14111TIP3    H242291   3.124   7.329   2.996
14112TIP3   OH242292   3.534   5.947   1.531
14112TIP3    H142293   3.562   5.860   1.505
14112TIP3    H242294   3.561   5.956   1.622
14113TIP3   OH242295   7.341   1.193   5.673
14113TIP3    H142296   7.286   1.261   5.711
14113TIP3    H242297   7.410   1.240   5.626
14114TIP3   OH242298   3.445   7.599   0.946
14114TIP3    H142299   3.457   7.596   1.040
14114TIP3    H242300   3.456   7.691   0.923
14115TIP3   OH242301   4.375   4.959   0.688
14115TIP3    H142302   4.464   4.944   0.720
14115TIP3    H242303   4.320   4.950   0.766
14116TIP3   OH242304   3.785   4.264   6.466
14116TIP3    H142305   3.726   4.336   6.488
14116TIP3    H242306   3.739   4.186   6.495
14117TIP3   OH242307   1.980   1.721   0.322
14117TIP3    H142308   2.010   1.796   0.374
14117TIP3    H242309   2.022   1.734   0.237
14118TIP3   OH242310   6.989   1.784   2.639
14118TIP3    H142311   6.966   1.823   2.554
14118TIP3    H242312   7.074   1.743   2.624
14119TIP3   OH242313   5.020   1.019   6.174
14119TIP3    H142314   4.952   0.990   6.235
14119TIP3    H242315   4.977   1.019   6.088
14120TIP3   OH242316   7.231   4.433   1.671
14120TIP3    H142317   7.174   4.365   1.635
14120TIP3    H242318   7.171   4.491   1.720
14121TIP3   OH242319   1.046   6.310   1.102
14121TIP3    H142320   0.960   6.289   1.138
14121TIP3    H242321   1.056   6.404   1.116
14122TIP3   OH242322   8.042   2.371   3.605
14122TIP3    H142323   8.003   2.441   3.554
14122TIP3    H242324   8.136   2.379   3.590
14123TIP3   OH242325   8.111   2.161   5.370
14123TIP3    H142326   8.100   2.256   5.372
14123TIP3    H242327   8.171   2.144   5.297
14124TIP3   OH242328   7.004   1.015   5.847
14124TIP3    H142329   7.055   0.948   5.892
14124TIP3    H242330   7.047   1.026   5.763
14125TIP3   OH242331   1.964   5.842   3.472
14125TIP3    H142332   1.904   5.909   3.503
14125TIP3    H242333   1.980   5.787   3.548
14126TIP3   OH242334   3.837   1.362   1.362
14126TIP3    H142335   3.784   1.439   1.382
14126TIP3    H242336   3.899   1.357   1.435
14127TIP3   OH242337   7.098   1.104   4.396
14127TIP3    H142338   7.179   1.153   4.380
14127TIP3    H242339   7.034   1.171   4.420
14128TIP3   OH242340   2.714   5.778   0.025
14128TIP3    H142341   2.677   5.859   0.059
14128TIP3    H242342   2.801   5.773   0.065
14129TIP3   OH242343   6.197   5.363   5.771
14129TIP3    H142344   6.209   5.406   5.687
14129TIP3    H242345   6.140   5.288   5.752
14130TIP3   OH242346   6.324   1.241   6.566
14130TIP3    H142347   6.334   1.281   6.479
14130TIP3    H242348   6.385   1.168   6.566
14131TIP3   OH242349   2.070   0.304   1.162
14131TIP3    H142350   2.090   0.311   1.256
14131TIP3    H242351   2.106   0.219   1.136
14132TIP3   OH242352   2.135   0.430   4.707
14132TIP3    H142353   2.205   0.411   4.769
14132TIP3    H242354   2.069   0.363   4.724
14133TIP3   OH242355   3.904   3.624   3.667
14133TIP3    H142356   3.842   3.644   3.737
14133TIP3    H242357   3.980   3.587   3.713
14134TIP3   OH242358   4.621   6.770   2.787
14134TIP3    H142359   4.594   6.816   2.708
14134TIP3    H242360   4.623   6.678   2.761
14135TIP3   OH242361   3.265   7.754   0.167
14135TIP3    H142362   3.233   7.822   0.108
14135TIP3    H242363   3.360   7.764   0.167
14136TIP3   OH242364   1.020   3.941   1.395
14136TIP3    H142365   0.960   3.877   1.433
14136TIP3    H242366   1.106   3.916   1.428
14137TIP3   OH242367   1.080   4.872   3.337
14137TIP3    H142368   1.062   4.899   3.427
14137TIP3    H242369   1.161   4.821   3.343
14138TIP3   OH242370   1.507   5.265   3.631
14138TIP3    H142371   1.429   5.319   3.618
14138TIP3    H242372   1.473   5.183   3.667
14139TIP3   OH242373   7.924   7.742   1.380
14139TIP3    H142374   7.848   7.685   1.382
14139TIP3    H242375   7.947   7.756   1.472
14140TIP3   OH242376   3.925   1.789   0.213
14140TIP3    H142377   3.859   1.858   0.203
14140TIP3    H242378   3.884   1.711   0.176
14141TIP3   OH242379   1.711   5.004   1.667
14141TIP3    H142380   1.738   5.059   1.594
14141TIP3    H242381   1.785   4.946   1.682
14142TIP3   OH242382   3.269   5.696   1.974
14142TIP3    H142383   3.283   5.756   1.900
14142TIP3    H242384   3.335   5.628   1.963
14143TIP3   OH242385   6.521   4.195   3.910
14143TIP3    H142386   6.498   4.142   3.986
14143TIP3    H242387   6.577   4.139   3.857
14144TIP3   OH242388   5.567   3.497   6.376
14144TIP3    H142389   5.547   3.587   6.401
14144TIP3    H242390   5.483   3.451   6.377
14145TIP3   OH242391   1.133   5.400   6.687
14145TIP3    H142392   1.196   5.463   6.721
14145TIP3    H242393   1.121   5.337   6.758
14146TIP3   OH242394   6.579   6.462   1.143
14146TIP3    H142395   6.532   6.534   1.101
14146TIP3    H242396   6.534   6.383   1.114
14147TIP3   OH242397   5.040   3.708   2.187
14147TIP3    H142398   5.106   3.768   2.222
14147TIP3    H242399   5.063   3.697   2.095
14148TIP3   OH242400   7.891   2.924   2.265
14148TIP3    H142401   7.893   2.896   2.357
14148TIP3    H242402   7.969   2.884   2.227
14149TIP3   OH242403   0.104   3.064   1.100
14149TIP3    H142404   0.081   2.995   1.162
14149TIP3    H242405   0.051   3.046   1.023
14150TIP3   OH242406   0.391   6.475   5.335
14150TIP3    H142407   0.456   6.476   5.265
14150TIP3    H242408   0.311   6.442   5.294
14151TIP3   OH242409   1.698   4.237   2.547
14151TIP3    H142410   1.748   4.156   2.539
14151TIP3    H242411   1.644   4.225   2.625
14152TIP3   OH242412   5.927   0.730   6.194
14152TIP3    H142413   6.012   0.691   6.173
14152TIP3    H242414   5.920   0.722   6.289
14153TIP3   OH242415   2.503   6.548   3.786
14153TIP3    H142416   2.458   6.543   3.870
14153TIP3    H242417   2.595   6.532   3.807
14154TIP3   OH242418   1.019   0.652   6.253
14154TIP3    H142419   1.088   0.629   6.192
14154TIP3    H242420   1.039   0.604   6.333
14155TIP3   OH242421   6.461   3.604   3.500
14155TIP3    H142422   6.404   3.656   3.556
14155TIP3    H242423   6.546   3.648   3.504
14156TIP3   OH242424   5.811   6.294   1.167
14156TIP3    H142425   5.804   6.276   1.073
14156TIP3    H242426   5.733   6.345   1.188
14157TIP3   OH242427   6.394   7.040   1.022
14157TIP3    H142428   6.379   7.087   0.940
14157TIP3    H242429   6.461   7.091   1.067
14158TIP3   OH242430   7.603   2.997   4.530
14158TIP3    H142431   7.575   3.085   4.505
14158TIP3    H242432   7.549   2.975   4.606
14159TIP3   OH242433   5.119   5.798   6.463
14159TIP3    H142434   5.095   5.880   6.420
14159TIP3    H242435   5.063   5.732   6.421
14160TIP3   OH242436   0.565   4.014   6.282
14160TIP3    H142437   0.567   4.105   6.254
14160TIP3    H242438   0.597   4.015   6.372
14161TIP3   OH242439   0.780   3.094   0.115
14161TIP3    H142440   0.858   3.125   0.162
14161TIP3    H242441   0.725   3.172   0.109
14162TIP3   OH242442   3.571   5.645   4.005
14162TIP3    H142443   3.503   5.638   3.939
14162TIP3    H242444   3.534   5.605   4.083
14163TIP3   OH242445   7.700   4.058   4.933
14163TIP3    H142446   7.661   4.145   4.944
14163TIP3    H242447   7.785   4.075   4.891
14164TIP3   OH242448   6.734   2.978   2.028
14164TIP3    H142449   6.713   2.933   2.110
14164TIP3    H242450   6.705   3.068   2.042
14165TIP3   OH242451   2.350   6.958   4.149
14165TIP3    H142452   2.338   6.899   4.075
14165TIP3    H242453   2.302   7.037   4.125
14166TIP3   OH242454   1.087   1.697   1.009
14166TIP3    H142455   1.111   1.759   1.077
14166TIP3    H242456   0.994   1.680   1.023
14167TIP3   OH242457   7.738   3.287   5.721
14167TIP3    H142458   7.686   3.226   5.773
14167TIP3    H242459   7.690   3.369   5.726
14168TIP3   OH242460   3.129   3.525   5.646
14168TIP3    H142461   3.166   3.459   5.705
14168TIP3    H242462   3.179   3.604   5.665
14169TIP3   OH242463   0.472   7.428   1.473
14169TIP3    H142464   0.536   7.415   1.404
14169TIP3    H242465   0.505   7.375   1.546
14170TIP3   OH242466   6.255   0.951   1.744
14170TIP3    H142467   6.263   1.043   1.769
14170TIP3    H242468   6.323   0.938   1.678
14171TIP3   OH242469   0.095   0.658   1.527
14171TIP3    H142470   0.164   0.593   1.539
14171TIP3    H242471   0.063   0.677   1.615
14172TIP3   OH242472   2.809   1.636   2.541
14172TIP3    H142473   2.878   1.628   2.476
14172TIP3    H242474   2.759   1.555   2.533
14173TIP3   OH242475   8.220   1.320   3.210
14173TIP3    H142476   8.133   1.331   3.248
14173TIP3    H242477   8.209   1.342   3.117
14174TIP3   OH242478   0.627   5.949   4.837
14174TIP3    H142479   0.647   5.899   4.916
14174TIP3    H242480   0.707   5.997   4.818
14175TIP3   OH242481   6.391   0.473   1.694
14175TIP3    H142482   6.314   0.427   1.658
14175TIP3    H242483   6.407   0.429   1.778
14176TIP3   OH242484   5.766   3.567   4.634
14176TIP3    H142485   5.742   3.479   4.604
14176TIP3    H242486   5.728   3.574   4.721
14177TIP3   OH242487   7.875   5.270   3.229
14177TIP3    H142488   7.795   5.271   3.280
14177TIP3    H242489   7.848   5.238   3.143
14178TIP3   OH242490   6.472   4.553   5.945
14178TIP3    H142491   6.397   4.494   5.957
14178TIP3    H242492   6.433   4.641   5.945
14179TIP3   OH242493   1.620   7.136   0.306
14179TIP3    H142494   1.606   7.164   0.216
14179TIP3    H242495   1.569   7.055   0.314
14180TIP3   OH242496   2.322   2.519   2.713
14180TIP3    H142497   2.255   2.459   2.747
14180TIP3    H242498   2.371   2.467   2.649
14181TIP3   OH242499   4.296   6.303   3.317
14181TIP3    H142500   4.253   6.387   3.328
14181TIP3    H242501   4.225   6.239   3.317
14182TIP3   OH242502   0.460   2.138   3.757
14182TIP3    H142503   0.519   2.173   3.823
14182TIP3    H242504   0.459   2.204   3.687
14183TIP3   OH242505   3.852   1.829   2.588
14183TIP3    H142506   3.872   1.791   2.674
14183TIP3    H242507   3.760   1.854   2.593
14184TIP3   OH242508   4.439   2.217   6.218
14184TIP3    H142509   4.511   2.227   6.156
14184TIP3    H242510   4.430   2.304   6.258
14185TIP3   OH242511   0.528   1.645   0.869
14185TIP3    H142512   0.514   1.645   0.774
14185TIP3    H242513   0.468   1.578   0.902
14186TIP3   OH242514   1.082   5.441   0.194
14186TIP3    H142515   1.067   5.492   0.114
14186TIP3    H242516   1.129   5.501   0.252
14187TIP3   OH242517   1.339   6.904   2.318
14187TIP3    H142518   1.340   6.951   2.401
14187TIP3    H242519   1.246   6.883   2.304
14188TIP3   OH242520   4.207   4.305   1.934
14188TIP3    H142521   4.283   4.328   1.880
14188TIP3    H242522   4.233   4.224   1.978
14189TIP3   OH242523   3.604   1.627   2.577
14189TIP3    H142524   3.594   1.722   2.583
14189TIP3    H242525   3.613   1.598   2.668
14190TIP3   OH242526   1.571   0.364   4.602
14190TIP3    H142527   1.513   0.314   4.659
14190TIP3    H242528   1.552   0.456   4.623
14191TIP3   OH242529   3.094   0.683   2.633
14191TIP3    H142530   3.058   0.599   2.662
14191TIP3    H242531   3.186   0.679   2.657
14192TIP3   OH242532   5.025   5.682   2.876
14192TIP3    H142533   4.979   5.687   2.793
14192TIP3    H242534   5.030   5.589   2.896
14193TIP3   OH242535   3.939   4.837   5.794
14193TIP3    H142536   4.014   4.778   5.789
14193TIP3    H242537   3.975   4.920   5.824
14194TIP3   OH242538   0.760   1.603   1.454
14194TIP3    H142539   0.690   1.643   1.506
14194TIP3    H242540   0.716   1.569   1.376
14195TIP3   OH242541   3.971   6.411   5.331
14195TIP3    H142542   3.963   6.483   5.268
14195TIP3    H242543   3.896   6.422   5.389
14196TIP3   OH242544   0.149   1.480   3.066
14196TIP3    H142545   0.205   1.422   3.013
14196TIP3    H242546   0.094   1.420   3.117
14197TIP3   OH242547   1.065   1.528   1.273
14197TIP3    H142548   1.113   1.491   1.199
14197TIP3    H242549   1.018   1.454   1.311
14198TIP3   OH242550   7.267   6.271   3.139
14198TIP3    H142551   7.289   6.358   3.107
14198TIP3    H242552   7.352   6.228   3.152
14199TIP3   OH242553   4.157   1.719   2.969
14199TIP3    H142554   4.235   1.746   2.920
14199TIP3    H242555   4.191   1.694   3.055
14200TIP3   OH242556   8.211   4.318   5.802
14200TIP3    H142557   8.217   4.410   5.778
14200TIP3    H242558   8.147   4.281   5.741
14201TIP3   OH242559   5.287   4.562   0.839
14201TIP3    H142560   5.215   4.525   0.788
14201TIP3    H242561   5.363   4.508   0.816
14202TIP3   OH242562   0.701   2.545   1.453
14202TIP3    H142563   0.625   2.501   1.490
14202TIP3    H242564   0.724   2.612   1.517
14203TIP3   OH242565   6.314   3.491   3.077
14203TIP3    H142566   6.374   3.440   3.023
14203TIP3    H242567   6.231   3.489   3.029
14204TIP3   OH242568   1.412   2.345   1.376
14204TIP3    H142569   1.356   2.368   1.302
14204TIP3    H242570   1.489   2.305   1.335
14205TIP3   OH242571   5.186   1.272   5.201
14205TIP3    H142572   5.176   1.224   5.283
14205TIP3    H242573   5.280   1.269   5.183
14206TIP3   OH242574   3.828   7.060   5.135
14206TIP3    H142575   3.920   7.038   5.122
14206TIP3    H242576   3.809   7.124   5.066
14207TIP3   OH242577   1.199   4.213   3.897
14207TIP3    H142578   1.112   4.222   3.858
14207TIP3    H242579   1.183   4.198   3.990
14208TIP3   OH242580   7.503   5.135   2.455
14208TIP3    H142581   7.513   5.046   2.424
14208TIP3    H242582   7.446   5.177   2.391
14209TIP3   OH242583   7.716   5.554   5.026
14209TIP3    H142584   7.681   5.642   5.033
14209TIP3    H242585   7.716   5.535   4.932
14210TIP3   OH242586   6.566   0.708   4.276
14210TIP3    H142587   6.501   0.720   4.345
14210TIP3    H242588   6.605   0.622   4.293
14211TIP3   OH242589   1.488   2.503   3.473
14211TIP3    H142590   1.565   2.560   3.472
14211TIP3    H242591   1.521   2.418   3.502
14212TIP3   OH242592   0.265   7.683   4.912
14212TIP3    H142593   0.319   7.655   4.839
14212TIP3    H242594   0.276   7.615   4.978
14213TIP3   OH242595   1.782   0.576   4.125
14213TIP3    H142596   1.854   0.514   4.131
14213TIP3    H242597   1.799   0.625   4.044
14214TIP3   OH242598   4.120   6.494   1.977
14214TIP3    H142599   4.036   6.539   1.978
14214TIP3    H242600   4.146   6.492   1.885
14215TIP3   OH242601   8.188   3.378   2.479
14215TIP3    H142602   8.193   3.308   2.544
14215TIP3    H242603   8.276   3.416   2.478
14216TIP3   OH242604   4.111   3.413   6.347
14216TIP3    H142605   4.050   3.483   6.372
14216TIP3    H242606   4.145   3.380   6.430
14217TIP3   OH242607   4.243   2.409   0.919
14217TIP3    H142608   4.329   2.369   0.929
14217TIP3    H242609   4.187   2.362   0.981
14218TIP3   OH242610   6.288   0.670   1.509
14218TIP3    H142611   6.333   0.612   1.572
14218TIP3    H242612   6.220   0.712   1.560
14219TIP3   OH242613   6.271   3.864   0.958
14219TIP3    H142614   6.258   3.769   0.960
14219TIP3    H242615   6.193   3.899   1.002
14220TIP3   OH242616   1.627   1.629   6.712
14220TIP3    H142617   1.709   1.592   6.681
14220TIP3    H242618   1.617   1.712   6.665
14221TIP3   OH242619   0.573   1.979   5.957
14221TIP3    H142620   0.643   2.027   5.911
14221TIP3    H242621   0.515   2.048   5.989
14222TIP3   OH242622   5.229   6.182   2.024
14222TIP3    H142623   5.305   6.194   2.082
14222TIP3    H242624   5.265   6.191   1.936
14223TIP3   OH242625   7.207   5.853   6.136
14223TIP3    H142626   7.251   5.937   6.122
14223TIP3    H242627   7.248   5.817   6.215
14224TIP3   OH242628   5.650   0.870   0.117
14224TIP3    H142629   5.736   0.852   0.080
14224TIP3    H242630   5.608   0.928   0.053
14225TIP3   OH242631   7.933   0.303   0.730
14225TIP3    H142632   7.859   0.363   0.736
14225TIP3    H242633   7.931   0.254   0.812
14226TIP3   OH242634   6.118   4.580   2.300
14226TIP3    H142635   6.084   4.619   2.381
14226TIP3    H242636   6.075   4.495   2.295
14227TIP3   OH242637   5.903   2.086   1.596
14227TIP3    H142638   5.972   2.073   1.531
14227TIP3    H242639   5.903   2.181   1.612
14228TIP3   OH242640   0.249   4.666   3.926
14228TIP3    H142641   0.305   4.731   3.968
14228TIP3    H242642   0.207   4.620   3.999
14229TIP3   OH242643   0.923   5.710   0.644
14229TIP3    H142644   0.905   5.629   0.597
14229TIP3    H242645   0.894   5.693   0.734
14230TIP3   OH242646   2.876   0.972   4.855
14230TIP3    H142647   2.841   0.884   4.870
14230TIP3    H242648   2.969   0.957   4.838
14231TIP3   OH242649   0.605   3.715   0.352
14231TIP3    H142650   0.672   3.783   0.345
14231TIP3    H242651   0.609   3.668   0.268
14232TIP3   OH242652   1.870   3.478   0.827
14232TIP3    H142653   1.862   3.386   0.852
14232TIP3    H242654   1.780   3.511   0.828
14233TIP3   OH242655   4.383   4.084   4.862
14233TIP3    H142656   4.384   4.168   4.815
14233TIP3    H242657   4.371   4.108   4.953
14234TIP3   OH242658   3.205   4.447   4.037
14234TIP3    H142659   3.240   4.502   3.967
14234TIP3    H242660   3.146   4.505   4.086
14235TIP3   OH242661   7.873   1.008   2.527
14235TIP3    H142662   7.894   1.030   2.618
14235TIP3    H242663   7.837   1.088   2.490
14236TIP3   OH242664  -0.072   3.218   4.226
14236TIP3    H142665  -0.093   3.166   4.304
14236TIP3    H242666  -0.025   3.157   4.169
14237TIP3   OH242667   6.289   5.257   0.889
14237TIP3    H142668   6.288   5.321   0.818
14237TIP3    H242669   6.225   5.290   0.952
14238TIP3   OH242670   6.804   5.326   6.397
14238TIP3    H142671   6.738   5.378   6.349
14238TIP3    H242672   6.771   5.236   6.392
14239TIP3   OH242673   4.608   6.011   2.290
14239TIP3    H142674   4.537   6.026   2.353
14239TIP3    H242675   4.564   6.008   2.205
14240TIP3   OH242676   7.264   0.858   3.084
14240TIP3    H142677   7.322   0.898   3.020
14240TIP3    H242678   7.301   0.772   3.101
14241TIP3   OH242679   1.116   5.128   0.394
14241TIP3    H142680   1.075   5.197   0.447
14241TIP3    H242681   1.051   5.058   0.392
14242TIP3   OH242682   7.654   3.294   0.048
14242TIP3    H142683   7.660   3.334  -0.038
14242TIP3    H242684   7.728   3.331   0.097
14243TIP3   OH242685   0.361   6.621   4.174
14243TIP3    H142686   0.379   6.544   4.230
14243TIP3    H242687   0.280   6.658   4.209
14244TIP3   OH242688   3.259   6.937   4.120
14244TIP3    H142689   3.288   6.937   4.211
14244TIP3    H242690   3.338   6.920   4.069
14245TIP3   OH242691   4.178   3.568   2.501
14245TIP3    H142692   4.238   3.588   2.429
14245TIP3    H242693   4.096   3.611   2.477
14246TIP3   OH242694   8.088   7.397   5.939
14246TIP3    H142695   8.021   7.375   6.004
14246TIP3    H242696   8.105   7.490   5.953
14247TIP3   OH242697   4.746   6.695   1.380
14247TIP3    H142698   4.749   6.599   1.380
14247TIP3    H242699   4.653   6.716   1.395
14248TIP3   OH242700   6.049   4.878   3.315
14248TIP3    H142701   6.050   4.896   3.221
14248TIP3    H242702   6.134   4.909   3.346
14249TIP3   OH242703   6.207   4.007   4.881
14249TIP3    H142704   6.236   3.986   4.792
14249TIP3    H242705   6.279   4.059   4.918
14250TIP3   OH242706   3.199   5.487   1.559
14250TIP3    H142707   3.253   5.417   1.522
14250TIP3    H242708   3.260   5.560   1.570
14251TIP3   OH242709   6.469   1.703   4.974
14251TIP3    H142710   6.408   1.651   4.922
14251TIP3    H242711   6.414   1.763   5.024
14252TIP3   OH242712   2.915   0.326   3.395
14252TIP3    H142713   2.961   0.319   3.311
14252TIP3    H242714   2.878   0.238   3.409
14253TIP3   OH242715   4.639   4.952   4.997
14253TIP3    H142716   4.589   4.871   4.990
14253TIP3    H242717   4.647   4.983   4.906
14254TIP3   OH242718   1.128   1.419   3.404
14254TIP3    H142719   1.130   1.494   3.345
14254TIP3    H242720   1.083   1.350   3.355
14255TIP3   OH242721   7.616   0.924   6.314
14255TIP3    H142722   7.625   1.013   6.280
14255TIP3    H242723   7.532   0.894   6.280
14256TIP3   OH242724   6.064   0.976   1.131
14256TIP3    H142725   6.134   1.034   1.102
14256TIP3    H242726   6.080   0.963   1.224
14257TIP3   OH242727   4.655   2.108   2.180
14257TIP3    H142728   4.656   2.156   2.097
14257TIP3    H242729   4.631   2.174   2.246
14258TIP3   OH242730   1.768   4.595   0.685
14258TIP3    H142731   1.687   4.545   0.673
14258TIP3    H242732   1.747   4.660   0.752
14259TIP3   OH242733   4.001   4.078   6.585
14259TIP3    H142734   4.002   4.073   6.489
14259TIP3    H242735   3.921   4.034   6.611
14260TIP3   OH242736   4.379   3.480   0.281
14260TIP3    H142737   4.303   3.488   0.339
14260TIP3    H242738   4.452   3.515   0.332
14261TIP3   OH242739   4.783   7.782   5.615
14261TIP3    H142740   4.764   7.875   5.601
14261TIP3    H242741   4.830   7.780   5.698
14262TIP3   OH242742   5.521   4.395   0.080
14262TIP3    H142743   5.571   4.429   0.006
14262TIP3    H242744   5.445   4.352   0.041
14263TIP3   OH242745   1.856   2.804   6.220
14263TIP3    H142746   1.843   2.839   6.131
14263TIP3    H242747   1.846   2.880   6.277
14264TIP3   OH242748   0.042   1.323   6.385
14264TIP3    H142749   0.086   1.399   6.346
14264TIP3    H242750  -0.052   1.342   6.376
14265TIP3   OH242751   1.176   5.158   4.323
14265TIP3    H142752   1.171   5.071   4.284
14265TIP3    H242753   1.086   5.191   4.320
14266TIP3   OH242754   5.605   6.851   5.004
14266TIP3    H142755   5.700   6.842   5.004
14266TIP3    H242756   5.580   6.841   5.095
14267TIP3   OH242757   6.394   1.477   1.453
14267TIP3    H142758   6.384   1.551   1.394
14267TIP3    H242759   6.472   1.432   1.422
14268TIP3   OH242760   0.484   1.539   5.109
14268TIP3    H142761   0.442   1.605   5.055
14268TIP3    H242762   0.442   1.547   5.195
14269TIP3   OH242763   0.149   3.260   6.202
14269TIP3    H142764   0.093   3.218   6.137
14269TIP3    H242765   0.135   3.209   6.282
14270TIP3   OH242766   2.927   6.244   4.982
14270TIP3    H142767   2.889   6.175   5.036
14270TIP3    H242768   2.992   6.286   5.038
14271TIP3   OH242769   5.829   4.030   3.838
14271TIP3    H142770   5.838   3.959   3.775
14271TIP3    H242771   5.735   4.031   3.859
14272TIP3   OH242772   5.334   7.478   2.980
14272TIP3    H142773   5.239   7.470   2.995
14272TIP3    H242774   5.368   7.392   3.005
14273TIP3   OH242775   2.196   4.615   3.032
14273TIP3    H142776   2.146   4.557   2.974
14273TIP3    H242777   2.139   4.691   3.045
14274TIP3   OH242778   1.965   2.135   5.243
14274TIP3    H142779   1.984   2.130   5.149
14274TIP3    H242780   1.902   2.207   5.250
14275TIP3   OH242781   3.591   2.877   5.571
14275TIP3    H142782   3.626   2.810   5.513
14275TIP3    H242783   3.591   2.836   5.658
14276TIP3   OH242784   0.219   6.738   2.195
14276TIP3    H142785   0.159   6.811   2.213
14276TIP3    H242786   0.304   6.780   2.183
14277TIP3   OH242787   1.749   5.474   6.461
14277TIP3    H142788   1.804   5.396   6.452
14277TIP3    H242789   1.809   5.543   6.489
14278TIP3   OH242790   7.187   3.787   3.686
14278TIP3    H142791   7.184   3.723   3.758
14278TIP3    H242792   7.280   3.809   3.679
14279TIP3   OH242793   6.950   3.085   5.612
14279TIP3    H142794   7.002   3.160   5.582
14279TIP3    H242795   6.965   3.018   5.545
14280TIP3   OH242796   7.511   6.598   1.214
14280TIP3    H142797   7.545   6.686   1.226
14280TIP3    H242798   7.568   6.559   1.147
14281TIP3   OH242799   6.137   5.390   1.512
14281TIP3    H142800   6.091   5.381   1.596
14281TIP3    H242801   6.076   5.436   1.455
14282TIP3   OH242802   5.618   1.477   5.871
14282TIP3    H142803   5.530   1.515   5.865
14282TIP3    H242804   5.626   1.423   5.793
14283TIP3   OH242805   7.689   5.332   2.276
14283TIP3    H142806   7.723   5.247   2.305
14283TIP3    H242807   7.595   5.319   2.268
14284TIP3   OH242808   1.377   0.011   4.129
14284TIP3    H142809   1.472  -0.002   4.121
14284TIP3    H242810   1.365   0.044   4.218
14285TIP3   OH242811   2.511   1.142   2.583
14285TIP3    H142812   2.458   1.094   2.520
14285TIP3    H242813   2.453   1.155   2.659
14286TIP3   OH242814   6.819   3.649   4.118
14286TIP3    H142815   6.725   3.653   4.099
14286TIP3    H242816   6.826   3.673   4.211
14287TIP3   OH242817   5.394   1.233   5.661
14287TIP3    H142818   5.359   1.211   5.575
14287TIP3    H242819   5.320   1.226   5.721
14288TIP3   OH242820   3.434   2.589   5.467
14288TIP3    H142821   3.391   2.674   5.457
14288TIP3    H242822   3.471   2.572   5.380
14289TIP3   OH242823   6.354   2.446   0.584
14289TIP3    H142824   6.383   2.535   0.604
14289TIP3    H242825   6.306   2.419   0.662
14290TIP3   OH242826   1.067   2.601   0.942
14290TIP3    H142827   1.012   2.524   0.960
14290TIP3    H242828   1.150   2.581   0.985
14291TIP3   OH242829   3.663   4.159   2.773
14291TIP3    H142830   3.656   4.145   2.867
14291TIP3    H242831   3.753   4.133   2.751
14292TIP3   OH242832   1.297   7.722   5.354
14292TIP3    H142833   1.349   7.692   5.280
14292TIP3    H242834   1.250   7.799   5.320
14293TIP3   OH242835   4.541   3.004  -0.003
14293TIP3    H142836   4.634   3.024  -0.004
14293TIP3    H242837   4.536   2.911   0.019
14294TIP3   OH242838   2.441   3.254   3.597
14294TIP3    H142839   2.402   3.168   3.589
14294TIP3    H242840   2.384   3.312   3.546
14295TIP3   OH242841   1.176   2.675   1.249
14295TIP3    H142842   1.101   2.731   1.269
14295TIP3    H242843   1.193   2.691   1.156
14296TIP3   OH242844   3.479   1.002   3.251
14296TIP3    H142845   3.564   1.044   3.263
14296TIP3    H242846   3.498   0.908   3.248
14297TIP3   OH242847   5.448   2.237   5.428
14297TIP3    H142848   5.501   2.312   5.456
14297TIP3    H242849   5.370   2.276   5.388
14298TIP3   OH242850   6.606   0.242   3.517
14298TIP3    H142851   6.613   0.312   3.453
14298TIP3    H242852   6.585   0.286   3.599
14299TIP3   OH242853   7.077   2.761   1.648
14299TIP3    H142854   7.097   2.842   1.695
14299TIP3    H242855   7.072   2.786   1.556
14300TIP3   OH242856   4.374   7.023   5.112
14300TIP3    H142857   4.384   7.117   5.098
14300TIP3    H242858   4.459   6.986   5.087
14301TIP3   OH242859   0.832   1.419   6.035
14301TIP3    H142860   0.811   1.496   5.981
14301TIP3    H242861   0.748   1.393   6.073
14302TIP3   OH242862   2.285   6.536   5.272
14302TIP3    H142863   2.196   6.506   5.295
14302TIP3    H242864   2.338   6.514   5.349
14303TIP3   OH242865   8.129   0.397   1.585
14303TIP3    H142866   8.181   0.428   1.511
14303TIP3    H242867   8.157   0.451   1.659
14304TIP3   OH242868   7.501   7.500   2.875
14304TIP3    H142869   7.469   7.572   2.821
14304TIP3    H242870   7.423   7.465   2.919
14305TIP3   OH242871   7.170   4.796   2.523
14305TIP3    H142872   7.137   4.811   2.434
14305TIP3    H242873   7.231   4.723   2.514
14306TIP3   OH242874   0.229   2.026   0.399
14306TIP3    H142875   0.233   1.932   0.381
14306TIP3    H242876   0.319   2.050   0.422
14307TIP3   OH242877   0.570   0.289   4.578
14307TIP3    H142878   0.529   0.277   4.492
14307TIP3    H242879   0.655   0.246   4.569
14308TIP3   OH242880   3.681   3.069   0.418
14308TIP3    H142881   3.765   3.111   0.437
14308TIP3    H242882   3.701   2.976   0.408
14309TIP3   OH242883   7.794   4.501   1.342
14309TIP3    H142884   7.742   4.572   1.380
14309TIP3    H242885   7.847   4.543   1.274
14310TIP3   OH242886   3.654   2.490   3.490
14310TIP3    H142887   3.609   2.506   3.574
14310TIP3    H242888   3.674   2.396   3.492
14311TIP3   OH242889   5.514   3.417   4.958
14311TIP3    H142890   5.597   3.465   4.960
14311TIP3    H242891   5.480   3.433   4.870
14312TIP3   OH242892   1.739   1.216   6.581
14312TIP3    H142893   1.663   1.274   6.596
14312TIP3    H242894   1.702   1.138   6.541
14313TIP3   OH242895   5.229   6.807   0.077
14313TIP3    H142896   5.206   6.723   0.037
14313TIP3    H242897   5.248   6.865   0.003
14314TIP3   OH242898   2.751   2.242   5.138
14314TIP3    H142899   2.744   2.261   5.232
14314TIP3    H242900   2.710   2.156   5.128
14315TIP3   OH242901   5.579   2.145   0.521
14315TIP3    H142902   5.508   2.099   0.475
14315TIP3    H242903   5.585   2.101   0.606
14316TIP3   OH242904   4.185   0.137   2.091
14316TIP3    H142905   4.124   0.089   2.035
14316TIP3    H242906   4.227   0.200   2.033
14317TIP3   OH242907   4.766   2.983   6.082
14317TIP3    H142908   4.781   2.956   6.172
14317TIP3    H242909   4.671   2.996   6.076
14318TIP3   OH242910   7.797   2.845   6.142
14318TIP3    H142911   7.794   2.749   6.144
14318TIP3    H242912   7.850   2.865   6.065
14319TIP3   OH242913   0.766   7.494   3.673
14319TIP3    H142914   0.815   7.517   3.594
14319TIP3    H242915   0.818   7.529   3.745
14320TIP3   OH242916   5.721   5.016   5.652
14320TIP3    H142917   5.691   5.105   5.635
14320TIP3    H242918   5.710   4.970   5.569
14321TIP3   OH242919   4.208   5.353   5.756
14321TIP3    H142920   4.235   5.296   5.828
14321TIP3    H242921   4.168   5.294   5.693
14322TIP3   OH242922   7.389   4.047   2.825
14322TIP3    H142923   7.377   4.076   2.915
14322TIP3    H242924   7.473   4.085   2.798
14323TIP3   OH242925   4.219   4.739   4.764
14323TIP3    H142926   4.207   4.655   4.718
14323TIP3    H242927   4.130   4.770   4.781
14324TIP3   OH242928   7.378   4.029   4.669
14324TIP3    H142929   7.374   4.018   4.574
14324TIP3    H242930   7.310   4.094   4.687
14325TIP3   OH242931   0.901   6.600   4.462
14325TIP3    H142932   0.925   6.549   4.540
14325TIP3    H242933   0.959   6.676   4.465
14326TIP3   OH242934   4.045   4.046   2.035
14326TIP3    H142935   4.140   4.047   2.047
14326TIP3    H242936   4.011   4.086   2.116
14327TIP3   OH242937   1.517   6.577   6.370
14327TIP3    H142938   1.526   6.646   6.436
14327TIP3    H242939   1.561   6.612   6.293
14328TIP3   OH242940   0.295   6.045   6.279
14328TIP3    H142941   0.291   6.059   6.373
14328TIP3    H242942   0.232   6.107   6.243
14329TIP3   OH242943   3.457   5.917   5.651
14329TIP3    H142944   3.400   5.986   5.685
14329TIP3    H242945   3.463   5.935   5.557
14330TIP3   OH242946   2.151   5.500   5.206
14330TIP3    H142947   2.110   5.501   5.293
14330TIP3    H242948   2.124   5.416   5.169
14331TIP3   OH242949   3.380   2.084   1.708
14331TIP3    H142950   3.378   1.996   1.668
14331TIP3    H242951   3.401   2.068   1.799
14332TIP3   OH242952   0.556   0.492   1.146
14332TIP3    H142953   0.521   0.431   1.082
14332TIP3    H242954   0.606   0.438   1.207
14333TIP3   OH242955   2.285   7.303   2.820
14333TIP3    H142956   2.351   7.373   2.821
14333TIP3    H242957   2.305   7.252   2.742
14334TIP3   OH242958   4.819   0.855   5.483
14334TIP3    H142959   4.764   0.867   5.406
14334TIP3    H242960   4.770   0.795   5.539
14335TIP3   OH242961   2.495   1.940   0.822
14335TIP3    H142962   2.588   1.959   0.816
14335TIP3    H242963   2.453   2.026   0.831
14336TIP3   OH242964   0.691   3.769   4.578
14336TIP3    H142965   0.623   3.705   4.557
14336TIP3    H242966   0.731   3.736   4.659
14337TIP3   OH242967   5.786   1.197   4.973
14337TIP3    H142968   5.754   1.281   5.006
14337TIP3    H242969   5.708   1.141   4.970
14338TIP3   OH242970   5.536   7.302   6.128
14338TIP3    H142971   5.554   7.296   6.221
14338TIP3    H242972   5.539   7.396   6.108
14339TIP3   OH242973   1.439   0.899   1.099
14339TIP3    H142974   1.383   0.865   1.029
14339TIP3    H242975   1.449   0.992   1.080
14340TIP3   OH242976   4.442   2.495   2.174
14340TIP3    H142977   4.401   2.470   2.257
14340TIP3    H242978   4.377   2.551   2.131
14341TIP3   OH242979   7.220   5.752   2.846
14341TIP3    H142980   7.250   5.842   2.854
14341TIP3    H242981   7.169   5.750   2.765
14342TIP3   OH242982   3.827   5.336   3.455
14342TIP3    H142983   3.841   5.392   3.531
14342TIP3    H242984   3.914   5.323   3.418
14343TIP3   OH242985   2.421   3.648   1.374
14343TIP3    H142986   2.475   3.723   1.399
14343TIP3    H242987   2.464   3.612   1.297
14344TIP3   OH242988   4.446   4.980   1.871
14344TIP3    H142989   4.357   5.013   1.862
14344TIP3    H242990   4.500   5.058   1.882
14345TIP3   OH242991   0.309   1.774   1.655
14345TIP3    H142992   0.278   1.732   1.735
14345TIP3    H242993   0.392   1.731   1.635
14346TIP3   OH242994   4.767   6.439   0.956
14346TIP3    H142995   4.825   6.453   1.031
14346TIP3    H242996   4.717   6.361   0.979
14347TIP3   OH242997   6.578   5.506   2.910
14347TIP3    H142998   6.660   5.497   2.862
14347TIP3    H242999   6.542   5.590   2.882
14348TIP3   OH243000   2.744   5.861   5.750
14348TIP3    H143001   2.782   5.781   5.715
14348TIP3    H243002   2.678   5.887   5.685
14349TIP3   OH243003   6.778   4.458   5.352
14349TIP3    H143004   6.775   4.549   5.320
14349TIP3    H243005   6.696   4.448   5.400
14350TIP3   OH243006   0.539   6.098   5.418
14350TIP3    H143007   0.593   6.072   5.343
14350TIP3    H243008   0.577   6.051   5.492
14351TIP3   OH243009   0.532   3.203   3.422
14351TIP3    H143010   0.478   3.167   3.351
14351TIP3    H243011   0.568   3.126   3.466
14352TIP3   OH243012   3.070   4.822   1.396
14352TIP3    H143013   3.131   4.800   1.467
14352TIP3    H243014   3.015   4.891   1.433
14353TIP3   OH243015   0.960   6.558   6.305
14353TIP3    H143016   1.022   6.628   6.285
14353TIP3    H243017   0.874   6.597   6.286
14354TIP3   OH243018   8.154   3.648   3.048
14354TIP3    H143019   8.087   3.710   3.074
14354TIP3    H243020   8.197   3.622   3.130
14355TIP3   OH243021   4.785   4.286   5.956
14355TIP3    H143022   4.708   4.340   5.942
14355TIP3    H243023   4.825   4.321   6.036
14356TIP3   OH243024   6.385   6.046   6.623
14356TIP3    H143025   6.366   6.099   6.700
14356TIP3    H243026   6.306   6.051   6.570
14357TIP3   OH243027   4.284   2.391   6.489
14357TIP3    H143028   4.229   2.359   6.417
14357TIP3    H243029   4.296   2.315   6.545
14358TIP3   OH243030   4.286   1.688   3.235
14358TIP3    H143031   4.211   1.657   3.286
14358TIP3    H243032   4.358   1.630   3.261
14359TIP3   OH243033   5.527   7.654   1.040
14359TIP3    H143034   5.474   7.608   1.105
14359TIP3    H243035   5.518   7.602   0.960
14360TIP3   OH243036   3.849   2.098   6.722
14360TIP3    H143037   3.827   2.185   6.755
14360TIP3    H243038   3.810   2.038   6.785
14361TIP3   OH243039   6.351   7.487   3.984
14361TIP3    H143040   6.374   7.405   4.026
14361TIP3    H243041   6.257   7.498   4.002
14362TIP3   OH243042   1.816   5.201   6.196
14362TIP3    H143043   1.765   5.123   6.218
14362TIP3    H243044   1.836   5.242   6.281
14363TIP3   OH243045   1.926   2.449   4.147
14363TIP3    H143046   1.929   2.376   4.209
14363TIP3    H243047   1.929   2.527   4.201
14364TIP3   OH243048   6.297   5.448   6.185
14364TIP3    H143049   6.223   5.449   6.125
14364TIP3    H243050   6.277   5.378   6.247
14365TIP3   OH243051   3.101   3.680   3.739
14365TIP3    H143052   3.092   3.639   3.825
14365TIP3    H243053   3.157   3.755   3.754
14366TIP3   OH243054   4.278   0.485   0.525
14366TIP3    H143055   4.336   0.516   0.595
14366TIP3    H243056   4.338   0.456   0.456
14367TIP3   OH243057   3.847   3.727   2.364
14367TIP3    H143058   3.858   3.815   2.329
14367TIP3    H243059   3.817   3.740   2.454
14368TIP3   OH243060   3.366   5.668   3.802
14368TIP3    H143061   3.271   5.667   3.788
14368TIP3    H243062   3.392   5.758   3.782
14369TIP3   OH243063   2.069   3.780   3.033
14369TIP3    H143064   2.119   3.716   2.984
14369TIP3    H243065   2.101   3.772   3.123
14370TIP3   OH243066   4.778   4.871   0.284
14370TIP3    H143067   4.830   4.867   0.204
14370TIP3    H243068   4.740   4.959   0.283
14371TIP3   OH243069   3.824   7.059   2.491
14371TIP3    H143070   3.824   7.072   2.586
14371TIP3    H243071   3.840   6.965   2.480
14372TIP3   OH243072   5.845   7.195   5.000
14372TIP3    H143073   5.907   7.247   4.949
14372TIP3    H243074   5.816   7.252   5.071
14373TIP3   OH243075   2.854   2.728   2.318
14373TIP3    H143076   2.939   2.767   2.299
14373TIP3    H243077   2.792   2.800   2.311
14374TIP3   OH243078   2.369   7.016   3.060
14374TIP3    H143079   2.389   6.946   2.998
14374TIP3    H243080   2.422   7.090   3.030
14375TIP3   OH243081   0.457   3.708   2.483
14375TIP3    H143082   0.458   3.666   2.397
14375TIP3    H243083   0.410   3.647   2.539
14376TIP3   OH243084   7.836   0.101   0.261
14376TIP3    H143085   7.887   0.148   0.327
14376TIP3    H243086   7.894   0.094   0.186
14377TIP3   OH243087   0.411   5.646   5.851
14377TIP3    H143088   0.336   5.591   5.828
14377TIP3    H243089   0.466   5.645   5.773
14378TIP3   OH243090   4.065   1.243   2.879
14378TIP3    H143091   3.992   1.220   2.937
14378TIP3    H243092   4.033   1.221   2.792
14379TIP3   OH243093   5.980   3.635   1.389
14379TIP3    H143094   6.041   3.606   1.457
14379TIP3    H243095   5.914   3.685   1.436
14380TIP3   OH243096   3.793   1.366   5.579
14380TIP3    H143097   3.868   1.425   5.589
14380TIP3    H243098   3.768   1.345   5.669
14381TIP3   OH243099   7.004   1.297   0.856
14381TIP3    H143100   7.062   1.259   0.790
14381TIP3    H243101   7.002   1.232   0.927
14382TIP3   OH243102   4.862   6.587   2.163
14382TIP3    H143103   4.901   6.612   2.079
14382TIP3    H243104   4.933   6.542   2.209
14383TIP3   OH243105   5.425   3.646   0.716
14383TIP3    H143106   5.383   3.720   0.672
14383TIP3    H243107   5.353   3.604   0.764
14384TIP3   OH243108   1.826   2.904   2.832
14384TIP3    H143109   1.734   2.883   2.821
14384TIP3    H243110   1.864   2.825   2.871
14385TIP3   OH243111   3.666   4.806   5.836
14385TIP3    H143112   3.760   4.811   5.819
14385TIP3    H243113   3.644   4.894   5.866
14386TIP3   OH243114   0.826   5.902   4.502
14386TIP3    H143115   0.839   5.883   4.409
14386TIP3    H243116   0.746   5.854   4.524
14387TIP3   OH243117   7.235   5.921   1.011
14387TIP3    H143118   7.292   5.845   0.996
14387TIP3    H243119   7.186   5.899   1.090
14388TIP3   OH243120   1.559   5.908   1.438
14388TIP3    H143121   1.589   5.937   1.524
14388TIP3    H243122   1.607   5.827   1.422
14389TIP3   OH243123   6.558   1.162   2.106
14389TIP3    H143124   6.468   1.131   2.116
14389TIP3    H243125   6.551   1.258   2.109
14390TIP3   OH243126   1.142   6.460   4.491
14390TIP3    H143127   1.216   6.421   4.537
14390TIP3    H243128   1.181   6.526   4.434
14391TIP3   OH243129   5.815   7.823   3.674
14391TIP3    H143130   5.875   7.750   3.657
14391TIP3    H243131   5.873   7.897   3.693
14392TIP3   OH243132   3.707   5.269   1.346
14392TIP3    H143133   3.627   5.221   1.370
14392TIP3    H243134   3.703   5.275   1.251
14393TIP3   OH243135   0.831   5.848   3.322
14393TIP3    H143136   0.793   5.913   3.381
14393TIP3    H243137   0.822   5.886   3.235
14394TIP3   OH243138   3.580   3.937   4.468
14394TIP3    H143139   3.502   3.988   4.445
14394TIP3    H243140   3.654   3.995   4.450
14395TIP3   OH243141   5.924   5.874   5.545
14395TIP3    H143142   5.914   5.783   5.572
14395TIP3    H243143   5.985   5.870   5.471
14396TIP3   OH243144   0.528   0.784   0.076
14396TIP3    H143145   0.478   0.864   0.092
14396TIP3    H243146   0.599   0.811   0.019
14397TIP3   OH243147   6.531   2.253   0.690
14397TIP3    H143148   6.470   2.298   0.632
14397TIP3    H243149   6.500   2.162   0.691
14398TIP3   OH243150   4.261   4.522   0.432
14398TIP3    H143151   4.281   4.578   0.357
14398TIP3    H243152   4.173   4.548   0.459
14399TIP3   OH243153   7.342   4.400   1.928
14399TIP3    H143154   7.311   4.413   1.838
14399TIP3    H243155   7.432   4.369   1.917
14400TIP3   OH243156   0.912   2.929   5.676
14400TIP3    H143157   0.903   2.954   5.584
14400TIP3    H243158   1.004   2.902   5.685
14401TIP3   OH243159   5.360   7.199   1.448
14401TIP3    H143160   5.412   7.195   1.368
14401TIP3    H243161   5.287   7.257   1.427
14402TIP3   OH243162   6.992   1.011   0.638
14402TIP3    H143163   7.048   0.961   0.579
14402TIP3    H243164   6.943   1.070   0.581
14403TIP3   OH243165   1.727   2.084   1.755
14403TIP3    H143166   1.650   2.087   1.699
14403TIP3    H243167   1.713   2.155   1.818
14404TIP3   OH243168   6.796   7.744   4.949
14404TIP3    H143169   6.737   7.812   4.916
14404TIP3    H243170   6.801   7.680   4.878
14405TIP3   OH243171   6.994   3.616   2.859
14405TIP3    H143172   6.961   3.576   2.939
14405TIP3    H243173   7.079   3.652   2.884
14406TIP3   OH243174   7.302   6.855   2.493
14406TIP3    H143175   7.271   6.784   2.436
14406TIP3    H243176   7.395   6.838   2.504
14407TIP3   OH243177   6.362   5.892   5.974
14407TIP3    H143178   6.315   5.813   5.947
14407TIP3    H243179   6.437   5.897   5.915
14408TIP3   OH243180   4.762   6.137   0.212
14408TIP3    H143181   4.718   6.120   0.295
14408TIP3    H243182   4.778   6.231   0.212
14409TIP3   OH243183   7.482   2.299   2.454
14409TIP3    H143184   7.411   2.258   2.404
14409TIP3    H243185   7.449   2.304   2.543
14410TIP3   OH243186   2.765   4.408   4.444
14410TIP3    H143187   2.772   4.495   4.405
14410TIP3    H243188   2.848   4.394   4.488
14411TIP3   OH243189   3.294   3.637   1.929
14411TIP3    H143190   3.298   3.555   1.880
14411TIP3    H243191   3.381   3.675   1.919
14412TIP3   OH243192   7.169   4.041   6.781
14412TIP3    H143193   7.103   4.039   6.712
14412TIP3    H243194   7.166   3.954   6.820
14413TIP3   OH243195   6.218   6.575   2.604
14413TIP3    H143196   6.312   6.565   2.616
14413TIP3    H243197   6.186   6.485   2.595
14414TIP3   OH243198   5.814   1.801   2.628
14414TIP3    H143199   5.766   1.823   2.708
14414TIP3    H243200   5.859   1.719   2.649
14415TIP3   OH243201   6.236   5.146   2.307
14415TIP3    H143202   6.322   5.107   2.320
14415TIP3    H243203   6.252   5.240   2.302
14416TIP3   OH243204   4.766   7.301   5.684
14416TIP3    H143205   4.728   7.389   5.686
14416TIP3    H243206   4.747   7.265   5.770
14417TIP3   OH243207   0.409   7.064   1.995
14417TIP3    H143208   0.369   7.132   1.940
14417TIP3    H243209   0.499   7.095   2.008
14418TIP3   OH243210   5.792   7.518   3.015
14418TIP3    H143211   5.855   7.560   3.074
14418TIP3    H243212   5.818   7.549   2.928
14419TIP3   OH243213   0.604   7.508   1.217
14419TIP3    H143214   0.686   7.470   1.249
14419TIP3    H243215   0.611   7.601   1.236
14420TIP3   OH243216   2.242   5.332   0.440
14420TIP3    H143217   2.239   5.236   0.449
14420TIP3    H243218   2.180   5.351   0.369
14421TIP3   OH243219   6.588   4.734   6.657
14421TIP3    H143220   6.671   4.743   6.704
14421TIP3    H243221   6.555   4.824   6.649
14422TIP3   OH243222   1.095   1.295   1.050
14422TIP3    H143223   1.030   1.259   1.110
14422TIP3    H243224   1.046   1.315   0.970
14423TIP3   OH243225   1.601   4.371   4.725
14423TIP3    H143226   1.656   4.444   4.754
14423TIP3    H243227   1.513   4.407   4.721
14424TIP3   OH243228   4.908   3.951   4.463
14424TIP3    H143229   4.912   3.928   4.370
14424TIP3    H243230   4.866   3.876   4.504
14425TIP3   OH243231   1.115   2.409   0.366
14425TIP3    H143232   1.038   2.378   0.415
14425TIP3    H243233   1.188   2.360   0.404
14426TIP3   OH243234   4.179   1.512   5.036
14426TIP3    H143235   4.094   1.541   5.070
14426TIP3    H243236   4.168   1.510   4.941
14427TIP3   OH243237   0.739   1.842   2.907
14427TIP3    H143238   0.707   1.796   2.986
14427TIP3    H243239   0.674   1.822   2.840
14428TIP3   OH243240   6.717   2.037   0.399
14428TIP3    H143241   6.707   1.979   0.323
14428TIP3    H243242   6.773   2.108   0.367
14429TIP3   OH243243   2.215   6.146   1.918
14429TIP3    H143244   2.227   6.051   1.917
14429TIP3    H243245   2.215   6.171   1.825
14430TIP3   OH243246   3.546   0.286   4.392
14430TIP3    H143247   3.593   0.317   4.469
14430TIP3    H243248   3.614   0.253   4.334
14431TIP3   OH243249   0.695   4.252   6.157
14431TIP3    H143250   0.789   4.244   6.173
14431TIP3    H243251   0.681   4.207   6.074
14432TIP3   OH243252   1.883   7.687   0.485
14432TIP3    H143253   1.830   7.708   0.562
14432TIP3    H243254   1.926   7.769   0.463
14433TIP3   OH243255   4.698   2.287   4.590
14433TIP3    H143256   4.621   2.259   4.639
14433TIP3    H243257   4.680   2.261   4.499
14434TIP3   OH243258   3.030   7.323   3.999
14434TIP3    H143259   3.051   7.359   3.913
14434TIP3    H243260   2.934   7.321   4.001
14435TIP3   OH243261   3.756   1.769   5.668
14435TIP3    H143262   3.743   1.719   5.588
14435TIP3    H243263   3.684   1.742   5.725
14436TIP3   OH243264   1.653   2.124   5.202
14436TIP3    H143265   1.666   2.219   5.201
14436TIP3    H243266   1.577   2.110   5.146
14437TIP3   OH243267   2.597   0.829   4.494
14437TIP3    H143268   2.555   0.743   4.502
14437TIP3    H243269   2.597   0.865   4.583
14438TIP3   OH243270   0.643   5.422   0.788
14438TIP3    H143271   0.713   5.397   0.849
14438TIP3    H243272   0.647   5.356   0.719
14439TIP3   OH243273   0.094   6.341   2.858
14439TIP3    H143274   0.114   6.254   2.893
14439TIP3    H243275   0.000   6.351   2.871
14440TIP3   OH243276   0.629   0.944   5.191
14440TIP3    H143277   0.657   1.005   5.123
14440TIP3    H243278   0.576   0.879   5.145
14441TIP3   OH243279   7.828   7.386   1.645
14441TIP3    H143280   7.871   7.312   1.686
14441TIP3    H243281   7.898   7.435   1.603
14442TIP3   OH243282   3.218   2.244   0.786
14442TIP3    H143283   3.307   2.263   0.816
14442TIP3    H243284   3.192   2.166   0.834
14443TIP3   OH243285   6.038   1.813   1.915
14443TIP3    H143286   6.114   1.871   1.922
14443TIP3    H243287   5.986   1.832   1.993
14444TIP3   OH243288   7.728   4.720   0.725
14444TIP3    H143289   7.660   4.702   0.659
14444TIP3    H243290   7.744   4.814   0.718
14445TIP3   OH243291   4.380   3.014   5.349
14445TIP3    H143292   4.465   3.018   5.393
14445TIP3    H243293   4.384   3.082   5.282
14446TIP3   OH243294   8.066   2.614   5.539
14446TIP3    H143295   8.017   2.677   5.487
14446TIP3    H243296   8.002   2.547   5.561
14447TIP3   OH243297   0.641   6.655   3.150
14447TIP3    H143298   0.590   6.578   3.124
14447TIP3    H243299   0.578   6.728   3.148
14448TIP3   OH243300   0.905   7.472   0.174
14448TIP3    H143301   0.991   7.513   0.164
14448TIP3    H243302   0.873   7.506   0.258
14449TIP3   OH243303   4.150   2.262   2.006
14449TIP3    H143304   4.125   2.354   2.015
14449TIP3    H243305   4.184   2.256   1.917
14450TIP3   OH243306   4.881   1.753   0.152
14450TIP3    H143307   4.899   1.777   0.243
14450TIP3    H243308   4.839   1.830   0.114
14451TIP3   OH243309   3.109   6.366   3.062
14451TIP3    H143310   3.177   6.299   3.058
14451TIP3    H243311   3.081   6.367   3.153
14452TIP3   OH243312   7.957   3.857   4.215
14452TIP3    H143313   8.009   3.867   4.294
14452TIP3    H243314   7.937   3.763   4.211
14453TIP3   OH243315   2.015   5.401   3.616
14453TIP3    H143316   1.945   5.353   3.659
14453TIP3    H243317   2.006   5.379   3.523
14454TIP3   OH243318   1.222   2.517   0.127
14454TIP3    H143319   1.194   2.466   0.203
14454TIP3    H243320   1.170   2.482   0.054
14455TIP3   OH243321   1.514   5.061   1.054
14455TIP3    H143322   1.477   5.122   1.118
14455TIP3    H243323   1.571   5.115   1.000
14456TIP3   OH243324   6.566   4.718   1.527
14456TIP3    H143325   6.562   4.651   1.595
14456TIP3    H243326   6.628   4.683   1.462
14457TIP3   OH243327   3.028   0.891   3.752
14457TIP3    H143328   3.103   0.948   3.766
14457TIP3    H243329   2.999   0.911   3.662
14458TIP3   OH243330   4.873   5.281   4.795
14458TIP3    H143331   4.852   5.188   4.798
14458TIP3    H243332   4.942   5.289   4.729
14459TIP3   OH243333   6.245   7.490   3.626
14459TIP3    H143334   6.326   7.539   3.641
14459TIP3    H243335   6.262   7.404   3.665
14460TIP3   OH243336   1.826   5.522   0.555
14460TIP3    H143337   1.823   5.545   0.648
14460TIP3    H243338   1.772   5.444   0.547
14461TIP3   OH243339   6.695   0.920   5.316
14461TIP3    H143340   6.609   0.921   5.360
14461TIP3    H243341   6.682   0.969   5.235
14462TIP3   OH243342   4.097   5.946   1.145
14462TIP3    H143343   4.132   6.030   1.116
14462TIP3    H243344   4.003   5.962   1.159
14463TIP3   OH243345   1.588   4.817   4.851
14463TIP3    H143346   1.566   4.805   4.943
14463TIP3    H243347   1.635   4.900   4.848
14464TIP3   OH243348   5.904   7.547   0.706
14464TIP3    H143349   5.915   7.453   0.714
14464TIP3    H243350   5.818   7.558   0.664
14465TIP3   OH243351   0.852   3.510   1.907
14465TIP3    H143352   0.852   3.569   1.982
14465TIP3    H243353   0.944   3.485   1.897
14466TIP3   OH243354   0.251   2.092   3.460
14466TIP3    H143355   0.316   2.163   3.458
14466TIP3    H243356   0.253   2.055   3.372
14467TIP3   OH243357   5.527   3.358   1.563
14467TIP3    H143358   5.472   3.437   1.566
14467TIP3    H243359   5.606   3.385   1.516
14468TIP3   OH243360   1.082  -0.006   4.690
14468TIP3    H143361   0.989  -0.028   4.703
14468TIP3    H243362   1.096   0.070   4.746
14469TIP3   OH243363   1.058   3.580   0.840
14469TIP3    H143364   1.114   3.570   0.918
14469TIP3    H243365   1.081   3.506   0.785
14470TIP3   OH243366   0.016   6.033   5.750
14470TIP3    H143367   0.105   5.997   5.757
14470TIP3    H243368  -0.033   5.987   5.819
14471TIP3   OH243369   5.068   1.174   1.949
14471TIP3    H143370   4.990   1.229   1.942
14471TIP3    H243371   5.068   1.121   1.869
14472TIP3   OH243372   8.055   4.197   0.438
14472TIP3    H143373   8.069   4.141   0.514
14472TIP3    H243374   7.999   4.267   0.470
14473TIP3   OH243375   7.705   1.879   0.671
14473TIP3    H143376   7.775   1.906   0.611
14473TIP3    H243377   7.738   1.902   0.758
14474TIP3   OH243378   4.183   5.759   4.285
14474TIP3    H143379   4.205   5.697   4.216
14474TIP3    H243380   4.260   5.758   4.342
14475TIP3   OH243381   1.862   1.909   3.140
14475TIP3    H143382   1.875   1.824   3.098
14475TIP3    H243383   1.949   1.936   3.168
14476TIP3   OH243384   7.732   1.385   6.245
14476TIP3    H143385   7.803   1.440   6.212
14476TIP3    H243386   7.658   1.445   6.255
14477TIP3   OH243387   0.382   0.357   5.640
14477TIP3    H143388   0.470   0.391   5.622
14477TIP3    H243389   0.358   0.396   5.724
14478TIP3   OH243390   4.226   5.661   5.458
14478TIP3    H143391   4.189   5.700   5.378
14478TIP3    H243392   4.252   5.573   5.431
14479TIP3   OH243393   0.976   3.800   1.764
14479TIP3    H143394   0.926   3.861   1.818
14479TIP3    H243395   0.928   3.794   1.682
14480TIP3   OH243396   0.839   0.337   0.908
14480TIP3    H143397   0.744   0.334   0.892
14480TIP3    H243398   0.852   0.279   0.983
14481TIP3   OH243399   1.445   4.783   2.967
14481TIP3    H143400   1.370   4.842   2.958
14481TIP3    H243401   1.416   4.702   2.923
14482TIP3   OH243402   7.284   1.315   4.322
14482TIP3    H143403   7.280   1.405   4.356
14482TIP3    H243404   7.318   1.325   4.233
14483TIP3   OH243405   0.994   3.637   0.039
14483TIP3    H143406   1.067   3.577   0.026
14483TIP3    H243407   1.003   3.701  -0.032
14484TIP3   OH243408   4.493   6.446   5.745
14484TIP3    H143409   4.494   6.379   5.676
14484TIP3    H243410   4.507   6.528   5.699
14485TIP3   OH243411   0.647   1.188   3.797
14485TIP3    H143412   0.721   1.140   3.833
14485TIP3    H243413   0.658   1.278   3.829
14486TIP3   OH243414   0.773   7.814   3.718
14486TIP3    H143415   0.843   7.753   3.743
14486TIP3    H243416   0.727   7.834   3.799
14487TIP3   OH243417   1.323   4.440   3.656
14487TIP3    H143418   1.301   4.505   3.590
14487TIP3    H243419   1.308   4.485   3.740
14488TIP3   OH243420   5.098   4.448   3.307
14488TIP3    H143421   5.141   4.469   3.224
14488TIP3    H243422   5.100   4.352   3.310
14489TIP3   OH243423   6.580   0.214   6.628
14489TIP3    H143424   6.511   0.242   6.567
14489TIP3    H243425   6.581   0.282   6.695
14490TIP3   OH243426   0.200   6.148   4.755
14490TIP3    H143427   0.117   6.142   4.803
14490TIP3    H243428   0.262   6.186   4.818
14491TIP3   OH243429   8.041   0.782   4.778
14491TIP3    H143430   8.080   0.770   4.865
14491TIP3    H243431   8.110   0.756   4.717
14492TIP3   OH243432   2.124   6.410   0.085
14492TIP3    H143433   2.123   6.504   0.070
14492TIP3    H243434   2.215   6.390   0.109
14493TIP3   OH243435   3.343   1.421   4.707
14493TIP3    H143436   3.265   1.419   4.651
14493TIP3    H243437   3.403   1.359   4.667
14494TIP3   OH243438   8.046   3.655   2.610
14494TIP3    H143439   8.137   3.673   2.635
14494TIP3    H243440   8.010   3.608   2.685
14495TIP3   OH243441   3.435   1.268   0.864
14495TIP3    H143442   3.509   1.309   0.819
14495TIP3    H243443   3.463   1.177   0.876
14496TIP3   OH243444   0.413   5.242   1.922
14496TIP3    H143445   0.470   5.308   1.962
14496TIP3    H243446   0.329   5.254   1.965
14497TIP3   OH243447   1.834   3.600   4.762
14497TIP3    H143448   1.757   3.581   4.709
14497TIP3    H243449   1.808   3.577   4.852
14498TIP3   OH243450   6.780   0.786   1.816
14498TIP3    H143451   6.751   0.695   1.820
14498TIP3    H243452   6.832   0.798   1.896
14499TIP3   OH243453   2.301   0.927   2.462
14499TIP3    H143454   2.327   0.835   2.461
14499TIP3    H243455   2.363   0.971   2.403
14500TIP3   OH243456   1.343   6.952   0.093
14500TIP3    H143457   1.296   7.036   0.094
14500TIP3    H243458   1.382   6.947   0.006
14501TIP3   OH243459   5.975   2.353   5.329
14501TIP3    H143460   5.961   2.344   5.235
14501TIP3    H243461   5.905   2.411   5.358
14502TIP3   OH243462   0.441   7.375   2.385
14502TIP3    H143463   0.450   7.287   2.422
14502TIP3    H243464   0.350   7.381   2.358
14503TIP3   OH243465   6.356   1.767   4.200
14503TIP3    H143466   6.416   1.704   4.239
14503TIP3    H243467   6.412   1.824   4.147
14504TIP3   OH243468   7.364   3.621   2.109
14504TIP3    H143469   7.322   3.662   2.184
14504TIP3    H243470   7.373   3.529   2.134
14505TIP3   OH243471   4.653   3.020   5.410
14505TIP3    H143472   4.667   3.089   5.475
14505TIP3    H243473   4.738   3.010   5.367
14506TIP3   OH243474   6.324   1.815   6.364
14506TIP3    H143475   6.369   1.880   6.309
14506TIP3    H243476   6.297   1.747   6.302
14507TIP3   OH243477   0.394   2.370   6.482
14507TIP3    H143478   0.454   2.309   6.441
14507TIP3    H243479   0.424   2.377   6.573
14508TIP3   OH243480   2.187   0.621   4.501
14508TIP3    H143481   2.146   0.558   4.560
14508TIP3    H243482   2.252   0.667   4.556
14509TIP3   OH243483   7.397   5.339   5.419
14509TIP3    H143484   7.361   5.422   5.451
14509TIP3    H243485   7.486   5.362   5.390
14510TIP3   OH243486   7.636   7.416   0.292
14510TIP3    H143487   7.687   7.496   0.282
14510TIP3    H243488   7.692   7.359   0.345
14511TIP3   OH243489   3.392   3.642   3.878
14511TIP3    H143490   3.409   3.684   3.793
14511TIP3    H243491   3.477   3.606   3.904
14512TIP3   OH243492   3.476   2.416   1.149
14512TIP3    H143493   3.510   2.332   1.179
14512TIP3    H243494   3.389   2.395   1.114
14513TIP3   OH243495   1.626   5.542   3.060
14513TIP3    H143496   1.634   5.447   3.055
14513TIP3    H243497   1.554   5.557   3.121
14514TIP3   OH243498   3.362   6.147   1.451
14514TIP3    H143499   3.341   6.108   1.536
14514TIP3    H243500   3.452   6.118   1.432
14515TIP3   OH243501   7.286   0.216   3.320
14515TIP3    H143502   7.321   0.182   3.238
14515TIP3    H243503   7.192   0.197   3.316
14516TIP3   OH243504   4.125   5.531   4.539
14516TIP3    H143505   4.050   5.589   4.551
14516TIP3    H243506   4.173   5.569   4.465
14517TIP3   OH243507   1.692   7.263   3.144
14517TIP3    H143508   1.719   7.354   3.132
14517TIP3    H243509   1.614   7.269   3.200
14518TIP3   OH243510   7.135   0.557   0.347
14518TIP3    H143511   7.131   0.624   0.278
14518TIP3    H243512   7.212   0.581   0.399
14519TIP3   OH243513   4.446   4.384   1.187
14519TIP3    H143514   4.464   4.290   1.179
14519TIP3    H243515   4.466   4.420   1.101
14520TIP3   OH243516   1.925   0.668   5.829
14520TIP3    H143517   1.912   0.573   5.832
14520TIP3    H243518   1.890   0.694   5.743
14521TIP3   OH243519   7.785   2.811   3.677
14521TIP3    H143520   7.703   2.837   3.719
14521TIP3    H243521   7.783   2.855   3.591
14522TIP3   OH243522   2.744   3.423   6.556
14522TIP3    H143523   2.651   3.423   6.534
14522TIP3    H243524   2.788   3.399   6.475
14523TIP3   OH243525   0.426   3.060   4.580
14523TIP3    H143526   0.476   3.049   4.499
14523TIP3    H243527   0.347   3.007   4.567
14524TIP3   OH243528   8.235   7.664   5.666
14524TIP3    H143529   8.234   7.755   5.694
14524TIP3    H243530   8.285   7.618   5.734
14525TIP3   OH243531   0.228   6.112   2.098
14525TIP3    H143532   0.215   6.018   2.109
14525TIP3    H243533   0.294   6.120   2.030
14526TIP3   OH243534   4.299   3.411   5.184
14526TIP3    H143535   4.313   3.487   5.127
14526TIP3    H243536   4.325   3.336   5.130
14527TIP3   OH243537   3.841   5.194   1.704
14527TIP3    H143538   3.916   5.164   1.652
14527TIP3    H243539   3.815   5.276   1.663
14528TIP3   OH243540   6.663   6.169   2.110
14528TIP3    H143541   6.688   6.077   2.114
14528TIP3    H243542   6.621   6.186   2.194
14529TIP3   OH243543   2.983   4.562   6.192
14529TIP3    H143544   2.900   4.589   6.153
14529TIP3    H243545   2.981   4.466   6.191
14530TIP3   OH243546   6.865   5.463   6.673
14530TIP3    H143547   6.893   5.493   6.586
14530TIP3    H243548   6.773   5.489   6.680
14531TIP3   OH243549   0.729   6.383   2.120
14531TIP3    H143550   0.721   6.287   2.113
14531TIP3    H243551   0.746   6.412   2.030
14532TIP3   OH243552   0.658   2.586   0.084
14532TIP3    H143553   0.727   2.650   0.102
14532TIP3    H243554   0.697   2.502   0.109
14533TIP3   OH243555   0.093   3.532   6.643
14533TIP3    H143556   0.054   3.568   6.723
14533TIP3    H243557   0.038   3.457   6.621
14534TIP3   OH243558   3.580   3.371   5.051
14534TIP3    H143559   3.629   3.372   4.969
14534TIP3    H243560   3.644   3.339   5.116
14535TIP3   OH243561   3.123   7.799   0.946
14535TIP3    H143562   3.125   7.723   1.004
14535TIP3    H243563   3.080   7.867   0.996
14536TIP3   OH243564   1.097   2.426   3.595
14536TIP3    H143565   1.164   2.424   3.526
14536TIP3    H243566   1.015   2.441   3.549
14537TIP3   OH243567   4.260   6.530   2.983
14537TIP3    H143568   4.291   6.601   2.926
14537TIP3    H243569   4.335   6.510   3.039
14538TIP3   OH243570   7.645   2.693   1.848
14538TIP3    H143571   7.728   2.720   1.887
14538TIP3    H243572   7.588   2.769   1.858
14539TIP3   OH243573   4.864   1.363   1.900
14539TIP3    H143574   4.913   1.443   1.918
14539TIP3    H243575   4.774   1.383   1.928
14540TIP3   OH243576   4.868   6.753   0.239
14540TIP3    H143577   4.783   6.748   0.284
14540TIP3    H243578   4.857   6.823   0.175
14541TIP3   OH243579   5.685   1.823   6.359
14541TIP3    H143580   5.632   1.894   6.395
14541TIP3    H243581   5.624   1.749   6.352
14542TIP3   OH243582   0.157   0.171   1.073
14542TIP3    H143583   0.075   0.139   1.037
14542TIP3    H243584   0.213   0.093   1.077
14543TIP3   OH243585   1.221   7.449   6.673
14543TIP3    H143586   1.157   7.396   6.624
14543TIP3    H243587   1.288   7.386   6.700
14544TIP3   OH243588   5.074   7.024   1.363
14544TIP3    H143589   5.036   7.089   1.422
14544TIP3    H243590   5.071   6.942   1.413
14545TIP3   OH243591   1.789   5.631   5.222
14545TIP3    H143592   1.706   5.673   5.245
14545TIP3    H243593   1.838   5.629   5.305
14546TIP3   OH243594   1.093   4.203   3.216
14546TIP3    H143595   1.104   4.191   3.310
14546TIP3    H243596   1.166   4.155   3.176
14547TIP3   OH243597   2.845   3.528   4.003
14547TIP3    H143598   2.807   3.587   4.068
14547TIP3    H243599   2.939   3.544   4.007
14548TIP3   OH243600   6.079   4.086   2.859
14548TIP3    H143601   6.076   4.133   2.776
14548TIP3    H243602   6.022   4.137   2.917
14549TIP3   OH243603   1.856   5.231   3.940
14549TIP3    H143604   1.771   5.245   3.981
14549TIP3    H243605   1.909   5.306   3.969
14550TIP3   OH243606   5.562   1.452   2.223
14550TIP3    H143607   5.583   1.425   2.133
14550TIP3    H243608   5.529   1.541   2.213
14551TIP3   OH243609   2.083   1.986   3.297
14551TIP3    H143610   2.091   2.063   3.354
14551TIP3    H243611   2.154   1.996   3.234
14552TIP3   OH243612   3.937   3.887   5.401
14552TIP3    H143613   3.996   3.950   5.443
14552TIP3    H243614   3.877   3.861   5.471
14553TIP3   OH243615   1.727   4.964   0.031
14553TIP3    H143616   1.667   4.979   0.103
14553TIP3    H243617   1.695   5.021  -0.040
14554TIP3   OH243618   0.796   1.336   1.048
14554TIP3    H143619   0.825   1.359   0.959
14554TIP3    H243620   0.815   1.242   1.055
14555TIP3   OH243621   5.435   4.815   4.124
14555TIP3    H143622   5.499   4.800   4.194
14555TIP3    H243623   5.486   4.806   4.043
14556TIP3   OH243624   7.210   1.630   2.595
14556TIP3    H143625   7.282   1.608   2.536
14556TIP3    H243626   7.239   1.599   2.681
14557TIP3   OH243627   3.405   6.889   0.119
14557TIP3    H143628   3.380   6.971   0.075
14557TIP3    H243629   3.362   6.895   0.205
14558TIP3   OH243630   6.083   5.413   4.544
14558TIP3    H143631   6.057   5.400   4.635
14558TIP3    H243632   6.030   5.352   4.494
14559TIP3   OH243633   0.696   5.940   6.562
14559TIP3    H143634   0.764   5.967   6.500
14559TIP3    H243635   0.714   5.848   6.579
14560TIP3   OH243636   4.384   6.318   2.101
14560TIP3    H143637   4.447   6.387   2.123
14560TIP3    H243638   4.333   6.354   2.029
14561TIP3   OH243639   2.592   5.577   0.179
14561TIP3    H143640   2.508   5.566   0.133
14561TIP3    H243641   2.626   5.660   0.146
14562TIP3   OH243642   8.240   4.981   1.668
14562TIP3    H143643   8.238   4.896   1.623
14562TIP3    H243644   8.333   5.004   1.671
14563TIP3   OH243645   8.146   6.598   2.200
14563TIP3    H143646   8.210   6.556   2.142
14563TIP3    H243647   8.190   6.602   2.285
14564TIP3   OH243648   4.258   7.376   4.867
14564TIP3    H143649   4.343   7.353   4.905
14564TIP3    H243650   4.279   7.440   4.800
14565TIP3   OH243651   0.195   2.862   1.761
14565TIP3    H143652   0.145   2.823   1.690
14565TIP3    H243653   0.200   2.955   1.738
14566TIP3   OH243654   6.895   3.174   2.586
14566TIP3    H143655   6.945   3.256   2.583
14566TIP3    H243656   6.938   3.122   2.654
14567TIP3   OH243657   3.180   6.566   4.254
14567TIP3    H143658   3.208   6.642   4.306
14567TIP3    H243659   3.157   6.602   4.169
14568TIP3   OH243660   1.830   2.521   0.844
14568TIP3    H143661   1.794   2.462   0.778
14568TIP3    H243662   1.907   2.559   0.802
14569TIP3   OH243663   0.790   5.855   6.225
14569TIP3    H143664   0.698   5.854   6.251
14569TIP3    H243665   0.788   5.874   6.131
14570TIP3   OH243666   4.971   3.210   0.560
14570TIP3    H143667   4.959   3.225   0.654
14570TIP3    H243668   5.032   3.279   0.534
14571TIP3   OH243669   4.450   2.247   0.984
14571TIP3    H143670   4.501   2.248   1.065
14571TIP3    H243671   4.515   2.233   0.915
14572TIP3   OH243672   8.198   6.800   6.436
14572TIP3    H143673   8.109   6.817   6.470
14572TIP3    H243674   8.252   6.868   6.477
14573TIP3   OH243675   1.235   6.213   1.312
14573TIP3    H143676   1.251   6.121   1.333
14573TIP3    H243677   1.187   6.211   1.229
14574TIP3   OH243678   6.503   4.281   1.109
14574TIP3    H143679   6.489   4.245   1.196
14574TIP3    H243680   6.573   4.345   1.120
14575TIP3   OH243681   7.487   2.966   2.260
14575TIP3    H143682   7.427   2.909   2.309
14575TIP3    H243683   7.519   2.912   2.188
14576TIP3   OH243684   1.602   2.666   4.227
14576TIP3    H143685   1.637   2.738   4.280
14576TIP3    H243686   1.653   2.669   4.146
14577TIP3   OH243687   2.834   7.405   1.408
14577TIP3    H143688   2.754   7.429   1.455
14577TIP3    H243689   2.886   7.357   1.473
14578TIP3   OH243690   2.496   7.229   1.595
14578TIP3    H143691   2.516   7.219   1.502
14578TIP3    H243692   2.440   7.154   1.616
14579TIP3   OH243693   4.661   0.053   2.660
14579TIP3    H143694   4.662  -0.023   2.601
14579TIP3    H243695   4.713   0.025   2.735
14580TIP3   OH243696   0.587   3.485   1.472
14580TIP3    H143697   0.671   3.467   1.515
14580TIP3    H243698   0.597   3.574   1.436
14581TIP3   OH243699   4.486   5.626   6.119
14581TIP3    H143700   4.557   5.678   6.081
14581TIP3    H243701   4.462   5.673   6.198
14582TIP3   OH243702   0.190   7.332   5.691
14582TIP3    H143703   0.243   7.360   5.765
14582TIP3    H243704   0.251   7.329   5.617
14583TIP3   OH243705   6.417   6.745   3.238
14583TIP3    H143706   6.340   6.800   3.220
14583TIP3    H243707   6.430   6.696   3.157
14584TIP3   OH243708   4.497   5.949   2.566
14584TIP3    H143709   4.409   5.914   2.583
14584TIP3    H243710   4.535   5.960   2.653
14585TIP3   OH243711   5.793   6.175   0.375
14585TIP3    H143712   5.834   6.157   0.459
14585TIP3    H243713   5.701   6.151   0.387
14586TIP3   OH243714   6.290   4.883   0.097
14586TIP3    H143715   6.339   4.818   0.147
14586TIP3    H243716   6.258   4.945   0.162
14587TIP3   OH243717   4.836   7.533   1.557
14587TIP3    H143718   4.753   7.562   1.519
14587TIP3    H243719   4.819   7.529   1.651
14588TIP3   OH243720   0.435   5.760   3.810
14588TIP3    H143721   0.439   5.804   3.895
14588TIP3    H243722   0.345   5.728   3.804
14589TIP3   OH243723   5.319   6.439   5.513
14589TIP3    H143724   5.294   6.524   5.476
14589TIP3    H243725   5.390   6.459   5.574
14590TIP3   OH243726   4.447   7.168   4.234
14590TIP3    H143727   4.421   7.258   4.214
14590TIP3    H243728   4.368   7.128   4.271
14591TIP3   OH243729   3.238   5.074   1.353
14591TIP3    H143730   3.211   5.146   1.296
14591TIP3    H243731   3.198   5.095   1.438
14592TIP3   OH243732   3.344   0.909   0.837
14592TIP3    H143733   3.309   0.998   0.837
14592TIP3    H243734   3.438   0.920   0.824
14593TIP3   OH243735   6.478   3.215   0.595
14593TIP3    H143736   6.452   3.222   0.686
14593TIP3    H243737   6.464   3.123   0.573
14594TIP3   OH243738   0.420   4.720   0.799
14594TIP3    H143739   0.356   4.755   0.737
14594TIP3    H243740   0.375   4.646   0.840
14595TIP3   OH243741   7.442   5.624   5.382
14595TIP3    H143742   7.531   5.590   5.375
14595TIP3    H243743   7.426   5.667   5.298
14596TIP3   OH243744   2.724   0.396   0.071
14596TIP3    H143745   2.730   0.455  -0.004
14596TIP3    H243746   2.815   0.383   0.098
14597TIP3   OH243747   6.968   6.017   4.795
14597TIP3    H143748   6.888   6.020   4.848
14597TIP3    H243749   6.948   6.069   4.718
14598TIP3   OH243750   2.635   4.565   6.198
14598TIP3    H143751   2.656   4.658   6.194
14598TIP3    H243752   2.557   4.561   6.253
14599TIP3   OH243753   1.396   5.627   0.058
14599TIP3    H143754   1.388   5.546   0.108
14599TIP3    H243755   1.305   5.652   0.038
14600TIP3   OH243756   6.906   4.297   2.259
14600TIP3    H143757   6.834   4.310   2.320
14600TIP3    H243758   6.942   4.211   2.282
14601TIP3   OH243759   4.712   1.907   6.235
14601TIP3    H143760   4.636   1.952   6.274
14601TIP3    H243761   4.760   1.872   6.310
14602TIP3   OH243762   6.955   0.754   6.295
14602TIP3    H143763   6.956   0.709   6.210
14602TIP3    H243764   6.946   0.846   6.273
14603TIP3   OH243765   7.519   2.055   4.926
14603TIP3    H143766   7.442   2.048   4.983
14603TIP3    H243767   7.505   2.136   4.876
14604TIP3   OH243768   5.272   7.540   5.835
14604TIP3    H143769   5.240   7.567   5.921
14604TIP3    H243770   5.338   7.605   5.812
14605TIP3   OH243771   1.329   5.060   4.709
14605TIP3    H143772   1.420   5.045   4.684
14605TIP3    H243773   1.287   5.094   4.629
14606TIP3   OH243774   1.252   3.641   1.267
14606TIP3    H143775   1.319   3.591   1.315
14606TIP3    H243776   1.203   3.687   1.336
14607TIP3   OH243777   5.497   5.313   4.874
14607TIP3    H143778   5.536   5.311   4.961
14607TIP3    H243779   5.402   5.317   4.890
14608TIP3   OH243780   7.441   6.964   1.400
14608TIP3    H143781   7.461   7.050   1.438
14608TIP3    H243782   7.450   6.903   1.473
14609TIP3   OH243783   7.425   6.546   1.619
14609TIP3    H143784   7.408   6.489   1.694
14609TIP3    H243785   7.520   6.561   1.622
14610TIP3   OH243786   7.455   3.811   2.607
14610TIP3    H143787   7.435   3.903   2.625
14610TIP3    H243788   7.519   3.814   2.535
14611TIP3   OH243789   6.892   7.690   1.456
14611TIP3    H143790   6.956   7.728   1.396
14611TIP3    H243791   6.884   7.755   1.526
14612TIP3   OH243792   7.132   6.909   6.582
14612TIP3    H143793   7.053   6.893   6.633
14612TIP3    H243794   7.202   6.913   6.647
14613TIP3   OH243795   0.260   5.423   2.143
14613TIP3    H143796   0.224   5.458   2.061
14613TIP3    H243797   0.221   5.478   2.211
14614TIP3   OH243798   3.024   6.848   2.844
14614TIP3    H143799   3.012   6.940   2.867
14614TIP3    H243800   2.975   6.800   2.910
14615TIP3   OH243801   6.555   4.445   5.523
14615TIP3    H143802   6.523   4.534   5.504
14615TIP3    H243803   6.609   4.455   5.601
14616TIP3   OH243804   5.530   5.127   3.957
14616TIP3    H143805   5.554   5.220   3.959
14616TIP3    H243806   5.611   5.081   3.980
14617TIP3   OH243807   2.110   2.671   0.097
14617TIP3    H143808   2.039   2.627   0.051
14617TIP3    H243809   2.182   2.607   0.097
14618TIP3   OH243810   3.173   3.024   6.503
14618TIP3    H143811   3.192   3.042   6.595
14618TIP3    H243812   3.258   3.027   6.460
14619TIP3   OH243813   4.597   5.588   0.654
14619TIP3    H143814   4.563   5.647   0.587
14619TIP3    H243815   4.523   5.570   0.711
14620TIP3   OH243816   5.492   3.347   2.783
14620TIP3    H143817   5.478   3.419   2.845
14620TIP3    H243818   5.518   3.273   2.839
14621TIP3   OH243819   0.750   7.711   4.158
14621TIP3    H143820   0.802   7.762   4.097
14621TIP3    H243821   0.664   7.702   4.116
14622TIP3   OH243822   6.019   6.721   3.358
14622TIP3    H143823   5.977   6.712   3.444
14622TIP3    H243824   6.082   6.792   3.370
14623TIP3   OH243825   7.116   6.321   2.784
14623TIP3    H143826   7.199   6.337   2.740
14623TIP3    H243827   7.122   6.231   2.816
14624TIP3   OH243828   2.199   7.107   4.413
14624TIP3    H143829   2.267   7.106   4.480
14624TIP3    H243830   2.139   7.176   4.441
14625TIP3   OH243831   5.920   4.200   3.054
14625TIP3    H143832   5.895   4.292   3.041
14625TIP3    H243833   5.837   4.154   3.060
14626TIP3   OH243834   2.084   1.272   3.294
14626TIP3    H143835   2.034   1.235   3.222
14626TIP3    H243836   2.125   1.197   3.336
14627TIP3   OH243837   0.257   1.274   0.806
14627TIP3    H143838   0.169   1.308   0.822
14627TIP3    H243839   0.252   1.181   0.830
14628TIP3   OH243840   4.564   3.750   1.710
14628TIP3    H143841   4.646   3.748   1.760
14628TIP3    H243842   4.514   3.676   1.745
14629TIP3   OH243843   6.496   2.546   5.844
14629TIP3    H143844   6.540   2.575   5.924
14629TIP3    H243845   6.403   2.557   5.863
14630TIP3   OH243846   2.541   1.525   5.887
14630TIP3    H143847   2.507   1.613   5.906
14630TIP3    H243848   2.521   1.475   5.966
14631TIP3   OH243849   6.514   2.517   1.931
14631TIP3    H143850   6.579   2.455   1.898
14631TIP3    H243851   6.525   2.516   2.026
14632TIP3   OH243852   4.366   3.729   3.283
14632TIP3    H143853   4.287   3.726   3.338
14632TIP3    H243854   4.332   3.743   3.194
14633TIP3   OH243855   4.811   1.136   1.403
14633TIP3    H143856   4.824   1.182   1.486
14633TIP3    H243857   4.834   1.201   1.337
14634TIP3   OH243858   5.534   0.452   1.709
14634TIP3    H143859   5.558   0.480   1.620
14634TIP3    H243860   5.615   0.458   1.759
14635TIP3   OH243861   0.778   5.039   0.399
14635TIP3    H143862   0.815   4.951   0.399
14635TIP3    H243863   0.710   5.036   0.332
14636TIP3   OH243864   5.355   1.411   2.002
14636TIP3    H143865   5.334   1.474   2.071
14636TIP3    H243866   5.410   1.460   1.941
14637TIP3   OH243867   0.167   4.423   1.778
14637TIP3    H143868   0.112   4.486   1.824
14637TIP3    H243869   0.161   4.449   1.686
14638TIP3   OH243870   3.510   1.646   4.751
14638TIP3    H143871   3.465   1.567   4.724
14638TIP3    H243872   3.463   1.717   4.709
14639TIP3   OH243873   2.968   4.499   0.478
14639TIP3    H143874   3.043   4.455   0.439
14639TIP3    H243875   2.977   4.590   0.450
14640TIP3   OH243876   2.040   5.460   2.543
14640TIP3    H143877   1.998   5.445   2.628
14640TIP3    H243878   2.024   5.379   2.494
14641TIP3   OH243879   1.048   5.948   5.977
14641TIP3    H143880   1.111   5.950   5.905
14641TIP3    H243881   1.102   5.952   6.056
14642TIP3   OH243882   2.077   7.110   3.189
14642TIP3    H143883   2.120   7.057   3.256
14642TIP3    H243884   2.036   7.182   3.237
14643TIP3   OH243885   2.358   0.552   3.739
14643TIP3    H143886   2.304   0.508   3.804
14643TIP3    H243887   2.414   0.610   3.791
14644TIP3   OH243888   4.975   2.657   1.358
14644TIP3    H143889   4.909   2.653   1.289
14644TIP3    H243890   5.036   2.586   1.337
14645TIP3   OH243891   6.783   4.623   6.315
14645TIP3    H143892   6.755   4.556   6.253
14645TIP3    H243893   6.812   4.696   6.261
14646TIP3   OH243894   4.297   2.691   1.553
14646TIP3    H143895   4.375   2.746   1.564
14646TIP3    H243896   4.229   2.736   1.604
14647TIP3   OH243897   4.558   2.473   5.295
14647TIP3    H143898   4.467   2.458   5.318
14647TIP3    H243899   4.555   2.521   5.213
14648TIP3   OH243900   2.881   7.657   2.774
14648TIP3    H143901   2.886   7.571   2.731
14648TIP3    H243902   2.925   7.716   2.713
14649TIP3   OH243903   7.534   0.731   4.835
14649TIP3    H143904   7.507   0.724   4.743
14649TIP3    H243905   7.476   0.671   4.882
14650TIP3   OH243906   7.007   4.157   3.080
14650TIP3    H143907   7.001   4.232   3.021
14650TIP3    H243908   7.035   4.085   3.023
14651TIP3   OH243909   1.338   7.445   1.768
14651TIP3    H143910   1.267   7.390   1.736
14651TIP3    H243911   1.305   7.482   1.850
14652TIP3   OH243912   3.095   2.388   2.443
14652TIP3    H143913   3.158   2.323   2.413
14652TIP3    H243914   3.042   2.408   2.365
14653TIP3   OH243915   3.053   3.307   3.917
14653TIP3    H143916   3.047   3.250   3.993
14653TIP3    H243917   3.061   3.395   3.954
14654TIP3   OH243918   7.367   2.386   1.577
14654TIP3    H143919   7.391   2.476   1.558
14654TIP3    H243920   7.446   2.335   1.556
14655TIP3   OH243921   5.399   4.733   1.158
14655TIP3    H143922   5.365   4.648   1.130
14655TIP3    H243923   5.360   4.796   1.097
14656TIP3   OH243924   5.690   4.774   4.282
14656TIP3    H143925   5.728   4.861   4.299
14656TIP3    H243926   5.724   4.719   4.353
14657TIP3   OH243927   5.001   2.595   4.219
14657TIP3    H143928   5.078   2.597   4.162
14657TIP3    H243929   4.989   2.685   4.246
14658TIP3   OH243930   3.286   3.445   0.889
14658TIP3    H143931   3.297   3.352   0.872
14658TIP3    H243932   3.372   3.483   0.869
14659TIP3   OH243933   2.143   5.362   1.970
14659TIP3    H143934   2.071   5.425   1.977
14659TIP3    H243935   2.101   5.277   1.961
14660TIP3   OH243936   7.139   6.013   5.002
14660TIP3    H143937   7.082   6.029   4.926
14660TIP3    H243938   7.122   5.922   5.026
14661TIP3   OH243939   4.790   1.837   1.993
14661TIP3    H143940   4.761   1.782   1.921
14661TIP3    H243941   4.753   1.923   1.975
14662TIP3   OH243942   5.758   7.579   1.160
14662TIP3    H143943   5.817   7.645   1.197
14662TIP3    H243944   5.693   7.630   1.111
14663TIP3   OH243945   3.354   3.321   5.177
14663TIP3    H143946   3.427   3.354   5.124
14663TIP3    H243947   3.385   3.331   5.268
14664TIP3   OH243948   1.523   3.723   3.609
14664TIP3    H143949   1.468   3.787   3.564
14664TIP3    H243950   1.462   3.658   3.644
14665TIP3   OH243951   2.511   2.117   5.669
14665TIP3    H143952   2.477   2.199   5.706
14665TIP3    H243953   2.561   2.078   5.740
14666TIP3   OH243954   8.020   6.518   1.664
14666TIP3    H143955   8.017   6.567   1.746
14666TIP3    H243956   7.955   6.448   1.675
14667TIP3   OH243957   4.128   5.854   6.507
14667TIP3    H143958   4.155   5.772   6.466
14667TIP3    H243959   4.045   5.833   6.550
14668TIP3   OH243960   2.619   4.176   0.323
14668TIP3    H143961   2.559   4.153   0.394
14668TIP3    H243962   2.672   4.098   0.310
14669TIP3   OH243963   5.501   4.381   4.334
14669TIP3    H143964   5.434   4.329   4.378
14669TIP3    H243965   5.476   4.472   4.349
14670TIP3   OH243966   1.168   7.415   0.652
14670TIP3    H143967   1.129   7.496   0.685
14670TIP3    H243968   1.167   7.424   0.557
14671TIP3   OH243969   0.000   5.839   5.015
14671TIP3    H143970   0.021   5.920   4.970
14671TIP3    H243971   0.053   5.841   5.095
14672TIP3   OH243972   5.067   5.096   2.160
14672TIP3    H143973   5.135   5.053   2.107
14672TIP3    H243974   4.991   5.040   2.152
14673TIP3   OH243975   2.646   2.825   1.814
14673TIP3    H143976   2.651   2.753   1.877
14673TIP3    H243977   2.642   2.904   1.869
14674TIP3   OH243978   7.535   1.617   6.320
14674TIP3    H143979   7.545   1.697   6.372
14674TIP3    H243980   7.473   1.640   6.252
14675TIP3   OH243981   4.214   6.557   6.701
14675TIP3    H143982   4.270   6.619   6.655
14675TIP3    H243983   4.184   6.497   6.632
14676TIP3   OH243984   4.563   4.311   4.521
14676TIP3    H143985   4.637   4.250   4.513
14676TIP3    H243986   4.601   4.397   4.501
14677TIP3   OH243987   7.943   6.888   3.560
14677TIP3    H143988   7.935   6.799   3.528
14677TIP3    H243989   7.952   6.878   3.655
14678TIP3   OH243990   2.390   2.731   3.337
14678TIP3    H143991   2.398   2.753   3.244
14678TIP3    H243992   2.444   2.652   3.347
14679TIP3   OH243993   1.371   3.191   1.107
14679TIP3    H143994   1.423   3.112   1.119
14679TIP3    H243995   1.340   3.187   1.017
14680TIP3   OH243996   7.359   1.498   0.337
14680TIP3    H143997   7.444   1.455   0.354
14680TIP3    H243998   7.315   1.498   0.422
14681TIP3   OH243999   3.629   3.614   4.176
14681TIP3    H144000   3.685   3.558   4.229
14681TIP3    H244001   3.604   3.559   4.102
14682TIP3   OH244002   4.159   6.156   2.751
14682TIP3    H144003   4.100   6.186   2.682
14682TIP3    H244004   4.142   6.215   2.824
14683TIP3   OH244005   7.105   7.759   4.667
14683TIP3    H144006   7.103   7.779   4.573
14683TIP3    H244007   7.070   7.837   4.709
14684TIP3   OH244008   5.948   5.115   2.903
14684TIP3    H144009   5.980   5.205   2.910
14684TIP3    H244010   5.859   5.118   2.938
14685TIP3   OH244011   2.891   5.538   3.332
14685TIP3    H144012   2.797   5.524   3.329
14685TIP3    H244013   2.914   5.531   3.425
14686TIP3   OH244014   2.022   3.817   1.197
14686TIP3    H144015   2.098   3.827   1.254
14686TIP3    H244016   2.035   3.732   1.155
14687TIP3   OH244017   2.805   5.091   5.098
14687TIP3    H144018   2.751   5.170   5.096
14687TIP3    H244019   2.828   5.074   5.007
14688TIP3   OH244020   4.745   4.539   4.480
14688TIP3    H144021   4.754   4.519   4.388
14688TIP3    H244022   4.818   4.494   4.523
14689TIP3   OH244023   0.713   1.637   5.901
14689TIP3    H144024   0.659   1.651   5.979
14689TIP3    H244025   0.682   1.702   5.838
14690TIP3   OH244026   4.065   2.747   3.074
14690TIP3    H144027   4.039   2.807   3.003
14690TIP3    H244028   4.160   2.751   3.075
14691TIP3   OH244029   2.598   5.121   0.922
14691TIP3    H144030   2.650   5.045   0.947
14691TIP3    H244031   2.509   5.100   0.951
14692TIP3   OH244032   3.904   6.412   3.843
14692TIP3    H144033   3.989   6.388   3.804
14692TIP3    H244034   3.840   6.365   3.789
14693TIP3   OH244035   3.988   1.827   5.392
14693TIP3    H144036   3.979   1.873   5.476
14693TIP3    H244037   3.970   1.735   5.413
14694TIP3   OH244038   5.583   2.458   2.595
14694TIP3    H144039   5.545   2.496   2.516
14694TIP3    H244040   5.517   2.397   2.628
14695TIP3   OH244041   5.434   6.100   0.126
14695TIP3    H144042   5.512   6.111   0.072
14695TIP3    H244043   5.387   6.184   0.117
14696TIP3   OH244044   8.200   0.590   2.204
14696TIP3    H144045   8.130   0.610   2.266
14696TIP3    H244046   8.158   0.535   2.137
14697TIP3   OH244047   4.896   3.462   0.246
14697TIP3    H144048   4.932   3.496   0.164
14697TIP3    H244049   4.918   3.369   0.246
14698TIP3   OH244050   1.403   6.180   6.687
14698TIP3    H144051   1.318   6.224   6.677
14698TIP3    H244052   1.451   6.202   6.607
14699TIP3   OH244053   6.688   0.203   4.003
14699TIP3    H144054   6.666   0.296   4.001
14699TIP3    H244055   6.623   0.164   4.061
14700TIP3   OH244056   7.837   2.134   5.449
14700TIP3    H144057   7.915   2.119   5.396
14700TIP3    H244058   7.820   2.049   5.491
14701TIP3   OH244059   4.723   1.500   4.840
14701TIP3    H144060   4.716   1.538   4.928
14701TIP3    H244061   4.633   1.501   4.807
14702TIP3   OH244062   1.061   6.883   2.357
14702TIP3    H144063   1.043   6.903   2.449
14702TIP3    H244064   1.048   6.789   2.350
14703TIP3   OH244065   5.466   1.218   5.176
14703TIP3    H144066   5.490   1.130   5.148
14703TIP3    H244067   5.504   1.276   5.109
14704TIP3   OH244068   2.980   2.766   3.507
14704TIP3    H144069   2.998   2.833   3.442
14704TIP3    H244070   3.063   2.720   3.518
14705TIP3   OH244071   6.116   3.801   4.097
14705TIP3    H144072   6.112   3.764   4.009
14705TIP3    H244073   6.039   3.858   4.102
14706TIP3   OH244074   8.191   7.504   0.897
14706TIP3    H144075   8.144   7.471   0.821
14706TIP3    H244076   8.198   7.429   0.956
14707TIP3   OH244077   5.519   7.145   3.753
14707TIP3    H144078   5.546   7.158   3.844
14707TIP3    H244079   5.562   7.216   3.705
14708TIP3   OH244080   7.844   1.943   1.769
14708TIP3    H144081   7.881   1.920   1.855
14708TIP3    H244082   7.914   1.990   1.724
14709TIP3   OH244083   2.817   6.986   3.340
14709TIP3    H144084   2.831   7.065   3.288
14709TIP3    H244085   2.725   6.964   3.326
14710TIP3   OH244086   5.235   7.770   5.170
14710TIP3    H144087   5.231   7.801   5.080
14710TIP3    H244088   5.246   7.849   5.223
14711TIP3   OH244089   4.285   5.852   2.729
14711TIP3    H144090   4.235   5.933   2.728
14711TIP3    H244091   4.296   5.832   2.822
14712TIP3   OH244092   5.296   1.310   2.865
14712TIP3    H144093   5.239   1.234   2.876
14712TIP3    H244094   5.258   1.378   2.920
14713TIP3   OH244095   0.598   6.309   3.730
14713TIP3    H144096   0.647   6.308   3.813
14713TIP3    H244097   0.658   6.269   3.667
14714TIP3   OH244098   5.207   5.406   5.711
14714TIP3    H144099   5.149   5.345   5.666
14714TIP3    H244100   5.166   5.419   5.797
14715TIP3   OH244101   4.466   4.033   4.145
14715TIP3    H144102   4.376   4.038   4.113
14715TIP3    H244103   4.512   4.105   4.102
14716TIP3   OH244104   0.287   2.062   1.615
14716TIP3    H144105   0.274   1.967   1.610
14716TIP3    H244106   0.229   2.098   1.549
14717TIP3   OH244107   1.587   7.201   4.606
14717TIP3    H144108   1.673   7.162   4.621
14717TIP3    H244109   1.569   7.185   4.513
14718TIP3   OH244110   0.923   4.374   5.471
14718TIP3    H144111   0.958   4.452   5.514
14718TIP3    H244112   0.922   4.397   5.378
14719TIP3   OH244113   2.503   3.177   5.115
14719TIP3    H144114   2.525   3.257   5.067
14719TIP3    H244115   2.448   3.207   5.187
14720TIP3   OH244116   4.150   6.059   4.232
14720TIP3    H144117   4.189   6.076   4.147
14720TIP3    H244118   4.106   5.974   4.222
14721TIP3   OH244119   7.381   4.974   1.493
14721TIP3    H144120   7.409   4.883   1.484
14721TIP3    H244121   7.355   4.983   1.584
14722TIP3   OH244122   3.596   2.539   1.778
14722TIP3    H144123   3.600   2.462   1.834
14722TIP3    H244124   3.511   2.533   1.734
14723TIP3   OH244125   6.787   3.920   1.053
14723TIP3    H144126   6.698   3.938   1.085
14723TIP3    H244127   6.838   3.996   1.081
14724TIP3   OH244128   1.813   3.420   0.282
14724TIP3    H144129   1.773   3.459   0.360
14724TIP3    H244130   1.900   3.394   0.311
14725TIP3   OH244131   6.874   7.110   0.692
14725TIP3    H144132   6.785   7.110   0.726
14725TIP3    H244133   6.929   7.131   0.768
14726TIP3   OH244134   1.316   1.586   5.681
14726TIP3    H144135   1.310   1.596   5.776
14726TIP3    H244136   1.394   1.637   5.657
14727TIP3   OH244137   4.700   1.772   4.720
14727TIP3    H144138   4.729   1.833   4.788
14727TIP3    H244139   4.713   1.685   4.759
14728TIP3   OH244140   6.993   2.872   5.938
14728TIP3    H144141   7.051   2.946   5.955
14728TIP3    H244142   7.021   2.805   6.000
14729TIP3   OH244143   4.700   3.936   3.079
14729TIP3    H144144   4.762   3.890   3.136
14729TIP3    H244145   4.750   4.009   3.043
14730TIP3   OH244146   1.783   0.767   3.668
14730TIP3    H144147   1.760   0.810   3.750
14730TIP3    H244148   1.751   0.677   3.679
14731TIP3   OH244149   5.205   4.137   5.231
14731TIP3    H144150   5.116   4.112   5.208
14731TIP3    H244151   5.249   4.151   5.147
14732TIP3   OH244152   7.460   7.324   4.232
14732TIP3    H144153   7.547   7.364   4.233
14732TIP3    H244154   7.409   7.380   4.173
14733TIP3   OH244155   3.707   1.488   1.948
14733TIP3    H144156   3.648   1.491   1.872
14733TIP3    H244157   3.780   1.434   1.918
14734TIP3   OH244158   6.028   2.880   1.437
14734TIP3    H144159   6.098   2.835   1.388
14734TIP3    H244160   6.065   2.893   1.524
14735TIP3   OH244161   7.971   3.583   5.781
14735TIP3    H144162   8.017   3.619   5.857
14735TIP3    H244163   7.897   3.641   5.767
14736TIP3   OH244164   0.065   4.771   3.497
14736TIP3    H144165   0.154   4.806   3.490
14736TIP3    H244166   0.054   4.750   3.590
14737TIP3   OH244167   6.244   5.048   1.346
14737TIP3    H144168   6.150   5.039   1.365
14737TIP3    H244169   6.257   5.141   1.333
14738TIP3   OH244170   4.217   2.350   4.981
14738TIP3    H144171   4.177   2.401   4.911
14738TIP3    H244172   4.203   2.402   5.060
14739TIP3   OH244173   1.055   1.626   2.560
14739TIP3    H144174   1.127   1.644   2.621
14739TIP3    H244175   0.992   1.575   2.611
14740TIP3   OH244176   8.117   0.234   2.506
14740TIP3    H144177   8.027   0.264   2.521
14740TIP3    H244178   8.156   0.231   2.593
14741TIP3   OH244179   2.881   3.062   4.070
14741TIP3    H144180   2.819   3.124   4.107
14741TIP3    H244181   2.859   3.058   3.977
14742TIP3   OH244182   4.008   7.289   1.801
14742TIP3    H144183   3.998   7.230   1.876
14742TIP3    H244184   3.970   7.241   1.728
14743TIP3   OH244185   7.085   4.564   3.837
14743TIP3    H144186   7.133   4.645   3.819
14743TIP3    H244187   7.021   4.558   3.766
14744TIP3   OH244188   1.017   3.488   5.947
14744TIP3    H144189   0.960   3.468   5.873
14744TIP3    H244190   1.044   3.579   5.933
14745TIP3   OH244191   2.664   1.082   3.293
14745TIP3    H144192   2.642   1.116   3.380
14745TIP3    H244193   2.581   1.049   3.258
14746TIP3   OH244194   0.541   5.975   1.415
14746TIP3    H144195   0.514   5.890   1.450
14746TIP3    H244196   0.466   6.005   1.364
14747TIP3   OH244197   4.075   4.964   6.509
14747TIP3    H144198   4.151   5.019   6.490
14747TIP3    H244199   4.110   4.875   6.511
14748TIP3   OH244200   3.304   3.655   1.384
14748TIP3    H144201   3.304   3.665   1.479
14748TIP3    H244202   3.365   3.583   1.367
14749TIP3   OH244203   6.058   1.679   5.134
14749TIP3    H144204   6.088   1.605   5.082
14749TIP3    H244205   6.101   1.668   5.219
14750TIP3   OH244206   1.285   2.869   4.203
14750TIP3    H144207   1.271   2.818   4.284
14750TIP3    H244208   1.211   2.846   4.147
14751TIP3   OH244209   4.141   7.131   5.749
14751TIP3    H144210   4.158   7.211   5.699
14751TIP3    H244211   4.076   7.158   5.814
14752TIP3   OH244212   0.317   0.832   1.461
14752TIP3    H144213   0.375   0.804   1.391
14752TIP3    H244214   0.234   0.788   1.443
14753TIP3   OH244215   2.166   5.135   5.726
14753TIP3    H144216   2.208   5.100   5.805
14753TIP3    H244217   2.080   5.094   5.724
14754TIP3   OH244218   5.453   2.549   3.032
14754TIP3    H144219   5.396   2.498   2.974
14754TIP3    H244220   5.542   2.521   3.009
14755TIP3   OH244221   4.086   6.475   2.271
14755TIP3    H144222   4.117   6.480   2.181
14755TIP3    H244223   4.092   6.382   2.293
14756TIP3   OH244224   6.123   7.847   3.590
14756TIP3    H144225   6.150   7.911   3.524
14756TIP3    H244226   6.169   7.767   3.567
14757TIP3   OH244227   3.837   0.161   2.971
14757TIP3    H144228   3.749   0.136   2.942
14757TIP3    H244229   3.887   0.079   2.967
14758TIP3   OH244230   6.456   7.526   2.930
14758TIP3    H144231   6.458   7.447   2.875
14758TIP3    H244232   6.517   7.507   3.001
14759TIP3   OH244233   5.307   4.820   3.287
14759TIP3    H144234   5.333   4.889   3.348
14759TIP3    H244235   5.288   4.865   3.205
14760TIP3   OH244236   0.178   5.500   5.374
14760TIP3    H144237   0.177   5.584   5.420
14760TIP3    H244238   0.270   5.473   5.376
14761TIP3   OH244239   0.461   3.268   3.813
14761TIP3    H144240   0.540   3.275   3.866
14761TIP3    H244241   0.445   3.173   3.805
14762TIP3   OH244242   1.988   4.209   3.162
14762TIP3    H144243   2.005   4.286   3.216
14762TIP3    H244244   1.937   4.243   3.088
14763TIP3   OH244245   0.065   4.415   4.271
14763TIP3    H144246   0.059   4.511   4.269
14763TIP3    H244247   0.158   4.398   4.288
14764TIP3   OH244248   6.419   2.695   2.409
14764TIP3    H144249   6.401   2.622   2.469
14764TIP3    H244250   6.470   2.757   2.461
14765TIP3   OH244251   4.376   7.787   2.898
14765TIP3    H144252   4.441   7.855   2.882
14765TIP3    H244253   4.395   7.756   2.987
14766TIP3   OH244254   4.811   0.571   0.076
14766TIP3    H144255   4.865   0.507   0.029
14766TIP3    H244256   4.739   0.590   0.015
14767TIP3   OH244257   3.994   4.874   4.358
14767TIP3    H144258   3.916   4.912   4.399
14767TIP3    H244259   3.971   4.783   4.341
14768TIP3   OH244260   7.534   5.981   3.376
14768TIP3    H144261   7.527   6.069   3.337
14768TIP3    H244262   7.566   5.997   3.465
14769TIP3   OH244263   6.068   7.071   2.628
14769TIP3    H144264   5.999   7.119   2.582
14769TIP3    H244265   6.067   6.984   2.589
14770TIP3   OH244266   1.126   1.443   6.459
14770TIP3    H144267   1.069   1.369   6.438
14770TIP3    H244268   1.118   1.502   6.384
14771TIP3   OH244269   3.123   3.931   0.842
14771TIP3    H144270   3.127   3.966   0.753
14771TIP3    H244271   3.029   3.924   0.860
14772TIP3   OH244272   7.045   3.134   0.643
14772TIP3    H144273   6.963   3.085   0.648
14772TIP3    H244274   7.030   3.210   0.699
14773TIP3   OH244275   1.770   5.986   2.326
14773TIP3    H144276   1.730   6.042   2.393
14773TIP3    H244277   1.842   6.039   2.292
14774TIP3   OH244278   4.790   5.458   4.293
14774TIP3    H144279   4.711   5.421   4.332
14774TIP3    H244280   4.759   5.527   4.235
14775TIP3   OH244281   5.377   5.622   2.665
14775TIP3    H144282   5.341   5.571   2.738
14775TIP3    H244283   5.302   5.668   2.627
14776TIP3   OH244284   1.590   0.008   3.851
14776TIP3    H144285   1.593   0.084   3.909
14776TIP3    H244286   1.523   0.029   3.786
14777TIP3   OH244287   5.109   0.278   5.475
14777TIP3    H144288   5.104   0.221   5.552
14777TIP3    H244289   5.182   0.338   5.495
14778TIP3   OH244290   5.999   4.251   0.780
14778TIP3    H144291   6.069   4.206   0.827
14778TIP3    H244292   5.955   4.305   0.846
14779TIP3   OH244293   6.094   2.828   5.977
14779TIP3    H144294   6.105   2.888   6.050
14779TIP3    H244295   6.028   2.869   5.921
14780TIP3   OH244296   1.660   4.717   3.422
14780TIP3    H144297   1.647   4.662   3.500
14780TIP3    H244298   1.675   4.805   3.457
14781TIP3   OH244299   7.230   2.088   0.172
14781TIP3    H144300   7.298   2.111   0.236
14781TIP3    H244301   7.230   2.161   0.111
14782TIP3   OH244302   7.970   0.234   0.467
14782TIP3    H144303   7.953   0.247   0.561
14782TIP3    H244304   8.054   0.277   0.453
14783TIP3   OH244305   7.840   7.497   3.032
14783TIP3    H144306   7.783   7.452   2.970
14783TIP3    H244307   7.793   7.495   3.115
14784TIP3   OH244308   4.381   4.978   6.547
14784TIP3    H144309   4.403   4.931   6.467
14784TIP3    H244310   4.463   4.981   6.597
14785TIP3   OH244311   2.720   7.509   0.564
14785TIP3    H144312   2.811   7.500   0.594
14785TIP3    H244313   2.669   7.458   0.628
14786TIP3   OH244314   8.059   5.440   3.784
14786TIP3    H144315   8.133   5.381   3.767
14786TIP3    H244316   8.093   5.528   3.764
14787TIP3   OH244317   7.422   6.326   1.803
14787TIP3    H144318   7.484   6.281   1.860
14787TIP3    H244319   7.389   6.257   1.745
14788TIP3   OH244320   2.688   0.951   6.181
14788TIP3    H144321   2.632   0.922   6.109
14788TIP3    H244322   2.754   1.006   6.139
14789TIP3   OH244323   0.870   2.744   0.058
14789TIP3    H144324   0.936   2.805   0.092
14789TIP3    H244325   0.879   2.750  -0.037
14790TIP3   OH244326   5.714   2.798   4.753
14790TIP3    H144327   5.686   2.716   4.795
14790TIP3    H244328   5.726   2.775   4.661
14791TIP3   OH244329   4.299   5.109   4.180
14791TIP3    H144330   4.278   5.021   4.148
14791TIP3    H244331   4.378   5.097   4.232
14792TIP3   OH244332   0.888   4.078   3.795
14792TIP3    H144333   0.819   4.142   3.777
14792TIP3    H244334   0.872   4.049   3.884
14793TIP3   OH244335   1.564   4.512   2.750
14793TIP3    H144336   1.637   4.573   2.758
14793TIP3    H244337   1.528   4.529   2.663
14794TIP3   OH244338   4.611   4.599   3.642
14794TIP3    H144339   4.667   4.669   3.609
14794TIP3    H244340   4.602   4.617   3.735
14795TIP3   OH244341   1.762   1.235   3.700
14795TIP3    H144342   1.711   1.317   3.700
14795TIP3    H244343   1.717   1.179   3.638
14796TIP3   OH244344   3.367   5.355   4.083
14796TIP3    H144345   3.440   5.298   4.107
14796TIP3    H244346   3.379   5.370   3.989
14797TIP3   OH244347   2.785   1.482   4.331
14797TIP3    H144348   2.800   1.449   4.420
14797TIP3    H244349   2.866   1.529   4.310
14798TIP3   OH244350   1.518   2.421   0.130
14798TIP3    H144351   1.581   2.416   0.057
14798TIP3    H244352   1.559   2.369   0.200
14799TIP3   OH244353   0.681   7.037   5.564
14799TIP3    H144354   0.650   7.054   5.653
14799TIP3    H244355   0.613   6.983   5.524
14800TIP3   OH244356   0.218   5.323   1.432
14800TIP3    H144357   0.160   5.251   1.407
14800TIP3    H244358   0.269   5.288   1.506
14801TIP3   OH244359   3.317   4.817   6.198
14801TIP3    H144360   3.377   4.853   6.264
14801TIP3    H244361   3.346   4.727   6.186
14802TIP3   OH244362   0.717   1.573   1.851
14802TIP3    H144363   0.745   1.646   1.906
14802TIP3    H244364   0.760   1.497   1.889
14803TIP3   OH244365   4.031   6.313   4.824
14803TIP3    H144366   4.022   6.242   4.761
14803TIP3    H244367   4.042   6.391   4.770
14804TIP3   OH244368   4.473   0.817   1.935
14804TIP3    H144369   4.512   0.834   1.850
14804TIP3    H244370   4.402   0.755   1.917
14805TIP3   OH244371   4.396   3.165   5.089
14805TIP3    H144372   4.419   3.113   5.012
14805TIP3    H244373   4.480   3.184   5.131
14806TIP3   OH244374   4.005   5.051   3.908
14806TIP3    H144375   4.071   4.987   3.934
14806TIP3    H244376   3.968   5.083   3.991
14807TIP3   OH244377   0.395   0.691   5.297
14807TIP3    H144378   0.300   0.690   5.301
14807TIP3    H244379   0.417   0.660   5.209
14808TIP3   OH244380   7.752   7.331   6.447
14808TIP3    H144381   7.755   7.235   6.444
14808TIP3    H244382   7.667   7.351   6.487
14809TIP3   OH244383   8.227   7.242   0.759
14809TIP3    H144384   8.136   7.264   0.743
14809TIP3    H244385   8.242   7.163   0.706
14810TIP3   OH244386   7.675   4.318   4.072
14810TIP3    H144387   7.710   4.234   4.043
14810TIP3    H244388   7.746   4.381   4.058
14811TIP3   OH244389   4.812   2.610   3.362
14811TIP3    H144390   4.884   2.564   3.405
14811TIP3    H244391   4.755   2.637   3.434
14812TIP3   OH244392   3.235   4.974   5.988
14812TIP3    H144393   3.222   4.899   5.930
14812TIP3    H244394   3.257   4.936   6.073
14813TIP3   OH244395   1.240   6.658   4.330
14813TIP3    H144396   1.186   6.721   4.283
14813TIP3    H244397   1.330   6.683   4.308
14814TIP3   OH244398   6.705   2.646   4.756
14814TIP3    H144399   6.625   2.594   4.752
14814TIP3    H244400   6.753   2.623   4.676
14815TIP3   OH244401   4.880   0.636   3.821
14815TIP3    H144402   4.966   0.677   3.829
14815TIP3    H244403   4.837   0.655   3.904
14816TIP3   OH244404   1.504   7.447   4.259
14816TIP3    H144405   1.431   7.489   4.305
14816TIP3    H244406   1.562   7.520   4.235
14817TIP3   OH244407   5.163   7.096   5.871
14817TIP3    H144408   5.136   7.047   5.793
14817TIP3    H244409   5.241   7.144   5.844
14818TIP3   OH244410   6.419   1.289   6.040
14818TIP3    H144411   6.480   1.358   6.014
14818TIP3    H244412   6.403   1.240   5.959
14819TIP3   OH244413   2.381   0.933   6.479
14819TIP3    H144414   2.433   0.868   6.526
14819TIP3    H244415   2.402   1.016   6.521
14820TIP3   OH244416   1.714   3.811   1.030
14820TIP3    H144417   1.750   3.736   1.078
14820TIP3    H244418   1.687   3.872   1.098
14821TIP3   OH244419   7.860   4.017   3.707
14821TIP3    H144420   7.876   3.954   3.777
14821TIP3    H244421   7.883   4.102   3.747
14822TIP3   OH244422   3.218   5.606   2.274
14822TIP3    H144423   3.235   5.584   2.183
14822TIP3    H244424   3.204   5.701   2.274
14823TIP3   OH244425   0.720   7.287   1.536
14823TIP3    H144426   0.721   7.308   1.630
14823TIP3    H244427   0.695   7.195   1.532
14824TIP3   OH244428   2.111   1.506   4.315
14824TIP3    H144429   2.102   1.418   4.351
14824TIP3    H244430   2.170   1.495   4.240
14825TIP3   OH244431   2.007   1.939   0.497
14825TIP3    H144432   1.982   1.894   0.578
14825TIP3    H244433   2.098   1.966   0.512
14826TIP3   OH244434   5.284   3.916   5.776
14826TIP3    H144435   5.299   3.869   5.693
14826TIP3    H244436   5.271   4.007   5.750
14827TIP3   OH244437   6.781   2.840   0.116
14827TIP3    H144438   6.840   2.810   0.047
14827TIP3    H244439   6.833   2.833   0.196
14828TIP3   OH244440   7.306   0.143   3.601
14828TIP3    H144441   7.373   0.078   3.581
14828TIP3    H244442   7.284   0.181   3.516
14829TIP3   OH244443   0.347   4.891   2.769
14829TIP3    H144444   0.257   4.917   2.788
14829TIP3    H244445   0.377   4.955   2.705
14830TIP3   OH244446   5.425   0.924   1.547
14830TIP3    H144447   5.404   0.883   1.631
14830TIP3    H244448   5.521   0.926   1.544
14831TIP3   OH244449   6.171   5.616   4.260
14831TIP3    H144450   6.204   5.687   4.314
14831TIP3    H244451   6.081   5.603   4.288
14832TIP3   OH244452   7.837   3.237   1.696
14832TIP3    H144453   7.907   3.173   1.710
14832TIP3    H244454   7.861   3.281   1.614
14833TIP3   OH244455   5.538   4.175   2.307
14833TIP3    H144456   5.472   4.183   2.237
14833TIP3    H244457   5.566   4.084   2.304
14834TIP3   OH244458   0.072   3.633   3.268
14834TIP3    H144459   0.136   3.631   3.339
14834TIP3    H244460   0.111   3.692   3.203
14835TIP3   OH244461   6.379   6.204   1.891
14835TIP3    H144462   6.327   6.180   1.815
14835TIP3    H244463   6.416   6.121   1.921
14836TIP3   OH244464   1.437   4.688   4.652
14836TIP3    H144465   1.399   4.755   4.596
14836TIP3    H244466   1.492   4.736   4.714
14837TIP3   OH244467   6.943   3.598   2.259
14837TIP3    H144468   7.016   3.537   2.266
14837TIP3    H244469   6.941   3.644   2.344
   8.30039   7.82568   6.77724   0.00000   0.00000  -2.76679   0.00000  -2.76679  -3.91284
