Title t= 446.00000 step= 223000
29212
    1ASP      N    1   2.335   1.203   2.843
    1ASP    HT1    2   2.251   1.203   2.781
    1ASP    HT2    3   2.356   1.102   2.855
    1ASP    HT3    4   2.409   1.263   2.800
    1ASP     CA    5   2.312   1.273   2.971
    1ASP     HA    6   2.222   1.230   3.014
    1ASP     CB    7   2.443   1.282   3.067
    1ASP    HB1    8   2.417   1.341   3.157
    1ASP    HB2    9   2.525   1.322   3.003
    1ASP     CG   10   2.477   1.150   3.121
    1ASP    OD1   11   2.399   1.053   3.101
    1ASP    OD2   12   2.591   1.130   3.180
    1ASP      C   13   2.266   1.419   2.957
    1ASP      O   14   2.317   1.492   2.871
    2GLY      N   15   2.168   1.467   3.040
    2GLY     HN   16   2.141   1.410   3.117
    2GLY     CA   17   2.113   1.602   3.032
    2GLY    HA1   18   2.188   1.671   2.996
    2GLY    HA2   19   2.074   1.631   3.128
    2GLY      C   20   2.006   1.606   2.933
    2GLY      O   21   1.985   1.528   2.839
    3ASP      N   22   1.920   1.712   2.954
    3ASP     HN   23   1.934   1.767   3.036
    3ASP     CA   24   1.805   1.731   2.873
    3ASP     HA   25   1.756   1.636   2.858
    3ASP     CB   26   1.706   1.813   2.957
    3ASP    HB1   27   1.629   1.858   2.892
    3ASP    HB2   28   1.757   1.900   3.004
    3ASP     CG   29   1.633   1.727   3.066
    3ASP    OD1   30   1.625   1.758   3.185
    3ASP    OD2   31   1.567   1.627   3.027
    3ASP      C   32   1.836   1.785   2.738
    3ASP      O   33   1.928   1.866   2.728
    4GLY      N   34   1.765   1.735   2.640
    4GLY     HN   35   1.704   1.658   2.655
    4GLY     CA   36   1.774   1.784   2.499
    4GLY    HA1   37   1.731   1.706   2.439
    4GLY    HA2   38   1.879   1.806   2.488
    4GLY      C   39   1.697   1.909   2.476
    4GLY      O   40   1.642   1.965   2.571
    5PRO      N   41   1.688   1.965   2.353
    5PRO     CD   42   1.717   1.906   2.222
    5PRO    HD1   43   1.633   1.838   2.197
    5PRO    HD2   44   1.817   1.859   2.224
    5PRO     CA   45   1.654   2.105   2.342
    5PRO     HA   46   1.678   2.165   2.428
    5PRO     CB   47   1.725   2.152   2.215
    5PRO    HB1   48   1.834   2.159   2.236
    5PRO    HB2   49   1.680   2.243   2.171
    5PRO     CG   50   1.708   2.030   2.126
    5PRO    HG1   51   1.608   2.024   2.079
    5PRO    HG2   52   1.779   2.033   2.040
    5PRO      C   53   1.502   2.129   2.321
    5PRO      O   54   1.467   2.250   2.309
    6GLY      N   55   1.419   2.022   2.332
    6GLY     HN   56   1.463   1.933   2.323
    6GLY     CA   57   1.275   2.029   2.348
    6GLY    HA1   58   1.240   1.935   2.388
    6GLY    HA2   59   1.240   2.055   2.249
    6GLY      C   60   1.232   2.120   2.462
    6GLY      O   61   1.313   2.153   2.548
    7ASP      N   62   1.107   2.167   2.461
    7ASP     HN   63   1.055   2.171   2.376
    7ASP     CA   64   1.042   2.232   2.572
    7ASP     HA   65   1.091   2.328   2.581
    7ASP     CB   66   0.896   2.270   2.524
    7ASP    HB1   67   0.832   2.307   2.606
    7ASP    HB2   68   0.851   2.171   2.500
    7ASP     CG   69   0.886   2.369   2.411
    7ASP    OD1   70   0.993   2.397   2.347
    7ASP    OD2   71   0.769   2.408   2.378
    7ASP      C   72   1.026   2.156   2.703
    7ASP      O   73   1.003   2.036   2.707
    8PRO      N   74   1.045   2.219   2.823
    8PRO     CD   75   1.115   2.350   2.829
    8PRO    HD1   76   1.054   2.429   2.780
    8PRO    HD2   77   1.217   2.349   2.785
    8PRO     CA   78   1.029   2.154   2.953
    8PRO     HA   79   1.113   2.088   2.968
    8PRO     CB   80   1.030   2.274   3.039
    8PRO    HB1   81   1.050   2.253   3.146
    8PRO    HB2   82   0.929   2.319   3.046
    8PRO     CG   83   1.135   2.371   2.974
    8PRO    HG1   84   1.124   2.477   3.005
    8PRO    HG2   85   1.235   2.338   3.008
    8PRO      C   86   0.907   2.070   2.987
    8PRO      O   87   0.799   2.098   2.938
    9GLY      N   88   0.925   1.970   3.077
    9GLY     HN   89   1.012   1.967   3.126
    9GLY     CA   90   0.821   1.881   3.124
    9GLY    HA1   91   0.738   1.882   3.055
    9GLY    HA2   92   0.803   1.908   3.227
    9GLY      C   93   0.861   1.741   3.113
    9GLY      O   94   0.979   1.708   3.109
   10ASP      N   95   0.756   1.650   3.113
   10ASP     HN   96   0.662   1.683   3.121
   10ASP     CA   97   0.767   1.503   3.115
   10ASP     HA   98   0.871   1.478   3.098
   10ASP     CB   99   0.726   1.446   3.254
   10ASP    HB1  100   0.731   1.336   3.263
   10ASP    HB2  101   0.621   1.473   3.276
   10ASP     CG  102   0.807   1.509   3.371
   10ASP    OD1  103   0.746   1.597   3.438
   10ASP    OD2  104   0.930   1.487   3.392
   10ASP      C  105   0.690   1.436   3.003
   10ASP      O  106   0.678   1.315   2.994
   11GLY      N  107   0.642   1.513   2.904
   11GLY     HN  108   0.638   1.612   2.918
   11GLY     CA  109   0.579   1.465   2.778
   11GLY    HA1  110   0.537   1.545   2.719
   11GLY    HA2  111   0.501   1.395   2.802
   11GLY      C  112   0.683   1.401   2.691
   11GLY    OT1  113   0.793   1.459   2.666
   11GLY    OT2  114   0.655   1.283   2.653
   12LIT    LIT  115   4.347   5.114   1.720
   13LIT    LIT  116   5.931   5.364   1.439
   14LIT    LIT  117   5.219   1.040   0.881
   15LIT    LIT  118   3.105   1.761   1.111
   16LIT    LIT  119   0.845   1.309   2.556
   17LIT    LIT  120   0.380   1.809   0.499
   18LIT    LIT  121   5.207   4.976   0.274
   19LIT    LIT  122   3.683   0.780   2.139
   20LIT    LIT  123   0.073   3.553   4.236
   21LIT    LIT  124   1.583   6.266   1.117
   22LIT    LIT  125   3.530   5.500   0.256
   23LIT    LIT  126   5.740   5.955   0.429
   24LIT    LIT  127   5.791   4.570   2.479
   25LIT    LIT  128   6.359   1.177   3.460
   26LIT    LIT  129   0.925   1.638   3.521
   27LIT    LIT  130   3.520   2.851   3.169
   28LIT    LIT  131   7.162   3.921   5.480
   29LIT    LIT  132   1.627   1.885   3.326
   30LIT    LIT  133   6.368   3.532   0.738
   31LIT    LIT  134   4.370   1.781   3.047
   32LIT    LIT  135   6.271   2.673   1.319
   33LIT    LIT  136   4.848   3.385   2.274
   34LIT    LIT  137   5.318   2.512   5.374
   35LIT    LIT  138   6.582   1.589   2.106
   36LIT    LIT  139   3.465   3.609   4.991
   37LIT    LIT  140   2.946   4.882   1.598
   38LIT    LIT  141   1.325   4.848   1.571
   39LIT    LIT  142   2.530   0.930   3.155
   40LIT    LIT  143   2.116   6.502   1.734
   41LIT    LIT  144   1.413   6.728   5.069
   42LIT    LIT  145   1.411   1.583   3.105
   43CLA    CLA  146   1.997   6.593   1.921
   44CLA    CLA  147   6.619   2.173   2.950
   45CLA    CLA  148   5.550   0.621   5.693
   46CLA    CLA  149   7.160   5.043   1.011
   47CLA    CLA  150   6.297   0.782   1.542
   48CLA    CLA  151   2.878   3.162   4.251
   49CLA    CLA  152   2.320   3.970   4.675
   50CLA    CLA  153   4.158   4.991   0.708
   51CLA    CLA  154   0.646   0.877   0.537
   52CLA    CLA  155   6.257   2.623   5.556
   53CLA    CLA  156   3.016   2.205   3.787
   54CLA    CLA  157   5.474   3.190   2.936
   55CLA    CLA  158   0.907   5.225   4.989
   56CLA    CLA  159   5.916   4.180   2.289
   57CLA    CLA  160   6.387   0.561   4.373
   58CLA    CLA  161   4.737   3.669   1.550
   59CLA    CLA  162   4.479   4.096   4.481
   60CLA    CLA  163   5.438   2.134   5.618
   61CLA    CLA  164   6.634   6.243   2.085
   62CLA    CLA  165   0.134   4.561   3.679
   63CLA    CLA  166   1.390   1.650   3.609
   64CLA    CLA  167   5.392   2.872   0.942
   65CLA    CLA  168   5.501   5.523   3.137
   66CLA    CLA  169   0.525   6.487   4.551
   67CLA    CLA  170   2.580   5.559   0.777
   68CLA    CLA  171   1.443   3.129   0.836
   69CLA    CLA  172   5.754   6.195   1.631
   70TIP3   OH2  173   1.176   2.647   1.419
   70TIP3    H1  174   1.249   2.708   1.421
   70TIP3    H2  175   1.107   2.690   1.470
   71TIP3   OH2  176   6.031   1.409   4.005
   71TIP3    H1  177   6.017   1.484   4.062
   71TIP3    H2  178   6.055   1.338   4.064
   72TIP3   OH2  179   5.932   3.997   0.424
   72TIP3    H1  180   5.868   4.064   0.447
   72TIP3    H2  181   6.017   4.039   0.436
   73TIP3   OH2  182   6.084   4.632   0.850
   73TIP3    H1  183   6.112   4.710   0.801
   73TIP3    H2  184   6.139   4.632   0.928
   74TIP3   OH2  185   5.558   5.868   2.241
   74TIP3    H1  186   5.625   5.843   2.177
   74TIP3    H2  187   5.558   5.963   2.240
   75TIP3   OH2  188   2.271   3.602   0.909
   75TIP3    H1  189   2.286   3.684   0.955
   75TIP3    H2  190   2.349   3.549   0.929
   76TIP3   OH2  191   0.778   0.818   5.166
   76TIP3    H1  192   0.842   0.873   5.211
   76TIP3    H2  193   0.693   0.853   5.194
   77TIP3   OH2  194   1.156   5.022   3.014
   77TIP3    H1  195   1.209   5.075   2.955
   77TIP3    H2  196   1.114   5.086   3.072
   78TIP3   OH2  197   5.392   0.415   5.086
   78TIP3    H1  198   5.346   0.472   5.024
   78TIP3    H2  199   5.463   0.470   5.120
   79TIP3   OH2  200   3.932   6.278   1.081
   79TIP3    H1  201   3.962   6.203   1.132
   79TIP3    H2  202   3.993   6.349   1.103
   80TIP3   OH2  203   4.002   3.264   1.844
   80TIP3    H1  204   4.064   3.316   1.792
   80TIP3    H2  205   4.029   3.279   1.935
   81TIP3   OH2  206   0.857   4.469   4.299
   81TIP3    H1  207   0.843   4.378   4.272
   81TIP3    H2  208   0.949   4.472   4.326
   82TIP3   OH2  209   4.107   5.982   3.467
   82TIP3    H1  210   4.150   5.986   3.382
   82TIP3    H2  211   4.169   5.934   3.523
   83TIP3   OH2  212   3.613   6.594   2.512
   83TIP3    H1  213   3.529   6.612   2.553
   83TIP3    H2  214   3.670   6.665   2.541
   84TIP3   OH2  215   3.654   3.980   2.328
   84TIP3    H1  216   3.680   3.893   2.300
   84TIP3    H2  217   3.647   4.031   2.248
   85TIP3   OH2  218   5.469   1.559   0.905
   85TIP3    H1  219   5.504   1.526   0.988
   85TIP3    H2  220   5.530   1.527   0.839
   86TIP3   OH2  221   0.435   1.727   2.243
   86TIP3    H1  222   0.389   1.646   2.222
   86TIP3    H2  223   0.433   1.778   2.162
   87TIP3   OH2  224   6.436   2.613   2.403
   87TIP3    H1  225   6.524   2.652   2.399
   87TIP3    H2  226   6.379   2.679   2.364
   88TIP3   OH2  227   4.116   1.898   1.034
   88TIP3    H1  228   4.139   1.986   1.003
   88TIP3    H2  229   4.040   1.912   1.090
   89TIP3   OH2  230   4.259   4.667   2.958
   89TIP3    H1  231   4.272   4.658   2.863
   89TIP3    H2  232   4.215   4.752   2.968
   90TIP3   OH2  233   4.229   1.995   4.289
   90TIP3    H1  234   4.261   2.084   4.301
   90TIP3    H2  235   4.144   1.993   4.332
   91TIP3   OH2  236   6.199   4.562   2.067
   91TIP3    H1  237   6.229   4.592   1.982
   91TIP3    H2  238   6.105   4.579   2.068
   92TIP3   OH2  239   1.849   5.638   0.312
   92TIP3    H1  240   1.846   5.721   0.361
   92TIP3    H2  241   1.783   5.583   0.353
   93TIP3   OH2  242   5.792   3.281   5.754
   93TIP3    H1  243   5.730   3.328   5.698
   93TIP3    H2  244   5.863   3.255   5.694
   94TIP3   OH2  245   7.117   3.017   4.053
   94TIP3    H1  246   7.041   3.070   4.078
   94TIP3    H2  247   7.177   3.025   4.127
   95TIP3   OH2  248   3.278   3.794   5.740
   95TIP3    H1  249   3.311   3.874   5.699
   95TIP3    H2  250   3.332   3.784   5.818
   96TIP3   OH2  251   5.596   3.208   3.730
   96TIP3    H1  252   5.586   3.131   3.787
   96TIP3    H2  253   5.560   3.180   3.646
   97TIP3   OH2  254   0.960   5.093   1.914
   97TIP3    H1  255   0.897   5.165   1.912
   97TIP3    H2  256   0.975   5.077   2.007
   98TIP3   OH2  257   0.825   6.552   0.292
   98TIP3    H1  258   0.887   6.513   0.231
   98TIP3    H2  259   0.813   6.642   0.260
   99TIP3   OH2  260   6.737   4.606   2.593
   99TIP3    H1  261   6.731   4.700   2.608
   99TIP3    H2  262   6.706   4.594   2.503
  100TIP3   OH2  263   4.191   6.180   2.888
  100TIP3    H1  264   4.147   6.229   2.818
  100TIP3    H2  265   4.130   6.184   2.962
  101TIP3   OH2  266   0.754   4.094   3.985
  101TIP3    H1  267   0.662   4.076   4.002
  101TIP3    H2  268   0.795   4.008   3.977
  102TIP3   OH2  269   1.873   6.722   2.643
  102TIP3    H1  270   1.784   6.757   2.643
  102TIP3    H2  271   1.866   6.639   2.595
  103TIP3   OH2  272   6.004   5.835   2.578
  103TIP3    H1  273   6.002   5.743   2.604
  103TIP3    H2  274   6.091   5.865   2.602
  104TIP3   OH2  275   0.902   4.787   0.482
  104TIP3    H1  276   0.935   4.876   0.466
  104TIP3    H2  277   0.872   4.790   0.573
  105TIP3   OH2  278   7.133   4.864   0.774
  105TIP3    H1  279   7.132   4.912   0.857
  105TIP3    H2  280   7.198   4.910   0.720
  106TIP3   OH2  281   0.844   1.682   1.469
  106TIP3    H1  282   0.918   1.643   1.516
  106TIP3    H2  283   0.772   1.680   1.532
  107TIP3   OH2  284   1.016   4.227   1.660
  107TIP3    H1  285   0.955   4.217   1.733
  107TIP3    H2  286   1.008   4.145   1.611
  108TIP3   OH2  287   7.210   5.962   3.888
  108TIP3    H1  288   7.265   5.901   3.839
  108TIP3    H2  289   7.137   5.908   3.920
  109TIP3   OH2  290   5.361   5.958   0.212
  109TIP3    H1  291   5.301   5.980   0.141
  109TIP3    H2  292   5.319   5.994   0.291
  110TIP3   OH2  293   0.105   6.120   2.342
  110TIP3    H1  294   0.092   6.093   2.434
  110TIP3    H2  295   0.075   6.210   2.339
  111TIP3   OH2  296   3.748   1.711   4.846
  111TIP3    H1  297   3.833   1.743   4.817
  111TIP3    H2  298   3.719   1.774   4.912
  112TIP3   OH2  299   2.257   0.984   3.950
  112TIP3    H1  300   2.346   0.981   3.985
  112TIP3    H2  301   2.204   0.941   4.016
  113TIP3   OH2  302   7.147   0.591   4.328
  113TIP3    H1  303   7.115   0.603   4.239
  113TIP3    H2  304   7.100   0.514   4.360
  114TIP3   OH2  305   0.661   1.567   0.235
  114TIP3    H1  306   0.743   1.554   0.283
  114TIP3    H2  307   0.647   1.485   0.188
  115TIP3   OH2  308   6.708   4.023   0.123
  115TIP3    H1  309   6.670   4.101   0.164
  115TIP3    H2  310   6.727   4.050   0.033
  116TIP3   OH2  311   4.438   2.377   3.751
  116TIP3    H1  312   4.356   2.329   3.746
  116TIP3    H2  313   4.470   2.361   3.840
  117TIP3   OH2  314   4.218   0.890   1.185
  117TIP3    H1  315   4.311   0.893   1.161
  117TIP3    H2  316   4.176   0.849   1.109
  118TIP3   OH2  317   6.803   1.585   3.849
  118TIP3    H1  318   6.798   1.609   3.941
  118TIP3    H2  319   6.873   1.638   3.813
  119TIP3   OH2  320   1.557   6.443   1.198
  119TIP3    H1  321   1.514   6.464   1.281
  119TIP3    H2  322   1.622   6.512   1.187
  120TIP3   OH2  323   4.303   0.597   1.487
  120TIP3    H1  324   4.351   0.591   1.404
  120TIP3    H2  325   4.367   0.633   1.548
  121TIP3   OH2  326   3.078   0.634   2.658
  121TIP3    H1  327   3.152   0.652   2.715
  121TIP3    H2  328   3.008   0.690   2.690
  122TIP3   OH2  329   0.734   6.474   1.659
  122TIP3    H1  330   0.702   6.531   1.588
  122TIP3    H2  331   0.661   6.470   1.721
  123TIP3   OH2  332   4.792   5.041   5.094
  123TIP3    H1  333   4.786   4.956   5.050
  123TIP3    H2  334   4.887   5.055   5.105
  124TIP3   OH2  335   6.136   0.649   5.453
  124TIP3    H1  336   6.151   0.555   5.448
  124TIP3    H2  337   6.223   0.688   5.450
  125TIP3   OH2  338   3.991   3.690   1.701
  125TIP3    H1  339   4.065   3.747   1.680
  125TIP3    H2  340   3.995   3.678   1.796
  126TIP3   OH2  341   4.435   1.593   1.305
  126TIP3    H1  342   4.361   1.532   1.307
  126TIP3    H2  343   4.481   1.578   1.387
  127TIP3   OH2  344   4.168   5.139   5.389
  127TIP3    H1  345   4.209   5.061   5.426
  127TIP3    H2  346   4.114   5.174   5.460
  128TIP3   OH2  347   1.667   1.309   5.144
  128TIP3    H1  348   1.619   1.288   5.224
  128TIP3    H2  349   1.599   1.317   5.077
  129TIP3   OH2  350   1.026   1.394   2.497
  129TIP3    H1  351   1.067   1.479   2.514
  129TIP3    H2  352   1.077   1.357   2.425
  130TIP3   OH2  353   1.041   6.016   0.286
  130TIP3    H1  354   1.045   6.103   0.327
  130TIP3    H2  355   1.133   5.989   0.278
  131TIP3   OH2  356   1.056   4.386   0.264
  131TIP3    H1  357   1.123   4.403   0.197
  131TIP3    H2  358   1.102   4.341   0.334
  132TIP3   OH2  359   0.733   1.123   0.831
  132TIP3    H1  360   0.783   1.052   0.790
  132TIP3    H2  361   0.747   1.110   0.925
  133TIP3   OH2  362   5.835   1.826   5.712
  133TIP3    H1  363   5.865   1.908   5.750
  133TIP3    H2  364   5.884   1.817   5.630
  134TIP3   OH2  365   6.409   1.405   3.481
  134TIP3    H1  366   6.489   1.422   3.531
  134TIP3    H2  367   6.372   1.491   3.465
  135TIP3   OH2  368   4.673   5.575   4.560
  135TIP3    H1  369   4.579   5.558   4.561
  135TIP3    H2  370   4.702   5.541   4.475
  136TIP3   OH2  371   4.403   3.269   5.208
  136TIP3    H1  372   4.414   3.342   5.269
  136TIP3    H2  373   4.450   3.296   5.129
  137TIP3   OH2  374   6.990   3.463   3.902
  137TIP3    H1  375   6.917   3.432   3.956
  137TIP3    H2  376   6.981   3.415   3.820
  138TIP3   OH2  377   1.198   0.032   0.603
  138TIP3    H1  378   1.229   0.109   0.651
  138TIP3    H2  379   1.271   0.006   0.548
  139TIP3   OH2  380   5.213   1.704   3.496
  139TIP3    H1  381   5.248   1.793   3.492
  139TIP3    H2  382   5.180   1.696   3.586
  140TIP3   OH2  383   3.473   4.267   2.392
  140TIP3    H1  384   3.495   4.245   2.482
  140TIP3    H2  385   3.528   4.343   2.371
  141TIP3   OH2  386   1.690   1.864   3.767
  141TIP3    H1  387   1.628   1.915   3.714
  141TIP3    H2  388   1.765   1.851   3.710
  142TIP3   OH2  389   5.950   1.746   5.455
  142TIP3    H1  390   5.953   1.662   5.410
  142TIP3    H2  391   6.023   1.743   5.517
  143TIP3   OH2  392   5.279   4.392   2.209
  143TIP3    H1  393   5.184   4.392   2.219
  143TIP3    H2  394   5.303   4.485   2.210
  144TIP3   OH2  395   0.540   3.387   3.770
  144TIP3    H1  396   0.543   3.456   3.704
  144TIP3    H2  397   0.560   3.307   3.722
  145TIP3   OH2  398   0.278   1.952   0.591
  145TIP3    H1  399   0.260   2.038   0.552
  145TIP3    H2  400   0.198   1.931   0.638
  146TIP3   OH2  401   3.017   2.581   4.323
  146TIP3    H1  402   2.941   2.524   4.335
  146TIP3    H2  403   2.995   2.636   4.248
  147TIP3   OH2  404   4.930   0.300   1.012
  147TIP3    H1  405   4.933   0.249   1.093
  147TIP3    H2  406   5.011   0.351   1.013
  148TIP3   OH2  407   3.049   3.650   2.323
  148TIP3    H1  408   3.089   3.722   2.371
  148TIP3    H2  409   3.041   3.683   2.233
  149TIP3   OH2  410   6.590   0.102   3.049
  149TIP3    H1  411   6.610   0.077   3.139
  149TIP3    H2  412   6.661   0.161   3.024
  150TIP3   OH2  413   5.909   2.985   3.918
  150TIP3    H1  414   5.862   2.977   3.835
  150TIP3    H2  415   5.997   2.952   3.899
  151TIP3   OH2  416   1.521   5.196   2.042
  151TIP3    H1  417   1.537   5.157   2.128
  151TIP3    H2  418   1.604   5.187   1.995
  152TIP3   OH2  419   4.349   2.250   5.547
  152TIP3    H1  420   4.277   2.243   5.609
  152TIP3    H2  421   4.397   2.329   5.575
  153TIP3   OH2  422   3.289   0.950   4.539
  153TIP3    H1  423   3.312   1.022   4.481
  153TIP3    H2  424   3.372   0.919   4.573
  154TIP3   OH2  425   1.028   2.514   3.820
  154TIP3    H1  426   1.084   2.449   3.863
  154TIP3    H2  427   1.084   2.555   3.754
  155TIP3   OH2  428   2.507   3.523   1.150
  155TIP3    H1  429   2.495   3.445   1.203
  155TIP3    H2  430   2.600   3.521   1.125
  156TIP3   OH2  431   2.553   1.913   3.701
  156TIP3    H1  432   2.586   1.970   3.770
  156TIP3    H2  433   2.556   1.825   3.738
  157TIP3   OH2  434   1.245   5.250   1.966
  157TIP3    H1  435   1.333   5.230   1.998
  157TIP3    H2  436   1.258   5.281   1.876
  158TIP3   OH2  437   3.251   4.391   3.164
  158TIP3    H1  438   3.188   4.349   3.106
  158TIP3    H2  439   3.334   4.347   3.144
  159TIP3   OH2  440   2.797   5.008   2.976
  159TIP3    H1  441   2.887   4.990   3.002
  159TIP3    H2  442   2.762   5.065   3.045
  160TIP3   OH2  443   1.488   6.363   1.957
  160TIP3    H1  444   1.448   6.418   1.889
  160TIP3    H2  445   1.568   6.409   1.980
  161TIP3   OH2  446   0.537   2.318   0.113
  161TIP3    H1  447   0.581   2.299   0.030
  161TIP3    H2  448   0.540   2.413   0.121
  162TIP3   OH2  449   5.841   0.454   3.508
  162TIP3    H1  450   5.770   0.503   3.550
  162TIP3    H2  451   5.888   0.518   3.456
  163TIP3   OH2  452   0.899   6.331   4.132
  163TIP3    H1  453   0.896   6.425   4.112
  163TIP3    H2  454   0.862   6.324   4.220
  164TIP3   OH2  455   3.470   3.027   1.349
  164TIP3    H1  456   3.423   3.035   1.266
  164TIP3    H2  457   3.503   2.937   1.350
  165TIP3   OH2  458   3.003   2.897   3.516
  165TIP3    H1  459   2.984   2.989   3.531
  165TIP3    H2  460   2.917   2.855   3.514
  166TIP3   OH2  461   1.894   4.232   4.448
  166TIP3    H1  462   1.929   4.312   4.487
  166TIP3    H2  463   1.971   4.178   4.432
  167TIP3   OH2  464   0.395   2.583   3.285
  167TIP3    H1  465   0.450   2.514   3.320
  167TIP3    H2  466   0.414   2.585   3.192
  168TIP3   OH2  467   6.877   1.639   1.631
  168TIP3    H1  468   6.816   1.566   1.640
  168TIP3    H2  469   6.952   1.603   1.583
  169TIP3   OH2  470   6.275   3.790   1.330
  169TIP3    H1  471   6.187   3.753   1.324
  169TIP3    H2  472   6.327   3.722   1.373
  170TIP3   OH2  473   5.123   3.585   3.582
  170TIP3    H1  474   5.132   3.500   3.539
  170TIP3    H2  475   5.150   3.570   3.672
  171TIP3   OH2  476   5.366   2.063   4.287
  171TIP3    H1  477   5.294   2.106   4.333
  171TIP3    H2  478   5.341   2.066   4.195
  172TIP3   OH2  479   1.173   5.466   2.145
  172TIP3    H1  480   1.169   5.388   2.089
  172TIP3    H2  481   1.258   5.460   2.188
  173TIP3   OH2  482   1.590   1.359   1.031
  173TIP3    H1  483   1.618   1.447   1.056
  173TIP3    H2  484   1.659   1.327   0.973
  174TIP3   OH2  485   2.741   0.296   4.974
  174TIP3    H1  486   2.787   0.347   5.041
  174TIP3    H2  487   2.648   0.309   4.994
  175TIP3   OH2  488   0.229   0.977   3.502
  175TIP3    H1  489   0.136   0.953   3.499
  175TIP3    H2  490   0.245   1.019   3.417
  176TIP3   OH2  491   6.157   5.007   1.211
  176TIP3    H1  492   6.244   4.979   1.184
  176TIP3    H2  493   6.099   4.978   1.140
  177TIP3   OH2  494   6.585   0.146   4.270
  177TIP3    H1  495   6.557   0.057   4.291
  177TIP3    H2  496   6.541   0.166   4.187
  178TIP3   OH2  497   5.972   6.787   1.712
  178TIP3    H1  498   5.885   6.755   1.735
  178TIP3    H2  499   5.998   6.842   1.786
  179TIP3   OH2  500   5.323   4.495   0.698
  179TIP3    H1  501   5.366   4.451   0.772
  179TIP3    H2  502   5.271   4.564   0.739
  180TIP3   OH2  503   1.850   0.423   4.262
  180TIP3    H1  504   1.941   0.444   4.281
  180TIP3    H2  505   1.821   0.493   4.203
  181TIP3   OH2  506   7.045   3.056   1.917
  181TIP3    H1  507   7.107   3.114   1.873
  181TIP3    H2  508   7.085   3.040   2.003
  182TIP3   OH2  509   2.166   2.040   3.837
  182TIP3    H1  510   2.140   2.117   3.786
  182TIP3    H2  511   2.225   2.074   3.904
  183TIP3   OH2  512   2.742   1.510   2.442
  183TIP3    H1  513   2.710   1.588   2.487
  183TIP3    H2  514   2.805   1.471   2.503
  184TIP3   OH2  515   1.164   3.248   5.531
  184TIP3    H1  516   1.140   3.339   5.518
  184TIP3    H2  517   1.149   3.207   5.446
  185TIP3   OH2  518   5.292   4.421   5.541
  185TIP3    H1  519   5.282   4.412   5.635
  185TIP3    H2  520   5.316   4.334   5.510
  186TIP3   OH2  521   4.696   1.831   4.339
  186TIP3    H1  522   4.758   1.761   4.319
  186TIP3    H2  523   4.696   1.837   4.435
  187TIP3   OH2  524   1.879   1.578   0.972
  187TIP3    H1  525   1.896   1.485   0.955
  187TIP3    H2  526   1.925   1.597   1.053
  188TIP3   OH2  527   1.235   6.609   1.220
  188TIP3    H1  528   1.297   6.681   1.203
  188TIP3    H2  529   1.154   6.653   1.243
  189TIP3   OH2  530   0.341   3.783   5.291
  189TIP3    H1  531   0.327   3.697   5.330
  189TIP3    H2  532   0.360   3.764   5.199
  190TIP3   OH2  533   1.777   6.109   5.212
  190TIP3    H1  534   1.838   6.142   5.278
  190TIP3    H2  535   1.695   6.096   5.260
  191TIP3   OH2  536   4.797   2.463   3.730
  191TIP3    H1  537   4.790   2.504   3.816
  191TIP3    H2  538   4.882   2.418   3.731
  192TIP3   OH2  539   0.664   3.978   3.121
  192TIP3    H1  540   0.576   4.010   3.104
  192TIP3    H2  541   0.701   4.040   3.184
  193TIP3   OH2  542   3.792   3.762   2.082
  193TIP3    H1  543   3.785   3.724   2.169
  193TIP3    H2  544   3.708   3.740   2.040
  194TIP3   OH2  545   2.823   1.759   5.244
  194TIP3    H1  546   2.872   1.832   5.207
  194TIP3    H2  547   2.815   1.696   5.172
  195TIP3   OH2  548   0.685   1.562   4.072
  195TIP3    H1  549   0.610   1.619   4.090
  195TIP3    H2  550   0.744   1.576   4.146
  196TIP3   OH2  551   3.102   1.765   2.623
  196TIP3    H1  552   3.151   1.804   2.696
  196TIP3    H2  553   3.011   1.767   2.652
  197TIP3   OH2  554   2.812   6.234   0.933
  197TIP3    H1  555   2.750   6.277   0.874
  197TIP3    H2  556   2.884   6.206   0.876
  198TIP3   OH2  557   6.405   3.760   5.401
  198TIP3    H1  558   6.328   3.808   5.431
  198TIP3    H2  559   6.388   3.669   5.426
  199TIP3   OH2  560   0.998   1.474   2.828
  199TIP3    H1  561   0.926   1.476   2.765
  199TIP3    H2  562   0.997   1.385   2.864
  200TIP3   OH2  563   6.925   3.433   0.488
  200TIP3    H1  564   6.896   3.426   0.397
  200TIP3    H2  565   6.982   3.510   0.489
  201TIP3   OH2  566   6.382   0.713   2.102
  201TIP3    H1  567   6.328   0.780   2.144
  201TIP3    H2  568   6.433   0.760   2.036
  202TIP3   OH2  569   5.476   3.760   5.519
  202TIP3    H1  570   5.486   3.706   5.598
  202TIP3    H2  571   5.395   3.728   5.479
  203TIP3   OH2  572   6.659   1.988   3.209
  203TIP3    H1  573   6.597   2.042   3.257
  203TIP3    H2  574   6.668   2.031   3.124
  204TIP3   OH2  575   0.226   3.381   2.993
  204TIP3    H1  576   0.318   3.354   2.995
  204TIP3    H2  577   0.222   3.450   2.927
  205TIP3   OH2  578   4.000   4.327   3.811
  205TIP3    H1  579   3.993   4.356   3.720
  205TIP3    H2  580   4.057   4.250   3.808
  206TIP3   OH2  581   4.115   3.592   3.109
  206TIP3    H1  582   4.123   3.499   3.132
  206TIP3    H2  583   4.122   3.638   3.192
  207TIP3   OH2  584   2.918   0.633   0.905
  207TIP3    H1  585   2.997   0.686   0.897
  207TIP3    H2  586   2.903   0.598   0.817
  208TIP3   OH2  587   5.664   5.349   3.323
  208TIP3    H1  588   5.621   5.266   3.304
  208TIP3    H2  589   5.606   5.415   3.285
  209TIP3   OH2  590   0.591   4.179   0.511
  209TIP3    H1  591   0.566   4.089   0.533
  209TIP3    H2  592   0.528   4.234   0.559
  210TIP3   OH2  593   5.946   4.659   2.101
  210TIP3    H1  594   5.851   4.652   2.093
  210TIP3    H2  595   5.965   4.750   2.078
  211TIP3   OH2  596   1.791   6.767   1.497
  211TIP3    H1  597   1.881   6.753   1.466
  211TIP3    H2  598   1.757   6.679   1.512
  212TIP3   OH2  599   6.324   4.068   0.748
  212TIP3    H1  600   6.335   4.101   0.837
  212TIP3    H2  601   6.413   4.046   0.719
  213TIP3   OH2  602   0.758   3.328   2.907
  213TIP3    H1  603   0.822   3.312   2.838
  213TIP3    H2  604   0.703   3.399   2.874
  214TIP3   OH2  605   0.863   3.689   2.865
  214TIP3    H1  606   0.855   3.740   2.785
  214TIP3    H2  607   0.825   3.744   2.933
  215TIP3   OH2  608   6.340   1.148   4.108
  215TIP3    H1  609   6.280   1.164   4.035
  215TIP3    H2  610   6.384   1.066   4.086
  216TIP3   OH2  611   2.693   3.248   2.426
  216TIP3    H1  612   2.600   3.236   2.406
  216TIP3    H2  613   2.709   3.189   2.500
  217TIP3   OH2  614   5.339   1.270   3.870
  217TIP3    H1  615   5.263   1.298   3.818
  217TIP3    H2  616   5.313   1.287   3.961
  218TIP3   OH2  617   5.232   0.509   4.601
  218TIP3    H1  618   5.272   0.464   4.526
  218TIP3    H2  619   5.306   0.543   4.651
  219TIP3   OH2  620   0.606   0.514   5.268
  219TIP3    H1  621   0.596   0.564   5.349
  219TIP3    H2  622   0.517   0.504   5.234
  220TIP3   OH2  623   4.341   5.928   2.107
  220TIP3    H1  624   4.347   5.920   2.202
  220TIP3    H2  625   4.393   5.856   2.073
  221TIP3   OH2  626   6.085   2.639   2.562
  221TIP3    H1  627   6.086   2.548   2.591
  221TIP3    H2  628   6.133   2.686   2.631
  222TIP3   OH2  629   4.538   1.043   3.859
  222TIP3    H1  630   4.521   1.136   3.873
  222TIP3    H2  631   4.463   0.999   3.899
  223TIP3   OH2  632   2.408   2.353   2.903
  223TIP3    H1  633   2.386   2.446   2.914
  223TIP3    H2  634   2.457   2.330   2.981
  224TIP3   OH2  635   2.001   4.634   2.425
  224TIP3    H1  636   2.081   4.678   2.456
  224TIP3    H2  637   1.964   4.593   2.503
  225TIP3   OH2  638   6.816   1.063   4.480
  225TIP3    H1  639   6.863   1.055   4.397
  225TIP3    H2  640   6.881   1.041   4.547
  226TIP3   OH2  641   7.172   3.418   1.435
  226TIP3    H1  642   7.180   3.363   1.513
  226TIP3    H2  643   7.230   3.377   1.371
  227TIP3   OH2  644   2.182   3.263   4.450
  227TIP3    H1  645   2.237   3.275   4.527
  227TIP3    H2  646   2.133   3.344   4.442
  228TIP3   OH2  647   0.430   1.125   0.558
  228TIP3    H1  648   0.484   1.054   0.522
  228TIP3    H2  649   0.398   1.173   0.481
  229TIP3   OH2  650   6.846   4.375   3.823
  229TIP3    H1  651   6.908   4.376   3.749
  229TIP3    H2  652   6.894   4.329   3.892
  230TIP3   OH2  653   5.536   4.138   3.090
  230TIP3    H1  654   5.610   4.081   3.068
  230TIP3    H2  655   5.573   4.203   3.150
  231TIP3   OH2  656   4.878   1.515   0.533
  231TIP3    H1  657   4.806   1.459   0.501
  231TIP3    H2  658   4.861   1.600   0.494
  232TIP3   OH2  659   5.714   0.052   2.080
  232TIP3    H1  660   5.751   0.112   2.015
  232TIP3    H2  661   5.672  -0.016   2.028
  233TIP3   OH2  662   0.049   3.192   4.381
  233TIP3    H1  663   0.067   3.102   4.406
  233TIP3    H2  664  -0.044   3.194   4.359
  234TIP3   OH2  665   3.904   2.356   3.709
  234TIP3    H1  666   3.845   2.306   3.766
  234TIP3    H2  667   3.961   2.403   3.769
  235TIP3   OH2  668   5.990   5.277   5.248
  235TIP3    H1  669   5.938   5.300   5.325
  235TIP3    H2  670   6.069   5.236   5.285
  236TIP3   OH2  671   6.673   4.316   2.776
  236TIP3    H1  672   6.768   4.314   2.788
  236TIP3    H2  673   6.656   4.252   2.708
  237TIP3   OH2  674   5.599   5.404   2.097
  237TIP3    H1  675   5.506   5.421   2.113
  237TIP3    H2  676   5.631   5.372   2.182
  238TIP3   OH2  677   1.747   3.423   0.195
  238TIP3    H1  678   1.715   3.493   0.137
  238TIP3    H2  679   1.777   3.355   0.135
  239TIP3   OH2  680   2.562   0.080   1.254
  239TIP3    H1  681   2.635   0.141   1.244
  239TIP3    H2  682   2.596  -0.003   1.220
  240TIP3   OH2  683   1.374   4.502   5.789
  240TIP3    H1  684   1.430   4.449   5.846
  240TIP3    H2  685   1.290   4.505   5.834
  241TIP3   OH2  686   1.405   4.822   1.381
  241TIP3    H1  687   1.491   4.821   1.337
  241TIP3    H2  688   1.346   4.858   1.315
  242TIP3   OH2  689   5.886   2.361   3.999
  242TIP3    H1  690   5.854   2.418   4.069
  242TIP3    H2  691   5.841   2.278   4.014
  243TIP3   OH2  692   2.373   2.525   3.849
  243TIP3    H1  693   2.366   2.488   3.937
  243TIP3    H2  694   2.353   2.618   3.861
  244TIP3   OH2  695   6.812   5.245   4.294
  244TIP3    H1  696   6.890   5.267   4.345
  244TIP3    H2  697   6.819   5.297   4.214
  245TIP3   OH2  698   6.956   4.944   2.950
  245TIP3    H1  699   6.940   4.917   2.860
  245TIP3    H2  700   6.899   5.019   2.964
  246TIP3   OH2  701   3.676   0.132   0.520
  246TIP3    H1  702   3.708   0.154   0.607
  246TIP3    H2  703   3.753   0.105   0.471
  247TIP3   OH2  704   0.310   0.292   3.129
  247TIP3    H1  705   0.322   0.282   3.035
  247TIP3    H2  706   0.347   0.378   3.149
  248TIP3   OH2  707   1.481   1.000   0.145
  248TIP3    H1  708   1.503   0.939   0.215
  248TIP3    H2  709   1.397   0.967   0.111
  249TIP3   OH2  710   3.345   6.169   4.161
  249TIP3    H1  711   3.345   6.092   4.105
  249TIP3    H2  712   3.431   6.166   4.205
  250TIP3   OH2  713   3.516   2.846   3.355
  250TIP3    H1  714   3.581   2.900   3.401
  250TIP3    H2  715   3.517   2.762   3.402
  251TIP3   OH2  716   4.270   3.992   4.909
  251TIP3    H1  717   4.231   4.004   4.822
  251TIP3    H2  718   4.360   3.967   4.892
  252TIP3   OH2  719   0.086   3.123   3.298
  252TIP3    H1  720   0.019   3.088   3.357
  252TIP3    H2  721   0.044   3.198   3.255
  253TIP3   OH2  722   5.381   5.751   1.370
  253TIP3    H1  723   5.423   5.765   1.455
  253TIP3    H2  724   5.348   5.661   1.374
  254TIP3   OH2  725   4.983   4.165   1.451
  254TIP3    H1  726   5.055   4.165   1.514
  254TIP3    H2  727   4.954   4.074   1.449
  255TIP3   OH2  728   3.556   1.979   0.248
  255TIP3    H1  729   3.493   1.934   0.191
  255TIP3    H2  730   3.507   2.051   0.286
  256TIP3   OH2  731   2.288   6.750   5.497
  256TIP3    H1  732   2.292   6.655   5.505
  256TIP3    H2  733   2.213   6.775   5.551
  257TIP3   OH2  734   5.090   5.421   0.517
  257TIP3    H1  735   5.164   5.443   0.574
  257TIP3    H2  736   5.018   5.403   0.578
  258TIP3   OH2  737   5.010   1.975   4.419
  258TIP3    H1  738   5.050   2.054   4.455
  258TIP3    H2  739   5.064   1.953   4.343
  259TIP3   OH2  740   3.281   6.562   4.829
  259TIP3    H1  741   3.265   6.631   4.764
  259TIP3    H2  742   3.251   6.482   4.787
  260TIP3   OH2  743   1.475   4.516   1.137
  260TIP3    H1  744   1.434   4.591   1.094
  260TIP3    H2  745   1.402   4.460   1.162
  261TIP3   OH2  746   7.048   2.000   2.612
  261TIP3    H1  747   7.018   2.054   2.685
  261TIP3    H2  748   7.026   1.910   2.639
  262TIP3   OH2  749   4.521   4.206   1.434
  262TIP3    H1  750   4.466   4.211   1.356
  262TIP3    H2  751   4.607   4.236   1.404
  263TIP3   OH2  752   0.842   1.004   4.348
  263TIP3    H1  753   0.853   0.912   4.325
  263TIP3    H2  754   0.748   1.021   4.334
  264TIP3   OH2  755   2.131   2.407   1.178
  264TIP3    H1  756   2.114   2.486   1.229
  264TIP3    H2  757   2.204   2.364   1.223
  265TIP3   OH2  758   6.890   6.719   4.873
  265TIP3    H1  759   6.885   6.625   4.891
  265TIP3    H2  760   6.852   6.729   4.786
  266TIP3   OH2  761   0.242   4.092   0.569
  266TIP3    H1  762   0.179   4.105   0.498
  266TIP3    H2  763   0.315   4.045   0.528
  267TIP3   OH2  764   6.737   1.861   1.651
  267TIP3    H1  765   6.776   1.774   1.642
  267TIP3    H2  766   6.812   1.921   1.651
  268TIP3   OH2  767   3.104   1.511   5.355
  268TIP3    H1  768   3.183   1.458   5.367
  268TIP3    H2  769   3.135   1.589   5.310
  269TIP3   OH2  770   3.020   4.904   3.129
  269TIP3    H1  771   3.073   4.928   3.205
  269TIP3    H2  772   3.065   4.830   3.089
  270TIP3   OH2  773   2.965   6.729   4.084
  270TIP3    H1  774   2.994   6.819   4.097
  270TIP3    H2  775   2.950   6.695   4.172
  271TIP3   OH2  776   3.028   1.559   3.817
  271TIP3    H1  777   2.991   1.633   3.769
  271TIP3    H2  778   3.050   1.495   3.749
  272TIP3   OH2  779   5.770   5.889   1.623
  272TIP3    H1  780   5.728   5.975   1.620
  272TIP3    H2  781   5.863   5.908   1.610
  273TIP3   OH2  782   2.220   4.224   4.882
  273TIP3    H1  783   2.256   4.155   4.826
  273TIP3    H2  784   2.208   4.182   4.967
  274TIP3   OH2  785   4.056   1.067   4.462
  274TIP3    H1  786   4.143   1.058   4.501
  274TIP3    H2  787   4.072   1.059   4.367
  275TIP3   OH2  788   2.159   4.314   5.266
  275TIP3    H1  789   2.255   4.306   5.263
  275TIP3    H2  790   2.142   4.401   5.232
  276TIP3   OH2  791   3.795   0.294   3.715
  276TIP3    H1  792   3.847   0.215   3.700
  276TIP3    H2  793   3.838   0.361   3.663
  277TIP3   OH2  794   6.922   1.911   3.233
  277TIP3    H1  795   6.915   1.866   3.149
  277TIP3    H2  796   6.835   1.948   3.248
  278TIP3   OH2  797   0.064   0.786   0.063
  278TIP3    H1  798   0.113   0.706   0.082
  278TIP3    H2  799  -0.027   0.763   0.084
  279TIP3   OH2  800   1.406   3.918   5.365
  279TIP3    H1  801   1.402   4.000   5.316
  279TIP3    H2  802   1.450   3.941   5.446
  280TIP3   OH2  803   6.534   4.824   0.491
  280TIP3    H1  804   6.611   4.800   0.439
  280TIP3    H2  805   6.542   4.771   0.571
  281TIP3   OH2  806   1.192   6.571   2.837
  281TIP3    H1  807   1.181   6.495   2.894
  281TIP3    H2  808   1.105   6.590   2.804
  282TIP3   OH2  809   3.598   4.088   4.978
  282TIP3    H1  810   3.594   4.182   4.992
  282TIP3    H2  811   3.692   4.067   4.979
  283TIP3   OH2  812   4.371   6.210   1.619
  283TIP3    H1  813   4.301   6.229   1.682
  283TIP3    H2  814   4.327   6.173   1.543
  284TIP3   OH2  815   7.015   1.200   1.713
  284TIP3    H1  816   7.061   1.179   1.794
  284TIP3    H2  817   6.922   1.194   1.736
  285TIP3   OH2  818   2.030   0.273   3.771
  285TIP3    H1  819   2.033   0.312   3.858
  285TIP3    H2  820   2.041   0.179   3.786
  286TIP3   OH2  821   5.117   5.584   2.281
  286TIP3    H1  822   5.205   5.585   2.243
  286TIP3    H2  823   5.067   5.528   2.222
  287TIP3   OH2  824   5.024   1.151   4.175
  287TIP3    H1  825   4.956   1.209   4.209
  287TIP3    H2  826   5.012   1.155   4.080
  288TIP3   OH2  827   0.166   4.655   5.597
  288TIP3    H1  828   0.169   4.706   5.678
  288TIP3    H2  829   0.107   4.705   5.540
  289TIP3   OH2  830   5.119   5.607   1.179
  289TIP3    H1  831   5.085   5.526   1.217
  289TIP3    H2  832   5.056   5.674   1.204
  290TIP3   OH2  833   5.123   0.962   4.494
  290TIP3    H1  834   5.088   1.051   4.488
  290TIP3    H2  835   5.185   0.966   4.566
  291TIP3   OH2  836   1.715   4.997   4.062
  291TIP3    H1  837   1.710   4.902   4.050
  291TIP3    H2  838   1.808   5.015   4.074
  292TIP3   OH2  839   4.995   6.395   1.856
  292TIP3    H1  840   4.971   6.484   1.879
  292TIP3    H2  841   4.968   6.385   1.764
  293TIP3   OH2  842   5.200   1.984   3.249
  293TIP3    H1  843   5.241   2.002   3.334
  293TIP3    H2  844   5.261   1.924   3.206
  294TIP3   OH2  845   2.721   1.803   4.315
  294TIP3    H1  846   2.702   1.767   4.229
  294TIP3    H2  847   2.704   1.897   4.307
  295TIP3   OH2  848   0.456   6.801   0.955
  295TIP3    H1  849   0.447   6.707   0.939
  295TIP3    H2  850   0.411   6.816   1.038
  296TIP3   OH2  851   4.922   0.469   5.519
  296TIP3    H1  852   5.002   0.460   5.468
  296TIP3    H2  853   4.943   0.430   5.604
  297TIP3   OH2  854   1.801   1.312   3.138
  297TIP3    H1  855   1.783   1.406   3.143
  297TIP3    H2  856   1.843   1.292   3.221
  298TIP3   OH2  857   4.916   6.015   5.343
  298TIP3    H1  858   4.939   6.079   5.410
  298TIP3    H2  859   4.901   6.068   5.264
  299TIP3   OH2  860   3.128   4.620   3.102
  299TIP3    H1  861   3.141   4.548   3.164
  299TIP3    H2  862   3.203   4.615   3.043
  300TIP3   OH2  863   5.398   2.369   1.127
  300TIP3    H1  864   5.334   2.312   1.168
  300TIP3    H2  865   5.368   2.458   1.147
  301TIP3   OH2  866   0.361   3.506   1.448
  301TIP3    H1  867   0.316   3.579   1.491
  301TIP3    H2  868   0.448   3.541   1.427
  302TIP3   OH2  869   0.686   1.302   0.162
  302TIP3    H1  870   0.625   1.303   0.089
  302TIP3    H2  871   0.685   1.211   0.193
  303TIP3   OH2  872   1.223   3.036   4.541
  303TIP3    H1  873   1.191   3.094   4.472
  303TIP3    H2  874   1.149   2.979   4.560
  304TIP3   OH2  875   5.962   5.448   4.567
  304TIP3    H1  876   6.048   5.466   4.530
  304TIP3    H2  877   5.936   5.364   4.529
  305TIP3   OH2  878   5.586   4.617   3.063
  305TIP3    H1  879   5.641   4.692   3.041
  305TIP3    H2  880   5.646   4.542   3.064
  306TIP3   OH2  881   1.055   3.897   3.790
  306TIP3    H1  882   1.089   3.976   3.748
  306TIP3    H2  883   0.959   3.907   3.787
  307TIP3   OH2  884   4.285   2.259   2.321
  307TIP3    H1  885   4.230   2.333   2.296
  307TIP3    H2  886   4.308   2.217   2.237
  308TIP3   OH2  887   2.062   5.990   0.206
  308TIP3    H1  888   2.131   5.997   0.273
  308TIP3    H2  889   2.035   5.898   0.210
  309TIP3   OH2  890   4.607   3.178   5.553
  309TIP3    H1  891   4.523   3.220   5.534
  309TIP3    H2  892   4.672   3.244   5.533
  310TIP3   OH2  893   3.601   0.873   5.701
  310TIP3    H1  894   3.514   0.912   5.704
  310TIP3    H2  895   3.652   0.934   5.647
  311TIP3   OH2  896   7.263   5.643   3.690
  311TIP3    H1  897   7.268   5.592   3.770
  311TIP3    H2  898   7.169   5.653   3.673
  312TIP3   OH2  899   1.902   5.898   3.305
  312TIP3    H1  900   1.927   5.904   3.398
  312TIP3    H2  901   1.890   5.989   3.278
  313TIP3   OH2  902   1.406   2.026   0.880
  313TIP3    H1  903   1.406   2.120   0.861
  313TIP3    H2  904   1.412   2.022   0.975
  314TIP3   OH2  905   2.771   3.205   0.949
  314TIP3    H1  906   2.703   3.193   1.015
  314TIP3    H2  907   2.789   3.116   0.918
  315TIP3   OH2  908   6.923   5.496   2.504
  315TIP3    H1  909   6.900   5.476   2.413
  315TIP3    H2  910   6.873   5.432   2.556
  316TIP3   OH2  911   2.545   4.981   0.974
  316TIP3    H1  912   2.528   4.986   1.068
  316TIP3    H2  913   2.477   5.036   0.935
  317TIP3   OH2  914   1.854   0.890   3.942
  317TIP3    H1  915   1.793   0.962   3.928
  317TIP3    H2  916   1.892   0.873   3.856
  318TIP3   OH2  917   0.006   4.194   5.229
  318TIP3    H1  918  -0.021   4.278   5.267
  318TIP3    H2  919   0.078   4.217   5.170
  319TIP3   OH2  920   0.449   1.631   1.402
  319TIP3    H1  921   0.427   1.559   1.343
  319TIP3    H2  922   0.423   1.710   1.354
  320TIP3   OH2  923   4.330   3.027   1.218
  320TIP3    H1  924   4.423   3.006   1.219
  320TIP3    H2  925   4.292   2.966   1.154
  321TIP3   OH2  926   4.006   4.286   2.135
  321TIP3    H1  927   3.911   4.291   2.135
  321TIP3    H2  928   4.031   4.290   2.042
  322TIP3   OH2  929   2.372   4.396   4.366
  322TIP3    H1  930   2.419   4.477   4.384
  322TIP3    H2  931   2.318   4.381   4.444
  323TIP3   OH2  932   1.201   1.776   1.023
  323TIP3    H1  933   1.253   1.752   0.946
  323TIP3    H2  934   1.200   1.872   1.022
  324TIP3   OH2  935   7.007   3.765   2.375
  324TIP3    H1  936   7.096   3.799   2.369
  324TIP3    H2  937   6.954   3.840   2.402
  325TIP3   OH2  938   2.425   6.395   3.595
  325TIP3    H1  939   2.366   6.402   3.670
  325TIP3    H2  940   2.401   6.313   3.552
  326TIP3   OH2  941   6.914   3.742   2.651
  326TIP3    H1  942   6.924   3.776   2.563
  326TIP3    H2  943   6.893   3.819   2.705
  327TIP3   OH2  944   1.577   4.510   3.571
  327TIP3    H1  945   1.571   4.604   3.555
  327TIP3    H2  946   1.499   4.474   3.529
  328TIP3   OH2  947   3.363   1.713   4.518
  328TIP3    H1  948   3.275   1.680   4.538
  328TIP3    H2  949   3.401   1.734   4.604
  329TIP3   OH2  950   1.158   5.708   1.187
  329TIP3    H1  951   1.152   5.612   1.187
  329TIP3    H2  952   1.185   5.730   1.276
  330TIP3   OH2  953   2.730   6.471   2.036
  330TIP3    H1  954   2.747   6.420   2.115
  330TIP3    H2  955   2.687   6.409   1.977
  331TIP3   OH2  956   5.440   0.576   2.569
  331TIP3    H1  957   5.507   0.628   2.613
  331TIP3    H2  958   5.451   0.597   2.476
  332TIP3   OH2  959   5.692   0.773   4.507
  332TIP3    H1  960   5.758   0.835   4.476
  332TIP3    H2  961   5.672   0.719   4.431
  333TIP3   OH2  962   5.295   6.605   1.590
  333TIP3    H1  963   5.250   6.614   1.674
  333TIP3    H2  964   5.388   6.609   1.613
  334TIP3   OH2  965   4.704   1.105   2.643
  334TIP3    H1  966   4.667   1.067   2.563
  334TIP3    H2  967   4.746   1.185   2.613
  335TIP3   OH2  968   3.465   1.133   5.906
  335TIP3    H1  969   3.442   1.200   5.842
  335TIP3    H2  970   3.488   1.182   5.985
  336TIP3   OH2  971   0.335   5.155   4.439
  336TIP3    H1  972   0.317   5.249   4.443
  336TIP3    H2  973   0.419   5.145   4.484
  337TIP3   OH2  974   1.001   0.112   1.033
  337TIP3    H1  975   1.061   0.111   1.107
  337TIP3    H2  976   1.023   0.192   0.985
  338TIP3   OH2  977   5.710   5.953   3.805
  338TIP3    H1  978   5.625   5.986   3.776
  338TIP3    H2  979   5.715   5.977   3.897
  339TIP3   OH2  980   3.791   0.625   0.998
  339TIP3    H1  981   3.741   0.670   1.066
  339TIP3    H2  982   3.882   0.644   1.019
  340TIP3   OH2  983   6.944   2.352   0.599
  340TIP3    H1  984   6.941   2.431   0.654
  340TIP3    H2  985   6.929   2.280   0.660
  341TIP3   OH2  986   5.118   6.513   2.545
  341TIP3    H1  987   5.162   6.552   2.620
  341TIP3    H2  988   5.048   6.574   2.523
  342TIP3   OH2  989   2.080   1.879   1.947
  342TIP3    H1  990   2.095   1.868   2.041
  342TIP3    H2  991   2.140   1.948   1.921
  343TIP3   OH2  992   4.314   1.123   3.017
  343TIP3    H1  993   4.371   1.129   2.941
  343TIP3    H2  994   4.229   1.152   2.986
  344TIP3   OH2  995   2.358   0.702   2.300
  344TIP3    H1  996   2.275   0.705   2.252
  344TIP3    H2  997   2.409   0.775   2.265
  345TIP3   OH2  998   2.845   5.606   0.475
  345TIP3    H1  999   2.855   5.549   0.551
  345TIP3    H2 1000   2.775   5.666   0.499
  346TIP3   OH2 1001   7.129   0.740   3.158
  346TIP3    H1 1002   7.076   0.798   3.104
  346TIP3    H2 1003   7.067   0.700   3.218
  347TIP3   OH2 1004   0.962   6.486   2.067
  347TIP3    H1 1005   1.009   6.411   2.104
  347TIP3    H2 1006   0.967   6.472   1.972
  348TIP3   OH2 1007   6.294   3.042   0.865
  348TIP3    H1 1008   6.313   3.059   0.772
  348TIP3    H2 1009   6.200   3.025   0.867
  349TIP3   OH2 1010   0.350   5.939   2.068
  349TIP3    H1 1011   0.299   5.859   2.059
  349TIP3    H2 1012   0.424   5.915   2.123
  350TIP3   OH2 1013   2.630   3.167   1.174
  350TIP3    H1 1014   2.543   3.206   1.183
  350TIP3    H2 1015   2.660   3.154   1.265
  351TIP3   OH2 1016   3.109   4.900   4.933
  351TIP3    H1 1017   3.186   4.843   4.935
  351TIP3    H2 1018   3.045   4.851   4.881
  352TIP3   OH2 1019   4.151   6.666   2.925
  352TIP3    H1 1020   4.179   6.593   2.980
  352TIP3    H2 1021   4.164   6.744   2.980
  353TIP3   OH2 1022   3.052   2.303   5.379
  353TIP3    H1 1023   3.008   2.342   5.304
  353TIP3    H2 1024   3.145   2.308   5.357
  354TIP3   OH2 1025   2.625   2.508   0.228
  354TIP3    H1 1026   2.533   2.514   0.201
  354TIP3    H2 1027   2.654   2.599   0.234
  355TIP3   OH2 1028   6.511   4.127   3.212
  355TIP3    H1 1029   6.485   4.158   3.299
  355TIP3    H2 1030   6.428   4.100   3.172
  356TIP3   OH2 1031   0.548   4.870   4.192
  356TIP3    H1 1032   0.494   4.943   4.162
  356TIP3    H2 1033   0.630   4.910   4.221
  357TIP3   OH2 1034   1.864   2.640   4.717
  357TIP3    H1 1035   1.906   2.703   4.658
  357TIP3    H2 1036   1.771   2.647   4.698
  358TIP3   OH2 1037   2.925   6.697   0.382
  358TIP3    H1 1038   2.948   6.735   0.298
  358TIP3    H2 1039   2.888   6.611   0.361
  359TIP3   OH2 1040   4.512   2.300   4.015
  359TIP3    H1 1041   4.503   2.376   4.072
  359TIP3    H2 1042   4.507   2.225   4.073
  360TIP3   OH2 1043   6.287   0.411   4.131
  360TIP3    H1 1044   6.301   0.471   4.204
  360TIP3    H2 1045   6.195   0.421   4.108
  361TIP3   OH2 1046   3.373   4.243   1.462
  361TIP3    H1 1047   3.330   4.328   1.464
  361TIP3    H2 1048   3.337   4.195   1.536
  362TIP3   OH2 1049   4.223   1.714   4.284
  362TIP3    H1 1050   4.228   1.809   4.274
  362TIP3    H2 1051   4.163   1.701   4.358
  363TIP3   OH2 1052   6.890   0.278   1.890
  363TIP3    H1 1053   6.875   0.204   1.949
  363TIP3    H2 1054   6.839   0.350   1.929
  364TIP3   OH2 1055   4.723   6.320   3.655
  364TIP3    H1 1056   4.733   6.401   3.705
  364TIP3    H2 1057   4.796   6.265   3.685
  365TIP3   OH2 1058   3.618   6.334   5.458
  365TIP3    H1 1059   3.533   6.357   5.420
  365TIP3    H2 1060   3.610   6.358   5.551
  366TIP3   OH2 1061   4.809   3.829   4.109
  366TIP3    H1 1062   4.777   3.845   4.021
  366TIP3    H2 1063   4.863   3.906   4.129
  367TIP3   OH2 1064   5.741   6.298   3.352
  367TIP3    H1 1065   5.804   6.253   3.296
  367TIP3    H2 1066   5.700   6.228   3.403
  368TIP3   OH2 1067   5.462   6.333   0.212
  368TIP3    H1 1068   5.451   6.345   0.306
  368TIP3    H2 1069   5.529   6.396   0.187
  369TIP3   OH2 1070   3.649   6.732   0.493
  369TIP3    H1 1071   3.600   6.804   0.534
  369TIP3    H2 1072   3.635   6.657   0.550
  370TIP3   OH2 1073   0.523   3.343   3.353
  370TIP3    H1 1074   0.594   3.329   3.290
  370TIP3    H2 1075   0.475   3.260   3.353
  371TIP3   OH2 1076   3.290   4.513   2.603
  371TIP3    H1 1077   3.329   4.561   2.530
  371TIP3    H2 1078   3.315   4.422   2.588
  372TIP3   OH2 1079   1.356   3.547   0.411
  372TIP3    H1 1080   1.271   3.590   0.403
  372TIP3    H2 1081   1.352   3.504   0.497
  373TIP3   OH2 1082   7.049   5.331   3.776
  373TIP3    H1 1083   7.129   5.377   3.799
  373TIP3    H2 1084   7.077   5.266   3.712
  374TIP3   OH2 1085   2.832   0.114   5.238
  374TIP3    H1 1086   2.758   0.100   5.179
  374TIP3    H2 1087   2.826   0.042   5.302
  375TIP3   OH2 1088   0.875   1.326   2.140
  375TIP3    H1 1089   0.801   1.331   2.080
  375TIP3    H2 1090   0.921   1.409   2.129
  376TIP3   OH2 1091   2.932   2.559   0.213
  376TIP3    H1 1092   3.004   2.622   0.222
  376TIP3    H2 1093   2.901   2.571   0.124
  377TIP3   OH2 1094   1.768   4.140   1.698
  377TIP3    H1 1095   1.838   4.086   1.734
  377TIP3    H2 1096   1.813   4.217   1.662
  378TIP3   OH2 1097   5.374   3.992   3.450
  378TIP3    H1 1098   5.347   3.999   3.358
  378TIP3    H2 1099   5.362   4.080   3.485
  379TIP3   OH2 1100   1.443   6.828   0.123
  379TIP3    H1 1101   1.529   6.786   0.115
  379TIP3    H2 1102   1.425   6.864   0.037
  380TIP3   OH2 1103   1.841   2.420   4.231
  380TIP3    H1 1104   1.904   2.446   4.163
  380TIP3    H2 1105   1.893   2.417   4.311
  381TIP3   OH2 1106   2.005   4.577   0.114
  381TIP3    H1 1107   2.008   4.572   0.210
  381TIP3    H2 1108   1.912   4.582   0.093
  382TIP3   OH2 1109   4.481   6.585   2.000
  382TIP3    H1 1110   4.428   6.617   1.927
  382TIP3    H2 1111   4.419   6.532   2.052
  383TIP3   OH2 1112   6.530   2.960   3.493
  383TIP3    H1 1113   6.477   2.969   3.413
  383TIP3    H2 1114   6.574   2.875   3.483
  384TIP3   OH2 1115   4.685   0.490   0.550
  384TIP3    H1 1116   4.725   0.418   0.599
  384TIP3    H2 1117   4.685   0.563   0.611
  385TIP3   OH2 1118   0.010   6.623   3.929
  385TIP3    H1 1119  -0.027   6.547   3.885
  385TIP3    H2 1120   0.071   6.586   3.994
  386TIP3   OH2 1121   0.497   4.796   3.635
  386TIP3    H1 1122   0.553   4.721   3.657
  386TIP3    H2 1123   0.438   4.762   3.567
  387TIP3   OH2 1124   2.134   5.363   5.809
  387TIP3    H1 1125   2.230   5.356   5.815
  387TIP3    H2 1126   2.119   5.428   5.740
  388TIP3   OH2 1127   4.375   5.816   1.119
  388TIP3    H1 1128   4.327   5.842   1.198
  388TIP3    H2 1129   4.463   5.853   1.131
  389TIP3   OH2 1130   6.715   4.899   2.620
  389TIP3    H1 1131   6.680   4.960   2.685
  389TIP3    H2 1132   6.665   4.917   2.540
  390TIP3   OH2 1133   6.552   2.272   0.519
  390TIP3    H1 1134   6.599   2.303   0.597
  390TIP3    H2 1135   6.614   2.282   0.448
  391TIP3   OH2 1136   6.943   6.009   4.936
  391TIP3    H1 1137   6.896   5.928   4.916
  391TIP3    H2 1138   7.035   5.983   4.939
  392TIP3   OH2 1139   1.651   6.477   2.799
  392TIP3    H1 1140   1.639   6.406   2.862
  392TIP3    H2 1141   1.719   6.446   2.739
  393TIP3   OH2 1142   3.201   5.371   5.072
  393TIP3    H1 1143   3.184   5.451   5.122
  393TIP3    H2 1144   3.230   5.307   5.137
  394TIP3   OH2 1145   5.011   0.549   0.374
  394TIP3    H1 1146   4.975   0.619   0.320
  394TIP3    H2 1147   4.953   0.474   0.358
  395TIP3   OH2 1148   4.240   6.249   0.415
  395TIP3    H1 1149   4.247   6.236   0.320
  395TIP3    H2 1150   4.156   6.293   0.427
  396TIP3   OH2 1151   1.359   4.973   5.201
  396TIP3    H1 1152   1.372   4.902   5.264
  396TIP3    H2 1153   1.360   5.053   5.254
  397TIP3   OH2 1154   0.096   5.440   4.527
  397TIP3    H1 1155   0.186   5.466   4.506
  397TIP3    H2 1156   0.042   5.509   4.488
  398TIP3   OH2 1157   2.095   6.284   3.986
  398TIP3    H1 1158   2.171   6.294   4.044
  398TIP3    H2 1159   2.020   6.283   4.045
  399TIP3   OH2 1160   6.005   5.559   2.314
  399TIP3    H1 1161   5.979   5.554   2.406
  399TIP3    H2 1162   6.101   5.557   2.316
  400TIP3   OH2 1163   5.768   1.021   1.840
  400TIP3    H1 1164   5.844   0.996   1.788
  400TIP3    H2 1165   5.727   1.092   1.791
  401TIP3   OH2 1166   1.191   1.438   4.324
  401TIP3    H1 1167   1.223   1.398   4.404
  401TIP3    H2 1168   1.115   1.385   4.299
  402TIP3   OH2 1169   0.238   1.362   0.572
  402TIP3    H1 1170   0.221   1.391   0.662
  402TIP3    H2 1171   0.327   1.328   0.575
  403TIP3   OH2 1172   2.227   5.901   5.281
  403TIP3    H1 1173   2.251   5.985   5.243
  403TIP3    H2 1174   2.303   5.845   5.265
  404TIP3   OH2 1175   0.282   1.637   1.106
  404TIP3    H1 1176   0.250   1.547   1.111
  404TIP3    H2 1177   0.376   1.629   1.092
  405TIP3   OH2 1178   2.643   0.258   5.737
  405TIP3    H1 1179   2.664   0.333   5.682
  405TIP3    H2 1180   2.720   0.248   5.794
  406TIP3   OH2 1181   5.912   0.596   0.804
  406TIP3    H1 1182   5.928   0.628   0.715
  406TIP3    H2 1183   5.826   0.632   0.827
  407TIP3   OH2 1184   2.942   5.982   2.899
  407TIP3    H1 1185   2.913   6.049   2.960
  407TIP3    H2 1186   2.989   5.919   2.953
  408TIP3   OH2 1187   4.339   3.063   4.231
  408TIP3    H1 1188   4.361   3.152   4.257
  408TIP3    H2 1189   4.337   3.066   4.135
  409TIP3   OH2 1190   6.973   3.377   5.840
  409TIP3    H1 1191   7.059   3.336   5.838
  409TIP3    H2 1192   6.912   3.304   5.850
  410TIP3   OH2 1193   4.868   5.539   4.281
  410TIP3    H1 1194   4.943   5.490   4.249
  410TIP3    H2 1195   4.905   5.607   4.337
  411TIP3   OH2 1196   0.708   5.944   1.050
  411TIP3    H1 1197   0.660   5.924   0.969
  411TIP3    H2 1198   0.657   6.013   1.091
  412TIP3   OH2 1199   6.165   2.886   3.350
  412TIP3    H1 1200   6.163   2.913   3.259
  412TIP3    H2 1201   6.172   2.790   3.347
  413TIP3   OH2 1202   5.374   2.653   3.326
  413TIP3    H1 1203   5.413   2.638   3.241
  413TIP3    H2 1204   5.302   2.713   3.310
  414TIP3   OH2 1205   4.849   1.380   3.208
  414TIP3    H1 1206   4.898   1.429   3.273
  414TIP3    H2 1207   4.907   1.376   3.132
  415TIP3   OH2 1208   1.809   6.610   2.181
  415TIP3    H1 1209   1.824   6.522   2.216
  415TIP3    H2 1210   1.872   6.619   2.110
  416TIP3   OH2 1211   5.728   2.793   2.273
  416TIP3    H1 1212   5.800   2.742   2.310
  416TIP3    H2 1213   5.659   2.787   2.340
  417TIP3   OH2 1214   1.527   4.293   1.314
  417TIP3    H1 1215   1.485   4.276   1.229
  417TIP3    H2 1216   1.591   4.361   1.296
  418TIP3   OH2 1217   5.014   0.216   4.987
  418TIP3    H1 1218   5.047   0.238   4.900
  418TIP3    H2 1219   4.951   0.284   5.007
  419TIP3   OH2 1220   5.985   6.621   2.080
  419TIP3    H1 1221   5.919   6.574   2.030
  419TIP3    H2 1222   5.935   6.667   2.148
  420TIP3   OH2 1223   4.989   3.124   4.159
  420TIP3    H1 1224   5.014   3.214   4.179
  420TIP3    H2 1225   4.914   3.133   4.100
  421TIP3   OH2 1226   0.679   0.927   2.246
  421TIP3    H1 1227   0.585   0.919   2.228
  421TIP3    H2 1228   0.717   0.952   2.162
  422TIP3   OH2 1229   5.513   5.765   3.944
  422TIP3    H1 1230   5.603   5.747   3.917
  422TIP3    H2 1231   5.521   5.827   4.016
  423TIP3   OH2 1232   6.851   4.338   1.095
  423TIP3    H1 1233   6.904   4.288   1.034
  423TIP3    H2 1234   6.803   4.272   1.145
  424TIP3   OH2 1235   1.194   0.096  -0.005
  424TIP3    H1 1236   1.114   0.104   0.047
  424TIP3    H2 1237   1.173   0.029  -0.071
  425TIP3   OH2 1238   4.516   6.286   4.699
  425TIP3    H1 1239   4.505   6.200   4.739
  425TIP3    H2 1240   4.610   6.303   4.705
  426TIP3   OH2 1241   6.045   0.725   4.895
  426TIP3    H1 1242   6.037   0.630   4.900
  426TIP3    H2 1243   6.111   0.741   4.828
  427TIP3   OH2 1244   6.573   2.642   4.260
  427TIP3    H1 1245   6.481   2.617   4.259
  427TIP3    H2 1246   6.586   2.681   4.347
  428TIP3   OH2 1247   6.274   1.183   3.296
  428TIP3    H1 1248   6.269   1.123   3.221
  428TIP3    H2 1249   6.243   1.267   3.261
  429TIP3   OH2 1250   4.467   6.342   2.950
  429TIP3    H1 1251   4.485   6.381   2.864
  429TIP3    H2 1252   4.406   6.271   2.931
  430TIP3   OH2 1253   5.733   3.079   3.288
  430TIP3    H1 1254   5.685   3.155   3.321
  430TIP3    H2 1255   5.740   3.094   3.194
  431TIP3   OH2 1256   3.777   4.298   1.132
  431TIP3    H1 1257   3.694   4.317   1.088
  431TIP3    H2 1258   3.769   4.206   1.159
  432TIP3   OH2 1259   6.652   0.514   3.033
  432TIP3    H1 1260   6.639   0.564   3.113
  432TIP3    H2 1261   6.659   0.581   2.964
  433TIP3   OH2 1262   7.057   4.669   4.611
  433TIP3    H1 1263   7.057   4.690   4.704
  433TIP3    H2 1264   7.123   4.599   4.603
  434TIP3   OH2 1265   7.133   4.526   3.429
  434TIP3    H1 1266   7.211   4.555   3.475
  434TIP3    H2 1267   7.068   4.593   3.446
  435TIP3   OH2 1268   3.712   0.499   3.940
  435TIP3    H1 1269   3.664   0.569   3.895
  435TIP3    H2 1270   3.650   0.465   4.005
  436TIP3   OH2 1271   6.187   1.252   5.558
  436TIP3    H1 1272   6.161   1.335   5.519
  436TIP3    H2 1273   6.148   1.185   5.501
  437TIP3   OH2 1274   1.366   6.531   4.224
  437TIP3    H1 1275   1.385   6.525   4.131
  437TIP3    H2 1276   1.272   6.512   4.230
  438TIP3   OH2 1277   2.247   1.643   1.006
  438TIP3    H1 1278   2.220   1.712   0.945
  438TIP3    H2 1279   2.331   1.613   0.973
  439TIP3   OH2 1280   0.147   4.733   4.214
  439TIP3    H1 1281   0.089   4.658   4.212
  439TIP3    H2 1282   0.165   4.753   4.123
  440TIP3   OH2 1283   4.582   6.034   4.464
  440TIP3    H1 1284   4.555   5.989   4.544
  440TIP3    H2 1285   4.502   6.072   4.429
  441TIP3   OH2 1286   1.916   4.243   3.680
  441TIP3    H1 1287   1.858   4.267   3.607
  441TIP3    H2 1288   1.904   4.148   3.688
  442TIP3   OH2 1289   4.021   4.238   4.093
  442TIP3    H1 1290   4.112   4.263   4.082
  442TIP3    H2 1291   3.984   4.242   4.005
  443TIP3   OH2 1292   3.574   3.593   4.232
  443TIP3    H1 1293   3.601   3.524   4.172
  443TIP3    H2 1294   3.648   3.604   4.292
  444TIP3   OH2 1295   2.108   5.156   2.244
  444TIP3    H1 1296   2.142   5.205   2.318
  444TIP3    H2 1297   2.157   5.189   2.168
  445TIP3   OH2 1298   5.656   2.065   1.719
  445TIP3    H1 1299   5.701   2.143   1.753
  445TIP3    H2 1300   5.657   2.076   1.624
  446TIP3   OH2 1301   5.202   0.665   5.263
  446TIP3    H1 1302   5.210   0.750   5.306
  446TIP3    H2 1303   5.256   0.605   5.315
  447TIP3   OH2 1304   4.968   0.807   3.448
  447TIP3    H1 1305   4.876   0.783   3.450
  447TIP3    H2 1306   5.006   0.750   3.381
  448TIP3   OH2 1307   4.299   1.038   4.582
  448TIP3    H1 1308   4.373   1.019   4.525
  448TIP3    H2 1309   4.298   0.966   4.645
  449TIP3   OH2 1310   1.657   2.459   5.508
  449TIP3    H1 1311   1.673   2.431   5.598
  449TIP3    H2 1312   1.657   2.378   5.457
  450TIP3   OH2 1313   6.780   4.342   4.297
  450TIP3    H1 1314   6.870   4.358   4.324
  450TIP3    H2 1315   6.786   4.321   4.204
  451TIP3   OH2 1316   3.307   4.579   3.847
  451TIP3    H1 1317   3.253   4.658   3.843
  451TIP3    H2 1318   3.247   4.510   3.874
  452TIP3   OH2 1319   6.208   0.913   2.251
  452TIP3    H1 1320   6.177   0.860   2.325
  452TIP3    H2 1321   6.282   0.963   2.286
  453TIP3   OH2 1322   2.821   1.653   4.820
  453TIP3    H1 1323   2.789   1.612   4.739
  453TIP3    H2 1324   2.881   1.721   4.789
  454TIP3   OH2 1325   0.352   1.249   0.881
  454TIP3    H1 1326   0.434   1.271   0.837
  454TIP3    H2 1327   0.338   1.156   0.861
  455TIP3   OH2 1328   0.401   4.802   1.799
  455TIP3    H1 1329   0.458   4.869   1.760
  455TIP3    H2 1330   0.455   4.760   1.866
  456TIP3   OH2 1331   6.477   1.789   3.231
  456TIP3    H1 1332   6.420   1.850   3.186
  456TIP3    H2 1333   6.562   1.834   3.235
  457TIP3   OH2 1334   1.169   1.413   5.809
  457TIP3    H1 1335   1.214   1.397   5.726
  457TIP3    H2 1336   1.229   1.468   5.860
  458TIP3   OH2 1337   6.284   4.175   1.205
  458TIP3    H1 1338   6.220   4.223   1.152
  458TIP3    H2 1339   6.277   4.084   1.176
  459TIP3   OH2 1340   6.437   1.330   4.753
  459TIP3    H1 1341   6.446   1.236   4.735
  459TIP3    H2 1342   6.527   1.360   4.766
  460TIP3   OH2 1343   0.831   1.866   5.427
  460TIP3    H1 1344   0.807   1.790   5.481
  460TIP3    H2 1345   0.779   1.855   5.347
  461TIP3   OH2 1346   4.999   0.333   1.476
  461TIP3    H1 1347   5.079   0.283   1.491
  461TIP3    H2 1348   4.943   0.311   1.551
  462TIP3   OH2 1349   0.204   6.478   5.336
  462TIP3    H1 1350   0.145   6.427   5.392
  462TIP3    H2 1351   0.155   6.490   5.254
  463TIP3   OH2 1352   1.161   0.800   1.643
  463TIP3    H1 1353   1.156   0.709   1.614
  463TIP3    H2 1354   1.073   0.821   1.672
  464TIP3   OH2 1355   1.559   2.347   4.246
  464TIP3    H1 1356   1.655   2.352   4.244
  464TIP3    H2 1357   1.530   2.427   4.202
  465TIP3   OH2 1358   6.905   6.532   5.423
  465TIP3    H1 1359   6.888   6.479   5.346
  465TIP3    H2 1360   6.821   6.539   5.468
  466TIP3   OH2 1361   2.552   5.265   4.658
  466TIP3    H1 1362   2.490   5.246   4.587
  466TIP3    H2 1363   2.633   5.221   4.632
  467TIP3   OH2 1364   5.938   1.293   2.186
  467TIP3    H1 1365   5.977   1.212   2.153
  467TIP3    H2 1366   5.866   1.312   2.126
  468TIP3   OH2 1367   6.082   6.798   5.142
  468TIP3    H1 1368   6.047   6.721   5.099
  468TIP3    H2 1369   6.109   6.767   5.229
  469TIP3   OH2 1370   3.656   0.481   5.139
  469TIP3    H1 1371   3.747   0.485   5.110
  469TIP3    H2 1372   3.661   0.449   5.229
  470TIP3   OH2 1373   3.561   3.217   2.711
  470TIP3    H1 1374   3.558   3.265   2.628
  470TIP3    H2 1375   3.537   3.282   2.777
  471TIP3   OH2 1376   2.681   2.067   0.972
  471TIP3    H1 1377   2.613   2.117   1.015
  471TIP3    H2 1378   2.731   2.027   1.043
  472TIP3   OH2 1379   4.895   6.290   0.783
  472TIP3    H1 1380   4.949   6.299   0.862
  472TIP3    H2 1381   4.924   6.360   0.725
  473TIP3   OH2 1382   3.532   2.924   0.830
  473TIP3    H1 1383   3.609   2.971   0.798
  473TIP3    H2 1384   3.562   2.879   0.909
  474TIP3   OH2 1385   5.584   3.713   4.050
  474TIP3    H1 1386   5.547   3.790   4.008
  474TIP3    H2 1387   5.596   3.650   3.979
  475TIP3   OH2 1388   1.736   3.061   0.756
  475TIP3    H1 1389   1.794   3.022   0.821
  475TIP3    H2 1390   1.656   3.082   0.804
  476TIP3   OH2 1391   2.865   6.543   3.483
  476TIP3    H1 1392   2.770   6.535   3.482
  476TIP3    H2 1393   2.893   6.522   3.394
  477TIP3   OH2 1394   4.644   1.615   5.389
  477TIP3    H1 1395   4.675   1.609   5.480
  477TIP3    H2 1396   4.672   1.702   5.360
  478TIP3   OH2 1397   1.533   5.935   3.820
  478TIP3    H1 1398   1.481   6.001   3.866
  478TIP3    H2 1399   1.480   5.855   3.825
  479TIP3   OH2 1400   4.512   6.736   5.424
  479TIP3    H1 1401   4.464   6.717   5.344
  479TIP3    H2 1402   4.485   6.825   5.448
  480TIP3   OH2 1403   0.812   4.790   0.778
  480TIP3    H1 1404   0.907   4.776   0.777
  480TIP3    H2 1405   0.797   4.845   0.855
  481TIP3   OH2 1406   4.887   0.033   0.323
  481TIP3    H1 1407   4.946  -0.041   0.340
  481TIP3    H2 1408   4.938   0.092   0.269
  482TIP3   OH2 1409   4.818   3.548   2.404
  482TIP3    H1 1410   4.880   3.618   2.424
  482TIP3    H2 1411   4.750   3.556   2.470
  483TIP3   OH2 1412   2.034   3.530   1.007
  483TIP3    H1 1413   2.116   3.555   0.965
  483TIP3    H2 1414   2.016   3.601   1.069
  484TIP3   OH2 1415   6.863   2.629   4.251
  484TIP3    H1 1416   6.895   2.582   4.328
  484TIP3    H2 1417   6.774   2.597   4.238
  485TIP3   OH2 1418   5.110   4.825   1.432
  485TIP3    H1 1419   5.063   4.783   1.360
  485TIP3    H2 1420   5.161   4.894   1.390
  486TIP3   OH2 1421   6.702   4.849   4.868
  486TIP3    H1 1422   6.704   4.755   4.887
  486TIP3    H2 1423   6.742   4.890   4.945
  487TIP3   OH2 1424   5.262   5.447   5.408
  487TIP3    H1 1425   5.333   5.504   5.379
  487TIP3    H2 1426   5.198   5.448   5.337
  488TIP3   OH2 1427   1.353   3.447   5.100
  488TIP3    H1 1428   1.298   3.371   5.082
  488TIP3    H2 1429   1.411   3.419   5.170
  489TIP3   OH2 1430   5.972   1.476   4.385
  489TIP3    H1 1431   6.047   1.490   4.327
  489TIP3    H2 1432   5.897   1.508   4.336
  490TIP3   OH2 1433   5.822   0.858   2.167
  490TIP3    H1 1434   5.832   0.824   2.256
  490TIP3    H2 1435   5.845   0.785   2.110
  491TIP3   OH2 1436   3.532   0.848   2.024
  491TIP3    H1 1437   3.475   0.921   2.049
  491TIP3    H2 1438   3.503   0.824   1.936
  492TIP3   OH2 1439   4.165   2.516   0.676
  492TIP3    H1 1440   4.149   2.609   0.688
  492TIP3    H2 1441   4.259   2.506   0.686
  493TIP3   OH2 1442   0.869   5.781   1.530
  493TIP3    H1 1443   0.913   5.705   1.569
  493TIP3    H2 1444   0.908   5.791   1.444
  494TIP3   OH2 1445   1.843   0.069   3.887
  494TIP3    H1 1446   1.852   0.162   3.908
  494TIP3    H2 1447   1.780   0.036   3.951
  495TIP3   OH2 1448   1.928   2.954   2.248
  495TIP3    H1 1449   1.878   3.022   2.203
  495TIP3    H2 1450   1.937   2.986   2.338
  496TIP3   OH2 1451   3.448   6.621   4.082
  496TIP3    H1 1452   3.416   6.711   4.093
  496TIP3    H2 1453   3.438   6.603   3.989
  497TIP3   OH2 1454   1.591   5.217   1.661
  497TIP3    H1 1455   1.561   5.282   1.725
  497TIP3    H2 1456   1.651   5.266   1.604
  498TIP3   OH2 1457   0.598   3.867   1.516
  498TIP3    H1 1458   0.652   3.943   1.498
  498TIP3    H2 1459   0.524   3.901   1.566
  499TIP3   OH2 1460   6.774   5.351   3.377
  499TIP3    H1 1461   6.836   5.315   3.313
  499TIP3    H2 1462   6.788   5.298   3.456
  500TIP3   OH2 1463   1.431   1.725   2.299
  500TIP3    H1 1464   1.395   1.662   2.237
  500TIP3    H2 1465   1.476   1.672   2.364
  501TIP3   OH2 1466   1.001   0.360   2.142
  501TIP3    H1 1467   0.938   0.297   2.106
  501TIP3    H2 1468   0.959   0.392   2.222
  502TIP3   OH2 1469   1.751   4.646   2.743
  502TIP3    H1 1470   1.702   4.593   2.680
  502TIP3    H2 1471   1.685   4.680   2.803
  503TIP3   OH2 1472   2.259   1.069   2.390
  503TIP3    H1 1473   2.213   1.052   2.472
  503TIP3    H2 1474   2.191   1.096   2.329
  504TIP3   OH2 1475   4.409   2.831   4.039
  504TIP3    H1 1476   4.320   2.829   4.004
  504TIP3    H2 1477   4.450   2.906   3.997
  505TIP3   OH2 1478   3.305   3.653   1.717
  505TIP3    H1 1479   3.241   3.675   1.784
  505TIP3    H2 1480   3.259   3.591   1.660
  506TIP3   OH2 1481   1.139   0.499   4.765
  506TIP3    H1 1482   1.161   0.409   4.791
  506TIP3    H2 1483   1.056   0.491   4.718
  507TIP3   OH2 1484   3.369   1.420   2.023
  507TIP3    H1 1485   3.278   1.449   2.016
  507TIP3    H2 1486   3.390   1.387   1.935
  508TIP3   OH2 1487   4.103   4.160   0.004
  508TIP3    H1 1488   4.031   4.217   0.028
  508TIP3    H2 1489   4.179   4.217  -0.001
  509TIP3   OH2 1490  -0.029   3.381   3.365
  509TIP3    H1 1491   0.045   3.353   3.419
  509TIP3    H2 1492  -0.106   3.359   3.418
  510TIP3   OH2 1493   2.632   2.679   3.814
  510TIP3    H1 1494   2.635   2.634   3.899
  510TIP3    H2 1495   2.724   2.691   3.790
  511TIP3   OH2 1496   1.400   3.119   3.027
  511TIP3    H1 1497   1.314   3.155   3.004
  511TIP3    H2 1498   1.461   3.192   3.012
  512TIP3   OH2 1499   1.478   4.619   4.236
  512TIP3    H1 1500   1.450   4.630   4.327
  512TIP3    H2 1501   1.533   4.695   4.218
  513TIP3   OH2 1502   6.471   6.068   5.313
  513TIP3    H1 1503   6.529   6.000   5.349
  513TIP3    H2 1504   6.520   6.104   5.239
  514TIP3   OH2 1505   4.141   3.220   1.236
  514TIP3    H1 1506   4.195   3.141   1.240
  514TIP3    H2 1507   4.164   3.269   1.315
  515TIP3   OH2 1508   0.111   6.547   0.672
  515TIP3    H1 1509   0.034   6.596   0.701
  515TIP3    H2 1510   0.129   6.487   0.744
  516TIP3   OH2 1511   3.942   6.456   1.793
  516TIP3    H1 1512   3.898   6.386   1.841
  516TIP3    H2 1513   3.960   6.419   1.707
  517TIP3   OH2 1514   7.172   6.033   1.687
  517TIP3    H1 1515   7.254   6.059   1.729
  517TIP3    H2 1516   7.110   6.022   1.760
  518TIP3   OH2 1517   6.224   6.479   1.721
  518TIP3    H1 1518   6.317   6.478   1.743
  518TIP3    H2 1519   6.184   6.538   1.785
  519TIP3   OH2 1520   4.214   6.740   4.569
  519TIP3    H1 1521   4.122   6.718   4.559
  519TIP3    H2 1522   4.214   6.819   4.624
  520TIP3   OH2 1523   6.453   6.296   4.344
  520TIP3    H1 1524   6.546   6.320   4.338
  520TIP3    H2 1525   6.449   6.207   4.308
  521TIP3   OH2 1526   0.595   1.870   2.048
  521TIP3    H1 1527   0.573   1.961   2.066
  521TIP3    H2 1528   0.642   1.872   1.965
  522TIP3   OH2 1529   5.013   2.361   4.374
  522TIP3    H1 1530   5.006   2.411   4.293
  522TIP3    H2 1531   4.931   2.313   4.379
  523TIP3   OH2 1532   5.247   3.371   5.510
  523TIP3    H1 1533   5.290   3.286   5.513
  523TIP3    H2 1534   5.165   3.355   5.463
  524TIP3   OH2 1535   3.523   4.275   0.629
  524TIP3    H1 1536   3.604   4.229   0.650
  524TIP3    H2 1537   3.530   4.292   0.535
  525TIP3   OH2 1538   1.044   1.743   1.915
  525TIP3    H1 1539   1.055   1.824   1.965
  525TIP3    H2 1540   1.098   1.755   1.837
  526TIP3   OH2 1541   6.818   2.494   5.071
  526TIP3    H1 1542   6.828   2.437   5.148
  526TIP3    H2 1543   6.854   2.443   4.999
  527TIP3   OH2 1544   1.879   1.977   1.362
  527TIP3    H1 1545   1.907   1.908   1.421
  527TIP3    H2 1546   1.920   1.955   1.278
  528TIP3   OH2 1547   7.009   6.180   1.050
  528TIP3    H1 1548   7.034   6.167   1.141
  528TIP3    H2 1549   7.087   6.157   1.000
  529TIP3   OH2 1550   3.353   3.939   4.850
  529TIP3    H1 1551   3.434   3.960   4.896
  529TIP3    H2 1552   3.362   3.984   4.765
  530TIP3   OH2 1553   1.064   3.590   0.863
  530TIP3    H1 1554   1.055   3.496   0.847
  530TIP3    H2 1555   1.001   3.630   0.803
  531TIP3   OH2 1556   1.816   0.395   3.965
  531TIP3    H1 1557   1.739   0.371   4.017
  531TIP3    H2 1558   1.866   0.452   4.022
  532TIP3   OH2 1559   5.658   4.315   3.270
  532TIP3    H1 1560   5.717   4.287   3.340
  532TIP3    H2 1561   5.712   4.370   3.213
  533TIP3   OH2 1562   3.976   0.090   4.518
  533TIP3    H1 1563   3.895   0.139   4.537
  533TIP3    H2 1564   4.018   0.139   4.448
  534TIP3   OH2 1565   2.383   5.704   1.693
  534TIP3    H1 1566   2.300   5.655   1.693
  534TIP3    H2 1567   2.437   5.659   1.629
  535TIP3   OH2 1568   2.040   1.116   3.498
  535TIP3    H1 1569   1.999   1.038   3.459
  535TIP3    H2 1570   2.117   1.082   3.544
  536TIP3   OH2 1571   5.400   1.021   2.574
  536TIP3    H1 1572   5.376   1.022   2.482
  536TIP3    H2 1573   5.412   1.114   2.597
  537TIP3   OH2 1574   5.322   0.168   4.483
  537TIP3    H1 1575   5.407   0.156   4.526
  537TIP3    H2 1576   5.314   0.263   4.473
  538TIP3   OH2 1577   3.173   4.241   4.194
  538TIP3    H1 1578   3.163   4.152   4.160
  538TIP3    H2 1579   3.162   4.297   4.117
  539TIP3   OH2 1580   2.540   3.787   4.492
  539TIP3    H1 1581   2.620   3.809   4.538
  539TIP3    H2 1582   2.475   3.849   4.525
  540TIP3   OH2 1583   2.328   5.917   3.853
  540TIP3    H1 1584   2.423   5.913   3.840
  540TIP3    H2 1585   2.298   5.984   3.791
  541TIP3   OH2 1586   5.772   1.129   3.805
  541TIP3    H1 1587   5.712   1.158   3.874
  541TIP3    H2 1588   5.785   1.206   3.751
  542TIP3   OH2 1589   6.674   6.022   0.967
  542TIP3    H1 1590   6.720   6.029   1.051
  542TIP3    H2 1591   6.584   6.047   0.987
  543TIP3   OH2 1592   3.471   3.623   5.441
  543TIP3    H1 1593   3.389   3.582   5.414
  543TIP3    H2 1594   3.463   3.714   5.413
  544TIP3   OH2 1595   3.463   1.338   5.387
  544TIP3    H1 1596   3.484   1.244   5.392
  544TIP3    H2 1597   3.450   1.354   5.294
  545TIP3   OH2 1598   5.159   6.004   5.610
  545TIP3    H1 1599   5.077   6.050   5.593
  545TIP3    H2 1600   5.208   6.011   5.527
  546TIP3   OH2 1601   3.124   0.994   0.947
  546TIP3    H1 1602   3.134   0.902   0.921
  546TIP3    H2 1603   3.032   1.002   0.972
  547TIP3   OH2 1604   6.123   1.995   5.250
  547TIP3    H1 1605   6.152   2.052   5.180
  547TIP3    H2 1606   6.063   1.933   5.207
  548TIP3   OH2 1607   0.038   5.378   1.044
  548TIP3    H1 1608  -0.015   5.303   1.020
  548TIP3    H2 1609   0.123   5.340   1.070
  549TIP3   OH2 1610   4.657   4.364   5.185
  549TIP3    H1 1611   4.595   4.358   5.258
  549TIP3    H2 1612   4.648   4.454   5.153
  550TIP3   OH2 1613   0.072   4.457   2.412
  550TIP3    H1 1614   0.095   4.511   2.487
  550TIP3    H2 1615   0.128   4.489   2.341
  551TIP3   OH2 1616   0.451   5.823   2.899
  551TIP3    H1 1617   0.413   5.831   2.986
  551TIP3    H2 1618   0.532   5.875   2.903
  552TIP3   OH2 1619   1.745   3.904   1.954
  552TIP3    H1 1620   1.737   3.855   2.036
  552TIP3    H2 1621   1.670   3.963   1.953
  553TIP3   OH2 1622   6.204   5.852   3.807
  553TIP3    H1 1623   6.131   5.883   3.755
  553TIP3    H2 1624   6.281   5.865   3.752
  554TIP3   OH2 1625   6.885   3.175   0.614
  554TIP3    H1 1626   6.918   3.116   0.546
  554TIP3    H2 1627   6.886   3.262   0.573
  555TIP3   OH2 1628   6.247   1.222   3.610
  555TIP3    H1 1629   6.229   1.315   3.602
  555TIP3    H2 1630   6.228   1.201   3.701
  556TIP3   OH2 1631   6.457   6.742   3.314
  556TIP3    H1 1632   6.402   6.780   3.383
  556TIP3    H2 1633   6.532   6.801   3.309
  557TIP3   OH2 1634   6.488   1.265   3.885
  557TIP3    H1 1635   6.436   1.338   3.918
  557TIP3    H2 1636   6.491   1.203   3.959
  558TIP3   OH2 1637   1.940   4.072   4.847
  558TIP3    H1 1638   1.966   3.984   4.875
  558TIP3    H2 1639   2.021   4.123   4.850
  559TIP3   OH2 1640   4.993   2.106   1.369
  559TIP3    H1 1641   4.923   2.170   1.356
  559TIP3    H2 1642   4.988   2.083   1.461
  560TIP3   OH2 1643   4.040   0.601   4.532
  560TIP3    H1 1644   4.016   0.521   4.486
  560TIP3    H2 1645   4.036   0.578   4.625
  561TIP3   OH2 1646   2.553   3.524   4.485
  561TIP3    H1 1647   2.537   3.616   4.463
  561TIP3    H2 1648   2.647   3.513   4.475
  562TIP3   OH2 1649   3.788   0.325   0.988
  562TIP3    H1 1650   3.770   0.418   0.973
  562TIP3    H2 1651   3.778   0.314   1.082
  563TIP3   OH2 1652   1.264   3.661   1.912
  563TIP3    H1 1653   1.338   3.632   1.858
  563TIP3    H2 1654   1.240   3.583   1.962
  564TIP3   OH2 1655   1.377   4.303   5.535
  564TIP3    H1 1656   1.312   4.257   5.588
  564TIP3    H2 1657   1.418   4.364   5.596
  565TIP3   OH2 1658   5.082   0.128   4.641
  565TIP3    H1 1659   5.089   0.066   4.713
  565TIP3    H2 1660   5.169   0.126   4.599
  566TIP3   OH2 1661   5.733   1.343   2.534
  566TIP3    H1 1662   5.764   1.420   2.487
  566TIP3    H2 1663   5.799   1.276   2.517
  567TIP3   OH2 1664   1.872   4.715   3.427
  567TIP3    H1 1665   1.837   4.732   3.515
  567TIP3    H2 1666   1.800   4.674   3.380
  568TIP3   OH2 1667   1.483   0.336   5.791
  568TIP3    H1 1668   1.524   0.422   5.785
  568TIP3    H2 1669   1.524   0.285   5.721
  569TIP3   OH2 1670   3.158   4.098   0.938
  569TIP3    H1 1671   3.150   4.043   1.016
  569TIP3    H2 1672   3.092   4.065   0.878
  570TIP3   OH2 1673   7.081   6.190   3.033
  570TIP3    H1 1674   7.148   6.123   3.024
  570TIP3    H2 1675   7.102   6.255   2.966
  571TIP3   OH2 1676   3.298   4.481   0.402
  571TIP3    H1 1677   3.319   4.434   0.482
  571TIP3    H2 1678   3.326   4.422   0.332
  572TIP3   OH2 1679   3.077   3.429   2.910
  572TIP3    H1 1680   3.115   3.420   2.998
  572TIP3    H2 1681   3.082   3.523   2.891
  573TIP3   OH2 1682   6.973   6.690   2.893
  573TIP3    H1 1683   6.924   6.741   2.828
  573TIP3    H2 1684   7.040   6.644   2.842
  574TIP3   OH2 1685   0.038   5.289   5.186
  574TIP3    H1 1686   0.102   5.243   5.132
  574TIP3    H2 1687   0.074   5.378   5.194
  575TIP3   OH2 1688   5.041   2.363   3.828
  575TIP3    H1 1689   5.008   2.273   3.836
  575TIP3    H2 1690   5.133   2.352   3.802
  576TIP3   OH2 1691   4.872   3.554   5.215
  576TIP3    H1 1692   4.895   3.590   5.300
  576TIP3    H2 1693   4.915   3.469   5.212
  577TIP3   OH2 1694   5.161   1.840   4.204
  577TIP3    H1 1695   5.252   1.859   4.228
  577TIP3    H2 1696   5.165   1.750   4.170
  578TIP3   OH2 1697   7.107   5.387   1.340
  578TIP3    H1 1698   7.196   5.356   1.324
  578TIP3    H2 1699   7.109   5.479   1.315
  579TIP3   OH2 1700   5.091   4.675   5.717
  579TIP3    H1 1701   5.024   4.610   5.695
  579TIP3    H2 1702   5.050   4.730   5.784
  580TIP3   OH2 1703   3.407   0.320   2.781
  580TIP3    H1 1704   3.439   0.407   2.760
  580TIP3    H2 1705   3.412   0.272   2.698
  581TIP3   OH2 1706   6.725   4.783   3.680
  581TIP3    H1 1707   6.764   4.723   3.743
  581TIP3    H2 1708   6.705   4.862   3.731
  582TIP3   OH2 1709   7.112   4.840   1.433
  582TIP3    H1 1710   7.017   4.827   1.428
  582TIP3    H2 1711   7.123   4.904   1.503
  583TIP3   OH2 1712   4.046   1.848   0.130
  583TIP3    H1 1713   3.955   1.861   0.157
  583TIP3    H2 1714   4.047   1.762   0.090
  584TIP3   OH2 1715   1.762   4.331   3.467
  584TIP3    H1 1716   1.753   4.347   3.373
  584TIP3    H2 1717   1.717   4.405   3.508
  585TIP3   OH2 1718   4.098   3.060   4.610
  585TIP3    H1 1719   4.103   3.023   4.522
  585TIP3    H2 1720   4.073   2.986   4.666
  586TIP3   OH2 1721   5.115   1.962   0.988
  586TIP3    H1 1722   5.143   1.871   0.998
  586TIP3    H2 1723   5.166   2.009   1.054
  587TIP3   OH2 1724   6.396   2.932   2.883
  587TIP3    H1 1725   6.462   2.936   2.813
  587TIP3    H2 1726   6.384   3.023   2.910
  588TIP3   OH2 1727   5.505   3.251   0.492
  588TIP3    H1 1728   5.478   3.171   0.538
  588TIP3    H2 1729   5.437   3.315   0.513
  589TIP3   OH2 1730   7.031   4.127   3.415
  589TIP3    H1 1731   7.007   4.041   3.381
  589TIP3    H2 1732   7.054   4.179   3.338
  590TIP3   OH2 1733   1.944   5.070   4.939
  590TIP3    H1 1734   1.924   5.043   5.028
  590TIP3    H2 1735   1.937   5.165   4.940
  591TIP3   OH2 1736   5.689   5.504   3.730
  591TIP3    H1 1737   5.766   5.452   3.753
  591TIP3    H2 1738   5.711   5.592   3.760
  592TIP3   OH2 1739   1.181   0.348   3.622
  592TIP3    H1 1740   1.226   0.351   3.537
  592TIP3    H2 1741   1.164   0.255   3.637
  593TIP3   OH2 1742   5.492   1.420   1.430
  593TIP3    H1 1743   5.528   1.508   1.444
  593TIP3    H2 1744   5.569   1.363   1.430
  594TIP3   OH2 1745   5.521   1.940   2.876
  594TIP3    H1 1746   5.591   1.878   2.854
  594TIP3    H2 1747   5.459   1.932   2.804
  595TIP3   OH2 1748   4.096   5.990   5.641
  595TIP3    H1 1749   4.026   6.055   5.630
  595TIP3    H2 1750   4.167   6.037   5.684
  596TIP3   OH2 1751   1.289   3.422   2.676
  596TIP3    H1 1752   1.198   3.424   2.707
  596TIP3    H2 1753   1.336   3.480   2.735
  597TIP3   OH2 1754   3.854   5.684   2.143
  597TIP3    H1 1755   3.864   5.750   2.212
  597TIP3    H2 1756   3.888   5.604   2.183
  598TIP3   OH2 1757   7.193   5.052   2.630
  598TIP3    H1 1758   7.127   5.119   2.648
  598TIP3    H2 1759   7.276   5.095   2.651
  599TIP3   OH2 1760   1.393   3.321   4.537
  599TIP3    H1 1761   1.437   3.355   4.615
  599TIP3    H2 1762   1.457   3.335   4.467
  600TIP3   OH2 1763   3.753   3.592   4.658
  600TIP3    H1 1764   3.763   3.638   4.575
  600TIP3    H2 1765   3.730   3.502   4.634
  601TIP3   OH2 1766   2.702   6.237   0.533
  601TIP3    H1 1767   2.659   6.247   0.448
  601TIP3    H2 1768   2.783   6.287   0.525
  602TIP3   OH2 1769   3.215   3.691   1.982
  602TIP3    H1 1770   3.267   3.693   2.062
  602TIP3    H2 1771   3.139   3.746   2.001
  603TIP3   OH2 1772   0.154   0.537   5.672
  603TIP3    H1 1773   0.240   0.576   5.684
  603TIP3    H2 1774   0.118   0.581   5.596
  604TIP3   OH2 1775   0.487   0.638   1.413
  604TIP3    H1 1776   0.567   0.681   1.445
  604TIP3    H2 1777   0.484   0.555   1.462
  605TIP3   OH2 1778   0.366   5.351   3.980
  605TIP3    H1 1779   0.356   5.342   3.886
  605TIP3    H2 1780   0.393   5.442   3.993
  606TIP3   OH2 1781   5.828   5.127   2.081
  606TIP3    H1 1782   5.890   5.056   2.100
  606TIP3    H2 1783   5.883   5.202   2.060
  607TIP3   OH2 1784   5.958   4.669   0.237
  607TIP3    H1 1785   6.011   4.702   0.310
  607TIP3    H2 1786   5.927   4.748   0.192
  608TIP3   OH2 1787   2.262   0.008   3.802
  608TIP3    H1 1788   2.304   0.042   3.723
  608TIP3    H2 1789   2.323  -0.057   3.835
  609TIP3   OH2 1790   4.117   2.215   5.695
  609TIP3    H1 1791   4.117   2.148   5.762
  609TIP3    H2 1792   4.033   2.260   5.705
  610TIP3   OH2 1793   6.127   0.573   1.406
  610TIP3    H1 1794   6.159   0.640   1.467
  610TIP3    H2 1795   6.200   0.512   1.397
  611TIP3   OH2 1796   5.034   3.871   3.712
  611TIP3    H1 1797   5.060   3.890   3.621
  611TIP3    H2 1798   4.950   3.826   3.704
  612TIP3   OH2 1799   5.998   3.455   4.654
  612TIP3    H1 1800   5.925   3.424   4.707
  612TIP3    H2 1801   6.070   3.394   4.673
  613TIP3   OH2 1802   2.477   6.494   1.138
  613TIP3    H1 1803   2.543   6.511   1.071
  613TIP3    H2 1804   2.500   6.554   1.210
  614TIP3   OH2 1805   2.691   0.894   2.533
  614TIP3    H1 1806   2.601   0.869   2.555
  614TIP3    H2 1807   2.738   0.811   2.527
  615TIP3   OH2 1808   2.293   2.057   5.787
  615TIP3    H1 1809   2.304   2.112   5.865
  615TIP3    H2 1810   2.354   1.985   5.801
  616TIP3   OH2 1811   1.630   3.445   3.856
  616TIP3    H1 1812   1.678   3.382   3.910
  616TIP3    H2 1813   1.557   3.473   3.911
  617TIP3   OH2 1814   2.693   5.279   1.314
  617TIP3    H1 1815   2.754   5.339   1.270
  617TIP3    H2 1816   2.694   5.306   1.405
  618TIP3   OH2 1817   1.434   6.318   4.713
  618TIP3    H1 1818   1.456   6.366   4.633
  618TIP3    H2 1819   1.432   6.227   4.686
  619TIP3   OH2 1820   3.745   3.321   3.007
  619TIP3    H1 1821   3.808   3.255   3.036
  619TIP3    H2 1822   3.701   3.349   3.087
  620TIP3   OH2 1823   5.567   2.710   5.428
  620TIP3    H1 1824   5.573   2.623   5.388
  620TIP3    H2 1825   5.641   2.758   5.391
  621TIP3   OH2 1826   1.254   5.323   0.502
  621TIP3    H1 1827   1.200   5.348   0.577
  621TIP3    H2 1828   1.325   5.272   0.540
  622TIP3   OH2 1829   4.850   4.971   5.692
  622TIP3    H1 1830   4.868   4.893   5.640
  622TIP3    H2 1831   4.930   5.023   5.686
  623TIP3   OH2 1832   3.468   1.542   2.732
  623TIP3    H1 1833   3.543   1.542   2.791
  623TIP3    H2 1834   3.406   1.481   2.772
  624TIP3   OH2 1835   4.013   0.529   1.215
  624TIP3    H1 1836   4.095   0.485   1.190
  624TIP3    H2 1837   4.027   0.557   1.305
  625TIP3   OH2 1838   4.714   2.148   5.512
  625TIP3    H1 1839   4.799   2.191   5.500
  625TIP3    H2 1840   4.650   2.220   5.508
  626TIP3   OH2 1841   1.283   5.753   2.146
  626TIP3    H1 1842   1.325   5.827   2.104
  626TIP3    H2 1843   1.270   5.689   2.076
  627TIP3   OH2 1844   1.339   5.030   5.640
  627TIP3    H1 1845   1.388   5.069   5.712
  627TIP3    H2 1846   1.350   4.935   5.652
  628TIP3   OH2 1847   2.488   6.771   4.905
  628TIP3    H1 1848   2.494   6.857   4.947
  628TIP3    H2 1849   2.563   6.767   4.846
  629TIP3   OH2 1850   2.739   4.266   1.598
  629TIP3    H1 1851   2.799   4.329   1.559
  629TIP3    H2 1852   2.694   4.226   1.524
  630TIP3   OH2 1853   6.586   3.024   0.021
  630TIP3    H1 1854   6.519   2.969   0.060
  630TIP3    H2 1855   6.617   3.079   0.094
  631TIP3   OH2 1856   6.035   3.377   1.474
  631TIP3    H1 1857   6.046   3.325   1.394
  631TIP3    H2 1858   5.947   3.355   1.505
  632TIP3   OH2 1859   2.637   3.640   4.050
  632TIP3    H1 1860   2.649   3.623   3.956
  632TIP3    H2 1861   2.613   3.555   4.087
  633TIP3   OH2 1862   5.905   4.485   2.354
  633TIP3    H1 1863   5.925   4.393   2.335
  633TIP3    H2 1864   5.965   4.534   2.297
  634TIP3   OH2 1865   3.832   0.947   5.067
  634TIP3    H1 1866   3.900   1.000   5.108
  634TIP3    H2 1867   3.849   0.953   4.973
  635TIP3   OH2 1868   7.106   3.790   1.615
  635TIP3    H1 1869   7.124   3.792   1.709
  635TIP3    H2 1870   7.025   3.741   1.606
  636TIP3   OH2 1871   5.448   4.219   3.585
  636TIP3    H1 1872   5.522   4.165   3.615
  636TIP3    H2 1873   5.407   4.251   3.665
  637TIP3   OH2 1874   0.842   5.962   3.454
  637TIP3    H1 1875   0.861   6.056   3.452
  637TIP3    H2 1876   0.924   5.921   3.427
  638TIP3   OH2 1877   2.501   0.351   0.155
  638TIP3    H1 1878   2.442   0.283   0.122
  638TIP3    H2 1879   2.588   0.325   0.122
  639TIP3   OH2 1880   3.415   1.393   1.227
  639TIP3    H1 1881   3.425   1.483   1.195
  639TIP3    H2 1882   3.364   1.349   1.159
  640TIP3   OH2 1883   2.239   2.103   1.939
  640TIP3    H1 1884   2.317   2.056   1.967
  640TIP3    H2 1885   2.268   2.153   1.862
  641TIP3   OH2 1886   4.193   1.080   1.625
  641TIP3    H1 1887   4.195   0.990   1.658
  641TIP3    H2 1888   4.155   1.073   1.538
  642TIP3   OH2 1889   6.018   1.955   2.307
  642TIP3    H1 1890   6.089   1.957   2.242
  642TIP3    H2 1891   6.010   2.047   2.335
  643TIP3   OH2 1892   6.374   1.125   1.174
  643TIP3    H1 1893   6.402   1.216   1.163
  643TIP3    H2 1894   6.455   1.074   1.167
  644TIP3   OH2 1895   6.339   0.476   1.970
  644TIP3    H1 1896   6.421   0.427   1.981
  644TIP3    H2 1897   6.337   0.536   2.043
  645TIP3   OH2 1898   2.060   5.669   4.211
  645TIP3    H1 1899   2.091   5.710   4.130
  645TIP3    H2 1900   1.979   5.716   4.232
  646TIP3   OH2 1901   2.547   2.755  -0.009
  646TIP3    H1 1902   2.505   2.839  -0.025
  646TIP3    H2 1903   2.616   2.775   0.055
  647TIP3   OH2 1904   3.599   4.846   1.035
  647TIP3    H1 1905   3.621   4.815   0.947
  647TIP3    H2 1906   3.514   4.808   1.054
  648TIP3   OH2 1907   1.236   0.692   3.579
  648TIP3    H1 1908   1.295   0.767   3.576
  648TIP3    H2 1909   1.255   0.650   3.663
  649TIP3   OH2 1910   3.199   3.215   4.178
  649TIP3    H1 1911   3.184   3.310   4.169
  649TIP3    H2 1912   3.114   3.181   4.206
  650TIP3   OH2 1913   6.752   0.388   4.647
  650TIP3    H1 1914   6.723   0.382   4.556
  650TIP3    H2 1915   6.758   0.482   4.665
  651TIP3   OH2 1916   4.328   5.122   3.455
  651TIP3    H1 1917   4.417   5.148   3.431
  651TIP3    H2 1918   4.287   5.203   3.486
  652TIP3   OH2 1919   5.271   1.751   5.234
  652TIP3    H1 1920   5.286   1.844   5.253
  652TIP3    H2 1921   5.182   1.734   5.264
  653TIP3   OH2 1922   5.544   5.135   2.043
  653TIP3    H1 1923   5.531   5.218   1.998
  653TIP3    H2 1924   5.639   5.122   2.043
  654TIP3   OH2 1925   0.429   4.789   3.118
  654TIP3    H1 1926   0.347   4.808   3.072
  654TIP3    H2 1927   0.423   4.696   3.140
  655TIP3   OH2 1928   0.555   5.841   1.319
  655TIP3    H1 1929   0.631   5.846   1.261
  655TIP3    H2 1930   0.580   5.893   1.395
  656TIP3   OH2 1931   6.102   3.243   1.249
  656TIP3    H1 1932   6.159   3.176   1.286
  656TIP3    H2 1933   6.091   3.218   1.157
  657TIP3   OH2 1934   1.920   4.699   1.392
  657TIP3    H1 1935   1.850   4.718   1.454
  657TIP3    H2 1936   1.879   4.708   1.306
  658TIP3   OH2 1937   4.511   4.430   1.864
  658TIP3    H1 1938   4.594   4.383   1.868
  658TIP3    H2 1939   4.518   4.484   1.785
  659TIP3   OH2 1940   2.151   6.629   1.578
  659TIP3    H1 1941   2.114   6.647   1.491
  659TIP3    H2 1942   2.240   6.664   1.574
  660TIP3   OH2 1943   1.902   5.567   2.802
  660TIP3    H1 1944   1.962   5.573   2.876
  660TIP3    H2 1945   1.912   5.477   2.770
  661TIP3   OH2 1946   0.820   2.996   1.165
  661TIP3    H1 1947   0.790   3.009   1.075
  661TIP3    H2 1948   0.810   2.902   1.180
  662TIP3   OH2 1949   3.485   6.016   2.666
  662TIP3    H1 1950   3.413   5.981   2.718
  662TIP3    H2 1951   3.442   6.063   2.595
  663TIP3   OH2 1952   0.365   3.773   4.769
  663TIP3    H1 1953   0.311   3.706   4.811
  663TIP3    H2 1954   0.381   3.838   4.837
  664TIP3   OH2 1955   4.453   0.357   4.884
  664TIP3    H1 1956   4.504   0.281   4.912
  664TIP3    H2 1957   4.493   0.382   4.800
  665TIP3   OH2 1958   6.239   3.923   2.503
  665TIP3    H1 1959   6.251   4.016   2.519
  665TIP3    H2 1960   6.281   3.907   2.418
  666TIP3   OH2 1961   6.214   4.474   4.529
  666TIP3    H1 1962   6.262   4.521   4.460
  666TIP3    H2 1963   6.138   4.437   4.485
  667TIP3   OH2 1964   0.595   5.904   4.177
  667TIP3    H1 1965   0.643   5.878   4.098
  667TIP3    H2 1966   0.506   5.922   4.146
  668TIP3   OH2 1967   1.340   1.420   1.556
  668TIP3    H1 1968   1.400   1.484   1.594
  668TIP3    H2 1969   1.394   1.345   1.535
  669TIP3   OH2 1970   5.556   6.504   1.631
  669TIP3    H1 1971   5.542   6.443   1.703
  669TIP3    H2 1972   5.625   6.463   1.578
  670TIP3   OH2 1973   0.908   3.988   3.561
  670TIP3    H1 1974   0.965   4.064   3.571
  670TIP3    H2 1975   0.820   4.022   3.575
  671TIP3   OH2 1976  -0.020   6.262   4.909
  671TIP3    H1 1977  -0.065   6.234   4.829
  671TIP3    H2 1978  -0.050   6.352   4.923
  672TIP3   OH2 1979   3.376   1.754   4.794
  672TIP3    H1 1980   3.378   1.659   4.786
  672TIP3    H2 1981   3.377   1.771   4.888
  673TIP3   OH2 1982   5.133   2.474   2.072
  673TIP3    H1 1983   5.153   2.528   2.148
  673TIP3    H2 1984   5.164   2.386   2.096
  674TIP3   OH2 1985   5.293   3.708   4.746
  674TIP3    H1 1986   5.376   3.696   4.792
  674TIP3    H2 1987   5.273   3.801   4.757
  675TIP3   OH2 1988   6.375   6.276   3.098
  675TIP3    H1 1989   6.433   6.208   3.064
  675TIP3    H2 1990   6.434   6.340   3.138
  676TIP3   OH2 1991   5.778   3.620   0.355
  676TIP3    H1 1992   5.775   3.697   0.299
  676TIP3    H2 1993   5.784   3.546   0.294
  677TIP3   OH2 1994   3.077   6.443   4.498
  677TIP3    H1 1995   3.127   6.362   4.490
  677TIP3    H2 1996   3.116   6.501   4.433
  678TIP3   OH2 1997   0.318   5.993   3.736
  678TIP3    H1 1998   0.322   5.967   3.828
  678TIP3    H2 1999   0.408   6.011   3.712
  679TIP3   OH2 2000   2.932   6.260   4.141
  679TIP3    H1 2001   2.936   6.326   4.210
  679TIP3    H2 2002   2.890   6.184   4.182
  680TIP3   OH2 2003   0.619   6.238   5.479
  680TIP3    H1 2004   0.613   6.317   5.425
  680TIP3    H2 2005   0.580   6.169   5.426
  681TIP3   OH2 2006   1.856   3.177   2.807
  681TIP3    H1 2007   1.944   3.210   2.791
  681TIP3    H2 2008   1.808   3.193   2.725
  682TIP3   OH2 2009   4.587   6.451   0.015
  682TIP3    H1 2010   4.627   6.407  -0.060
  682TIP3    H2 2011   4.658   6.461   0.078
  683TIP3   OH2 2012   5.189   0.386   4.339
  683TIP3    H1 2013   5.107   0.342   4.357
  683TIP3    H2 2014   5.227   0.338   4.266
  684TIP3   OH2 2015   5.706   0.374   0.781
  684TIP3    H1 2016   5.698   0.468   0.794
  684TIP3    H2 2017   5.702   0.337   0.869
  685TIP3   OH2 2018   3.206   3.763   2.898
  685TIP3    H1 2019   3.242   3.683   2.858
  685TIP3    H2 2020   3.281   3.803   2.942
  686TIP3   OH2 2021   3.718   5.166   5.762
  686TIP3    H1 2022   3.705   5.085   5.713
  686TIP3    H2 2023   3.765   5.224   5.703
  687TIP3   OH2 2024   0.070   5.893   5.818
  687TIP3    H1 2025   0.136   5.962   5.820
  687TIP3    H2 2026   0.068   5.864   5.727
  688TIP3   OH2 2027   1.513   6.576   3.114
  688TIP3    H1 2028   1.472   6.490   3.119
  688TIP3    H2 2029   1.451   6.630   3.065
  689TIP3   OH2 2030   0.412   3.199   0.392
  689TIP3    H1 2031   0.446   3.238   0.473
  689TIP3    H2 2032   0.399   3.273   0.333
  690TIP3   OH2 2033   3.545   2.283   3.587
  690TIP3    H1 2034   3.473   2.317   3.641
  690TIP3    H2 2035   3.502   2.243   3.512
  691TIP3   OH2 2036   5.986   5.547   5.147
  691TIP3    H1 2037   6.056   5.605   5.175
  691TIP3    H2 2038   5.964   5.497   5.225
  692TIP3   OH2 2039   5.459   2.597   4.597
  692TIP3    H1 2040   5.503   2.649   4.531
  692TIP3    H2 2041   5.375   2.574   4.558
  693TIP3   OH2 2042   1.652   4.433   2.963
  693TIP3    H1 2043   1.698   4.381   2.898
  693TIP3    H2 2044   1.603   4.369   3.015
  694TIP3   OH2 2045   5.099   0.298   2.327
  694TIP3    H1 2046   5.116   0.333   2.414
  694TIP3    H2 2047   5.004   0.290   2.322
  695TIP3   OH2 2048   4.213   3.969   1.050
  695TIP3    H1 2049   4.146   4.037   1.062
  695TIP3    H2 2050   4.188   3.926   0.968
  696TIP3   OH2 2051   5.581   5.398   4.596
  696TIP3    H1 2052   5.519   5.329   4.572
  696TIP3    H2 2053   5.660   5.378   4.546
  697TIP3   OH2 2054   1.745   2.447   4.536
  697TIP3    H1 2055   1.731   2.469   4.628
  697TIP3    H2 2056   1.753   2.352   4.534
  698TIP3   OH2 2057   4.742   2.270   4.770
  698TIP3    H1 2058   4.769   2.356   4.803
  698TIP3    H2 2059   4.824   2.225   4.749
  699TIP3   OH2 2060   5.234   6.722   5.123
  699TIP3    H1 2061   5.249   6.723   5.028
  699TIP3    H2 2062   5.304   6.777   5.158
  700TIP3   OH2 2063   5.729   3.615   2.617
  700TIP3    H1 2064   5.641   3.616   2.578
  700TIP3    H2 2065   5.729   3.539   2.674
  701TIP3   OH2 2066   5.938   0.087   4.807
  701TIP3    H1 2067   5.940   0.144   4.884
  701TIP3    H2 2068   6.012   0.028   4.820
  702TIP3   OH2 2069   1.726   6.687   2.974
  702TIP3    H1 2070   1.702   6.635   2.897
  702TIP3    H2 2071   1.667   6.657   3.042
  703TIP3   OH2 2072   2.713   2.079   1.589
  703TIP3    H1 2073   2.705   2.000   1.643
  703TIP3    H2 2074   2.728   2.149   1.652
  704TIP3   OH2 2075   4.030   6.057   1.203
  704TIP3    H1 2076   4.016   5.998   1.128
  704TIP3    H2 2077   3.962   6.032   1.265
  705TIP3   OH2 2078   0.408   3.913   2.099
  705TIP3    H1 2079   0.456   3.995   2.102
  705TIP3    H2 2080   0.474   3.847   2.079
  706TIP3   OH2 2081   4.095   2.165   0.288
  706TIP3    H1 2082   4.015   2.118   0.313
  706TIP3    H2 2083   4.138   2.185   0.372
  707TIP3   OH2 2084   6.897   3.759   2.110
  707TIP3    H1 2085   6.950   3.760   2.190
  707TIP3    H2 2086   6.809   3.785   2.140
  708TIP3   OH2 2087   0.448   0.408   0.957
  708TIP3    H1 2088   0.445   0.502   0.973
  708TIP3    H2 2089   0.383   0.371   1.017
  709TIP3   OH2 2090   3.365   3.744   0.384
  709TIP3    H1 2091   3.273   3.724   0.370
  709TIP3    H2 2092   3.402   3.663   0.419
  710TIP3   OH2 2093   2.204   3.978  -0.026
  710TIP3    H1 2094   2.144   3.947   0.042
  710TIP3    H2 2095   2.244   3.898  -0.061
  711TIP3   OH2 2096   2.136   4.312   5.822
  711TIP3    H1 2097   2.095   4.395   5.798
  711TIP3    H2 2098   2.228   4.334   5.836
  712TIP3   OH2 2099   1.443   1.096   3.175
  712TIP3    H1 2100   1.418   1.134   3.260
  712TIP3    H2 2101   1.381   1.134   3.113
  713TIP3   OH2 2102   1.396   0.847   3.342
  713TIP3    H1 2103   1.356   0.897   3.413
  713TIP3    H2 2104   1.389   0.904   3.266
  714TIP3   OH2 2105   0.940   3.899   5.758
  714TIP3    H1 2106   0.892   3.869   5.835
  714TIP3    H2 2107   0.877   3.951   5.708
  715TIP3   OH2 2108   1.554   4.381   5.166
  715TIP3    H1 2109   1.543   4.473   5.191
  715TIP3    H2 2110   1.562   4.383   5.070
  716TIP3   OH2 2111   1.647   2.301   1.646
  716TIP3    H1 2112   1.679   2.250   1.572
  716TIP3    H2 2113   1.725   2.340   1.684
  717TIP3   OH2 2114   3.863   6.325   0.770
  717TIP3    H1 2115   3.869   6.249   0.711
  717TIP3    H2 2116   3.892   6.292   0.855
  718TIP3   OH2 2117   6.506   0.208   2.298
  718TIP3    H1 2118   6.521   0.140   2.363
  718TIP3    H2 2119   6.430   0.256   2.331
  719TIP3   OH2 2120   0.591   2.063   4.962
  719TIP3    H1 2121   0.554   2.136   4.913
  719TIP3    H2 2122   0.678   2.049   4.925
  720TIP3   OH2 2123   1.632   3.893   2.680
  720TIP3    H1 2124   1.630   3.882   2.775
  720TIP3    H2 2125   1.684   3.972   2.665
  721TIP3   OH2 2126   6.710   3.809   1.380
  721TIP3    H1 2127   6.778   3.870   1.411
  721TIP3    H2 2128   6.668   3.777   1.459
  722TIP3   OH2 2129   3.092   4.439   5.035
  722TIP3    H1 2130   3.113   4.362   4.982
  722TIP3    H2 2131   3.154   4.506   5.007
  723TIP3   OH2 2132   3.767   1.172   0.762
  723TIP3    H1 2133   3.682   1.158   0.803
  723TIP3    H2 2134   3.786   1.265   0.777
  724TIP3   OH2 2135   3.657   4.606   0.575
  724TIP3    H1 2136   3.701   4.530   0.614
  724TIP3    H2 2137   3.669   4.676   0.639
  725TIP3   OH2 2138   4.790   1.040   5.608
  725TIP3    H1 2139   4.822   0.951   5.598
  725TIP3    H2 2140   4.861   1.095   5.576
  726TIP3   OH2 2141   4.773   2.798   5.249
  726TIP3    H1 2142   4.719   2.868   5.284
  726TIP3    H2 2143   4.722   2.718   5.264
  727TIP3   OH2 2144   2.081   5.739   1.092
  727TIP3    H1 2145   2.007   5.712   1.145
  727TIP3    H2 2146   2.103   5.662   1.040
  728TIP3   OH2 2147   6.354   6.247   3.710
  728TIP3    H1 2148   6.361   6.343   3.707
  728TIP3    H2 2149   6.395   6.219   3.628
  729TIP3   OH2 2150   5.635   4.689   3.908
  729TIP3    H1 2151   5.720   4.645   3.899
  729TIP3    H2 2152   5.651   4.777   3.875
  730TIP3   OH2 2153   0.805   1.225   3.704
  730TIP3    H1 2154   0.728   1.267   3.743
  730TIP3    H2 2155   0.772   1.143   3.668
  731TIP3   OH2 2156   2.491   2.366   4.755
  731TIP3    H1 2157   2.573   2.371   4.804
  731TIP3    H2 2158   2.460   2.277   4.771
  732TIP3   OH2 2159   1.783   1.372   2.694
  732TIP3    H1 2160   1.851   1.396   2.757
  732TIP3    H2 2161   1.712   1.435   2.709
  733TIP3   OH2 2162   5.664   1.083   4.636
  733TIP3    H1 2163   5.700   1.010   4.688
  733TIP3    H2 2164   5.635   1.147   4.701
  734TIP3   OH2 2165   3.899   3.550   4.910
  734TIP3    H1 2166   3.850   3.556   4.827
  734TIP3    H2 2167   3.987   3.580   4.888
  735TIP3   OH2 2168   4.479   2.381   4.748
  735TIP3    H1 2169   4.552   2.319   4.754
  735TIP3    H2 2170   4.506   2.442   4.678
  736TIP3   OH2 2171   3.061   0.730   4.252
  736TIP3    H1 2172   3.092   0.811   4.213
  736TIP3    H2 2173   2.976   0.753   4.291
  737TIP3   OH2 2174   5.297   1.696   1.323
  737TIP3    H1 2175   5.389   1.680   1.339
  737TIP3    H2 2176   5.254   1.613   1.341
  738TIP3   OH2 2177   6.940   0.302   2.243
  738TIP3    H1 2178   6.981   0.246   2.309
  738TIP3    H2 2179   6.854   0.322   2.278
  739TIP3   OH2 2180   4.309   2.640   2.770
  739TIP3    H1 2181   4.322   2.655   2.677
  739TIP3    H2 2182   4.219   2.607   2.777
  740TIP3   OH2 2183   5.964   4.150   5.592
  740TIP3    H1 2184   5.920   4.234   5.583
  740TIP3    H2 2185   6.057   4.172   5.602
  741TIP3   OH2 2186   6.160   5.363   3.198
  741TIP3    H1 2187   6.176   5.405   3.282
  741TIP3    H2 2188   6.242   5.372   3.150
  742TIP3   OH2 2189   6.213   4.248   2.310
  742TIP3    H1 2190   6.261   4.214   2.234
  742TIP3    H2 2191   6.122   4.224   2.293
  743TIP3   OH2 2192   4.805   0.545   3.657
  743TIP3    H1 2193   4.805   0.639   3.674
  743TIP3    H2 2194   4.873   0.533   3.590
  744TIP3   OH2 2195   5.343   4.665   2.157
  744TIP3    H1 2196   5.414   4.637   2.100
  744TIP3    H2 2197   5.269   4.680   2.098
  745TIP3   OH2 2198   3.348   0.946   0.495
  745TIP3    H1 2199   3.270   0.916   0.448
  745TIP3    H2 2200   3.317   0.968   0.582
  746TIP3   OH2 2201   6.259   2.654   4.136
  746TIP3    H1 2202   6.232   2.587   4.200
  746TIP3    H2 2203   6.226   2.622   4.052
  747TIP3   OH2 2204   1.433   2.886   5.842
  747TIP3    H1 2205   1.390   2.927   5.766
  747TIP3    H2 2206   1.511   2.845   5.806
  748TIP3   OH2 2207   4.310   2.422   1.861
  748TIP3    H1 2208   4.217   2.443   1.870
  748TIP3    H2 2209   4.318   2.332   1.893
  749TIP3   OH2 2210   5.934   1.225   4.222
  749TIP3    H1 2211   5.995   1.190   4.287
  749TIP3    H2 2212   5.859   1.254   4.274
  750TIP3   OH2 2213   3.736   3.948   1.684
  750TIP3    H1 2214   3.670   3.933   1.752
  750TIP3    H2 2215   3.689   3.995   1.615
  751TIP3   OH2 2216   4.613   5.960   1.228
  751TIP3    H1 2217   4.699   5.973   1.267
  751TIP3    H2 2218   4.596   6.041   1.180
  752TIP3   OH2 2219   1.695   4.485   2.098
  752TIP3    H1 2220   1.654   4.498   2.183
  752TIP3    H2 2221   1.701   4.390   2.088
  753TIP3   OH2 2222   5.854   4.940   1.545
  753TIP3    H1 2223   5.839   4.950   1.451
  753TIP3    H2 2224   5.767   4.937   1.583
  754TIP3   OH2 2225   5.180   5.274   4.196
  754TIP3    H1 2226   5.183   5.361   4.158
  754TIP3    H2 2227   5.213   5.285   4.285
  755TIP3   OH2 2228   4.828   1.211   1.121
  755TIP3    H1 2229   4.875   1.278   1.071
  755TIP3    H2 2230   4.822   1.137   1.061
  756TIP3   OH2 2231   2.520   6.489   2.502
  756TIP3    H1 2232   2.440   6.470   2.452
  756TIP3    H2 2233   2.544   6.578   2.477
  757TIP3   OH2 2234   0.434   4.613   2.636
  757TIP3    H1 2235   0.367   4.555   2.674
  757TIP3    H2 2236   0.503   4.616   2.702
  758TIP3   OH2 2237   5.965   2.387   2.656
  758TIP3    H1 2238   5.897   2.321   2.650
  758TIP3    H2 2239   5.961   2.419   2.746
  759TIP3   OH2 2240   6.454   1.786   2.863
  759TIP3    H1 2241   6.405   1.828   2.934
  759TIP3    H2 2242   6.521   1.734   2.908
  760TIP3   OH2 2243   6.084   4.884   2.432
  760TIP3    H1 2244   6.133   4.810   2.395
  760TIP3    H2 2245   6.152   4.942   2.468
  761TIP3   OH2 2246   6.305   0.366   2.821
  761TIP3    H1 2247   6.340   0.426   2.755
  761TIP3    H2 2248   6.308   0.280   2.780
  762TIP3   OH2 2249   2.420   0.339   1.858
  762TIP3    H1 2250   2.423   0.367   1.766
  762TIP3    H2 2251   2.511   0.319   1.880
  763TIP3   OH2 2252   4.203   5.006   4.168
  763TIP3    H1 2253   4.138   4.980   4.103
  763TIP3    H2 2254   4.264   4.933   4.172
  764TIP3   OH2 2255   6.570   4.337   1.672
  764TIP3    H1 2256   6.615   4.304   1.749
  764TIP3    H2 2257   6.559   4.260   1.615
  765TIP3   OH2 2258   3.766   3.109   0.847
  765TIP3    H1 2259   3.795   3.147   0.764
  765TIP3    H2 2260   3.731   3.182   0.897
  766TIP3   OH2 2261   3.962   5.242   1.237
  766TIP3    H1 2262   3.919   5.160   1.211
  766TIP3    H2 2263   4.014   5.266   1.160
  767TIP3   OH2 2264   0.839   2.671   2.766
  767TIP3    H1 2265   0.782   2.611   2.717
  767TIP3    H2 2266   0.840   2.634   2.855
  768TIP3   OH2 2267   4.350   6.137   0.989
  768TIP3    H1 2268   4.312   6.050   0.982
  768TIP3    H2 2269   4.345   6.173   0.901
  769TIP3   OH2 2270   5.115   0.121   0.775
  769TIP3    H1 2271   5.151   0.138   0.688
  769TIP3    H2 2272   5.075   0.034   0.768
  770TIP3   OH2 2273   1.093   5.162   4.773
  770TIP3    H1 2274   1.097   5.254   4.746
  770TIP3    H2 2275   1.035   5.161   4.849
  771TIP3   OH2 2276   2.713   1.235   4.360
  771TIP3    H1 2277   2.697   1.230   4.266
  771TIP3    H2 2278   2.798   1.192   4.372
  772TIP3   OH2 2279   0.456   2.082   4.029
  772TIP3    H1 2280   0.512   2.140   3.977
  772TIP3    H2 2281   0.518   2.032   4.083
  773TIP3   OH2 2282   5.146   2.753   3.815
  773TIP3    H1 2283   5.136   2.805   3.735
  773TIP3    H2 2284   5.152   2.663   3.784
  774TIP3   OH2 2285   5.935   1.095   0.012
  774TIP3    H1 2286   5.923   1.106   0.107
  774TIP3    H2 2287   5.884   1.166  -0.026
  775TIP3   OH2 2288   5.019   3.898   0.084
  775TIP3    H1 2289   4.950   3.961   0.106
  775TIP3    H2 2290   4.989   3.856   0.004
  776TIP3   OH2 2291   2.021   4.526   5.711
  776TIP3    H1 2292   2.088   4.583   5.674
  776TIP3    H2 2293   2.008   4.558   5.800
  777TIP3   OH2 2294   0.922   1.012   5.282
  777TIP3    H1 2295   0.879   1.097   5.292
  777TIP3    H2 2296   1.015   1.034   5.269
  778TIP3   OH2 2297   2.921   2.675   2.043
  778TIP3    H1 2298   2.828   2.656   2.034
  778TIP3    H2 2299   2.924   2.756   2.095
  779TIP3   OH2 2300   2.858   0.647   1.791
  779TIP3    H1 2301   2.794   0.718   1.795
  779TIP3    H2 2302   2.807   0.571   1.765
  780TIP3   OH2 2303   3.008   0.850   2.847
  780TIP3    H1 2304   2.953   0.904   2.903
  780TIP3    H2 2305   3.059   0.797   2.909
  781TIP3   OH2 2306   2.431   1.654   0.487
  781TIP3    H1 2307   2.495   1.616   0.547
  781TIP3    H2 2308   2.484   1.694   0.418
  782TIP3   OH2 2309   2.008   6.071   4.334
  782TIP3    H1 2310   1.978   6.074   4.425
  782TIP3    H2 2311   2.094   6.029   4.339
  783TIP3   OH2 2312   3.451   5.315   5.627
  783TIP3    H1 2313   3.428   5.405   5.605
  783TIP3    H2 2314   3.462   5.315   5.722
  784TIP3   OH2 2315   0.819   5.500   2.840
  784TIP3    H1 2316   0.861   5.523   2.922
  784TIP3    H2 2317   0.792   5.409   2.851
  785TIP3   OH2 2318   6.934   0.620   2.178
  785TIP3    H1 2319   7.006   0.561   2.156
  785TIP3    H2 2320   6.870   0.607   2.108
  786TIP3   OH2 2321   0.508   1.208   5.811
  786TIP3    H1 2322   0.518   1.138   5.876
  786TIP3    H2 2323   0.536   1.168   5.729
  787TIP3   OH2 2324   6.744   4.153   2.552
  787TIP3    H1 2325   6.674   4.089   2.560
  787TIP3    H2 2326   6.820   4.102   2.522
  788TIP3   OH2 2327   1.795   3.015   5.284
  788TIP3    H1 2328   1.767   3.105   5.300
  788TIP3    H2 2329   1.860   3.022   5.214
  789TIP3   OH2 2330   5.225   3.812   2.205
  789TIP3    H1 2331   5.143   3.843   2.168
  789TIP3    H2 2332   5.289   3.822   2.135
  790TIP3   OH2 2333   4.022   0.282   2.458
  790TIP3    H1 2334   3.931   0.306   2.478
  790TIP3    H2 2335   4.021   0.261   2.364
  791TIP3   OH2 2336   0.108   5.872   3.500
  791TIP3    H1 2337   0.091   5.836   3.587
  791TIP3    H2 2338   0.080   5.803   3.439
  792TIP3   OH2 2339   3.796   3.459   2.709
  792TIP3    H1 2340   3.866   3.427   2.652
  792TIP3    H2 2341   3.720   3.467   2.651
  793TIP3   OH2 2342   4.105   6.073   2.099
  793TIP3    H1 2343   4.169   6.012   2.136
  793TIP3    H2 2344   4.053   6.101   2.174
  794TIP3   OH2 2345   5.805   4.415   1.090
  794TIP3    H1 2346   5.894   4.399   1.119
  794TIP3    H2 2347   5.802   4.381   1.001
  795TIP3   OH2 2348   2.490   2.708   0.638
  795TIP3    H1 2349   2.407   2.736   0.676
  795TIP3    H2 2350   2.479   2.615   0.619
  796TIP3   OH2 2351   2.909   1.764   3.663
  796TIP3    H1 2352   2.926   1.829   3.594
  796TIP3    H2 2353   2.882   1.816   3.739
  797TIP3   OH2 2354   1.606   4.092   1.456
  797TIP3    H1 2355   1.654   4.131   1.529
  797TIP3    H2 2356   1.575   4.167   1.406
  798TIP3   OH2 2357   1.204   1.995   1.510
  798TIP3    H1 2358   1.268   1.953   1.452
  798TIP3    H2 2359   1.183   1.928   1.575
  799TIP3   OH2 2360   6.857   1.239   2.210
  799TIP3    H1 2361   6.872   1.174   2.141
  799TIP3    H2 2362   6.881   1.195   2.291
  800TIP3   OH2 2363   1.014   3.122   5.736
  800TIP3    H1 2364   1.048   3.036   5.712
  800TIP3    H2 2365   1.019   3.173   5.656
  801TIP3   OH2 2366   4.912   6.385   0.306
  801TIP3    H1 2367   4.896   6.375   0.400
  801TIP3    H2 2368   5.007   6.394   0.299
  802TIP3   OH2 2369   5.327   5.230   1.241
  802TIP3    H1 2370   5.364   5.315   1.266
  802TIP3    H2 2371   5.278   5.248   1.161
  803TIP3   OH2 2372   1.174   0.970   1.041
  803TIP3    H1 2373   1.144   1.056   1.071
  803TIP3    H2 2374   1.200   0.925   1.122
  804TIP3   OH2 2375   5.348   5.538   4.344
  804TIP3    H1 2376   5.337   5.484   4.422
  804TIP3    H2 2377   5.354   5.628   4.377
  805TIP3   OH2 2378   6.671   2.784   2.447
  805TIP3    H1 2379   6.742   2.848   2.444
  805TIP3    H2 2380   6.613   2.816   2.516
  806TIP3   OH2 2381   2.101   0.146   4.178
  806TIP3    H1 2382   2.068   0.203   4.108
  806TIP3    H2 2383   2.195   0.143   4.165
  807TIP3   OH2 2384   2.585   0.110   0.458
  807TIP3    H1 2385   2.529   0.125   0.533
  807TIP3    H2 2386   2.598   0.016   0.456
  808TIP3   OH2 2387   5.327   5.008   0.426
  808TIP3    H1 2388   5.403   5.066   0.431
  808TIP3    H2 2389   5.348   4.935   0.484
  809TIP3   OH2 2390   6.398   1.700   5.684
  809TIP3    H1 2391   6.451   1.764   5.731
  809TIP3    H2 2392   6.450   1.620   5.685
  810TIP3   OH2 2393   3.793   4.700   4.613
  810TIP3    H1 2394   3.822   4.612   4.587
  810TIP3    H2 2395   3.863   4.758   4.583
  811TIP3   OH2 2396   6.967   0.354   4.410
  811TIP3    H1 2397   6.875   0.375   4.395
  811TIP3    H2 2398   6.973   0.260   4.398
  812TIP3   OH2 2399   4.878   2.749   2.800
  812TIP3    H1 2400   4.871   2.844   2.811
  812TIP3    H2 2401   4.811   2.728   2.736
  813TIP3   OH2 2402   5.942   1.609   1.514
  813TIP3    H1 2403   5.922   1.701   1.531
  813TIP3    H2 2404   6.014   1.589   1.574
  814TIP3   OH2 2405   0.785   0.390   5.762
  814TIP3    H1 2406   0.817   0.402   5.851
  814TIP3    H2 2407   0.841   0.446   5.708
  815TIP3   OH2 2408   5.836   1.822   2.794
  815TIP3    H1 2409   5.864   1.764   2.865
  815TIP3    H2 2410   5.912   1.828   2.736
  816TIP3   OH2 2411   6.156   5.759   3.452
  816TIP3    H1 2412   6.196   5.750   3.366
  816TIP3    H2 2413   6.174   5.849   3.478
  817TIP3   OH2 2414   4.256   3.391   3.219
  817TIP3    H1 2415   4.222   3.381   3.308
  817TIP3    H2 2416   4.312   3.469   3.223
  818TIP3   OH2 2417   5.453   1.056   1.792
  818TIP3    H1 2418   5.490   1.062   1.704
  818TIP3    H2 2419   5.465   0.964   1.816
  819TIP3   OH2 2420   3.927   0.390   4.335
  819TIP3    H1 2421   3.856   0.358   4.390
  819TIP3    H2 2422   3.973   0.310   4.307
  820TIP3   OH2 2423   6.253   1.752   3.955
  820TIP3    H1 2424   6.231   1.779   3.866
  820TIP3    H2 2425   6.285   1.832   3.998
  821TIP3   OH2 2426   6.503   1.007   0.586
  821TIP3    H1 2427   6.436   0.954   0.629
  821TIP3    H2 2428   6.574   1.013   0.650
  822TIP3   OH2 2429   2.621   0.207   3.138
  822TIP3    H1 2430   2.528   0.211   3.160
  822TIP3    H2 2431   2.643   0.114   3.141
  823TIP3   OH2 2432   5.327   4.314   1.415
  823TIP3    H1 2433   5.386   4.388   1.433
  823TIP3    H2 2434   5.239   4.349   1.434
  824TIP3   OH2 2435   3.652   2.575   3.711
  824TIP3    H1 2436   3.618   2.559   3.799
  824TIP3    H2 2437   3.654   2.488   3.671
  825TIP3   OH2 2438   1.347   1.431   0.486
  825TIP3    H1 2439   1.299   1.509   0.514
  825TIP3    H2 2440   1.402   1.461   0.414
  826TIP3   OH2 2441   4.665   2.418   2.671
  826TIP3    H1 2442   4.622   2.378   2.596
  826TIP3    H2 2443   4.738   2.468   2.633
  827TIP3   OH2 2444   2.728   3.340   0.698
  827TIP3    H1 2445   2.761   3.338   0.788
  827TIP3    H2 2446   2.640   3.304   0.705
  828TIP3   OH2 2447   2.616   2.195   2.726
  828TIP3    H1 2448   2.608   2.278   2.773
  828TIP3    H2 2449   2.532   2.184   2.682
  829TIP3   OH2 2450   4.130   3.856   0.794
  829TIP3    H1 2451   4.194   3.786   0.778
  829TIP3    H2 2452   4.163   3.930   0.743
  830TIP3   OH2 2453   6.417   3.415   2.618
  830TIP3    H1 2454   6.349   3.458   2.567
  830TIP3    H2 2455   6.395   3.434   2.709
  831TIP3   OH2 2456   1.411   3.349   3.544
  831TIP3    H1 2457   1.360   3.421   3.507
  831TIP3    H2 2458   1.405   3.279   3.478
  832TIP3   OH2 2459   3.132   5.854   5.000
  832TIP3    H1 2460   3.084   5.794   4.942
  832TIP3    H2 2461   3.216   5.866   4.957
  833TIP3   OH2 2462   1.545   1.547   2.759
  833TIP3    H1 2463   1.451   1.536   2.744
  833TIP3    H2 2464   1.552   1.566   2.852
  834TIP3   OH2 2465   2.052   1.376   2.373
  834TIP3    H1 2466   2.138   1.405   2.343
  834TIP3    H2 2467   2.041   1.289   2.335
  835TIP3   OH2 2468   4.511   0.640   3.721
  835TIP3    H1 2469   4.588   0.625   3.777
  835TIP3    H2 2470   4.511   0.565   3.661
  836TIP3   OH2 2471   1.776   6.670   3.733
  836TIP3    H1 2472   1.724   6.722   3.794
  836TIP3    H2 2473   1.768   6.580   3.765
  837TIP3   OH2 2474   1.584   2.184   4.842
  837TIP3    H1 2475   1.609   2.193   4.750
  837TIP3    H2 2476   1.528   2.107   4.844
  838TIP3   OH2 2477   2.173   5.570   2.011
  838TIP3    H1 2478   2.232   5.505   2.049
  838TIP3    H2 2479   2.166   5.544   1.919
  839TIP3   OH2 2480   2.027   3.632   5.341
  839TIP3    H1 2481   2.061   3.706   5.290
  839TIP3    H2 2482   2.032   3.661   5.432
  840TIP3   OH2 2483   6.077   1.380   3.226
  840TIP3    H1 2484   6.054   1.455   3.280
  840TIP3    H2 2485   6.088   1.416   3.138
  841TIP3   OH2 2486   1.401   2.232   1.410
  841TIP3    H1 2487   1.458   2.156   1.396
  841TIP3    H2 2488   1.434   2.273   1.490
  842TIP3   OH2 2489   6.993   3.153   3.449
  842TIP3    H1 2490   7.011   3.062   3.473
  842TIP3    H2 2491   6.932   3.147   3.376
  843TIP3   OH2 2492   3.773   6.049   4.706
  843TIP3    H1 2493   3.832   6.110   4.752
  843TIP3    H2 2494   3.811   5.963   4.722
  844TIP3   OH2 2495   2.705   1.634   1.588
  844TIP3    H1 2496   2.743   1.568   1.646
  844TIP3    H2 2497   2.682   1.707   1.646
  845TIP3   OH2 2498   1.819   6.750   4.473
  845TIP3    H1 2499   1.857   6.711   4.552
  845TIP3    H2 2500   1.752   6.810   4.506
  846TIP3   OH2 2501   2.755   4.673   5.419
  846TIP3    H1 2502   2.803   4.702   5.341
  846TIP3    H2 2503   2.811   4.606   5.458
  847TIP3   OH2 2504   0.216   3.351   1.974
  847TIP3    H1 2505   0.195   3.387   1.888
  847TIP3    H2 2506   0.147   3.385   2.031
  848TIP3   OH2 2507   5.483   3.199   1.969
  848TIP3    H1 2508   5.412   3.252   1.933
  848TIP3    H2 2509   5.487   3.223   2.062
  849TIP3   OH2 2510   3.500   3.433   5.024
  849TIP3    H1 2511   3.539   3.395   4.945
  849TIP3    H2 2512   3.483   3.358   5.081
  850TIP3   OH2 2513   3.251   4.929   5.385
  850TIP3    H1 2514   3.230   4.851   5.333
  850TIP3    H2 2515   3.252   4.897   5.475
  851TIP3   OH2 2516   6.430   2.035   4.595
  851TIP3    H1 2517   6.438   1.945   4.564
  851TIP3    H2 2518   6.372   2.077   4.532
  852TIP3   OH2 2519   1.950   5.819   4.777
  852TIP3    H1 2520   2.005   5.897   4.775
  852TIP3    H2 2521   1.915   5.816   4.866
  853TIP3   OH2 2522   0.161   2.761   0.119
  853TIP3    H1 2523   0.234   2.771   0.058
  853TIP3    H2 2524   0.120   2.848   0.122
  854TIP3   OH2 2525   1.896   0.494   2.403
  854TIP3    H1 2526   1.901   0.405   2.370
  854TIP3    H2 2527   1.803   0.517   2.395
  855TIP3   OH2 2528   5.862   0.533   1.476
  855TIP3    H1 2529   5.851   0.594   1.549
  855TIP3    H2 2530   5.954   0.539   1.454
  856TIP3   OH2 2531   6.257   5.549   5.306
  856TIP3    H1 2532   6.298   5.614   5.249
  856TIP3    H2 2533   6.311   5.549   5.385
  857TIP3   OH2 2534   1.079   3.843   0.169
  857TIP3    H1 2535   1.171   3.868   0.163
  857TIP3    H2 2536   1.031   3.923   0.147
  858TIP3   OH2 2537   5.963   3.614   5.824
  858TIP3    H1 2538   6.001   3.702   5.835
  858TIP3    H2 2539   6.029   3.565   5.776
  859TIP3   OH2 2540   1.266   2.133   1.745
  859TIP3    H1 2541   1.215   2.065   1.701
  859TIP3    H2 2542   1.234   2.215   1.707
  860TIP3   OH2 2543   3.771   1.420   4.114
  860TIP3    H1 2544   3.712   1.345   4.126
  860TIP3    H2 2545   3.800   1.443   4.202
  861TIP3   OH2 2546   1.194   6.790   1.879
  861TIP3    H1 2547   1.254   6.819   1.811
  861TIP3    H2 2548   1.169   6.701   1.853
  862TIP3   OH2 2549   5.674   2.938   1.365
  862TIP3    H1 2550   5.720   2.925   1.282
  862TIP3    H2 2551   5.584   2.958   1.340
  863TIP3   OH2 2552   3.684   5.383   0.756
  863TIP3    H1 2553   3.708   5.391   0.849
  863TIP3    H2 2554   3.647   5.296   0.748
  864TIP3   OH2 2555   4.016   3.163   5.665
  864TIP3    H1 2556   4.013   3.249   5.706
  864TIP3    H2 2557   4.049   3.179   5.577
  865TIP3   OH2 2558   5.151   2.896   4.076
  865TIP3    H1 2559   5.141   2.862   3.987
  865TIP3    H2 2560   5.116   2.985   4.071
  866TIP3   OH2 2561   2.954   3.530   0.464
  866TIP3    H1 2562   3.003   3.570   0.535
  866TIP3    H2 2563   2.863   3.553   0.481
  867TIP3   OH2 2564   2.684   5.835   1.578
  867TIP3    H1 2565   2.699   5.845   1.484
  867TIP3    H2 2566   2.617   5.900   1.599
  868TIP3   OH2 2567   3.637   2.347   2.475
  868TIP3    H1 2568   3.630   2.259   2.437
  868TIP3    H2 2569   3.566   2.351   2.539
  869TIP3   OH2 2570   1.193   0.293   2.812
  869TIP3    H1 2571   1.251   0.237   2.864
  869TIP3    H2 2572   1.110   0.245   2.810
  870TIP3   OH2 2573   6.363   3.553   0.168
  870TIP3    H1 2574   6.393   3.640   0.142
  870TIP3    H2 2575   6.441   3.510   0.203
  871TIP3   OH2 2576   5.464   2.666   3.039
  871TIP3    H1 2577   5.416   2.607   2.982
  871TIP3    H2 2578   5.424   2.752   3.025
  872TIP3   OH2 2579   1.430   4.113   5.133
  872TIP3    H1 2580   1.423   4.208   5.131
  872TIP3    H2 2581   1.505   4.093   5.076
  873TIP3   OH2 2582   2.375   0.583   0.233
  873TIP3    H1 2583   2.363   0.494   0.198
  873TIP3    H2 2584   2.365   0.640   0.157
  874TIP3   OH2 2585   1.969   5.147   5.860
  874TIP3    H1 2586   2.031   5.216   5.838
  874TIP3    H2 2587   1.883   5.188   5.852
  875TIP3   OH2 2588   7.076   4.753   3.131
  875TIP3    H1 2589   7.039   4.826   3.081
  875TIP3    H2 2590   7.088   4.683   3.067
  876TIP3   OH2 2591   1.864   2.946   0.955
  876TIP3    H1 2592   1.773   2.918   0.964
  876TIP3    H2 2593   1.880   2.997   1.035
  877TIP3   OH2 2594   3.380   4.718   1.102
  877TIP3    H1 2595   3.347   4.785   1.162
  877TIP3    H2 2596   3.308   4.656   1.094
  878TIP3   OH2 2597   2.561   5.573   2.972
  878TIP3    H1 2598   2.551   5.506   3.040
  878TIP3    H2 2599   2.477   5.619   2.971
  879TIP3   OH2 2600   4.624   6.603   2.801
  879TIP3    H1 2601   4.679   6.534   2.837
  879TIP3    H2 2602   4.649   6.682   2.849
  880TIP3   OH2 2603   0.457   3.102   5.260
  880TIP3    H1 2604   0.496   3.051   5.330
  880TIP3    H2 2605   0.523   3.102   5.190
  881TIP3   OH2 2606   1.451   0.765   3.874
  881TIP3    H1 2607   1.511   0.754   3.801
  881TIP3    H2 2608   1.395   0.688   3.872
  882TIP3   OH2 2609   2.442   2.496   0.972
  882TIP3    H1 2610   2.358   2.542   0.968
  882TIP3    H2 2611   2.499   2.554   1.024
  883TIP3   OH2 2612   3.366   0.808   1.637
  883TIP3    H1 2613   3.332   0.808   1.726
  883TIP3    H2 2614   3.446   0.756   1.641
  884TIP3   OH2 2615   3.317   3.284   3.883
  884TIP3    H1 2616   3.266   3.205   3.868
  884TIP3    H2 2617   3.370   3.265   3.960
  885TIP3   OH2 2618   6.291   3.602   5.816
  885TIP3    H1 2619   6.282   3.594   5.721
  885TIP3    H2 2620   6.384   3.618   5.829
  886TIP3   OH2 2621   6.565   6.782   2.332
  886TIP3    H1 2622   6.555   6.719   2.403
  886TIP3    H2 2623   6.528   6.739   2.255
  887TIP3   OH2 2624   7.049   0.454   2.737
  887TIP3    H1 2625   7.048   0.391   2.665
  887TIP3    H2 2626   7.108   0.523   2.708
  888TIP3   OH2 2627   3.584   4.941   1.659
  888TIP3    H1 2628   3.542   4.955   1.744
  888TIP3    H2 2629   3.671   4.980   1.667
  889TIP3   OH2 2630   5.973   3.845   1.652
  889TIP3    H1 2631   6.031   3.899   1.706
  889TIP3    H2 2632   6.021   3.762   1.643
  890TIP3   OH2 2633   1.273   4.328   0.101
  890TIP3    H1 2634   1.341   4.265   0.127
  890TIP3    H2 2635   1.319   4.390   0.045
  891TIP3   OH2 2636   0.424   5.079   1.716
  891TIP3    H1 2637   0.384   5.019   1.653
  891TIP3    H2 2638   0.403   5.166   1.683
  892TIP3   OH2 2639   0.458   3.762   3.485
  892TIP3    H1 2640   0.519   3.694   3.514
  892TIP3    H2 2641   0.375   3.716   3.470
  893TIP3   OH2 2642   2.914   4.693   5.201
  893TIP3    H1 2643   2.925   4.788   5.204
  893TIP3    H2 2644   3.003   4.658   5.190
  894TIP3   OH2 2645   5.321   1.009   0.417
  894TIP3    H1 2646   5.288   1.095   0.442
  894TIP3    H2 2647   5.416   1.016   0.426
  895TIP3   OH2 2648   5.875   2.963   1.159
  895TIP3    H1 2649   5.833   3.048   1.174
  895TIP3    H2 2650   5.910   2.968   1.070
  896TIP3   OH2 2651   6.885   3.263   1.649
  896TIP3    H1 2652   6.935   3.340   1.625
  896TIP3    H2 2653   6.940   3.189   1.623
  897TIP3   OH2 2654   4.863   4.456   0.374
  897TIP3    H1 2655   4.916   4.493   0.444
  897TIP3    H2 2656   4.826   4.376   0.411
  898TIP3   OH2 2657   0.938   0.729   4.707
  898TIP3    H1 2658   0.973   0.712   4.794
  898TIP3    H2 2659   0.857   0.678   4.704
  899TIP3   OH2 2660   6.031   1.238   5.157
  899TIP3    H1 2661   6.040   1.318   5.105
  899TIP3    H2 2662   6.102   1.182   5.125
  900TIP3   OH2 2663   4.866   3.728   4.618
  900TIP3    H1 2664   4.923   3.764   4.686
  900TIP3    H2 2665   4.813   3.802   4.588
  901TIP3   OH2 2666   1.289   1.773   4.720
  901TIP3    H1 2667   1.269   1.821   4.640
  901TIP3    H2 2668   1.204   1.736   4.748
  902TIP3   OH2 2669   1.532   1.541   1.709
  902TIP3    H1 2670   1.547   1.625   1.667
  902TIP3    H2 2671   1.508   1.562   1.799
  903TIP3   OH2 2672   4.069   1.496   5.865
  903TIP3    H1 2673   4.121   1.473   5.788
  903TIP3    H2 2674   4.082   1.591   5.874
  904TIP3   OH2 2675   2.785   1.156   5.544
  904TIP3    H1 2676   2.744   1.216   5.481
  904TIP3    H2 2677   2.878   1.159   5.524
  905TIP3   OH2 2678   0.650   5.614   4.982
  905TIP3    H1 2679   0.679   5.523   4.984
  905TIP3    H2 2680   0.559   5.612   5.012
  906TIP3   OH2 2681   4.429   0.288   1.837
  906TIP3    H1 2682   4.449   0.287   1.744
  906TIP3    H2 2683   4.493   0.349   1.874
  907TIP3   OH2 2684   3.761   6.761   4.928
  907TIP3    H1 2685   3.690   6.702   4.953
  907TIP3    H2 2686   3.812   6.772   5.008
  908TIP3   OH2 2687   2.214   4.412   2.589
  908TIP3    H1 2688   2.144   4.449   2.641
  908TIP3    H2 2689   2.294   4.431   2.638
  909TIP3   OH2 2690   5.521   4.128   0.485
  909TIP3    H1 2691   5.485   4.042   0.464
  909TIP3    H2 2692   5.572   4.152   0.408
  910TIP3   OH2 2693   0.692   6.479   0.763
  910TIP3    H1 2694   0.609   6.465   0.809
  910TIP3    H2 2695   0.681   6.429   0.681
  911TIP3   OH2 2696   3.919   3.958   4.932
  911TIP3    H1 2697   3.938   4.035   4.985
  911TIP3    H2 2698   3.960   3.976   4.847
  912TIP3   OH2 2699   3.073   0.701   3.745
  912TIP3    H1 2700   3.157   0.747   3.742
  912TIP3    H2 2701   3.093   0.619   3.791
  913TIP3   OH2 2702   5.457   2.348   1.816
  913TIP3    H1 2703   5.488   2.396   1.893
  913TIP3    H2 2704   5.390   2.289   1.850
  914TIP3   OH2 2705   3.547   4.139   5.249
  914TIP3    H1 2706   3.625   4.087   5.271
  914TIP3    H2 2707   3.541   4.132   5.154
  915TIP3   OH2 2708   4.728   4.993   4.356
  915TIP3    H1 2709   4.678   5.031   4.284
  915TIP3    H2 2710   4.817   5.027   4.343
  916TIP3   OH2 2711   5.294   2.677   5.480
  916TIP3    H1 2712   5.226   2.737   5.512
  916TIP3    H2 2713   5.369   2.733   5.462
  917TIP3   OH2 2714   1.987   1.172   5.422
  917TIP3    H1 2715   1.939   1.097   5.386
  917TIP3    H2 2716   2.072   1.170   5.379
  918TIP3   OH2 2717   3.539   1.678   3.339
  918TIP3    H1 2718   3.546   1.770   3.364
  918TIP3    H2 2719   3.527   1.631   3.422
  919TIP3   OH2 2720   5.409   6.072   4.840
  919TIP3    H1 2721   5.424   6.165   4.827
  919TIP3    H2 2722   5.448   6.053   4.926
  920TIP3   OH2 2723   3.133   0.638   0.536
  920TIP3    H1 2724   3.137   0.727   0.501
  920TIP3    H2 2725   3.079   0.590   0.475
  921TIP3   OH2 2726   5.778   6.570   1.106
  921TIP3    H1 2727   5.684   6.590   1.115
  921TIP3    H2 2728   5.804   6.538   1.192
  922TIP3   OH2 2729   6.542   3.372   2.283
  922TIP3    H1 2730   6.581   3.342   2.365
  922TIP3    H2 2731   6.486   3.446   2.309
  923TIP3   OH2 2732   6.892   1.862   1.903
  923TIP3    H1 2733   6.965   1.838   1.847
  923TIP3    H2 2734   6.870   1.952   1.878
  924TIP3   OH2 2735   6.906   2.100   5.342
  924TIP3    H1 2736   6.810   2.102   5.339
  924TIP3    H2 2737   6.929   2.144   5.423
  925TIP3   OH2 2738   6.030   0.231   3.146
  925TIP3    H1 2739   5.996   0.237   3.235
  925TIP3    H2 2740   6.095   0.301   3.140
  926TIP3   OH2 2741   0.028   0.406   0.143
  926TIP3    H1 2742   0.107   0.456   0.162
  926TIP3    H2 2743   0.002   0.436   0.056
  927TIP3   OH2 2744   5.807   3.447   5.076
  927TIP3    H1 2745   5.827   3.362   5.116
  927TIP3    H2 2746   5.798   3.429   4.983
  928TIP3   OH2 2747   0.926   1.353   0.049
  928TIP3    H1 2748   0.848   1.375   0.101
  928TIP3    H2 2749   0.995   1.342   0.115
  929TIP3   OH2 2750   6.643   1.940   5.156
  929TIP3    H1 2751   6.646   1.868   5.094
  929TIP3    H2 2752   6.697   1.911   5.230
  930TIP3   OH2 2753   5.122   1.177   0.085
  930TIP3    H1 2754   5.146   1.086   0.103
  930TIP3    H2 2755   5.204   1.220   0.063
  931TIP3   OH2 2756   1.629   2.295   0.329
  931TIP3    H1 2757   1.685   2.291   0.406
  931TIP3    H2 2758   1.688   2.284   0.254
  932TIP3   OH2 2759   1.849   6.344   2.239
  932TIP3    H1 2760   1.930   6.329   2.288
  932TIP3    H2 2761   1.779   6.317   2.298
  933TIP3   OH2 2762   2.963   2.609   3.362
  933TIP3    H1 2763   3.012   2.624   3.444
  933TIP3    H2 2764   2.931   2.520   3.370
  934TIP3   OH2 2765   3.534   6.517   2.278
  934TIP3    H1 2766   3.593   6.580   2.236
  934TIP3    H2 2767   3.563   6.513   2.369
  935TIP3   OH2 2768   6.734   5.958   4.751
  935TIP3    H1 2769   6.800   5.903   4.794
  935TIP3    H2 2770   6.650   5.922   4.780
  936TIP3   OH2 2771   3.799   4.055   4.141
  936TIP3    H1 2772   3.883   4.085   4.174
  936TIP3    H2 2773   3.769   4.126   4.084
  937TIP3   OH2 2774   5.262   1.479   1.175
  937TIP3    H1 2775   5.260   1.570   1.145
  937TIP3    H2 2776   5.354   1.464   1.198
  938TIP3   OH2 2777   6.630   0.023   3.315
  938TIP3    H1 2778   6.572   0.044   3.388
  938TIP3    H2 2779   6.718   0.034   3.350
  939TIP3   OH2 2780   2.621   6.745   5.195
  939TIP3    H1 2781   2.568   6.822   5.175
  939TIP3    H2 2782   2.710   6.770   5.172
  940TIP3   OH2 2783   6.815   1.221   1.053
  940TIP3    H1 2784   6.902   1.234   1.016
  940TIP3    H2 2785   6.801   1.298   1.109
  941TIP3   OH2 2786   6.746   2.656   0.076
  941TIP3    H1 2787   6.820   2.716   0.072
  941TIP3    H2 2788   6.778   2.575   0.038
  942TIP3   OH2 2789   2.824   4.162   5.430
  942TIP3    H1 2790   2.764   4.110   5.484
  942TIP3    H2 2791   2.867   4.099   5.373
  943TIP3   OH2 2792   5.377   6.008   0.975
  943TIP3    H1 2793   5.443   5.945   1.004
  943TIP3    H2 2794   5.366   6.067   1.049
  944TIP3   OH2 2795   4.002   1.798   4.985
  944TIP3    H1 2796   4.046   1.716   5.010
  944TIP3    H2 2797   3.966   1.831   5.067
  945TIP3   OH2 2798   0.896   2.861   1.807
  945TIP3    H1 2799   0.854   2.821   1.883
  945TIP3    H2 2800   0.981   2.889   1.840
  946TIP3   OH2 2801   5.642   3.317   4.481
  946TIP3    H1 2802   5.713   3.356   4.431
  946TIP3    H2 2803   5.642   3.364   4.565
  947TIP3   OH2 2804   6.287   6.187   2.847
  947TIP3    H1 2805   6.194   6.197   2.825
  947TIP3    H2 2806   6.291   6.198   2.942
  948TIP3   OH2 2807   3.961   5.918   0.980
  948TIP3    H1 2808   3.875   5.949   0.951
  948TIP3    H2 2809   3.947   5.827   1.005
  949TIP3   OH2 2810   4.309   6.661   0.316
  949TIP3    H1 2811   4.355   6.715   0.252
  949TIP3    H2 2812   4.224   6.703   0.327
  950TIP3   OH2 2813   3.456   2.251   0.721
  950TIP3    H1 2814   3.465   2.173   0.776
  950TIP3    H2 2815   3.368   2.243   0.683
  951TIP3   OH2 2816   6.599   1.442   2.468
  951TIP3    H1 2817   6.622   1.453   2.376
  951TIP3    H2 2818   6.670   1.390   2.505
  952TIP3   OH2 2819   2.352   5.892   0.231
  952TIP3    H1 2820   2.389   5.824   0.289
  952TIP3    H2 2821   2.335   5.847   0.149
  953TIP3   OH2 2822   5.198   1.270   3.398
  953TIP3    H1 2823   5.180   1.177   3.390
  953TIP3    H2 2824   5.289   1.275   3.427
  954TIP3   OH2 2825   3.346   2.627   2.419
  954TIP3    H1 2826   3.338   2.699   2.482
  954TIP3    H2 2827   3.261   2.584   2.422
  955TIP3   OH2 2828   2.090   6.669   4.055
  955TIP3    H1 2829   2.118   6.622   4.134
  955TIP3    H2 2830   2.140   6.750   4.056
  956TIP3   OH2 2831   3.875   5.238   1.917
  956TIP3    H1 2832   3.887   5.145   1.937
  956TIP3    H2 2833   3.806   5.266   1.977
  957TIP3   OH2 2834   6.670   4.589   1.728
  957TIP3    H1 2835   6.765   4.600   1.726
  957TIP3    H2 2836   6.654   4.509   1.678
  958TIP3   OH2 2837   0.824   5.014   1.101
  958TIP3    H1 2838   0.771   5.031   1.179
  958TIP3    H2 2839   0.834   4.919   1.100
  959TIP3   OH2 2840   6.684   4.750   3.206
  959TIP3    H1 2841   6.629   4.696   3.150
  959TIP3    H2 2842   6.689   4.702   3.289
  960TIP3   OH2 2843   1.428   0.588   0.774
  960TIP3    H1 2844   1.511   0.544   0.753
  960TIP3    H2 2845   1.376   0.580   0.695
  961TIP3   OH2 2846   1.533   1.354   4.907
  961TIP3    H1 2847   1.510   1.445   4.886
  961TIP3    H2 2848   1.563   1.317   4.824
  962TIP3   OH2 2849   6.963   2.142   0.761
  962TIP3    H1 2850   6.982   2.050   0.778
  962TIP3    H2 2851   7.016   2.190   0.825
  963TIP3   OH2 2852   4.429   6.176   2.427
  963TIP3    H1 2853   4.507   6.204   2.379
  963TIP3    H2 2854   4.461   6.152   2.514
  964TIP3   OH2 2855   0.030   3.621   5.695
  964TIP3    H1 2856   0.063   3.537   5.727
  964TIP3    H2 2857  -0.065   3.616   5.710
  965TIP3   OH2 2858   7.099   1.156   3.304
  965TIP3    H1 2859   7.154   1.218   3.352
  965TIP3    H2 2860   7.112   1.178   3.212
  966TIP3   OH2 2861  -0.023   5.049   2.007
  966TIP3    H1 2862   0.059   4.999   2.008
  966TIP3    H2 2863   0.004   5.141   2.004
  967TIP3   OH2 2864   5.074   1.171   4.824
  967TIP3    H1 2865   5.139   1.104   4.803
  967TIP3    H2 2866   5.044   1.202   4.738
  968TIP3   OH2 2867   3.555   2.194   5.314
  968TIP3    H1 2868   3.513   2.187   5.228
  968TIP3    H2 2869   3.602   2.112   5.324
  969TIP3   OH2 2870   6.858   6.063   3.105
  969TIP3    H1 2871   6.865   6.075   3.200
  969TIP3    H2 2872   6.920   6.126   3.068
  970TIP3   OH2 2873   0.190   0.058   1.654
  970TIP3    H1 2874   0.192  -0.037   1.665
  970TIP3    H2 2875   0.097   0.079   1.642
  971TIP3   OH2 2876   6.903   3.009   1.268
  971TIP3    H1 2877   6.808   3.004   1.280
  971TIP3    H2 2878   6.937   3.035   1.353
  972TIP3   OH2 2879   0.373   4.919   1.469
  972TIP3    H1 2880   0.418   4.835   1.483
  972TIP3    H2 2881   0.280   4.898   1.478
  973TIP3   OH2 2882   2.008   6.157   1.829
  973TIP3    H1 2883   2.022   6.203   1.912
  973TIP3    H2 2884   2.012   6.064   1.853
  974TIP3   OH2 2885   4.020   5.149   2.281
  974TIP3    H1 2886   3.935   5.159   2.236
  974TIP3    H2 2887   4.039   5.055   2.275
  975TIP3   OH2 2888   5.761   6.526   2.784
  975TIP3    H1 2889   5.694   6.596   2.781
  975TIP3    H2 2890   5.753   6.490   2.872
  976TIP3   OH2 2891   1.053   0.706   4.174
  976TIP3    H1 2892   1.039   0.736   4.084
  976TIP3    H2 2893   1.130   0.754   4.204
  977TIP3   OH2 2894   1.806   0.620   1.003
  977TIP3    H1 2895   1.754   0.700   1.008
  977TIP3    H2 2896   1.789   0.586   0.915
  978TIP3   OH2 2897   0.432   6.045   2.444
  978TIP3    H1 2898   0.393   6.080   2.524
  978TIP3    H2 2899   0.441   6.122   2.387
  979TIP3   OH2 2900   0.349   2.853   4.322
  979TIP3    H1 2901   0.279   2.907   4.284
  979TIP3    H2 2902   0.336   2.860   4.416
  980TIP3   OH2 2903   3.408   5.579   3.560
  980TIP3    H1 2904   3.458   5.501   3.582
  980TIP3    H2 2905   3.325   5.568   3.606
  981TIP3   OH2 2906   3.954   6.708   5.711
  981TIP3    H1 2907   4.047   6.732   5.705
  981TIP3    H2 2908   3.953   6.613   5.705
  982TIP3   OH2 2909   3.967   5.114   3.984
  982TIP3    H1 2910   3.997   5.198   3.951
  982TIP3    H2 2911   3.951   5.062   3.905
  983TIP3   OH2 2912   0.047   5.118   1.306
  983TIP3    H1 2913   0.034   5.093   1.214
  983TIP3    H2 2914  -0.003   5.053   1.356
  984TIP3   OH2 2915   6.122   3.053   2.637
  984TIP3    H1 2916   6.133   3.097   2.722
  984TIP3    H2 2917   6.189   3.091   2.581
  985TIP3   OH2 2918   6.079   3.520   0.189
  985TIP3    H1 2919   6.023   3.597   0.186
  985TIP3    H2 2920   6.164   3.551   0.158
  986TIP3   OH2 2921   4.193   1.622   5.006
  986TIP3    H1 2922   4.256   1.568   4.958
  986TIP3    H2 2923   4.246   1.677   5.063
  987TIP3   OH2 2924   1.610   6.748   5.084
  987TIP3    H1 2925   1.650   6.689   5.148
  987TIP3    H2 2926   1.679   6.810   5.062
  988TIP3   OH2 2927   0.306   3.837   0.752
  988TIP3    H1 2928   0.327   3.750   0.786
  988TIP3    H2 2929   0.376   3.856   0.690
  989TIP3   OH2 2930   3.270   6.148   4.873
  989TIP3    H1 2931   3.274   6.056   4.902
  989TIP3    H2 2932   3.338   6.154   4.805
  990TIP3   OH2 2933   2.239   5.405   4.944
  990TIP3    H1 2934   2.238   5.473   4.877
  990TIP3    H2 2935   2.147   5.381   4.956
  991TIP3   OH2 2936   2.519   6.067   0.730
  991TIP3    H1 2937   2.461   6.029   0.664
  991TIP3    H2 2938   2.603   6.023   0.716
  992TIP3   OH2 2939   4.281   6.804   4.941
  992TIP3    H1 2940   4.250   6.878   4.889
  992TIP3    H2 2941   4.204   6.749   4.953
  993TIP3   OH2 2942   3.306  -0.001   1.627
  993TIP3    H1 2943   3.293   0.094   1.630
  993TIP3    H2 2944   3.293  -0.030   1.717
  994TIP3   OH2 2945   3.456   6.737   2.842
  994TIP3    H1 2946   3.467   6.696   2.928
  994TIP3    H2 2947   3.388   6.685   2.799
  995TIP3   OH2 2948   6.560   6.255   5.600
  995TIP3    H1 2949   6.498   6.184   5.619
  995TIP3    H2 2950   6.567   6.256   5.504
  996TIP3   OH2 2951   1.010   2.500   5.095
  996TIP3    H1 2952   0.975   2.587   5.117
  996TIP3    H2 2953   1.104   2.506   5.115
  997TIP3   OH2 2954   3.361   4.902   3.787
  997TIP3    H1 2955   3.390   4.971   3.728
  997TIP3    H2 2956   3.441   4.856   3.812
  998TIP3   OH2 2957   3.888   4.453   4.559
  998TIP3    H1 2958   3.956   4.406   4.510
  998TIP3    H2 2959   3.872   4.399   4.636
  999TIP3   OH2 2960   0.516   5.416   2.328
  999TIP3    H1 2961   0.473   5.497   2.354
  999TIP3    H2 2962   0.526   5.368   2.410
 1000TIP3   OH2 2963   6.665   0.944   2.349
 1000TIP3    H1 2964   6.662   0.881   2.277
 1000TIP3    H2 2965   6.750   0.988   2.339
 1001TIP3   OH2 2966   0.410   5.911   1.817
 1001TIP3    H1 2967   0.368   5.940   1.898
 1001TIP3    H2 2968   0.417   5.815   1.826
 1002TIP3   OH2 2969   0.568   0.428   3.816
 1002TIP3    H1 2970   0.540   0.344   3.851
 1002TIP3    H2 2971   0.588   0.480   3.894
 1003TIP3   OH2 2972   3.122   2.395   0.856
 1003TIP3    H1 2973   3.106   2.333   0.926
 1003TIP3    H2 2974   3.060   2.466   0.872
 1004TIP3   OH2 2975   3.093   5.977   4.489
 1004TIP3    H1 2976   3.057   5.990   4.577
 1004TIP3    H2 2977   3.142   5.895   4.495
 1005TIP3   OH2 2978   1.776   0.764   4.606
 1005TIP3    H1 2979   1.762   0.670   4.601
 1005TIP3    H2 2980   1.739   0.798   4.525
 1006TIP3   OH2 2981   1.347   1.238   5.323
 1006TIP3    H1 2982   1.327   1.242   5.229
 1006TIP3    H2 2983   1.314   1.153   5.351
 1007TIP3   OH2 2984   5.499   2.814   5.659
 1007TIP3    H1 2985   5.544   2.770   5.587
 1007TIP3    H2 2986   5.456   2.743   5.707
 1008TIP3   OH2 2987   4.232   6.136   1.403
 1008TIP3    H1 2988   4.284   6.189   1.343
 1008TIP3    H2 2989   4.158   6.105   1.351
 1009TIP3   OH2 2990   6.046   6.325   5.172
 1009TIP3    H1 2991   5.991   6.303   5.247
 1009TIP3    H2 2992   5.989   6.311   5.096
 1010TIP3   OH2 2993   6.044   6.597   0.757
 1010TIP3    H1 2994   6.048   6.689   0.733
 1010TIP3    H2 2995   5.964   6.565   0.715
 1011TIP3   OH2 2996   6.322   3.834   1.998
 1011TIP3    H1 2997   6.346   3.748   1.963
 1011TIP3    H2 2998   6.341   3.895   1.927
 1012TIP3   OH2 2999   5.240   3.817   4.238
 1012TIP3    H1 3000   5.170   3.873   4.206
 1012TIP3    H2 3001   5.304   3.878   4.275
 1013TIP3   OH2 3002   3.985   0.123   1.877
 1013TIP3    H1 3003   4.024   0.039   1.853
 1013TIP3    H2 3004   3.922   0.141   1.806
 1014TIP3   OH2 3005   6.001   1.481   4.994
 1014TIP3    H1 3006   5.949   1.544   4.945
 1014TIP3    H2 3007   6.080   1.469   4.941
 1015TIP3   OH2 3008   3.573   0.247   4.733
 1015TIP3    H1 3009   3.599   0.267   4.823
 1015TIP3    H2 3010   3.487   0.207   4.741
 1016TIP3   OH2 3011   3.091   3.339   0.707
 1016TIP3    H1 3012   3.085   3.434   0.724
 1016TIP3    H2 3013   3.021   3.322   0.643
 1017TIP3   OH2 3014   0.086   3.808  -0.015
 1017TIP3    H1 3015   0.007   3.762  -0.044
 1017TIP3    H2 3016   0.141   3.739   0.022
 1018TIP3   OH2 3017   7.021   4.195   5.626
 1018TIP3    H1 3018   6.990   4.156   5.545
 1018TIP3    H2 3019   7.026   4.289   5.607
 1019TIP3   OH2 3020   4.494   2.994   3.145
 1019TIP3    H1 3021   4.579   2.971   3.184
 1019TIP3    H2 3022   4.469   2.918   3.095
 1020TIP3   OH2 3023   0.194   3.126   0.665
 1020TIP3    H1 3024   0.235   3.046   0.632
 1020TIP3    H2 3025   0.240   3.197   0.620
 1021TIP3   OH2 3026   2.802   5.621   1.720
 1021TIP3    H1 3027   2.755   5.685   1.666
 1021TIP3    H2 3028   2.822   5.668   1.801
 1022TIP3   OH2 3029   5.398   5.777   5.415
 1022TIP3    H1 3030   5.307   5.762   5.441
 1022TIP3    H2 3031   5.399   5.758   5.321
 1023TIP3   OH2 3032   3.339   6.441   1.644
 1023TIP3    H1 3033   3.422   6.477   1.613
 1023TIP3    H2 3034   3.347   6.346   1.633
 1024TIP3   OH2 3035   3.672   5.555   1.387
 1024TIP3    H1 3036   3.602   5.570   1.450
 1024TIP3    H2 3037   3.720   5.479   1.422
 1025TIP3   OH2 3038   6.808   6.511   0.481
 1025TIP3    H1 3039   6.761   6.553   0.409
 1025TIP3    H2 3040   6.768   6.546   0.560
 1026TIP3   OH2 3041   0.930   3.852   0.516
 1026TIP3    H1 3042   0.849   3.854   0.465
 1026TIP3    H2 3043   0.967   3.939   0.505
 1027TIP3   OH2 3044   3.465   1.711   2.034
 1027TIP3    H1 3045   3.386   1.659   2.020
 1027TIP3    H2 3046   3.432   1.798   2.058
 1028TIP3   OH2 3047   0.516   4.767   0.482
 1028TIP3    H1 3048   0.481   4.757   0.570
 1028TIP3    H2 3049   0.547   4.679   0.458
 1029TIP3   OH2 3050   0.150   1.386   5.455
 1029TIP3    H1 3051   0.166   1.294   5.435
 1029TIP3    H2 3052   0.196   1.401   5.537
 1030TIP3   OH2 3053   0.212   1.740   0.412
 1030TIP3    H1 3054   0.150   1.772   0.346
 1030TIP3    H2 3055   0.250   1.661   0.373
 1031TIP3   OH2 3056   0.161   0.055   0.799
 1031TIP3    H1 3057   0.115   0.138   0.787
 1031TIP3    H2 3058   0.091  -0.010   0.805
 1032TIP3   OH2 3059   1.845   3.135   3.080
 1032TIP3    H1 3060   1.793   3.188   3.020
 1032TIP3    H2 3061   1.924   3.112   3.030
 1033TIP3   OH2 3062   0.531   6.109   4.648
 1033TIP3    H1 3063   0.596   6.172   4.620
 1033TIP3    H2 3064   0.522   6.122   4.743
 1034TIP3   OH2 3065   5.303   4.199   2.770
 1034TIP3    H1 3066   5.285   4.226   2.680
 1034TIP3    H2 3067   5.372   4.258   2.800
 1035TIP3   OH2 3068   3.556   0.264   4.105
 1035TIP3    H1 3069   3.529   0.176   4.129
 1035TIP3    H2 3070   3.521   0.320   4.174
 1036TIP3   OH2 3071   2.098   0.370   0.986
 1036TIP3    H1 3072   2.068   0.317   0.912
 1036TIP3    H2 3073   2.184   0.334   1.008
 1037TIP3   OH2 3074   6.486   5.825   4.770
 1037TIP3    H1 3075   6.398   5.858   4.789
 1037TIP3    H2 3076   6.491   5.743   4.820
 1038TIP3   OH2 3077   2.247   5.494   1.250
 1038TIP3    H1 3078   2.213   5.580   1.275
 1038TIP3    H2 3079   2.313   5.513   1.183
 1039TIP3   OH2 3080   4.148   2.874   3.973
 1039TIP3    H1 3081   4.069   2.914   3.938
 1039TIP3    H2 3082   4.118   2.794   4.016
 1040TIP3   OH2 3083   1.240   5.028   1.497
 1040TIP3    H1 3084   1.300   5.094   1.461
 1040TIP3    H2 3085   1.153   5.060   1.473
 1041TIP3   OH2 3086   5.144   4.208   0.261
 1041TIP3    H1 3087   5.234   4.186   0.237
 1041TIP3    H2 3088   5.152   4.291   0.309
 1042TIP3   OH2 3089   1.639   2.985   5.545
 1042TIP3    H1 3090   1.651   2.915   5.609
 1042TIP3    H2 3091   1.705   2.967   5.477
 1043TIP3   OH2 3092   0.860   0.227   2.900
 1043TIP3    H1 3093   0.931   0.234   2.964
 1043TIP3    H2 3094   0.782   0.256   2.948
 1044TIP3   OH2 3095   0.363   6.493   0.917
 1044TIP3    H1 3096   0.416   6.455   0.987
 1044TIP3    H2 3097   0.360   6.425   0.850
 1045TIP3   OH2 3098   4.264   0.079   5.044
 1045TIP3    H1 3099   4.351   0.045   5.065
 1045TIP3    H2 3100   4.279   0.172   5.026
 1046TIP3   OH2 3101   0.789   1.070   3.093
 1046TIP3    H1 3102   0.716   1.131   3.082
 1046TIP3    H2 3103   0.818   1.083   3.183
 1047TIP3   OH2 3104   4.389   4.668   2.695
 1047TIP3    H1 3105   4.400   4.669   2.600
 1047TIP3    H2 3106   4.457   4.610   2.726
 1048TIP3   OH2 3107   2.277   6.256   4.266
 1048TIP3    H1 3108   2.268   6.167   4.300
 1048TIP3    H2 3109   2.351   6.250   4.205
 1049TIP3   OH2 3110   1.122   0.404   1.906
 1049TIP3    H1 3111   1.079   0.381   1.988
 1049TIP3    H2 3112   1.060   0.376   1.838
 1050TIP3   OH2 3113   1.341   2.701   2.237
 1050TIP3    H1 3114   1.293   2.629   2.278
 1050TIP3    H2 3115   1.406   2.658   2.181
 1051TIP3   OH2 3116   4.099   6.600   0.572
 1051TIP3    H1 3117   4.191   6.594   0.599
 1051TIP3    H2 3118   4.055   6.644   0.645
 1052TIP3   OH2 3119   0.225   0.529   2.846
 1052TIP3    H1 3120   0.196   0.613   2.882
 1052TIP3    H2 3121   0.318   0.540   2.830
 1053TIP3   OH2 3122   6.666   4.049   0.919
 1053TIP3    H1 3123   6.698   3.959   0.915
 1053TIP3    H2 3124   6.706   4.092   0.843
 1054TIP3   OH2 3125   2.703   0.195   4.270
 1054TIP3    H1 3126   2.746   0.220   4.188
 1054TIP3    H2 3127   2.748   0.246   4.337
 1055TIP3   OH2 3128   1.372   5.031   2.488
 1055TIP3    H1 3129   1.316   5.095   2.533
 1055TIP3    H2 3130   1.311   4.974   2.441
 1056TIP3   OH2 3131   7.085   0.104   2.412
 1056TIP3    H1 3132   7.174   0.069   2.412
 1056TIP3    H2 3133   7.029   0.028   2.397
 1057TIP3   OH2 3134   2.227   1.570   5.115
 1057TIP3    H1 3135   2.190   1.630   5.180
 1057TIP3    H2 3136   2.154   1.513   5.091
 1058TIP3   OH2 3137   2.202   2.617   0.963
 1058TIP3    H1 3138   2.165   2.615   1.051
 1058TIP3    H2 3139   2.149   2.679   0.915
 1059TIP3   OH2 3140   0.444   5.882   0.218
 1059TIP3    H1 3141   0.429   5.931   0.137
 1059TIP3    H2 3142   0.387   5.805   0.210
 1060TIP3   OH2 3143   0.801   1.176   5.022
 1060TIP3    H1 3144   0.741   1.137   4.958
 1060TIP3    H2 3145   0.874   1.114   5.028
 1061TIP3   OH2 3146   6.805   2.377   1.053
 1061TIP3    H1 3147   6.734   2.438   1.068
 1061TIP3    H2 3148   6.881   2.432   1.036
 1062TIP3   OH2 3149   6.944   6.032   5.615
 1062TIP3    H1 3150   6.954   5.939   5.595
 1062TIP3    H2 3151   6.897   6.034   5.699
 1063TIP3   OH2 3152   6.615   1.456   3.703
 1063TIP3    H1 3153   6.670   1.500   3.767
 1063TIP3    H2 3154   6.561   1.396   3.755
 1064TIP3   OH2 3155   3.430   6.634   0.746
 1064TIP3    H1 3156   3.380   6.579   0.807
 1064TIP3    H2 3157   3.510   6.584   0.729
 1065TIP3   OH2 3158   0.237   5.233   2.384
 1065TIP3    H1 3159   0.326   5.267   2.389
 1065TIP3    H2 3160   0.185   5.296   2.435
 1066TIP3   OH2 3161   0.223   5.183   2.732
 1066TIP3    H1 3162   0.236   5.195   2.826
 1066TIP3    H2 3163   0.276   5.107   2.710
 1067TIP3   OH2 3164   3.299   5.560   1.361
 1067TIP3    H1 3165   3.212   5.542   1.394
 1067TIP3    H2 3166   3.339   5.616   1.427
 1068TIP3   OH2 3167   6.743   5.932   1.256
 1068TIP3    H1 3168   6.657   5.925   1.299
 1068TIP3    H2 3169   6.797   5.978   1.320
 1069TIP3   OH2 3170   6.804   5.247   2.625
 1069TIP3    H1 3171   6.741   5.194   2.674
 1069TIP3    H2 3172   6.837   5.188   2.557
 1070TIP3   OH2 3173   5.532   0.169   4.628
 1070TIP3    H1 3174   5.624   0.144   4.626
 1070TIP3    H2 3175   5.506   0.156   4.720
 1071TIP3   OH2 3176   2.045   1.670   0.336
 1071TIP3    H1 3177   1.994   1.718   0.271
 1071TIP3    H2 3178   2.004   1.583   0.340
 1072TIP3   OH2 3179  -0.015   4.010   4.848
 1072TIP3    H1 3180   0.062   3.993   4.901
 1072TIP3    H2 3181  -0.035   4.102   4.864
 1073TIP3   OH2 3182   3.459   3.312   0.410
 1073TIP3    H1 3183   3.515   3.303   0.333
 1073TIP3    H2 3184   3.372   3.329   0.374
 1074TIP3   OH2 3185   2.654   2.349   4.022
 1074TIP3    H1 3186   2.722   2.386   3.966
 1074TIP3    H2 3187   2.683   2.259   4.039
 1075TIP3   OH2 3188   6.639   3.731   4.485
 1075TIP3    H1 3189   6.701   3.803   4.469
 1075TIP3    H2 3190   6.636   3.723   4.580
 1076TIP3   OH2 3191   0.754   4.968   1.540
 1076TIP3    H1 3192   0.715   5.055   1.531
 1076TIP3    H2 3193   0.679   4.908   1.532
 1077TIP3   OH2 3194   2.008   1.000   0.700
 1077TIP3    H1 3195   2.073   0.942   0.660
 1077TIP3    H2 3196   2.013   0.979   0.793
 1078TIP3   OH2 3197   2.875   3.218   0.503
 1078TIP3    H1 3198   2.805   3.247   0.562
 1078TIP3    H2 3199   2.840   3.231   0.415
 1079TIP3   OH2 3200  -0.020   3.278   5.047
 1079TIP3    H1 3201   0.052   3.319   5.096
 1079TIP3    H2 3202  -0.096   3.333   5.066
 1080TIP3   OH2 3203   1.591   0.931   5.423
 1080TIP3    H1 3204   1.587   1.026   5.438
 1080TIP3    H2 3205   1.545   0.893   5.498
 1081TIP3   OH2 3206   5.408   6.536   4.010
 1081TIP3    H1 3207   5.363   6.577   3.936
 1081TIP3    H2 3208   5.434   6.610   4.066
 1082TIP3   OH2 3209   1.426   4.913   3.001
 1082TIP3    H1 3210   1.512   4.882   2.971
 1082TIP3    H2 3211   1.411   4.992   2.948
 1083TIP3   OH2 3212   1.973   2.494   0.554
 1083TIP3    H1 3213   1.942   2.580   0.582
 1083TIP3    H2 3214   2.039   2.469   0.618
 1084TIP3   OH2 3215   5.810   5.822   4.167
 1084TIP3    H1 3216   5.868   5.845   4.094
 1084TIP3    H2 3217   5.732   5.875   4.152
 1085TIP3   OH2 3218   1.122   5.595   3.598
 1085TIP3    H1 3219   1.212   5.567   3.583
 1085TIP3    H2 3220   1.076   5.515   3.625
 1086TIP3   OH2 3221   2.580   5.032   3.602
 1086TIP3    H1 3222   2.486   5.014   3.599
 1086TIP3    H2 3223   2.608   5.000   3.688
 1087TIP3   OH2 3224   6.003   3.636   5.045
 1087TIP3    H1 3225   5.916   3.595   5.046
 1087TIP3    H2 3226   6.032   3.633   5.136
 1088TIP3   OH2 3227   6.839   3.198   5.197
 1088TIP3    H1 3228   6.810   3.196   5.106
 1088TIP3    H2 3229   6.808   3.282   5.230
 1089TIP3   OH2 3230   0.486   1.572   2.451
 1089TIP3    H1 3231   0.442   1.635   2.394
 1089TIP3    H2 3232   0.548   1.624   2.502
 1090TIP3   OH2 3233   2.793   0.641   2.680
 1090TIP3    H1 3234   2.856   0.591   2.629
 1090TIP3    H2 3235   2.713   0.588   2.677
 1091TIP3   OH2 3236   1.219   0.529   1.542
 1091TIP3    H1 3237   1.134   0.493   1.520
 1091TIP3    H2 3238   1.246   0.481   1.621
 1092TIP3   OH2 3239   6.926   5.118   1.638
 1092TIP3    H1 3240   6.939   5.123   1.543
 1092TIP3    H2 3241   6.846   5.066   1.648
 1093TIP3   OH2 3242   1.142   1.902   3.323
 1093TIP3    H1 3243   1.084   1.941   3.387
 1093TIP3    H2 3244   1.206   1.971   3.302
 1094TIP3   OH2 3245   3.781   5.990   2.609
 1094TIP3    H1 3246   3.841   6.037   2.667
 1094TIP3    H2 3247   3.694   6.007   2.646
 1095TIP3   OH2 3248   1.623   1.998   5.652
 1095TIP3    H1 3249   1.599   2.053   5.577
 1095TIP3    H2 3250   1.545   1.998   5.708
 1096TIP3   OH2 3251   1.405   6.301   4.050
 1096TIP3    H1 3252   1.416   6.382   4.001
 1096TIP3    H2 3253   1.475   6.301   4.114
 1097TIP3   OH2 3254   4.236   2.567   1.228
 1097TIP3    H1 3255   4.208   2.644   1.279
 1097TIP3    H2 3256   4.300   2.524   1.285
 1098TIP3   OH2 3257   1.025   6.545   3.380
 1098TIP3    H1 3258   1.017   6.505   3.467
 1098TIP3    H2 3259   0.940   6.586   3.364
 1099TIP3   OH2 3260   3.189   5.645   4.381
 1099TIP3    H1 3261   3.182   5.618   4.472
 1099TIP3    H2 3262   3.102   5.675   4.357
 1100TIP3   OH2 3263   5.411   6.746   4.166
 1100TIP3    H1 3264   5.497   6.741   4.206
 1100TIP3    H2 3265   5.396   6.839   4.152
 1101TIP3   OH2 3266   5.858   1.197   5.666
 1101TIP3    H1 3267   5.884   1.210   5.757
 1101TIP3    H2 3268   5.935   1.159   5.624
 1102TIP3   OH2 3269   0.584   6.144   1.705
 1102TIP3    H1 3270   0.582   6.193   1.787
 1102TIP3    H2 3271   0.569   6.053   1.731
 1103TIP3   OH2 3272   3.639   0.925   4.143
 1103TIP3    H1 3273   3.700   0.858   4.112
 1103TIP3    H2 3274   3.552   0.891   4.120
 1104TIP3   OH2 3275   1.471   1.621   4.900
 1104TIP3    H1 3276   1.545   1.681   4.909
 1104TIP3    H2 3277   1.415   1.661   4.833
 1105TIP3   OH2 3278   6.850   3.657   1.642
 1105TIP3    H1 3279   6.764   3.627   1.611
 1105TIP3    H2 3280   6.859   3.618   1.729
 1106TIP3   OH2 3281   4.082   4.194   0.509
 1106TIP3    H1 3282   4.018   4.260   0.537
 1106TIP3    H2 3283   4.146   4.242   0.457
 1107TIP3   OH2 3284   4.975   4.494   3.660
 1107TIP3    H1 3285   4.946   4.410   3.696
 1107TIP3    H2 3286   4.907   4.518   3.597
 1108TIP3   OH2 3287   2.813   5.105   3.487
 1108TIP3    H1 3288   2.863   5.026   3.470
 1108TIP3    H2 3289   2.724   5.075   3.502
 1109TIP3   OH2 3290   4.468   1.461   0.640
 1109TIP3    H1 3291   4.398   1.412   0.683
 1109TIP3    H2 3292   4.462   1.549   0.676
 1110TIP3   OH2 3293   4.488   6.756   3.387
 1110TIP3    H1 3294   4.510   6.704   3.464
 1110TIP3    H2 3295   4.572   6.770   3.343
 1111TIP3   OH2 3296   4.205   0.139   1.103
 1111TIP3    H1 3297   4.238   0.197   1.171
 1111TIP3    H2 3298   4.248   0.170   1.023
 1112TIP3   OH2 3299   0.475   4.159   2.717
 1112TIP3    H1 3300   0.518   4.087   2.765
 1112TIP3    H2 3301   0.543   4.192   2.659
 1113TIP3   OH2 3302   3.116   0.379   2.283
 1113TIP3    H1 3303   3.116   0.396   2.189
 1113TIP3    H2 3304   3.032   0.414   2.313
 1114TIP3   OH2 3305   0.981   6.093   5.681
 1114TIP3    H1 3306   0.952   6.069   5.593
 1114TIP3    H2 3307   0.924   6.042   5.740
 1115TIP3   OH2 3308   1.097   4.691   4.230
 1115TIP3    H1 3309   1.006   4.694   4.201
 1115TIP3    H2 3310   1.108   4.602   4.264
 1116TIP3   OH2 3311   2.685   3.752   1.263
 1116TIP3    H1 3312   2.669   3.799   1.181
 1116TIP3    H2 3313   2.599   3.721   1.291
 1117TIP3   OH2 3314   4.779   6.193   4.351
 1117TIP3    H1 3315   4.689   6.176   4.380
 1117TIP3    H2 3316   4.774   6.278   4.306
 1118TIP3   OH2 3317   2.935   2.338   3.366
 1118TIP3    H1 3318   2.888   2.276   3.422
 1118TIP3    H2 3319   3.024   2.304   3.362
 1119TIP3   OH2 3320   4.271   5.507   1.223
 1119TIP3    H1 3321   4.298   5.503   1.314
 1119TIP3    H2 3322   4.333   5.566   1.182
 1120TIP3   OH2 3323   1.146   6.307   4.708
 1120TIP3    H1 3324   1.235   6.274   4.696
 1120TIP3    H2 3325   1.114   6.323   4.619
 1121TIP3   OH2 3326   7.124   5.631   4.731
 1121TIP3    H1 3327   7.162   5.670   4.652
 1121TIP3    H2 3328   7.140   5.696   4.799
 1122TIP3   OH2 3329   5.506   2.321   0.098
 1122TIP3    H1 3330   5.428   2.370   0.124
 1122TIP3    H2 3331   5.473   2.248   0.047
 1123TIP3   OH2 3332   4.840   3.120   5.174
 1123TIP3    H1 3333   4.873   3.036   5.144
 1123TIP3    H2 3334   4.800   3.160   5.097
 1124TIP3   OH2 3335   0.661   0.816   0.834
 1124TIP3    H1 3336   0.682   0.818   0.741
 1124TIP3    H2 3337   0.568   0.838   0.839
 1125TIP3   OH2 3338   7.185   1.580   5.499
 1125TIP3    H1 3339   7.248   1.511   5.476
 1125TIP3    H2 3340   7.239   1.656   5.519
 1126TIP3   OH2 3341   5.736   6.166   1.947
 1126TIP3    H1 3342   5.716   6.074   1.963
 1126TIP3    H2 3343   5.757   6.170   1.853
 1127TIP3   OH2 3344   6.768   1.740   4.767
 1127TIP3    H1 3345   6.770   1.836   4.773
 1127TIP3    H2 3346   6.735   1.722   4.679
 1128TIP3   OH2 3347   1.041   0.178   3.109
 1128TIP3    H1 3348   1.090   0.248   3.153
 1128TIP3    H2 3349   1.066   0.098   3.155
 1129TIP3   OH2 3350   3.401   1.825   5.055
 1129TIP3    H1 3351   3.366   1.849   5.141
 1129TIP3    H2 3352   3.490   1.859   5.054
 1130TIP3   OH2 3353   4.731   5.318   3.109
 1130TIP3    H1 3354   4.674   5.393   3.089
 1130TIP3    H2 3355   4.731   5.313   3.205
 1131TIP3   OH2 3356   2.990   0.413   1.377
 1131TIP3    H1 3357   3.037   0.350   1.431
 1131TIP3    H2 3358   3.034   0.409   1.292
 1132TIP3   OH2 3359   5.241   2.748   4.744
 1132TIP3    H1 3360   5.228   2.830   4.697
 1132TIP3    H2 3361   5.329   2.719   4.719
 1133TIP3   OH2 3362   0.055   6.399   2.318
 1133TIP3    H1 3363   0.064   6.472   2.379
 1133TIP3    H2 3364   0.104   6.427   2.240
 1134TIP3   OH2 3365   6.980   3.462   1.222
 1134TIP3    H1 3366   7.009   3.450   1.313
 1134TIP3    H2 3367   7.021   3.543   1.194
 1135TIP3   OH2 3368   5.605   0.749   2.709
 1135TIP3    H1 3369   5.688   0.790   2.732
 1135TIP3    H2 3370   5.559   0.740   2.793
 1136TIP3   OH2 3371   4.313   3.403   0.342
 1136TIP3    H1 3372   4.225   3.399   0.304
 1136TIP3    H2 3373   4.355   3.476   0.297
 1137TIP3   OH2 3374   3.863   3.915   0.794
 1137TIP3    H1 3375   3.952   3.883   0.785
 1137TIP3    H2 3376   3.852   3.929   0.888
 1138TIP3   OH2 3377   5.739   2.334   1.269
 1138TIP3    H1 3378   5.745   2.264   1.203
 1138TIP3    H2 3379   5.647   2.333   1.295
 1139TIP3   OH2 3380   0.079   5.585   5.566
 1139TIP3    H1 3381   0.035   5.537   5.637
 1139TIP3    H2 3382   0.008   5.611   5.508
 1140TIP3   OH2 3383   3.924   0.920   0.919
 1140TIP3    H1 3384   3.936   0.887   0.830
 1140TIP3    H2 3385   3.965   0.854   0.975
 1141TIP3   OH2 3386   0.937   0.254   0.610
 1141TIP3    H1 3387   1.014   0.275   0.557
 1141TIP3    H2 3388   0.956   0.168   0.647
 1142TIP3   OH2 3389   1.317   1.338   3.642
 1142TIP3    H1 3390   1.227   1.316   3.618
 1142TIP3    H2 3391   1.321   1.433   3.635
 1143TIP3   OH2 3392   2.822   6.319   3.899
 1143TIP3    H1 3393   2.737   6.291   3.933
 1143TIP3    H2 3394   2.884   6.292   3.967
 1144TIP3   OH2 3395   4.838   0.325   2.970
 1144TIP3    H1 3396   4.902   0.275   2.920
 1144TIP3    H2 3397   4.852   0.415   2.942
 1145TIP3   OH2 3398   1.644   6.025   3.095
 1145TIP3    H1 3399   1.697   6.074   3.158
 1145TIP3    H2 3400   1.575   5.985   3.147
 1146TIP3   OH2 3401   0.304   1.606   3.425
 1146TIP3    H1 3402   0.313   1.701   3.412
 1146TIP3    H2 3403   0.313   1.595   3.520
 1147TIP3   OH2 3404   0.952   6.460   3.650
 1147TIP3    H1 3405   0.959   6.553   3.672
 1147TIP3    H2 3406   1.019   6.418   3.703
 1148TIP3   OH2 3407   1.416   0.232   0.543
 1148TIP3    H1 3408   1.508   0.214   0.561
 1148TIP3    H2 3409   1.388   0.289   0.614
 1149TIP3   OH2 3410   0.158   3.737   2.572
 1149TIP3    H1 3411   0.248   3.734   2.539
 1149TIP3    H2 3412   0.113   3.796   2.511
 1150TIP3   OH2 3413   1.495   5.874   4.207
 1150TIP3    H1 3414   1.585   5.905   4.197
 1150TIP3    H2 3415   1.447   5.952   4.236
 1151TIP3   OH2 3416   3.743   0.428   5.727
 1151TIP3    H1 3417   3.832   0.450   5.699
 1151TIP3    H2 3418   3.689   0.498   5.691
 1152TIP3   OH2 3419   5.659   6.555   0.342
 1152TIP3    H1 3420   5.720   6.557   0.269
 1152TIP3    H2 3421   5.689   6.626   0.400
 1153TIP3   OH2 3422   4.157   4.331   4.873
 1153TIP3    H1 3423   4.252   4.322   4.868
 1153TIP3    H2 3424   4.143   4.423   4.899
 1154TIP3   OH2 3425   2.660   1.621   5.033
 1154TIP3    H1 3426   2.649   1.526   5.032
 1154TIP3    H2 3427   2.715   1.640   4.957
 1155TIP3   OH2 3428   2.402   0.055   1.797
 1155TIP3    H1 3429   2.346   0.052   1.720
 1155TIP3    H2 3430   2.423   0.148   1.808
 1156TIP3   OH2 3431   4.315   0.669   3.421
 1156TIP3    H1 3432   4.228   0.633   3.402
 1156TIP3    H2 3433   4.376   0.604   3.385
 1157TIP3   OH2 3434   2.736   1.504   3.131
 1157TIP3    H1 3435   2.777   1.419   3.120
 1157TIP3    H2 3436   2.800   1.556   3.179
 1158TIP3   OH2 3437   2.531   2.480   4.436
 1158TIP3    H1 3438   2.526   2.438   4.522
 1158TIP3    H2 3439   2.442   2.477   4.403
 1159TIP3   OH2 3440   6.384   2.773   4.762
 1159TIP3    H1 3441   6.344   2.830   4.828
 1159TIP3    H2 3442   6.460   2.735   4.806
 1160TIP3   OH2 3443   3.168   6.375   2.329
 1160TIP3    H1 3444   3.158   6.468   2.307
 1160TIP3    H2 3445   3.228   6.341   2.263
 1161TIP3   OH2 3446   6.424   4.380   3.786
 1161TIP3    H1 3447   6.470   4.305   3.823
 1161TIP3    H2 3448   6.443   4.377   3.693
 1162TIP3   OH2 3449   0.371   4.492   0.917
 1162TIP3    H1 3450   0.282   4.474   0.885
 1162TIP3    H2 3451   0.358   4.530   1.004
 1163TIP3   OH2 3452   3.426   3.752   3.085
 1163TIP3    H1 3453   3.491   3.820   3.069
 1163TIP3    H2 3454   3.477   3.672   3.099
 1164TIP3   OH2 3455   3.641   6.031   0.053
 1164TIP3    H1 3456   3.668   6.123   0.049
 1164TIP3    H2 3457   3.707   5.985   0.002
 1165TIP3   OH2 3458   5.409   3.278   5.158
 1165TIP3    H1 3459   5.362   3.207   5.114
 1165TIP3    H2 3460   5.436   3.241   5.242
 1166TIP3   OH2 3461   4.637   2.856   3.869
 1166TIP3    H1 3462   4.591   2.795   3.811
 1166TIP3    H2 3463   4.712   2.885   3.817
 1167TIP3   OH2 3464   3.255   2.477   4.372
 1167TIP3    H1 3465   3.174   2.525   4.357
 1167TIP3    H2 3466   3.240   2.430   4.454
 1168TIP3   OH2 3467   0.122   0.781   2.931
 1168TIP3    H1 3468   0.112   0.860   2.878
 1168TIP3    H2 3469   0.047   0.782   2.990
 1169TIP3   OH2 3470   4.840   4.727   4.444
 1169TIP3    H1 3471   4.921   4.740   4.394
 1169TIP3    H2 3472   4.783   4.798   4.415
 1170TIP3   OH2 3473   1.936   2.763   1.878
 1170TIP3    H1 3474   1.894   2.759   1.792
 1170TIP3    H2 3475   1.863   2.762   1.940
 1171TIP3   OH2 3476   4.052   0.635   3.005
 1171TIP3    H1 3477   4.050   0.642   3.100
 1171TIP3    H2 3478   4.143   0.648   2.981
 1172TIP3   OH2 3479   3.562   3.496   2.891
 1172TIP3    H1 3480   3.570   3.537   2.977
 1172TIP3    H2 3481   3.638   3.439   2.885
 1173TIP3   OH2 3482   2.550   5.518   5.799
 1173TIP3    H1 3483   2.644   5.514   5.780
 1173TIP3    H2 3484   2.517   5.430   5.778
 1174TIP3   OH2 3485   1.255   6.462   5.599
 1174TIP3    H1 3486   1.220   6.428   5.517
 1174TIP3    H2 3487   1.214   6.408   5.667
 1175TIP3   OH2 3488   1.332   0.261   4.780
 1175TIP3    H1 3489   1.248   0.249   4.736
 1175TIP3    H2 3490   1.392   0.204   4.732
 1176TIP3   OH2 3491   1.970   2.712   2.851
 1176TIP3    H1 3492   1.995   2.779   2.914
 1176TIP3    H2 3493   2.011   2.631   2.882
 1177TIP3   OH2 3494   1.801   0.989   3.656
 1177TIP3    H1 3495   1.825   0.906   3.614
 1177TIP3    H2 3496   1.877   1.046   3.640
 1178TIP3   OH2 3497   1.642   1.475   3.462
 1178TIP3    H1 3498   1.579   1.528   3.511
 1178TIP3    H2 3499   1.674   1.534   3.394
 1179TIP3   OH2 3500   4.791   5.083   0.030
 1179TIP3    H1 3501   4.822   5.126  -0.050
 1179TIP3    H2 3502   4.784   5.154   0.094
 1180TIP3   OH2 3503   1.692   5.915   4.746
 1180TIP3    H1 3504   1.786   5.905   4.761
 1180TIP3    H2 3505   1.683   5.925   4.651
 1181TIP3   OH2 3506   1.220   3.927   0.500
 1181TIP3    H1 3507   1.142   3.874   0.517
 1181TIP3    H2 3508   1.273   3.919   0.579
 1182TIP3   OH2 3509   4.203   6.492   1.385
 1182TIP3    H1 3510   4.211   6.502   1.290
 1182TIP3    H2 3511   4.280   6.537   1.420
 1183TIP3   OH2 3512   3.573   5.175   0.045
 1183TIP3    H1 3513   3.508   5.123  -0.002
 1183TIP3    H2 3514   3.598   5.121   0.119
 1184TIP3   OH2 3515   1.012   2.653   2.355
 1184TIP3    H1 3516   1.021   2.681   2.445
 1184TIP3    H2 3517   1.015   2.557   2.359
 1185TIP3   OH2 3518   3.230   1.714   5.788
 1185TIP3    H1 3519   3.194   1.794   5.825
 1185TIP3    H2 3520   3.167   1.687   5.721
 1186TIP3   OH2 3521   5.363   3.675   3.140
 1186TIP3    H1 3522   5.390   3.707   3.054
 1186TIP3    H2 3523   5.349   3.581   3.128
 1187TIP3   OH2 3524   5.835   1.649   2.503
 1187TIP3    H1 3525   5.914   1.602   2.532
 1187TIP3    H2 3526   5.864   1.697   2.425
 1188TIP3   OH2 3527   6.560   6.268   1.482
 1188TIP3    H1 3528   6.622   6.341   1.485
 1188TIP3    H2 3529   6.545   6.245   1.573
 1189TIP3   OH2 3530   0.248   5.692   1.979
 1189TIP3    H1 3531   0.284   5.670   1.893
 1189TIP3    H2 3532   0.164   5.734   1.960
 1190TIP3   OH2 3533   5.651   3.935   5.825
 1190TIP3    H1 3534   5.688   3.949   5.738
 1190TIP3    H2 3535   5.719   3.885   5.872
 1191TIP3   OH2 3536   0.520   6.010   0.443
 1191TIP3    H1 3537   0.545   5.931   0.491
 1191TIP3    H2 3538   0.492   5.979   0.357
 1192TIP3   OH2 3539   5.791   0.305   1.046
 1192TIP3    H1 3540   5.868   0.361   1.059
 1192TIP3    H2 3541   5.740   0.317   1.126
 1193TIP3   OH2 3542   4.751   4.202   0.446
 1193TIP3    H1 3543   4.763   4.142   0.519
 1193TIP3    H2 3544   4.693   4.270   0.481
 1194TIP3   OH2 3545   5.927   3.666   1.896
 1194TIP3    H1 3546   5.979   3.588   1.913
 1194TIP3    H2 3547   5.990   3.738   1.900
 1195TIP3   OH2 3548   0.182   4.913   2.448
 1195TIP3    H1 3549   0.176   5.004   2.417
 1195TIP3    H2 3550   0.119   4.908   2.520
 1196TIP3   OH2 3551   5.841   0.606   2.056
 1196TIP3    H1 3552   5.886   0.555   2.123
 1196TIP3    H2 3553   5.751   0.574   2.057
 1197TIP3   OH2 3554   4.291   3.224   2.848
 1197TIP3    H1 3555   4.370   3.260   2.889
 1197TIP3    H2 3556   4.294   3.131   2.870
 1198TIP3   OH2 3557   1.055   2.919   0.977
 1198TIP3    H1 3558   1.074   2.850   0.914
 1198TIP3    H2 3559   0.977   2.963   0.942
 1199TIP3   OH2 3560   4.620   0.763   0.346
 1199TIP3    H1 3561   4.666   0.788   0.426
 1199TIP3    H2 3562   4.530   0.746   0.374
 1200TIP3   OH2 3563   0.087   3.402   3.865
 1200TIP3    H1 3564   0.008   3.372   3.910
 1200TIP3    H2 3565   0.113   3.481   3.913
 1201TIP3   OH2 3566   5.325   4.221   4.765
 1201TIP3    H1 3567   5.250   4.250   4.714
 1201TIP3    H2 3568   5.399   4.270   4.728
 1202TIP3   OH2 3569   3.046   4.250   0.360
 1202TIP3    H1 3570   3.073   4.227   0.448
 1202TIP3    H2 3571   3.128   4.256   0.310
 1203TIP3   OH2 3572   0.620   5.310   5.047
 1203TIP3    H1 3573   0.706   5.283   5.014
 1203TIP3    H2 3574   0.568   5.231   5.047
 1204TIP3   OH2 3575   3.186   3.325   2.669
 1204TIP3    H1 3576   3.201   3.419   2.653
 1204TIP3    H2 3577   3.132   3.323   2.748
 1205TIP3   OH2 3578   4.474   5.100   2.151
 1205TIP3    H1 3579   4.564   5.071   2.136
 1205TIP3    H2 3580   4.459   5.081   2.244
 1206TIP3   OH2 3581   2.784   3.482   1.012
 1206TIP3    H1 3582   2.871   3.456   1.043
 1206TIP3    H2 3583   2.738   3.399   0.997
 1207TIP3   OH2 3584   3.515   5.335   3.651
 1207TIP3    H1 3585   3.573   5.362   3.722
 1207TIP3    H2 3586   3.573   5.295   3.586
 1208TIP3   OH2 3587   1.738   1.028   4.703
 1208TIP3    H1 3588   1.680   1.069   4.638
 1208TIP3    H2 3589   1.731   0.934   4.686
 1209TIP3   OH2 3590   3.261   6.016   3.367
 1209TIP3    H1 3591   3.305   5.955   3.428
 1209TIP3    H2 3592   3.333   6.066   3.329
 1210TIP3   OH2 3593   3.864   2.652   4.929
 1210TIP3    H1 3594   3.901   2.648   4.841
 1210TIP3    H2 3595   3.865   2.745   4.951
 1211TIP3   OH2 3596   0.603   2.479   4.522
 1211TIP3    H1 3597   0.578   2.544   4.588
 1211TIP3    H2 3598   0.685   2.511   4.487
 1212TIP3   OH2 3599   6.128   1.975   4.645
 1212TIP3    H1 3600   6.192   2.024   4.594
 1212TIP3    H2 3601   6.181   1.926   4.709
 1213TIP3   OH2 3602   2.844   4.090   1.797
 1213TIP3    H1 3603   2.823   4.103   1.705
 1213TIP3    H2 3604   2.905   4.017   1.798
 1214TIP3   OH2 3605   0.001   1.769   5.735
 1214TIP3    H1 3606   0.082   1.801   5.694
 1214TIP3    H2 3607   0.023   1.756   5.827
 1215TIP3   OH2 3608   4.546   2.113   3.101
 1215TIP3    H1 3609   4.495   2.158   3.033
 1215TIP3    H2 3610   4.561   2.180   3.168
 1216TIP3   OH2 3611   4.705   1.895   0.680
 1216TIP3    H1 3612   4.786   1.941   0.701
 1216TIP3    H2 3613   4.694   1.830   0.750
 1217TIP3   OH2 3614   2.683   3.408   5.595
 1217TIP3    H1 3615   2.608   3.368   5.550
 1217TIP3    H2 3616   2.644   3.473   5.653
 1218TIP3   OH2 3617   2.834   5.891   1.322
 1218TIP3    H1 3618   2.915   5.863   1.279
 1218TIP3    H2 3619   2.783   5.933   1.253
 1219TIP3   OH2 3620   2.809   0.445   3.547
 1219TIP3    H1 3621   2.783   0.409   3.462
 1219TIP3    H2 3622   2.852   0.528   3.525
 1220TIP3   OH2 3623   0.518   4.928   0.125
 1220TIP3    H1 3624   0.554   4.846   0.090
 1220TIP3    H2 3625   0.564   4.941   0.208
 1221TIP3   OH2 3626   5.982   4.693   3.281
 1221TIP3    H1 3627   6.047   4.762   3.290
 1221TIP3    H2 3628   5.974   4.679   3.186
 1222TIP3   OH2 3629   4.417   6.076   5.148
 1222TIP3    H1 3630   4.487   6.033   5.198
 1222TIP3    H2 3631   4.336   6.040   5.185
 1223TIP3   OH2 3632   3.086   4.482   3.983
 1223TIP3    H1 3633   3.055   4.399   3.946
 1223TIP3    H2 3634   3.006   4.531   4.002
 1224TIP3   OH2 3635   1.588   5.263   3.571
 1224TIP3    H1 3636   1.652   5.202   3.605
 1224TIP3    H2 3637   1.543   5.215   3.501
 1225TIP3   OH2 3638   4.899   2.492   5.058
 1225TIP3    H1 3639   4.834   2.523   4.995
 1225TIP3    H2 3640   4.982   2.494   5.010
 1226TIP3   OH2 3641   4.220   0.623   0.791
 1226TIP3    H1 3642   4.219   0.606   0.697
 1226TIP3    H2 3643   4.262   0.546   0.829
 1227TIP3   OH2 3644   4.670   6.772   1.964
 1227TIP3    H1 3645   4.599   6.708   1.972
 1227TIP3    H2 3646   4.709   6.775   2.051
 1228TIP3   OH2 3647   3.867   5.412   5.708
 1228TIP3    H1 3648   3.798   5.462   5.752
 1228TIP3    H2 3649   3.882   5.459   5.626
 1229TIP3   OH2 3650   5.431   3.437   3.551
 1229TIP3    H1 3651   5.436   3.514   3.494
 1229TIP3    H2 3652   5.394   3.470   3.633
 1230TIP3   OH2 3653   3.133   1.671   2.216
 1230TIP3    H1 3654   3.116   1.586   2.257
 1230TIP3    H2 3655   3.166   1.649   2.129
 1231TIP3   OH2 3656   0.879   3.408   4.758
 1231TIP3    H1 3657   0.832   3.418   4.675
 1231TIP3    H2 3658   0.921   3.322   4.751
 1232TIP3   OH2 3659   0.752   4.625   2.454
 1232TIP3    H1 3660   0.752   4.678   2.534
 1232TIP3    H2 3661   0.749   4.689   2.383
 1233TIP3   OH2 3662   6.356   1.544   3.125
 1233TIP3    H1 3663   6.392   1.625   3.160
 1233TIP3    H2 3664   6.279   1.572   3.075
 1234TIP3   OH2 3665   6.916   2.058   4.960
 1234TIP3    H1 3666   6.924   1.988   5.025
 1234TIP3    H2 3667   7.003   2.062   4.920
 1235TIP3   OH2 3668   4.139   3.430   4.037
 1235TIP3    H1 3669   4.065   3.404   4.092
 1235TIP3    H2 3670   4.212   3.442   4.099
 1236TIP3   OH2 3671   6.058   2.816   1.342
 1236TIP3    H1 3672   6.011   2.821   1.425
 1236TIP3    H2 3673   5.995   2.848   1.277
 1237TIP3   OH2 3674   4.020   1.227   3.282
 1237TIP3    H1 3675   3.999   1.136   3.305
 1237TIP3    H2 3676   4.108   1.241   3.317
 1238TIP3   OH2 3677   2.494   5.184   1.876
 1238TIP3    H1 3678   2.426   5.130   1.916
 1238TIP3    H2 3679   2.469   5.274   1.897
 1239TIP3   OH2 3680   3.232   6.004   2.411
 1239TIP3    H1 3681   3.294   5.943   2.371
 1239TIP3    H2 3682   3.235   6.082   2.355
 1240TIP3   OH2 3683   5.504   1.468   3.775
 1240TIP3    H1 3684   5.592   1.443   3.802
 1240TIP3    H2 3685   5.449   1.395   3.803
 1241TIP3   OH2 3686   2.176   2.385   0.716
 1241TIP3    H1 3687   2.181   2.290   0.726
 1241TIP3    H2 3688   2.266   2.412   0.699
 1242TIP3   OH2 3689   3.860   0.557   2.807
 1242TIP3    H1 3690   3.942   0.533   2.766
 1242TIP3    H2 3691   3.885   0.608   2.885
 1243TIP3   OH2 3692   5.178   2.165   5.175
 1243TIP3    H1 3693   5.245   2.144   5.111
 1243TIP3    H2 3694   5.191   2.100   5.245
 1244TIP3   OH2 3695   5.929   4.998   5.525
 1244TIP3    H1 3696   5.837   5.008   5.550
 1244TIP3    H2 3697   5.978   5.035   5.598
 1245TIP3   OH2 3698   0.228   2.888   5.827
 1245TIP3    H1 3699   0.166   2.822   5.796
 1245TIP3    H2 3700   0.298   2.837   5.867
 1246TIP3   OH2 3701   2.206   1.628   2.178
 1246TIP3    H1 3702   2.285   1.577   2.192
 1246TIP3    H2 3703   2.164   1.587   2.102
 1247TIP3   OH2 3704   4.402   5.608   5.771
 1247TIP3    H1 3705   4.452   5.612   5.689
 1247TIP3    H2 3706   4.359   5.523   5.768
 1248TIP3   OH2 3707   1.859   5.777   5.178
 1248TIP3    H1 3708   1.844   5.734   5.094
 1248TIP3    H2 3709   1.848   5.870   5.159
 1249TIP3   OH2 3710   1.097   0.091   3.679
 1249TIP3    H1 3711   1.163   0.021   3.673
 1249TIP3    H2 3712   1.043   0.066   3.754
 1250TIP3   OH2 3713   5.990   6.058   2.990
 1250TIP3    H1 3714   5.987   6.081   2.898
 1250TIP3    H2 3715   6.018   6.139   3.034
 1251TIP3   OH2 3716   7.174   5.829   4.934
 1251TIP3    H1 3717   7.117   5.814   5.010
 1251TIP3    H2 3718   7.262   5.807   4.965
 1252TIP3   OH2 3719   6.390   3.545   0.552
 1252TIP3    H1 3720   6.447   3.577   0.482
 1252TIP3    H2 3721   6.370   3.455   0.528
 1253TIP3   OH2 3722   3.861   4.343   0.619
 1253TIP3    H1 3723   3.834   4.252   0.632
 1253TIP3    H2 3724   3.852   4.383   0.706
 1254TIP3   OH2 3725   1.673   4.411   0.292
 1254TIP3    H1 3726   1.706   4.321   0.290
 1254TIP3    H2 3727   1.595   4.408   0.348
 1255TIP3   OH2 3728   3.254   0.655   3.385
 1255TIP3    H1 3729   3.286   0.610   3.307
 1255TIP3    H2 3730   3.277   0.747   3.372
 1256TIP3   OH2 3731   1.681   5.802   2.554
 1256TIP3    H1 3732   1.700   5.856   2.631
 1256TIP3    H2 3733   1.706   5.713   2.579
 1257TIP3   OH2 3734   3.772   0.945   1.759
 1257TIP3    H1 3735   3.851   0.913   1.802
 1257TIP3    H2 3736   3.704   0.943   1.826
 1258TIP3   OH2 3737   2.743   1.126   5.205
 1258TIP3    H1 3738   2.816   1.181   5.174
 1258TIP3    H2 3739   2.707   1.174   5.279
 1259TIP3   OH2 3740   0.691   5.617   3.773
 1259TIP3    H1 3741   0.699   5.706   3.738
 1259TIP3    H2 3742   0.728   5.622   3.861
 1260TIP3   OH2 3743   2.671   5.741   3.269
 1260TIP3    H1 3744   2.696   5.737   3.177
 1260TIP3    H2 3745   2.714   5.820   3.302
 1261TIP3   OH2 3746   3.902   2.825   1.788
 1261TIP3    H1 3747   3.934   2.736   1.769
 1261TIP3    H2 3748   3.878   2.860   1.702
 1262TIP3   OH2 3749   2.522   6.627   1.361
 1262TIP3    H1 3750   2.468   6.661   1.432
 1262TIP3    H2 3751   2.611   6.656   1.382
 1263TIP3   OH2 3752   2.184   0.924   3.204
 1263TIP3    H1 3753   2.244   0.968   3.143
 1263TIP3    H2 3754   2.139   0.859   3.151
 1264TIP3   OH2 3755   3.146   2.750   0.224
 1264TIP3    H1 3756   3.170   2.788   0.308
 1264TIP3    H2 3757   3.081   2.810   0.188
 1265TIP3   OH2 3758   0.523   3.297   0.625
 1265TIP3    H1 3759   0.478   3.307   0.709
 1265TIP3    H2 3760   0.584   3.371   0.622
 1266TIP3   OH2 3761   3.881   3.783   4.173
 1266TIP3    H1 3762   3.812   3.839   4.209
 1266TIP3    H2 3763   3.932   3.841   4.117
 1267TIP3   OH2 3764   5.875   2.904   5.216
 1267TIP3    H1 3765   5.803   2.937   5.270
 1267TIP3    H2 3766   5.848   2.922   5.126
 1268TIP3   OH2 3767   5.517   3.641   4.918
 1268TIP3    H1 3768   5.590   3.701   4.931
 1268TIP3    H2 3769   5.544   3.585   4.845
 1269TIP3   OH2 3770   2.496   2.263   1.525
 1269TIP3    H1 3771   2.523   2.175   1.497
 1269TIP3    H2 3772   2.553   2.284   1.599
 1270TIP3   OH2 3773   4.029   2.547   3.134
 1270TIP3    H1 3774   3.990   2.572   3.218
 1270TIP3    H2 3775   3.978   2.595   3.069
 1271TIP3   OH2 3776   3.570   3.519   1.433
 1271TIP3    H1 3777   3.628   3.571   1.489
 1271TIP3    H2 3778   3.513   3.473   1.494
 1272TIP3   OH2 3779   3.907   5.117   2.764
 1272TIP3    H1 3780   3.875   5.028   2.747
 1272TIP3    H2 3781   4.000   5.106   2.784
 1273TIP3   OH2 3782   1.984   1.321   3.671
 1273TIP3    H1 3783   1.961   1.274   3.751
 1273TIP3    H2 3784   1.989   1.254   3.603
 1274TIP3   OH2 3785   6.416   5.546   0.277
 1274TIP3    H1 3786   6.445   5.637   0.270
 1274TIP3    H2 3787   6.496   5.494   0.263
 1275TIP3   OH2 3788   3.193   6.073   1.316
 1275TIP3    H1 3789   3.164   5.987   1.284
 1275TIP3    H2 3790   3.271   6.054   1.369
 1276TIP3   OH2 3791   4.846   1.753   4.011
 1276TIP3    H1 3792   4.761   1.795   4.020
 1276TIP3    H2 3793   4.900   1.816   3.963
 1277TIP3   OH2 3794   3.750   2.946   1.556
 1277TIP3    H1 3795   3.712   3.033   1.543
 1277TIP3    H2 3796   3.845   2.961   1.549
 1278TIP3   OH2 3797   6.347   4.610   4.310
 1278TIP3    H1 3798   6.390   4.691   4.336
 1278TIP3    H2 3799   6.372   4.598   4.219
 1279TIP3   OH2 3800   6.476   3.813   4.211
 1279TIP3    H1 3801   6.485   3.808   4.306
 1279TIP3    H2 3802   6.460   3.905   4.193
 1280TIP3   OH2 3803   3.328   0.382   2.463
 1280TIP3    H1 3804   3.371   0.325   2.399
 1280TIP3    H2 3805   3.235   0.370   2.447
 1281TIP3   OH2 3806   0.399   4.653   0.226
 1281TIP3    H1 3807   0.435   4.742   0.226
 1281TIP3    H2 3808   0.476   4.596   0.222
 1282TIP3   OH2 3809   5.189   2.172   4.469
 1282TIP3    H1 3810   5.225   2.175   4.558
 1282TIP3    H2 3811   5.153   2.259   4.455
 1283TIP3   OH2 3812   4.301   4.499   5.120
 1283TIP3    H1 3813   4.294   4.404   5.112
 1283TIP3    H2 3814   4.239   4.522   5.189
 1284TIP3   OH2 3815   0.609   4.394   5.222
 1284TIP3    H1 3816   0.674   4.439   5.169
 1284TIP3    H2 3817   0.535   4.454   5.226
 1285TIP3   OH2 3818   5.534   1.846   3.356
 1285TIP3    H1 3819   5.584   1.905   3.299
 1285TIP3    H2 3820   5.484   1.791   3.295
 1286TIP3   OH2 3821   2.228   4.264   0.699
 1286TIP3    H1 3822   2.242   4.358   0.693
 1286TIP3    H2 3823   2.287   4.226   0.634
 1287TIP3   OH2 3824   4.627   5.660   4.198
 1287TIP3    H1 3825   4.674   5.739   4.227
 1287TIP3    H2 3826   4.684   5.588   4.224
 1288TIP3   OH2 3827   2.466   0.744   4.197
 1288TIP3    H1 3828   2.435   0.701   4.117
 1288TIP3    H2 3829   2.480   0.835   4.172
 1289TIP3   OH2 3830   5.749   1.509   1.785
 1289TIP3    H1 3831   5.737   1.414   1.774
 1289TIP3    H2 3832   5.843   1.523   1.773
 1290TIP3   OH2 3833   5.343   2.299   2.202
 1290TIP3    H1 3834   5.409   2.250   2.249
 1290TIP3    H2 3835   5.324   2.246   2.124
 1291TIP3   OH2 3836   5.579   6.342   0.809
 1291TIP3    H1 3837   5.523   6.397   0.864
 1291TIP3    H2 3838   5.518   6.292   0.755
 1292TIP3   OH2 3839   0.689   3.011   5.100
 1292TIP3    H1 3840   0.696   3.070   5.025
 1292TIP3    H2 3841   0.761   3.037   5.158
 1293TIP3   OH2 3842   3.459   1.722   5.635
 1293TIP3    H1 3843   3.390   1.760   5.689
 1293TIP3    H2 3844   3.415   1.689   5.557
 1294TIP3   OH2 3845   2.259   1.996   0.994
 1294TIP3    H1 3846   2.309   2.055   1.049
 1294TIP3    H2 3847   2.325   1.944   0.948
 1295TIP3   OH2 3848   4.662   1.293   2.931
 1295TIP3    H1 3849   4.745   1.247   2.944
 1295TIP3    H2 3850   4.625   1.255   2.852
 1296TIP3   OH2 3851   5.805   2.097   5.565
 1296TIP3    H1 3852   5.790   2.032   5.497
 1296TIP3    H2 3853   5.718   2.125   5.592
 1297TIP3   OH2 3854   4.402   2.797   5.787
 1297TIP3    H1 3855   4.367   2.875   5.743
 1297TIP3    H2 3856   4.327   2.760   5.833
 1298TIP3   OH2 3857   5.284   2.382   5.784
 1298TIP3    H1 3858   5.284   2.312   5.849
 1298TIP3    H2 3859   5.345   2.352   5.716
 1299TIP3   OH2 3860   1.393   1.227   2.851
 1299TIP3    H1 3861   1.438   1.144   2.839
 1299TIP3    H2 3862   1.365   1.252   2.762
 1300TIP3   OH2 3863   4.852   4.346   4.979
 1300TIP3    H1 3864   4.821   4.416   4.920
 1300TIP3    H2 3865   4.788   4.346   5.050
 1301TIP3   OH2 3866   0.025   6.352   4.122
 1301TIP3    H1 3867   0.070   6.436   4.124
 1301TIP3    H2 3868   0.028   6.321   4.213
 1302TIP3   OH2 3869   4.608   3.826   3.379
 1302TIP3    H1 3870   4.602   3.750   3.437
 1302TIP3    H2 3871   4.693   3.865   3.400
 1303TIP3   OH2 3872   4.395   3.221   5.863
 1303TIP3    H1 3873   4.398   3.309   5.826
 1303TIP3    H2 3874   4.398   3.163   5.787
 1304TIP3   OH2 3875   4.731   5.594   1.445
 1304TIP3    H1 3876   4.777   5.600   1.362
 1304TIP3    H2 3877   4.666   5.665   1.442
 1305TIP3   OH2 3878   0.495   0.115   1.934
 1305TIP3    H1 3879   0.409   0.156   1.937
 1305TIP3    H2 3880   0.480   0.032   1.888
 1306TIP3   OH2 3881   2.954   3.880   0.527
 1306TIP3    H1 3882   3.043   3.914   0.536
 1306TIP3    H2 3883   2.960   3.815   0.457
 1307TIP3   OH2 3884   1.159   5.896   4.899
 1307TIP3    H1 3885   1.173   5.873   4.808
 1307TIP3    H2 3886   1.099   5.829   4.932
 1308TIP3   OH2 3887   4.339   1.782   2.178
 1308TIP3    H1 3888   4.325   1.847   2.109
 1308TIP3    H2 3889   4.425   1.746   2.160
 1309TIP3   OH2 3890   0.394   4.968   2.643
 1309TIP3    H1 3891   0.448   4.929   2.574
 1309TIP3    H2 3892   0.334   4.897   2.669
 1310TIP3   OH2 3893   0.052   1.768   0.124
 1310TIP3    H1 3894   0.073   1.861   0.132
 1310TIP3    H2 3895   0.121   1.732   0.067
 1311TIP3   OH2 3896   4.769   4.376   2.349
 1311TIP3    H1 3897   4.844   4.351   2.294
 1311TIP3    H2 3898   4.721   4.440   2.297
 1312TIP3   OH2 3899   6.235   1.035   5.045
 1312TIP3    H1 3900   6.221   0.950   5.086
 1312TIP3    H2 3901   6.325   1.032   5.013
 1313TIP3   OH2 3902   0.103   6.027   3.003
 1313TIP3    H1 3903   0.196   6.010   2.987
 1313TIP3    H2 3904   0.071   5.946   3.042
 1314TIP3   OH2 3905   1.829   6.549   1.211
 1314TIP3    H1 3906   1.872   6.465   1.196
 1314TIP3    H2 3907   1.889   6.597   1.268
 1315TIP3   OH2 3908   0.609   5.417   4.540
 1315TIP3    H1 3909   0.641   5.430   4.451
 1315TIP3    H2 3910   0.685   5.381   4.587
 1316TIP3   OH2 3911   0.782   2.450   0.384
 1316TIP3    H1 3912   0.687   2.448   0.372
 1316TIP3    H2 3913   0.811   2.364   0.352
 1317TIP3   OH2 3914   0.677   5.272   2.916
 1317TIP3    H1 3915   0.683   5.183   2.882
 1317TIP3    H2 3916   0.672   5.260   3.011
 1318TIP3   OH2 3917   0.053   2.528   1.975
 1318TIP3    H1 3918  -0.041   2.514   1.987
 1318TIP3    H2 3919   0.065   2.622   1.986
 1319TIP3   OH2 3920   7.099   4.337   3.213
 1319TIP3    H1 3921   7.110   4.388   3.133
 1319TIP3    H2 3922   7.110   4.400   3.284
 1320TIP3   OH2 3923   1.348   1.222   2.553
 1320TIP3    H1 3924   1.371   1.312   2.528
 1320TIP3    H2 3925   1.360   1.171   2.473
 1321TIP3   OH2 3926   4.603   0.588   4.028
 1321TIP3    H1 3927   4.521   0.537   4.024
 1321TIP3    H2 3928   4.581   0.664   4.083
 1322TIP3   OH2 3929   4.583   6.296   5.107
 1322TIP3    H1 3930   4.534   6.219   5.134
 1322TIP3    H2 3931   4.545   6.368   5.158
 1323TIP3   OH2 3932   5.220   3.740   1.318
 1323TIP3    H1 3933   5.180   3.684   1.384
 1323TIP3    H2 3934   5.304   3.766   1.356
 1324TIP3   OH2 3935   0.242   0.306   5.604
 1324TIP3    H1 3936   0.338   0.310   5.613
 1324TIP3    H2 3937   0.212   0.390   5.639
 1325TIP3   OH2 3938   1.018   1.926   0.395
 1325TIP3    H1 3939   1.066   1.875   0.329
 1325TIP3    H2 3940   0.939   1.875   0.411
 1326TIP3   OH2 3941   0.022   2.624   1.016
 1326TIP3    H1 3942   0.042   2.652   0.927
 1326TIP3    H2 3943   0.107   2.598   1.053
 1327TIP3   OH2 3944   1.709   3.828   4.994
 1327TIP3    H1 3945   1.625   3.789   4.970
 1327TIP3    H2 3946   1.702   3.844   5.088
 1328TIP3   OH2 3947   5.425   5.017   3.053
 1328TIP3    H1 3948   5.368   5.091   3.076
 1328TIP3    H2 3949   5.513   5.047   3.073
 1329TIP3   OH2 3950   6.099   0.163   3.683
 1329TIP3    H1 3951   6.111   0.181   3.590
 1329TIP3    H2 3952   6.012   0.199   3.703
 1330TIP3   OH2 3953   3.324   0.489   5.392
 1330TIP3    H1 3954   3.247   0.470   5.447
 1330TIP3    H2 3955   3.389   0.424   5.419
 1331TIP3   OH2 3956   1.847   5.253   3.413
 1331TIP3    H1 3957   1.779   5.200   3.371
 1331TIP3    H2 3958   1.799   5.322   3.458
 1332TIP3   OH2 3959   5.968   5.990   3.676
 1332TIP3    H1 3960   5.873   5.997   3.687
 1332TIP3    H2 3961   6.000   6.080   3.686
 1333TIP3   OH2 3962   0.615   3.539   3.546
 1333TIP3    H1 3963   0.678   3.565   3.479
 1333TIP3    H2 3964   0.571   3.462   3.509
 1334TIP3   OH2 3965   5.659   2.833   0.772
 1334TIP3    H1 3966   5.585   2.828   0.832
 1334TIP3    H2 3967   5.645   2.762   0.710
 1335TIP3   OH2 3968   3.596   1.050   4.859
 1335TIP3    H1 3969   3.618   0.969   4.814
 1335TIP3    H2 3970   3.604   1.118   4.792
 1336TIP3   OH2 3971   5.133   2.878   4.349
 1336TIP3    H1 3972   5.144   2.972   4.360
 1336TIP3    H2 3973   5.139   2.864   4.255
 1337TIP3   OH2 3974   4.266   6.156   5.756
 1337TIP3    H1 3975   4.272   6.129   5.847
 1337TIP3    H2 3976   4.299   6.246   5.756
 1338TIP3   OH2 3977   2.503   3.112   3.970
 1338TIP3    H1 3978   2.411   3.138   3.961
 1338TIP3    H2 3979   2.499   3.024   4.008
 1339TIP3   OH2 3980   4.597   0.203   4.397
 1339TIP3    H1 3981   4.545   0.129   4.367
 1339TIP3    H2 3982   4.651   0.226   4.321
 1340TIP3   OH2 3983   3.466   0.018   1.180
 1340TIP3    H1 3984   3.539   0.077   1.195
 1340TIP3    H2 3985   3.388   0.075   1.183
 1341TIP3   OH2 3986   2.162   0.683   1.851
 1341TIP3    H1 3987   2.212   0.703   1.772
 1341TIP3    H2 3988   2.074   0.664   1.820
 1342TIP3   OH2 3989   5.070   3.635   0.172
 1342TIP3    H1 3990   5.148   3.626   0.118
 1342TIP3    H2 3991   5.035   3.722   0.150
 1343TIP3   OH2 3992   6.057   0.911   1.427
 1343TIP3    H1 3993   6.141   0.870   1.448
 1343TIP3    H2 3994   6.030   0.869   1.345
 1344TIP3   OH2 3995   5.664   2.084   1.441
 1344TIP3    H1 3996   5.635   2.161   1.393
 1344TIP3    H2 3997   5.738   2.050   1.391
 1345TIP3   OH2 3998   4.372   2.864   0.615
 1345TIP3    H1 3999   4.352   2.957   0.617
 1345TIP3    H2 4000   4.324   2.827   0.689
 1346TIP3   OH2 4001   0.255   2.273   3.169
 1346TIP3    H1 4002   0.343   2.308   3.163
 1346TIP3    H2 4003   0.213   2.299   3.087
 1347TIP3   OH2 4004   5.959   2.457   0.835
 1347TIP3    H1 4005   5.906   2.532   0.863
 1347TIP3    H2 4006   6.008   2.432   0.913
 1348TIP3   OH2 4007   0.853   5.026   3.382
 1348TIP3    H1 4008   0.793   4.964   3.340
 1348TIP3    H2 4009   0.807   5.053   3.462
 1349TIP3   OH2 4010   2.391   3.849   2.823
 1349TIP3    H1 4011   2.397   3.780   2.758
 1349TIP3    H2 4012   2.336   3.813   2.892
 1350TIP3   OH2 4013   2.389   5.474   2.178
 1350TIP3    H1 4014   2.455   5.499   2.113
 1350TIP3    H2 4015   2.394   5.378   2.181
 1351TIP3   OH2 4016   3.117   1.617   4.616
 1351TIP3    H1 4017   3.112   1.532   4.660
 1351TIP3    H2 4018   3.037   1.662   4.642
 1352TIP3   OH2 4019   3.888   0.568   0.725
 1352TIP3    H1 4020   3.928   0.644   0.684
 1352TIP3    H2 4021   3.854   0.600   0.808
 1353TIP3   OH2 4022   5.540   2.523   5.688
 1353TIP3    H1 4023   5.584   2.483   5.763
 1353TIP3    H2 4024   5.582   2.482   5.612
 1354TIP3   OH2 4025   3.316   3.814   3.908
 1354TIP3    H1 4026   3.411   3.829   3.908
 1354TIP3    H2 4027   3.306   3.724   3.877
 1355TIP3   OH2 4028   3.454   5.511   4.594
 1355TIP3    H1 4029   3.368   5.469   4.594
 1355TIP3    H2 4030   3.434   5.604   4.604
 1356TIP3   OH2 4031   1.228   3.261   1.777
 1356TIP3    H1 4032   1.285   3.284   1.703
 1356TIP3    H2 4033   1.284   3.210   1.836
 1357TIP3   OH2 4034   5.651   0.757   4.189
 1357TIP3    H1 4035   5.661   0.794   4.101
 1357TIP3    H2 4036   5.702   0.677   4.187
 1358TIP3   OH2 4037   3.711   5.679   4.477
 1358TIP3    H1 4038   3.764   5.603   4.500
 1358TIP3    H2 4039   3.636   5.642   4.430
 1359TIP3   OH2 4040   4.353   1.901   0.707
 1359TIP3    H1 4041   4.329   1.894   0.614
 1359TIP3    H2 4042   4.412   1.976   0.710
 1360TIP3   OH2 4043   5.566   1.617   2.483
 1360TIP3    H1 4044   5.656   1.649   2.488
 1360TIP3    H2 4045   5.558   1.582   2.394
 1361TIP3   OH2 4046   6.224   2.958   1.707
 1361TIP3    H1 4047   6.130   2.939   1.713
 1361TIP3    H2 4048   6.259   2.935   1.793
 1362TIP3   OH2 4049   6.186   1.179   1.376
 1362TIP3    H1 4050   6.119   1.110   1.381
 1362TIP3    H2 4051   6.259   1.139   1.329
 1363TIP3   OH2 4052   1.745   3.969   4.658
 1363TIP3    H1 4053   1.802   3.989   4.732
 1363TIP3    H2 4054   1.805   3.950   4.586
 1364TIP3   OH2 4055   3.766   0.150   1.709
 1364TIP3    H1 4056   3.730   0.090   1.644
 1364TIP3    H2 4057   3.780   0.232   1.662
 1365TIP3   OH2 4058   1.540   1.443   2.486
 1365TIP3    H1 4059   1.620   1.457   2.536
 1365TIP3    H2 4060   1.471   1.482   2.540
 1366TIP3   OH2 4061   3.094   0.118   1.435
 1366TIP3    H1 4062   3.084   0.024   1.452
 1366TIP3    H2 4063   3.173   0.124   1.382
 1367TIP3   OH2 4064   5.424   1.003   3.804
 1367TIP3    H1 4065   5.383   0.972   3.885
 1367TIP3    H2 4066   5.407   1.097   3.803
 1368TIP3   OH2 4067   6.246   5.777   2.246
 1368TIP3    H1 4068   6.236   5.752   2.153
 1368TIP3    H2 4069   6.265   5.870   2.244
 1369TIP3   OH2 4070   3.355   6.632   3.109
 1369TIP3    H1 4071   3.315   6.638   3.195
 1369TIP3    H2 4072   3.447   6.654   3.124
 1370TIP3   OH2 4073   0.196   0.967   4.053
 1370TIP3    H1 4074   0.178   1.051   4.012
 1370TIP3    H2 4075   0.283   0.942   4.023
 1371TIP3   OH2 4076   2.051   4.708   3.702
 1371TIP3    H1 4077   1.994   4.639   3.735
 1371TIP3    H2 4078   2.027   4.717   3.610
 1372TIP3   OH2 4079   4.367   3.298   5.489
 1372TIP3    H1 4080   4.291   3.241   5.484
 1372TIP3    H2 4081   4.336   3.382   5.455
 1373TIP3   OH2 4082   7.042   1.409   2.505
 1373TIP3    H1 4083   7.026   1.498   2.476
 1373TIP3    H2 4084   7.136   1.396   2.494
 1374TIP3   OH2 4085   6.240   4.225   5.610
 1374TIP3    H1 4086   6.288   4.246   5.530
 1374TIP3    H2 4087   6.201   4.309   5.637
 1375TIP3   OH2 4088   4.182   0.619   4.874
 1375TIP3    H1 4089   4.212   0.709   4.860
 1375TIP3    H2 4090   4.241   0.585   4.942
 1376TIP3   OH2 4091   6.034   6.244   2.783
 1376TIP3    H1 4092   5.995   6.319   2.829
 1376TIP3    H2 4093   6.024   6.265   2.690
 1377TIP3   OH2 4094   6.154   4.128   2.958
 1377TIP3    H1 4095   6.203   4.179   3.022
 1377TIP3    H2 4096   6.221   4.093   2.899
 1378TIP3   OH2 4097   6.774   5.571   5.190
 1378TIP3    H1 4098   6.777   5.552   5.096
 1378TIP3    H2 4099   6.706   5.638   5.199
 1379TIP3   OH2 4100   3.618   3.890   3.332
 1379TIP3    H1 4101   3.678   3.861   3.264
 1379TIP3    H2 4102   3.574   3.811   3.362
 1380TIP3   OH2 4103   0.396   6.630   2.358
 1380TIP3    H1 4104   0.305   6.642   2.387
 1380TIP3    H2 4105   0.448   6.673   2.426
 1381TIP3   OH2 4106   4.286   5.399   2.987
 1381TIP3    H1 4107   4.203   5.440   3.009
 1381TIP3    H2 4108   4.323   5.372   3.071
 1382TIP3   OH2 4109   1.093   2.543   5.491
 1382TIP3    H1 4110   1.040   2.471   5.458
 1382TIP3    H2 4111   1.079   2.543   5.585
 1383TIP3   OH2 4112   2.108   0.431   3.059
 1383TIP3    H1 4113   2.059   0.355   3.027
 1383TIP3    H2 4114   2.186   0.394   3.101
 1384TIP3   OH2 4115   2.603   2.939   1.571
 1384TIP3    H1 4116   2.585   3.005   1.639
 1384TIP3    H2 4117   2.675   2.977   1.520
 1385TIP3   OH2 4118   3.831   1.850   5.709
 1385TIP3    H1 4119   3.905   1.806   5.667
 1385TIP3    H2 4120   3.762   1.783   5.712
 1386TIP3   OH2 4121   2.318   1.584   0.078
 1386TIP3    H1 4122   2.337   1.569  -0.015
 1386TIP3    H2 4123   2.369   1.518   0.124
 1387TIP3   OH2 4124   6.559   2.618   5.164
 1387TIP3    H1 4125   6.577   2.638   5.256
 1387TIP3    H2 4126   6.644   2.589   5.129
 1388TIP3   OH2 4127   6.445   3.769   2.606
 1388TIP3    H1 4128   6.466   3.853   2.648
 1388TIP3    H2 4129   6.372   3.735   2.658
 1389TIP3   OH2 4130   0.851   2.229   0.921
 1389TIP3    H1 4131   0.853   2.267   0.834
 1389TIP3    H2 4132   0.816   2.141   0.908
 1390TIP3   OH2 4133   0.378   1.872   1.227
 1390TIP3    H1 4134   0.343   1.962   1.229
 1390TIP3    H2 4135   0.307   1.820   1.189
 1391TIP3   OH2 4136   3.528   3.597   0.992
 1391TIP3    H1 4137   3.530   3.674   1.049
 1391TIP3    H2 4138   3.570   3.626   0.911
 1392TIP3   OH2 4139   7.020   2.406   1.787
 1392TIP3    H1 4140   6.966   2.455   1.848
 1392TIP3    H2 4141   7.064   2.472   1.734
 1393TIP3   OH2 4142   3.042   0.188   2.539
 1393TIP3    H1 4143   3.083   0.165   2.623
 1393TIP3    H2 4144   3.055   0.111   2.484
 1394TIP3   OH2 4145   0.719   3.708   0.167
 1394TIP3    H1 4146   0.646   3.657   0.200
 1394TIP3    H2 4147   0.722   3.688   0.073
 1395TIP3   OH2 4148   5.419   5.530   1.870
 1395TIP3    H1 4149   5.359   5.598   1.899
 1395TIP3    H2 4150   5.506   5.568   1.883
 1396TIP3   OH2 4151   1.177   1.206   3.152
 1396TIP3    H1 4152   1.210   1.148   3.221
 1396TIP3    H2 4153   1.121   1.268   3.198
 1397TIP3   OH2 4154   2.239   0.066   1.573
 1397TIP3    H1 4155   2.148   0.047   1.551
 1397TIP3    H2 4156   2.269   0.124   1.503
 1398TIP3   OH2 4157   1.007   1.033   1.410
 1398TIP3    H1 4158   1.055   1.083   1.343
 1398TIP3    H2 4159   0.990   0.948   1.367
 1399TIP3   OH2 4160   2.236   2.925   4.775
 1399TIP3    H1 4161   2.257   2.868   4.850
 1399TIP3    H2 4162   2.310   2.985   4.769
 1400TIP3   OH2 4163   2.271   6.152   2.461
 1400TIP3    H1 4164   2.322   6.161   2.541
 1400TIP3    H2 4165   2.210   6.081   2.479
 1401TIP3   OH2 4166   0.828   5.338   4.704
 1401TIP3    H1 4167   0.910   5.386   4.694
 1401TIP3    H2 4168   0.829   5.308   4.795
 1402TIP3   OH2 4169   1.904   6.271   4.186
 1402TIP3    H1 4170   1.929   6.352   4.229
 1402TIP3    H2 4171   1.926   6.202   4.249
 1403TIP3   OH2 4172   6.805   5.106   0.383
 1403TIP3    H1 4173   6.900   5.100   0.381
 1403TIP3    H2 4174   6.778   5.044   0.451
 1404TIP3   OH2 4175   3.828   5.454   5.239
 1404TIP3    H1 4176   3.792   5.370   5.269
 1404TIP3    H2 4177   3.905   5.430   5.187
 1405TIP3   OH2 4178   6.642   2.419   3.583
 1405TIP3    H1 4179   6.716   2.452   3.632
 1405TIP3    H2 4180   6.565   2.463   3.621
 1406TIP3   OH2 4181   4.605   1.712   0.442
 1406TIP3    H1 4182   4.677   1.720   0.379
 1406TIP3    H2 4183   4.628   1.774   0.512
 1407TIP3   OH2 4184   1.493   5.914   3.281
 1407TIP3    H1 4185   1.535   5.905   3.366
 1407TIP3    H2 4186   1.489   5.825   3.246
 1408TIP3   OH2 4187   0.955   3.437   4.337
 1408TIP3    H1 4188   0.977   3.345   4.323
 1408TIP3    H2 4189   1.033   3.475   4.377
 1409TIP3   OH2 4190   3.832   5.755   3.135
 1409TIP3    H1 4191   3.859   5.755   3.227
 1409TIP3    H2 4192   3.895   5.813   3.091
 1410TIP3   OH2 4193   3.191   2.376   4.097
 1410TIP3    H1 4194   3.217   2.415   4.180
 1410TIP3    H2 4195   3.255   2.305   4.083
 1411TIP3   OH2 4196   6.042   4.322   3.428
 1411TIP3    H1 4197   5.957   4.290   3.397
 1411TIP3    H2 4198   6.062   4.266   3.504
 1412TIP3   OH2 4199   4.087   6.326   2.664
 1412TIP3    H1 4200   4.006   6.374   2.650
 1412TIP3    H2 4201   4.156   6.387   2.639
 1413TIP3   OH2 4202   2.459   0.776   3.653
 1413TIP3    H1 4203   2.453   0.862   3.612
 1413TIP3    H2 4204   2.467   0.714   3.581
 1414TIP3   OH2 4205   5.896   5.130   0.581
 1414TIP3    H1 4206   5.906   5.057   0.641
 1414TIP3    H2 4207   5.836   5.098   0.514
 1415TIP3   OH2 4208   3.096   2.644   5.630
 1415TIP3    H1 4209   3.049   2.565   5.657
 1415TIP3    H2 4210   3.154   2.663   5.704
 1416TIP3   OH2 4211   7.170   5.375   2.912
 1416TIP3    H1 4212   7.116   5.374   2.833
 1416TIP3    H2 4213   7.229   5.450   2.899
 1417TIP3   OH2 4214   3.208   3.788   0.972
 1417TIP3    H1 4215   3.274   3.801   0.903
 1417TIP3    H2 4216   3.234   3.848   1.042
 1418TIP3   OH2 4217   4.065   5.314   5.161
 1418TIP3    H1 4218   4.085   5.240   5.218
 1418TIP3    H2 4219   4.113   5.296   5.081
 1419TIP3   OH2 4220   3.253   6.101   0.512
 1419TIP3    H1 4221   3.290   6.042   0.447
 1419TIP3    H2 4222   3.245   6.185   0.466
 1420TIP3   OH2 4223   6.772   1.665   2.821
 1420TIP3    H1 4224   6.692   1.618   2.798
 1420TIP3    H2 4225   6.752   1.757   2.805
 1421TIP3   OH2 4226   1.519   0.048   1.173
 1421TIP3    H1 4227   1.588  -0.009   1.138
 1421TIP3    H2 4228   1.496   0.105   1.099
 1422TIP3   OH2 4229   4.617   4.916   2.834
 1422TIP3    H1 4230   4.618   4.840   2.776
 1422TIP3    H2 4231   4.571   4.886   2.912
 1423TIP3   OH2 4232   2.805   4.555   3.986
 1423TIP3    H1 4233   2.732   4.614   3.965
 1423TIP3    H2 4234   2.789   4.528   4.077
 1424TIP3   OH2 4235   5.979   3.799   0.189
 1424TIP3    H1 4236   5.944   3.836   0.270
 1424TIP3    H2 4237   6.021   3.872   0.145
 1425TIP3   OH2 4238   4.719   1.113   0.356
 1425TIP3    H1 4239   4.648   1.122   0.293
 1425TIP3    H2 4240   4.754   1.201   0.366
 1426TIP3   OH2 4241   4.229   6.431   3.077
 1426TIP3    H1 4242   4.252   6.457   3.167
 1426TIP3    H2 4243   4.309   6.391   3.042
 1427TIP3   OH2 4244   5.732   2.171   4.128
 1427TIP3    H1 4245   5.774   2.120   4.197
 1427TIP3    H2 4246   5.686   2.107   4.075
 1428TIP3   OH2 4247   6.918   6.525   4.217
 1428TIP3    H1 4248   6.976   6.567   4.281
 1428TIP3    H2 4249   6.894   6.595   4.156
 1429TIP3   OH2 4250   3.185   1.147   5.744
 1429TIP3    H1 4251   3.211   1.200   5.819
 1429TIP3    H2 4252   3.099   1.111   5.769
 1430TIP3   OH2 4253   5.623   5.007   5.310
 1430TIP3    H1 4254   5.711   4.992   5.276
 1430TIP3    H2 4255   5.635   5.016   5.405
 1431TIP3   OH2 4256   4.089   2.713   0.412
 1431TIP3    H1 4257   4.072   2.681   0.323
 1431TIP3    H2 4258   4.184   2.709   0.420
 1432TIP3   OH2 4259   2.204   4.511   1.613
 1432TIP3    H1 4260   2.203   4.519   1.518
 1432TIP3    H2 4261   2.275   4.450   1.632
 1433TIP3   OH2 4262   1.408   4.641   4.494
 1433TIP3    H1 4263   1.344   4.711   4.503
 1433TIP3    H2 4264   1.406   4.596   4.578
 1434TIP3   OH2 4265   2.138   3.453   3.524
 1434TIP3    H1 4266   2.053   3.493   3.505
 1434TIP3    H2 4267   2.198   3.527   3.532
 1435TIP3   OH2 4268   7.012   3.882   1.004
 1435TIP3    H1 4269   7.014   3.788   0.989
 1435TIP3    H2 4270   6.998   3.892   1.098
 1436TIP3   OH2 4271   1.859   3.336   1.646
 1436TIP3    H1 4272   1.824   3.424   1.634
 1436TIP3    H2 4273   1.788   3.278   1.621
 1437TIP3   OH2 4274   5.637   0.500   4.920
 1437TIP3    H1 4275   5.695   0.511   4.845
 1437TIP3    H2 4276   5.645   0.408   4.945
 1438TIP3   OH2 4277   1.011   5.436   3.921
 1438TIP3    H1 4278   0.988   5.378   3.994
 1438TIP3    H2 4279   0.946   5.507   3.926
 1439TIP3   OH2 4280   1.706   1.643   0.300
 1439TIP3    H1 4281   1.711   1.580   0.228
 1439TIP3    H2 4282   1.666   1.593   0.372
 1440TIP3   OH2 4283   4.919   2.299   0.641
 1440TIP3    H1 4284   4.837   2.348   0.631
 1440TIP3    H2 4285   4.978   2.360   0.686
 1441TIP3   OH2 4286   1.048   3.917   3.302
 1441TIP3    H1 4287   1.032   3.983   3.235
 1441TIP3    H2 4288   0.991   3.943   3.375
 1442TIP3   OH2 4289   4.870   2.429   5.319
 1442TIP3    H1 4290   4.883   2.435   5.224
 1442TIP3    H2 4291   4.806   2.497   5.339
 1443TIP3   OH2 4292   1.207   0.611   0.550
 1443TIP3    H1 4293   1.278   0.676   0.546
 1443TIP3    H2 4294   1.174   0.618   0.640
 1444TIP3   OH2 4295   0.470   4.532   2.105
 1444TIP3    H1 4296   0.379   4.503   2.111
 1444TIP3    H2 4297   0.501   4.531   2.196
 1445TIP3   OH2 4298   7.152   5.670   4.440
 1445TIP3    H1 4299   7.065   5.699   4.414
 1445TIP3    H2 4300   7.207   5.748   4.431
 1446TIP3   OH2 4301   5.513   5.840   3.075
 1446TIP3    H1 4302   5.492   5.747   3.080
 1446TIP3    H2 4303   5.576   5.854   3.146
 1447TIP3   OH2 4304   3.925   5.894   4.003
 1447TIP3    H1 4305   3.899   5.805   3.978
 1447TIP3    H2 4306   4.014   5.902   3.970
 1448TIP3   OH2 4307   3.189   3.358   0.332
 1448TIP3    H1 4308   3.189   3.406   0.249
 1448TIP3    H2 4309   3.107   3.382   0.374
 1449TIP3   OH2 4310   3.878   2.714   5.517
 1449TIP3    H1 4311   3.938   2.760   5.458
 1449TIP3    H2 4312   3.873   2.771   5.594
 1450TIP3   OH2 4313   4.691   0.019   1.262
 1450TIP3    H1 4314   4.732  -0.067   1.272
 1450TIP3    H2 4315   4.764   0.080   1.261
 1451TIP3   OH2 4316   1.492   3.838   4.701
 1451TIP3    H1 4317   1.587   3.845   4.713
 1451TIP3    H2 4318   1.465   3.767   4.760
 1452TIP3   OH2 4319   6.730   5.927   4.464
 1452TIP3    H1 4320   6.644   5.890   4.443
 1452TIP3    H2 4321   6.727   5.943   4.558
 1453TIP3   OH2 4322   4.062   1.083   3.596
 1453TIP3    H1 4323   4.090   1.171   3.575
 1453TIP3    H2 4324   4.109   1.026   3.535
 1454TIP3   OH2 4325   4.318   1.634   0.287
 1454TIP3    H1 4326   4.379   1.671   0.351
 1454TIP3    H2 4327   4.352   1.664   0.202
 1455TIP3   OH2 4328   5.983   0.056   5.454
 1455TIP3    H1 4329   5.980   0.128   5.517
 1455TIP3    H2 4330   5.896   0.018   5.457
 1456TIP3   OH2 4331   2.297   4.978   4.857
 1456TIP3    H1 4332   2.251   4.908   4.903
 1456TIP3    H2 4333   2.385   4.979   4.894
 1457TIP3   OH2 4334   3.498   3.355   4.124
 1457TIP3    H1 4335   3.480   3.299   4.200
 1457TIP3    H2 4336   3.438   3.429   4.134
 1458TIP3   OH2 4337   6.210   6.539   3.370
 1458TIP3    H1 4338   6.263   6.614   3.343
 1458TIP3    H2 4339   6.275   6.471   3.392
 1459TIP3   OH2 4340   3.631   6.445   1.590
 1459TIP3    H1 4341   3.610   6.418   1.501
 1459TIP3    H2 4342   3.695   6.380   1.620
 1460TIP3   OH2 4343   6.406   2.341   1.615
 1460TIP3    H1 4344   6.346   2.267   1.618
 1460TIP3    H2 4345   6.484   2.312   1.663
 1461TIP3   OH2 4346   3.676   5.038   0.276
 1461TIP3    H1 4347   3.684   4.953   0.319
 1461TIP3    H2 4348   3.722   5.099   0.333
 1462TIP3   OH2 4349   6.824   2.810   4.858
 1462TIP3    H1 4350   6.748   2.797   4.915
 1462TIP3    H2 4351   6.888   2.856   4.914
 1463TIP3   OH2 4352   0.235   2.347   4.413
 1463TIP3    H1 4353   0.218   2.271   4.356
 1463TIP3    H2 4354   0.306   2.318   4.470
 1464TIP3   OH2 4355   4.681   1.658   5.666
 1464TIP3    H1 4356   4.661   1.633   5.756
 1464TIP3    H2 4357   4.675   1.754   5.666
 1465TIP3   OH2 4358   4.536   3.259   3.243
 1465TIP3    H1 4359   4.526   3.165   3.229
 1465TIP3    H2 4360   4.447   3.294   3.239
 1466TIP3   OH2 4361   0.733   5.756   0.221
 1466TIP3    H1 4362   0.757   5.663   0.227
 1466TIP3    H2 4363   0.652   5.763   0.272
 1467TIP3   OH2 4364   1.556   0.012   2.800
 1467TIP3    H1 4365   1.512  -0.010   2.718
 1467TIP3    H2 4366   1.558  -0.069   2.849
 1468TIP3   OH2 4367   4.752   5.683   0.705
 1468TIP3    H1 4368   4.741   5.778   0.708
 1468TIP3    H2 4369   4.842   5.671   0.673
 1469TIP3   OH2 4370   0.701   0.757   1.522
 1469TIP3    H1 4371   0.655   0.838   1.542
 1469TIP3    H2 4372   0.779   0.760   1.577
 1470TIP3   OH2 4373   0.037   1.714   0.965
 1470TIP3    H1 4374  -0.023   1.640   0.971
 1470TIP3    H2 4375   0.096   1.703   1.040
 1471TIP3   OH2 4376   6.606   2.955   0.490
 1471TIP3    H1 4377   6.610   2.885   0.425
 1471TIP3    H2 4378   6.661   2.924   0.562
 1472TIP3   OH2 4379   6.891   6.413   4.564
 1472TIP3    H1 4380   6.806   6.379   4.535
 1472TIP3    H2 4381   6.875   6.505   4.582
 1473TIP3   OH2 4382   1.504   6.410   2.376
 1473TIP3    H1 4383   1.504   6.485   2.436
 1473TIP3    H2 4384   1.476   6.446   2.292
 1474TIP3   OH2 4385   6.118   4.631   1.809
 1474TIP3    H1 4386   6.176   4.601   1.739
 1474TIP3    H2 4387   6.041   4.574   1.803
 1475TIP3   OH2 4388   2.168   4.680   4.645
 1475TIP3    H1 4389   2.094   4.635   4.604
 1475TIP3    H2 4390   2.131   4.719   4.724
 1476TIP3   OH2 4391   3.111   3.997   4.089
 1476TIP3    H1 4392   3.074   3.961   4.008
 1476TIP3    H2 4393   3.068   3.948   4.159
 1477TIP3   OH2 4394   1.036   5.223   1.201
 1477TIP3    H1 4395   0.971   5.196   1.136
 1477TIP3    H2 4396   1.012   5.173   1.280
 1478TIP3   OH2 4397   0.531   0.196   3.972
 1478TIP3    H1 4398   0.439   0.185   3.996
 1478TIP3    H2 4399   0.573   0.230   4.051
 1479TIP3   OH2 4400   5.256   5.025   3.834
 1479TIP3    H1 4401   5.204   4.954   3.870
 1479TIP3    H2 4402   5.302   4.987   3.760
 1480TIP3   OH2 4403   5.673   6.686   4.226
 1480TIP3    H1 4404   5.716   6.756   4.276
 1480TIP3    H2 4405   5.744   6.624   4.207
 1481TIP3   OH2 4406   0.989   1.209   2.944
 1481TIP3    H1 4407   0.910   1.197   2.996
 1481TIP3    H2 4408   1.059   1.166   2.994
 1482TIP3   OH2 4409   4.978   4.365   2.119
 1482TIP3    H1 4410   4.980   4.361   2.024
 1482TIP3    H2 4411   4.983   4.274   2.148
 1483TIP3   OH2 4412   2.485   0.448   1.626
 1483TIP3    H1 4413   2.493   0.542   1.643
 1483TIP3    H2 4414   2.567   0.424   1.583
 1484TIP3   OH2 4415   2.701   1.924   3.341
 1484TIP3    H1 4416   2.634   1.932   3.409
 1484TIP3    H2 4417   2.783   1.933   3.389
 1485TIP3   OH2 4418   0.610   3.512   2.730
 1485TIP3    H1 4419   0.627   3.573   2.659
 1485TIP3    H2 4420   0.607   3.566   2.809
 1486TIP3   OH2 4421   0.403   6.166   2.711
 1486TIP3    H1 4422   0.443   6.111   2.779
 1486TIP3    H2 4423   0.401   6.254   2.749
 1487TIP3   OH2 4424   2.985   6.504   3.727
 1487TIP3    H1 4425   2.922   6.536   3.662
 1487TIP3    H2 4426   2.938   6.434   3.773
 1488TIP3   OH2 4427   3.927   6.110   2.313
 1488TIP3    H1 4428   3.851   6.164   2.336
 1488TIP3    H2 4429   3.890   6.023   2.296
 1489TIP3   OH2 4430   1.248   3.829   4.003
 1489TIP3    H1 4431   1.245   3.788   4.089
 1489TIP3    H2 4432   1.160   3.819   3.968
 1490TIP3   OH2 4433   5.934   0.185   3.994
 1490TIP3    H1 4434   5.979   0.127   3.933
 1490TIP3    H2 4435   5.844   0.189   3.961
 1491TIP3   OH2 4436   5.840   0.055   0.994
 1491TIP3    H1 4437   5.833   0.150   1.003
 1491TIP3    H2 4438   5.750   0.024   0.991
 1492TIP3   OH2 4439   2.904   0.695   2.082
 1492TIP3    H1 4440   2.818   0.733   2.062
 1492TIP3    H2 4441   2.934   0.659   1.999
 1493TIP3   OH2 4442   0.333   2.897   0.621
 1493TIP3    H1 4443   0.308   2.873   0.710
 1493TIP3    H2 4444   0.427   2.879   0.617
 1494TIP3   OH2 4445   0.051   2.788   3.702
 1494TIP3    H1 4446  -0.027   2.788   3.647
 1494TIP3    H2 4447   0.019   2.766   3.790
 1495TIP3   OH2 4448   2.517   4.204   3.657
 1495TIP3    H1 4449   2.464   4.185   3.734
 1495TIP3    H2 4450   2.525   4.121   3.611
 1496TIP3   OH2 4451   2.715   0.468   5.528
 1496TIP3    H1 4452   2.620   0.462   5.521
 1496TIP3    H2 4453   2.745   0.488   5.440
 1497TIP3   OH2 4454   4.233   3.929   1.342
 1497TIP3    H1 4455   4.150   3.909   1.299
 1497TIP3    H2 4456   4.296   3.937   1.270
 1498TIP3   OH2 4457   1.210   2.386   3.961
 1498TIP3    H1 4458   1.294   2.421   3.989
 1498TIP3    H2 4459   1.169   2.354   4.041
 1499TIP3   OH2 4460   6.587   4.176   0.333
 1499TIP3    H1 4461   6.505   4.194   0.285
 1499TIP3    H2 4462   6.602   4.255   0.385
 1500TIP3   OH2 4463   5.290   3.878   0.174
 1500TIP3    H1 4464   5.346   3.894   0.098
 1500TIP3    H2 4465   5.202   3.869   0.138
 1501TIP3   OH2 4466   5.933   2.071   4.970
 1501TIP3    H1 4467   5.864   2.097   4.908
 1501TIP3    H2 4468   5.911   1.982   4.994
 1502TIP3   OH2 4469   4.276   5.978   3.232
 1502TIP3    H1 4470   4.257   5.885   3.223
 1502TIP3    H2 4471   4.366   5.988   3.201
 1503TIP3   OH2 4472   6.136   3.526   4.397
 1503TIP3    H1 4473   6.180   3.567   4.472
 1503TIP3    H2 4474   6.204   3.473   4.356
 1504TIP3   OH2 4475   0.528   1.495   1.087
 1504TIP3    H1 4476   0.573   1.453   1.013
 1504TIP3    H2 4477   0.467   1.429   1.120
 1505TIP3   OH2 4478   3.023   1.978   3.006
 1505TIP3    H1 4479   2.933   2.000   2.981
 1505TIP3    H2 4480   3.015   1.937   3.092
 1506TIP3   OH2 4481   3.048   4.936   3.472
 1506TIP3    H1 4482   3.091   4.853   3.490
 1506TIP3    H2 4483   3.116   4.989   3.430
 1507TIP3   OH2 4484   0.240   4.624   1.146
 1507TIP3    H1 4485   0.161   4.575   1.169
 1507TIP3    H2 4486   0.213   4.716   1.149
 1508TIP3   OH2 4487   4.542   5.745   2.783
 1508TIP3    H1 4488   4.534   5.651   2.802
 1508TIP3    H2 4489   4.623   5.752   2.734
 1509TIP3   OH2 4490   1.444   4.247   2.541
 1509TIP3    H1 4491   1.380   4.312   2.512
 1509TIP3    H2 4492   1.423   4.232   2.633
 1510TIP3   OH2 4493   3.424   5.175   4.236
 1510TIP3    H1 4494   3.418   5.200   4.144
 1510TIP3    H2 4495   3.491   5.106   4.237
 1511TIP3   OH2 4496   2.065   2.727   2.540
 1511TIP3    H1 4497   2.096   2.792   2.477
 1511TIP3    H2 4498   2.042   2.777   2.618
 1512TIP3   OH2 4499   2.582   5.702   0.498
 1512TIP3    H1 4500   2.491   5.681   0.475
 1512TIP3    H2 4501   2.584   5.695   0.593
 1513TIP3   OH2 4502   0.146   0.844   0.731
 1513TIP3    H1 4503   0.054   0.821   0.718
 1513TIP3    H2 4504   0.188   0.763   0.759
 1514TIP3   OH2 4505   3.738   3.237   2.079
 1514TIP3    H1 4506   3.724   3.166   2.142
 1514TIP3    H2 4507   3.776   3.193   2.002
 1515TIP3   OH2 4508   2.692   0.628   2.956
 1515TIP3    H1 4509   2.618   0.571   2.978
 1515TIP3    H2 4510   2.689   0.637   2.861
 1516TIP3   OH2 4511   2.363   1.555   1.859
 1516TIP3    H1 4512   2.397   1.484   1.913
 1516TIP3    H2 4513   2.336   1.512   1.778
 1517TIP3   OH2 4514   3.116   4.821   3.858
 1517TIP3    H1 4515   3.067   4.862   3.787
 1517TIP3    H2 4516   3.207   4.848   3.843
 1518TIP3   OH2 4517   3.227   4.023   3.077
 1518TIP3    H1 4518   3.308   4.030   3.127
 1518TIP3    H2 4519   3.254   3.995   2.990
 1519TIP3   OH2 4520   3.435   5.903   5.094
 1519TIP3    H1 4521   3.481   5.879   5.013
 1519TIP3    H2 4522   3.434   5.822   5.145
 1520TIP3   OH2 4523   7.212   0.355   3.984
 1520TIP3    H1 4524   7.148   0.380   3.918
 1520TIP3    H2 4525   7.164   0.298   4.044
 1521TIP3   OH2 4526   0.556   1.120   4.250
 1521TIP3    H1 4527   0.485   1.169   4.292
 1521TIP3    H2 4528   0.528   1.029   4.256
 1522TIP3   OH2 4529   3.249   0.482   1.964
 1522TIP3    H1 4530   3.163   0.489   1.922
 1522TIP3    H2 4531   3.311   0.480   1.891
 1523TIP3   OH2 4532   1.810   3.247   5.471
 1523TIP3    H1 4533   1.714   3.241   5.470
 1523TIP3    H2 4534   1.830   3.285   5.556
 1524TIP3   OH2 4535   6.484   4.242   1.004
 1524TIP3    H1 4536   6.547   4.181   0.964
 1524TIP3    H2 4537   6.482   4.218   1.096
 1525TIP3   OH2 4538   4.851   0.560   2.392
 1525TIP3    H1 4539   4.842   0.617   2.316
 1525TIP3    H2 4540   4.844   0.471   2.358
 1526TIP3   OH2 4541   4.491   2.609   2.129
 1526TIP3    H1 4542   4.563   2.592   2.068
 1526TIP3    H2 4543   4.414   2.575   2.084
 1527TIP3   OH2 4544   5.868   1.763   0.960
 1527TIP3    H1 4545   5.786   1.806   0.985
 1527TIP3    H2 4546   5.853   1.733   0.870
 1528TIP3   OH2 4547   2.414   4.054   0.870
 1528TIP3    H1 4548   2.354   4.127   0.885
 1528TIP3    H2 4549   2.496   4.096   0.843
 1529TIP3   OH2 4550   1.976   0.845   5.871
 1529TIP3    H1 4551   2.001   0.930   5.835
 1529TIP3    H2 4552   2.058   0.803   5.895
 1530TIP3   OH2 4553   6.423   0.680   5.336
 1530TIP3    H1 4554   6.459   0.647   5.253
 1530TIP3    H2 4555   6.454   0.618   5.402
 1531TIP3   OH2 4556   6.943   5.117   2.443
 1531TIP3    H1 4557   6.930   5.045   2.382
 1531TIP3    H2 4558   7.011   5.171   2.403
 1532TIP3   OH2 4559   5.391   6.059   1.952
 1532TIP3    H1 4560   5.381   6.134   2.011
 1532TIP3    H2 4561   5.486   6.044   1.949
 1533TIP3   OH2 4562   0.116   6.219   3.662
 1533TIP3    H1 4563   0.193   6.162   3.668
 1533TIP3    H2 4564   0.071   6.209   3.746
 1534TIP3   OH2 4565   3.361   5.873   3.068
 1534TIP3    H1 4566   3.347   5.825   3.149
 1534TIP3    H2 4567   3.434   5.828   3.025
 1535TIP3   OH2 4568   3.426   2.422   2.674
 1535TIP3    H1 4569   3.362   2.358   2.704
 1535TIP3    H2 4570   3.374   2.494   2.639
 1536TIP3   OH2 4571   2.240   3.470   5.394
 1536TIP3    H1 4572   2.282   3.550   5.363
 1536TIP3    H2 4573   2.163   3.461   5.338
 1537TIP3   OH2 4574   5.068   3.358   1.539
 1537TIP3    H1 4575   5.008   3.324   1.472
 1537TIP3    H2 4576   5.155   3.341   1.504
 1538TIP3   OH2 4577   1.445   0.394   3.082
 1538TIP3    H1 4578   1.398   0.317   3.049
 1538TIP3    H2 4579   1.406   0.467   3.034
 1539TIP3   OH2 4580   4.666   3.710   4.330
 1539TIP3    H1 4581   4.676   3.616   4.346
 1539TIP3    H2 4582   4.734   3.732   4.266
 1540TIP3   OH2 4583   2.320   6.217   1.976
 1540TIP3    H1 4584   2.240   6.224   2.028
 1540TIP3    H2 4585   2.307   6.140   1.922
 1541TIP3   OH2 4586   1.239   2.273   1.039
 1541TIP3    H1 4587   1.248   2.330   1.115
 1541TIP3    H2 4588   1.302   2.308   0.976
 1542TIP3   OH2 4589   0.386   0.138   0.700
 1542TIP3    H1 4590   0.361   0.096   0.618
 1542TIP3    H2 4591   0.312   0.120   0.759
 1543TIP3   OH2 4592   7.044   4.291   1.881
 1543TIP3    H1 4593   7.027   4.261   1.792
 1543TIP3    H2 4594   7.138   4.309   1.883
 1544TIP3   OH2 4595   0.204   6.574   4.124
 1544TIP3    H1 4596   0.214   6.628   4.202
 1544TIP3    H2 4597   0.294   6.558   4.094
 1545TIP3   OH2 4598   5.098   0.215   2.913
 1545TIP3    H1 4599   5.153   0.290   2.934
 1545TIP3    H2 4600   5.160   0.147   2.886
 1546TIP3   OH2 4601   5.444   6.531   5.712
 1546TIP3    H1 4602   5.419   6.575   5.631
 1546TIP3    H2 4603   5.374   6.467   5.727
 1547TIP3   OH2 4604   2.461   0.118   0.694
 1547TIP3    H1 4605   2.432   0.043   0.746
 1547TIP3    H2 4606   2.540   0.149   0.738
 1548TIP3   OH2 4607   3.565   6.313   0.491
 1548TIP3    H1 4608   3.609   6.246   0.439
 1548TIP3    H2 4609   3.484   6.332   0.444
 1549TIP3   OH2 4610   5.947   1.908   3.187
 1549TIP3    H1 4611   5.959   1.987   3.134
 1549TIP3    H2 4612   5.907   1.845   3.128
 1550TIP3   OH2 4613   4.015   0.462   3.593
 1550TIP3    H1 4614   4.084   0.509   3.639
 1550TIP3    H2 4615   4.059   0.424   3.516
 1551TIP3   OH2 4616   5.491   2.321   4.679
 1551TIP3    H1 4617   5.497   2.276   4.595
 1551TIP3    H2 4618   5.485   2.414   4.655
 1552TIP3   OH2 4619   1.803   3.583   5.199
 1552TIP3    H1 4620   1.868   3.602   5.266
 1552TIP3    H2 4621   1.734   3.648   5.212
 1553TIP3   OH2 4622   0.501   3.142   4.266
 1553TIP3    H1 4623   0.505   3.047   4.275
 1553TIP3    H2 4624   0.472   3.157   4.176
 1554TIP3   OH2 4625   4.334   3.134   0.588
 1554TIP3    H1 4626   4.414   3.144   0.537
 1554TIP3    H2 4627   4.267   3.112   0.523
 1555TIP3   OH2 4628   1.494   5.491   2.675
 1555TIP3    H1 4629   1.400   5.484   2.662
 1555TIP3    H2 4630   1.524   5.400   2.681
 1556TIP3   OH2 4631   0.326   0.636   0.824
 1556TIP3    H1 4632   0.363   0.570   0.766
 1556TIP3    H2 4633   0.272   0.586   0.886
 1557TIP3   OH2 4634   3.908   4.329   0.155
 1557TIP3    H1 4635   3.965   4.406   0.149
 1557TIP3    H2 4636   3.849   4.338   0.080
 1558TIP3   OH2 4637   4.508   1.373   2.673
 1558TIP3    H1 4638   4.472   1.462   2.681
 1558TIP3    H2 4639   4.602   1.386   2.662
 1559TIP3   OH2 4640   5.482   1.289   3.316
 1559TIP3    H1 4641   5.493   1.382   3.335
 1559TIP3    H2 4642   5.459   1.286   3.223
 1560TIP3   OH2 4643   0.905   2.496   2.105
 1560TIP3    H1 4644   0.831   2.436   2.118
 1560TIP3    H2 4645   0.972   2.464   2.165
 1561TIP3   OH2 4646   0.255   6.515   2.132
 1561TIP3    H1 4647   0.232   6.566   2.055
 1561TIP3    H2 4648   0.328   6.563   2.172
 1562TIP3   OH2 4649   0.496   1.838   2.877
 1562TIP3    H1 4650   0.434   1.801   2.815
 1562TIP3    H2 4651   0.573   1.860   2.824
 1563TIP3   OH2 4652   3.441   6.706   0.055
 1563TIP3    H1 4653   3.431   6.646  -0.019
 1563TIP3    H2 4654   3.491   6.779   0.020
 1564TIP3   OH2 4655   5.941   2.451   1.423
 1564TIP3    H1 4656   5.901   2.524   1.470
 1564TIP3    H2 4657   5.879   2.433   1.352
 1565TIP3   OH2 4658   4.519   5.675   2.079
 1565TIP3    H1 4659   4.487   5.603   2.133
 1565TIP3    H2 4660   4.561   5.632   2.005
 1566TIP3   OH2 4661   5.502   3.240   4.133
 1566TIP3    H1 4662   5.544   3.227   4.048
 1566TIP3    H2 4663   5.505   3.335   4.147
 1567TIP3   OH2 4664   3.992   2.119   4.014
 1567TIP3    H1 4665   4.012   2.035   4.056
 1567TIP3    H2 4666   4.075   2.145   3.973
 1568TIP3   OH2 4667   2.561   6.339   4.241
 1568TIP3    H1 4668   2.562   6.252   4.201
 1568TIP3    H2 4669   2.529   6.396   4.171
 1569TIP3   OH2 4670   4.939   0.440   1.891
 1569TIP3    H1 4671   4.932   0.345   1.883
 1569TIP3    H2 4672   5.022   0.454   1.937
 1570TIP3   OH2 4673   4.454   5.007   2.409
 1570TIP3    H1 4674   4.543   5.002   2.443
 1570TIP3    H2 4675   4.399   4.979   2.482
 1571TIP3   OH2 4676   3.547   6.085   5.709
 1571TIP3    H1 4677   3.579   5.999   5.681
 1571TIP3    H2 4678   3.613   6.146   5.678
 1572TIP3   OH2 4679   2.683   5.052   1.992
 1572TIP3    H1 4680   2.669   4.959   1.970
 1572TIP3    H2 4681   2.621   5.099   1.937
 1573TIP3   OH2 4682   1.504   1.228   3.482
 1573TIP3    H1 4683   1.582   1.284   3.479
 1573TIP3    H2 4684   1.437   1.284   3.522
 1574TIP3   OH2 4685   5.973   1.037   3.988
 1574TIP3    H1 4686   5.916   1.078   3.922
 1574TIP3    H2 4687   5.941   1.071   4.071
 1575TIP3   OH2 4688   5.646   0.531   5.231
 1575TIP3    H1 4689   5.620   0.621   5.209
 1575TIP3    H2 4690   5.740   0.529   5.216
 1576TIP3   OH2 4691   1.745   6.234   5.540
 1576TIP3    H1 4692   1.818   6.211   5.481
 1576TIP3    H2 4693   1.695   6.153   5.548
 1577TIP3   OH2 4694   0.833   2.047   0.669
 1577TIP3    H1 4695   0.805   1.996   0.745
 1577TIP3    H2 4696   0.910   2.001   0.635
 1578TIP3   OH2 4697   1.012   2.714   3.190
 1578TIP3    H1 4698   0.999   2.787   3.250
 1578TIP3    H2 4699   1.036   2.754   3.107
 1579TIP3   OH2 4700   6.584   0.127   0.607
 1579TIP3    H1 4701   6.539   0.058   0.557
 1579TIP3    H2 4702   6.525   0.202   0.604
 1580TIP3   OH2 4703   3.750   0.115   5.771
 1580TIP3    H1 4704   3.725   0.024   5.784
 1580TIP3    H2 4705   3.672   0.156   5.733
 1581TIP3   OH2 4706   5.044   0.700   0.588
 1581TIP3    H1 4707   4.987   0.775   0.569
 1581TIP3    H2 4708   5.030   0.640   0.515
 1582TIP3   OH2 4709   4.020   0.121   2.908
 1582TIP3    H1 4710   4.076   0.056   2.951
 1582TIP3    H2 4711   4.018   0.195   2.968
 1583TIP3   OH2 4712   0.988   5.143   5.487
 1583TIP3    H1 4713   1.032   5.088   5.423
 1583TIP3    H2 4714   0.924   5.193   5.437
 1584TIP3   OH2 4715   6.072   4.307   1.821
 1584TIP3    H1 4716   6.006   4.360   1.777
 1584TIP3    H2 4717   6.154   4.353   1.804
 1585TIP3   OH2 4718   4.156   5.632   5.479
 1585TIP3    H1 4719   4.070   5.608   5.443
 1585TIP3    H2 4720   4.146   5.621   5.574
 1586TIP3   OH2 4721   0.172   4.429   2.682
 1586TIP3    H1 4722   0.185   4.335   2.678
 1586TIP3    H2 4723   0.077   4.440   2.681
 1587TIP3   OH2 4724   6.876   1.101   1.300
 1587TIP3    H1 4725   6.870   1.119   1.206
 1587TIP3    H2 4726   6.962   1.135   1.325
 1588TIP3   OH2 4727   7.160   6.656   4.935
 1588TIP3    H1 4728   7.211   6.695   4.864
 1588TIP3    H2 4729   7.070   6.682   4.917
 1589TIP3   OH2 4730   2.399   6.802   2.663
 1589TIP3    H1 4731   2.472   6.794   2.602
 1589TIP3    H2 4732   2.409   6.730   2.724
 1590TIP3   OH2 4733   4.626   3.813   1.796
 1590TIP3    H1 4734   4.681   3.771   1.730
 1590TIP3    H2 4735   4.639   3.907   1.782
 1591TIP3   OH2 4736   2.031   1.483   1.986
 1591TIP3    H1 4737   2.023   1.458   1.894
 1591TIP3    H2 4738   1.943   1.469   2.022
 1592TIP3   OH2 4739   2.084   4.239   3.126
 1592TIP3    H1 4740   2.094   4.277   3.038
 1592TIP3    H2 4741   2.147   4.167   3.128
 1593TIP3   OH2 4742   2.436   6.002   1.324
 1593TIP3    H1 4743   2.448   6.007   1.419
 1593TIP3    H2 4744   2.395   6.086   1.301
 1594TIP3   OH2 4745   2.492   5.696   3.459
 1594TIP3    H1 4746   2.429   5.637   3.418
 1594TIP3    H2 4747   2.570   5.691   3.402
 1595TIP3   OH2 4748   5.132   3.054   3.543
 1595TIP3    H1 4749   5.114   2.963   3.520
 1595TIP3    H2 4750   5.226   3.056   3.563
 1596TIP3   OH2 4751   5.552   4.186   1.311
 1596TIP3    H1 4752   5.462   4.220   1.319
 1596TIP3    H2 4753   5.546   4.116   1.247
 1597TIP3   OH2 4754   3.234   1.914   0.437
 1597TIP3    H1 4755   3.324   1.927   0.469
 1597TIP3    H2 4756   3.225   1.819   0.430
 1598TIP3   OH2 4757   3.366   5.055   4.787
 1598TIP3    H1 4758   3.390   4.963   4.795
 1598TIP3    H2 4759   3.312   5.059   4.708
 1599TIP3   OH2 4760   0.430   2.146   2.068
 1599TIP3    H1 4761   0.374   2.081   2.026
 1599TIP3    H2 4762   0.489   2.176   2.000
 1600TIP3   OH2 4763   5.930   0.904   4.404
 1600TIP3    H1 4764   5.980   0.829   4.373
 1600TIP3    H2 4765   5.989   0.950   4.463
 1601TIP3   OH2 4766   5.473   6.262   1.755
 1601TIP3    H1 4767   5.415   6.190   1.729
 1601TIP3    H2 4768   5.561   6.225   1.746
 1602TIP3   OH2 4769   1.993   3.733   3.239
 1602TIP3    H1 4770   1.901   3.726   3.263
 1602TIP3    H2 4771   2.028   3.645   3.253
 1603TIP3   OH2 4772   5.326   6.246   3.214
 1603TIP3    H1 4773   5.359   6.161   3.243
 1603TIP3    H2 4774   5.352   6.306   3.283
 1604TIP3   OH2 4775   1.096   2.877   5.690
 1604TIP3    H1 4776   1.129   2.889   5.601
 1604TIP3    H2 4777   1.028   2.810   5.682
 1605TIP3   OH2 4778   3.320   2.119   0.092
 1605TIP3    H1 4779   3.361   2.165   0.166
 1605TIP3    H2 4780   3.236   2.089   0.125
 1606TIP3   OH2 4781   6.482   3.949   4.750
 1606TIP3    H1 4782   6.481   4.041   4.776
 1606TIP3    H2 4783   6.413   3.941   4.684
 1607TIP3   OH2 4784   0.597   3.220   1.328
 1607TIP3    H1 4785   0.559   3.147   1.377
 1607TIP3    H2 4786   0.691   3.202   1.327
 1608TIP3   OH2 4787   7.085   2.901   3.288
 1608TIP3    H1 4788   7.168   2.868   3.322
 1608TIP3    H2 4789   7.076   2.860   3.202
 1609TIP3   OH2 4790   0.081   1.270   2.570
 1609TIP3    H1 4791   0.124   1.187   2.551
 1609TIP3    H2 4792   0.143   1.337   2.540
 1610TIP3   OH2 4793   6.384   0.300   3.217
 1610TIP3    H1 4794   6.404   0.213   3.181
 1610TIP3    H2 4795   6.435   0.305   3.298
 1611TIP3   OH2 4796   5.780   2.327   0.609
 1611TIP3    H1 4797   5.813   2.331   0.699
 1611TIP3    H2 4798   5.738   2.241   0.602
 1612TIP3   OH2 4799   4.202   5.530   2.613
 1612TIP3    H1 4800   4.165   5.554   2.528
 1612TIP3    H2 4801   4.294   5.512   2.595
 1613TIP3   OH2 4802   0.719   1.685   2.531
 1613TIP3    H1 4803   0.757   1.599   2.549
 1613TIP3    H2 4804   0.762   1.743   2.594
 1614TIP3   OH2 4805   1.900   3.951   3.668
 1614TIP3    H1 4806   1.937   3.940   3.580
 1614TIP3    H2 4807   1.860   3.867   3.688
 1615TIP3   OH2 4808   2.515   4.820   0.115
 1615TIP3    H1 4809   2.473   4.905   0.102
 1615TIP3    H2 4810   2.602   4.842   0.148
 1616TIP3   OH2 4811   6.623   2.748   4.530
 1616TIP3    H1 4812   6.709   2.711   4.548
 1616TIP3    H2 4813   6.620   2.828   4.584
 1617TIP3   OH2 4814   3.409   2.515   0.576
 1617TIP3    H1 4815   3.396   2.443   0.637
 1617TIP3    H2 4816   3.370   2.591   0.620
 1618TIP3   OH2 4817   5.097   3.367   4.004
 1618TIP3    H1 4818   5.132   3.456   4.010
 1618TIP3    H2 4819   5.144   3.328   3.930
 1619TIP3   OH2 4820   6.266   3.491   5.214
 1619TIP3    H1 4821   6.217   3.549   5.271
 1619TIP3    H2 4822   6.339   3.460   5.268
 1620TIP3   OH2 4823   4.817   4.092   4.879
 1620TIP3    H1 4824   4.744   4.093   4.817
 1620TIP3    H2 4825   4.856   4.180   4.871
 1621TIP3   OH2 4826   5.296   2.508   3.583
 1621TIP3    H1 4827   5.309   2.555   3.501
 1621TIP3    H2 4828   5.287   2.416   3.557
 1622TIP3   OH2 4829   0.275   6.052   3.370
 1622TIP3    H1 4830   0.341   6.066   3.439
 1622TIP3    H2 4831   0.211   5.992   3.410
 1623TIP3   OH2 4832   5.170   5.264   0.994
 1623TIP3    H1 4833   5.094   5.306   0.956
 1623TIP3    H2 4834   5.206   5.209   0.924
 1624TIP3   OH2 4835   2.002   6.768   1.315
 1624TIP3    H1 4836   2.041   6.854   1.333
 1624TIP3    H2 4837   2.031   6.747   1.226
 1625TIP3   OH2 4838   3.259   3.486   5.343
 1625TIP3    H1 4839   3.287   3.466   5.254
 1625TIP3    H2 4840   3.171   3.524   5.332
 1626TIP3   OH2 4841   0.461   3.251   1.868
 1626TIP3    H1 4842   0.385   3.279   1.920
 1626TIP3    H2 4843   0.487   3.168   1.907
 1627TIP3   OH2 4844   4.499   3.399   1.947
 1627TIP3    H1 4845   4.570   3.346   1.910
 1627TIP3    H2 4846   4.490   3.472   1.886
 1628TIP3   OH2 4847   5.354   5.809   2.032
 1628TIP3    H1 4848   5.370   5.795   2.125
 1628TIP3    H2 4849   5.322   5.899   2.026
 1629TIP3   OH2 4850   1.754   1.813   5.215
 1629TIP3    H1 4851   1.800   1.807   5.299
 1629TIP3    H2 4852   1.787   1.739   5.165
 1630TIP3   OH2 4853   4.203   3.657   2.596
 1630TIP3    H1 4854   4.263   3.593   2.558
 1630TIP3    H2 4855   4.188   3.625   2.685
 1631TIP3   OH2 4856   2.148   3.068   3.002
 1631TIP3    H1 4857   2.170   3.161   3.007
 1631TIP3    H2 4858   2.152   3.037   3.092
 1632TIP3   OH2 4859   5.220   6.473   5.280
 1632TIP3    H1 4860   5.201   6.400   5.220
 1632TIP3    H2 4861   5.224   6.550   5.223
 1633TIP3   OH2 4862   2.356   0.867   4.948
 1633TIP3    H1 4863   2.401   0.817   4.881
 1633TIP3    H2 4864   2.285   0.810   4.978
 1634TIP3   OH2 4865   2.835   5.246   3.719
 1634TIP3    H1 4866   2.900   5.205   3.776
 1634TIP3    H2 4867   2.817   5.181   3.652
 1635TIP3   OH2 4868   6.286   1.013   3.089
 1635TIP3    H1 4869   6.346   0.940   3.102
 1635TIP3    H2 4870   6.303   1.041   2.999
 1636TIP3   OH2 4871   0.393   2.610   3.005
 1636TIP3    H1 4872   0.303   2.583   2.986
 1636TIP3    H2 4873   0.432   2.622   2.918
 1637TIP3   OH2 4874   4.174   1.404   4.371
 1637TIP3    H1 4875   4.233   1.447   4.433
 1637TIP3    H2 4876   4.216   1.320   4.352
 1638TIP3   OH2 4877   5.579   4.348   4.948
 1638TIP3    H1 4878   5.584   4.443   4.957
 1638TIP3    H2 4879   5.647   4.315   5.007
 1639TIP3   OH2 4880   3.173   0.330   2.948
 1639TIP3    H1 4881   3.109   0.336   2.878
 1639TIP3    H2 4882   3.255   0.307   2.903
 1640TIP3   OH2 4883   2.837   1.063   2.925
 1640TIP3    H1 4884   2.823   1.080   2.832
 1640TIP3    H2 4885   2.754   1.026   2.955
 1641TIP3   OH2 4886   1.488   5.153   0.147
 1641TIP3    H1 4887   1.524   5.065   0.142
 1641TIP3    H2 4888   1.393   5.140   0.146
 1642TIP3   OH2 4889   2.252   6.297   1.442
 1642TIP3    H1 4890   2.323   6.288   1.378
 1642TIP3    H2 4891   2.213   6.382   1.422
 1643TIP3   OH2 4892   0.529   2.725   0.961
 1643TIP3    H1 4893   0.593   2.691   1.023
 1643TIP3    H2 4894   0.548   2.679   0.879
 1644TIP3   OH2 4895   0.734   4.773   5.079
 1644TIP3    H1 4896   0.774   4.787   4.992
 1644TIP3    H2 4897   0.640   4.785   5.064
 1645TIP3   OH2 4898   3.091   5.332   3.331
 1645TIP3    H1 4899   3.040   5.363   3.406
 1645TIP3    H2 4900   3.040   5.360   3.255
 1646TIP3   OH2 4901   4.382   4.071   3.394
 1646TIP3    H1 4902   4.391   4.059   3.299
 1646TIP3    H2 4903   4.410   3.988   3.431
 1647TIP3   OH2 4904   6.776   6.669   1.829
 1647TIP3    H1 4905   6.734   6.602   1.882
 1647TIP3    H2 4906   6.861   6.683   1.871
 1648TIP3   OH2 4907   5.693   3.781   3.802
 1648TIP3    H1 4908   5.602   3.800   3.781
 1648TIP3    H2 4909   5.714   3.703   3.750
 1649TIP3   OH2 4910   0.373   2.846   3.175
 1649TIP3    H1 4911   0.380   2.802   3.090
 1649TIP3    H2 4912   0.426   2.793   3.234
 1650TIP3   OH2 4913   6.986   3.579   4.492
 1650TIP3    H1 4914   7.079   3.555   4.501
 1650TIP3    H2 4915   6.940   3.495   4.500
 1651TIP3   OH2 4916   6.046   1.259   1.705
 1651TIP3    H1 4917   6.089   1.177   1.728
 1651TIP3    H2 4918   6.103   1.299   1.639
 1652TIP3   OH2 4919   2.232   1.076   5.174
 1652TIP3    H1 4920   2.247   1.154   5.228
 1652TIP3    H2 4921   2.315   1.061   5.129
 1653TIP3   OH2 4922   4.347   5.420   3.309
 1653TIP3    H1 4923   4.439   5.393   3.315
 1653TIP3    H2 4924   4.312   5.407   3.397
 1654TIP3   OH2 4925   2.380   3.709   5.369
 1654TIP3    H1 4926   2.459   3.689   5.419
 1654TIP3    H2 4927   2.330   3.768   5.425
 1655TIP3   OH2 4928   3.611   4.568   4.056
 1655TIP3    H1 4929   3.522   4.535   4.053
 1655TIP3    H2 4930   3.665   4.493   4.030
 1656TIP3   OH2 4931   3.785   1.793   0.227
 1656TIP3    H1 4932   3.740   1.710   0.216
 1656TIP3    H2 4933   3.715   1.858   0.229
 1657TIP3   OH2 4934   0.351   5.167   0.163
 1657TIP3    H1 4935   0.274   5.125   0.125
 1657TIP3    H2 4936   0.424   5.135   0.110
 1658TIP3   OH2 4937   1.963   0.391   4.540
 1658TIP3    H1 4938   2.014   0.423   4.465
 1658TIP3    H2 4939   2.025   0.395   4.614
 1659TIP3   OH2 4940   1.937   0.832   2.455
 1659TIP3    H1 4941   1.978   0.759   2.408
 1659TIP3    H2 4942   1.853   0.797   2.485
 1660TIP3   OH2 4943   1.316   4.945   1.770
 1660TIP3    H1 4944   1.285   5.034   1.788
 1660TIP3    H2 4945   1.305   4.898   1.853
 1661TIP3   OH2 4946   6.504   2.488   3.003
 1661TIP3    H1 4947   6.526   2.407   2.957
 1661TIP3    H2 4948   6.422   2.517   2.963
 1662TIP3   OH2 4949   4.595   6.226   1.977
 1662TIP3    H1 4950   4.605   6.195   1.887
 1662TIP3    H2 4951   4.501   6.222   1.994
 1663TIP3   OH2 4952   0.918   0.573   5.574
 1663TIP3    H1 4953   0.862   0.650   5.585
 1663TIP3    H2 4954   1.007   0.609   5.567
 1664TIP3   OH2 4955   3.888   1.751   1.377
 1664TIP3    H1 4956   3.870   1.664   1.412
 1664TIP3    H2 4957   3.971   1.776   1.418
 1665TIP3   OH2 4958   6.154   3.720   2.666
 1665TIP3    H1 4959   6.194   3.775   2.598
 1665TIP3    H2 4960   6.125   3.642   2.619
 1666TIP3   OH2 4961   1.032   3.251   3.368
 1666TIP3    H1 4962   1.030   3.303   3.448
 1666TIP3    H2 4963   0.945   3.211   3.363
 1667TIP3   OH2 4964   5.412   1.283   5.014
 1667TIP3    H1 4965   5.452   1.284   5.101
 1667TIP3    H2 4966   5.324   1.319   5.029
 1668TIP3   OH2 4967   4.682   0.068   4.028
 1668TIP3    H1 4968   4.769   0.063   3.989
 1668TIP3    H2 4969   4.652   0.157   4.008
 1669TIP3   OH2 4970   6.377   6.359   0.485
 1669TIP3    H1 4971   6.437   6.420   0.528
 1669TIP3    H2 4972   6.434   6.305   0.430
 1670TIP3   OH2 4973   0.175   6.545   0.248
 1670TIP3    H1 4974   0.166   6.452   0.223
 1670TIP3    H2 4975   0.092   6.566   0.290
 1671TIP3   OH2 4976   1.386   4.757   5.653
 1671TIP3    H1 4977   1.395   4.674   5.699
 1671TIP3    H2 4978   1.385   4.733   5.560
 1672TIP3   OH2 4979   0.516   2.392   0.422
 1672TIP3    H1 4980   0.472   2.454   0.364
 1672TIP3    H2 4981   0.529   2.313   0.370
 1673TIP3   OH2 4982   4.165   1.385   2.231
 1673TIP3    H1 4983   4.224   1.418   2.163
 1673TIP3    H2 4984   4.085   1.436   2.219
 1674TIP3   OH2 4985   6.411   5.297   4.912
 1674TIP3    H1 4986   6.341   5.245   4.873
 1674TIP3    H2 4987   6.367   5.349   4.979
 1675TIP3   OH2 4988   3.320   0.484   0.627
 1675TIP3    H1 4989   3.263   0.552   0.592
 1675TIP3    H2 4990   3.387   0.532   0.675
 1676TIP3   OH2 4991   2.684   1.067   0.611
 1676TIP3    H1 4992   2.660   0.975   0.622
 1676TIP3    H2 4993   2.756   1.066   0.547
 1677TIP3   OH2 4994   0.574   3.639   1.331
 1677TIP3    H1 4995   0.667   3.623   1.347
 1677TIP3    H2 4996   0.556   3.722   1.374
 1678TIP3   OH2 4997   6.392   5.913   3.060
 1678TIP3    H1 4998   6.433   5.991   3.096
 1678TIP3    H2 4999   6.465   5.862   3.025
 1679TIP3   OH2 5000   4.643   2.366   5.116
 1679TIP3    H1 5001   4.601   2.284   5.090
 1679TIP3    H2 5002   4.733   2.357   5.084
 1680TIP3   OH2 5003   2.121   4.074   4.391
 1680TIP3    H1 5004   2.174   4.060   4.469
 1680TIP3    H2 5005   2.155   4.011   4.327
 1681TIP3   OH2 5006   4.788   6.584   3.101
 1681TIP3    H1 5007   4.740   6.535   3.169
 1681TIP3    H2 5008   4.796   6.522   3.029
 1682TIP3   OH2 5009   5.439   3.988   4.311
 1682TIP3    H1 5010   5.482   3.924   4.367
 1682TIP3    H2 5011   5.457   4.073   4.352
 1683TIP3   OH2 5012   1.970   3.786   1.142
 1683TIP3    H1 5013   2.001   3.875   1.127
 1683TIP3    H2 5014   1.878   3.797   1.168
 1684TIP3   OH2 5015   0.548   0.036   2.944
 1684TIP3    H1 5016   0.483   0.011   3.010
 1684TIP3    H2 5017   0.584   0.119   2.976
 1685TIP3   OH2 5018   4.616   1.565   2.892
 1685TIP3    H1 5019   4.636   1.477   2.924
 1685TIP3    H2 5020   4.557   1.602   2.958
 1686TIP3   OH2 5021   6.993   4.184   0.908
 1686TIP3    H1 5022   6.990   4.093   0.937
 1686TIP3    H2 5023   7.047   4.182   0.829
 1687TIP3   OH2 5024   0.972   1.597   4.140
 1687TIP3    H1 5025   1.016   1.628   4.219
 1687TIP3    H2 5026   1.015   1.514   4.120
 1688TIP3   OH2 5027   0.059   3.890   2.347
 1688TIP3    H1 5028   0.112   3.832   2.294
 1688TIP3    H2 5029   0.053   3.971   2.296
 1689TIP3   OH2 5030   2.058   0.083   3.422
 1689TIP3    H1 5031   1.974   0.129   3.415
 1689TIP3    H2 5032   2.089   0.076   3.331
 1690TIP3   OH2 5033   4.408   4.261   3.679
 1690TIP3    H1 5034   4.371   4.324   3.741
 1690TIP3    H2 5035   4.356   4.274   3.599
 1691TIP3   OH2 5036   1.630   0.827   4.363
 1691TIP3    H1 5037   1.624   0.778   4.281
 1691TIP3    H2 5038   1.546   0.813   4.406
 1692TIP3   OH2 5039   5.774   2.302   1.793
 1692TIP3    H1 5040   5.688   2.330   1.823
 1692TIP3    H2 5041   5.833   2.372   1.821
 1693TIP3   OH2 5042   5.350   0.230   2.259
 1693TIP3    H1 5043   5.269   0.262   2.299
 1693TIP3    H2 5044   5.419   0.281   2.301
 1694TIP3   OH2 5045   5.613   5.604   5.738
 1694TIP3    H1 5046   5.670   5.578   5.810
 1694TIP3    H2 5047   5.556   5.671   5.776
 1695TIP3   OH2 5048   6.720   0.844   3.883
 1695TIP3    H1 5049   6.781   0.821   3.953
 1695TIP3    H2 5050   6.773   0.892   3.820
 1696TIP3   OH2 5051   2.600   1.003   0.162
 1696TIP3    H1 5052   2.620   1.096   0.172
 1696TIP3    H2 5053   2.509   1.001   0.133
 1697TIP3   OH2 5054   0.162   3.645   0.277
 1697TIP3    H1 5055   0.162   3.689   0.362
 1697TIP3    H2 5056   0.069   3.643   0.251
 1698TIP3   OH2 5057   4.104   3.516   3.483
 1698TIP3    H1 5058   4.166   3.588   3.476
 1698TIP3    H2 5059   4.106   3.491   3.576
 1699TIP3   OH2 5060   5.308   0.238   1.244
 1699TIP3    H1 5061   5.262   0.180   1.304
 1699TIP3    H2 5062   5.258   0.319   1.246
 1700TIP3   OH2 5063   5.446   0.775   5.117
 1700TIP3    H1 5064   5.479   0.856   5.076
 1700TIP3    H2 5065   5.466   0.785   5.210
 1701TIP3   OH2 5066   3.190   0.746   0.854
 1701TIP3    H1 5067   3.254   0.716   0.919
 1701TIP3    H2 5068   3.212   0.695   0.775
 1702TIP3   OH2 5069   3.823   4.992   3.296
 1702TIP3    H1 5070   3.833   5.056   3.226
 1702TIP3    H2 5071   3.886   4.922   3.274
 1703TIP3   OH2 5072   0.197   4.423   2.115
 1703TIP3    H1 5073   0.203   4.332   2.087
 1703TIP3    H2 5074   0.134   4.463   2.054
 1704TIP3   OH2 5075   3.424   2.029   0.854
 1704TIP3    H1 5076   3.503   1.976   0.849
 1704TIP3    H2 5077   3.358   1.980   0.804
 1705TIP3   OH2 5078   6.494   0.651   5.038
 1705TIP3    H1 5079   6.563   0.592   5.008
 1705TIP3    H2 5080   6.417   0.595   5.047
 1706TIP3   OH2 5081   6.709   5.584   4.705
 1706TIP3    H1 5082   6.637   5.528   4.735
 1706TIP3    H2 5083   6.752   5.532   4.637
 1707TIP3   OH2 5084   1.088   3.683   2.586
 1707TIP3    H1 5085   1.083   3.777   2.568
 1707TIP3    H2 5086   1.177   3.659   2.561
 1708TIP3   OH2 5087   3.584   4.398   4.532
 1708TIP3    H1 5088   3.550   4.352   4.455
 1708TIP3    H2 5089   3.678   4.382   4.531
 1709TIP3   OH2 5090   3.986   5.211   0.333
 1709TIP3    H1 5091   4.063   5.264   0.316
 1709TIP3    H2 5092   3.968   5.167   0.250
 1710TIP3   OH2 5093   4.013   5.081   0.113
 1710TIP3    H1 5094   3.951   5.029   0.062
 1710TIP3    H2 5095   4.095   5.031   0.109
 1711TIP3   OH2 5096   2.482   2.272   5.602
 1711TIP3    H1 5097   2.512   2.354   5.640
 1711TIP3    H2 5098   2.498   2.207   5.671
 1712TIP3   OH2 5099   4.045   5.042   4.680
 1712TIP3    H1 5100   4.003   5.126   4.698
 1712TIP3    H2 5101   4.108   5.031   4.751
 1713TIP3   OH2 5102   2.104   1.781   4.426
 1713TIP3    H1 5103   2.094   1.834   4.347
 1713TIP3    H2 5104   2.160   1.709   4.399
 1714TIP3   OH2 5105   4.681   4.517   4.804
 1714TIP3    H1 5106   4.649   4.589   4.750
 1714TIP3    H2 5107   4.604   4.461   4.817
 1715TIP3   OH2 5108   4.946   3.668   5.452
 1715TIP3    H1 5109   4.948   3.637   5.542
 1715TIP3    H2 5110   5.038   3.682   5.429
 1716TIP3   OH2 5111   1.003   1.675   0.637
 1716TIP3    H1 5112   0.925   1.716   0.600
 1716TIP3    H2 5113   1.000   1.697   0.730
 1717TIP3   OH2 5114   6.153   6.555   0.441
 1717TIP3    H1 5115   6.238   6.511   0.427
 1717TIP3    H2 5116   6.166   6.643   0.407
 1718TIP3   OH2 5117   5.189   4.036   1.236
 1718TIP3    H1 5118   5.174   3.954   1.283
 1718TIP3    H2 5119   5.168   4.104   1.299
 1719TIP3   OH2 5120   6.211   6.494   4.758
 1719TIP3    H1 5121   6.232   6.558   4.826
 1719TIP3    H2 5122   6.210   6.544   4.677
 1720TIP3   OH2 5123   5.525   4.619   4.406
 1720TIP3    H1 5124   5.513   4.657   4.319
 1720TIP3    H2 5125   5.536   4.526   4.390
 1721TIP3   OH2 5126   0.776   4.014   0.742
 1721TIP3    H1 5127   0.780   4.077   0.670
 1721TIP3    H2 5128   0.778   4.068   0.821
 1722TIP3   OH2 5129   2.779   4.581   4.966
 1722TIP3    H1 5130   2.824   4.592   4.883
 1722TIP3    H2 5131   2.847   4.594   5.032
 1723TIP3   OH2 5132   3.640   1.897   1.424
 1723TIP3    H1 5133   3.711   1.833   1.414
 1723TIP3    H2 5134   3.561   1.844   1.434
 1724TIP3   OH2 5135   3.718   3.018   2.537
 1724TIP3    H1 5136   3.694   3.062   2.618
 1724TIP3    H2 5137   3.675   3.069   2.468
 1725TIP3   OH2 5138   6.247   4.958   4.885
 1725TIP3    H1 5139   6.156   4.970   4.912
 1725TIP3    H2 5140   6.246   4.876   4.836
 1726TIP3   OH2 5141   6.963   5.416   1.975
 1726TIP3    H1 5142   6.953   5.485   1.910
 1726TIP3    H2 5143   7.050   5.379   1.958
 1727TIP3   OH2 5144   1.694   5.597   4.334
 1727TIP3    H1 5145   1.742   5.617   4.415
 1727TIP3    H2 5146   1.607   5.633   4.349
 1728TIP3   OH2 5147   5.984   4.785   4.615
 1728TIP3    H1 5148   6.024   4.784   4.529
 1728TIP3    H2 5149   5.890   4.775   4.598
 1729TIP3   OH2 5150   2.810   2.973   0.809
 1729TIP3    H1 5151   2.895   3.013   0.791
 1729TIP3    H2 5152   2.807   2.897   0.752
 1730TIP3   OH2 5153   6.579   5.400   1.827
 1730TIP3    H1 5154   6.624   5.316   1.839
 1730TIP3    H2 5155   6.560   5.430   1.915
 1731TIP3   OH2 5156   5.254   5.006   4.181
 1731TIP3    H1 5157   5.207   5.088   4.165
 1731TIP3    H2 5158   5.247   4.958   4.099
 1732TIP3   OH2 5159   4.172   1.215   0.208
 1732TIP3    H1 5160   4.177   1.277   0.280
 1732TIP3    H2 5161   4.143   1.267   0.133
 1733TIP3   OH2 5162   2.628   1.450   0.090
 1733TIP3    H1 5163   2.577   1.528   0.068
 1733TIP3    H2 5164   2.571   1.400   0.148
 1734TIP3   OH2 5165   5.769   2.492   4.497
 1734TIP3    H1 5166   5.773   2.489   4.593
 1734TIP3    H2 5167   5.705   2.560   4.478
 1735TIP3   OH2 5168   0.922   4.246   5.081
 1735TIP3    H1 5169   0.864   4.294   5.022
 1735TIP3    H2 5170   0.894   4.155   5.073
 1736TIP3   OH2 5171   5.806   5.510   3.476
 1736TIP3    H1 5172   5.742   5.516   3.547
 1736TIP3    H2 5173   5.770   5.445   3.416
 1737TIP3   OH2 5174   3.465   3.930   4.576
 1737TIP3    H1 5175   3.448   3.933   4.482
 1737TIP3    H2 5176   3.463   3.837   4.599
 1738TIP3   OH2 5177   0.383   6.304   0.729
 1738TIP3    H1 5178   0.296   6.265   0.733
 1738TIP3    H2 5179   0.392   6.334   0.639
 1739TIP3   OH2 5180   4.734   5.254   1.237
 1739TIP3    H1 5181   4.811   5.202   1.259
 1739TIP3    H2 5182   4.768   5.342   1.221
 1740TIP3   OH2 5183   2.582   0.705   1.638
 1740TIP3    H1 5184   2.617   0.718   1.550
 1740TIP3    H2 5185   2.568   0.793   1.672
 1741TIP3   OH2 5186   6.091   2.950   5.368
 1741TIP3    H1 5187   6.088   2.863   5.405
 1741TIP3    H2 5188   6.008   2.960   5.322
 1742TIP3   OH2 5189   2.117   2.014   5.588
 1742TIP3    H1 5190   2.130   2.107   5.568
 1742TIP3    H2 5191   2.189   1.991   5.646
 1743TIP3   OH2 5192   5.177   2.980   2.469
 1743TIP3    H1 5193   5.163   3.003   2.377
 1743TIP3    H2 5194   5.103   3.020   2.515
 1744TIP3   OH2 5195   1.164   3.862   1.746
 1744TIP3    H1 5196   1.200   3.790   1.799
 1744TIP3    H2 5197   1.217   3.863   1.667
 1745TIP3   OH2 5198   6.188   6.155   0.515
 1745TIP3    H1 5199   6.261   6.217   0.507
 1745TIP3    H2 5200   6.220   6.089   0.577
 1746TIP3   OH2 5201   5.590   4.915   1.658
 1746TIP3    H1 5202   5.495   4.923   1.672
 1746TIP3    H2 5203   5.615   4.839   1.711
 1747TIP3   OH2 5204   1.168   1.951   0.027
 1747TIP3    H1 5205   1.213   1.876  -0.014
 1747TIP3    H2 5206   1.234   2.021   0.027
 1748TIP3   OH2 5207   0.133   2.602   5.274
 1748TIP3    H1 5208   0.164   2.638   5.357
 1748TIP3    H2 5209   0.038   2.598   5.284
 1749TIP3   OH2 5210   5.010   1.598   1.709
 1749TIP3    H1 5211   4.921   1.591   1.675
 1749TIP3    H2 5212   5.065   1.563   1.639
 1750TIP3   OH2 5213   0.996   6.707   2.221
 1750TIP3    H1 5214   0.963   6.626   2.182
 1750TIP3    H2 5215   1.089   6.708   2.198
 1751TIP3   OH2 5216   1.403   6.529   1.435
 1751TIP3    H1 5217   1.359   6.464   1.489
 1751TIP3    H2 5218   1.338   6.553   1.369
 1752TIP3   OH2 5219   4.376   1.142   3.295
 1752TIP3    H1 5220   4.355   1.069   3.354
 1752TIP3    H2 5221   4.347   1.111   3.209
 1753TIP3   OH2 5222   1.773   1.540   4.988
 1753TIP3    H1 5223   1.847   1.491   5.024
 1753TIP3    H2 5224   1.699   1.480   4.997
 1754TIP3   OH2 5225   3.542   5.961   4.243
 1754TIP3    H1 5226   3.556   5.999   4.330
 1754TIP3    H2 5227   3.536   5.867   4.258
 1755TIP3   OH2 5228   4.880   0.708   1.920
 1755TIP3    H1 5229   4.902   0.615   1.918
 1755TIP3    H2 5230   4.878   0.731   2.013
 1756TIP3   OH2 5231   1.071   6.465   3.094
 1756TIP3    H1 5232   1.034   6.382   3.064
 1756TIP3    H2 5233   1.022   6.486   3.173
 1757TIP3   OH2 5234   2.239   0.560   1.590
 1757TIP3    H1 5235   2.279   0.639   1.555
 1757TIP3    H2 5236   2.307   0.493   1.584
 1758TIP3   OH2 5237   0.264   1.935   1.941
 1758TIP3    H1 5238   0.296   1.941   1.851
 1758TIP3    H2 5239   0.258   1.841   1.959
 1759TIP3   OH2 5240   0.602   0.182   1.279
 1759TIP3    H1 5241   0.511   0.175   1.251
 1759TIP3    H2 5242   0.650   0.125   1.219
 1760TIP3   OH2 5243   2.016   1.400   5.157
 1760TIP3    H1 5244   1.983   1.316   5.125
 1760TIP3    H2 5245   2.018   1.391   5.252
 1761TIP3   OH2 5246   6.727   4.920   1.631
 1761TIP3    H1 5247   6.632   4.916   1.631
 1761TIP3    H2 5248   6.754   4.842   1.582
 1762TIP3   OH2 5249   1.703   2.785   3.500
 1762TIP3    H1 5250   1.613   2.768   3.527
 1762TIP3    H2 5251   1.705   2.878   3.480
 1763TIP3   OH2 5252   3.922   4.621   1.601
 1763TIP3    H1 5253   3.889   4.705   1.570
 1763TIP3    H2 5254   3.989   4.596   1.537
 1764TIP3   OH2 5255   7.195   5.774   3.081
 1764TIP3    H1 5256   7.103   5.766   3.105
 1764TIP3    H2 5257   7.243   5.756   3.162
 1765TIP3   OH2 5258   3.902   4.802   2.930
 1765TIP3    H1 5259   3.814   4.836   2.915
 1765TIP3    H2 5260   3.942   4.799   2.843
 1766TIP3   OH2 5261   2.029   2.688   1.171
 1766TIP3    H1 5262   2.037   2.770   1.220
 1766TIP3    H2 5263   1.939   2.689   1.138
 1767TIP3   OH2 5264   3.727   3.609   1.644
 1767TIP3    H1 5265   3.822   3.593   1.642
 1767TIP3    H2 5266   3.716   3.676   1.712
 1768TIP3   OH2 5267   4.382   4.446   1.068
 1768TIP3    H1 5268   4.315   4.433   1.002
 1768TIP3    H2 5269   4.394   4.360   1.108
 1769TIP3   OH2 5270   3.993   4.228   0.875
 1769TIP3    H1 5271   3.912   4.279   0.869
 1769TIP3    H2 5272   3.973   4.157   0.936
 1770TIP3   OH2 5273   0.037   5.069   4.801
 1770TIP3    H1 5274  -0.051   5.080   4.764
 1770TIP3    H2 5275   0.072   5.158   4.808
 1771TIP3   OH2 5276   0.693   4.831   2.290
 1771TIP3    H1 5277   0.601   4.834   2.316
 1771TIP3    H2 5278   0.693   4.863   2.200
 1772TIP3   OH2 5279   5.380   1.213   5.721
 1772TIP3    H1 5280   5.340   1.239   5.638
 1772TIP3    H2 5281   5.466   1.178   5.696
 1773TIP3   OH2 5282   4.903   3.916   2.985
 1773TIP3    H1 5283   4.869   4.004   3.000
 1773TIP3    H2 5284   4.998   3.925   2.993
 1774TIP3   OH2 5285   6.489   2.091   3.408
 1774TIP3    H1 5286   6.400   2.073   3.438
 1774TIP3    H2 5287   6.536   2.116   3.487
 1775TIP3   OH2 5288   6.939   1.035   2.403
 1775TIP3    H1 5289   6.976   1.045   2.491
 1775TIP3    H2 5290   6.927   0.940   2.393
 1776TIP3   OH2 5291   7.023   1.873   0.818
 1776TIP3    H1 5292   6.995   1.795   0.770
 1776TIP3    H2 5293   6.987   1.862   0.906
 1777TIP3   OH2 5294   0.769   5.855   4.973
 1777TIP3    H1 5295   0.859   5.828   4.951
 1777TIP3    H2 5296   0.723   5.773   4.988
 1778TIP3   OH2 5297   5.435   3.691   3.410
 1778TIP3    H1 5298   5.413   3.677   3.318
 1778TIP3    H2 5299   5.457   3.784   3.416
 1779TIP3   OH2 5300   3.633   5.369   1.833
 1779TIP3    H1 5301   3.677   5.453   1.847
 1779TIP3    H2 5302   3.700   5.314   1.792
 1780TIP3   OH2 5303   3.181   2.080   5.511
 1780TIP3    H1 5304   3.103   2.028   5.531
 1780TIP3    H2 5305   3.147   2.160   5.470
 1781TIP3   OH2 5306   4.441   2.886   2.157
 1781TIP3    H1 5307   4.448   2.794   2.182
 1781TIP3    H2 5308   4.466   2.887   2.065
 1782TIP3   OH2 5309   5.644   3.975   1.472
 1782TIP3    H1 5310   5.621   3.915   1.401
 1782TIP3    H2 5311   5.633   4.062   1.434
 1783TIP3   OH2 5312   3.556   1.352   2.542
 1783TIP3    H1 5313   3.522   1.380   2.457
 1783TIP3    H2 5314   3.538   1.426   2.600
 1784TIP3   OH2 5315   1.067   6.397   5.399
 1784TIP3    H1 5316   0.996   6.399   5.462
 1784TIP3    H2 5317   1.026   6.371   5.316
 1785TIP3   OH2 5318   1.388   5.860   5.048
 1785TIP3    H1 5319   1.441   5.930   5.010
 1785TIP3    H2 5320   1.301   5.873   5.010
 1786TIP3   OH2 5321   3.560   4.616   3.242
 1786TIP3    H1 5322   3.586   4.582   3.157
 1786TIP3    H2 5323   3.562   4.540   3.300
 1787TIP3   OH2 5324   3.250   6.503   0.558
 1787TIP3    H1 5325   3.284   6.518   0.470
 1787TIP3    H2 5326   3.313   6.547   0.616
 1788TIP3   OH2 5327   1.595   0.354   1.519
 1788TIP3    H1 5328   1.596   0.447   1.544
 1788TIP3    H2 5329   1.508   0.324   1.545
 1789TIP3   OH2 5330   2.308   1.283   4.507
 1789TIP3    H1 5331   2.336   1.325   4.588
 1789TIP3    H2 5332   2.213   1.294   4.505
 1790TIP3   OH2 5333   7.182   5.131   5.576
 1790TIP3    H1 5334   7.269   5.153   5.543
 1790TIP3    H2 5335   7.139   5.090   5.501
 1791TIP3   OH2 5336   0.645   4.126   2.166
 1791TIP3    H1 5337   0.693   4.075   2.102
 1791TIP3    H2 5338   0.694   4.208   2.174
 1792TIP3   OH2 5339   3.024   4.983   4.686
 1792TIP3    H1 5340   3.117   4.965   4.697
 1792TIP3    H2 5341   2.989   4.904   4.646
 1793TIP3   OH2 5342   0.059   2.387   5.575
 1793TIP3    H1 5343   0.117   2.316   5.546
 1793TIP3    H2 5344   0.118   2.451   5.615
 1794TIP3   OH2 5345   7.155   2.158   1.134
 1794TIP3    H1 5346   7.237   2.175   1.180
 1794TIP3    H2 5347   7.181   2.127   1.047
 1795TIP3   OH2 5348   1.169   6.038   3.230
 1795TIP3    H1 5349   1.201   6.102   3.294
 1795TIP3    H2 5350   1.167   5.956   3.278
 1796TIP3   OH2 5351   3.675   6.641   0.186
 1796TIP3    H1 5352   3.589   6.626   0.147
 1796TIP3    H2 5353   3.656   6.684   0.270
 1797TIP3   OH2 5354   6.281   6.595   1.245
 1797TIP3    H1 5355   6.259   6.676   1.199
 1797TIP3    H2 5356   6.197   6.558   1.271
 1798TIP3   OH2 5357   6.577   1.108   0.340
 1798TIP3    H1 5358   6.638   1.178   0.364
 1798TIP3    H2 5359   6.523   1.097   0.418
 1799TIP3   OH2 5360   5.018   6.088   4.425
 1799TIP3    H1 5361   5.088   6.152   4.416
 1799TIP3    H2 5362   4.939   6.135   4.397
 1800TIP3   OH2 5363   6.202   2.545   1.733
 1800TIP3    H1 5364   6.253   2.477   1.690
 1800TIP3    H2 5365   6.123   2.554   1.679
 1801TIP3   OH2 5366   3.643   5.749   5.464
 1801TIP3    H1 5367   3.649   5.729   5.370
 1801TIP3    H2 5368   3.683   5.836   5.473
 1802TIP3   OH2 5369   3.043   3.139   3.039
 1802TIP3    H1 5370   3.033   3.068   2.976
 1802TIP3    H2 5371   3.067   3.215   2.986
 1803TIP3   OH2 5372   0.840   2.333   0.639
 1803TIP3    H1 5373   0.862   2.243   0.616
 1803TIP3    H2 5374   0.847   2.381   0.556
 1804TIP3   OH2 5375   0.535   6.756   0.386
 1804TIP3    H1 5376   0.614   6.749   0.440
 1804TIP3    H2 5377   0.485   6.678   0.407
 1805TIP3   OH2 5378   4.376   3.598   1.767
 1805TIP3    H1 5379   4.307   3.639   1.819
 1805TIP3    H2 5380   4.429   3.672   1.735
 1806TIP3   OH2 5381   0.920   1.732   0.905
 1806TIP3    H1 5382   1.009   1.702   0.920
 1806TIP3    H2 5383   0.919   1.822   0.937
 1807TIP3   OH2 5384   3.897   0.436   1.868
 1807TIP3    H1 5385   3.942   0.485   1.937
 1807TIP3    H2 5386   3.867   0.357   1.912
 1808TIP3   OH2 5387   0.355   0.870   2.753
 1808TIP3    H1 5388   0.356   0.837   2.843
 1808TIP3    H2 5389   0.440   0.843   2.717
 1809TIP3   OH2 5390   1.181   4.735   3.068
 1809TIP3    H1 5391   1.210   4.822   3.042
 1809TIP3    H2 5392   1.177   4.685   2.987
 1810TIP3   OH2 5393   0.384   0.426   0.343
 1810TIP3    H1 5394   0.444   0.488   0.386
 1810TIP3    H2 5395   0.322   0.402   0.411
 1811TIP3   OH2 5396   2.521   1.078   4.555
 1811TIP3    H1 5397   2.463   1.149   4.526
 1811TIP3    H2 5398   2.587   1.122   4.608
 1812TIP3   OH2 5399   1.374   5.163   5.392
 1812TIP3    H1 5400   1.365   5.116   5.474
 1812TIP3    H2 5401   1.353   5.254   5.414
 1813TIP3   OH2 5402   4.282   1.822   3.522
 1813TIP3    H1 5403   4.205   1.819   3.465
 1813TIP3    H2 5404   4.318   1.733   3.519
 1814TIP3   OH2 5405   1.990   5.027   1.806
 1814TIP3    H1 5406   1.999   4.939   1.771
 1814TIP3    H2 5407   2.013   5.018   1.899
 1815TIP3   OH2 5408   3.679   4.243   5.706
 1815TIP3    H1 5409   3.591   4.259   5.673
 1815TIP3    H2 5410   3.670   4.247   5.801
 1816TIP3   OH2 5411   0.914   4.877   1.747
 1816TIP3    H1 5412   0.947   4.945   1.806
 1816TIP3    H2 5413   0.877   4.925   1.673
 1817TIP3   OH2 5414   4.984   2.380   0.173
 1817TIP3    H1 5415   4.939   2.398   0.090
 1817TIP3    H2 5416   4.937   2.306   0.211
 1818TIP3   OH2 5417   3.916   2.196   4.935
 1818TIP3    H1 5418   3.858   2.206   5.010
 1818TIP3    H2 5419   3.999   2.168   4.973
 1819TIP3   OH2 5420   1.107   5.823   3.432
 1819TIP3    H1 5421   1.179   5.859   3.483
 1819TIP3    H2 5422   1.092   5.736   3.468
 1820TIP3   OH2 5423   4.814   2.156   2.967
 1820TIP3    H1 5424   4.754   2.107   2.911
 1820TIP3    H2 5425   4.757   2.209   3.023
 1821TIP3   OH2 5426   6.135   2.198   2.920
 1821TIP3    H1 5427   6.199   2.216   2.989
 1821TIP3    H2 5428   6.186   2.202   2.839
 1822TIP3   OH2 5429   5.333   3.914   2.457
 1822TIP3    H1 5430   5.317   3.995   2.408
 1822TIP3    H2 5431   5.313   3.845   2.394
 1823TIP3   OH2 5432   3.685   1.463   5.487
 1823TIP3    H1 5433   3.615   1.416   5.442
 1823TIP3    H2 5434   3.750   1.480   5.418
 1824TIP3   OH2 5435   6.447   4.418   0.172
 1824TIP3    H1 5436   6.485   4.381   0.092
 1824TIP3    H2 5437   6.374   4.360   0.192
 1825TIP3   OH2 5438   4.576   5.910   5.615
 1825TIP3    H1 5439   4.625   5.832   5.641
 1825TIP3    H2 5440   4.493   5.876   5.581
 1826TIP3   OH2 5441   5.989   0.548   2.748
 1826TIP3    H1 5442   5.984   0.636   2.785
 1826TIP3    H2 5443   6.077   0.517   2.770
 1827TIP3   OH2 5444   4.549   2.727   1.379
 1827TIP3    H1 5445   4.532   2.758   1.290
 1827TIP3    H2 5446   4.528   2.633   1.376
 1828TIP3   OH2 5447   0.532   6.127   2.947
 1828TIP3    H1 5448   0.486   6.182   3.011
 1828TIP3    H2 5449   0.572   6.057   2.999
 1829TIP3   OH2 5450   7.106   0.358   5.455
 1829TIP3    H1 5451   7.120   0.358   5.361
 1829TIP3    H2 5452   7.175   0.302   5.490
 1830TIP3   OH2 5453   6.674   2.960   0.990
 1830TIP3    H1 5454   6.702   2.883   1.039
 1830TIP3    H2 5455   6.585   2.978   1.021
 1831TIP3   OH2 5456   2.213   4.645   3.219
 1831TIP3    H1 5457   2.205   4.560   3.263
 1831TIP3    H2 5458   2.147   4.642   3.150
 1832TIP3   OH2 5459   3.190   5.648   0.460
 1832TIP3    H1 5460   3.158   5.707   0.528
 1832TIP3    H2 5461   3.205   5.565   0.505
 1833TIP3   OH2 5462   4.938   1.883   2.665
 1833TIP3    H1 5463   4.979   1.887   2.752
 1833TIP3    H2 5464   4.934   1.975   2.637
 1834TIP3   OH2 5465   1.621   2.031   3.187
 1834TIP3    H1 5466   1.668   2.089   3.128
 1834TIP3    H2 5467   1.529   2.043   3.164
 1835TIP3   OH2 5468   6.499   6.064   4.190
 1835TIP3    H1 5469   6.434   6.002   4.222
 1835TIP3    H2 5470   6.483   6.069   4.096
 1836TIP3   OH2 5471   0.058   4.980   0.582
 1836TIP3    H1 5472   0.145   4.947   0.604
 1836TIP3    H2 5473   0.061   4.996   0.488
 1837TIP3   OH2 5474   5.215   0.348   2.053
 1837TIP3    H1 5475   5.291   0.382   2.005
 1837TIP3    H2 5476   5.253   0.302   2.128
 1838TIP3   OH2 5477   6.270   0.068   0.544
 1838TIP3    H1 5478   6.200   0.017   0.504
 1838TIP3    H2 5479   6.307   0.010   0.610
 1839TIP3   OH2 5480   2.435   4.425   2.741
 1839TIP3    H1 5481   2.437   4.465   2.828
 1839TIP3    H2 5482   2.527   4.427   2.712
 1840TIP3   OH2 5483   5.610   4.176   2.106
 1840TIP3    H1 5484   5.650   4.192   2.192
 1840TIP3    H2 5485   5.664   4.108   2.067
 1841TIP3   OH2 5486   4.204   4.884   3.550
 1841TIP3    H1 5487   4.244   4.958   3.505
 1841TIP3    H2 5488   4.131   4.921   3.599
 1842TIP3   OH2 5489   6.130   2.418   0.600
 1842TIP3    H1 5490   6.200   2.471   0.636
 1842TIP3    H2 5491   6.057   2.428   0.662
 1843TIP3   OH2 5492   6.647   2.182   5.463
 1843TIP3    H1 5493   6.655   2.113   5.529
 1843TIP3    H2 5494   6.553   2.194   5.452
 1844TIP3   OH2 5495   3.686   5.720   4.042
 1844TIP3    H1 5496   3.634   5.766   4.109
 1844TIP3    H2 5497   3.624   5.705   3.970
 1845TIP3   OH2 5498   2.873   0.141   5.868
 1845TIP3    H1 5499   2.934   0.085   5.915
 1845TIP3    H2 5500   2.879   0.112   5.777
 1846TIP3   OH2 5501   6.616   2.998   1.315
 1846TIP3    H1 5502   6.561   3.020   1.240
 1846TIP3    H2 5503   6.561   3.019   1.391
 1847TIP3   OH2 5504   4.815   4.571   1.360
 1847TIP3    H1 5505   4.842   4.626   1.286
 1847TIP3    H2 5506   4.762   4.628   1.415
 1848TIP3   OH2 5507   3.261   2.795   2.194
 1848TIP3    H1 5508   3.303   2.776   2.110
 1848TIP3    H2 5509   3.308   2.740   2.257
 1849TIP3   OH2 5510   2.078   2.296   5.651
 1849TIP3    H1 5511   2.003   2.246   5.685
 1849TIP3    H2 5512   2.116   2.338   5.728
 1850TIP3   OH2 5513   3.753   0.450   1.254
 1850TIP3    H1 5514   3.843   0.474   1.233
 1850TIP3    H2 5515   3.707   0.533   1.266
 1851TIP3   OH2 5516   1.525   5.212   3.896
 1851TIP3    H1 5517   1.542   5.245   3.807
 1851TIP3    H2 5518   1.611   5.192   3.931
 1852TIP3   OH2 5519   5.818   4.720   0.942
 1852TIP3    H1 5520   5.828   4.660   1.015
 1852TIP3    H2 5521   5.878   4.686   0.875
 1853TIP3   OH2 5522   1.069   5.052   5.222
 1853TIP3    H1 5523   1.040   5.108   5.151
 1853TIP3    H2 5524   1.155   5.019   5.193
 1854TIP3   OH2 5525   3.441   6.316   1.353
 1854TIP3    H1 5526   3.423   6.260   1.428
 1854TIP3    H2 5527   3.533   6.299   1.332
 1855TIP3   OH2 5528   7.138   0.951   0.390
 1855TIP3    H1 5529   7.166   0.871   0.345
 1855TIP3    H2 5530   7.068   0.921   0.449
 1856TIP3   OH2 5531   0.480   1.084   1.317
 1856TIP3    H1 5532   0.572   1.085   1.342
 1856TIP3    H2 5533   0.476   1.021   1.246
 1857TIP3   OH2 5534   6.377   2.131   1.262
 1857TIP3    H1 5535   6.469   2.151   1.247
 1857TIP3    H2 5536   6.352   2.076   1.188
 1858TIP3   OH2 5537   1.424   3.699   5.679
 1858TIP3    H1 5538   1.413   3.793   5.687
 1858TIP3    H2 5539   1.518   3.685   5.691
 1859TIP3   OH2 5540   6.581   5.638   2.086
 1859TIP3    H1 5541   6.507   5.580   2.067
 1859TIP3    H2 5542   6.543   5.725   2.093
 1860TIP3   OH2 5543   6.712   3.337   5.661
 1860TIP3    H1 5544   6.663   3.399   5.715
 1860TIP3    H2 5545   6.740   3.269   5.723
 1861TIP3   OH2 5546   6.935   2.701   1.379
 1861TIP3    H1 5547   6.979   2.759   1.442
 1861TIP3    H2 5548   6.933   2.616   1.422
 1862TIP3   OH2 5549   6.759   2.521   0.457
 1862TIP3    H1 5550   6.742   2.475   0.375
 1862TIP3    H2 5551   6.812   2.460   0.509
 1863TIP3   OH2 5552   2.875   5.500   2.744
 1863TIP3    H1 5553   2.932   5.577   2.740
 1863TIP3    H2 5554   2.932   5.427   2.717
 1864TIP3   OH2 5555   5.790   0.313   3.721
 1864TIP3    H1 5556   5.791   0.369   3.644
 1864TIP3    H2 5557   5.697   0.298   3.739
 1865TIP3   OH2 5558   0.626   0.779   4.821
 1865TIP3    H1 5559   0.641   0.869   4.793
 1865TIP3    H2 5560   0.631   0.728   4.740
 1866TIP3   OH2 5561   6.246   0.280   2.319
 1866TIP3    H1 5562   6.177   0.244   2.374
 1866TIP3    H2 5563   6.200   0.327   2.249
 1867TIP3   OH2 5564   3.838   6.333   3.267
 1867TIP3    H1 5565   3.781   6.257   3.271
 1867TIP3    H2 5566   3.914   6.308   3.320
 1868TIP3   OH2 5567   0.696   3.784   4.587
 1868TIP3    H1 5568   0.706   3.693   4.559
 1868TIP3    H2 5569   0.754   3.792   4.662
 1869TIP3   OH2 5570   1.721   3.033   1.203
 1869TIP3    H1 5571   1.684   3.035   1.291
 1869TIP3    H2 5572   1.721   2.941   1.179
 1870TIP3   OH2 5573   7.129   6.669   0.861
 1870TIP3    H1 5574   7.119   6.587   0.909
 1870TIP3    H2 5575   7.067   6.729   0.903
 1871TIP3   OH2 5576   2.369   0.313   2.126
 1871TIP3    H1 5577   2.437   0.377   2.146
 1871TIP3    H2 5578   2.348   0.328   2.034
 1872TIP3   OH2 5579   7.001   4.467   2.684
 1872TIP3    H1 5580   6.914   4.486   2.649
 1872TIP3    H2 5581   7.029   4.388   2.636
 1873TIP3   OH2 5582   6.244   5.929   1.365
 1873TIP3    H1 5583   6.324   5.973   1.335
 1873TIP3    H2 5584   6.221   5.869   1.294
 1874TIP3   OH2 5585   4.326   4.891   4.677
 1874TIP3    H1 5586   4.355   4.953   4.744
 1874TIP3    H2 5587   4.341   4.937   4.594
 1875TIP3   OH2 5588   2.975   2.617   0.841
 1875TIP3    H1 5589   2.953   2.673   0.915
 1875TIP3    H2 5590   2.979   2.676   0.766
 1876TIP3   OH2 5591   4.592   5.514   3.954
 1876TIP3    H1 5592   4.608   5.587   3.894
 1876TIP3    H2 5593   4.621   5.546   4.039
 1877TIP3   OH2 5594   6.639   4.528   2.320
 1877TIP3    H1 5595   6.665   4.570   2.238
 1877TIP3    H2 5596   6.546   4.510   2.309
 1878TIP3   OH2 5597   4.955   5.164   0.814
 1878TIP3    H1 5598   5.000   5.092   0.768
 1878TIP3    H2 5599   4.915   5.215   0.744
 1879TIP3   OH2 5600   1.543   5.601   5.493
 1879TIP3    H1 5601   1.523   5.694   5.487
 1879TIP3    H2 5602   1.595   5.583   5.415
 1880TIP3   OH2 5603   4.419   2.020   4.085
 1880TIP3    H1 5604   4.375   2.002   4.168
 1880TIP3    H2 5605   4.484   1.950   4.077
 1881TIP3   OH2 5606   0.989   2.369   3.551
 1881TIP3    H1 5607   0.945   2.434   3.496
 1881TIP3    H2 5608   1.061   2.417   3.592
 1882TIP3   OH2 5609   6.184   4.882   3.288
 1882TIP3    H1 5610   6.259   4.852   3.340
 1882TIP3    H2 5611   6.149   4.956   3.338
 1883TIP3   OH2 5612   6.399   4.443   2.219
 1883TIP3    H1 5613   6.339   4.388   2.269
 1883TIP3    H2 5614   6.343   4.489   2.157
 1884TIP3   OH2 5615   4.969   1.256   0.350
 1884TIP3    H1 5616   5.060   1.229   0.341
 1884TIP3    H2 5617   4.970   1.322   0.420
 1885TIP3   OH2 5618   0.455   3.260   4.010
 1885TIP3    H1 5619   0.376   3.217   3.976
 1885TIP3    H2 5620   0.497   3.296   3.932
 1886TIP3   OH2 5621   1.219   2.840   0.073
 1886TIP3    H1 5622   1.279   2.858   0.145
 1886TIP3    H2 5623   1.227   2.746   0.058
 1887TIP3   OH2 5624   3.999   4.919   0.455
 1887TIP3    H1 5625   3.998   5.007   0.419
 1887TIP3    H2 5626   4.039   4.928   0.541
 1888TIP3   OH2 5627   2.599   4.412   5.816
 1888TIP3    H1 5628   2.642   4.471   5.878
 1888TIP3    H2 5629   2.566   4.341   5.870
 1889TIP3   OH2 5630   1.744   0.877   5.159
 1889TIP3    H1 5631   1.836   0.900   5.169
 1889TIP3    H2 5632   1.703   0.906   5.241
 1890TIP3   OH2 5633   0.151   5.538   5.207
 1890TIP3    H1 5634   0.199   5.572   5.283
 1890TIP3    H2 5635   0.150   5.611   5.145
 1891TIP3   OH2 5636   5.600   0.338   1.691
 1891TIP3    H1 5637   5.685   0.304   1.720
 1891TIP3    H2 5638   5.565   0.269   1.634
 1892TIP3   OH2 5639   0.780   1.676   5.624
 1892TIP3    H1 5640   0.757   1.597   5.575
 1892TIP3    H2 5641   0.860   1.653   5.671
 1893TIP3   OH2 5642   2.982   2.279   1.505
 1893TIP3    H1 5643   2.904   2.286   1.450
 1893TIP3    H2 5644   3.001   2.368   1.532
 1894TIP3   OH2 5645   2.484   5.477   5.324
 1894TIP3    H1 5646   2.523   5.504   5.241
 1894TIP3    H2 5647   2.559   5.471   5.384
 1895TIP3   OH2 5648   2.758   2.005   5.356
 1895TIP3    H1 5649   2.695   2.034   5.290
 1895TIP3    H2 5650   2.786   1.918   5.327
 1896TIP3   OH2 5651   6.432   4.028   4.483
 1896TIP3    H1 5652   6.507   4.082   4.507
 1896TIP3    H2 5653   6.395   4.071   4.406
 1897TIP3   OH2 5654   4.352   1.833   5.132
 1897TIP3    H1 5655   4.444   1.849   5.150
 1897TIP3    H2 5656   4.343   1.844   5.038
 1898TIP3   OH2 5657   2.552   2.472   5.774
 1898TIP3    H1 5658   2.517   2.560   5.763
 1898TIP3    H2 5659   2.566   2.463   5.868
 1899TIP3   OH2 5660   0.479   2.394   0.963
 1899TIP3    H1 5661   0.564   2.360   0.937
 1899TIP3    H2 5662   0.467   2.473   0.910
 1900TIP3   OH2 5663   7.247   1.469   3.650
 1900TIP3    H1 5664   7.267   1.422   3.569
 1900TIP3    H2 5665   7.236   1.560   3.622
 1901TIP3   OH2 5666   1.737   3.002   4.160
 1901TIP3    H1 5667   1.757   2.912   4.188
 1901TIP3    H2 5668   1.668   3.031   4.218
 1902TIP3   OH2 5669   3.981   2.996   2.522
 1902TIP3    H1 5670   3.892   3.028   2.534
 1902TIP3    H2 5671   3.970   2.919   2.466
 1903TIP3   OH2 5672   1.112   4.611   3.321
 1903TIP3    H1 5673   1.129   4.524   3.285
 1903TIP3    H2 5674   1.115   4.669   3.245
 1904TIP3   OH2 5675   7.221   1.913   1.947
 1904TIP3    H1 5676   7.187   1.984   1.892
 1904TIP3    H2 5677   7.317   1.921   1.939
 1905TIP3   OH2 5678   5.122   3.954   3.960
 1905TIP3    H1 5679   5.090   3.926   3.874
 1905TIP3    H2 5680   5.043   3.982   4.006
 1906TIP3   OH2 5681   6.776   6.413   1.530
 1906TIP3    H1 5682   6.736   6.484   1.581
 1906TIP3    H2 5683   6.821   6.359   1.594
 1907TIP3   OH2 5684   1.661   6.711   1.110
 1907TIP3    H1 5685   1.712   6.791   1.100
 1907TIP3    H2 5686   1.724   6.645   1.139
 1908TIP3   OH2 5687   2.669   5.480   5.090
 1908TIP3    H1 5688   2.715   5.437   5.018
 1908TIP3    H2 5689   2.715   5.450   5.168
 1909TIP3   OH2 5690   1.594   4.456   2.345
 1909TIP3    H1 5691   1.543   4.380   2.372
 1909TIP3    H2 5692   1.684   4.436   2.372
 1910TIP3   OH2 5693   0.496   0.928   1.082
 1910TIP3    H1 5694   0.426   0.944   1.018
 1910TIP3    H2 5695   0.505   0.833   1.083
 1911TIP3   OH2 5696   1.443   2.289   0.835
 1911TIP3    H1 5697   1.391   2.321   0.760
 1911TIP3    H2 5698   1.521   2.345   0.836
 1912TIP3   OH2 5699   1.993   0.277   5.879
 1912TIP3    H1 5700   1.903   0.303   5.858
 1912TIP3    H2 5701   2.048   0.337   5.828
 1913TIP3   OH2 5702   5.646   3.518   5.320
 1913TIP3    H1 5703   5.689   3.467   5.250
 1913TIP3    H2 5704   5.616   3.598   5.277
 1914TIP3   OH2 5705   4.602   4.716   0.552
 1914TIP3    H1 5706   4.653   4.774   0.607
 1914TIP3    H2 5707   4.532   4.770   0.517
 1915TIP3   OH2 5708   5.396   6.228  -0.031
 1915TIP3    H1 5709   5.410   6.273   0.052
 1915TIP3    H2 5710   5.397   6.135  -0.008
 1916TIP3   OH2 5711   5.540   3.569   2.226
 1916TIP3    H1 5712   5.566   3.488   2.270
 1916TIP3    H2 5713   5.593   3.570   2.146
 1917TIP3   OH2 5714   3.468   4.314   4.288
 1917TIP3    H1 5715   3.483   4.263   4.209
 1917TIP3    H2 5716   3.407   4.382   4.261
 1918TIP3   OH2 5717   4.850   3.031   4.399
 1918TIP3    H1 5718   4.883   3.067   4.317
 1918TIP3    H2 5719   4.909   3.065   4.466
 1919TIP3   OH2 5720   2.472   1.352   2.034
 1919TIP3    H1 5721   2.496   1.351   2.126
 1919TIP3    H2 5722   2.528   1.286   1.993
 1920TIP3   OH2 5723   1.043   4.556   5.482
 1920TIP3    H1 5724   1.032   4.628   5.420
 1920TIP3    H2 5725   1.126   4.515   5.458
 1921TIP3   OH2 5726   5.778   6.377   4.142
 1921TIP3    H1 5727   5.692   6.335   4.148
 1921TIP3    H2 5728   5.768   6.440   4.071
 1922TIP3   OH2 5729   0.789   3.041   4.605
 1922TIP3    H1 5730   0.784   2.989   4.525
 1922TIP3    H2 5731   0.748   3.124   4.582
 1923TIP3   OH2 5732   6.242   1.172   5.819
 1923TIP3    H1 5733   6.216   1.221   5.897
 1923TIP3    H2 5734   6.240   1.237   5.749
 1924TIP3   OH2 5735   1.184   2.795   1.882
 1924TIP3    H1 5736   1.224   2.840   1.956
 1924TIP3    H2 5737   1.233   2.824   1.806
 1925TIP3   OH2 5738   5.339   1.915   4.710
 1925TIP3    H1 5739   5.271   1.980   4.727
 1925TIP3    H2 5740   5.371   1.891   4.797
 1926TIP3   OH2 5741   0.847   4.715   1.125
 1926TIP3    H1 5742   0.754   4.694   1.123
 1926TIP3    H2 5743   0.870   4.717   1.218
 1927TIP3   OH2 5744   4.497   0.775   1.603
 1927TIP3    H1 5745   4.567   0.710   1.599
 1927TIP3    H2 5746   4.541   0.859   1.585
 1928TIP3   OH2 5747   4.943   6.249   3.801
 1928TIP3    H1 5748   4.924   6.165   3.843
 1928TIP3    H2 5749   4.956   6.311   3.873
 1929TIP3   OH2 5750   0.096   6.862   3.599
 1929TIP3    H1 5751   0.113   6.769   3.583
 1929TIP3    H2 5752   0.168   6.907   3.554
 1930TIP3   OH2 5753   0.097   0.332   0.680
 1930TIP3    H1 5754   0.072   0.423   0.695
 1930TIP3    H2 5755   0.191   0.335   0.662
 1931TIP3   OH2 5756   2.101   5.941   2.490
 1931TIP3    H1 5757   2.059   5.889   2.559
 1931TIP3    H2 5758   2.148   5.876   2.437
 1932TIP3   OH2 5759   6.759   5.650   2.278
 1932TIP3    H1 5760   6.708   5.664   2.199
 1932TIP3    H2 5761   6.792   5.560   2.270
 1933TIP3   OH2 5762   1.684   3.799   2.200
 1933TIP3    H1 5763   1.638   3.716   2.212
 1933TIP3    H2 5764   1.622   3.866   2.228
 1934TIP3   OH2 5765   4.694   4.727   2.350
 1934TIP3    H1 5766   4.709   4.749   2.442
 1934TIP3    H2 5767   4.782   4.710   2.316
 1935TIP3   OH2 5768   5.202   0.443   3.006
 1935TIP3    H1 5769   5.280   0.461   3.058
 1935TIP3    H2 5770   5.221   0.483   2.921
 1936TIP3   OH2 5771   0.735   5.201   3.179
 1936TIP3    H1 5772   0.797   5.180   3.249
 1936TIP3    H2 5773   0.650   5.172   3.212
 1937TIP3   OH2 5774   3.530   5.013   3.599
 1937TIP3    H1 5775   3.550   4.961   3.521
 1937TIP3    H2 5776   3.614   5.054   3.622
 1938TIP3   OH2 5777   3.043   5.707   2.522
 1938TIP3    H1 5778   3.090   5.790   2.510
 1938TIP3    H2 5779   3.059   5.684   2.614
 1939TIP3   OH2 5780   0.491   1.390   4.962
 1939TIP3    H1 5781   0.554   1.363   4.895
 1939TIP3    H2 5782   0.450   1.309   4.992
 1940TIP3   OH2 5783   4.624   4.856   1.969
 1940TIP3    H1 5784   4.623   4.860   1.873
 1940TIP3    H2 5785   4.704   4.903   1.994
 1941TIP3   OH2 5786   0.150   4.582   0.583
 1941TIP3    H1 5787   0.156   4.614   0.493
 1941TIP3    H2 5788   0.211   4.637   0.632
 1942TIP3   OH2 5789   2.354   6.163   5.514
 1942TIP3    H1 5790   2.415   6.100   5.552
 1942TIP3    H2 5791   2.267   6.128   5.533
 1943TIP3   OH2 5792   7.008   1.077   5.252
 1943TIP3    H1 5793   7.027   1.028   5.172
 1943TIP3    H2 5794   7.043   1.165   5.235
 1944TIP3   OH2 5795   0.070   2.022   0.207
 1944TIP3    H1 5796   0.037   2.075   0.280
 1944TIP3    H2 5797   0.112   2.085   0.149
 1945TIP3   OH2 5798   6.321   2.975   4.582
 1945TIP3    H1 5799   6.247   2.945   4.529
 1945TIP3    H2 5800   6.332   2.906   4.647
 1946TIP3   OH2 5801   6.859   2.975   1.734
 1946TIP3    H1 5802   6.803   3.051   1.751
 1946TIP3    H2 5803   6.916   2.969   1.811
 1947TIP3   OH2 5804   0.576   0.146   5.227
 1947TIP3    H1 5805   0.517   0.132   5.302
 1947TIP3    H2 5806   0.533   0.214   5.176
 1948TIP3   OH2 5807   5.158   3.217   3.169
 1948TIP3    H1 5808   5.071   3.226   3.209
 1948TIP3    H2 5809   5.153   3.134   3.121
 1949TIP3   OH2 5810   1.756   3.300   4.353
 1949TIP3    H1 5811   1.808   3.347   4.288
 1949TIP3    H2 5812   1.665   3.312   4.324
 1950TIP3   OH2 5813   5.653   0.122   1.474
 1950TIP3    H1 5814   5.652   0.129   1.378
 1950TIP3    H2 5815   5.632   0.031   1.491
 1951TIP3   OH2 5816   4.893   2.883   2.008
 1951TIP3    H1 5817   4.847   2.801   1.990
 1951TIP3    H2 5818   4.891   2.931   1.926
 1952TIP3   OH2 5819   0.971   1.606   2.189
 1952TIP3    H1 5820   0.883   1.637   2.213
 1952TIP3    H2 5821   0.992   1.655   2.109
 1953TIP3   OH2 5822   3.959   4.079   1.772
 1953TIP3    H1 5823   3.955   4.030   1.854
 1953TIP3    H2 5824   3.896   4.035   1.714
 1954TIP3   OH2 5825   7.002   3.117   5.419
 1954TIP3    H1 5826   6.948   3.164   5.355
 1954TIP3    H2 5827   7.058   3.185   5.457
 1955TIP3   OH2 5828   3.958   1.485   4.988
 1955TIP3    H1 5829   3.954   1.468   4.894
 1955TIP3    H2 5830   4.033   1.543   4.999
 1956TIP3   OH2 5831   4.637   3.828   2.768
 1956TIP3    H1 5832   4.716   3.872   2.738
 1956TIP3    H2 5833   4.578   3.898   2.794
 1957TIP3   OH2 5834   1.493   0.993   2.774
 1957TIP3    H1 5835   1.574   1.027   2.738
 1957TIP3    H2 5836   1.519   0.915   2.824
 1958TIP3   OH2 5837   6.823   3.360   4.584
 1958TIP3    H1 5838   6.752   3.392   4.639
 1958TIP3    H2 5839   6.874   3.302   4.641
 1959TIP3   OH2 5840   3.589   3.830   1.124
 1959TIP3    H1 5841   3.609   3.919   1.094
 1959TIP3    H2 5842   3.675   3.790   1.137
 1960TIP3   OH2 5843   1.655   6.309   0.536
 1960TIP3    H1 5844   1.619   6.225   0.507
 1960TIP3    H2 5845   1.582   6.352   0.580
 1961TIP3   OH2 5846   5.180   2.843   3.227
 1961TIP3    H1 5847   5.228   2.920   3.197
 1961TIP3    H2 5848   5.169   2.789   3.149
 1962TIP3   OH2 5849   1.777   1.756  -0.003
 1962TIP3    H1 5850   1.736   1.687   0.049
 1962TIP3    H2 5851   1.869   1.733  -0.006
 1963TIP3   OH2 5852   4.681   2.013   2.779
 1963TIP3    H1 5853   4.704   2.043   2.691
 1963TIP3    H2 5854   4.654   1.922   2.767
 1964TIP3   OH2 5855   3.882   5.831   3.384
 1964TIP3    H1 5856   3.943   5.769   3.423
 1964TIP3    H2 5857   3.929   5.914   3.383
 1965TIP3   OH2 5858   0.244   6.231   0.174
 1965TIP3    H1 5859   0.218   6.145   0.140
 1965TIP3    H2 5860   0.222   6.292   0.103
 1966TIP3   OH2 5861   3.185   0.401   0.893
 1966TIP3    H1 5862   3.255   0.348   0.855
 1966TIP3    H2 5863   3.108   0.381   0.840
 1967TIP3   OH2 5864   5.374   1.308   0.045
 1967TIP3    H1 5865   5.453   1.276   0.090
 1967TIP3    H2 5866   5.398   1.309  -0.047
 1968TIP3   OH2 5867   5.733   2.127   3.651
 1968TIP3    H1 5868   5.807   2.095   3.704
 1968TIP3    H2 5869   5.681   2.179   3.713
 1969TIP3   OH2 5870   3.395   2.749   3.674
 1969TIP3    H1 5871   3.328   2.724   3.611
 1969TIP3    H2 5872   3.471   2.694   3.652
 1970TIP3   OH2 5873   5.502   0.244   0.620
 1970TIP3    H1 5874   5.573   0.294   0.660
 1970TIP3    H2 5875   5.468   0.190   0.691
 1971TIP3   OH2 5876   1.288   0.840   4.265
 1971TIP3    H1 5877   1.316   0.749   4.265
 1971TIP3    H2 5878   1.261   0.858   4.355
 1972TIP3   OH2 5879   6.435   1.391   0.589
 1972TIP3    H1 5880   6.512   1.430   0.548
 1972TIP3    H2 5881   6.452   1.397   0.683
 1973TIP3   OH2 5882   1.272   2.033   3.835
 1973TIP3    H1 5883   1.332   1.973   3.878
 1973TIP3    H2 5884   1.317   2.118   3.837
 1974TIP3   OH2 5885   0.103   0.064   4.394
 1974TIP3    H1 5886   0.141   0.050   4.307
 1974TIP3    H2 5887   0.009   0.065   4.379
 1975TIP3   OH2 5888   2.626   3.897   3.793
 1975TIP3    H1 5889   2.647   3.804   3.787
 1975TIP3    H2 5890   2.615   3.913   3.887
 1976TIP3   OH2 5891   0.726   4.168   3.305
 1976TIP3    H1 5892   0.724   4.224   3.383
 1976TIP3    H2 5893   0.686   4.221   3.236
 1977TIP3   OH2 5894   3.392   0.665   4.362
 1977TIP3    H1 5895   3.429   0.691   4.278
 1977TIP3    H2 5896   3.324   0.731   4.380
 1978TIP3   OH2 5897   2.900   1.176   1.033
 1978TIP3    H1 5898   2.864   1.093   1.064
 1978TIP3    H2 5899   2.855   1.191   0.950
 1979TIP3   OH2 5900   5.794   5.259   0.343
 1979TIP3    H1 5901   5.809   5.305   0.260
 1979TIP3    H2 5902   5.802   5.327   0.409
 1980TIP3   OH2 5903   6.023   5.625   0.481
 1980TIP3    H1 5904   6.088   5.695   0.475
 1980TIP3    H2 5905   6.058   5.555   0.426
 1981TIP3   OH2 5906   6.260   3.399   2.870
 1981TIP3    H1 5907   6.248   3.458   2.944
 1981TIP3    H2 5908   6.182   3.342   2.873
 1982TIP3   OH2 5909   5.061   2.538   0.666
 1982TIP3    H1 5910   5.054   2.575   0.578
 1982TIP3    H2 5911   5.147   2.567   0.698
 1983TIP3   OH2 5912   6.170   3.962   5.810
 1983TIP3    H1 5913   6.076   3.964   5.791
 1983TIP3    H2 5914   6.179   3.896   5.878
 1984TIP3   OH2 5915   1.942   3.108   3.807
 1984TIP3    H1 5916   1.980   3.194   3.794
 1984TIP3    H2 5917   1.977   3.078   3.891
 1985TIP3   OH2 5918   0.355   6.260   0.442
 1985TIP3    H1 5919   0.324   6.237   0.355
 1985TIP3    H2 5920   0.390   6.178   0.477
 1986TIP3   OH2 5921   1.646   4.273   2.755
 1986TIP3    H1 5922   1.614   4.334   2.689
 1986TIP3    H2 5923   1.718   4.226   2.712
 1987TIP3   OH2 5924   5.231   2.255   3.141
 1987TIP3    H1 5925   5.306   2.204   3.171
 1987TIP3    H2 5926   5.193   2.292   3.221
 1988TIP3   OH2 5927   6.590   3.666   0.412
 1988TIP3    H1 5928   6.586   3.716   0.331
 1988TIP3    H2 5929   6.652   3.714   0.467
 1989TIP3   OH2 5930   3.303   4.078   4.390
 1989TIP3    H1 5931   3.301   4.153   4.331
 1989TIP3    H2 5932   3.210   4.057   4.404
 1990TIP3   OH2 5933   5.942   0.825   5.392
 1990TIP3    H1 5934   5.946   0.792   5.302
 1990TIP3    H2 5935   6.002   0.768   5.441
 1991TIP3   OH2 5936   7.092   5.628   5.399
 1991TIP3    H1 5937   7.079   5.545   5.353
 1991TIP3    H2 5938   7.053   5.694   5.341
 1992TIP3   OH2 5939   4.573   3.570   0.766
 1992TIP3    H1 5940   4.650   3.563   0.823
 1992TIP3    H2 5941   4.561   3.482   0.730
 1993TIP3   OH2 5942   6.798   0.919   4.881
 1993TIP3    H1 5943   6.752   0.942   4.800
 1993TIP3    H2 5944   6.752   0.967   4.950
 1994TIP3   OH2 5945   1.663   2.034   0.608
 1994TIP3    H1 5946   1.629   1.967   0.667
 1994TIP3    H2 5947   1.641   2.003   0.521
 1995TIP3   OH2 5948   5.427   3.781   2.914
 1995TIP3    H1 5949   5.406   3.805   2.823
 1995TIP3    H2 5950   5.486   3.850   2.944
 1996TIP3   OH2 5951   6.964   5.771   5.185
 1996TIP3    H1 5952   6.925   5.683   5.186
 1996TIP3    H2 5953   6.889   5.830   5.190
 1997TIP3   OH2 5954   0.723   0.054   1.052
 1997TIP3    H1 5955   0.677   0.082   0.972
 1997TIP3    H2 5956   0.815   0.052   1.027
 1998TIP3   OH2 5957   2.771   3.619   5.313
 1998TIP3    H1 5958   2.708   3.639   5.382
 1998TIP3    H2 5959   2.744   3.534   5.279
 1999TIP3   OH2 5960   4.285   5.804   2.370
 1999TIP3    H1 5961   4.225   5.730   2.381
 1999TIP3    H2 5962   4.233   5.881   2.392
 2000TIP3   OH2 5963   1.557   3.981   2.393
 2000TIP3    H1 5964   1.541   3.959   2.485
 2000TIP3    H2 5965   1.587   4.072   2.394
 2001TIP3   OH2 5966   4.248   5.703   3.246
 2001TIP3    H1 5967   4.267   5.612   3.268
 2001TIP3    H2 5968   4.283   5.714   3.158
 2002TIP3   OH2 5969   0.386   0.276   5.900
 2002TIP3    H1 5970   0.432   0.263   5.817
 2002TIP3    H2 5971   0.428   0.215   5.960
 2003TIP3   OH2 5972   5.346   6.233   3.582
 2003TIP3    H1 5973   5.380   6.296   3.518
 2003TIP3    H2 5974   5.252   6.228   3.564
 2004TIP3   OH2 5975   1.794   1.308   4.462
 2004TIP3    H1 5976   1.736   1.235   4.488
 2004TIP3    H2 5977   1.737   1.385   4.465
 2005TIP3   OH2 5978   0.715   2.129   1.390
 2005TIP3    H1 5979   0.777   2.106   1.322
 2005TIP3    H2 5980   0.688   2.218   1.370
 2006TIP3   OH2 5981   5.235   5.536   4.090
 2006TIP3    H1 5982   5.303   5.497   4.036
 2006TIP3    H2 5983   5.279   5.559   4.172
 2007TIP3   OH2 5984   3.822   6.724   2.732
 2007TIP3    H1 5985   3.847   6.652   2.790
 2007TIP3    H2 5986   3.728   6.737   2.749
 2008TIP3   OH2 5987   5.524   0.352   2.905
 2008TIP3    H1 5988   5.594   0.366   2.968
 2008TIP3    H2 5989   5.463   0.292   2.949
 2009TIP3   OH2 5990   5.060   2.483   1.110
 2009TIP3    H1 5991   5.110   2.539   1.169
 2009TIP3    H2 5992   5.014   2.543   1.052
 2010TIP3   OH2 5993   1.962   5.209   1.591
 2010TIP3    H1 5994   1.989   5.151   1.662
 2010TIP3    H2 5995   1.952   5.151   1.515
 2011TIP3   OH2 5996   7.228   5.790   1.845
 2011TIP3    H1 5997   7.190   5.705   1.820
 2011TIP3    H2 5998   7.241   5.836   1.763
 2012TIP3   OH2 5999   2.377   4.662   5.212
 2012TIP3    H1 6000   2.458   4.702   5.242
 2012TIP3    H2 6001   2.397   4.569   5.205
 2013TIP3   OH2 6002   4.033   1.111   0.666
 2013TIP3    H1 6003   4.012   1.167   0.592
 2013TIP3    H2 6004   3.959   1.120   0.726
 2014TIP3   OH2 6005   3.748   5.207   2.195
 2014TIP3    H1 6006   3.695   5.286   2.200
 2014TIP3    H2 6007   3.713   5.150   2.263
 2015TIP3   OH2 6008   6.603   6.088   0.042
 2015TIP3    H1 6009   6.541   6.021   0.013
 2015TIP3    H2 6010   6.658   6.044   0.106
 2016TIP3   OH2 6011   4.448   1.447   2.156
 2016TIP3    H1 6012   4.528   1.418   2.113
 2016TIP3    H2 6013   4.451   1.405   2.242
 2017TIP3   OH2 6014   5.002   6.330   3.343
 2017TIP3    H1 6015   5.019   6.292   3.257
 2017TIP3    H2 6016   5.006   6.255   3.404
 2018TIP3   OH2 6017   2.993   4.752   2.778
 2018TIP3    H1 6018   2.903   4.785   2.779
 2018TIP3    H2 6019   2.998   4.697   2.700
 2019TIP3   OH2 6020   3.568   1.175   3.213
 2019TIP3    H1 6021   3.483   1.142   3.187
 2019TIP3    H2 6022   3.624   1.097   3.216
 2020TIP3   OH2 6023   5.355   1.976   2.621
 2020TIP3    H1 6024   5.386   2.023   2.544
 2020TIP3    H2 6025   5.320   1.894   2.586
 2021TIP3   OH2 6026   6.063   2.839   4.524
 2021TIP3    H1 6027   6.043   2.840   4.618
 2021TIP3    H2 6028   6.098   2.752   4.508
 2022TIP3   OH2 6029   3.683   5.539   2.637
 2022TIP3    H1 6030   3.740   5.465   2.615
 2022TIP3    H2 6031   3.744   5.608   2.666
 2023TIP3   OH2 6032   4.567   1.531   4.480
 2023TIP3    H1 6033   4.625   1.551   4.554
 2023TIP3    H2 6034   4.520   1.452   4.506
 2024TIP3   OH2 6035   0.848   3.115   5.331
 2024TIP3    H1 6036   0.822   3.201   5.299
 2024TIP3    H2 6037   0.791   3.098   5.406
 2025TIP3   OH2 6038   2.772   6.772   2.821
 2025TIP3    H1 6039   2.859   6.732   2.826
 2025TIP3    H2 6040   2.716   6.702   2.787
 2026TIP3   OH2 6041   6.217   2.885   1.989
 2026TIP3    H1 6042   6.277   2.815   1.961
 2026TIP3    H2 6043   6.222   2.883   2.084
 2027TIP3   OH2 6044   4.296   4.840   3.225
 2027TIP3    H1 6045   4.232   4.853   3.155
 2027TIP3    H2 6046   4.290   4.919   3.278
 2028TIP3   OH2 6047   5.366   2.921   3.043
 2028TIP3    H1 6048   5.421   2.996   3.019
 2028TIP3    H2 6049   5.287   2.931   2.990
 2029TIP3   OH2 6050   7.153   2.599   1.646
 2029TIP3    H1 6051   7.103   2.681   1.651
 2029TIP3    H2 6052   7.235   2.623   1.604
 2030TIP3   OH2 6053   5.682   0.041   0.405
 2030TIP3    H1 6054   5.657  -0.051   0.416
 2030TIP3    H2 6055   5.759   0.039   0.349
 2031TIP3   OH2 6056   3.148   4.252   4.820
 2031TIP3    H1 6057   3.239   4.246   4.789
 2031TIP3    H2 6058   3.114   4.331   4.778
 2032TIP3   OH2 6059   6.231   2.148   4.426
 2032TIP3    H1 6060   6.265   2.232   4.395
 2032TIP3    H2 6061   6.142   2.144   4.392
 2033TIP3   OH2 6062   0.245   1.082   2.091
 2033TIP3    H1 6063   0.240   1.084   2.187
 2033TIP3    H2 6064   0.200   1.001   2.067
 2034TIP3   OH2 6065   6.652   5.464   0.036
 2034TIP3    H1 6066   6.690   5.434   0.119
 2034TIP3    H2 6067   6.562   5.432   0.038
 2035TIP3   OH2 6068   6.563   6.706   3.659
 2035TIP3    H1 6069   6.609   6.730   3.739
 2035TIP3    H2 6070   6.631   6.695   3.593
 2036TIP3   OH2 6071   6.126   5.403   2.932
 2036TIP3    H1 6072   6.124   5.427   3.025
 2036TIP3    H2 6073   6.115   5.487   2.886
 2037TIP3   OH2 6074   0.251   5.755   4.367
 2037TIP3    H1 6075   0.342   5.782   4.381
 2037TIP3    H2 6076   0.203   5.797   4.438
 2038TIP3   OH2 6077   5.577   3.014   3.925
 2038TIP3    H1 6078   5.519   2.942   3.951
 2038TIP3    H2 6079   5.663   2.990   3.962
 2039TIP3   OH2 6080   0.768   6.669   1.000
 2039TIP3    H1 6081   0.758   6.613   0.924
 2039TIP3    H2 6082   0.769   6.758   0.965
 2040TIP3   OH2 6083   4.065   0.272   2.183
 2040TIP3    H1 6084   4.044   0.178   2.181
 2040TIP3    H2 6085   4.123   0.286   2.109
 2041TIP3   OH2 6086   1.951   1.853   3.668
 2041TIP3    H1 6087   2.027   1.796   3.650
 2041TIP3    H2 6088   1.988   1.931   3.709
 2042TIP3   OH2 6089   2.148   3.161   2.324
 2042TIP3    H1 6090   2.201   3.097   2.277
 2042TIP3    H2 6091   2.093   3.109   2.383
 2043TIP3   OH2 6092   1.264   5.405   1.495
 2043TIP3    H1 6093   1.299   5.320   1.470
 2043TIP3    H2 6094   1.171   5.389   1.515
 2044TIP3   OH2 6095   4.752   5.880   4.304
 2044TIP3    H1 6096   4.828   5.897   4.360
 2044TIP3    H2 6097   4.686   5.944   4.333
 2045TIP3   OH2 6098   1.443   4.062   4.551
 2045TIP3    H1 6099   1.505   4.080   4.481
 2045TIP3    H2 6100   1.479   3.986   4.597
 2046TIP3   OH2 6101   0.436   6.608   3.486
 2046TIP3    H1 6102   0.397   6.546   3.548
 2046TIP3    H2 6103   0.528   6.614   3.515
 2047TIP3   OH2 6104   4.299   4.952   1.195
 2047TIP3    H1 6105   4.319   4.976   1.105
 2047TIP3    H2 6106   4.383   4.958   1.240
 2048TIP3   OH2 6107   5.445   5.190   5.173
 2048TIP3    H1 6108   5.474   5.115   5.224
 2048TIP3    H2 6109   5.517   5.253   5.180
 2049TIP3   OH2 6110   1.555   0.729   4.129
 2049TIP3    H1 6111   1.520   0.735   4.040
 2049TIP3    H2 6112   1.500   0.664   4.172
 2050TIP3   OH2 6113   6.091   3.515   2.033
 2050TIP3    H1 6114   6.057   3.440   2.081
 2050TIP3    H2 6115   6.186   3.513   2.048
 2051TIP3   OH2 6116   6.200   5.301   5.429
 2051TIP3    H1 6117   6.243   5.385   5.416
 2051TIP3    H2 6118   6.240   5.266   5.509
 2052TIP3   OH2 6119   4.666   6.127   2.290
 2052TIP3    H1 6120   4.710   6.043   2.301
 2052TIP3    H2 6121   4.643   6.130   2.197
 2053TIP3   OH2 6122   4.613   2.658   0.187
 2053TIP3    H1 6123   4.679   2.712   0.144
 2053TIP3    H2 6124   4.533   2.710   0.181
 2054TIP3   OH2 6125   6.678   2.181   0.872
 2054TIP3    H1 6126   6.763   2.221   0.892
 2054TIP3    H2 6127   6.622   2.255   0.847
 2055TIP3   OH2 6128   5.827   3.678   5.439
 2055TIP3    H1 6129   5.793   3.766   5.424
 2055TIP3    H2 6130   5.769   3.621   5.389
 2056TIP3   OH2 6131   0.193   3.436   0.729
 2056TIP3    H1 6132   0.142   3.400   0.657
 2056TIP3    H2 6133   0.240   3.361   0.766
 2057TIP3   OH2 6134   4.627   4.592   3.987
 2057TIP3    H1 6135   4.647   4.685   3.972
 2057TIP3    H2 6136   4.712   4.551   3.996
 2058TIP3   OH2 6137   6.877   2.836   3.894
 2058TIP3    H1 6138   6.817   2.780   3.843
 2058TIP3    H2 6139   6.872   2.802   3.983
 2059TIP3   OH2 6140   3.900   1.944   1.173
 2059TIP3    H1 6141   3.865   1.882   1.238
 2059TIP3    H2 6142   3.932   2.018   1.225
 2060TIP3   OH2 6143   0.829   0.431   2.719
 2060TIP3    H1 6144   0.842   0.349   2.767
 2060TIP3    H2 6145   0.752   0.471   2.760
 2061TIP3   OH2 6146   6.396   1.062   4.540
 2061TIP3    H1 6147   6.444   1.138   4.505
 2061TIP3    H2 6148   6.393   1.001   4.467
 2062TIP3   OH2 6149   0.674   6.778   4.866
 2062TIP3    H1 6150   0.628   6.833   4.929
 2062TIP3    H2 6151   0.635   6.691   4.875
 2063TIP3   OH2 6152   0.273   1.662   1.965
 2063TIP3    H1 6153   0.322   1.605   2.023
 2063TIP3    H2 6154   0.187   1.621   1.958
 2064TIP3   OH2 6155   3.937   4.233   5.036
 2064TIP3    H1 6156   3.855   4.278   5.019
 2064TIP3    H2 6157   3.996   4.265   4.968
 2065TIP3   OH2 6158   0.777   0.581   2.981
 2065TIP3    H1 6159   0.865   0.544   2.991
 2065TIP3    H2 6160   0.791   0.675   2.977
 2066TIP3   OH2 6161   6.050   4.407   2.808
 2066TIP3    H1 6162   6.021   4.328   2.853
 2066TIP3    H2 6163   6.088   4.375   2.726
 2067TIP3   OH2 6164   4.443   6.729   3.961
 2067TIP3    H1 6165   4.393   6.795   3.913
 2067TIP3    H2 6166   4.377   6.676   4.005
 2068TIP3   OH2 6167   2.264   6.391   1.769
 2068TIP3    H1 6168   2.351   6.392   1.729
 2068TIP3    H2 6169   2.264   6.315   1.826
 2069TIP3   OH2 6170   4.933   1.817   1.880
 2069TIP3    H1 6171   4.846   1.827   1.842
 2069TIP3    H2 6172   4.987   1.784   1.808
 2070TIP3   OH2 6173   0.923   0.144   3.463
 2070TIP3    H1 6174   0.965   0.113   3.543
 2070TIP3    H2 6175   0.986   0.125   3.394
 2071TIP3   OH2 6176   0.148   0.038   2.816
 2071TIP3    H1 6177   0.109   0.125   2.806
 2071TIP3    H2 6178   0.134   0.016   2.908
 2072TIP3   OH2 6179   0.490   1.740   4.422
 2072TIP3    H1 6180   0.448   1.723   4.338
 2072TIP3    H2 6181   0.418   1.762   4.481
 2073TIP3   OH2 6182   4.676   2.570   0.427
 2073TIP3    H1 6183   4.648   2.587   0.337
 2073TIP3    H2 6184   4.640   2.643   0.478
 2074TIP3   OH2 6185   1.637   4.997   0.959
 2074TIP3    H1 6186   1.630   5.092   0.972
 2074TIP3    H2 6187   1.606   4.983   0.870
 2075TIP3   OH2 6188   6.101   1.668   0.530
 2075TIP3    H1 6189   6.079   1.701   0.443
 2075TIP3    H2 6190   6.188   1.704   0.548
 2076TIP3   OH2 6191   6.997   5.603   1.778
 2076TIP3    H1 6192   6.963   5.662   1.710
 2076TIP3    H2 6193   7.050   5.539   1.731
 2077TIP3   OH2 6194   0.327   3.510   4.891
 2077TIP3    H1 6195   0.351   3.464   4.811
 2077TIP3    H2 6196   0.382   3.469   4.959
 2078TIP3   OH2 6197   4.757   6.588   0.995
 2078TIP3    H1 6198   4.783   6.673   1.030
 2078TIP3    H2 6199   4.840   6.548   0.966
 2079TIP3   OH2 6200   2.486   5.157   2.744
 2079TIP3    H1 6201   2.413   5.137   2.801
 2079TIP3    H2 6202   2.528   5.233   2.784
 2080TIP3   OH2 6203   0.227   0.751   1.359
 2080TIP3    H1 6204   0.309   0.706   1.379
 2080TIP3    H2 6205   0.167   0.681   1.333
 2081TIP3   OH2 6206   4.760   1.043   0.660
 2081TIP3    H1 6207   4.749   1.113   0.596
 2081TIP3    H2 6208   4.703   1.068   0.733
 2082TIP3   OH2 6209   2.578   1.161   4.881
 2082TIP3    H1 6210   2.642   1.189   4.815
 2082TIP3    H2 6211   2.495   1.200   4.852
 2083TIP3   OH2 6212   1.394   1.984   4.907
 2083TIP3    H1 6213   1.380   1.917   4.840
 2083TIP3    H2 6214   1.470   1.954   4.957
 2084TIP3   OH2 6215   0.461   6.554   4.031
 2084TIP3    H1 6216   0.475   6.483   3.969
 2084TIP3    H2 6217   0.516   6.626   3.999
 2085TIP3   OH2 6218   7.219   4.518   1.228
 2085TIP3    H1 6219   7.148   4.489   1.285
 2085TIP3    H2 6220   7.196   4.609   1.206
 2086TIP3   OH2 6221   2.473   0.272   5.159
 2086TIP3    H1 6222   2.422   0.296   5.236
 2086TIP3    H2 6223   2.473   0.176   5.159
 2087TIP3   OH2 6224   1.491   6.085   5.298
 2087TIP3    H1 6225   1.425   6.140   5.340
 2087TIP3    H2 6226   1.457   6.071   5.210
 2088TIP3   OH2 6227   0.179   3.558   1.750
 2088TIP3    H1 6228   0.138   3.561   1.663
 2088TIP3    H2 6229   0.105   3.567   1.811
 2089TIP3   OH2 6230   7.143   5.410   5.689
 2089TIP3    H1 6231   7.122   5.323   5.654
 2089TIP3    H2 6232   7.072   5.429   5.750
 2090TIP3   OH2 6233   1.649   5.698   1.894
 2090TIP3    H1 6234   1.662   5.619   1.947
 2090TIP3    H2 6235   1.647   5.769   1.957
 2091TIP3   OH2 6236   0.950   0.227   1.781
 2091TIP3    H1 6237   0.864   0.199   1.751
 2091TIP3    H2 6238   0.974   0.164   1.849
 2092TIP3   OH2 6239   3.440  -0.021   0.450
 2092TIP3    H1 6240   3.466  -0.068   0.370
 2092TIP3    H2 6241   3.523   0.009   0.488
 2093TIP3   OH2 6242   2.552   2.714   3.366
 2093TIP3    H1 6243   2.528   2.625   3.391
 2093TIP3    H2 6244   2.473   2.751   3.328
 2094TIP3   OH2 6245   5.929   6.593   0.250
 2094TIP3    H1 6246   5.986   6.567   0.322
 2094TIP3    H2 6247   5.968   6.674   0.217
 2095TIP3   OH2 6248   0.931   6.481   1.171
 2095TIP3    H1 6249   0.885   6.541   1.112
 2095TIP3    H2 6250   0.865   6.455   1.235
 2096TIP3   OH2 6251   4.760   5.387   2.057
 2096TIP3    H1 6252   4.695   5.399   2.125
 2096TIP3    H2 6253   4.818   5.318   2.091
 2097TIP3   OH2 6254   3.706   3.752   4.434
 2097TIP3    H1 6255   3.638   3.778   4.372
 2097TIP3    H2 6256   3.759   3.831   4.446
 2098TIP3   OH2 6257   1.069   2.918   4.791
 2098TIP3    H1 6258   0.996   2.860   4.767
 2098TIP3    H2 6259   1.132   2.861   4.834
 2099TIP3   OH2 6260   6.326   2.907   4.997
 2099TIP3    H1 6261   6.268   2.870   5.064
 2099TIP3    H2 6262   6.272   2.974   4.953
 2100TIP3   OH2 6263   5.804   5.952   4.512
 2100TIP3    H1 6264   5.861   5.879   4.486
 2100TIP3    H2 6265   5.805   6.012   4.438
 2101TIP3   OH2 6266   1.791   4.382   1.215
 2101TIP3    H1 6267   1.758   4.376   1.125
 2101TIP3    H2 6268   1.838   4.299   1.228
 2102TIP3   OH2 6269   5.137   1.210   3.078
 2102TIP3    H1 6270   5.129   1.173   3.166
 2102TIP3    H2 6271   5.225   1.187   3.050
 2103TIP3   OH2 6272   5.733   4.405   4.327
 2103TIP3    H1 6273   5.734   4.354   4.246
 2103TIP3    H2 6274   5.825   4.413   4.353
 2104TIP3   OH2 6275   3.730   0.586   0.242
 2104TIP3    H1 6276   3.740   0.531   0.164
 2104TIP3    H2 6277   3.795   0.552   0.304
 2105TIP3   OH2 6278   6.483   6.426   1.178
 2105TIP3    H1 6279   6.441   6.341   1.190
 2105TIP3    H2 6280   6.414   6.490   1.196
 2106TIP3   OH2 6281   3.152   1.076   5.288
 2106TIP3    H1 6282   3.248   1.071   5.289
 2106TIP3    H2 6283   3.130   1.109   5.201
 2107TIP3   OH2 6284   3.172   6.248   1.094
 2107TIP3    H1 6285   3.250   6.257   1.040
 2107TIP3    H2 6286   3.205   6.224   1.181
 2108TIP3   OH2 6287   2.857   1.473   2.148
 2108TIP3    H1 6288   2.768   1.460   2.179
 2108TIP3    H2 6289   2.913   1.448   2.221
 2109TIP3   OH2 6290   3.485   4.255   5.487
 2109TIP3    H1 6291   3.508   4.212   5.405
 2109TIP3    H2 6292   3.468   4.183   5.549
 2110TIP3   OH2 6293   5.839   5.938   0.950
 2110TIP3    H1 6294   5.822   6.003   1.018
 2110TIP3    H2 6295   5.753   5.898   0.932
 2111TIP3   OH2 6296   0.708   1.928   2.712
 2111TIP3    H1 6297   0.791   1.884   2.732
 2111TIP3    H2 6298   0.719   2.016   2.750
 2112TIP3   OH2 6299   2.957   4.089   4.671
 2112TIP3    H1 6300   2.878   4.076   4.723
 2112TIP3    H2 6301   3.002   4.162   4.713
 2113TIP3   OH2 6302   3.400   3.870   0.806
 2113TIP3    H1 6303   3.457   3.884   0.731
 2113TIP3    H2 6304   3.427   3.937   0.869
 2114TIP3   OH2 6305   3.062   1.590   1.709
 2114TIP3    H1 6306   3.069   1.535   1.631
 2114TIP3    H2 6307   2.968   1.600   1.723
 2115TIP3   OH2 6308   4.238   5.833   1.367
 2115TIP3    H1 6309   4.205   5.918   1.397
 2115TIP3    H2 6310   4.254   5.784   1.448
 2116TIP3   OH2 6311   3.192   0.213   4.342
 2116TIP3    H1 6312   3.159   0.303   4.348
 2116TIP3    H2 6313   3.141   0.165   4.408
 2117TIP3   OH2 6314   3.339   0.611   5.916
 2117TIP3    H1 6315   3.433   0.598   5.931
 2117TIP3    H2 6316   3.327   0.706   5.926
 2118TIP3   OH2 6317   4.000   4.820   2.652
 2118TIP3    H1 6318   3.944   4.814   2.575
 2118TIP3    H2 6319   4.080   4.863   2.620
 2119TIP3   OH2 6320   5.400   5.418   0.054
 2119TIP3    H1 6321   5.355   5.501   0.072
 2119TIP3    H2 6322   5.385   5.365   0.132
 2120TIP3   OH2 6323   3.241   2.247   2.756
 2120TIP3    H1 6324   3.291   2.173   2.723
 2120TIP3    H2 6325   3.151   2.230   2.729
 2121TIP3   OH2 6326   5.098   1.776   0.417
 2121TIP3    H1 6327   5.105   1.869   0.397
 2121TIP3    H2 6328   5.023   1.746   0.365
 2122TIP3   OH2 6329   2.184   2.048   5.213
 2122TIP3    H1 6330   2.183   2.110   5.286
 2122TIP3    H2 6331   2.192   2.103   5.135
 2123TIP3   OH2 6332   2.257   2.226   1.697
 2123TIP3    H1 6333   2.188   2.292   1.698
 2123TIP3    H2 6334   2.329   2.268   1.649
 2124TIP3   OH2 6335   5.365   2.093   0.033
 2124TIP3    H1 6336   5.313   2.065  -0.042
 2124TIP3    H2 6337   5.304   2.092   0.106
 2125TIP3   OH2 6338   2.285   4.479   0.344
 2125TIP3    H1 6339   2.252   4.412   0.283
 2125TIP3    H2 6340   2.363   4.514   0.301
 2126TIP3   OH2 6341   5.759   2.209   5.257
 2126TIP3    H1 6342   5.850   2.234   5.242
 2126TIP3    H2 6343   5.762   2.114   5.269
 2127TIP3   OH2 6344   3.695   5.882   1.567
 2127TIP3    H1 6345   3.783   5.914   1.587
 2127TIP3    H2 6346   3.639   5.930   1.628
 2128TIP3   OH2 6347   3.003   0.041   4.095
 2128TIP3    H1 6348   2.943   0.115   4.096
 2128TIP3    H2 6349   2.976  -0.013   4.169
 2129TIP3   OH2 6350   3.090   3.703   5.565
 2129TIP3    H1 6351   3.152   3.683   5.495
 2129TIP3    H2 6352   3.145   3.727   5.640
 2130TIP3   OH2 6353   0.551   2.851   5.370
 2130TIP3    H1 6354   0.505   2.777   5.331
 2130TIP3    H2 6355   0.552   2.833   5.464
 2131TIP3   OH2 6356   5.086   5.536   4.766
 2131TIP3    H1 6357   5.096   5.577   4.852
 2131TIP3    H2 6358   5.132   5.452   4.774
 2132TIP3   OH2 6359   6.866   6.183   5.411
 2132TIP3    H1 6360   6.884   6.170   5.504
 2132TIP3    H2 6361   6.944   6.151   5.366
 2133TIP3   OH2 6362   6.374   5.530   0.547
 2133TIP3    H1 6363   6.384   5.535   0.452
 2133TIP3    H2 6364   6.457   5.492   0.578
 2134TIP3   OH2 6365   6.373   2.194   3.675
 2134TIP3    H1 6366   6.411   2.152   3.752
 2134TIP3    H2 6367   6.305   2.252   3.710
 2135TIP3   OH2 6368   0.857   3.140   3.771
 2135TIP3    H1 6369   0.811   3.108   3.849
 2135TIP3    H2 6370   0.860   3.235   3.782
 2136TIP3   OH2 6371   3.473   4.462   0.040
 2136TIP3    H1 6372   3.391   4.496   0.076
 2136TIP3    H2 6373   3.527   4.444   0.118
 2137TIP3   OH2 6374   6.403   6.578   2.905
 2137TIP3    H1 6375   6.388   6.515   2.976
 2137TIP3    H2 6376   6.413   6.523   2.827
 2138TIP3   OH2 6377   7.117   6.160   0.536
 2138TIP3    H1 6378   7.072   6.244   0.527
 2138TIP3    H2 6379   7.194   6.167   0.481
 2139TIP3   OH2 6380   4.617   1.522   1.133
 2139TIP3    H1 6381   4.666   1.601   1.110
 2139TIP3    H2 6382   4.537   1.554   1.174
 2140TIP3   OH2 6383   3.440   2.743   1.973
 2140TIP3    H1 6384   3.470   2.828   1.943
 2140TIP3    H2 6385   3.391   2.707   1.899
 2141TIP3   OH2 6386   6.940   6.757   2.595
 2141TIP3    H1 6387   6.985   6.738   2.513
 2141TIP3    H2 6388   6.860   6.704   2.591
 2142TIP3   OH2 6389   7.192   0.027   1.195
 2142TIP3    H1 6390   7.280   0.022   1.233
 2142TIP3    H2 6391   7.134   0.027   1.270
 2143TIP3   OH2 6392   1.658   2.173   4.581
 2143TIP3    H1 6393   1.605   2.135   4.510
 2143TIP3    H2 6394   1.734   2.116   4.586
 2144TIP3   OH2 6395   7.037   3.206   4.624
 2144TIP3    H1 6396   7.132   3.216   4.623
 2144TIP3    H2 6397   7.015   3.191   4.716
 2145TIP3   OH2 6398   2.554   5.705   5.043
 2145TIP3    H1 6399   2.543   5.765   5.116
 2145TIP3    H2 6400   2.590   5.625   5.082
 2146TIP3   OH2 6401   6.589   6.101   3.007
 2146TIP3    H1 6402   6.630   6.156   2.939
 2146TIP3    H2 6403   6.661   6.078   3.065
 2147TIP3   OH2 6404   0.319   6.248   4.516
 2147TIP3    H1 6405   0.377   6.186   4.560
 2147TIP3    H2 6406   0.372   6.327   4.505
 2148TIP3   OH2 6407   5.633   3.334   1.310
 2148TIP3    H1 6408   5.540   3.316   1.295
 2148TIP3    H2 6409   5.679   3.282   1.244
 2149TIP3   OH2 6410   7.175   5.121   3.051
 2149TIP3    H1 6411   7.109   5.056   3.028
 2149TIP3    H2 6412   7.160   5.194   2.990
 2150TIP3   OH2 6413   1.540   2.482   1.307
 2150TIP3    H1 6414   1.467   2.478   1.245
 2150TIP3    H2 6415   1.563   2.390   1.323
 2151TIP3   OH2 6416   4.378   5.177   0.603
 2151TIP3    H1 6417   4.331   5.259   0.617
 2151TIP3    H2 6418   4.321   5.110   0.640
 2152TIP3   OH2 6419   6.008   1.037   2.093
 2152TIP3    H1 6420   5.925   0.990   2.102
 2152TIP3    H2 6421   6.066   0.995   2.156
 2153TIP3   OH2 6422   0.521   2.935   3.493
 2153TIP3    H1 6423   0.442   2.888   3.521
 2153TIP3    H2 6424   0.490   2.995   3.426
 2154TIP3   OH2 6425   1.757   1.035   1.724
 2154TIP3    H1 6426   1.849   1.008   1.724
 2154TIP3    H2 6427   1.760   1.130   1.733
 2155TIP3   OH2 6428   2.418   3.154   1.688
 2155TIP3    H1 6429   2.446   3.225   1.744
 2155TIP3    H2 6430   2.382   3.088   1.748
 2156TIP3   OH2 6431   5.521   3.317   1.723
 2156TIP3    H1 6432   5.528   3.262   1.801
 2156TIP3    H2 6433   5.563   3.400   1.749
 2157TIP3   OH2 6434   2.416   3.558   3.222
 2157TIP3    H1 6435   2.343   3.588   3.275
 2157TIP3    H2 6436   2.472   3.635   3.210
 2158TIP3   OH2 6437   6.101   1.085   1.036
 2158TIP3    H1 6438   6.134   1.067   0.948
 2158TIP3    H2 6439   6.179   1.096   1.090
 2159TIP3   OH2 6440   2.114   6.519   0.968
 2159TIP3    H1 6441   2.187   6.491   0.912
 2159TIP3    H2 6442   2.038   6.521   0.910
 2160TIP3   OH2 6443   3.792   3.053   1.879
 2160TIP3    H1 6444   3.806   2.959   1.869
 2160TIP3    H2 6445   3.878   3.092   1.863
 2161TIP3   OH2 6446   0.887   1.323   5.787
 2161TIP3    H1 6447   0.979   1.329   5.814
 2161TIP3    H2 6448   0.853   1.247   5.834
 2162TIP3   OH2 6449   1.192   3.264   0.209
 2162TIP3    H1 6450   1.274   3.253   0.256
 2162TIP3    H2 6451   1.180   3.359   0.202
 2163TIP3   OH2 6452   0.876   5.576   0.921
 2163TIP3    H1 6453   0.884   5.618   1.006
 2163TIP3    H2 6454   0.835   5.642   0.865
 2164TIP3   OH2 6455   5.486   5.543   2.588
 2164TIP3    H1 6456   5.577   5.516   2.572
 2164TIP3    H2 6457   5.466   5.510   2.676
 2165TIP3   OH2 6458   5.914   2.506   4.271
 2165TIP3    H1 6459   5.938   2.590   4.233
 2165TIP3    H2 6460   5.879   2.528   4.357
 2166TIP3   OH2 6461   3.970   3.338   2.536
 2166TIP3    H1 6462   4.061   3.361   2.556
 2166TIP3    H2 6463   3.967   3.335   2.440
 2167TIP3   OH2 6464   1.223   6.024   4.346
 2167TIP3    H1 6465   1.186   6.007   4.432
 2167TIP3    H2 6466   1.165   5.977   4.286
 2168TIP3   OH2 6467   4.712   5.433   0.399
 2168TIP3    H1 6468   4.645   5.385   0.350
 2168TIP3    H2 6469   4.663   5.499   0.449
 2169TIP3   OH2 6470   4.425   1.681   0.849
 2169TIP3    H1 6471   4.391   1.758   0.804
 2169TIP3    H2 6472   4.377   1.678   0.932
 2170TIP3   OH2 6473   6.869   2.066   0.472
 2170TIP3    H1 6474   6.904   2.084   0.559
 2170TIP3    H2 6475   6.896   2.141   0.419
 2171TIP3   OH2 6476   2.579   2.509   2.271
 2171TIP3    H1 6477   2.601   2.538   2.359
 2171TIP3    H2 6478   2.491   2.472   2.279
 2172TIP3   OH2 6479   5.657   5.625   1.748
 2172TIP3    H1 6480   5.719   5.661   1.685
 2172TIP3    H2 6481   5.710   5.603   1.825
 2173TIP3   OH2 6482   0.701   0.573   4.656
 2173TIP3    H1 6483   0.619   0.556   4.704
 2173TIP3    H2 6484   0.740   0.487   4.644
 2174TIP3   OH2 6485   4.580   1.208   1.784
 2174TIP3    H1 6486   4.661   1.208   1.734
 2174TIP3    H2 6487   4.563   1.301   1.803
 2175TIP3   OH2 6488   6.530   2.769   4.006
 2175TIP3    H1 6489   6.527   2.864   4.024
 2175TIP3    H2 6490   6.507   2.729   4.090
 2176TIP3   OH2 6491   3.474   3.232   5.217
 2176TIP3    H1 6492   3.553   3.192   5.180
 2176TIP3    H2 6493   3.495   3.247   5.309
 2177TIP3   OH2 6494   7.161   0.064   1.538
 2177TIP3    H1 6495   7.092   0.100   1.594
 2177TIP3    H2 6496   7.129  -0.021   1.511
 2178TIP3   OH2 6497   1.278   6.725   3.052
 2178TIP3    H1 6498   1.200   6.779   3.039
 2178TIP3    H2 6499   1.277   6.664   2.979
 2179TIP3   OH2 6500   4.505   5.952   3.882
 2179TIP3    H1 6501   4.488   6.033   3.834
 2179TIP3    H2 6502   4.552   5.980   3.960
 2180TIP3   OH2 6503   5.632   3.443   5.569
 2180TIP3    H1 6504   5.552   3.450   5.622
 2180TIP3    H2 6505   5.618   3.504   5.496
 2181TIP3   OH2 6506   4.366   3.643   3.260
 2181TIP3    H1 6507   4.341   3.671   3.348
 2181TIP3    H2 6508   4.415   3.717   3.225
 2182TIP3   OH2 6509   3.066   5.038   2.773
 2182TIP3    H1 6510   3.145   5.011   2.820
 2182TIP3    H2 6511   3.041   4.961   2.721
 2183TIP3   OH2 6512   6.637   0.574   2.409
 2183TIP3    H1 6513   6.672   0.644   2.465
 2183TIP3    H2 6514   6.544   0.569   2.432
 2184TIP3   OH2 6515   7.005   5.003   5.384
 2184TIP3    H1 6516   6.937   5.069   5.395
 2184TIP3    H2 6517   6.987   4.963   5.299
 2185TIP3   OH2 6518   6.464   4.589   1.235
 2185TIP3    H1 6519   6.389   4.563   1.289
 2185TIP3    H2 6520   6.539   4.549   1.279
 2186TIP3   OH2 6521   5.696   1.837   3.576
 2186TIP3    H1 6522   5.687   1.931   3.593
 2186TIP3    H2 6523   5.646   1.822   3.496
 2187TIP3   OH2 6524   4.420   4.841   4.258
 2187TIP3    H1 6525   4.512   4.829   4.236
 2187TIP3    H2 6526   4.380   4.755   4.245
 2188TIP3   OH2 6527   5.159   1.468   1.465
 2188TIP3    H1 6528   5.244   1.446   1.427
 2188TIP3    H2 6529   5.104   1.393   1.445
 2189TIP3   OH2 6530   4.256   4.342   1.521
 2189TIP3    H1 6531   4.322   4.287   1.565
 2189TIP3    H2 6532   4.184   4.283   1.502
 2190TIP3   OH2 6533   3.844   1.419   2.723
 2190TIP3    H1 6534   3.917   1.425   2.661
 2190TIP3    H2 6535   3.812   1.509   2.731
 2191TIP3   OH2 6536   5.176   0.419   0.082
 2191TIP3    H1 6537   5.087   0.452   0.091
 2191TIP3    H2 6538   5.230   0.497   0.069
 2192TIP3   OH2 6539   3.313   6.598   0.296
 2192TIP3    H1 6540   3.322   6.510   0.257
 2192TIP3    H2 6541   3.331   6.658   0.224
 2193TIP3   OH2 6542   2.861   5.505   1.273
 2193TIP3    H1 6543   2.908   5.492   1.191
 2193TIP3    H2 6544   2.929   5.521   1.338
 2194TIP3   OH2 6545   0.714   5.681   4.708
 2194TIP3    H1 6546   0.699   5.675   4.803
 2194TIP3    H2 6547   0.661   5.611   4.671
 2195TIP3   OH2 6548   4.372   3.419   0.613
 2195TIP3    H1 6549   4.296   3.397   0.667
 2195TIP3    H2 6550   4.345   3.400   0.523
 2196TIP3   OH2 6551   0.865   1.834   3.577
 2196TIP3    H1 6552   0.779   1.873   3.595
 2196TIP3    H2 6553   0.925   1.881   3.636
 2197TIP3   OH2 6554   3.969   1.019   0.207
 2197TIP3    H1 6555   4.013   0.940   0.238
 2197TIP3    H2 6556   4.040   1.083   0.197
 2198TIP3   OH2 6557   7.088   3.894   4.132
 2198TIP3    H1 6558   7.065   3.971   4.184
 2198TIP3    H2 6559   7.032   3.825   4.165
 2199TIP3   OH2 6560   7.110   4.463   0.839
 2199TIP3    H1 6561   7.035   4.406   0.860
 2199TIP3    H2 6562   7.186   4.416   0.875
 2200TIP3   OH2 6563   6.875   3.483   3.553
 2200TIP3    H1 6564   6.955   3.434   3.574
 2200TIP3    H2 6565   6.812   3.453   3.619
 2201TIP3   OH2 6566   0.771   0.773   2.451
 2201TIP3    H1 6567   0.746   0.846   2.394
 2201TIP3    H2 6568   0.862   0.791   2.475
 2202TIP3   OH2 6569   5.523   0.445   3.939
 2202TIP3    H1 6570   5.482   0.530   3.922
 2202TIP3    H2 6571   5.491   0.389   3.869
 2203TIP3   OH2 6572   1.727   3.906   1.313
 2203TIP3    H1 6573   1.674   3.963   1.369
 2203TIP3    H2 6574   1.666   3.838   1.284
 2204TIP3   OH2 6575   2.430   4.621   4.519
 2204TIP3    H1 6576   2.497   4.669   4.569
 2204TIP3    H2 6577   2.348   4.643   4.564
 2205TIP3   OH2 6578   1.708   5.573   5.283
 2205TIP3    H1 6579   1.777   5.638   5.272
 2205TIP3    H2 6580   1.746   5.491   5.251
 2206TIP3   OH2 6581   0.879   2.554   3.374
 2206TIP3    H1 6582   0.841   2.635   3.409
 2206TIP3    H2 6583   0.941   2.584   3.307
 2207TIP3   OH2 6584   1.263   0.616   1.979
 2207TIP3    H1 6585   1.182   0.664   1.993
 2207TIP3    H2 6586   1.236   0.531   1.944
 2208TIP3   OH2 6587   2.934   5.246   5.751
 2208TIP3    H1 6588   2.976   5.161   5.765
 2208TIP3    H2 6589   2.896   5.240   5.663
 2209TIP3   OH2 6590   5.423   3.944   4.046
 2209TIP3    H1 6591   5.329   3.949   4.030
 2209TIP3    H2 6592   5.433   3.967   4.139
 2210TIP3   OH2 6593   1.810   4.061   5.375
 2210TIP3    H1 6594   1.720   4.092   5.363
 2210TIP3    H2 6595   1.845   4.115   5.445
 2211TIP3   OH2 6596   2.847   2.962   5.473
 2211TIP3    H1 6597   2.892   2.991   5.394
 2211TIP3    H2 6598   2.778   3.027   5.486
 2212TIP3   OH2 6599   4.916   3.383   0.046
 2212TIP3    H1 6600   5.009   3.359   0.041
 2212TIP3    H2 6601   4.910   3.464  -0.004
 2213TIP3   OH2 6602   0.922   0.129   1.377
 2213TIP3    H1 6603   0.859   0.120   1.306
 2213TIP3    H2 6604   1.002   0.088   1.344
 2214TIP3   OH2 6605   6.632   0.562   2.144
 2214TIP3    H1 6606   6.546   0.603   2.139
 2214TIP3    H2 6607   6.653   0.560   2.237
 2215TIP3   OH2 6608   2.777   5.517   3.790
 2215TIP3    H1 6609   2.687   5.551   3.792
 2215TIP3    H2 6610   2.772   5.438   3.737
 2216TIP3   OH2 6611   4.327   4.678   3.718
 2216TIP3    H1 6612   4.402   4.678   3.658
 2216TIP3    H2 6613   4.281   4.760   3.698
 2217TIP3   OH2 6614   2.807   1.477   1.188
 2217TIP3    H1 6615   2.769   1.444   1.107
 2217TIP3    H2 6616   2.894   1.436   1.192
 2218TIP3   OH2 6617   7.050   2.901   4.979
 2218TIP3    H1 6618   7.104   2.898   5.058
 2218TIP3    H2 6619   7.064   2.989   4.944
 2219TIP3   OH2 6620   2.844   2.826   2.722
 2219TIP3    H1 6621   2.826   2.774   2.800
 2219TIP3    H2 6622   2.914   2.779   2.677
 2220TIP3   OH2 6623   6.510   0.906   3.242
 2220TIP3    H1 6624   6.559   0.824   3.249
 2220TIP3    H2 6625   6.572   0.968   3.204
 2221TIP3   OH2 6626   3.160   3.673   3.226
 2221TIP3    H1 6627   3.214   3.716   3.160
 2221TIP3    H2 6628   3.125   3.596   3.182
 2222TIP3   OH2 6629   6.813   3.006   2.449
 2222TIP3    H1 6630   6.758   3.059   2.390
 2222TIP3    H2 6631   6.838   3.065   2.519
 2223TIP3   OH2 6632   4.511   2.544   2.413
 2223TIP3    H1 6633   4.508   2.565   2.320
 2223TIP3    H2 6634   4.469   2.458   2.420
 2224TIP3   OH2 6635   4.887   5.946   0.998
 2224TIP3    H1 6636   4.845   6.032   0.995
 2224TIP3    H2 6637   4.975   5.961   0.963
 2225TIP3   OH2 6638   4.304   3.248   2.065
 2225TIP3    H1 6639   4.351   3.321   2.025
 2225TIP3    H2 6640   4.289   3.186   1.994
 2226TIP3   OH2 6641   3.639   2.017   4.474
 2226TIP3    H1 6642   3.657   2.043   4.564
 2226TIP3    H2 6643   3.693   1.940   4.459
 2227TIP3   OH2 6644   1.174   6.276   5.778
 2227TIP3    H1 6645   1.210   6.248   5.862
 2227TIP3    H2 6646   1.133   6.198   5.741
 2228TIP3   OH2 6647   1.024   1.250   4.159
 2228TIP3    H1 6648   1.054   1.262   4.068
 2228TIP3    H2 6649   0.928   1.247   4.152
 2229TIP3   OH2 6650   6.183   6.247   1.972
 2229TIP3    H1 6651   6.174   6.300   1.893
 2229TIP3    H2 6652   6.094   6.240   2.007
 2230TIP3   OH2 6653   1.735   3.045   3.543
 2230TIP3    H1 6654   1.765   3.120   3.492
 2230TIP3    H2 6655   1.786   3.048   3.624
 2231TIP3   OH2 6656   5.180   3.117   5.039
 2231TIP3    H1 6657   5.162   3.026   5.013
 2231TIP3    H2 6658   5.109   3.167   4.999
 2232TIP3   OH2 6659   2.424   5.988   1.581
 2232TIP3    H1 6660   2.393   5.906   1.621
 2232TIP3    H2 6661   2.385   6.057   1.635
 2233TIP3   OH2 6662   0.779   0.712   0.286
 2233TIP3    H1 6663   0.735   0.761   0.355
 2233TIP3    H2 6664   0.739   0.742   0.205
 2234TIP3   OH2 6665   0.379   0.996   0.809
 2234TIP3    H1 6666   0.426   1.005   0.726
 2234TIP3    H2 6667   0.306   0.937   0.789
 2235TIP3   OH2 6668   6.916   4.012   3.101
 2235TIP3    H1 6669   6.823   3.991   3.101
 2235TIP3    H2 6670   6.951   3.966   3.178
 2236TIP3   OH2 6671   1.287   6.259   2.495
 2236TIP3    H1 6672   1.324   6.293   2.577
 2236TIP3    H2 6673   1.346   6.290   2.427
 2237TIP3   OH2 6674   2.956   1.947   5.657
 2237TIP3    H1 6675   2.990   1.873   5.608
 2237TIP3    H2 6676   2.920   1.909   5.737
 2238TIP3   OH2 6677   1.318   0.710   4.775
 2238TIP3    H1 6678   1.359   0.692   4.860
 2238TIP3    H2 6679   1.250   0.643   4.766
 2239TIP3   OH2 6680   1.774   1.133   2.592
 2239TIP3    H1 6681   1.784   1.168   2.504
 2239TIP3    H2 6682   1.752   1.209   2.646
 2240TIP3   OH2 6683   5.059   2.758   3.480
 2240TIP3    H1 6684   5.034   2.667   3.465
 2240TIP3    H2 6685   5.101   2.785   3.398
 2241TIP3   OH2 6686   6.693   1.503   1.129
 2241TIP3    H1 6687   6.771   1.501   1.185
 2241TIP3    H2 6688   6.635   1.566   1.171
 2242TIP3   OH2 6689   2.551   6.083   3.255
 2242TIP3    H1 6690   2.569   6.091   3.161
 2242TIP3    H2 6691   2.509   5.997   3.263
 2243TIP3   OH2 6692   4.110   1.880   4.039
 2243TIP3    H1 6693   4.200   1.883   4.072
 2243TIP3    H2 6694   4.088   1.787   4.040
 2244TIP3   OH2 6695   3.825   0.001   1.091
 2244TIP3    H1 6696   3.836  -0.049   1.010
 2244TIP3    H2 6697   3.913   0.002   1.130
 2245TIP3   OH2 6698   3.699   2.630   0.162
 2245TIP3    H1 6699   3.749   2.563   0.210
 2245TIP3    H2 6700   3.660   2.583   0.089
 2246TIP3   OH2 6701   2.252   3.579   5.660
 2246TIP3    H1 6702   2.177   3.634   5.635
 2246TIP3    H2 6703   2.266   3.522   5.585
 2247TIP3   OH2 6704   1.416   4.684   1.636
 2247TIP3    H1 6705   1.421   4.659   1.728
 2247TIP3    H2 6706   1.409   4.602   1.588
 2248TIP3   OH2 6707   0.678   6.384   2.776
 2248TIP3    H1 6708   0.607   6.346   2.828
 2248TIP3    H2 6709   0.710   6.311   2.722
 2249TIP3   OH2 6710   2.278   2.322   2.480
 2249TIP3    H1 6711   2.222   2.258   2.524
 2249TIP3    H2 6712   2.367   2.292   2.495
 2250TIP3   OH2 6713   4.227   2.142   1.687
 2250TIP3    H1 6714   4.293   2.077   1.666
 2250TIP3    H2 6715   4.186   2.109   1.767
 2251TIP3   OH2 6716  -0.009   4.296   3.949
 2251TIP3    H1 6717   0.066   4.306   3.891
 2251TIP3    H2 6718  -0.005   4.205   3.978
 2252TIP3   OH2 6719   3.764   1.740   3.642
 2252TIP3    H1 6720   3.806   1.806   3.698
 2252TIP3    H2 6721   3.830   1.671   3.633
 2253TIP3   OH2 6722   4.542   4.041   3.731
 2253TIP3    H1 6723   4.620   4.040   3.676
 2253TIP3    H2 6724   4.511   4.132   3.727
 2254TIP3   OH2 6725   4.298   1.177   5.032
 2254TIP3    H1 6726   4.326   1.204   4.945
 2254TIP3    H2 6727   4.377   1.140   5.072
 2255TIP3   OH2 6728   3.339   3.733   4.299
 2255TIP3    H1 6729   3.348   3.828   4.286
 2255TIP3    H2 6730   3.425   3.698   4.276
 2256TIP3   OH2 6731   2.996   5.905   3.280
 2256TIP3    H1 6732   2.928   5.905   3.348
 2256TIP3    H2 6733   3.074   5.938   3.324
 2257TIP3   OH2 6734   0.105   3.684   1.486
 2257TIP3    H1 6735   0.075   3.596   1.463
 2257TIP3    H2 6736   0.026   3.729   1.517
 2258TIP3   OH2 6737   3.619   6.762   3.123
 2258TIP3    H1 6738   3.709   6.740   3.146
 2258TIP3    H2 6739   3.613   6.857   3.138
 2259TIP3   OH2 6740   0.854   3.331   2.592
 2259TIP3    H1 6741   0.767   3.307   2.560
 2259TIP3    H2 6742   0.908   3.255   2.573
 2260TIP3   OH2 6743   6.449   5.507   2.647
 2260TIP3    H1 6744   6.421   5.597   2.630
 2260TIP3    H2 6745   6.479   5.475   2.562
 2261TIP3   OH2 6746   6.423   0.996   2.003
 2261TIP3    H1 6747   6.410   1.026   1.913
 2261TIP3    H2 6748   6.341   1.016   2.048
 2262TIP3   OH2 6749   3.693   5.473   1.114
 2262TIP3    H1 6750   3.672   5.482   1.207
 2262TIP3    H2 6751   3.637   5.538   1.070
 2263TIP3   OH2 6752   4.698   4.208   1.798
 2263TIP3    H1 6753   4.692   4.131   1.741
 2263TIP3    H2 6754   4.717   4.172   1.884
 2264TIP3   OH2 6755   7.236   3.989   3.909
 2264TIP3    H1 6756   7.193   3.961   3.990
 2264TIP3    H2 6757   7.170   3.976   3.841
 2265TIP3   OH2 6758   2.790   0.409   4.428
 2265TIP3    H1 6759   2.742   0.401   4.510
 2265TIP3    H2 6760   2.747   0.481   4.382
 2266TIP3   OH2 6761   6.272   1.504   0.234
 2266TIP3    H1 6762   6.357   1.471   0.205
 2266TIP3    H2 6763   6.279   1.600   0.227
 2267TIP3   OH2 6764   4.973   6.668   5.270
 2267TIP3    H1 6765   4.963   6.606   5.197
 2267TIP3    H2 6766   5.051   6.719   5.247
 2268TIP3   OH2 6767   2.392   6.239   1.190
 2268TIP3    H1 6768   2.428   6.323   1.161
 2268TIP3    H2 6769   2.387   6.187   1.109
 2269TIP3   OH2 6770   0.581   4.787   2.018
 2269TIP3    H1 6771   0.658   4.739   1.986
 2269TIP3    H2 6772   0.556   4.742   2.098
 2270TIP3   OH2 6773   4.241   0.165   0.780
 2270TIP3    H1 6774   4.298   0.170   0.704
 2270TIP3    H2 6775   4.190   0.247   0.778
 2271TIP3   OH2 6776   4.304   3.918   2.855
 2271TIP3    H1 6777   4.303   3.934   2.761
 2271TIP3    H2 6778   4.280   3.826   2.865
 2272TIP3   OH2 6779   6.124   3.035   0.108
 2272TIP3    H1 6780   6.096   3.088   0.033
 2272TIP3    H2 6781   6.052   3.042   0.171
 2273TIP3   OH2 6782   3.204   5.323   4.535
 2273TIP3    H1 6783   3.117   5.289   4.554
 2273TIP3    H2 6784   3.263   5.271   4.590
 2274TIP3   OH2 6785   5.324   5.728   3.329
 2274TIP3    H1 6786   5.369   5.667   3.270
 2274TIP3    H2 6787   5.231   5.718   3.307
 2275TIP3   OH2 6788   3.107   4.796   1.197
 2275TIP3    H1 6789   3.044   4.739   1.153
 2275TIP3    H2 6790   3.069   4.883   1.193
 2276TIP3   OH2 6791   2.624   3.153   4.451
 2276TIP3    H1 6792   2.666   3.209   4.516
 2276TIP3    H2 6793   2.685   3.150   4.378
 2277TIP3   OH2 6794   3.779   0.194   3.977
 2277TIP3    H1 6795   3.772   0.248   3.898
 2277TIP3    H2 6796   3.709   0.226   4.034
 2278TIP3   OH2 6797   4.475   1.981   1.924
 2278TIP3    H1 6798   4.381   1.966   1.916
 2278TIP3    H2 6799   4.515   1.896   1.902
 2279TIP3   OH2 6800   1.908   2.848   0.325
 2279TIP3    H1 6801   1.898   2.757   0.297
 2279TIP3    H2 6802   2.002   2.865   0.319
 2280TIP3   OH2 6803   6.005   4.364   4.406
 2280TIP3    H1 6804   6.006   4.286   4.461
 2280TIP3    H2 6805   6.033   4.333   4.320
 2281TIP3   OH2 6806   6.746   1.826   5.375
 2281TIP3    H1 6807   6.822   1.779   5.409
 2281TIP3    H2 6808   6.689   1.838   5.451
 2282TIP3   OH2 6809   1.343   3.876   2.689
 2282TIP3    H1 6810   1.398   3.830   2.753
 2282TIP3    H2 6811   1.339   3.817   2.614
 2283TIP3   OH2 6812   7.095   4.905   4.275
 2283TIP3    H1 6813   7.056   4.883   4.360
 2283TIP3    H2 6814   7.187   4.881   4.283
 2284TIP3   OH2 6815   0.055   1.352   4.557
 2284TIP3    H1 6816   0.113   1.281   4.585
 2284TIP3    H2 6817   0.099   1.391   4.482
 2285TIP3   OH2 6818   5.606   2.257   5.031
 2285TIP3    H1 6819   5.657   2.246   5.111
 2285TIP3    H2 6820   5.659   2.217   4.962
 2286TIP3   OH2 6821   1.512   5.302   3.077
 2286TIP3    H1 6822   1.572   5.361   3.032
 2286TIP3    H2 6823   1.478   5.354   3.150
 2287TIP3   OH2 6824   0.391   1.173   1.681
 2287TIP3    H1 6825   0.333   1.106   1.645
 2287TIP3    H2 6826   0.351   1.256   1.652
 2288TIP3   OH2 6827   5.650   2.578   0.012
 2288TIP3    H1 6828   5.567   2.624  -0.002
 2288TIP3    H2 6829   5.626   2.485   0.013
 2289TIP3   OH2 6830   4.898   4.506   3.984
 2289TIP3    H1 6831   4.923   4.502   4.077
 2289TIP3    H2 6832   4.944   4.583   3.951
 2290TIP3   OH2 6833   6.993   4.622   2.424
 2290TIP3    H1 6834   7.053   4.617   2.498
 2290TIP3    H2 6835   6.939   4.543   2.430
 2291TIP3   OH2 6836   7.006   4.558   4.154
 2291TIP3    H1 6837   6.933   4.612   4.185
 2291TIP3    H2 6838   7.018   4.586   4.063
 2292TIP3   OH2 6839   5.444   4.919   4.359
 2292TIP3    H1 6840   5.486   4.874   4.286
 2292TIP3    H2 6841   5.356   4.940   4.326
 2293TIP3   OH2 6842   5.749   1.780   4.115
 2293TIP3    H1 6843   5.830   1.818   4.083
 2293TIP3    H2 6844   5.685   1.796   4.045
 2294TIP3   OH2 6845   3.934   2.076   2.508
 2294TIP3    H1 6846   4.027   2.099   2.506
 2294TIP3    H2 6847   3.932   1.981   2.498
 2295TIP3   OH2 6848   4.710   6.211   1.029
 2295TIP3    H1 6849   4.690   6.303   1.048
 2295TIP3    H2 6850   4.685   6.200   0.937
 2296TIP3   OH2 6851   2.664   0.664   1.015
 2296TIP3    H1 6852   2.756   0.649   0.994
 2296TIP3    H2 6853   2.636   0.586   1.063
 2297TIP3   OH2 6854   3.561   0.315   0.347
 2297TIP3    H1 6855   3.592   0.229   0.376
 2297TIP3    H2 6856   3.576   0.372   0.423
 2298TIP3   OH2 6857   4.452   4.678   1.717
 2298TIP3    H1 6858   4.390   4.707   1.784
 2298TIP3    H2 6859   4.399   4.662   1.639
 2299TIP3   OH2 6860   5.759   5.020   3.718
 2299TIP3    H1 6861   5.843   4.997   3.678
 2299TIP3    H2 6862   5.776   5.021   3.812
 2300TIP3   OH2 6863   2.613   6.016   2.957
 2300TIP3    H1 6864   2.570   5.959   2.894
 2300TIP3    H2 6865   2.630   6.097   2.909
 2301TIP3   OH2 6866   1.054   2.439   5.846
 2301TIP3    H1 6867   1.081   2.524   5.879
 2301TIP3    H2 6868   1.135   2.388   5.840
 2302TIP3   OH2 6869   2.779   6.120   5.832
 2302TIP3    H1 6870   2.809   6.203   5.869
 2302TIP3    H2 6871   2.829   6.053   5.878
 2303TIP3   OH2 6872   3.750   0.346   0.110
 2303TIP3    H1 6873   3.803   0.278   0.068
 2303TIP3    H2 6874   3.743   0.318   0.201
 2304TIP3   OH2 6875   2.425   4.431   3.525
 2304TIP3    H1 6876   2.334   4.430   3.552
 2304TIP3    H2 6877   2.467   4.364   3.578
 2305TIP3   OH2 6878   1.541   3.446   4.315
 2305TIP3    H1 6879   1.619   3.488   4.353
 2305TIP3    H2 6880   1.502   3.514   4.260
 2306TIP3   OH2 6881   0.575   5.115   4.633
 2306TIP3    H1 6882   0.628   5.035   4.630
 2306TIP3    H2 6883   0.638   5.186   4.645
 2307TIP3   OH2 6884   1.214   4.786   0.464
 2307TIP3    H1 6885   1.151   4.774   0.393
 2307TIP3    H2 6886   1.281   4.719   0.449
 2308TIP3   OH2 6887   1.757   2.544   4.982
 2308TIP3    H1 6888   1.786   2.630   5.012
 2308TIP3    H2 6889   1.776   2.544   4.888
 2309TIP3   OH2 6890   4.134   5.242   1.469
 2309TIP3    H1 6891   4.077   5.230   1.392
 2309TIP3    H2 6892   4.209   5.291   1.436
 2310TIP3   OH2 6893   6.733   5.678   1.108
 2310TIP3    H1 6894   6.818   5.721   1.117
 2310TIP3    H2 6895   6.670   5.742   1.139
 2311TIP3   OH2 6896   0.766   2.165   0.258
 2311TIP3    H1 6897   0.831   2.099   0.234
 2311TIP3    H2 6898   0.751   2.215   0.178
 2312TIP3   OH2 6899   0.234   4.156   2.077
 2312TIP3    H1 6900   0.299   4.188   2.140
 2312TIP3    H2 6901   0.280   4.088   2.027
 2313TIP3   OH2 6902   4.940   5.158   4.274
 2313TIP3    H1 6903   4.987   5.215   4.212
 2313TIP3    H2 6904   4.990   5.165   4.355
 2314TIP3   OH2 6905   5.184   4.394   5.826
 2314TIP3    H1 6906   5.269   4.422   5.859
 2314TIP3    H2 6907   5.134   4.371   5.904
 2315TIP3   OH2 6908   0.454   5.523   2.052
 2315TIP3    H1 6909   0.385   5.587   2.069
 2315TIP3    H2 6910   0.465   5.477   2.135
 2316TIP3   OH2 6911   5.016   3.479   2.213
 2316TIP3    H1 6912   5.008   3.573   2.232
 2316TIP3    H2 6913   5.106   3.470   2.181
 2317TIP3   OH2 6914   1.956   2.802   3.368
 2317TIP3    H1 6915   1.916   2.723   3.332
 2317TIP3    H2 6916   1.883   2.851   3.405
 2318TIP3   OH2 6917   5.737   2.201   2.612
 2318TIP3    H1 6918   5.663   2.220   2.669
 2318TIP3    H2 6919   5.733   2.106   2.597
 2319TIP3   OH2 6920   5.980   1.427   0.281
 2319TIP3    H1 6921   6.011   1.354   0.227
 2319TIP3    H2 6922   6.059   1.476   0.303
 2320TIP3   OH2 6923   0.597   0.802   0.055
 2320TIP3    H1 6924   0.501   0.803   0.059
 2320TIP3    H2 6925   0.618   0.770  -0.033
 2321TIP3   OH2 6926   6.185   5.074   3.019
 2321TIP3    H1 6927   6.258   5.058   3.079
 2321TIP3    H2 6928   6.157   5.164   3.039
 2322TIP3   OH2 6929   6.177   3.872   4.136
 2322TIP3    H1 6930   6.217   3.922   4.207
 2322TIP3    H2 6931   6.128   3.803   4.181
 2323TIP3   OH2 6932   0.711   0.378   2.036
 2323TIP3    H1 6933   0.729   0.413   2.124
 2323TIP3    H2 6934   0.645   0.310   2.051
 2324TIP3   OH2 6935   1.711   1.050   3.099
 2324TIP3    H1 6936   1.728   1.138   3.131
 2324TIP3    H2 6937   1.622   1.030   3.129
 2325TIP3   OH2 6938   3.718   6.090   3.340
 2325TIP3    H1 6939   3.748   6.009   3.299
 2325TIP3    H2 6940   3.724   6.073   3.434
 2326TIP3   OH2 6941   1.546   5.956   0.208
 2326TIP3    H1 6942   1.548   6.013   0.131
 2326TIP3    H2 6943   1.626   5.978   0.256
 2327TIP3   OH2 6944   3.586   1.673   5.253
 2327TIP3    H1 6945   3.644   1.598   5.236
 2327TIP3    H2 6946   3.643   1.749   5.246
 2328TIP3   OH2 6947   2.119   6.774   3.422
 2328TIP3    H1 6948   2.100   6.801   3.512
 2328TIP3    H2 6949   2.037   6.789   3.375
 2329TIP3   OH2 6950   2.998   0.380   2.739
 2329TIP3    H1 6951   3.021   0.465   2.702
 2329TIP3    H2 6952   2.963   0.330   2.666
 2330TIP3   OH2 6953   3.819   0.884   5.886
 2330TIP3    H1 6954   3.762   0.874   5.810
 2330TIP3    H2 6955   3.782   0.958   5.934
 2331TIP3   OH2 6956   1.833   1.943   4.611
 2331TIP3    H1 6957   1.814   1.865   4.663
 2331TIP3    H2 6958   1.839   1.912   4.521
 2332TIP3   OH2 6959   3.222   5.375   0.566
 2332TIP3    H1 6960   3.184   5.294   0.600
 2332TIP3    H2 6961   3.294   5.395   0.626
 2333TIP3   OH2 6962   1.427   1.069   2.035
 2333TIP3    H1 6963   1.364   1.138   2.058
 2333TIP3    H2 6964   1.454   1.091   1.946
 2334TIP3   OH2 6965   0.669   2.338   2.143
 2334TIP3    H1 6966   0.589   2.388   2.126
 2334TIP3    H2 6967   0.705   2.377   2.223
 2335TIP3   OH2 6968   5.061   3.646   1.545
 2335TIP3    H1 6969   5.056   3.550   1.551
 2335TIP3    H2 6970   4.969   3.674   1.541
 2336TIP3   OH2 6971   3.096   1.759   5.539
 2336TIP3    H1 6972   3.053   1.675   5.522
 2336TIP3    H2 6973   3.182   1.750   5.497
 2337TIP3   OH2 6974   6.849   1.275   4.986
 2337TIP3    H1 6975   6.933   1.229   4.977
 2337TIP3    H2 6976   6.785   1.205   4.997
 2338TIP3   OH2 6977   1.569   5.588   4.672
 2338TIP3    H1 6978   1.505   5.603   4.741
 2338TIP3    H2 6979   1.542   5.645   4.600
 2339TIP3   OH2 6980   3.085   4.259   1.730
 2339TIP3    H1 6981   3.147   4.256   1.803
 2339TIP3    H2 6982   3.003   4.225   1.767
 2340TIP3   OH2 6983   5.356   0.853   2.036
 2340TIP3    H1 6984   5.426   0.835   1.973
 2340TIP3    H2 6985   5.277   0.860   1.982
 2341TIP3   OH2 6986   6.079   3.308   0.373
 2341TIP3    H1 6987   6.080   3.384   0.316
 2341TIP3    H2 6988   6.005   3.255   0.342
 2342TIP3   OH2 6989   4.803   5.027   3.179
 2342TIP3    H1 6990   4.745   4.986   3.243
 2342TIP3    H2 6991   4.763   5.113   3.162
 2343TIP3   OH2 6992   4.508   4.818   3.043
 2343TIP3    H1 6993   4.550   4.732   3.051
 2343TIP3    H2 6994   4.431   4.812   3.099
 2344TIP3   OH2 6995   4.031   1.819   2.753
 2344TIP3    H1 6996   4.023   1.910   2.780
 2344TIP3    H2 6997   3.949   1.800   2.707
 2345TIP3   OH2 6998   0.527   0.869   5.250
 2345TIP3    H1 6999   0.476   0.879   5.169
 2345TIP3    H2 7000   0.488   0.932   5.310
 2346TIP3   OH2 7001   4.621   4.535   4.397
 2346TIP3    H1 7002   4.552   4.527   4.463
 2346TIP3    H2 7003   4.681   4.601   4.433
 2347TIP3   OH2 7004   1.629   1.872   4.957
 2347TIP3    H1 7005   1.702   1.871   5.019
 2347TIP3    H2 7006   1.666   1.844   4.874
 2348TIP3   OH2 7007   0.701   2.066   5.591
 2348TIP3    H1 7008   0.754   2.004   5.542
 2348TIP3    H2 7009   0.763   2.133   5.620
 2349TIP3   OH2 7010   0.534   2.817   1.251
 2349TIP3    H1 7011   0.458   2.788   1.301
 2349TIP3    H2 7012   0.499   2.881   1.189
 2350TIP3   OH2 7013   1.299   4.637   0.815
 2350TIP3    H1 7014   1.254   4.689   0.749
 2350TIP3    H2 7015   1.246   4.649   0.894
 2351TIP3   OH2 7016   3.312   5.056   4.519
 2351TIP3    H1 7017   3.302   4.970   4.479
 2351TIP3    H2 7018   3.338   5.113   4.447
 2352TIP3   OH2 7019   6.241   1.462   4.517
 2352TIP3    H1 7020   6.301   1.399   4.477
 2352TIP3    H2 7021   6.156   1.444   4.476
 2353TIP3   OH2 7022   4.002   5.213   3.620
 2353TIP3    H1 7023   4.007   5.131   3.668
 2353TIP3    H2 7024   3.913   5.214   3.583
 2354TIP3   OH2 7025   6.117   1.891   3.723
 2354TIP3    H1 7026   6.113   1.860   3.632
 2354TIP3    H2 7027   6.167   1.972   3.718
 2355TIP3   OH2 7028   6.418   2.508   1.339
 2355TIP3    H1 7029   6.393   2.420   1.367
 2355TIP3    H2 7030   6.514   2.506   1.339
 2356TIP3   OH2 7031   5.443   6.195   2.938
 2356TIP3    H1 7032   5.470   6.234   3.021
 2356TIP3    H2 7033   5.360   6.238   2.916
 2357TIP3   OH2 7034   3.534   4.965   1.917
 2357TIP3    H1 7035   3.461   4.945   1.976
 2357TIP3    H2 7036   3.564   5.051   1.945
 2358TIP3   OH2 7037   5.194   6.061   0.409
 2358TIP3    H1 7038   5.119   6.046   0.466
 2358TIP3    H2 7039   5.157   6.103   0.331
 2359TIP3   OH2 7040   6.284   2.499   4.371
 2359TIP3    H1 7041   6.196   2.510   4.408
 2359TIP3    H2 7042   6.342   2.500   4.448
 2360TIP3   OH2 7043   6.328   5.180   2.751
 2360TIP3    H1 7044   6.284   5.185   2.836
 2360TIP3    H2 7045   6.315   5.266   2.712
 2361TIP3   OH2 7046   6.688   3.495   4.343
 2361TIP3    H1 7047   6.654   3.575   4.384
 2361TIP3    H2 7048   6.757   3.466   4.402
 2362TIP3   OH2 7049   2.998   4.586   2.570
 2362TIP3    H1 7050   3.056   4.622   2.503
 2362TIP3    H2 7051   3.047   4.514   2.608
 2363TIP3   OH2 7052   3.513   3.639   4.808
 2363TIP3    H1 7053   3.591   3.619   4.755
 2363TIP3    H2 7054   3.441   3.639   4.745
 2364TIP3   OH2 7055   0.277   0.998   1.488
 2364TIP3    H1 7056   0.247   0.908   1.478
 2364TIP3    H2 7057   0.346   1.007   1.422
 2365TIP3   OH2 7058   3.080   6.321   4.777
 2365TIP3    H1 7059   3.129   6.244   4.806
 2365TIP3    H2 7060   3.023   6.288   4.708
 2366TIP3   OH2 7061   3.501   1.861   0.519
 2366TIP3    H1 7062   3.537   1.842   0.606
 2366TIP3    H2 7063   3.555   1.809   0.459
 2367TIP3   OH2 7064   5.795   0.381   2.542
 2367TIP3    H1 7065   5.852   0.433   2.599
 2367TIP3    H2 7066   5.789   0.296   2.586
 2368TIP3   OH2 7067   3.870   0.216   0.308
 2368TIP3    H1 7068   3.945   0.204   0.367
 2368TIP3    H2 7069   3.875   0.142   0.247
 2369TIP3   OH2 7070   4.754   2.562   4.851
 2369TIP3    H1 7071   4.693   2.634   4.837
 2369TIP3    H2 7072   4.806   2.558   4.771
 2370TIP3   OH2 7073   2.701   0.410   0.857
 2370TIP3    H1 7074   2.611   0.400   0.825
 2370TIP3    H2 7075   2.735   0.485   0.808
 2371TIP3   OH2 7076   0.564   0.747   1.964
 2371TIP3    H1 7077   0.485   0.771   1.915
 2371TIP3    H2 7078   0.532   0.721   2.050
 2372TIP3   OH2 7079   6.971   1.877   5.161
 2372TIP3    H1 7080   6.958   1.948   5.225
 2372TIP3    H2 7081   6.920   1.804   5.197
 2373TIP3   OH2 7082   2.515   1.760   5.707
 2373TIP3    H1 7083   2.501   1.715   5.623
 2373TIP3    H2 7084   2.554   1.844   5.682
 2374TIP3   OH2 7085   2.849   1.916   0.759
 2374TIP3    H1 7086   2.892   1.867   0.829
 2374TIP3    H2 7087   2.831   2.002   0.797
 2375TIP3   OH2 7088   2.360   2.254   3.538
 2375TIP3    H1 7089   2.411   2.252   3.619
 2375TIP3    H2 7090   2.303   2.330   3.547
 2376TIP3   OH2 7091   6.547   0.830   2.814
 2376TIP3    H1 7092   6.476   0.814   2.877
 2376TIP3    H2 7093   6.513   0.800   2.731
 2377TIP3   OH2 7094   0.240   3.219   0.082
 2377TIP3    H1 7095   0.288   3.275   0.021
 2377TIP3    H2 7096   0.260   3.257   0.168
 2378TIP3   OH2 7097   0.196   2.792   4.662
 2378TIP3    H1 7098   0.182   2.724   4.596
 2378TIP3    H2 7099   0.230   2.745   4.738
 2379TIP3   OH2 7100   0.192   5.775   5.061
 2379TIP3    H1 7101   0.219   5.839   5.127
 2379TIP3    H2 7102   0.256   5.785   4.990
 2380TIP3   OH2 7103   3.022   5.573   5.200
 2380TIP3    H1 7104   2.964   5.649   5.208
 2380TIP3    H2 7105   3.024   5.536   5.288
 2381TIP3   OH2 7106   3.124   4.107   5.692
 2381TIP3    H1 7107   3.141   4.090   5.599
 2381TIP3    H2 7108   3.199   4.160   5.720
 2382TIP3   OH2 7109   7.124   1.861   0.464
 2382TIP3    H1 7110   7.173   1.935   0.501
 2382TIP3    H2 7111   7.074   1.900   0.392
 2383TIP3   OH2 7112   6.884   1.215   5.745
 2383TIP3    H1 7113   6.846   1.215   5.833
 2383TIP3    H2 7114   6.963   1.161   5.753
 2384TIP3   OH2 7115   6.208   6.298   3.976
 2384TIP3    H1 7116   6.288   6.304   3.924
 2384TIP3    H2 7117   6.137   6.301   3.912
 2385TIP3   OH2 7118   5.004   6.136   1.195
 2385TIP3    H1 7119   4.917   6.124   1.231
 2385TIP3    H2 7120   5.056   6.066   1.234
 2386TIP3   OH2 7121   5.480   3.432   0.162
 2386TIP3    H1 7122   5.463   3.368   0.231
 2386TIP3    H2 7123   5.575   3.433   0.153
 2387TIP3   OH2 7124   3.254   2.889   4.656
 2387TIP3    H1 7125   3.302   2.811   4.629
 2387TIP3    H2 7126   3.246   2.942   4.577
 2388TIP3   OH2 7127   0.282   4.083   4.916
 2388TIP3    H1 7128   0.349   4.025   4.950
 2388TIP3    H2 7129   0.328   4.140   4.854
 2389TIP3   OH2 7130   2.463   5.153   4.014
 2389TIP3    H1 7131   2.421   5.239   4.014
 2389TIP3    H2 7132   2.548   5.168   4.055
 2390TIP3   OH2 7133   6.342   5.708   2.487
 2390TIP3    H1 7134   6.302   5.729   2.403
 2390TIP3    H2 7135   6.306   5.774   2.547
 2391TIP3   OH2 7136   5.342   0.019   5.338
 2391TIP3    H1 7137   5.292   0.100   5.348
 2391TIP3    H2 7138   5.389   0.009   5.421
 2392TIP3   OH2 7139   6.850   0.863   3.355
 2392TIP3    H1 7140   6.906   0.788   3.376
 2392TIP3    H2 7141   6.822   0.846   3.265
 2393TIP3   OH2 7142   2.869   0.514   0.650
 2393TIP3    H1 7143   2.889   0.533   0.559
 2393TIP3    H2 7144   2.853   0.420   0.652
 2394TIP3   OH2 7145   0.632   6.230   2.049
 2394TIP3    H1 7146   0.655   6.254   2.138
 2394TIP3    H2 7147   0.648   6.135   2.045
 2395TIP3   OH2 7148   0.944   1.263   0.519
 2395TIP3    H1 7149   0.923   1.170   0.527
 2395TIP3    H2 7150   1.005   1.269   0.446
 2396TIP3   OH2 7151   0.702   4.837   3.147
 2396TIP3    H1 7152   0.745   4.752   3.160
 2396TIP3    H2 7153   0.609   4.815   3.144
 2397TIP3   OH2 7154   2.752   6.288   1.433
 2397TIP3    H1 7155   2.823   6.225   1.444
 2397TIP3    H2 7156   2.776   6.338   1.355
 2398TIP3   OH2 7157   4.853   3.352   0.763
 2398TIP3    H1 7158   4.765   3.342   0.728
 2398TIP3    H2 7159   4.842   3.407   0.840
 2399TIP3   OH2 7160   1.679   3.777   1.714
 2399TIP3    H1 7161   1.770   3.788   1.687
 2399TIP3    H2 7162   1.676   3.809   1.804
 2400TIP3   OH2 7163   3.227   5.104   3.343
 2400TIP3    H1 7164   3.264   5.143   3.421
 2400TIP3    H2 7165   3.183   5.177   3.299
 2401TIP3   OH2 7166   5.707   5.193   4.453
 2401TIP3    H1 7167   5.668   5.182   4.366
 2401TIP3    H2 7168   5.729   5.104   4.480
 2402TIP3   OH2 7169   1.801   1.030   5.716
 2402TIP3    H1 7170   1.840   0.953   5.674
 2402TIP3    H2 7171   1.729   1.055   5.658
 2403TIP3   OH2 7172   3.217   4.905   0.796
 2403TIP3    H1 7173   3.216   4.985   0.849
 2403TIP3    H2 7174   3.197   4.835   0.858
 2404TIP3   OH2 7175   2.712   4.938   4.895
 2404TIP3    H1 7176   2.675   5.025   4.882
 2404TIP3    H2 7177   2.790   4.936   4.840
 2405TIP3   OH2 7178   3.872   4.478   2.427
 2405TIP3    H1 7179   3.953   4.486   2.477
 2405TIP3    H2 7180   3.847   4.387   2.436
 2406TIP3   OH2 7181   2.534   5.839   2.777
 2406TIP3    H1 7182   2.456   5.852   2.723
 2406TIP3    H2 7183   2.531   5.746   2.802
 2407TIP3   OH2 7184   0.673   5.393   3.408
 2407TIP3    H1 7185   0.654   5.468   3.351
 2407TIP3    H2 7186   0.609   5.327   3.384
 2408TIP3   OH2 7187   4.278   6.232   3.884
 2408TIP3    H1 7188   4.308   6.230   3.975
 2408TIP3    H2 7189   4.358   6.232   3.832
 2409TIP3   OH2 7190   0.866   6.365   5.594
 2409TIP3    H1 7191   0.778   6.374   5.556
 2409TIP3    H2 7192   0.860   6.288   5.650
 2410TIP3   OH2 7193   2.458   2.084   4.664
 2410TIP3    H1 7194   2.505   2.004   4.688
 2410TIP3    H2 7195   2.365   2.059   4.668
 2411TIP3   OH2 7196   4.248   0.854   5.596
 2411TIP3    H1 7197   4.197   0.831   5.519
 2411TIP3    H2 7198   4.333   0.810   5.582
 2412TIP3   OH2 7199   5.011   5.510   3.461
 2412TIP3    H1 7200   5.084   5.518   3.522
 2412TIP3    H2 7201   5.050   5.521   3.375
 2413TIP3   OH2 7202   2.808   3.840   1.957
 2413TIP3    H1 7203   2.734   3.788   1.988
 2413TIP3    H2 7204   2.771   3.896   1.888
 2414TIP3   OH2 7205   2.019   1.932   1.127
 2414TIP3    H1 7206   1.964   1.972   1.060
 2414TIP3    H2 7207   2.108   1.964   1.109
 2415TIP3   OH2 7208   0.260   1.999   2.938
 2415TIP3    H1 7209   0.260   2.056   2.861
 2415TIP3    H2 7210   0.350   2.000   2.968
 2416TIP3   OH2 7211   3.381   3.249   2.470
 2416TIP3    H1 7212   3.310   3.269   2.532
 2416TIP3    H2 7213   3.343   3.185   2.411
 2417TIP3   OH2 7214   4.652   5.382   1.600
 2417TIP3    H1 7215   4.727   5.323   1.599
 2417TIP3    H2 7216   4.684   5.463   1.561
 2418TIP3   OH2 7217   6.705   1.935   4.275
 2418TIP3    H1 7218   6.685   1.928   4.181
 2418TIP3    H2 7219   6.746   2.021   4.284
 2419TIP3   OH2 7220   4.956   4.113   1.039
 2419TIP3    H1 7221   5.004   4.131   0.958
 2419TIP3    H2 7222   5.021   4.074   1.097
 2420TIP3   OH2 7223   4.707   1.936   5.712
 2420TIP3    H1 7224   4.708   2.006   5.647
 2420TIP3    H2 7225   4.799   1.923   5.735
 2421TIP3   OH2 7226   2.897   5.413   4.327
 2421TIP3    H1 7227   2.983   5.418   4.284
 2421TIP3    H2 7228   2.844   5.479   4.283
 2422TIP3   OH2 7229   5.717   6.720   1.728
 2422TIP3    H1 7230   5.673   6.647   1.683
 2422TIP3    H2 7231   5.649   6.787   1.735
 2423TIP3   OH2 7232   1.824   2.085   0.941
 2423TIP3    H1 7233   1.843   2.083   0.847
 2423TIP3    H2 7234   1.791   1.998   0.961
 2424TIP3   OH2 7235   4.926   1.494   2.915
 2424TIP3    H1 7236   4.847   1.462   2.872
 2424TIP3    H2 7237   4.998   1.454   2.866
 2425TIP3   OH2 7238   2.948   2.964   0.175
 2425TIP3    H1 7239   2.922   3.050   0.208
 2425TIP3    H2 7240   2.951   2.975   0.080
 2426TIP3   OH2 7241   1.717   6.433   3.862
 2426TIP3    H1 7242   1.698   6.478   3.945
 2426TIP3    H2 7243   1.683   6.345   3.875
 2427TIP3   OH2 7244   0.312   5.185   0.659
 2427TIP3    H1 7245   0.319   5.106   0.605
 2427TIP3    H2 7246   0.386   5.179   0.719
 2428TIP3   OH2 7247   0.471   6.476   5.873
 2428TIP3    H1 7248   0.521   6.495   5.794
 2428TIP3    H2 7249   0.380   6.487   5.846
 2429TIP3   OH2 7250   6.137   4.374   0.753
 2429TIP3    H1 7251   6.225   4.354   0.787
 2429TIP3    H2 7252   6.120   4.464   0.781
 2430TIP3   OH2 7253   6.300   0.233   5.180
 2430TIP3    H1 7254   6.297   0.140   5.203
 2430TIP3    H2 7255   6.386   0.262   5.210
 2431TIP3   OH2 7256   5.942   6.093   3.401
 2431TIP3    H1 7257   5.967   6.042   3.479
 2431TIP3    H2 7258   5.955   6.184   3.427
 2432TIP3   OH2 7259   3.327   4.178   3.444
 2432TIP3    H1 7260   3.232   4.188   3.439
 2432TIP3    H2 7261   3.340   4.108   3.509
 2433TIP3   OH2 7262   0.731   6.733   0.591
 2433TIP3    H1 7263   0.756   6.640   0.597
 2433TIP3    H2 7264   0.642   6.736   0.627
 2434TIP3   OH2 7265   6.658   5.916   5.554
 2434TIP3    H1 7266   6.713   5.849   5.595
 2434TIP3    H2 7267   6.645   5.883   5.464
 2435TIP3   OH2 7268   0.613   6.192   4.945
 2435TIP3    H1 7269   0.643   6.276   4.981
 2435TIP3    H2 7270   0.685   6.132   4.962
 2436TIP3   OH2 7271   3.621   2.231   5.022
 2436TIP3    H1 7272   3.527   2.237   5.035
 2436TIP3    H2 7273   3.657   2.307   5.067
 2437TIP3   OH2 7274   2.899   2.595   5.333
 2437TIP3    H1 7275   2.935   2.591   5.422
 2437TIP3    H2 7276   2.822   2.539   5.336
 2438TIP3   OH2 7277   2.011   4.489   0.814
 2438TIP3    H1 7278   2.071   4.557   0.783
 2438TIP3    H2 7279   1.982   4.445   0.735
 2439TIP3   OH2 7280   7.129   2.639   0.028
 2439TIP3    H1 7281   7.210   2.668   0.070
 2439TIP3    H2 7282   7.074   2.717   0.026
 2440TIP3   OH2 7283   2.256   5.970   2.170
 2440TIP3    H1 7284   2.261   5.898   2.233
 2440TIP3    H2 7285   2.326   6.030   2.197
 2441TIP3   OH2 7286   3.857   2.929   5.718
 2441TIP3    H1 7287   3.824   2.948   5.806
 2441TIP3    H2 7288   3.934   2.985   5.709
 2442TIP3   OH2 7289   0.568   2.707   4.771
 2442TIP3    H1 7290   0.479   2.697   4.807
 2442TIP3    H2 7291   0.619   2.639   4.814
 2443TIP3   OH2 7292   5.900   5.262   3.202
 2443TIP3    H1 7293   5.991   5.293   3.195
 2443TIP3    H2 7294   5.866   5.306   3.280
 2444TIP3   OH2 7295   3.744   4.288   3.281
 2444TIP3    H1 7296   3.664   4.339   3.297
 2444TIP3    H2 7297   3.732   4.254   3.192
 2445TIP3   OH2 7298   6.675   4.303   5.844
 2445TIP3    H1 7299   6.601   4.340   5.796
 2445TIP3    H2 7300   6.701   4.227   5.793
 2446TIP3   OH2 7301   2.675   5.831   4.613
 2446TIP3    H1 7302   2.590   5.791   4.629
 2446TIP3    H2 7303   2.726   5.809   4.691
 2447TIP3   OH2 7304   4.621   4.573   5.588
 2447TIP3    H1 7305   4.590   4.499   5.537
 2447TIP3    H2 7306   4.692   4.611   5.537
 2448TIP3   OH2 7307   5.350   1.288   5.458
 2448TIP3    H1 7308   5.377   1.353   5.393
 2448TIP3    H2 7309   5.393   1.207   5.430
 2449TIP3   OH2 7310   2.744   2.831   3.540
 2449TIP3    H1 7311   2.676   2.781   3.496
 2449TIP3    H2 7312   2.699   2.878   3.610
 2450TIP3   OH2 7313   3.930   5.627   0.982
 2450TIP3    H1 7314   3.978   5.597   1.059
 2450TIP3    H2 7315   3.846   5.581   0.985
 2451TIP3   OH2 7316   4.177   4.558   3.197
 2451TIP3    H1 7317   4.186   4.571   3.103
 2451TIP3    H2 7318   4.170   4.463   3.208
 2452TIP3   OH2 7319   5.471   6.395   2.443
 2452TIP3    H1 7320   5.407   6.326   2.424
 2452TIP3    H2 7321   5.528   6.358   2.510
 2453TIP3   OH2 7322   0.776   0.428   0.267
 2453TIP3    H1 7323   0.780   0.518   0.237
 2453TIP3    H2 7324   0.770   0.435   0.362
 2454TIP3   OH2 7325   1.658   2.183   5.431
 2454TIP3    H1 7326   1.751   2.191   5.451
 2454TIP3    H2 7327   1.654   2.153   5.341
 2455TIP3   OH2 7328   2.743   2.135   1.328
 2455TIP3    H1 7329   2.712   2.112   1.416
 2455TIP3    H2 7330   2.723   2.229   1.319
 2456TIP3   OH2 7331   2.554   4.828   3.024
 2456TIP3    H1 7332   2.538   4.820   3.118
 2456TIP3    H2 7333   2.629   4.887   3.017
 2457TIP3   OH2 7334   0.183   4.893   4.914
 2457TIP3    H1 7335   0.121   4.965   4.908
 2457TIP3    H2 7336   0.204   4.871   4.823
 2458TIP3   OH2 7337   2.785   3.550   2.118
 2458TIP3    H1 7338   2.772   3.537   2.024
 2458TIP3    H2 7339   2.848   3.482   2.143
 2459TIP3   OH2 7340   0.249   0.234   1.950
 2459TIP3    H1 7341   0.182   0.186   1.901
 2459TIP3    H2 7342   0.260   0.316   1.901
 2460TIP3   OH2 7343   3.096   1.588   0.215
 2460TIP3    H1 7344   3.027   1.648   0.242
 2460TIP3    H2 7345   3.049   1.506   0.197
 2461TIP3   OH2 7346   5.394   2.596   5.195
 2461TIP3    H1 7347   5.401   2.686   5.162
 2461TIP3    H2 7348   5.411   2.541   5.119
 2462TIP3   OH2 7349   2.704   6.836   1.108
 2462TIP3    H1 7350   2.759   6.875   1.040
 2462TIP3    H2 7351   2.755   6.761   1.140
 2463TIP3   OH2 7352   0.574   4.461   0.293
 2463TIP3    H1 7353   0.665   4.448   0.320
 2463TIP3    H2 7354   0.525   4.465   0.375
 2464TIP3   OH2 7355   4.827   6.069   1.399
 2464TIP3    H1 7356   4.743   6.100   1.435
 2464TIP3    H2 7357   4.882   6.056   1.477
 2465TIP3   OH2 7358   1.077   3.528   4.931
 2465TIP3    H1 7359   1.163   3.537   4.890
 2465TIP3    H2 7360   1.019   3.499   4.860
 2466TIP3   OH2 7361   3.749   5.041   4.902
 2466TIP3    H1 7362   3.742   4.954   4.863
 2466TIP3    H2 7363   3.658   5.066   4.921
 2467TIP3   OH2 7364   5.719   4.302   0.024
 2467TIP3    H1 7365   5.778   4.375   0.008
 2467TIP3    H2 7366   5.637   4.327  -0.019
 2468TIP3   OH2 7367   1.983   3.830   5.841
 2468TIP3    H1 7368   1.927   3.890   5.890
 2468TIP3    H2 7369   2.038   3.789   5.909
 2469TIP3   OH2 7370   1.360   6.671   0.413
 2469TIP3    H1 7371   1.304   6.678   0.336
 2469TIP3    H2 7372   1.305   6.699   0.486
 2470TIP3   OH2 7373   3.356   5.409   3.283
 2470TIP3    H1 7374   3.366   5.349   3.209
 2470TIP3    H2 7375   3.279   5.376   3.330
 2471TIP3   OH2 7376   4.426   2.209   2.092
 2471TIP3    H1 7377   4.499   2.253   2.137
 2471TIP3    H2 7378   4.468   2.154   2.026
 2472TIP3   OH2 7379   4.895   2.423   3.150
 2472TIP3    H1 7380   4.927   2.333   3.144
 2472TIP3    H2 7381   4.890   2.440   3.244
 2473TIP3   OH2 7382   4.553   4.846   5.559
 2473TIP3    H1 7383   4.625   4.882   5.506
 2473TIP3    H2 7384   4.568   4.751   5.557
 2474TIP3   OH2 7385   5.264   3.375   1.898
 2474TIP3    H1 7386   5.281   3.408   1.810
 2474TIP3    H2 7387   5.249   3.454   1.950
 2475TIP3   OH2 7388   2.187   4.770   1.704
 2475TIP3    H1 7389   2.098   4.761   1.739
 2475TIP3    H2 7390   2.213   4.680   1.684
 2476TIP3   OH2 7391   3.922   3.821   3.458
 2476TIP3    H1 7392   3.911   3.901   3.408
 2476TIP3    H2 7393   3.977   3.846   3.533
 2477TIP3   OH2 7394   1.871   2.754   0.614
 2477TIP3    H1 7395   1.780   2.770   0.639
 2477TIP3    H2 7396   1.875   2.780   0.522
 2478TIP3   OH2 7397   0.516   2.202   4.488
 2478TIP3    H1 7398   0.600   2.158   4.505
 2478TIP3    H2 7399   0.539   2.294   4.479
 2479TIP3   OH2 7400   0.754   1.968   0.918
 2479TIP3    H1 7401   0.679   2.026   0.906
 2479TIP3    H2 7402   0.719   1.894   0.967
 2480TIP3   OH2 7403   5.030   4.693   2.679
 2480TIP3    H1 7404   5.103   4.748   2.651
 2480TIP3    H2 7405   5.063   4.648   2.758
 2481TIP3   OH2 7406   3.986   3.923   1.992
 2481TIP3    H1 7407   3.975   3.830   2.013
 2481TIP3    H2 7408   3.950   3.970   2.067
 2482TIP3   OH2 7409   1.294   0.524   3.803
 2482TIP3    H1 7410   1.266   0.464   3.734
 2482TIP3    H2 7411   1.297   0.471   3.882
 2483TIP3   OH2 7412   2.349   5.576   3.259
 2483TIP3    H1 7413   2.298   5.526   3.323
 2483TIP3    H2 7414   2.381   5.510   3.198
 2484TIP3   OH2 7415   3.753   2.406   3.479
 2484TIP3    H1 7416   3.820   2.378   3.540
 2484TIP3    H2 7417   3.677   2.351   3.499
 2485TIP3   OH2 7418   0.745   1.590   4.359
 2485TIP3    H1 7419   0.662   1.632   4.377
 2485TIP3    H2 7420   0.810   1.643   4.406
 2486TIP3   OH2 7421   2.170   1.774   0.763
 2486TIP3    H1 7422   2.186   1.826   0.684
 2486TIP3    H2 7423   2.118   1.700   0.733
 2487TIP3   OH2 7424   4.278   1.439   4.643
 2487TIP3    H1 7425   4.327   1.391   4.710
 2487TIP3    H2 7426   4.188   1.438   4.675
 2488TIP3   OH2 7427   6.011   6.313   1.776
 2488TIP3    H1 7428   6.084   6.339   1.720
 2488TIP3    H2 7429   5.951   6.266   1.717
 2489TIP3   OH2 7430   1.064   6.323   3.894
 2489TIP3    H1 7431   0.997   6.317   3.961
 2489TIP3    H2 7432   1.092   6.232   3.880
 2490TIP3   OH2 7433   5.207   1.603   0.800
 2490TIP3    H1 7434   5.255   1.642   0.727
 2490TIP3    H2 7435   5.276   1.569   0.858
 2491TIP3   OH2 7436   4.267   5.797   1.624
 2491TIP3    H1 7437   4.211   5.851   1.680
 2491TIP3    H2 7438   4.289   5.721   1.678
 2492TIP3   OH2 7439   3.011   2.718   4.566
 2492TIP3    H1 7440   3.047   2.682   4.485
 2492TIP3    H2 7441   2.955   2.790   4.538
 2493TIP3   OH2 7442   1.973   6.223   5.400
 2493TIP3    H1 7443   2.032   6.277   5.349
 2493TIP3    H2 7444   2.026   6.194   5.475
 2494TIP3   OH2 7445   6.815   1.810   5.698
 2494TIP3    H1 7446   6.720   1.814   5.708
 2494TIP3    H2 7447   6.834   1.719   5.675
 2495TIP3   OH2 7448   6.033   2.328   5.191
 2495TIP3    H1 7449   6.095   2.378   5.243
 2495TIP3    H2 7450   6.080   2.246   5.171
 2496TIP3   OH2 7451   5.146   3.516   4.380
 2496TIP3    H1 7452   5.177   3.447   4.321
 2496TIP3    H2 7453   5.164   3.598   4.334
 2497TIP3   OH2 7454   6.361   1.699   3.452
 2497TIP3    H1 7455   6.269   1.706   3.426
 2497TIP3    H2 7456   6.409   1.742   3.380
 2498TIP3   OH2 7457   3.644   6.596   5.192
 2498TIP3    H1 7458   3.587   6.585   5.268
 2498TIP3    H2 7459   3.587   6.633   5.124
 2499TIP3   OH2 7460   3.416   6.107   0.968
 2499TIP3    H1 7461   3.380   6.122   0.881
 2499TIP3    H2 7462   3.504   6.147   0.964
 2500TIP3   OH2 7463   4.766   3.292   3.360
 2500TIP3    H1 7464   4.686   3.294   3.307
 2500TIP3    H2 7465   4.828   3.347   3.313
 2501TIP3   OH2 7466   3.251   3.537   3.833
 2501TIP3    H1 7467   3.189   3.507   3.767
 2501TIP3    H2 7468   3.276   3.458   3.881
 2502TIP3   OH2 7469   2.514   4.772   5.514
 2502TIP3    H1 7470   2.594   4.754   5.464
 2502TIP3    H2 7471   2.458   4.697   5.498
 2503TIP3   OH2 7472   6.551   0.990   5.585
 2503TIP3    H1 7473   6.564   0.962   5.675
 2503TIP3    H2 7474   6.462   0.962   5.563
 2504TIP3   OH2 7475   2.511   5.949   5.609
 2504TIP3    H1 7476   2.590   5.916   5.651
 2504TIP3    H2 7477   2.449   5.876   5.612
 2505TIP3   OH2 7478   5.874   4.328   0.835
 2505TIP3    H1 7479   5.866   4.244   0.789
 2505TIP3    H2 7480   5.967   4.350   0.829
 2506TIP3   OH2 7481   0.715   0.093   1.760
 2506TIP3    H1 7482   0.635   0.102   1.812
 2506TIP3    H2 7483   0.686   0.100   1.669
 2507TIP3   OH2 7484   0.280   4.410   5.562
 2507TIP3    H1 7485   0.275   4.505   5.572
 2507TIP3    H2 7486   0.283   4.377   5.651
 2508TIP3   OH2 7487   4.456   5.710   0.248
 2508TIP3    H1 7488   4.361   5.719   0.261
 2508TIP3    H2 7489   4.485   5.654   0.320
 2509TIP3   OH2 7490   6.229   0.375   5.431
 2509TIP3    H1 7491   6.230   0.301   5.491
 2509TIP3    H2 7492   6.255   0.338   5.347
 2510TIP3   OH2 7493   0.280   3.967   4.320
 2510TIP3    H1 7494   0.358   4.022   4.312
 2510TIP3    H2 7495   0.304   3.884   4.277
 2511TIP3   OH2 7496   3.376   3.740   2.224
 2511TIP3    H1 7497   3.341   3.659   2.260
 2511TIP3    H2 7498   3.423   3.781   2.297
 2512TIP3   OH2 7499   2.141   0.129   5.028
 2512TIP3    H1 7500   2.128   0.057   4.966
 2512TIP3    H2 7501   2.059   0.132   5.077
 2513TIP3   OH2 7502   6.692   2.769   3.055
 2513TIP3    H1 7503   6.637   2.692   3.065
 2513TIP3    H2 7504   6.781   2.734   3.046
 2514TIP3   OH2 7505   7.154   3.360   5.490
 2514TIP3    H1 7506   7.167   3.407   5.407
 2514TIP3    H2 7507   7.063   3.375   5.513
 2515TIP3   OH2 7508   0.924   0.986   2.063
 2515TIP3    H1 7509   1.008   1.020   2.033
 2515TIP3    H2 7510   0.860   1.050   2.031
 2516TIP3   OH2 7511   2.777   3.723   0.863
 2516TIP3    H1 7512   2.704   3.764   0.815
 2516TIP3    H2 7513   2.740   3.642   0.898
 2517TIP3   OH2 7514   0.285   6.381   1.824
 2517TIP3    H1 7515   0.305   6.325   1.899
 2517TIP3    H2 7516   0.191   6.369   1.809
 2518TIP3   OH2 7517   4.084   3.727   0.189
 2518TIP3    H1 7518   4.050   3.793   0.249
 2518TIP3    H2 7519   4.156   3.772   0.143
 2519TIP3   OH2 7520   5.059   3.253   5.321
 2519TIP3    H1 7521   5.111   3.245   5.241
 2519TIP3    H2 7522   4.996   3.180   5.316
 2520TIP3   OH2 7523   3.113   6.687   1.554
 2520TIP3    H1 7524   3.067   6.674   1.471
 2520TIP3    H2 7525   3.139   6.598   1.580
 2521TIP3   OH2 7526   0.438   4.559   3.269
 2521TIP3    H1 7527   0.396   4.617   3.332
 2521TIP3    H2 7528   0.406   4.471   3.292
 2522TIP3   OH2 7529   6.400   5.309   3.079
 2522TIP3    H1 7530   6.443   5.234   3.119
 2522TIP3    H2 7531   6.453   5.328   3.001
 2523TIP3   OH2 7532   6.078   6.228   3.694
 2523TIP3    H1 7533   6.053   6.254   3.606
 2523TIP3    H2 7534   6.172   6.211   3.689
 2524TIP3   OH2 7535   1.891   0.365   5.594
 2524TIP3    H1 7536   1.829   0.435   5.572
 2524TIP3    H2 7537   1.943   0.354   5.514
 2525TIP3   OH2 7538   2.867   3.460   1.839
 2525TIP3    H1 7539   2.843   3.368   1.832
 2525TIP3    H2 7540   2.812   3.505   1.775
 2526TIP3   OH2 7541   6.608   0.649   3.339
 2526TIP3    H1 7542   6.672   0.698   3.391
 2526TIP3    H2 7543   6.526   0.658   3.386
 2527TIP3   OH2 7544   1.932   4.489   3.804
 2527TIP3    H1 7545   1.931   4.403   3.762
 2527TIP3    H2 7546   1.888   4.476   3.888
 2528TIP3   OH2 7547   4.970   1.891   5.727
 2528TIP3    H1 7548   5.061   1.913   5.746
 2528TIP3    H2 7549   4.970   1.867   5.634
 2529TIP3   OH2 7550   5.704   0.459   4.124
 2529TIP3    H1 7551   5.696   0.384   4.183
 2529TIP3    H2 7552   5.626   0.454   4.068
 2530TIP3   OH2 7553   1.674   2.935   2.876
 2530TIP3    H1 7554   1.743   3.000   2.862
 2530TIP3    H2 7555   1.632   2.962   2.958
 2531TIP3   OH2 7556   4.443   2.284   2.565
 2531TIP3    H1 7557   4.371   2.331   2.607
 2531TIP3    H2 7558   4.405   2.245   2.487
 2532TIP3   OH2 7559   6.904   1.655   0.666
 2532TIP3    H1 7560   6.833   1.630   0.725
 2532TIP3    H2 7561   6.860   1.698   0.593
 2533TIP3   OH2 7562   1.123   2.649   4.643
 2533TIP3    H1 7563   1.197   2.674   4.697
 2533TIP3    H2 7564   1.093   2.566   4.679
 2534TIP3   OH2 7565   3.481   4.524   3.620
 2534TIP3    H1 7566   3.427   4.565   3.688
 2534TIP3    H2 7567   3.566   4.509   3.661
 2535TIP3   OH2 7568   2.678   6.141   4.069
 2535TIP3    H1 7569   2.740   6.072   4.091
 2535TIP3    H2 7570   2.631   6.108   3.993
 2536TIP3   OH2 7571   0.106   2.681   2.483
 2536TIP3    H1 7572   0.100   2.755   2.542
 2536TIP3    H2 7573   0.024   2.634   2.494
 2537TIP3   OH2 7574   6.480   4.994   4.748
 2537TIP3    H1 7575   6.552   4.944   4.788
 2537TIP3    H2 7576   6.406   4.979   4.806
 2538TIP3   OH2 7577   6.089   4.892   0.359
 2538TIP3    H1 7578   6.080   4.946   0.437
 2538TIP3    H2 7579   6.167   4.925   0.316
 2539TIP3   OH2 7580   2.484   2.859   3.659
 2539TIP3    H1 7581   2.500   2.915   3.734
 2539TIP3    H2 7582   2.508   2.771   3.688
 2540TIP3   OH2 7583   6.923   1.069   2.005
 2540TIP3    H1 7584   7.007   1.096   1.970
 2540TIP3    H2 7585   6.884   1.015   1.936
 2541TIP3   OH2 7586   3.414   2.030   2.646
 2541TIP3    H1 7587   3.478   1.968   2.680
 2541TIP3    H2 7588   3.334   1.978   2.635
 2542TIP3   OH2 7589   3.793   4.661   0.152
 2542TIP3    H1 7590   3.862   4.677   0.217
 2542TIP3    H2 7591   3.716   4.639   0.204
 2543TIP3   OH2 7592   4.829   6.656   3.983
 2543TIP3    H1 7593   4.795   6.657   4.072
 2543TIP3    H2 7594   4.924   6.648   3.994
 2544TIP3   OH2 7595   2.600   3.126   3.393
 2544TIP3    H1 7596   2.678   3.111   3.339
 2544TIP3    H2 7597   2.630   3.111   3.483
 2545TIP3   OH2 7598   5.260   6.333   5.769
 2545TIP3    H1 7599   5.180   6.385   5.768
 2545TIP3    H2 7600   5.265   6.294   5.682
 2546TIP3   OH2 7601   5.610   1.637   0.604
 2546TIP3    H1 7602   5.629   1.653   0.511
 2546TIP3    H2 7603   5.526   1.680   0.619
 2547TIP3   OH2 7604   0.088   6.599   3.533
 2547TIP3    H1 7605   0.112   6.540   3.463
 2547TIP3    H2 7606   0.019   6.553   3.582
 2548TIP3   OH2 7607   6.976   4.858   4.013
 2548TIP3    H1 7608   7.052   4.897   3.968
 2548TIP3    H2 7609   6.997   4.866   4.106
 2549TIP3   OH2 7610   1.150   3.113   2.264
 2549TIP3    H1 7611   1.239   3.080   2.251
 2549TIP3    H2 7612   1.154   3.205   2.240
 2550TIP3   OH2 7613   6.599   5.013   3.435
 2550TIP3    H1 7614   6.642   5.005   3.520
 2550TIP3    H2 7615   6.523   5.069   3.451
 2551TIP3   OH2 7616   2.161   0.708   2.987
 2551TIP3    H1 7617   2.204   0.669   2.911
 2551TIP3    H2 7618   2.110   0.637   3.025
 2552TIP3   OH2 7619   5.667   3.203   0.293
 2552TIP3    H1 7620   5.647   3.250   0.373
 2552TIP3    H2 7621   5.606   3.129   0.292
 2553TIP3   OH2 7622   4.689   5.359   4.905
 2553TIP3    H1 7623   4.679   5.389   4.995
 2553TIP3    H2 7624   4.723   5.435   4.858
 2554TIP3   OH2 7625   4.346   0.962   3.497
 2554TIP3    H1 7626   4.408   0.970   3.568
 2554TIP3    H2 7627   4.328   0.868   3.492
 2555TIP3   OH2 7628   6.384   2.068   0.439
 2555TIP3    H1 7629   6.432   2.143   0.472
 2555TIP3    H2 7630   6.429   2.043   0.359
 2556TIP3   OH2 7631   0.140   0.067   5.661
 2556TIP3    H1 7632   0.162   0.160   5.666
 2556TIP3    H2 7633   0.101   0.056   5.574
 2557TIP3   OH2 7634   0.110   0.444   4.495
 2557TIP3    H1 7635   0.061   0.524   4.474
 2557TIP3    H2 7636   0.124   0.401   4.410
 2558TIP3   OH2 7637   6.388   0.501   1.406
 2558TIP3    H1 7638   6.475   0.502   1.367
 2558TIP3    H2 7639   6.388   0.576   1.466
 2559TIP3   OH2 7640   2.553   1.410   3.857
 2559TIP3    H1 7641   2.631   1.361   3.831
 2559TIP3    H2 7642   2.489   1.391   3.788
 2560TIP3   OH2 7643   0.568   5.900   2.254
 2560TIP3    H1 7644   0.568   5.810   2.287
 2560TIP3    H2 7645   0.560   5.954   2.332
 2561TIP3   OH2 7646   6.251   0.591   1.142
 2561TIP3    H1 7647   6.195   0.578   1.219
 2561TIP3    H2 7648   6.217   0.529   1.077
 2562TIP3   OH2 7649   2.121   3.728   1.879
 2562TIP3    H1 7650   2.130   3.712   1.973
 2562TIP3    H2 7651   2.136   3.821   1.869
 2563TIP3   OH2 7652   3.084   6.317   5.075
 2563TIP3    H1 7653   3.055   6.301   4.986
 2563TIP3    H2 7654   3.013   6.366   5.116
 2564TIP3   OH2 7655   4.415   4.579   4.177
 2564TIP3    H1 7656   4.481   4.565   4.109
 2564TIP3    H2 7657   4.423   4.503   4.234
 2565TIP3   OH2 7658   5.303   5.687   0.141
 2565TIP3    H1 7659   5.341   5.708   0.226
 2565TIP3    H2 7660   5.342   5.752   0.081
 2566TIP3   OH2 7661   2.848   1.107   0.410
 2566TIP3    H1 7662   2.818   1.138   0.325
 2566TIP3    H2 7663   2.924   1.162   0.431
 2567TIP3   OH2 7664   6.463   0.909   4.912
 2567TIP3    H1 7665   6.373   0.878   4.905
 2567TIP3    H2 7666   6.515   0.831   4.935
 2568TIP3   OH2 7667   3.194   6.298   3.354
 2568TIP3    H1 7668   3.213   6.206   3.339
 2568TIP3    H2 7669   3.134   6.322   3.283
 2569TIP3   OH2 7670   4.790   1.374   2.634
 2569TIP3    H1 7671   4.772   1.444   2.572
 2569TIP3    H2 7672   4.883   1.383   2.655
 2570TIP3   OH2 7673   0.572   2.704   4.288
 2570TIP3    H1 7674   0.534   2.617   4.271
 2570TIP3    H2 7675   0.497   2.763   4.286
 2571TIP3   OH2 7676   2.378   1.556   2.625
 2571TIP3    H1 7677   2.286   1.563   2.599
 2571TIP3    H2 7678   2.375   1.517   2.712
 2572TIP3   OH2 7679   1.678   3.371   1.316
 2572TIP3    H1 7680   1.627   3.321   1.252
 2572TIP3    H2 7681   1.647   3.340   1.401
 2573TIP3   OH2 7682   5.784   0.534   4.685
 2573TIP3    H1 7683   5.724   0.588   4.634
 2573TIP3    H2 7684   5.866   0.535   4.636
 2574TIP3   OH2 7685   6.303   2.748   1.494
 2574TIP3    H1 7686   6.396   2.758   1.513
 2574TIP3    H2 7687   6.260   2.766   1.578
 2575TIP3   OH2 7688   2.967   4.407   4.656
 2575TIP3    H1 7689   2.986   4.370   4.570
 2575TIP3    H2 7690   2.879   4.375   4.677
 2576TIP3   OH2 7691   6.276   3.858   0.374
 2576TIP3    H1 7692   6.268   3.934   0.432
 2576TIP3    H2 7693   6.286   3.784   0.434
 2577TIP3   OH2 7694   4.546   3.160   3.854
 2577TIP3    H1 7695   4.496   3.157   3.773
 2577TIP3    H2 7696   4.480   3.156   3.923
 2578TIP3   OH2 7697   3.408   6.155   4.638
 2578TIP3    H1 7698   3.438   6.065   4.626
 2578TIP3    H2 7699   3.325   6.159   4.591
 2579TIP3   OH2 7700   6.470   2.957   3.209
 2579TIP3    H1 7701   6.538   2.929   3.147
 2579TIP3    H2 7702   6.403   2.889   3.203
 2580TIP3   OH2 7703   1.388   0.148   2.989
 2580TIP3    H1 7704   1.351   0.083   3.048
 2580TIP3    H2 7705   1.443   0.097   2.929
 2581TIP3   OH2 7706   1.928   1.832   5.470
 2581TIP3    H1 7707   1.942   1.782   5.551
 2581TIP3    H2 7708   1.970   1.916   5.487
 2582TIP3   OH2 7709   5.687   5.808   5.219
 2582TIP3    H1 7710   5.686   5.753   5.298
 2582TIP3    H2 7711   5.645   5.753   5.152
 2583TIP3   OH2 7712   2.734   5.434   2.076
 2583TIP3    H1 7713   2.678   5.451   2.000
 2583TIP3    H2 7714   2.724   5.512   2.131
 2584TIP3   OH2 7715   5.383   1.000   3.316
 2584TIP3    H1 7716   5.449   1.011   3.384
 2584TIP3    H2 7717   5.300   1.001   3.363
 2585TIP3   OH2 7718   0.019   2.762   2.779
 2585TIP3    H1 7719  -0.062   2.712   2.784
 2585TIP3    H2 7720   0.079   2.716   2.839
 2586TIP3   OH2 7721   0.585   2.775   0.581
 2586TIP3    H1 7722   0.661   2.821   0.615
 2586TIP3    H2 7723   0.607   2.755   0.490
 2587TIP3   OH2 7724   1.951   3.107   4.482
 2587TIP3    H1 7725   2.034   3.153   4.488
 2587TIP3    H2 7726   1.890   3.171   4.444
 2588TIP3   OH2 7727   1.321   2.580   0.038
 2588TIP3    H1 7728   1.375   2.580   0.117
 2588TIP3    H2 7729   1.383   2.570  -0.034
 2589TIP3   OH2 7730   1.242   5.038   0.796
 2589TIP3    H1 7731   1.161   5.084   0.817
 2589TIP3    H2 7732   1.311   5.092   0.834
 2590TIP3   OH2 7733   3.312   1.996   1.488
 2590TIP3    H1 7734   3.297   1.907   1.522
 2590TIP3    H2 7735   3.399   2.019   1.520
 2591TIP3   OH2 7736   1.635   2.673   3.147
 2591TIP3    H1 7737   1.569   2.729   3.107
 2591TIP3    H2 7738   1.708   2.732   3.167
 2592TIP3   OH2 7739   5.369   5.431   2.228
 2592TIP3    H1 7740   5.372   5.522   2.257
 2592TIP3    H2 7741   5.354   5.380   2.307
 2593TIP3   OH2 7742   0.023   1.682   3.484
 2593TIP3    H1 7743   0.070   1.760   3.458
 2593TIP3    H2 7744  -0.061   1.687   3.440
 2594TIP3   OH2 7745   7.091   5.437   0.570
 2594TIP3    H1 7746   7.146   5.366   0.601
 2594TIP3    H2 7747   7.146   5.516   0.578
 2595TIP3   OH2 7748   2.146   5.147   5.220
 2595TIP3    H1 7749   2.173   5.116   5.306
 2595TIP3    H2 7750   2.229   5.165   5.174
 2596TIP3   OH2 7751   2.726   3.004   5.803
 2596TIP3    H1 7752   2.762   3.091   5.788
 2596TIP3    H2 7753   2.802   2.946   5.804
 2597TIP3   OH2 7754   6.447   0.749   1.225
 2597TIP3    H1 7755   6.377   0.686   1.208
 2597TIP3    H2 7756   6.435   0.775   1.316
 2598TIP3   OH2 7757   2.271   5.373   4.023
 2598TIP3    H1 7758   2.276   5.468   4.018
 2598TIP3    H2 7759   2.214   5.348   3.950
 2599TIP3   OH2 7760   3.935   1.528   1.136
 2599TIP3    H1 7761   3.850   1.487   1.126
 2599TIP3    H2 7762   3.918   1.607   1.188
 2600TIP3   OH2 7763   5.426   2.909   1.923
 2600TIP3    H1 7764   5.435   3.003   1.940
 2600TIP3    H2 7765   5.332   2.894   1.916
 2601TIP3   OH2 7766   5.551   4.446   4.694
 2601TIP3    H1 7767   5.554   4.408   4.782
 2601TIP3    H2 7768   5.585   4.535   4.705
 2602TIP3   OH2 7769   1.685   3.391   3.582
 2602TIP3    H1 7770   1.674   3.417   3.673
 2602TIP3    H2 7771   1.598   3.361   3.555
 2603TIP3   OH2 7772   2.818   4.639   2.380
 2603TIP3    H1 7773   2.762   4.562   2.371
 2603TIP3    H2 7774   2.869   4.623   2.459
 2604TIP3   OH2 7775   4.963   5.068   1.059
 2604TIP3    H1 7776   4.868   5.054   1.057
 2604TIP3    H2 7777   4.979   5.131   0.988
 2605TIP3   OH2 7778   6.211   0.322   3.498
 2605TIP3    H1 7779   6.230   0.367   3.415
 2605TIP3    H2 7780   6.185   0.393   3.557
 2606TIP3   OH2 7781   2.343   2.856   0.843
 2606TIP3    H1 7782   2.326   2.891   0.930
 2606TIP3    H2 7783   2.256   2.844   0.805
 2607TIP3   OH2 7784   1.898   4.305   5.069
 2607TIP3    H1 7785   1.900   4.263   5.154
 2607TIP3    H2 7786   1.813   4.282   5.032
 2608TIP3   OH2 7787   6.034   5.665   5.699
 2608TIP3    H1 7788   6.003   5.589   5.749
 2608TIP3    H2 7789   5.996   5.654   5.612
 2609TIP3   OH2 7790   0.491   6.339   1.476
 2609TIP3    H1 7791   0.519   6.282   1.548
 2609TIP3    H2 7792   0.416   6.387   1.512
 2610TIP3   OH2 7793   3.010   1.488   3.213
 2610TIP3    H1 7794   3.083   1.432   3.237
 2610TIP3    H2 7795   2.978   1.524   3.297
 2611TIP3   OH2 7796   0.944   5.310   4.153
 2611TIP3    H1 7797   0.866   5.270   4.114
 2611TIP3    H2 7798   1.002   5.236   4.172
 2612TIP3   OH2 7799   4.584   3.568   3.514
 2612TIP3    H1 7800   4.532   3.590   3.590
 2612TIP3    H2 7801   4.542   3.489   3.478
 2613TIP3   OH2 7802   2.654   5.271   0.814
 2613TIP3    H1 7803   2.649   5.215   0.736
 2613TIP3    H2 7804   2.627   5.357   0.784
 2614TIP3   OH2 7805   1.436   5.854   5.420
 2614TIP3    H1 7806   1.471   5.933   5.381
 2614TIP3    H2 7807   1.362   5.829   5.365
 2615TIP3   OH2 7808   4.606   2.265   4.444
 2615TIP3    H1 7809   4.579   2.196   4.505
 2615TIP3    H2 7810   4.684   2.229   4.401
 2616TIP3   OH2 7811   2.188   4.733   2.592
 2616TIP3    H1 7812   2.250   4.782   2.646
 2616TIP3    H2 7813   2.152   4.667   2.651
 2617TIP3   OH2 7814   3.360   0.893   3.445
 2617TIP3    H1 7815   3.440   0.944   3.448
 2617TIP3    H2 7816   3.359   0.845   3.528
 2618TIP3   OH2 7817   4.771   4.065   5.826
 2618TIP3    H1 7818   4.862   4.087   5.843
 2618TIP3    H2 7819   4.729   4.150   5.809
 2619TIP3   OH2 7820   3.604   0.235   1.289
 2619TIP3    H1 7821   3.672   0.180   1.328
 2619TIP3    H2 7822   3.647   0.319   1.272
 2620TIP3   OH2 7823   6.140   0.078   0.984
 2620TIP3    H1 7824   6.138   0.155   1.042
 2620TIP3    H2 7825   6.055   0.080   0.939
 2621TIP3   OH2 7826   4.969   4.539   0.631
 2621TIP3    H1 7827   5.003   4.476   0.695
 2621TIP3    H2 7828   4.948   4.617   0.682
 2622TIP3   OH2 7829   4.565   2.085   4.643
 2622TIP3    H1 7830   4.609   2.001   4.655
 2622TIP3    H2 7831   4.625   2.150   4.681
 2623TIP3   OH2 7832   7.146   1.591   0.527
 2623TIP3    H1 7833   7.154   1.682   0.499
 2623TIP3    H2 7834   7.059   1.587   0.569
 2624TIP3   OH2 7835   4.810   4.812   0.050
 2624TIP3    H1 7836   4.802   4.907   0.049
 2624TIP3    H2 7837   4.721   4.780   0.041
 2625TIP3   OH2 7838   0.836   1.411   5.526
 2625TIP3    H1 7839   0.835   1.354   5.602
 2625TIP3    H2 7840   0.819   1.352   5.452
 2626TIP3   OH2 7841   5.777   2.609   2.670
 2626TIP3    H1 7842   5.703   2.555   2.695
 2626TIP3    H2 7843   5.791   2.589   2.577
 2627TIP3   OH2 7844   5.296   5.568   0.638
 2627TIP3    H1 7845   5.289   5.564   0.733
 2627TIP3    H2 7846   5.322   5.658   0.619
 2628TIP3   OH2 7847   0.930   6.014   1.315
 2628TIP3    H1 7848   0.970   6.073   1.250
 2628TIP3    H2 7849   0.868   6.070   1.362
 2629TIP3   OH2 7850   2.724   0.387   1.172
 2629TIP3    H1 7851   2.818   0.400   1.161
 2629TIP3    H2 7852   2.688   0.401   1.084
 2630TIP3   OH2 7853   6.964   3.764   0.413
 2630TIP3    H1 7854   7.018   3.755   0.492
 2630TIP3    H2 7855   6.909   3.840   0.429
 2631TIP3   OH2 7856   3.893   4.855   1.480
 2631TIP3    H1 7857   3.802   4.835   1.462
 2631TIP3    H2 7858   3.937   4.847   1.396
 2632TIP3   OH2 7859   1.665   3.245   5.153
 2632TIP3    H1 7860   1.627   3.278   5.234
 2632TIP3    H2 7861   1.750   3.289   5.146
 2633TIP3   OH2 7862   1.428   0.814   5.634
 2633TIP3    H1 7863   1.345   0.768   5.620
 2633TIP3    H2 7864   1.417   0.859   5.718
 2634TIP3   OH2 7865   2.722   2.774   0.226
 2634TIP3    H1 7866   2.816   2.792   0.220
 2634TIP3    H2 7867   2.693   2.821   0.304
 2635TIP3   OH2 7868   1.013   4.048   1.210
 2635TIP3    H1 7869   1.022   3.954   1.194
 2635TIP3    H2 7870   1.090   4.087   1.169
 2636TIP3   OH2 7871   5.516   0.069   4.910
 2636TIP3    H1 7872   5.433   0.081   4.956
 2636TIP3    H2 7873   5.551  -0.012   4.945
 2637TIP3   OH2 7874   2.203   5.785   5.806
 2637TIP3    H1 7875   2.247   5.854   5.855
 2637TIP3    H2 7876   2.117   5.821   5.786
 2638TIP3   OH2 7877   6.880   3.531   3.069
 2638TIP3    H1 7878   6.796   3.532   3.024
 2638TIP3    H2 7879   6.861   3.496   3.156
 2639TIP3   OH2 7880   1.664   2.858   2.503
 2639TIP3    H1 7881   1.654   2.790   2.569
 2639TIP3    H2 7882   1.717   2.817   2.434
 2640TIP3   OH2 7883   4.256   2.628   3.253
 2640TIP3    H1 7884   4.208   2.604   3.174
 2640TIP3    H2 7885   4.211   2.706   3.286
 2641TIP3   OH2 7886   3.189   0.986   4.131
 2641TIP3    H1 7887   3.238   1.003   4.051
 2641TIP3    H2 7888   3.126   1.059   4.137
 2642TIP3   OH2 7889   2.120   0.972   2.601
 2642TIP3    H1 7890   2.129   0.941   2.691
 2642TIP3    H2 7891   2.042   0.928   2.568
 2643TIP3   OH2 7892   5.518   1.387   5.248
 2643TIP3    H1 7893   5.478   1.466   5.285
 2643TIP3    H2 7894   5.579   1.357   5.315
 2644TIP3   OH2 7895   3.637   5.961   0.583
 2644TIP3    H1 7896   3.607   5.990   0.497
 2644TIP3    H2 7897   3.588   5.881   0.600
 2645TIP3   OH2 7898   0.256   5.351   1.922
 2645TIP3    H1 7899   0.263   5.338   1.827
 2645TIP3    H2 7900   0.335   5.398   1.946
 2646TIP3   OH2 7901   4.060   2.383   1.310
 2646TIP3    H1 7902   4.108   2.461   1.282
 2646TIP3    H2 7903   4.067   2.383   1.405
 2647TIP3   OH2 7904   4.712   5.306   0.940
 2647TIP3    H1 7905   4.794   5.355   0.944
 2647TIP3    H2 7906   4.730   5.224   0.986
 2648TIP3   OH2 7907   0.081   1.802   2.566
 2648TIP3    H1 7908   0.004   1.747   2.585
 2648TIP3    H2 7909   0.052   1.891   2.584
 2649TIP3   OH2 7910   6.211   2.332   3.887
 2649TIP3    H1 7911   6.275   2.345   3.957
 2649TIP3    H2 7912   6.128   2.319   3.932
 2650TIP3   OH2 7913   5.795   3.464   3.085
 2650TIP3    H1 7914   5.865   3.465   3.150
 2650TIP3    H2 7915   5.755   3.551   3.092
 2651TIP3   OH2 7916   0.340   6.408   5.578
 2651TIP3    H1 7917   0.274   6.472   5.605
 2651TIP3    H2 7918   0.358   6.429   5.486
 2652TIP3   OH2 7919   2.490   3.987   5.374
 2652TIP3    H1 7920   2.542   3.923   5.326
 2652TIP3    H2 7921   2.520   3.979   5.465
 2653TIP3   OH2 7922   6.408   6.763   0.569
 2653TIP3    H1 7923   6.332   6.752   0.511
 2653TIP3    H2 7924   6.373   6.745   0.657
 2654TIP3   OH2 7925   0.639   0.376   2.535
 2654TIP3    H1 7926   0.615   0.288   2.565
 2654TIP3    H2 7927   0.728   0.388   2.568
 2655TIP3   OH2 7928   6.287   1.468   5.332
 2655TIP3    H1 7929   6.368   1.518   5.324
 2655TIP3    H2 7930   6.218   1.531   5.310
 2656TIP3   OH2 7931   2.723   0.151   0.774
 2656TIP3    H1 7932   2.772   0.083   0.819
 2656TIP3    H2 7933   2.741   0.231   0.825
 2657TIP3   OH2 7934   4.353   6.611   4.362
 2657TIP3    H1 7935   4.299   6.670   4.416
 2657TIP3    H2 7936   4.311   6.612   4.276
 2658TIP3   OH2 7937   4.203   4.250   3.241
 2658TIP3    H1 7938   4.115   4.214   3.246
 2658TIP3    H2 7939   4.248   4.196   3.176
 2659TIP3   OH2 7940   3.371   1.305   4.185
 2659TIP3    H1 7941   3.422   1.381   4.212
 2659TIP3    H2 7942   3.315   1.339   4.115
 2660TIP3   OH2 7943   7.099   1.614   4.172
 2660TIP3    H1 7944   7.143   1.639   4.091
 2660TIP3    H2 7945   7.124   1.682   4.235
 2661TIP3   OH2 7946   3.514   3.926   1.430
 2661TIP3    H1 7947   3.430   3.890   1.458
 2661TIP3    H2 7948   3.568   3.849   1.413
 2662TIP3   OH2 7949   4.515   3.745   0.532
 2662TIP3    H1 7950   4.541   3.698   0.611
 2662TIP3    H2 7951   4.519   3.678   0.463
 2663TIP3   OH2 7952   6.698   5.520   3.164
 2663TIP3    H1 7953   6.699   5.485   3.253
 2663TIP3    H2 7954   6.703   5.443   3.107
 2664TIP3   OH2 7955   0.813   2.570   3.988
 2664TIP3    H1 7956   0.840   2.569   4.080
 2664TIP3    H2 7957   0.893   2.553   3.940
 2665TIP3   OH2 7958   5.388   2.090   4.995
 2665TIP3    H1 7959   5.456   2.157   4.992
 2665TIP3    H2 7960   5.430   2.015   5.038
 2666TIP3   OH2 7961   1.096   5.062   4.137
 2666TIP3    H1 7962   1.149   5.096   4.064
 2666TIP3    H2 7963   1.151   5.074   4.214
 2667TIP3   OH2 7964   0.102   1.408   0.102
 2667TIP3    H1 7965   0.066   1.419   0.190
 2667TIP3    H2 7966   0.034   1.360   0.054
 2668TIP3   OH2 7967   0.524   5.756   0.860
 2668TIP3    H1 7968   0.442   5.710   0.879
 2668TIP3    H2 7969   0.497   5.840   0.823
 2669TIP3   OH2 7970   4.773   0.407   5.077
 2669TIP3    H1 7971   4.722   0.407   5.157
 2669TIP3    H2 7972   4.858   0.443   5.102
 2670TIP3   OH2 7973   2.570   0.934   1.225
 2670TIP3    H1 7974   2.550   0.975   1.141
 2670TIP3    H2 7975   2.499   0.961   1.283
 2671TIP3   OH2 7976   1.499   3.371   5.327
 2671TIP3    H1 7977   1.533   3.324   5.403
 2671TIP3    H2 7978   1.471   3.456   5.362
 2672TIP3   OH2 7979   6.217   5.716   3.194
 2672TIP3    H1 7980   6.123   5.714   3.174
 2672TIP3    H2 7981   6.249   5.796   3.153
 2673TIP3   OH2 7982   3.498   1.752   2.557
 2673TIP3    H1 7983   3.426   1.764   2.495
 2673TIP3    H2 7984   3.477   1.671   2.602
 2674TIP3   OH2 7985   3.644   1.942   1.773
 2674TIP3    H1 7986   3.606   2.024   1.744
 2674TIP3    H2 7987   3.574   1.878   1.763
 2675TIP3   OH2 7988   4.804   3.034   4.776
 2675TIP3    H1 7989   4.873   3.072   4.722
 2675TIP3    H2 7990   4.850   2.995   4.851
 2676TIP3   OH2 7991   1.849   3.157   0.533
 2676TIP3    H1 7992   1.820   3.127   0.619
 2676TIP3    H2 7993   1.945   3.162   0.541
 2677TIP3   OH2 7994   0.350   6.529   1.617
 2677TIP3    H1 7995   0.267   6.577   1.613
 2677TIP3    H2 7996   0.343   6.476   1.696
 2678TIP3   OH2 7997   1.941   0.581   3.535
 2678TIP3    H1 7998   1.864   0.545   3.491
 2678TIP3    H2 7999   1.913   0.593   3.626
 2679TIP3   OH2 8000   3.302   6.135   3.052
 2679TIP3    H1 8001   3.322   6.042   3.063
 2679TIP3    H2 8002   3.372   6.180   3.099
 2680TIP3   OH2 8003   6.969   2.107   3.552
 2680TIP3    H1 8004   6.935   2.171   3.490
 2680TIP3    H2 8005   6.895   2.050   3.570
 2681TIP3   OH2 8006   3.097   6.279   3.600
 2681TIP3    H1 8007   3.057   6.359   3.637
 2681TIP3    H2 8008   3.128   6.306   3.514
 2682TIP3   OH2 8009   3.781   2.477   2.997
 2682TIP3    H1 8010   3.835   2.460   3.075
 2682TIP3    H2 8011   3.723   2.401   2.992
 2683TIP3   OH2 8012   5.091   0.834   2.446
 2683TIP3    H1 8013   5.139   0.772   2.390
 2683TIP3    H2 8014   5.091   0.915   2.396
 2684TIP3   OH2 8015   6.443   4.699   3.633
 2684TIP3    H1 8016   6.532   4.714   3.665
 2684TIP3    H2 8017   6.450   4.708   3.537
 2685TIP3   OH2 8018   6.929   4.524   1.972
 2685TIP3    H1 8019   7.001   4.557   2.026
 2685TIP3    H2 8020   6.966   4.449   1.925
 2686TIP3   OH2 8021   3.028   1.412   4.954
 2686TIP3    H1 8022   3.047   1.402   4.861
 2686TIP3    H2 8023   3.007   1.504   4.965
 2687TIP3   OH2 8024   4.960   1.417   1.023
 2687TIP3    H1 8025   5.052   1.434   1.001
 2687TIP3    H2 8026   4.930   1.498   1.065
 2688TIP3   OH2 8027   4.074   6.621  -0.005
 2688TIP3    H1 8028   4.012   6.659  -0.068
 2688TIP3    H2 8029   4.062   6.673   0.074
 2689TIP3   OH2 8030   3.821   2.263   3.201
 2689TIP3    H1 8031   3.741   2.296   3.242
 2689TIP3    H2 8032   3.891   2.285   3.262
 2690TIP3   OH2 8033   2.861   6.449   1.638
 2690TIP3    H1 8034   2.826   6.381   1.581
 2690TIP3    H2 8035   2.914   6.403   1.702
 2691TIP3   OH2 8036   1.058   0.763   2.525
 2691TIP3    H1 8037   1.081   0.757   2.432
 2691TIP3    H2 8038   1.110   0.837   2.557
 2692TIP3   OH2 8039   6.268   1.985   2.594
 2692TIP3    H1 8040   6.315   2.038   2.658
 2692TIP3    H2 8041   6.309   2.006   2.510
 2693TIP3   OH2 8042   1.717   3.395   3.250
 2693TIP3    H1 8043   1.756   3.319   3.293
 2693TIP3    H2 8044   1.667   3.358   3.177
 2694TIP3   OH2 8045   2.878   2.365   2.554
 2694TIP3    H1 8046   2.848   2.289   2.504
 2694TIP3    H2 8047   2.874   2.336   2.646
 2695TIP3   OH2 8048   6.307   5.229   3.931
 2695TIP3    H1 8049   6.263   5.147   3.951
 2695TIP3    H2 8050   6.397   5.217   3.962
 2696TIP3   OH2 8051   5.152   5.360   5.850
 2696TIP3    H1 8052   5.185   5.433   5.798
 2696TIP3    H2 8053   5.073   5.393   5.891
 2697TIP3   OH2 8054   4.830   0.678   5.837
 2697TIP3    H1 8055   4.864   0.589   5.830
 2697TIP3    H2 8056   4.907   0.733   5.849
 2698TIP3   OH2 8057   2.124   6.381   5.237
 2698TIP3    H1 8058   2.087   6.466   5.214
 2698TIP3    H2 8059   2.219   6.396   5.241
 2699TIP3   OH2 8060   5.998   2.706   5.096
 2699TIP3    H1 8061   6.094   2.705   5.106
 2699TIP3    H2 8062   5.968   2.766   5.164
 2700TIP3   OH2 8063   3.118   2.364   0.320
 2700TIP3    H1 8064   3.071   2.324   0.393
 2700TIP3    H2 8065   3.058   2.430   0.286
 2701TIP3   OH2 8066   6.167   6.362   4.461
 2701TIP3    H1 8067   6.251   6.338   4.421
 2701TIP3    H2 8068   6.127   6.278   4.485
 2702TIP3   OH2 8069   1.283   1.744   5.498
 2702TIP3    H1 8070   1.191   1.725   5.481
 2702TIP3    H2 8071   1.332   1.681   5.443
 2703TIP3   OH2 8072   6.449   4.742   2.538
 2703TIP3    H1 8073   6.451   4.801   2.613
 2703TIP3    H2 8074   6.451   4.654   2.576
 2704TIP3   OH2 8075   3.686   3.696   0.784
 2704TIP3    H1 8076   3.736   3.619   0.758
 2704TIP3    H2 8077   3.750   3.767   0.786
 2705TIP3   OH2 8078   1.539   6.425   0.130
 2705TIP3    H1 8079   1.493   6.466   0.058
 2705TIP3    H2 8080   1.486   6.348   0.152
 2706TIP3   OH2 8081   2.878   1.770   2.069
 2706TIP3    H1 8082   2.922   1.832   2.010
 2706TIP3    H2 8083   2.944   1.751   2.136
 2707TIP3   OH2 8084   1.874   5.888   0.462
 2707TIP3    H1 8085   1.941   5.934   0.513
 2707TIP3    H2 8086   1.811   5.857   0.527
 2708TIP3   OH2 8087   2.315   1.659   5.396
 2708TIP3    H1 8088   2.390   1.718   5.406
 2708TIP3    H2 8089   2.251   1.709   5.346
 2709TIP3   OH2 8090   2.003   0.624   0.401
 2709TIP3    H1 8091   1.997   0.553   0.338
 2709TIP3    H2 8092   2.083   0.606   0.450
 2710TIP3   OH2 8093   2.981   4.251   3.890
 2710TIP3    H1 8094   2.943   4.205   3.815
 2710TIP3    H2 8095   2.918   4.239   3.961
 2711TIP3   OH2 8096   3.639   4.359   5.063
 2711TIP3    H1 8097   3.678   4.358   5.150
 2711TIP3    H2 8098   3.605   4.448   5.053
 2712TIP3   OH2 8099   2.257   5.410   3.443
 2712TIP3    H1 8100   2.336   5.360   3.424
 2712TIP3    H2 8101   2.235   5.388   3.534
 2713TIP3   OH2 8102   5.276   3.224   0.691
 2713TIP3    H1 8103   5.199   3.212   0.636
 2713TIP3    H2 8104   5.309   3.311   0.666
 2714TIP3   OH2 8105   1.933   0.850   4.382
 2714TIP3    H1 8106   1.903   0.941   4.379
 2714TIP3    H2 8107   1.986   0.846   4.461
 2715TIP3   OH2 8108   1.540   6.605   4.615
 2715TIP3    H1 8109   1.554   6.695   4.586
 2715TIP3    H2 8110   1.629   6.570   4.626
 2716TIP3   OH2 8111   4.585   6.303   0.530
 2716TIP3    H1 8112   4.630   6.266   0.454
 2716TIP3    H2 8113   4.494   6.311   0.503
 2717TIP3   OH2 8114   2.033   2.252   2.589
 2717TIP3    H1 8115   1.960   2.237   2.648
 2717TIP3    H2 8116   2.006   2.327   2.536
 2718TIP3   OH2 8117   3.104   1.023   2.659
 2718TIP3    H1 8118   3.106   0.978   2.743
 2718TIP3    H2 8119   3.180   1.081   2.661
 2719TIP3   OH2 8120   7.154   4.279   4.820
 2719TIP3    H1 8121   7.101   4.348   4.861
 2719TIP3    H2 8122   7.098   4.243   4.752
 2720TIP3   OH2 8123   0.058   4.298   0.980
 2720TIP3    H1 8124   0.121   4.271   0.913
 2720TIP3    H2 8125   0.033   4.217   1.024
 2721TIP3   OH2 8126   6.447   1.122   2.868
 2721TIP3    H1 8127   6.528   1.170   2.855
 2721TIP3    H2 8128   6.467   1.033   2.840
 2722TIP3   OH2 8129   4.256   2.177   3.919
 2722TIP3    H1 8130   4.306   2.155   3.998
 2722TIP3    H2 8131   4.304   2.136   3.848
 2723TIP3   OH2 8132   2.841   0.609   5.736
 2723TIP3    H1 8133   2.848   0.703   5.720
 2723TIP3    H2 8134   2.792   0.576   5.661
 2724TIP3   OH2 8135   2.384   0.152   4.219
 2724TIP3    H1 8136   2.429   0.154   4.134
 2724TIP3    H2 8137   2.442   0.100   4.275
 2725TIP3   OH2 8138   6.851   6.629   2.326
 2725TIP3    H1 8139   6.829   6.631   2.233
 2725TIP3    H2 8140   6.831   6.539   2.353
 2726TIP3   OH2 8141   4.897   2.678   1.348
 2726TIP3    H1 8142   4.985   2.660   1.314
 2726TIP3    H2 8143   4.874   2.600   1.397
 2727TIP3   OH2 8144   2.605   3.749   3.337
 2727TIP3    H1 8145   2.550   3.790   3.404
 2727TIP3    H2 8146   2.582   3.795   3.256
 2728TIP3   OH2 8147   3.942   4.438   2.816
 2728TIP3    H1 8148   4.003   4.456   2.745
 2728TIP3    H2 8149   3.963   4.349   2.844
 2729TIP3   OH2 8150   5.460   2.700   3.719
 2729TIP3    H1 8151   5.422   2.618   3.687
 2729TIP3    H2 8152   5.415   2.768   3.670
 2730TIP3   OH2 8153   1.403   3.346   1.566
 2730TIP3    H1 8154   1.390   3.436   1.538
 2730TIP3    H2 8155   1.364   3.293   1.497
 2731TIP3   OH2 8156   2.031   1.673   3.381
 2731TIP3    H1 8157   2.099   1.733   3.350
 2731TIP3    H2 8158   2.042   1.671   3.476
 2732TIP3   OH2 8159   3.102   4.696   3.566
 2732TIP3    H1 8160   3.142   4.650   3.492
 2732TIP3    H2 8161   3.044   4.632   3.605
 2733TIP3   OH2 8162   3.880   1.406   2.214
 2733TIP3    H1 8163   3.895   1.393   2.308
 2733TIP3    H2 8164   3.828   1.486   2.210
 2734TIP3   OH2 8165   7.109   6.718   2.353
 2734TIP3    H1 8166   7.097   6.784   2.285
 2734TIP3    H2 8167   7.032   6.662   2.346
 2735TIP3   OH2 8168   6.482   6.518   1.813
 2735TIP3    H1 8169   6.527   6.434   1.822
 2735TIP3    H2 8170   6.460   6.543   1.903
 2736TIP3   OH2 8171   3.152   4.531   1.683
 2736TIP3    H1 8172   3.119   4.442   1.692
 2736TIP3    H2 8173   3.169   4.559   1.773
 2737TIP3   OH2 8174   5.536   3.937   2.246
 2737TIP3    H1 8175   5.495   3.878   2.182
 2737TIP3    H2 8176   5.612   3.888   2.276
 2738TIP3   OH2 8177   0.355   1.987   5.069
 2738TIP3    H1 8178   0.439   2.014   5.033
 2738TIP3    H2 8179   0.322   2.065   5.114
 2739TIP3   OH2 8180   1.910   1.144   0.202
 2739TIP3    H1 8181   1.820   1.169   0.223
 2739TIP3    H2 8182   1.924   1.061   0.249
 2740TIP3   OH2 8183   1.602   4.848   1.201
 2740TIP3    H1 8184   1.623   4.900   1.124
 2740TIP3    H2 8185   1.661   4.772   1.196
 2741TIP3   OH2 8186   2.669   6.789   5.540
 2741TIP3    H1 8187   2.741   6.755   5.593
 2741TIP3    H2 8188   2.590   6.747   5.575
 2742TIP3   OH2 8189   4.378   4.343   4.326
 2742TIP3    H1 8190   4.384   4.407   4.397
 2742TIP3    H2 8191   4.398   4.259   4.368
 2743TIP3   OH2 8192   0.893   5.083   3.832
 2743TIP3    H1 8193   0.859   5.105   3.746
 2743TIP3    H2 8194   0.987   5.071   3.819
 2744TIP3   OH2 8195   2.998   3.533   4.937
 2744TIP3    H1 8196   3.010   3.439   4.924
 2744TIP3    H2 8197   2.922   3.555   4.882
 2745TIP3   OH2 8198   3.421   6.746   5.814
 2745TIP3    H1 8199   3.449   6.837   5.827
 2745TIP3    H2 8200   3.503   6.696   5.810
 2746TIP3   OH2 8201   5.541   6.020   5.090
 2746TIP3    H1 8202   5.529   6.079   5.165
 2746TIP3    H2 8203   5.619   5.969   5.112
 2747TIP3   OH2 8204   0.939   4.454   4.860
 2747TIP3    H1 8205   0.943   4.524   4.794
 2747TIP3    H2 8206   0.969   4.496   4.941
 2748TIP3   OH2 8207   1.477   5.438   2.189
 2748TIP3    H1 8208   1.466   5.371   2.121
 2748TIP3    H2 8209   1.564   5.421   2.225
 2749TIP3   OH2 8210   5.283   0.996   4.264
 2749TIP3    H1 8211   5.249   0.976   4.351
 2749TIP3    H2 8212   5.207   1.027   4.214
 2750TIP3   OH2 8213   0.243   5.447   2.597
 2750TIP3    H1 8214   0.256   5.365   2.644
 2750TIP3    H2 8215   0.301   5.509   2.641
 2751TIP3   OH2 8216   0.371   1.336   1.276
 2751TIP3    H1 8217   0.290   1.320   1.227
 2751TIP3    H2 8218   0.415   1.251   1.278
 2752TIP3   OH2 8219   4.827   2.469   1.510
 2752TIP3    H1 8220   4.810   2.378   1.485
 2752TIP3    H2 8221   4.914   2.468   1.550
 2753TIP3   OH2 8222   1.563   0.089   3.646
 2753TIP3    H1 8223   1.609   0.169   3.672
 2753TIP3    H2 8224   1.624   0.019   3.667
 2754TIP3   OH2 8225   4.002   5.541   2.998
 2754TIP3    H1 8226   4.028   5.596   2.924
 2754TIP3    H2 8227   3.950   5.599   3.054
 2755TIP3   OH2 8228   3.713   3.001   2.244
 2755TIP3    H1 8229   3.759   2.944   2.306
 2755TIP3    H2 8230   3.687   2.942   2.173
 2756TIP3   OH2 8231   1.032   3.281   1.532
 2756TIP3    H1 8232   1.019   3.266   1.626
 2756TIP3    H2 8233   0.961   3.232   1.491
 2757TIP3   OH2 8234   5.376   0.139   0.993
 2757TIP3    H1 8235   5.367   0.162   1.086
 2757TIP3    H2 8236   5.456   0.086   0.990
 2758TIP3   OH2 8237   2.600   6.765   2.470
 2758TIP3    H1 8238   2.690   6.735   2.475
 2758TIP3    H2 8239   2.587   6.790   2.379
 2759TIP3   OH2 8240   6.213   0.717   1.828
 2759TIP3    H1 8241   6.244   0.755   1.746
 2759TIP3    H2 8242   6.268   0.640   1.841
 2760TIP3   OH2 8243   0.315   6.515   1.298
 2760TIP3    H1 8244   0.234   6.550   1.336
 2760TIP3    H2 8245   0.307   6.420   1.308
 2761TIP3   OH2 8246   5.493   1.762   3.725
 2761TIP3    H1 8247   5.515   1.670   3.737
 2761TIP3    H2 8248   5.556   1.794   3.661
 2762TIP3   OH2 8249   7.037   0.306   3.588
 2762TIP3    H1 8250   6.944   0.303   3.568
 2762TIP3    H2 8251   7.075   0.359   3.518
 2763TIP3   OH2 8252   5.841   2.489   5.048
 2763TIP3    H1 8253   5.897   2.563   5.072
 2763TIP3    H2 8254   5.888   2.412   5.078
 2764TIP3   OH2 8255   2.147   1.215   1.366
 2764TIP3    H1 8256   2.118   1.303   1.342
 2764TIP3    H2 8257   2.070   1.175   1.407
 2765TIP3   OH2 8258   2.617   3.083   5.535
 2765TIP3    H1 8259   2.534   3.131   5.542
 2765TIP3    H2 8260   2.635   3.054   5.624
 2766TIP3   OH2 8261   2.866   3.014   4.662
 2766TIP3    H1 8262   2.883   2.982   4.573
 2766TIP3    H2 8263   2.796   2.958   4.695
 2767TIP3   OH2 8264   4.717   5.882   0.287
 2767TIP3    H1 8265   4.704   5.954   0.225
 2767TIP3    H2 8266   4.635   5.833   0.284
 2768TIP3   OH2 8267   2.013   4.537   2.748
 2768TIP3    H1 8268   1.932   4.587   2.755
 2768TIP3    H2 8269   2.050   4.538   2.836
 2769TIP3   OH2 8270   6.335   5.009   2.525
 2769TIP3    H1 8271   6.329   5.051   2.610
 2769TIP3    H2 8272   6.426   5.024   2.497
 2770TIP3   OH2 8273   3.982   6.178   4.837
 2770TIP3    H1 8274   4.028   6.234   4.899
 2770TIP3    H2 8275   4.051   6.131   4.791
 2771TIP3   OH2 8276   5.394   2.656   1.171
 2771TIP3    H1 8277   5.383   2.714   1.096
 2771TIP3    H2 8278   5.483   2.622   1.162
 2772TIP3   OH2 8279   1.244   6.021   1.437
 2772TIP3    H1 8280   1.217   6.111   1.417
 2772TIP3    H2 8281   1.170   5.967   1.410
 2773TIP3   OH2 8282   4.059   3.326   4.489
 2773TIP3    H1 8283   4.111   3.406   4.498
 2773TIP3    H2 8284   4.102   3.264   4.548
 2774TIP3   OH2 8285   6.826   5.954   0.748
 2774TIP3    H1 8286   6.754   5.958   0.811
 2774TIP3    H2 8287   6.890   6.016   0.783
 2775TIP3   OH2 8288   2.717   0.599   5.274
 2775TIP3    H1 8289   2.625   0.590   5.249
 2775TIP3    H2 8290   2.746   0.679   5.231
 2776TIP3   OH2 8291   7.135   2.834   4.631
 2776TIP3    H1 8292   7.226   2.815   4.653
 2776TIP3    H2 8293   7.085   2.771   4.684
 2777TIP3   OH2 8294   6.208   6.711   3.099
 2777TIP3    H1 8295   6.299   6.735   3.117
 2777TIP3    H2 8296   6.203   6.618   3.119
 2778TIP3   OH2 8297   5.398   1.015   2.278
 2778TIP3    H1 8298   5.370   0.952   2.211
 2778TIP3    H2 8299   5.475   1.057   2.239
 2779TIP3   OH2 8300   5.292   6.242   3.842
 2779TIP3    H1 8301   5.374   6.204   3.873
 2779TIP3    H2 8302   5.308   6.261   3.750
 2780TIP3   OH2 8303   4.449   4.177   1.167
 2780TIP3    H1 8304   4.518   4.162   1.102
 2780TIP3    H2 8305   4.372   4.133   1.131
 2781TIP3   OH2 8306   3.379   4.222   4.669
 2781TIP3    H1 8307   3.387   4.154   4.603
 2781TIP3    H2 8308   3.450   4.283   4.650
 2782TIP3   OH2 8309   4.351   2.234   4.323
 2782TIP3    H1 8310   4.322   2.324   4.307
 2782TIP3    H2 8311   4.424   2.242   4.384
 2783TIP3   OH2 8312   3.570   5.769   2.510
 2783TIP3    H1 8313   3.536   5.827   2.578
 2783TIP3    H2 8314   3.580   5.684   2.554
 2784TIP3   OH2 8315   0.546   1.494   5.436
 2784TIP3    H1 8316   0.547   1.501   5.340
 2784TIP3    H2 8317   0.550   1.400   5.454
 2785TIP3   OH2 8318   4.910   3.145   2.636
 2785TIP3    H1 8319   4.952   3.225   2.669
 2785TIP3    H2 8320   4.870   3.106   2.714
 2786TIP3   OH2 8321   3.499   6.244   4.365
 2786TIP3    H1 8322   3.544   6.268   4.446
 2786TIP3    H2 8323   3.501   6.324   4.312
 2787TIP3   OH2 8324   4.981   4.446   3.156
 2787TIP3    H1 8325   5.041   4.414   3.222
 2787TIP3    H2 8326   4.937   4.521   3.197
 2788TIP3   OH2 8327   6.131   2.546   1.256
 2788TIP3    H1 8328   6.129   2.482   1.185
 2788TIP3    H2 8329   6.065   2.515   1.318
 2789TIP3   OH2 8330   5.413   4.786   2.863
 2789TIP3    H1 8331   5.354   4.716   2.835
 2789TIP3    H2 8332   5.398   4.793   2.957
 2790TIP3   OH2 8333   2.711   3.082   3.789
 2790TIP3    H1 8334   2.671   3.111   3.871
 2790TIP3    H2 8335   2.805   3.087   3.805
 2791TIP3   OH2 8336   5.169   0.903   5.381
 2791TIP3    H1 8337   5.103   0.919   5.448
 2791TIP3    H2 8338   5.245   0.952   5.410
 2792TIP3   OH2 8339   5.507   5.658   4.995
 2792TIP3    H1 8340   5.479   5.568   5.014
 2792TIP3    H2 8341   5.523   5.659   4.901
 2793TIP3   OH2 8342   1.632   0.310   1.087
 2793TIP3    H1 8343   1.722   0.332   1.112
 2793TIP3    H2 8344   1.642   0.256   1.009
 2794TIP3   OH2 8345   0.682   4.416   4.917
 2794TIP3    H1 8346   0.770   4.428   4.882
 2794TIP3    H2 8347   0.643   4.504   4.913
 2795TIP3   OH2 8348   4.154   0.838   2.147
 2795TIP3    H1 8349   4.110   0.907   2.196
 2795TIP3    H2 8350   4.181   0.774   2.213
 2796TIP3   OH2 8351   4.190   0.222   1.397
 2796TIP3    H1 8352   4.281   0.237   1.420
 2796TIP3    H2 8353   4.176   0.128   1.414
 2797TIP3   OH2 8354   4.243   3.860   1.623
 2797TIP3    H1 8355   4.210   3.950   1.618
 2797TIP3    H2 8356   4.284   3.846   1.538
 2798TIP3   OH2 8357   3.085   2.939   2.844
 2798TIP3    H1 8358   3.124   2.870   2.790
 2798TIP3    H2 8359   2.992   2.935   2.823
 2799TIP3   OH2 8360   2.556   4.402   4.031
 2799TIP3    H1 8361   2.565   4.482   4.083
 2799TIP3    H2 8362   2.522   4.337   4.093
 2800TIP3   OH2 8363   0.362   0.839   1.788
 2800TIP3    H1 8364   0.284   0.890   1.766
 2800TIP3    H2 8365   0.434   0.886   1.746
 2801TIP3   OH2 8366   2.781   3.872   4.253
 2801TIP3    H1 8367   2.816   3.861   4.165
 2801TIP3    H2 8368   2.784   3.784   4.291
 2802TIP3   OH2 8369   2.128   0.651   4.070
 2802TIP3    H1 8370   2.214   0.676   4.037
 2802TIP3    H2 8371   2.072   0.727   4.054
 2803TIP3   OH2 8372   1.257   1.259   5.014
 2803TIP3    H1 8373   1.226   1.172   4.989
 2803TIP3    H2 8374   1.337   1.272   4.962
 2804TIP3   OH2 8375   1.063   5.914   0.643
 2804TIP3    H1 8376   1.098   5.965   0.715
 2804TIP3    H2 8377   1.005   5.974   0.596
 2805TIP3   OH2 8378   5.782   6.493   5.446
 2805TIP3    H1 8379   5.826   6.523   5.525
 2805TIP3    H2 8380   5.837   6.421   5.414
 2806TIP3   OH2 8381   4.509   4.317   0.261
 2806TIP3    H1 8382   4.558   4.288   0.184
 2806TIP3    H2 8383   4.520   4.246   0.325
 2807TIP3   OH2 8384   6.836   3.775   5.061
 2807TIP3    H1 8385   6.909   3.801   5.005
 2807TIP3    H2 8386   6.789   3.708   5.011
 2808TIP3   OH2 8387   7.047   4.276   0.085
 2808TIP3    H1 8388   6.952   4.271   0.079
 2808TIP3    H2 8389   7.079   4.199   0.039
 2809TIP3   OH2 8390   1.462   3.100   3.839
 2809TIP3    H1 8391   1.421   3.165   3.895
 2809TIP3    H2 8392   1.500   3.150   3.767
 2810TIP3   OH2 8393   3.744   2.352   0.685
 2810TIP3    H1 8394   3.660   2.307   0.696
 2810TIP3    H2 8395   3.746   2.415   0.757
 2811TIP3   OH2 8396   5.512   3.915   1.736
 2811TIP3    H1 8397   5.601   3.935   1.763
 2811TIP3    H2 8398   5.491   3.982   1.671
 2812TIP3   OH2 8399   2.116   0.477   2.590
 2812TIP3    H1 8400   2.137   0.384   2.590
 2812TIP3    H2 8401   2.026   0.481   2.559
 2813TIP3   OH2 8402   6.119   3.304   3.392
 2813TIP3    H1 8403   6.208   3.286   3.425
 2813TIP3    H2 8404   6.066   3.233   3.426
 2814TIP3   OH2 8405   0.833   5.883   4.572
 2814TIP3    H1 8406   0.798   5.831   4.645
 2814TIP3    H2 8407   0.802   5.972   4.589
 2815TIP3   OH2 8408   6.222   3.393   3.154
 2815TIP3    H1 8409   6.173   3.362   3.230
 2815TIP3    H2 8410   6.306   3.347   3.159
 2816TIP3   OH2 8411   1.154   3.995   2.508
 2816TIP3    H1 8412   1.181   4.022   2.421
 2816TIP3    H2 8413   1.236   3.977   2.554
 2817TIP3   OH2 8414   4.629   2.975   0.349
 2817TIP3    H1 8415   4.552   3.029   0.332
 2817TIP3    H2 8416   4.702   3.025   0.312
 2818TIP3   OH2 8417   2.208   0.651   3.572
 2818TIP3    H1 8418   2.242   0.564   3.552
 2818TIP3    H2 8419   2.121   0.636   3.609
 2819TIP3   OH2 8420   2.631   2.649   2.029
 2819TIP3    H1 8421   2.604   2.613   2.113
 2819TIP3    H2 8422   2.581   2.730   2.020
 2820TIP3   OH2 8423   6.874   3.916   1.538
 2820TIP3    H1 8424   6.865   3.847   1.603
 2820TIP3    H2 8425   6.952   3.964   1.565
 2821TIP3   OH2 8426   6.847   6.697   4.595
 2821TIP3    H1 8427   6.753   6.679   4.601
 2821TIP3    H2 8428   6.854   6.778   4.545
 2822TIP3   OH2 8429   3.806   5.262   2.543
 2822TIP3    H1 8430   3.760   5.185   2.512
 2822TIP3    H2 8431   3.845   5.236   2.626
 2823TIP3   OH2 8432   6.892   3.479   2.744
 2823TIP3    H1 8433   6.893   3.574   2.733
 2823TIP3    H2 8434   6.799   3.456   2.746
 2824TIP3   OH2 8435   3.980   4.887   4.471
 2824TIP3    H1 8436   4.007   4.932   4.551
 2824TIP3    H2 8437   3.955   4.956   4.410
 2825TIP3   OH2 8438   0.409   2.293   5.783
 2825TIP3    H1 8439   0.399   2.198   5.773
 2825TIP3    H2 8440   0.406   2.327   5.693
 2826TIP3   OH2 8441   5.656   6.722   3.078
 2826TIP3    H1 8442   5.573   6.741   3.122
 2826TIP3    H2 8443   5.701   6.662   3.138
 2827TIP3   OH2 8444   3.754   3.655   5.716
 2827TIP3    H1 8445   3.706   3.601   5.779
 2827TIP3    H2 8446   3.686   3.701   5.667
 2828TIP3   OH2 8447   4.853   2.801   4.988
 2828TIP3    H1 8448   4.780   2.813   4.927
 2828TIP3    H2 8449   4.813   2.761   5.065
 2829TIP3   OH2 8450   5.183   4.414   0.447
 2829TIP3    H1 8451   5.258   4.471   0.427
 2829TIP3    H2 8452   5.127   4.468   0.503
 2830TIP3   OH2 8453   3.886   1.136   1.096
 2830TIP3    H1 8454   3.879   1.080   1.019
 2830TIP3    H2 8455   3.884   1.074   1.170
 2831TIP3   OH2 8456   5.177   6.672   2.770
 2831TIP3    H1 8457   5.241   6.727   2.817
 2831TIP3    H2 8458   5.097   6.725   2.768
 2832TIP3   OH2 8459   6.421   4.139   3.989
 2832TIP3    H1 8460   6.342   4.162   3.939
 2832TIP3    H2 8461   6.459   4.065   3.941
 2833TIP3   OH2 8462   4.777   6.368   2.362
 2833TIP3    H1 8463   4.723   6.394   2.288
 2833TIP3    H2 8464   4.760   6.274   2.372
 2834TIP3   OH2 8465   5.956   3.898   0.710
 2834TIP3    H1 8466   6.001   3.980   0.688
 2834TIP3    H2 8467   5.906   3.876   0.632
 2835TIP3   OH2 8468   5.384   4.660   3.481
 2835TIP3    H1 8469   5.474   4.664   3.513
 2835TIP3    H2 8470   5.374   4.569   3.451
 2836TIP3   OH2 8471   0.021   1.238   5.802
 2836TIP3    H1 8472  -0.017   1.299   5.865
 2836TIP3    H2 8473   0.105   1.276   5.778
 2837TIP3   OH2 8474   5.509   6.603   1.188
 2837TIP3    H1 8475   5.433   6.574   1.239
 2837TIP3    H2 8476   5.482   6.687   1.151
 2838TIP3   OH2 8477   7.241   5.240   0.758
 2838TIP3    H1 8478   7.233   5.195   0.842
 2838TIP3    H2 8479   7.333   5.233   0.735
 2839TIP3   OH2 8480   2.956   6.103   1.444
 2839TIP3    H1 8481   2.922   6.028   1.395
 2839TIP3    H2 8482   3.045   6.116   1.411
 2840TIP3   OH2 8483   2.266   4.830   3.437
 2840TIP3    H1 8484   2.332   4.770   3.471
 2840TIP3    H2 8485   2.229   4.785   3.361
 2841TIP3   OH2 8486   6.813   1.270   2.543
 2841TIP3    H1 8487   6.898   1.314   2.534
 2841TIP3    H2 8488   6.828   1.183   2.506
 2842TIP3   OH2 8489   3.749   0.410   2.232
 2842TIP3    H1 8490   3.753   0.319   2.202
 2842TIP3    H2 8491   3.788   0.461   2.160
 2843TIP3   OH2 8492   1.902   4.107   0.498
 2843TIP3    H1 8493   1.906   4.025   0.547
 2843TIP3    H2 8494   1.980   4.107   0.444
 2844TIP3   OH2 8495   3.081   4.760   0.418
 2844TIP3    H1 8496   3.026   4.698   0.370
 2844TIP3    H2 8497   3.032   4.778   0.499
 2845TIP3   OH2 8498   6.478   1.795   2.584
 2845TIP3    H1 8499   6.499   1.791   2.677
 2845TIP3    H2 8500   6.385   1.773   2.579
 2846TIP3   OH2 8501   6.258   2.987   5.751
 2846TIP3    H1 8502   6.179   2.958   5.704
 2846TIP3    H2 8503   6.330   2.960   5.695
 2847TIP3   OH2 8504   6.448   5.866   1.628
 2847TIP3    H1 8505   6.461   5.776   1.658
 2847TIP3    H2 8506   6.356   5.870   1.601
 2848TIP3   OH2 8507   5.685   0.305   5.405
 2848TIP3    H1 8508   5.693   0.388   5.357
 2848TIP3    H2 8509   5.636   0.248   5.346
 2849TIP3   OH2 8510   5.758   1.885   2.320
 2849TIP3    H1 8511   5.729   1.885   2.229
 2849TIP3    H2 8512   5.853   1.895   2.315
 2850TIP3   OH2 8513   1.944   1.608   2.252
 2850TIP3    H1 8514   2.037   1.631   2.249
 2850TIP3    H2 8515   1.940   1.529   2.305
 2851TIP3   OH2 8516   0.584   5.770   0.518
 2851TIP3    H1 8517   0.674   5.774   0.549
 2851TIP3    H2 8518   0.569   5.677   0.501
 2852TIP3   OH2 8519   4.753   3.683   3.104
 2852TIP3    H1 8520   4.810   3.755   3.076
 2852TIP3    H2 8521   4.718   3.712   3.188
 2853TIP3   OH2 8522   1.741   1.340   4.176
 2853TIP3    H1 8523   1.779   1.324   4.262
 2853TIP3    H2 8524   1.811   1.381   4.125
 2854TIP3   OH2 8525   1.152   3.800   2.857
 2854TIP3    H1 8526   1.195   3.876   2.817
 2854TIP3    H2 8527   1.059   3.821   2.852
 2855TIP3   OH2 8528   5.655   0.898   0.058
 2855TIP3    H1 8529   5.689   0.985   0.078
 2855TIP3    H2 8530   5.577   0.914   0.004
 2856TIP3   OH2 8531   3.988   2.079   2.848
 2856TIP3    H1 8532   4.032   2.151   2.892
 2856TIP3    H2 8533   3.908   2.117   2.813
 2857TIP3   OH2 8534   5.376   0.857   1.410
 2857TIP3    H1 8535   5.409   0.943   1.384
 2857TIP3    H2 8536   5.455   0.804   1.424
 2858TIP3   OH2 8537   7.090   6.636   4.397
 2858TIP3    H1 8538   7.151   6.701   4.363
 2858TIP3    H2 8539   7.072   6.664   4.487
 2859TIP3   OH2 8540   5.626   2.751   4.435
 2859TIP3    H1 8541   5.562   2.819   4.415
 2859TIP3    H2 8542   5.710   2.795   4.428
 2860TIP3   OH2 8543   4.254   5.525   4.719
 2860TIP3    H1 8544   4.344   5.502   4.699
 2860TIP3    H2 8545   4.201   5.475   4.656
 2861TIP3   OH2 8546   6.695   4.799   1.221
 2861TIP3    H1 8547   6.730   4.731   1.163
 2861TIP3    H2 8548   6.698   4.879   1.168
 2862TIP3   OH2 8549   1.184   2.242   4.329
 2862TIP3    H1 8550   1.272   2.276   4.346
 2862TIP3    H2 8551   1.196   2.148   4.317
 2863TIP3   OH2 8552   3.517   2.482   5.864
 2863TIP3    H1 8553   3.577   2.434   5.921
 2863TIP3    H2 8554   3.571   2.511   5.790
 2864TIP3   OH2 8555   7.127   3.325   0.236
 2864TIP3    H1 8556   7.136   3.233   0.211
 2864TIP3    H2 8557   7.167   3.374   0.164
 2865TIP3   OH2 8558   0.099   3.213   0.907
 2865TIP3    H1 8559   0.114   3.156   0.832
 2865TIP3    H2 8560   0.019   3.261   0.885
 2866TIP3   OH2 8561   0.126   3.714   3.741
 2866TIP3    H1 8562   0.037   3.748   3.753
 2866TIP3    H2 8563   0.121   3.664   3.660
 2867TIP3   OH2 8564   4.128   1.459   5.401
 2867TIP3    H1 8565   4.179   1.535   5.376
 2867TIP3    H2 8566   4.125   1.405   5.322
 2868TIP3   OH2 8567   0.468   5.250   3.318
 2868TIP3    H1 8568   0.386   5.239   3.367
 2868TIP3    H2 8569   0.458   5.194   3.242
 2869TIP3   OH2 8570   1.392   5.399   1.753
 2869TIP3    H1 8571   1.354   5.389   1.666
 2869TIP3    H2 8572   1.384   5.493   1.772
 2870TIP3   OH2 8573   3.934   5.197   0.694
 2870TIP3    H1 8574   4.012   5.148   0.718
 2870TIP3    H2 8575   3.898   5.227   0.778
 2871TIP3   OH2 8576   5.537   5.356   4.905
 2871TIP3    H1 8577   5.525   5.269   4.944
 2871TIP3    H2 8578   5.625   5.382   4.931
 2872TIP3   OH2 8579   1.926   3.326   5.256
 2872TIP3    H1 8580   1.887   3.303   5.340
 2872TIP3    H2 8581   1.915   3.421   5.249
 2873TIP3   OH2 8582   5.173   3.661   2.707
 2873TIP3    H1 8583   5.233   3.734   2.690
 2873TIP3    H2 8584   5.228   3.583   2.703
 2874TIP3   OH2 8585   1.761   4.794   3.651
 2874TIP3    H1 8586   1.795   4.791   3.740
 2874TIP3    H2 8587   1.666   4.805   3.662
 2875TIP3   OH2 8588   6.158   0.995   4.624
 2875TIP3    H1 8589   6.115   1.073   4.658
 2875TIP3    H2 8590   6.245   1.025   4.597
 2876TIP3   OH2 8591   3.192   4.639   2.215
 2876TIP3    H1 8592   3.115   4.586   2.193
 2876TIP3    H2 8593   3.171   4.680   2.298
 2877TIP3   OH2 8594   1.336   2.270   0.308
 2877TIP3    H1 8595   1.310   2.362   0.314
 2877TIP3    H2 8596   1.428   2.270   0.333
 2878TIP3   OH2 8597   4.616   6.208   0.783
 2878TIP3    H1 8598   4.554   6.238   0.717
 2878TIP3    H2 8599   4.700   6.245   0.755
 2879TIP3   OH2 8600   3.851   6.689   0.749
 2879TIP3    H1 8601   3.758   6.700   0.770
 2879TIP3    H2 8602   3.875   6.607   0.792
 2880TIP3   OH2 8603   4.712   6.246   4.885
 2880TIP3    H1 8604   4.666   6.291   4.955
 2880TIP3    H2 8605   4.658   6.168   4.866
 2881TIP3   OH2 8606   1.210   1.987   4.290
 2881TIP3    H1 8607   1.299   1.952   4.286
 2881TIP3    H2 8608   1.160   1.929   4.232
 2882TIP3   OH2 8609   2.381   2.007   2.928
 2882TIP3    H1 8610   2.342   1.948   2.863
 2882TIP3    H2 8611   2.340   2.092   2.910
 2883TIP3   OH2 8612   2.770   4.595   2.118
 2883TIP3    H1 8613   2.772   4.643   2.201
 2883TIP3    H2 8614   2.825   4.646   2.060
 2884TIP3   OH2 8615   1.725   6.384   5.093
 2884TIP3    H1 8616   1.708   6.448   5.162
 2884TIP3    H2 8617   1.674   6.307   5.119
 2885TIP3   OH2 8618   1.988   2.380   0.909
 2885TIP3    H1 8619   2.044   2.375   0.831
 2885TIP3    H2 8620   2.039   2.433   0.971
 2886TIP3   OH2 8621   6.372   0.752   3.035
 2886TIP3    H1 8622   6.293   0.709   3.066
 2886TIP3    H2 8623   6.440   0.724   3.096
 2887TIP3   OH2 8624   2.152   4.402   3.349
 2887TIP3    H1 8625   2.079   4.390   3.410
 2887TIP3    H2 8626   2.168   4.314   3.313
 2888TIP3   OH2 8627   0.749   3.582   3.312
 2888TIP3    H1 8628   0.755   3.493   3.277
 2888TIP3    H2 8629   0.786   3.638   3.243
 2889TIP3   OH2 8630   5.881   2.318   3.510
 2889TIP3    H1 8631   5.827   2.242   3.532
 2889TIP3    H2 8632   5.826   2.394   3.532
 2890TIP3   OH2 8633   4.783   2.730   2.401
 2890TIP3    H1 8634   4.798   2.684   2.484
 2890TIP3    H2 8635   4.711   2.790   2.419
 2891TIP3   OH2 8636   1.866   4.993   5.498
 2891TIP3    H1 8637   1.813   5.065   5.533
 2891TIP3    H2 8638   1.821   4.914   5.526
 2892TIP3   OH2 8639   2.750   6.344   4.441
 2892TIP3    H1 8640   2.773   6.254   4.421
 2892TIP3    H2 8641   2.710   6.377   4.360
 2893TIP3   OH2 8642   7.056   4.961   0.029
 2893TIP3    H1 8643   7.106   4.894   0.075
 2893TIP3    H2 8644   6.974   4.968   0.078
 2894TIP3   OH2 8645   6.108   3.557   3.951
 2894TIP3    H1 8646   6.201   3.575   3.965
 2894TIP3    H2 8647   6.106   3.490   3.883
 2895TIP3   OH2 8648   5.172   5.928   1.294
 2895TIP3    H1 8649   5.221   5.853   1.325
 2895TIP3    H2 8650   5.209   6.003   1.341
 2896TIP3   OH2 8651   5.260   0.485   3.481
 2896TIP3    H1 8652   5.279   0.391   3.478
 2896TIP3    H2 8653   5.342   0.527   3.454
 2897TIP3   OH2 8654   6.988   4.215   1.605
 2897TIP3    H1 8655   7.067   4.239   1.556
 2897TIP3    H2 8656   6.916   4.253   1.555
 2898TIP3   OH2 8657   4.383   0.250   3.266
 2898TIP3    H1 8658   4.376   0.269   3.172
 2898TIP3    H2 8659   4.421   0.162   3.269
 2899TIP3   OH2 8660   5.578   2.424   4.058
 2899TIP3    H1 8661   5.533   2.487   4.114
 2899TIP3    H2 8662   5.619   2.362   4.118
 2900TIP3   OH2 8663   4.810   6.502   4.285
 2900TIP3    H1 8664   4.732   6.555   4.266
 2900TIP3    H2 8665   4.847   6.539   4.364
 2901TIP3   OH2 8666   4.277   6.226   0.700
 2901TIP3    H1 8667   4.209   6.162   0.718
 2901TIP3    H2 8668   4.270   6.242   0.606
 2902TIP3   OH2 8669   2.962   5.605   4.935
 2902TIP3    H1 8670   3.010   5.577   5.013
 2902TIP3    H2 8671   2.916   5.527   4.905
 2903TIP3   OH2 8672   4.521   0.886   4.489
 2903TIP3    H1 8673   4.506   0.808   4.544
 2903TIP3    H2 8674   4.570   0.946   4.546
 2904TIP3   OH2 8675   4.988   4.711   1.202
 2904TIP3    H1 8676   5.044   4.639   1.173
 2904TIP3    H2 8677   4.981   4.768   1.125
 2905TIP3   OH2 8678   0.011   2.058   4.096
 2905TIP3    H1 8679  -0.024   2.068   4.185
 2905TIP3    H2 8680   0.088   2.115   4.095
 2906TIP3   OH2 8681   4.564   0.313   1.150
 2906TIP3    H1 8682   4.540   0.288   1.239
 2906TIP3    H2 8683   4.560   0.231   1.100
 2907TIP3   OH2 8684   3.204   3.861   0.603
 2907TIP3    H1 8685   3.277   3.825   0.552
 2907TIP3    H2 8686   3.242   3.879   0.689
 2908TIP3   OH2 8687   0.416   3.807   2.896
 2908TIP3    H1 8688   0.463   3.822   2.815
 2908TIP3    H2 8689   0.468   3.741   2.942
 2909TIP3   OH2 8690   5.956   0.647   1.773
 2909TIP3    H1 8691   5.914   0.637   1.859
 2909TIP3    H2 8692   6.049   0.655   1.793
 2910TIP3   OH2 8693   4.498   3.998   5.835
 2910TIP3    H1 8694   4.453   4.052   5.770
 2910TIP3    H2 8695   4.589   4.028   5.833
 2911TIP3   OH2 8696   1.417   6.161   3.631
 2911TIP3    H1 8697   1.505   6.143   3.598
 2911TIP3    H2 8698   1.404   6.098   3.701
 2912TIP3   OH2 8699   3.414   6.262   2.497
 2912TIP3    H1 8700   3.390   6.350   2.524
 2912TIP3    H2 8701   3.370   6.249   2.413
 2913TIP3   OH2 8702   2.436   1.352   0.236
 2913TIP3    H1 8703   2.343   1.331   0.229
 2913TIP3    H2 8704   2.458   1.332   0.327
 2914TIP3   OH2 8705   3.813   2.571   1.983
 2914TIP3    H1 8706   3.774   2.485   2.001
 2914TIP3    H2 8707   3.839   2.567   1.890
 2915TIP3   OH2 8708   5.870   2.588   1.780
 2915TIP3    H1 8709   5.779   2.561   1.797
 2915TIP3    H2 8710   5.885   2.660   1.842
 2916TIP3   OH2 8711   6.272   3.324   3.864
 2916TIP3    H1 8712   6.180   3.319   3.889
 2916TIP3    H2 8713   6.306   3.236   3.881
 2917TIP3   OH2 8714   6.123   0.760   2.483
 2917TIP3    H1 8715   6.061   0.828   2.511
 2917TIP3    H2 8716   6.068   0.692   2.444
 2918TIP3   OH2 8717   5.527   4.770   5.388
 2918TIP3    H1 8718   5.471   4.742   5.461
 2918TIP3    H2 8719   5.536   4.864   5.399
 2919TIP3   OH2 8720   0.046   1.275   3.835
 2919TIP3    H1 8721   0.045   1.349   3.774
 2919TIP3    H2 8722  -0.046   1.253   3.848
 2920TIP3   OH2 8723   3.679   1.607   5.722
 2920TIP3    H1 8724   3.720   1.563   5.647
 2920TIP3    H2 8725   3.607   1.657   5.683
 2921TIP3   OH2 8726   2.631   2.715   4.357
 2921TIP3    H1 8727   2.569   2.738   4.287
 2921TIP3    H2 8728   2.590   2.642   4.402
 2922TIP3   OH2 8729   1.910   6.371   3.610
 2922TIP3    H1 8730   1.961   6.451   3.598
 2922TIP3    H2 8731   1.884   6.372   3.702
 2923TIP3   OH2 8732   7.137   5.767   2.104
 2923TIP3    H1 8733   7.136   5.790   2.011
 2923TIP3    H2 8734   7.179   5.842   2.147
 2924TIP3   OH2 8735   5.391   0.476   1.883
 2924TIP3    H1 8736   5.322   0.426   1.839
 2924TIP3    H2 8737   5.465   0.472   1.824
 2925TIP3   OH2 8738   1.441   4.860   3.263
 2925TIP3    H1 8739   1.425   4.861   3.169
 2925TIP3    H2 8740   1.426   4.769   3.289
 2926TIP3   OH2 8741   0.153   2.042   4.733
 2926TIP3    H1 8742   0.198   2.126   4.726
 2926TIP3    H2 8743   0.127   2.036   4.825
 2927TIP3   OH2 8744   3.217   3.079   4.881
 2927TIP3    H1 8745   3.277   3.072   4.955
 2927TIP3    H2 8746   3.206   2.989   4.851
 2928TIP3   OH2 8747   6.783   3.078   2.717
 2928TIP3    H1 8748   6.747   2.994   2.747
 2928TIP3    H2 8749   6.863   3.089   2.767
 2929TIP3   OH2 8750   5.138   6.462   4.493
 2929TIP3    H1 8751   5.135   6.449   4.588
 2929TIP3    H2 8752   5.217   6.514   4.478
 2930TIP3   OH2 8753   0.387   5.203   5.676
 2930TIP3    H1 8754   0.334   5.164   5.605
 2930TIP3    H2 8755   0.385   5.137   5.745
 2931TIP3   OH2 8756   3.314   1.968   5.287
 2931TIP3    H1 8757   3.295   1.977   5.380
 2931TIP3    H2 8758   3.339   2.056   5.259
 2932TIP3   OH2 8759   3.644   1.914   3.414
 2932TIP3    H1 8760   3.686   1.884   3.495
 2932TIP3    H2 8761   3.715   1.916   3.350
 2933TIP3   OH2 8762   6.116   1.816   5.650
 2933TIP3    H1 8763   6.162   1.881   5.596
 2933TIP3    H2 8764   6.184   1.754   5.677
 2934TIP3   OH2 8765   5.279   1.684   2.004
 2934TIP3    H1 8766   5.321   1.599   2.016
 2934TIP3    H2 8767   5.242   1.705   2.090
 2935TIP3   OH2 8768   6.905   0.344   0.193
 2935TIP3    H1 8769   6.953   0.268   0.161
 2935TIP3    H2 8770   6.942   0.362   0.279
 2936TIP3   OH2 8771   5.659   0.090   3.929
 2936TIP3    H1 8772   5.599   0.125   3.862
 2936TIP3    H2 8773   5.619   0.008   3.957
 2937TIP3   OH2 8774   5.341   6.611   3.518
 2937TIP3    H1 8775   5.279   6.624   3.590
 2937TIP3    H2 8776   5.403   6.685   3.527
 2938TIP3   OH2 8777   6.753   0.021   0.099
 2938TIP3    H1 8778   6.697   0.094   0.126
 2938TIP3    H2 8779   6.840   0.060   0.091
 2939TIP3   OH2 8780   2.055   4.103   2.354
 2939TIP3    H1 8781   1.991   4.069   2.291
 2939TIP3    H2 8782   2.111   4.162   2.303
 2940TIP3   OH2 8783   3.710   6.352   2.942
 2940TIP3    H1 8784   3.777   6.415   2.916
 2940TIP3    H2 8785   3.636   6.370   2.884
 2941TIP3   OH2 8786   5.316   2.411   3.832
 2941TIP3    H1 8787   5.387   2.348   3.828
 2941TIP3    H2 8788   5.328   2.466   3.754
 2942TIP3   OH2 8789   0.887   5.050   0.423
 2942TIP3    H1 8790   0.852   5.028   0.336
 2942TIP3    H2 8791   0.951   5.119   0.406
 2943TIP3   OH2 8792   1.160   4.399   3.869
 2943TIP3    H1 8793   1.068   4.413   3.888
 2943TIP3    H2 8794   1.206   4.449   3.937
 2944TIP3   OH2 8795   6.024   3.495   5.557
 2944TIP3    H1 8796   5.944   3.541   5.532
 2944TIP3    H2 8797   6.010   3.404   5.531
 2945TIP3   OH2 8798   1.384   0.427   3.439
 2945TIP3    H1 8799   1.393   0.495   3.506
 2945TIP3    H2 8800   1.471   0.420   3.399
 2946TIP3   OH2 8801   0.779   2.550   3.017
 2946TIP3    H1 8802   0.699   2.500   3.035
 2946TIP3    H2 8803   0.840   2.521   3.085
 2947TIP3   OH2 8804   1.643   3.087   4.603
 2947TIP3    H1 8805   1.701   3.091   4.679
 2947TIP3    H2 8806   1.694   3.126   4.532
 2948TIP3   OH2 8807   0.194   4.897   5.367
 2948TIP3    H1 8808   0.191   4.858   5.279
 2948TIP3    H2 8809   0.114   4.866   5.409
 2949TIP3   OH2 8810   5.938   5.790   3.069
 2949TIP3    H1 8811   5.953   5.884   3.079
 2949TIP3    H2 8812   5.843   5.779   3.082
 2950TIP3   OH2 8813   2.731   3.455   4.823
 2950TIP3    H1 8814   2.693   3.387   4.879
 2950TIP3    H2 8815   2.767   3.408   4.749
 2951TIP3   OH2 8816   4.351   5.679   4.182
 2951TIP3    H1 8817   4.445   5.695   4.184
 2951TIP3    H2 8818   4.322   5.697   4.272
 2952TIP3   OH2 8819   7.029   5.902   2.728
 2952TIP3    H1 8820   7.119   5.926   2.749
 2952TIP3    H2 8821   7.037   5.827   2.670
 2953TIP3   OH2 8822   6.957   5.646   0.226
 2953TIP3    H1 8823   6.988   5.563   0.262
 2953TIP3    H2 8824   6.948   5.630   0.132
 2954TIP3   OH2 8825   1.075   3.101   1.932
 2954TIP3    H1 8826   1.139   3.060   1.991
 2954TIP3    H2 8827   1.129   3.153   1.872
 2955TIP3   OH2 8828   5.235   3.648   5.402
 2955TIP3    H1 8829   5.235   3.562   5.443
 2955TIP3    H2 8830   5.245   3.630   5.309
 2956TIP3   OH2 8831   0.524   2.096   0.816
 2956TIP3    H1 8832   0.458   2.129   0.876
 2956TIP3    H2 8833   0.531   2.163   0.748
 2957TIP3   OH2 8834   2.906   2.710   1.394
 2957TIP3    H1 8835   2.968   2.778   1.368
 2957TIP3    H2 8836   2.925   2.637   1.335
 2958TIP3   OH2 8837   5.283   3.561   2.153
 2958TIP3    H1 8838   5.255   3.652   2.157
 2958TIP3    H2 8839   5.377   3.565   2.172
 2959TIP3   OH2 8840   4.630   1.375   5.678
 2959TIP3    H1 8841   4.644   1.469   5.663
 2959TIP3    H2 8842   4.700   1.350   5.739
 2960TIP3   OH2 8843   6.519   5.799   1.351
 2960TIP3    H1 8844   6.468   5.719   1.334
 2960TIP3    H2 8845   6.510   5.813   1.445
 2961TIP3   OH2 8846   5.560   1.932   0.103
 2961TIP3    H1 8847   5.509   2.013   0.097
 2961TIP3    H2 8848   5.495   1.863   0.114
 2962TIP3   OH2 8849   6.005   1.932   0.644
 2962TIP3    H1 8850   6.045   2.008   0.603
 2962TIP3    H2 8851   6.011   1.863   0.578
 2963TIP3   OH2 8852   5.134   1.357   5.015
 2963TIP3    H1 8853   5.099   1.290   4.956
 2963TIP3    H2 8854   5.075   1.355   5.090
 2964TIP3   OH2 8855   0.007   5.690   0.517
 2964TIP3    H1 8856  -0.020   5.707   0.427
 2964TIP3    H2 8857   0.102   5.702   0.517
 2965TIP3   OH2 8858   3.379   1.864   3.837
 2965TIP3    H1 8859   3.433   1.931   3.880
 2965TIP3    H2 8860   3.367   1.797   3.904
 2966TIP3   OH2 8861   6.698   1.643   1.963
 2966TIP3    H1 8862   6.756   1.719   1.960
 2966TIP3    H2 8863   6.741   1.578   1.907
 2967TIP3   OH2 8864   2.033   6.613   5.068
 2967TIP3    H1 8865   2.053   6.699   5.107
 2967TIP3    H2 8866   2.103   6.599   5.004
 2968TIP3   OH2 8867   2.139   3.544   4.011
 2968TIP3    H1 8868   2.233   3.556   3.996
 2968TIP3    H2 8869   2.098   3.594   3.941
 2969TIP3   OH2 8870   4.748   3.020   2.825
 2969TIP3    H1 8871   4.665   3.001   2.780
 2969TIP3    H2 8872   4.721   3.060   2.908
 2970TIP3   OH2 8873   0.791   3.228   4.180
 2970TIP3    H1 8874   0.768   3.185   4.098
 2970TIP3    H2 8875   0.707   3.243   4.224
 2971TIP3   OH2 8876   0.223   5.695   0.797
 2971TIP3    H1 8877   0.269   5.751   0.734
 2971TIP3    H2 8878   0.246   5.606   0.771
 2972TIP3   OH2 8879   0.775   6.749   3.414
 2972TIP3    H1 8880   0.755   6.676   3.472
 2972TIP3    H2 8881   0.796   6.822   3.473
 2973TIP3   OH2 8882   3.597   5.428   0.083
 2973TIP3    H1 8883   3.594   5.336   0.055
 2973TIP3    H2 8884   3.678   5.462   0.046
 2974TIP3   OH2 8885   1.886   0.637   1.681
 2974TIP3    H1 8886   1.903   0.731   1.693
 2974TIP3    H2 8887   1.803   0.621   1.726
 2975TIP3   OH2 8888   5.929   0.352   0.538
 2975TIP3    H1 8889   5.894   0.394   0.616
 2975TIP3    H2 8890   5.899   0.261   0.543
 2976TIP3   OH2 8891   5.934   6.141   0.082
 2976TIP3    H1 8892   5.912   6.053   0.111
 2976TIP3    H2 8893   5.973   6.129  -0.005
 2977TIP3   OH2 8894   1.709   3.740   5.706
 2977TIP3    H1 8895   1.784   3.773   5.754
 2977TIP3    H2 8896   1.685   3.812   5.646
 2978TIP3   OH2 8897   4.089   6.356   3.730
 2978TIP3    H1 8898   4.051   6.372   3.816
 2978TIP3    H2 8899   4.165   6.300   3.747
 2979TIP3   OH2 8900   5.163   6.801   1.445
 2979TIP3    H1 8901   5.120   6.855   1.511
 2979TIP3    H2 8902   5.216   6.739   1.494
 2980TIP3   OH2 8903   5.467   2.950   2.223
 2980TIP3    H1 8904   5.462   3.007   2.300
 2980TIP3    H2 8905   5.500   2.866   2.257
 2981TIP3   OH2 8906   6.005   3.941   5.091
 2981TIP3    H1 8907   5.999   3.969   5.182
 2981TIP3    H2 8908   5.934   3.878   5.080
 2982TIP3   OH2 8909   5.786   6.059   3.185
 2982TIP3    H1 8910   5.847   6.059   3.259
 2982TIP3    H2 8911   5.842   6.054   3.108
 2983TIP3   OH2 8912   1.429   2.348   3.264
 2983TIP3    H1 8913   1.421   2.405   3.341
 2983TIP3    H2 8914   1.460   2.406   3.194
 2984TIP3   OH2 8915   2.015   0.137   4.456
 2984TIP3    H1 8916   2.053   0.159   4.371
 2984TIP3    H2 8917   1.999   0.221   4.499
 2985TIP3   OH2 8918   6.947   4.908   0.566
 2985TIP3    H1 8919   6.917   4.831   0.517
 2985TIP3    H2 8920   7.010   4.872   0.628
 2986TIP3   OH2 8921   5.736   5.763   0.322
 2986TIP3    H1 8922   5.753   5.678   0.363
 2986TIP3    H2 8923   5.725   5.743   0.229
 2987TIP3   OH2 8924   1.120   5.089   2.179
 2987TIP3    H1 8925   1.160   5.101   2.093
 2987TIP3    H2 8926   1.184   5.038   2.228
 2988TIP3   OH2 8927   6.605   2.097   5.863
 2988TIP3    H1 8928   6.695   2.123   5.846
 2988TIP3    H2 8929   6.559   2.179   5.880
 2989TIP3   OH2 8930   2.863   4.053   3.721
 2989TIP3    H1 8931   2.788   3.998   3.742
 2989TIP3    H2 8932   2.939   3.999   3.743
 2990TIP3   OH2 8933   4.531   5.784   1.422
 2990TIP3    H1 8934   4.436   5.793   1.428
 2990TIP3    H2 8935   4.556   5.838   1.347
 2991TIP3   OH2 8936   0.145   1.045   1.781
 2991TIP3    H1 8937   0.098   0.990   1.718
 2991TIP3    H2 8938   0.081   1.110   1.809
 2992TIP3   OH2 8939   6.569   4.155   5.099
 2992TIP3    H1 8940   6.524   4.168   5.015
 2992TIP3    H2 8941   6.542   4.067   5.127
 2993TIP3   OH2 8942   6.395   2.163   1.913
 2993TIP3    H1 8943   6.354   2.077   1.905
 2993TIP3    H2 8944   6.321   2.225   1.911
 2994TIP3   OH2 8945   2.716   5.659   4.234
 2994TIP3    H1 8946   2.674   5.584   4.277
 2994TIP3    H2 8947   2.693   5.649   4.141
 2995TIP3   OH2 8948   3.379   2.446   4.751
 2995TIP3    H1 8949   3.465   2.433   4.710
 2995TIP3    H2 8950   3.399   2.488   4.834
 2996TIP3   OH2 8951   3.120   1.408   3.608
 2996TIP3    H1 8952   3.071   1.371   3.535
 2996TIP3    H2 8953   3.190   1.344   3.625
 2997TIP3   OH2 8954   3.043   4.300   5.283
 2997TIP3    H1 8955   3.046   4.341   5.196
 2997TIP3    H2 8956   2.950   4.293   5.303
 2998TIP3   OH2 8957   1.963   1.885   3.164
 2998TIP3    H1 8958   2.049   1.880   3.205
 2998TIP3    H2 8959   1.961   1.972   3.124
 2999TIP3   OH2 8960   2.217   1.499   0.540
 2999TIP3    H1 8961   2.278   1.552   0.489
 2999TIP3    H2 8962   2.135   1.548   0.537
 3000TIP3   OH2 8963   3.981   3.539   1.479
 3000TIP3    H1 8964   3.992   3.594   1.557
 3000TIP3    H2 8965   3.972   3.451   1.513
 3001TIP3   OH2 8966   4.761   4.728   1.009
 3001TIP3    H1 8967   4.668   4.752   1.011
 3001TIP3    H2 8968   4.761   4.634   1.029
 3002TIP3   OH2 8969   2.260   2.584   2.645
 3002TIP3    H1 8970   2.198   2.635   2.593
 3002TIP3    H2 8971   2.253   2.495   2.610
 3003TIP3   OH2 8972   1.013   3.663   4.088
 3003TIP3    H1 8973   1.024   3.680   4.182
 3003TIP3    H2 8974   1.051   3.576   4.076
 3004TIP3   OH2 8975   2.084   0.423   5.008
 3004TIP3    H1 8976   2.083   0.418   5.104
 3004TIP3    H2 8977   2.096   0.332   4.980
 3005TIP3   OH2 8978   6.170   1.687   5.208
 3005TIP3    H1 8979   6.247   1.718   5.160
 3005TIP3    H2 8980   6.111   1.762   5.210
 3006TIP3   OH2 8981   1.201   4.110   3.625
 3006TIP3    H1 8982   1.148   4.189   3.612
 3006TIP3    H2 8983   1.234   4.118   3.714
 3007TIP3   OH2 8984   0.600   1.386   1.644
 3007TIP3    H1 8985   0.690   1.398   1.675
 3007TIP3    H2 8986   0.596   1.295   1.614
 3008TIP3   OH2 8987   6.557   1.726   2.260
 3008TIP3    H1 8988   6.552   1.751   2.352
 3008TIP3    H2 8989   6.603   1.798   2.218
 3009TIP3   OH2 8990   5.299   4.679   1.652
 3009TIP3    H1 8991   5.362   4.609   1.639
 3009TIP3    H2 8992   5.274   4.706   1.564
 3010TIP3   OH2 8993   5.823   2.689   0.943
 3010TIP3    H1 8994   5.767   2.655   1.012
 3010TIP3    H2 8995   5.769   2.755   0.899
 3011TIP3   OH2 8996   2.599   6.519   3.414
 3011TIP3    H1 8997   2.548   6.575   3.354
 3011TIP3    H2 8998   2.533   6.480   3.471
 3012TIP3   OH2 8999   5.327   4.545   0.212
 3012TIP3    H1 9000   5.325   4.583   0.124
 3012TIP3    H2 9001   5.342   4.451   0.196
 3013TIP3   OH2 9002   3.653   6.292   3.802
 3013TIP3    H1 9003   3.559   6.307   3.813
 3013TIP3    H2 9004   3.684   6.273   3.890
 3014TIP3   OH2 9005   5.836   3.101   2.311
 3014TIP3    H1 9006   5.892   3.065   2.242
 3014TIP3    H2 9007   5.772   3.031   2.328
 3015TIP3   OH2 9008   6.977   5.080   4.723
 3015TIP3    H1 9009   6.886   5.107   4.741
 3015TIP3    H2 9010   6.973   5.043   4.635
 3016TIP3   OH2 9011   1.096   0.372   0.948
 3016TIP3    H1 9012   1.003   0.385   0.966
 3016TIP3    H2 9013   1.136   0.456   0.968
 3017TIP3   OH2 9014   6.078   3.827   3.876
 3017TIP3    H1 9015   6.072   3.733   3.890
 3017TIP3    H2 9016   6.128   3.859   3.951
 3018TIP3   OH2 9017   4.018   4.158   4.731
 3018TIP3    H1 9018   4.058   4.170   4.645
 3018TIP3    H2 9019   4.078   4.201   4.792
 3019TIP3   OH2 9020   5.845   5.709   3.814
 3019TIP3    H1 9021   5.933   5.719   3.776
 3019TIP3    H2 9022   5.808   5.797   3.813
 3020TIP3   OH2 9023   5.164   4.305   4.563
 3020TIP3    H1 9024   5.186   4.295   4.470
 3020TIP3    H2 9025   5.086   4.360   4.563
 3021TIP3   OH2 9026   3.038   4.681   4.301
 3021TIP3    H1 9027   3.013   4.729   4.222
 3021TIP3    H2 9028   3.033   4.589   4.276
 3022TIP3   OH2 9029   2.813   4.131   4.371
 3022TIP3    H1 9030   2.744   4.152   4.433
 3022TIP3    H2 9031   2.795   4.042   4.343
 3023TIP3   OH2 9032   7.228   5.332   3.214
 3023TIP3    H1 9033   7.162   5.263   3.218
 3023TIP3    H2 9034   7.193   5.395   3.152
 3024TIP3   OH2 9035   3.067   5.467   1.473
 3024TIP3    H1 9036   3.043   5.374   1.475
 3024TIP3    H2 9037   3.090   5.488   1.564
 3025TIP3   OH2 9038   5.771   1.269   3.075
 3025TIP3    H1 9039   5.819   1.239   3.152
 3025TIP3    H2 9040   5.699   1.322   3.111
 3026TIP3   OH2 9041   3.319   0.946   5.606
 3026TIP3    H1 9042   3.258   1.005   5.650
 3026TIP3    H2 9043   3.269   0.866   5.591
 3027TIP3   OH2 9044   2.186   2.199   2.824
 3027TIP3    H1 9045   2.154   2.227   2.737
 3027TIP3    H2 9046   2.250   2.266   2.848
 3028TIP3   OH2 9047   4.325   1.845   3.228
 3028TIP3    H1 9048   4.382   1.867   3.301
 3028TIP3    H2 9049   4.260   1.916   3.227
 3029TIP3   OH2 9050   4.416   3.464   2.277
 3029TIP3    H1 9051   4.490   3.524   2.286
 3029TIP3    H2 9052   4.412   3.419   2.361
 3030TIP3   OH2 9053   1.226   3.525   4.475
 3030TIP3    H1 9054   1.274   3.443   4.487
 3030TIP3    H2 9055   1.295   3.592   4.476
 3031TIP3   OH2 9056   5.955   2.560   2.133
 3031TIP3    H1 9057   5.938   2.600   2.218
 3031TIP3    H2 9058   5.923   2.624   2.070
 3032TIP3   OH2 9059   6.687   2.839   2.792
 3032TIP3    H1 9060   6.735   2.768   2.749
 3032TIP3    H2 9061   6.661   2.803   2.877
 3033TIP3   OH2 9062   4.327   1.738   3.823
 3033TIP3    H1 9063   4.286   1.721   3.739
 3033TIP3    H2 9064   4.305   1.829   3.843
 3034TIP3   OH2 9065   6.910   2.962   0.252
 3034TIP3    H1 9066   6.881   2.877   0.285
 3034TIP3    H2 9067   6.970   2.995   0.319
 3035TIP3   OH2 9068   4.994   1.614   4.519
 3035TIP3    H1 9069   5.084   1.582   4.511
 3035TIP3    H2 9070   4.954   1.596   4.434
 3036TIP3   OH2 9071   6.365   0.948   3.473
 3036TIP3    H1 9072   6.420   0.939   3.394
 3036TIP3    H2 9073   6.301   0.877   3.466
 3037TIP3   OH2 9074   3.984   6.769   3.945
 3037TIP3    H1 9075   3.955   6.678   3.935
 3037TIP3    H2 9076   3.942   6.799   4.025
 3038TIP3   OH2 9077   6.433   2.157   5.317
 3038TIP3    H1 9078   6.428   2.069   5.355
 3038TIP3    H2 9079   6.480   2.145   5.234
 3039TIP3   OH2 9080   5.793   0.196   2.313
 3039TIP3    H1 9081   5.763   0.148   2.236
 3039TIP3    H2 9082   5.713   0.231   2.353
 3040TIP3   OH2 9083   1.494   4.823   3.624
 3040TIP3    H1 9084   1.468   4.800   3.713
 3040TIP3    H2 9085   1.412   4.844   3.580
 3041TIP3   OH2 9086   0.362   5.431   4.476
 3041TIP3    H1 9087   0.387   5.486   4.402
 3041TIP3    H2 9088   0.445   5.396   4.509
 3042TIP3   OH2 9089   6.109   1.371   1.176
 3042TIP3    H1 9090   6.115   1.286   1.219
 3042TIP3    H2 9091   6.174   1.367   1.106
 3043TIP3   OH2 9092   5.772   5.507   0.465
 3043TIP3    H1 9093   5.854   5.553   0.483
 3043TIP3    H2 9094   5.758   5.451   0.541
 3044TIP3   OH2 9095   1.165   2.700   4.368
 3044TIP3    H1 9096   1.159   2.706   4.463
 3044TIP3    H2 9097   1.256   2.722   4.349
 3045TIP3   OH2 9098   1.187   0.855   2.910
 3045TIP3    H1 9099   1.129   0.812   2.846
 3045TIP3    H2 9100   1.169   0.949   2.898
 3046TIP3   OH2 9101   7.165   3.907   1.906
 3046TIP3    H1 9102   7.177   3.957   1.987
 3046TIP3    H2 9103   7.180   3.972   1.836
 3047TIP3   OH2 9104   6.170   0.305   5.883
 3047TIP3    H1 9105   6.194   0.397   5.894
 3047TIP3    H2 9106   6.253   0.258   5.891
 3048TIP3   OH2 9107   4.330   4.939   2.639
 3048TIP3    H1 9108   4.391   4.983   2.699
 3048TIP3    H2 9109   4.293   4.868   2.691
 3049TIP3   OH2 9110   1.975   6.585   0.004
 3049TIP3    H1 9111   1.965   6.585   0.099
 3049TIP3    H2 9112   1.934   6.504  -0.025
 3050TIP3   OH2 9113   0.752   4.570   1.624
 3050TIP3    H1 9114   0.724   4.612   1.542
 3050TIP3    H2 9115   0.731   4.478   1.612
 3051TIP3   OH2 9116   3.056   2.713   2.570
 3051TIP3    H1 9117   3.055   2.653   2.496
 3051TIP3    H2 9118   3.122   2.676   2.630
 3052TIP3   OH2 9119   5.876   3.585   1.628
 3052TIP3    H1 9120   5.878   3.625   1.715
 3052TIP3    H2 9121   5.814   3.638   1.578
 3053TIP3   OH2 9122   5.395   4.407   0.976
 3053TIP3    H1 9123   5.438   4.326   0.948
 3053TIP3    H2 9124   5.459   4.451   1.032
 3054TIP3   OH2 9125   0.231   4.785   2.788
 3054TIP3    H1 9126   0.195   4.828   2.866
 3054TIP3    H2 9127   0.154   4.768   2.734
 3055TIP3   OH2 9128   5.306   5.269   3.156
 3055TIP3    H1 9129   5.374   5.337   3.165
 3055TIP3    H2 9130   5.239   5.310   3.102
 3056TIP3   OH2 9131   3.774   4.211   2.486
 3056TIP3    H1 9132   3.747   4.149   2.418
 3056TIP3    H2 9133   3.855   4.174   2.521
 3057TIP3   OH2 9134   6.977   1.347   4.298
 3057TIP3    H1 9135   7.014   1.435   4.287
 3057TIP3    H2 9136   6.979   1.332   4.392
 3058TIP3   OH2 9137   1.581   4.736   5.223
 3058TIP3    H1 9138   1.660   4.685   5.238
 3058TIP3    H2 9139   1.549   4.707   5.137
 3059TIP3   OH2 9140   0.292   2.729   4.021
 3059TIP3    H1 9141   0.291   2.682   3.938
 3059TIP3    H2 9142   0.311   2.661   4.086
 3060TIP3   OH2 9143   0.877   5.634   3.076
 3060TIP3    H1 9144   0.881   5.723   3.040
 3060TIP3    H2 9145   0.795   5.632   3.126
 3061TIP3   OH2 9146   4.014   2.134   4.648
 3061TIP3    H1 9147   4.002   2.180   4.731
 3061TIP3    H2 9148   4.109   2.131   4.636
 3062TIP3   OH2 9149   3.710   2.122   2.336
 3062TIP3    H1 9150   3.790   2.105   2.384
 3062TIP3    H2 9151   3.709   2.057   2.266
 3063TIP3   OH2 9152   3.597   0.539   2.738
 3063TIP3    H1 9153   3.565   0.558   2.650
 3063TIP3    H2 9154   3.687   0.509   2.725
 3064TIP3   OH2 9155   6.495   5.184   2.235
 3064TIP3    H1 9156   6.503   5.095   2.269
 3064TIP3    H2 9157   6.491   5.172   2.140
 3065TIP3   OH2 9158   0.486   4.079   3.929
 3065TIP3    H1 9159   0.413   4.029   3.892
 3065TIP3    H2 9160   0.455   4.169   3.932
 3066TIP3   OH2 9161   0.082   5.465   3.901
 3066TIP3    H1 9162   0.105   5.494   3.990
 3066TIP3    H2 9163   0.111   5.374   3.897
 3067TIP3   OH2 9164   2.041   3.350   3.783
 3067TIP3    H1 9165   2.083   3.360   3.698
 3067TIP3    H2 9166   1.991   3.431   3.794
 3068TIP3   OH2 9167   4.428   5.338   0.916
 3068TIP3    H1 9168   4.520   5.345   0.942
 3068TIP3    H2 9169   4.406   5.425   0.883
 3069TIP3   OH2 9170   1.084   4.385   2.313
 3069TIP3    H1 9171   1.088   4.320   2.243
 3069TIP3    H2 9172   1.049   4.463   2.272
 3070TIP3   OH2 9173   2.137   6.065   1.192
 3070TIP3    H1 9174   2.145   5.971   1.179
 3070TIP3    H2 9175   2.228   6.097   1.191
 3071TIP3   OH2 9176   0.002   4.060   2.149
 3071TIP3    H1 9177  -0.043   4.139   2.180
 3071TIP3    H2 9178   0.085   4.093   2.113
 3072TIP3   OH2 9179   0.855   1.576   5.167
 3072TIP3    H1 9180   0.884   1.570   5.258
 3072TIP3    H2 9181   0.924   1.623   5.122
 3073TIP3   OH2 9182   0.475   3.279   2.936
 3073TIP3    H1 9183   0.486   3.326   2.853
 3073TIP3    H2 9184   0.561   3.281   2.977
 3074TIP3   OH2 9185   4.634   0.412   4.575
 3074TIP3    H1 9186   4.600   0.372   4.495
 3074TIP3    H2 9187   4.727   0.389   4.575
 3075TIP3   OH2 9188   3.500   2.386   3.234
 3075TIP3    H1 9189   3.490   2.317   3.169
 3075TIP3    H2 9190   3.421   2.381   3.287
 3076TIP3   OH2 9191   6.225   5.847   1.100
 3076TIP3    H1 9192   6.212   5.906   1.025
 3076TIP3    H2 9193   6.297   5.790   1.073
 3077TIP3   OH2 9194   5.867   0.306   2.925
 3077TIP3    H1 9195   5.862   0.399   2.905
 3077TIP3    H2 9196   5.949   0.295   2.972
 3078TIP3   OH2 9197   0.679   1.430   3.837
 3078TIP3    H1 9198   0.598   1.379   3.845
 3078TIP3    H2 9199   0.686   1.477   3.920
 3079TIP3   OH2 9200   1.011   2.452   4.794
 3079TIP3    H1 9201   1.078   2.474   4.859
 3079TIP3    H2 9202   0.932   2.436   4.846
 3080TIP3   OH2 9203   5.801   0.984   1.313
 3080TIP3    H1 9204   5.857   0.946   1.245
 3080TIP3    H2 9205   5.758   0.909   1.354
 3081TIP3   OH2 9206   7.229   6.623   1.383
 3081TIP3    H1 9207   7.270   6.640   1.298
 3081TIP3    H2 9208   7.160   6.559   1.364
 3082TIP3   OH2 9209   2.058   4.218   1.680
 3082TIP3    H1 9210   2.017   4.304   1.672
 3082TIP3    H2 9211   2.124   4.216   1.611
 3083TIP3   OH2 9212   2.465   5.954   3.583
 3083TIP3    H1 9213   2.467   5.878   3.525
 3083TIP3    H2 9214   2.396   6.010   3.547
 3084TIP3   OH2 9215   1.038   1.293   3.539
 3084TIP3    H1 9216   0.978   1.284   3.613
 3084TIP3    H2 9217   1.004   1.366   3.489
 3085TIP3   OH2 9218   6.721   1.474   2.226
 3085TIP3    H1 9219   6.770   1.392   2.218
 3085TIP3    H2 9220   6.782   1.534   2.268
 3086TIP3   OH2 9221   3.016   6.336   0.529
 3086TIP3    H1 9222   2.984   6.371   0.446
 3086TIP3    H2 9223   3.093   6.390   0.549
 3087TIP3   OH2 9224   2.397   6.389   5.063
 3087TIP3    H1 9225   2.466   6.365   5.002
 3087TIP3    H2 9226   2.349   6.460   5.020
 3088TIP3   OH2 9227   0.929   1.397   4.871
 3088TIP3    H1 9228   0.884   1.338   4.932
 3088TIP3    H2 9229   0.980   1.454   4.927
 3089TIP3   OH2 9230   2.785   1.758   5.795
 3089TIP3    H1 9231   2.707   1.808   5.820
 3089TIP3    H2 9232   2.751   1.685   5.744
 3090TIP3   OH2 9233   5.797   5.523   1.958
 3090TIP3    H1 9234   5.735   5.477   2.016
 3090TIP3    H2 9235   5.842   5.453   1.911
 3091TIP3   OH2 9236   3.165   0.188   1.837
 3091TIP3    H1 9237   3.200   0.101   1.854
 3091TIP3    H2 9238   3.098   0.201   1.905
 3092TIP3   OH2 9239   6.881   0.758   4.519
 3092TIP3    H1 9240   6.872   0.717   4.433
 3092TIP3    H2 9241   6.796   0.799   4.536
 3093TIP3   OH2 9242   0.294   6.052   1.548
 3093TIP3    H1 9243   0.369   6.047   1.489
 3093TIP3    H2 9244   0.319   6.001   1.625
 3094TIP3   OH2 9245   4.710   6.360   5.870
 3094TIP3    H1 9246   4.692   6.278   5.916
 3094TIP3    H2 9247   4.672   6.348   5.783
 3095TIP3   OH2 9248   1.058   4.221   2.064
 3095TIP3    H1 9249   1.038   4.147   2.122
 3095TIP3    H2 9250   0.974   4.243   2.024
 3096TIP3   OH2 9251   6.561   0.104   1.442
 3096TIP3    H1 9252   6.472   0.132   1.462
 3096TIP3    H2 9253   6.564   0.012   1.467
 3097TIP3   OH2 9254   2.159   1.332   0.232
 3097TIP3    H1 9255   2.134   1.375   0.314
 3097TIP3    H2 9256   2.088   1.271   0.215
 3098TIP3   OH2 9257   3.516   6.344   2.746
 3098TIP3    H1 9258   3.526   6.268   2.689
 3098TIP3    H2 9259   3.423   6.346   2.768
 3099TIP3   OH2 9260   6.975   6.436   3.924
 3099TIP3    H1 9261   6.977   6.391   4.009
 3099TIP3    H2 9262   6.909   6.504   3.935
 3100TIP3   OH2 9263   6.165   3.616   4.819
 3100TIP3    H1 9264   6.085   3.642   4.865
 3100TIP3    H2 9265   6.134   3.559   4.749
 3101TIP3   OH2 9266   3.610   5.819   4.887
 3101TIP3    H1 9267   3.657   5.828   4.804
 3101TIP3    H2 9268   3.635   5.733   4.919
 3102TIP3   OH2 9269   2.395   0.797   2.565
 3102TIP3    H1 9270   2.327   0.866   2.567
 3102TIP3    H2 9271   2.381   0.752   2.483
 3103TIP3   OH2 9272   1.255   1.723   2.996
 3103TIP3    H1 9273   1.246   1.744   2.903
 3103TIP3    H2 9274   1.165   1.729   3.031
 3104TIP3   OH2 9275   5.021   0.675   4.035
 3104TIP3    H1 9276   4.976   0.748   4.078
 3104TIP3    H2 9277   5.048   0.618   4.107
 3105TIP3   OH2 9278   0.695   6.159   3.997
 3105TIP3    H1 9279   0.634   6.159   4.071
 3105TIP3    H2 9280   0.761   6.225   4.019
 3106TIP3   OH2 9281   2.048   0.924   4.121
 3106TIP3    H1 9282   2.017   0.951   4.207
 3106TIP3    H2 9283   1.969   0.915   4.068
 3107TIP3   OH2 9284   4.627   3.182   4.629
 3107TIP3    H1 9285   4.693   3.121   4.661
 3107TIP3    H2 9286   4.544   3.137   4.645
 3108TIP3   OH2 9287   5.098   5.287   1.904
 3108TIP3    H1 9288   5.065   5.371   1.934
 3108TIP3    H2 9289   5.170   5.266   1.964
 3109TIP3   OH2 9290   1.744   4.567   5.668
 3109TIP3    H1 9291   1.717   4.516   5.745
 3109TIP3    H2 9292   1.838   4.555   5.663
 3110TIP3   OH2 9293   2.967   5.106   3.977
 3110TIP3    H1 9294   3.014   5.080   3.897
 3110TIP3    H2 9295   3.035   5.112   4.044
 3111TIP3   OH2 9296   6.808   5.896   5.897
 3111TIP3    H1 9297   6.742   5.952   5.937
 3111TIP3    H2 9298   6.759   5.818   5.869
 3112TIP3   OH2 9299   0.050   4.068   1.130
 3112TIP3    H1 9300  -0.025   4.055   1.188
 3112TIP3    H2 9301   0.078   3.979   1.106
 3113TIP3   OH2 9302   5.964   6.231   1.404
 3113TIP3    H1 9303   6.045   6.210   1.451
 3113TIP3    H2 9304   5.894   6.207   1.465
 3114TIP3   OH2 9305   6.823   4.631   3.877
 3114TIP3    H1 9306   6.903   4.657   3.923
 3114TIP3    H2 9307   6.827   4.536   3.875
 3115TIP3   OH2 9308   7.147   0.356   5.764
 3115TIP3    H1 9309   7.210   0.309   5.818
 3115TIP3    H2 9310   7.196   0.433   5.733
 3116TIP3   OH2 9311   2.045   5.456   0.338
 3116TIP3    H1 9312   1.983   5.528   0.322
 3116TIP3    H2 9313   2.031   5.396   0.265
 3117TIP3   OH2 9314   5.817   5.373   5.456
 3117TIP3    H1 9315   5.768   5.370   5.538
 3117TIP3    H2 9316   5.870   5.452   5.463
 3118TIP3   OH2 9317   0.895   4.724   4.003
 3118TIP3    H1 9318   0.820   4.757   3.953
 3118TIP3    H2 9319   0.971   4.744   3.949
 3119TIP3   OH2 9320   5.684   2.839   2.010
 3119TIP3    H1 9321   5.701   2.818   2.102
 3119TIP3    H2 9322   5.591   2.864   2.008
 3120TIP3   OH2 9323   3.106   6.734   2.531
 3120TIP3    H1 9324   3.113   6.688   2.447
 3120TIP3    H2 9325   3.048   6.808   2.513
 3121TIP3   OH2 9326   5.107   6.759   0.513
 3121TIP3    H1 9327   5.012   6.763   0.521
 3121TIP3    H2 9328   5.124   6.788   0.423
 3122TIP3   OH2 9329   3.097   2.384   2.137
 3122TIP3    H1 9330   3.041   2.432   2.075
 3122TIP3    H2 9331   3.184   2.419   2.123
 3123TIP3   OH2 9332   3.216   2.728   3.481
 3123TIP3    H1 9333   3.169   2.810   3.496
 3123TIP3    H2 9334   3.222   2.720   3.386
 3124TIP3   OH2 9335   0.877   1.726   2.776
 3124TIP3    H1 9336   0.825   1.647   2.790
 3124TIP3    H2 9337   0.966   1.700   2.797
 3125TIP3   OH2 9338   3.098   5.623   4.623
 3125TIP3    H1 9339   3.152   5.633   4.701
 3125TIP3    H2 9340   3.047   5.544   4.639
 3126TIP3   OH2 9341   7.144   1.686   5.049
 3126TIP3    H1 9342   7.077   1.740   5.091
 3126TIP3    H2 9343   7.180   1.633   5.120
 3127TIP3   OH2 9344   2.924   5.025   1.189
 3127TIP3    H1 9345   2.972   5.074   1.255
 3127TIP3    H2 9346   2.907   5.088   1.119
 3128TIP3   OH2 9347   7.227   6.507   5.135
 3128TIP3    H1 9348   7.138   6.493   5.167
 3128TIP3    H2 9349   7.216   6.553   5.051
 3129TIP3   OH2 9350   5.036   4.306   0.020
 3129TIP3    H1 9351   4.977   4.375   0.049
 3129TIP3    H2 9352   5.068   4.266   0.101
 3130TIP3   OH2 9353   6.579   2.090   3.979
 3130TIP3    H1 9354   6.645   2.021   3.982
 3130TIP3    H2 9355   6.629   2.171   3.988
 3131TIP3   OH2 9356   0.866   4.944   2.972
 3131TIP3    H1 9357   0.796   4.886   3.003
 3131TIP3    H2 9358   0.878   5.007   3.042
 3132TIP3   OH2 9359   4.283   4.789   1.499
 3132TIP3    H1 9360   4.329   4.785   1.415
 3132TIP3    H2 9361   4.219   4.718   1.494
 3133TIP3   OH2 9362   4.524   6.034   4.798
 3133TIP3    H1 9363   4.443   5.993   4.829
 3133TIP3    H2 9364   4.575   5.962   4.762
 3134TIP3   OH2 9365   5.682   0.636   3.700
 3134TIP3    H1 9366   5.621   0.638   3.773
 3134TIP3    H2 9367   5.674   0.722   3.659
 3135TIP3   OH2 9368   2.118   3.229   0.807
 3135TIP3    H1 9369   2.097   3.322   0.818
 3135TIP3    H2 9370   2.180   3.209   0.877
 3136TIP3   OH2 9371   4.198   2.330   4.803
 3136TIP3    H1 9372   4.273   2.284   4.764
 3136TIP3    H2 9373   4.167   2.271   4.871
 3137TIP3   OH2 9374   4.769   1.053   5.264
 3137TIP3    H1 9375   4.854   1.077   5.226
 3137TIP3    H2 9376   4.744   1.129   5.317
 3138TIP3   OH2 9377   4.903   2.534   2.582
 3138TIP3    H1 9378   4.985   2.585   2.583
 3138TIP3    H2 9379   4.929   2.449   2.547
 3139TIP3   OH2 9380   4.116   5.970   0.101
 3139TIP3    H1 9381   4.200   6.013   0.116
 3139TIP3    H2 9382   4.055   6.041   0.083
 3140TIP3   OH2 9383   2.299   3.286   0.448
 3140TIP3    H1 9384   2.244   3.215   0.481
 3140TIP3    H2 9385   2.246   3.328   0.380
 3141TIP3   OH2 9386   0.154   2.727   3.303
 3141TIP3    H1 9387   0.161   2.763   3.215
 3141TIP3    H2 9388   0.242   2.696   3.324
 3142TIP3   OH2 9389   3.542   4.025   3.595
 3142TIP3    H1 9390   3.606   4.009   3.525
 3142TIP3    H2 9391   3.577   3.977   3.671
 3143TIP3   OH2 9392  -0.005   1.193   3.015
 3143TIP3    H1 9393   0.066   1.166   3.073
 3143TIP3    H2 9394   0.035   1.201   2.929
 3144TIP3   OH2 9395   1.321   1.483   4.587
 3144TIP3    H1 9396   1.289   1.574   4.590
 3144TIP3    H2 9397   1.251   1.432   4.628
 3145TIP3   OH2 9398   3.891   6.688   3.592
 3145TIP3    H1 9399   3.976   6.649   3.611
 3145TIP3    H2 9400   3.841   6.677   3.673
 3146TIP3   OH2 9401   0.141   6.718   3.045
 3146TIP3    H1 9402   0.056   6.688   3.077
 3146TIP3    H2 9403   0.203   6.696   3.115
 3147TIP3   OH2 9404   4.386   1.526   5.726
 3147TIP3    H1 9405   4.469   1.485   5.702
 3147TIP3    H2 9406   4.319   1.470   5.688
 3148TIP3   OH2 9407   2.733   4.616   4.455
 3148TIP3    H1 9408   2.809   4.584   4.407
 3148TIP3    H2 9409   2.718   4.551   4.523
 3149TIP3   OH2 9410   3.139   3.959   1.842
 3149TIP3    H1 9411   3.228   3.950   1.807
 3149TIP3    H2 9412   3.088   3.893   1.795
 3150TIP3   OH2 9413   6.008   2.222   2.352
 3150TIP3    H1 9414   5.938   2.246   2.413
 3150TIP3    H2 9415   6.084   2.272   2.381
 3151TIP3   OH2 9416   4.443   5.174   5.548
 3151TIP3    H1 9417   4.446   5.079   5.560
 3151TIP3    H2 9418   4.386   5.186   5.472
 3152TIP3   OH2 9419   5.958   4.882   4.884
 3152TIP3    H1 9420   5.865   4.895   4.903
 3152TIP3    H2 9421   5.961   4.856   4.792
 3153TIP3   OH2 9422   6.995   6.472   3.481
 3153TIP3    H1 9423   7.062   6.490   3.548
 3153TIP3    H2 9424   7.041   6.423   3.413
 3154TIP3   OH2 9425   1.947   2.461   2.459
 3154TIP3    H1 9426   1.960   2.540   2.511
 3154TIP3    H2 9427   1.852   2.450   2.455
 3155TIP3   OH2 9428   0.520   1.844   0.650
 3155TIP3    H1 9429   0.542   1.787   0.723
 3155TIP3    H2 9430   0.491   1.926   0.691
 3156TIP3   OH2 9431   7.176   4.789   5.452
 3156TIP3    H1 9432   7.109   4.857   5.456
 3156TIP3    H2 9433   7.126   4.707   5.442
 3157TIP3   OH2 9434   1.621   1.247   0.235
 3157TIP3    H1 9435   1.645   1.210   0.320
 3157TIP3    H2 9436   1.579   1.176   0.188
 3158TIP3   OH2 9437   6.391   3.148   2.219
 3158TIP3    H1 9438   6.440   3.229   2.226
 3158TIP3    H2 9439   6.344   3.155   2.136
 3159TIP3   OH2 9440   2.512   6.138   2.609
 3159TIP3    H1 9441   2.548   6.176   2.689
 3159TIP3    H2 9442   2.508   6.044   2.627
 3160TIP3   OH2 9443   6.313   1.365   2.923
 3160TIP3    H1 9444   6.323   1.407   3.008
 3160TIP3    H2 9445   6.370   1.288   2.926
 3161TIP3   OH2 9446   4.432   4.156   0.768
 3161TIP3    H1 9447   4.382   4.086   0.726
 3161TIP3    H2 9448   4.426   4.230   0.708
 3162TIP3   OH2 9449   4.544   1.061   5.062
 3162TIP3    H1 9450   4.580   1.005   5.131
 3162TIP3    H2 9451   4.620   1.083   5.008
 3163TIP3   OH2 9452   1.770   2.225   4.022
 3163TIP3    H1 9453   1.742   2.311   4.054
 3163TIP3    H2 9454   1.688   2.180   4.001
 3164TIP3   OH2 9455   1.663   2.647   4.352
 3164TIP3    H1 9456   1.720   2.668   4.278
 3164TIP3    H2 9457   1.709   2.577   4.398
 3165TIP3   OH2 9458   2.044   3.379   4.746
 3165TIP3    H1 9459   1.997   3.428   4.679
 3165TIP3    H2 9460   2.063   3.444   4.814
 3166TIP3   OH2 9461   0.024   6.656   2.801
 3166TIP3    H1 9462   0.091   6.665   2.869
 3166TIP3    H2 9463   0.047   6.721   2.735
 3167TIP3   OH2 9464   3.335   3.084   0.602
 3167TIP3    H1 9465   3.361   3.142   0.530
 3167TIP3    H2 9466   3.416   3.068   0.650
 3168TIP3   OH2 9467   5.652   1.760   1.673
 3168TIP3    H1 9468   5.710   1.684   1.676
 3168TIP3    H2 9469   5.711   1.833   1.651
 3169TIP3   OH2 9470   3.790   3.054   0.252
 3169TIP3    H1 9471   3.727   2.984   0.266
 3169TIP3    H2 9472   3.843   3.055   0.332
 3170TIP3   OH2 9473   0.225   5.639   0.242
 3170TIP3    H1 9474   0.202   5.548   0.260
 3170TIP3    H2 9475   0.163   5.666   0.174
 3171TIP3   OH2 9476   6.181   2.079   0.059
 3171TIP3    H1 9477   6.213   2.024  -0.012
 3171TIP3    H2 9478   6.088   2.093   0.039
 3172TIP3   OH2 9479   4.610   4.249   3.337
 3172TIP3    H1 9480   4.530   4.223   3.382
 3172TIP3    H2 9481   4.681   4.210   3.388
 3173TIP3   OH2 9482   0.158   4.732   5.149
 3173TIP3    H1 9483   0.161   4.768   5.060
 3173TIP3    H2 9484   0.073   4.688   5.154
 3174TIP3   OH2 9485   1.269   4.437   3.609
 3174TIP3    H1 9486   1.300   4.525   3.629
 3174TIP3    H2 9487   1.200   4.420   3.672
 3175TIP3   OH2 9488   0.005   2.339   4.234
 3175TIP3    H1 9489   0.093   2.309   4.212
 3175TIP3    H2 9490  -0.041   2.261   4.266
 3176TIP3   OH2 9491   3.135   2.151   1.330
 3176TIP3    H1 9492   3.087   2.205   1.392
 3176TIP3    H2 9493   3.209   2.116   1.380
 3177TIP3   OH2 9494   0.608   5.720   3.215
 3177TIP3    H1 9495   0.539   5.654   3.202
 3177TIP3    H2 9496   0.586   5.762   3.298
 3178TIP3   OH2 9497   5.128   3.874   5.666
 3178TIP3    H1 9498   5.083   3.922   5.735
 3178TIP3    H2 9499   5.087   3.904   5.585
 3179TIP3   OH2 9500   5.977   6.459   3.882
 3179TIP3    H1 9501   5.916   6.524   3.918
 3179TIP3    H2 9502   6.055   6.509   3.860
 3180TIP3   OH2 9503   4.136   4.559   1.453
 3180TIP3    H1 9504   4.090   4.563   1.369
 3180TIP3    H2 9505   4.173   4.470   1.457
 3181TIP3   OH2 9506   2.274   3.675   3.530
 3181TIP3    H1 9507   2.224   3.734   3.586
 3181TIP3    H2 9508   2.299   3.730   3.455
 3182TIP3   OH2 9509   5.468   3.015   0.644
 3182TIP3    H1 9510   5.376   2.988   0.650
 3182TIP3    H2 9511   5.512   2.966   0.714
 3183TIP3   OH2 9512   6.511   1.469   5.721
 3183TIP3    H1 9513   6.489   1.404   5.654
 3183TIP3    H2 9514   6.605   1.457   5.735
 3184TIP3   OH2 9515   2.938   0.650   1.486
 3184TIP3    H1 9516   2.850   0.668   1.452
 3184TIP3    H2 9517   2.958   0.562   1.456
 3185TIP3   OH2 9518   4.981   2.697   1.735
 3185TIP3    H1 9519   5.013   2.654   1.656
 3185TIP3    H2 9520   4.939   2.777   1.704
 3186TIP3   OH2 9521   1.741   2.189   3.003
 3186TIP3    H1 9522   1.725   2.283   3.011
 3186TIP3    H2 9523   1.826   2.175   3.045
 3187TIP3   OH2 9524   0.294   1.379   5.689
 3187TIP3    H1 9525   0.336   1.464   5.700
 3187TIP3    H2 9526   0.356   1.316   5.725
 3188TIP3   OH2 9527   2.699   1.250   4.657
 3188TIP3    H1 9528   2.736   1.337   4.666
 3188TIP3    H2 9529   2.714   1.226   4.566
 3189TIP3   OH2 9530   5.995   2.378   3.253
 3189TIP3    H1 9531   5.943   2.348   3.179
 3189TIP3    H2 9532   5.943   2.354   3.330
 3190TIP3   OH2 9533   1.809   0.158   4.224
 3190TIP3    H1 9534   1.812   0.253   4.227
 3190TIP3    H2 9535   1.900   0.131   4.212
 3191TIP3   OH2 9536   2.909   4.641   1.034
 3191TIP3    H1 9537   2.991   4.601   1.005
 3191TIP3    H2 9538   2.843   4.608   0.972
 3192TIP3   OH2 9539   4.051   0.825   3.494
 3192TIP3    H1 9540   4.076   0.864   3.410
 3192TIP3    H2 9541   3.963   0.789   3.479
 3193TIP3   OH2 9542   1.952   3.786   4.130
 3193TIP3    H1 9543   1.987   3.703   4.098
 3193TIP3    H2 9544   1.955   3.778   4.225
 3194TIP3   OH2 9545   1.742   0.015   1.759
 3194TIP3    H1 9546   1.806  -0.046   1.796
 3194TIP3    H2 9547   1.795   0.080   1.713
 3195TIP3   OH2 9548   3.868   0.657   5.513
 3195TIP3    H1 9549   3.931   0.587   5.530
 3195TIP3    H2 9550   3.793   0.612   5.473
 3196TIP3   OH2 9551   1.474   0.786   2.025
 3196TIP3    H1 9552   1.410   0.723   1.993
 3196TIP3    H2 9553   1.432   0.871   2.011
 3197TIP3   OH2 9554   5.158   3.390   0.915
 3197TIP3    H1 9555   5.153   3.371   0.821
 3197TIP3    H2 9556   5.084   3.344   0.952
 3198TIP3   OH2 9557   1.090   4.231   0.752
 3198TIP3    H1 9558   1.025   4.228   0.682
 3198TIP3    H2 9559   1.142   4.151   0.739
 3199TIP3   OH2 9560   1.379   2.546   1.715
 3199TIP3    H1 9561   1.329   2.627   1.700
 3199TIP3    H2 9562   1.314   2.476   1.706
 3200TIP3   OH2 9563   4.043   4.196   5.846
 3200TIP3    H1 9564   4.088   4.172   5.927
 3200TIP3    H2 9565   4.095   4.266   5.808
 3201TIP3   OH2 9566   7.174   3.890   5.677
 3201TIP3    H1 9567   7.151   3.902   5.769
 3201TIP3    H2 9568   7.224   3.808   5.676
 3202TIP3   OH2 9569   1.354   0.437   5.490
 3202TIP3    H1 9570   1.389   0.524   5.505
 3202TIP3    H2 9571   1.354   0.427   5.394
 3203TIP3   OH2 9572   6.392   2.396   5.046
 3203TIP3    H1 9573   6.331   2.383   5.118
 3203TIP3    H2 9574   6.445   2.471   5.072
 3204TIP3   OH2 9575   0.566   2.444   4.042
 3204TIP3    H1 9576   0.596   2.354   4.037
 3204TIP3    H2 9577   0.642   2.497   4.017
 3205TIP3   OH2 9578   1.853   4.892   4.492
 3205TIP3    H1 9579   1.911   4.966   4.475
 3205TIP3    H2 9580   1.830   4.899   4.584
 3206TIP3   OH2 9581   5.175   0.467   1.309
 3206TIP3    H1 9582   5.106   0.428   1.362
 3206TIP3    H2 9583   5.130   0.496   1.229
 3207TIP3   OH2 9584   5.252   6.066   5.852
 3207TIP3    H1 9585   5.270   6.158   5.836
 3207TIP3    H2 9586   5.252   6.026   5.764
 3208TIP3   OH2 9587   3.978   0.785   0.592
 3208TIP3    H1 9588   3.916   0.790   0.519
 3208TIP3    H2 9589   4.046   0.848   0.569
 3209TIP3   OH2 9590   3.182   6.357   4.035
 3209TIP3    H1 9591   3.239   6.303   4.089
 3209TIP3    H2 9592   3.094   6.322   4.051
 3210TIP3   OH2 9593   0.396   2.335   1.324
 3210TIP3    H1 9594   0.379   2.337   1.419
 3210TIP3    H2 9595   0.481   2.377   1.314
 3211TIP3   OH2 9596   0.330   3.890   1.048
 3211TIP3    H1 9597   0.400   3.828   1.027
 3211TIP3    H2 9598   0.304   3.925   0.963
 3212TIP3   OH2 9599   1.135   4.685   1.050
 3212TIP3    H1 9600   1.042   4.694   1.073
 3212TIP3    H2 9601   1.169   4.624   1.115
 3213TIP3   OH2 9602   6.721   4.811   4.565
 3213TIP3    H1 9603   6.703   4.783   4.654
 3213TIP3    H2 9604   6.695   4.736   4.511
 3214TIP3   OH2 9605   0.496   1.957   4.682
 3214TIP3    H1 9606   0.538   2.019   4.742
 3214TIP3    H2 9607   0.538   1.873   4.701
 3215TIP3   OH2 9608   0.261   6.653   0.470
 3215TIP3    H1 9609   0.256   6.595   0.394
 3215TIP3    H2 9610   0.195   6.619   0.530
 3216TIP3   OH2 9611   7.022   3.200   1.105
 3216TIP3    H1 9612   6.947   3.152   1.141
 3216TIP3    H2 9613   7.013   3.289   1.139
 3217TIP3   OH2 9614   4.304   4.056   2.594
 3217TIP3    H1 9615   4.357   3.981   2.566
 3217TIP3    H2 9616   4.366   4.129   2.597
 3218TIP3   OH2 9617   5.409   5.755   4.514
 3218TIP3    H1 9618   5.349   5.779   4.585
 3218TIP3    H2 9619   5.443   5.839   4.482
 3219TIP3   OH2 9620   0.559   4.240   4.488
 3219TIP3    H1 9621   0.495   4.256   4.419
 3219TIP3    H2 9622   0.643   4.235   4.441
 3220TIP3   OH2 9623   0.006   1.567   1.297
 3220TIP3    H1 9624   0.060   1.646   1.299
 3220TIP3    H2 9625   0.041   1.517   1.224
 3221TIP3   OH2 9626   2.811   2.028   2.643
 3221TIP3    H1 9627   2.727   2.067   2.666
 3221TIP3    H2 9628   2.823   1.957   2.706
 3222TIP3   OH2 9629   4.424   1.800   0.082
 3222TIP3    H1 9630   4.479   1.856   0.137
 3222TIP3    H2 9631   4.470   1.796  -0.002
 3223TIP3   OH2 9632   1.121   5.077   2.609
 3223TIP3    H1 9633   1.030   5.094   2.633
 3223TIP3    H2 9634   1.117   5.007   2.545
 3224TIP3   OH2 9635   6.548   6.292   0.258
 3224TIP3    H1 9636   6.632   6.264   0.293
 3224TIP3    H2 9637   6.519   6.219   0.203
 3225TIP3   OH2 9638   4.159   2.404   1.596
 3225TIP3    H1 9639   4.252   2.426   1.596
 3225TIP3    H2 9640   4.156   2.315   1.631
 3226TIP3   OH2 9641   2.383   2.892   5.459
 3226TIP3    H1 9642   2.467   2.896   5.413
 3226TIP3    H2 9643   2.343   2.977   5.443
 3227TIP3   OH2 9644   1.217   1.125   3.415
 3227TIP3    H1 9645   1.174   1.191   3.470
 3227TIP3    H2 9646   1.288   1.091   3.470
 3228TIP3   OH2 9647   4.636   2.726   2.662
 3228TIP3    H1 9648   4.597   2.649   2.620
 3228TIP3    H2 9649   4.561   2.779   2.689
 3229TIP3   OH2 9650   1.871   4.418   5.442
 3229TIP3    H1 9651   1.780   4.404   5.418
 3229TIP3    H2 9652   1.908   4.467   5.368
 3230TIP3   OH2 9653   4.354   4.366   0.561
 3230TIP3    H1 9654   4.306   4.382   0.480
 3230TIP3    H2 9655   4.441   4.403   0.546
 3231TIP3   OH2 9656   7.104   4.577   3.896
 3231TIP3    H1 9657   7.163   4.588   3.822
 3231TIP3    H2 9658   7.129   4.493   3.935
 3232TIP3   OH2 9659   0.721   4.506   0.776
 3232TIP3    H1 9660   0.814   4.492   0.758
 3232TIP3    H2 9661   0.718   4.592   0.818
 3233TIP3   OH2 9662   5.119   2.514   1.573
 3233TIP3    H1 9663   5.121   2.570   1.496
 3233TIP3    H2 9664   5.186   2.447   1.556
 3234TIP3   OH2 9665   4.866   3.917   3.404
 3234TIP3    H1 9666   4.930   3.848   3.421
 3234TIP3    H2 9667   4.908   3.973   3.338
 3235TIP3   OH2 9668   4.998   3.880   4.815
 3235TIP3    H1 9669   4.931   3.948   4.817
 3235TIP3    H2 9670   5.063   3.908   4.880
 3236TIP3   OH2 9671   6.603   3.732   4.838
 3236TIP3    H1 9672   6.542   3.668   4.876
 3236TIP3    H2 9673   6.546   3.804   4.808
 3237TIP3   OH2 9674   6.005   4.993   4.125
 3237TIP3    H1 9675   6.037   5.081   4.147
 3237TIP3    H2 9676   6.078   4.952   4.079
 3238TIP3   OH2 9677   1.639   4.956   1.662
 3238TIP3    H1 9678   1.619   5.036   1.712
 3238TIP3    H2 9679   1.634   4.984   1.571
 3239TIP3   OH2 9680   5.062   1.344   3.792
 3239TIP3    H1 9681   5.013   1.301   3.722
 3239TIP3    H2 9682   4.995   1.376   3.852
 3240TIP3   OH2 9683   1.842   2.541   3.296
 3240TIP3    H1 9684   1.811   2.464   3.343
 3240TIP3    H2 9685   1.770   2.564   3.238
 3241TIP3   OH2 9686   0.422   2.260   5.299
 3241TIP3    H1 9687   0.421   2.178   5.348
 3241TIP3    H2 9688   0.337   2.264   5.255
 3242TIP3   OH2 9689   0.906   2.690   0.492
 3242TIP3    H1 9690   0.859   2.629   0.436
 3242TIP3    H2 9691   0.955   2.746   0.432
 3243TIP3   OH2 9692   6.517   3.009   2.611
 3243TIP3    H1 9693   6.441   3.058   2.579
 3243TIP3    H2 9694   6.590   3.070   2.602
 3244TIP3   OH2 9695   1.920   3.277   0.057
 3244TIP3    H1 9696   2.001   3.327   0.047
 3244TIP3    H2 9697   1.950   3.187   0.071
 3245TIP3   OH2 9698   6.293   1.776   0.241
 3245TIP3    H1 9699   6.212   1.826   0.231
 3245TIP3    H2 9700   6.332   1.810   0.322
 3246TIP3   OH2 9701   6.239   3.640   3.241
 3246TIP3    H1 9702   6.286   3.628   3.323
 3246TIP3    H2 9703   6.252   3.557   3.194
 3247TIP3   OH2 9704   5.114   0.507   1.055
 3247TIP3    H1 9705   5.160   0.453   0.990
 3247TIP3    H2 9706   5.072   0.576   1.003
 3248TIP3   OH2 9707   0.254   4.078   5.748
 3248TIP3    H1 9708   0.185   4.011   5.748
 3248TIP3    H2 9709   0.335   4.029   5.763
 3249TIP3   OH2 9710   5.547   3.483   2.837
 3249TIP3    H1 9711   5.517   3.530   2.915
 3249TIP3    H2 9712   5.548   3.391   2.864
 3250TIP3   OH2 9713   6.001   3.996   5.359
 3250TIP3    H1 9714   5.949   4.048   5.420
 3250TIP3    H2 9715   6.085   3.983   5.404
 3251TIP3   OH2 9716   2.362   3.394   0.123
 3251TIP3    H1 9717   2.291   3.453   0.147
 3251TIP3    H2 9718   2.437   3.425   0.176
 3252TIP3   OH2 9719   2.559   6.339   0.818
 3252TIP3    H1 9720   2.469   6.370   0.816
 3252TIP3    H2 9721   2.558   6.257   0.770
 3253TIP3   OH2 9722   3.198   0.513   5.137
 3253TIP3    H1 9723   3.250   0.501   5.216
 3253TIP3    H2 9724   3.245   0.464   5.070
 3254TIP3   OH2 9725   7.000   5.385   0.872
 3254TIP3    H1 9726   7.074   5.339   0.832
 3254TIP3    H2 9727   7.026   5.477   0.870
 3255TIP3   OH2 9728   4.178   4.662   2.106
 3255TIP3    H1 9729   4.178   4.589   2.045
 3255TIP3    H2 9730   4.164   4.622   2.192
 3256TIP3   OH2 9731   2.101   0.767   5.571
 3256TIP3    H1 9732   2.132   0.841   5.623
 3256TIP3    H2 9733   2.007   0.780   5.565
 3257TIP3   OH2 9734   2.288   6.409   3.287
 3257TIP3    H1 9735   2.234   6.333   3.305
 3257TIP3    H2 9736   2.281   6.421   3.192
 3258TIP3   OH2 9737   2.654   3.887   5.137
 3258TIP3    H1 9738   2.668   3.793   5.136
 3258TIP3    H2 9739   2.614   3.906   5.052
 3259TIP3   OH2 9740   0.900   5.731   1.146
 3259TIP3    H1 9741   0.994   5.751   1.150
 3259TIP3    H2 9742   0.860   5.814   1.120
 3260TIP3   OH2 9743   4.981   2.990   5.834
 3260TIP3    H1 9744   4.999   3.084   5.830
 3260TIP3    H2 9745   4.885   2.985   5.835
 3261TIP3   OH2 9746   1.609   0.578   1.741
 3261TIP3    H1 9747   1.634   0.660   1.784
 3261TIP3    H2 9748   1.574   0.523   1.811
 3262TIP3   OH2 9749   0.853   3.588   1.304
 3262TIP3    H1 9750   0.801   3.542   1.239
 3262TIP3    H2 9751   0.882   3.519   1.365
 3263TIP3   OH2 9752   2.053   2.201   1.427
 3263TIP3    H1 9753   2.064   2.198   1.522
 3263TIP3    H2 9754   1.968   2.159   1.412
 3264TIP3   OH2 9755   3.692   1.607   2.201
 3264TIP3    H1 9756   3.640   1.553   2.260
 3264TIP3    H2 9757   3.628   1.666   2.161
 3265TIP3   OH2 9758   5.050   1.513   1.962
 3265TIP3    H1 9759   5.041   1.539   1.870
 3265TIP3    H2 9760   5.121   1.566   1.996
 3266TIP3   OH2 9761   6.040   0.803   2.904
 3266TIP3    H1 9762   6.121   0.847   2.878
 3266TIP3    H2 9763   6.038   0.809   2.999
 3267TIP3   OH2 9764   5.385   4.276   0.162
 3267TIP3    H1 9765   5.412   4.282   0.070
 3267TIP3    H2 9766   5.463   4.246   0.208
 3268TIP3   OH2 9767   7.139   2.247   3.180
 3268TIP3    H1 9768   7.188   2.165   3.187
 3268TIP3    H2 9769   7.049   2.220   3.161
 3269TIP3   OH2 9770   1.965   1.256   2.938
 3269TIP3    H1 9771   1.901   1.273   3.007
 3269TIP3    H2 9772   1.934   1.175   2.896
 3270TIP3   OH2 9773   0.593   1.406   0.551
 3270TIP3    H1 9774   0.536   1.358   0.491
 3270TIP3    H2 9775   0.680   1.372   0.534
 3271TIP3   OH2 9776   1.405   4.948   4.143
 3271TIP3    H1 9777   1.487   4.994   4.160
 3271TIP3    H2 9778   1.363   4.941   4.229
 3272TIP3   OH2 9779   4.898   2.325   2.407
 3272TIP3    H1 9780   4.909   2.252   2.347
 3272TIP3    H2 9781   4.864   2.396   2.352
 3273TIP3   OH2 9782   2.928   4.935   5.469
 3273TIP3    H1 9783   2.849   4.885   5.450
 3273TIP3    H2 9784   2.972   4.942   5.384
 3274TIP3   OH2 9785   2.206   3.775   3.028
 3274TIP3    H1 9786   2.129   3.788   3.084
 3274TIP3    H2 9787   2.174   3.722   2.956
 3275TIP3   OH2 9788   3.511   2.234   3.941
 3275TIP3    H1 9789   3.438   2.174   3.958
 3275TIP3    H2 9790   3.475   2.298   3.880
 3276TIP3   OH2 9791   2.007   5.483   4.625
 3276TIP3    H1 9792   1.924   5.435   4.630
 3276TIP3    H2 9793   2.061   5.431   4.566
 3277TIP3   OH2 9794   6.505   3.189   4.554
 3277TIP3    H1 9795   6.524   3.233   4.637
 3277TIP3    H2 9796   6.471   3.104   4.579
 3278TIP3   OH2 9797   1.645   3.604   0.584
 3278TIP3    H1 9798   1.631   3.519   0.543
 3278TIP3    H2 9799   1.715   3.588   0.647
 3279TIP3   OH2 9800   5.993   3.855   0.971
 3279TIP3    H1 9801   5.992   3.883   0.879
 3279TIP3    H2 9802   5.914   3.893   1.008
 3280TIP3   OH2 9803   2.307   5.680   2.974
 3280TIP3    H1 9804   2.234   5.618   2.970
 3280TIP3    H2 9805   2.267   5.762   3.003
 3281TIP3   OH2 9806   4.686   6.214   5.636
 3281TIP3    H1 9807   4.643   6.264   5.568
 3281TIP3    H2 9808   4.641   6.129   5.636
 3282TIP3   OH2 9809   3.846   0.184   5.397
 3282TIP3    H1 9810   3.933   0.224   5.384
 3282TIP3    H2 9811   3.841   0.167   5.491
 3283TIP3   OH2 9812   5.187   3.011   2.152
 3283TIP3    H1 9813   5.153   2.941   2.096
 3283TIP3    H2 9814   5.280   2.990   2.162
 3284TIP3   OH2 9815   5.674   4.730   2.809
 3284TIP3    H1 9816   5.707   4.795   2.872
 3284TIP3    H2 9817   5.580   4.745   2.805
 3285TIP3   OH2 9818   7.074   1.556   5.862
 3285TIP3    H1 9819   7.135   1.619   5.823
 3285TIP3    H2 9820   7.029   1.516   5.788
 3286TIP3   OH2 9821   2.095   2.481   4.724
 3286TIP3    H1 9822   2.082   2.388   4.702
 3286TIP3    H2 9823   2.007   2.513   4.744
 3287TIP3   OH2 9824   3.779   4.075   3.828
 3287TIP3    H1 9825   3.839   4.031   3.768
 3287TIP3    H2 9826   3.696   4.029   3.818
 3288TIP3   OH2 9827   6.805   2.605   4.667
 3288TIP3    H1 9828   6.781   2.652   4.747
 3288TIP3    H2 9829   6.898   2.588   4.676
 3289TIP3   OH2 9830   4.735   1.782   4.892
 3289TIP3    H1 9831   4.770   1.837   4.821
 3289TIP3    H2 9832   4.786   1.807   4.968
 3290TIP3   OH2 9833   3.251   4.857   4.331
 3290TIP3    H1 9834   3.186   4.787   4.324
 3290TIP3    H2 9835   3.321   4.831   4.271
 3291TIP3   OH2 9836   4.305   3.018   5.304
 3291TIP3    H1 9837   4.354   3.092   5.269
 3291TIP3    H2 9838   4.224   3.017   5.253
 3292TIP3   OH2 9839   1.307   3.171   1.384
 3292TIP3    H1 9840   1.338   3.167   1.294
 3292TIP3    H2 9841   1.215   3.146   1.380
 3293TIP3   OH2 9842   4.546   5.611   0.516
 3293TIP3    H1 9843   4.472   5.604   0.576
 3293TIP3    H2 9844   4.617   5.646   0.570
 3294TIP3   OH2 9845   4.873   2.522   3.419
 3294TIP3    H1 9846   4.810   2.585   3.452
 3294TIP3    H2 9847   4.870   2.450   3.482
 3295TIP3   OH2 9848   5.261   5.876   4.695
 3295TIP3    H1 9849   5.303   5.921   4.768
 3295TIP3    H2 9850   5.167   5.894   4.707
 3296TIP3   OH2 9851   1.307   2.564   1.165
 3296TIP3    H1 9852   1.308   2.596   1.075
 3296TIP3    H2 9853   1.232   2.607   1.206
 3297TIP3   OH2 9854   0.331   0.224   2.227
 3297TIP3    H1 9855   0.414   0.181   2.206
 3297TIP3    H2 9856   0.288   0.236   2.143
 3298TIP3   OH2 9857   4.338   3.153   4.712
 3298TIP3    H1 9858   4.347   3.247   4.703
 3298TIP3    H2 9859   4.246   3.136   4.691
 3299TIP3   OH2 9860   6.277   1.345   2.647
 3299TIP3    H1 9861   6.278   1.343   2.743
 3299TIP3    H2 9862   6.342   1.280   2.621
 3300TIP3   OH2 9863   4.795   6.368   2.929
 3300TIP3    H1 9864   4.849   6.323   2.864
 3300TIP3    H2 9865   4.770   6.300   2.991
 3301TIP3   OH2 9866   2.067   1.144   2.224
 3301TIP3    H1 9867   2.034   1.061   2.188
 3301TIP3    H2 9868   2.113   1.185   2.150
 3302TIP3   OH2 9869   4.115   2.837   2.717
 3302TIP3    H1 9870   4.068   2.897   2.660
 3302TIP3    H2 9871   4.181   2.797   2.661
 3303TIP3   OH2 9872   4.572   1.850   3.058
 3303TIP3    H1 9873   4.657   1.843   3.014
 3303TIP3    H2 9874   4.559   1.944   3.070
 3304TIP3   OH2 9875   6.784   2.326   2.733
 3304TIP3    H1 9876   6.861   2.322   2.789
 3304TIP3    H2 9877   6.717   2.277   2.782
 3305TIP3   OH2 9878   0.355   3.039   5.645
 3305TIP3    H1 9879   0.306   3.106   5.597
 3305TIP3    H2 9880   0.295   3.009   5.712
 3306TIP3   OH2 9881   2.838   6.790   3.234
 3306TIP3    H1 9882   2.888   6.709   3.232
 3306TIP3    H2 9883   2.759   6.772   3.183
 3307TIP3   OH2 9884   3.118   4.804   2.394
 3307TIP3    H1 9885   3.094   4.882   2.344
 3307TIP3    H2 9886   3.175   4.837   2.464
 3308TIP3   OH2 9887   3.885   4.450   5.179
 3308TIP3    H1 9888   3.914   4.458   5.088
 3308TIP3    H2 9889   3.846   4.535   5.199
 3309TIP3   OH2 9890   2.003   6.307   0.302
 3309TIP3    H1 9891   1.927   6.366   0.300
 3309TIP3    H2 9892   2.039   6.311   0.213
 3310TIP3   OH2 9893   1.793   5.910   2.349
 3310TIP3    H1 9894   1.831   5.843   2.293
 3310TIP3    H2 9895   1.746   5.862   2.417
 3311TIP3   OH2 9896   2.515   5.329   3.109
 3311TIP3    H1 9897   2.461   5.250   3.114
 3311TIP3    H2 9898   2.592   5.309   3.163
 3312TIP3   OH2 9899   5.464   1.107   1.329
 3312TIP3    H1 9900   5.444   1.132   1.239
 3312TIP3    H2 9901   5.434   1.181   1.382
 3313TIP3   OH2 9902   1.153   3.958   5.150
 3313TIP3    H1 9903   1.214   3.959   5.077
 3313TIP3    H2 9904   1.138   3.865   5.167
 3314TIP3   OH2 9905   3.636   2.668   5.091
 3314TIP3    H1 9906   3.716   2.634   5.053
 3314TIP3    H2 9907   3.640   2.642   5.183
 3315TIP3   OH2 9908   4.005   3.716   3.836
 3315TIP3    H1 9909   4.096   3.699   3.811
 3315TIP3    H2 9910   4.010   3.787   3.900
 3316TIP3   OH2 9911   2.903   3.485   3.839
 3316TIP3    H1 9912   2.905   3.396   3.875
 3316TIP3    H2 9913   2.951   3.538   3.902
 3317TIP3   OH2 9914   6.466   5.556   4.830
 3317TIP3    H1 9915   6.456   5.473   4.877
 3317TIP3    H2 9916   6.432   5.537   4.742
 3318TIP3   OH2 9917   2.816   4.828   0.218
 3318TIP3    H1 9918   2.892   4.845   0.161
 3318TIP3    H2 9919   2.830   4.739   0.250
 3319TIP3   OH2 9920   1.817   0.669   4.127
 3319TIP3    H1 9921   1.722   0.681   4.127
 3319TIP3    H2 9922   1.848   0.726   4.197
 3320TIP3   OH2 9923   6.299   4.840   5.330
 3320TIP3    H1 9924   6.375   4.849   5.272
 3320TIP3    H2 9925   6.224   4.863   5.274
 3321TIP3   OH2 9926   3.049   4.114   3.483
 3321TIP3    H1 9927   3.076   4.023   3.498
 3321TIP3    H2 9928   2.962   4.120   3.522
 3322TIP3   OH2 9929   0.756   6.198   2.292
 3322TIP3    H1 9930   0.725   6.145   2.365
 3322TIP3    H2 9931   0.842   6.229   2.319
 3323TIP3   OH2 9932   5.159   3.147   4.437
 3323TIP3    H1 9933   5.231   3.153   4.499
 3323TIP3    H2 9934   5.183   3.206   4.365
 3324TIP3   OH2 9935   0.605   0.696   3.234
 3324TIP3    H1 9936   0.593   0.771   3.176
 3324TIP3    H2 9937   0.664   0.638   3.186
 3325TIP3   OH2 9938   6.632   1.889   1.381
 3325TIP3    H1 9939   6.671   1.875   1.467
 3325TIP3    H2 9940   6.538   1.897   1.399
 3326TIP3   OH2 9941   6.959   5.401   1.580
 3326TIP3    H1 9942   6.958   5.309   1.607
 3326TIP3    H2 9943   6.998   5.399   1.492
 3327TIP3   OH2 9944   6.349   3.586   4.081
 3327TIP3    H1 9945   6.336   3.533   4.160
 3327TIP3    H2 9946   6.377   3.672   4.114
 3328TIP3   OH2 9947   1.688   4.891   0.669
 3328TIP3    H1 9948   1.776   4.878   0.702
 3328TIP3    H2 9949   1.642   4.809   0.688
 3329TIP3   OH2 9950   1.700   4.360   0.937
 3329TIP3    H1 9951   1.627   4.301   0.958
 3329TIP3    H2 9952   1.670   4.409   0.861
 3330TIP3   OH2 9953   3.107   2.076   2.573
 3330TIP3    H1 9954   3.016   2.045   2.574
 3330TIP3    H2 9955   3.121   2.108   2.484
 3331TIP3   OH2 9956   1.855   2.807   5.482
 3331TIP3    H1 9957   1.922   2.758   5.434
 3331TIP3    H2 9958   1.888   2.896   5.486
 3332TIP3   OH2 9959   0.847   1.120   3.348
 3332TIP3    H1 9960   0.849   1.155   3.437
 3332TIP3    H2 9961   0.915   1.053   3.348
 3333TIP3   OH2 9962   3.753   0.807   3.765
 3333TIP3    H1 9963   3.835   0.854   3.775
 3333TIP3    H2 9964   3.750   0.783   3.672
 3334TIP3   OH2 9965   2.589   2.945   4.878
 3334TIP3    H1 9966   2.526   2.944   4.949
 3334TIP3    H2 9967   2.559   3.015   4.820
 3335TIP3   OH2 9968   6.359   0.986   2.608
 3335TIP3    H1 9969   6.375   1.038   2.529
 3335TIP3    H2 9970   6.374   0.896   2.580
 3336TIP3   OH2 9971   7.171   0.715   5.532
 3336TIP3    H1 9972   7.176   0.784   5.465
 3336TIP3    H2 9973   7.156   0.763   5.614
 3337TIP3   OH2 9974   2.034   4.840   4.253
 3337TIP3    H1 9975   2.058   4.905   4.319
 3337TIP3    H2 9976   2.107   4.779   4.251
 3338TIP3   OH2 9977   0.449   4.019   0.327
 3338TIP3    H1 9978   0.361   3.997   0.297
 3338TIP3    H2 9979   0.479   4.086   0.266
 3339TIP3   OH2 9980   4.800   5.664   5.726
 3339TIP3    H1 9981   4.787   5.580   5.770
 3339TIP3    H2 9982   4.880   5.700   5.764
 3340TIP3   OH2 9983   3.840   2.615   3.323
 3340TIP3    H1 9984   3.832   2.536   3.376
 3340TIP3    H2 9985   3.865   2.684   3.385
 3341TIP3   OH2 9986   1.976   5.372   5.251
 3341TIP3    H1 9987   2.010   5.283   5.243
 3341TIP3    H2 9988   2.051   5.424   5.281
 3342TIP3   OH2 9989   6.556   4.875   2.919
 3342TIP3    H1 9990   6.475   4.835   2.952
 3342TIP3    H2 9991   6.612   4.801   2.896
 3343TIP3   OH2 9992   7.050   5.769   5.898
 3343TIP3    H1 9993   6.983   5.837   5.905
 3343TIP3    H2 9994   7.130   5.816   5.872
 3344TIP3   OH2 9995   7.063   0.202   4.877
 3344TIP3    H1 9996   7.133   0.149   4.840
 3344TIP3    H2 9997   7.041   0.265   4.808
 3345TIP3   OH2 9998   7.132   1.497   2.777
 3345TIP3    H1 9999   7.120   1.430   2.710
 3345TIP3    H210000   7.226   1.513   2.779
 3346TIP3   OH210001   2.725   2.368   1.713
 3346TIP3    H110002   2.762   2.456   1.710
 3346TIP3    H210003   2.685   2.362   1.800
 3347TIP3   OH210004   1.483   3.718   3.422
 3347TIP3    H110005   1.497   3.634   3.379
 3347TIP3    H210006   1.414   3.701   3.487
 3348TIP3   OH210007   4.898   0.793   5.314
 3348TIP3    H110008   4.867   0.875   5.275
 3348TIP3    H210009   4.991   0.790   5.292
 3349TIP3   OH210010   6.857   0.687   4.206
 3349TIP3    H110011   6.764   0.681   4.188
 3349TIP3    H210012   6.881   0.777   4.186
 3350TIP3   OH210013   3.254   0.035   5.182
 3350TIP3    H110014   3.185   0.087   5.141
 3350TIP3    H210015   3.220   0.014   5.269
 3351TIP3   OH210016   6.812   5.171   5.337
 3351TIP3    H110017   6.763   5.172   5.255
 3351TIP3    H210018   6.747   5.151   5.404
 3352TIP3   OH210019   0.206   1.487   4.390
 3352TIP3    H110020   0.177   1.546   4.320
 3352TIP3    H210021   0.222   1.545   4.464
 3353TIP3   OH210022   1.911   5.281   2.754
 3353TIP3    H110023   1.889   5.235   2.835
 3353TIP3    H210024   1.955   5.216   2.700
 3354TIP3   OH210025   6.432   5.010   1.756
 3354TIP3    H110026   6.350   5.047   1.722
 3354TIP3    H210027   6.408   4.923   1.786
 3355TIP3   OH210028   2.012   2.745   1.485
 3355TIP3    H110029   2.083   2.689   1.454
 3355TIP3    H210030   1.945   2.684   1.516
 3356TIP3   OH210031   4.375   2.883   4.889
 3356TIP3    H110032   4.282   2.868   4.902
 3356TIP3    H210033   4.380   2.969   4.846
 3357TIP3   OH210034   7.167   2.655   3.452
 3357TIP3    H110035   7.197   2.571   3.486
 3357TIP3    H210036   7.246   2.697   3.419
 3358TIP3   OH210037   4.256   4.023   0.618
 3358TIP3    H110038   4.298   3.985   0.540
 3358TIP3    H210039   4.186   4.078   0.583
 3359TIP3   OH210040   0.093   6.367   0.463
 3359TIP3    H110041   0.179   6.326   0.475
 3359TIP3    H210042   0.086   6.430   0.536
 3360TIP3   OH210043   1.449   2.534   1.989
 3360TIP3    H110044   1.392   2.463   2.021
 3360TIP3    H210045   1.430   2.540   1.896
 3361TIP3   OH210046   4.381   3.948   3.917
 3361TIP3    H110047   4.439   3.949   3.993
 3361TIP3    H210048   4.429   3.998   3.851
 3362TIP3   OH210049   5.868   2.593   2.389
 3362TIP3    H110050   5.947   2.592   2.443
 3362TIP3    H210051   5.835   2.504   2.392
 3363TIP3   OH210052   6.463   0.473   0.943
 3363TIP3    H110053   6.426   0.453   1.029
 3363TIP3    H210054   6.387   0.501   0.890
 3364TIP3   OH210055   1.074   3.386   3.628
 3364TIP3    H110056   1.145   3.385   3.693
 3364TIP3    H210057   0.997   3.413   3.677
 3365TIP3   OH210058   7.156   3.744   5.413
 3365TIP3    H110059   7.189   3.709   5.331
 3365TIP3    H210060   7.153   3.668   5.472
 3366TIP3   OH210061   2.975   5.678   0.242
 3366TIP3    H110062   3.057   5.702   0.284
 3366TIP3    H210063   2.923   5.638   0.311
 3367TIP3   OH210064   6.020   0.003   4.326
 3367TIP3    H110065   5.941  -0.004   4.271
 3367TIP3    H210066   5.989   0.044   4.407
 3368TIP3   OH210067   0.996   5.290   2.370
 3368TIP3    H110068   1.017   5.382   2.358
 3368TIP3    H210069   1.046   5.245   2.302
 3369TIP3   OH210070   6.746   1.394   0.658
 3369TIP3    H110071   6.840   1.405   0.648
 3369TIP3    H210072   6.707   1.462   0.602
 3370TIP3   OH210073   5.662   4.116   2.451
 3370TIP3    H110074   5.605   4.059   2.399
 3370TIP3    H210075   5.735   4.135   2.393
 3371TIP3   OH210076   5.664   5.110   2.586
 3371TIP3    H110077   5.670   5.205   2.577
 3371TIP3    H210078   5.653   5.078   2.496
 3372TIP3   OH210079   2.771   0.338   0.083
 3372TIP3    H110080   2.852   0.386   0.064
 3372TIP3    H210081   2.801   0.253   0.114
 3373TIP3   OH210082   2.257   1.506   3.380
 3373TIP3    H110083   2.315   1.534   3.309
 3373TIP3    H210084   2.197   1.580   3.393
 3374TIP3   OH210085   2.524   6.624   1.786
 3374TIP3    H110086   2.497   6.587   1.870
 3374TIP3    H210087   2.544   6.548   1.731
 3375TIP3   OH210088   2.808   0.377   3.260
 3375TIP3    H110089   2.747   0.318   3.217
 3375TIP3    H210090   2.889   0.327   3.269
 3376TIP3   OH210091   1.194   1.418   1.784
 3376TIP3    H110092   1.253   1.432   1.711
 3376TIP3    H210093   1.119   1.475   1.766
 3377TIP3   OH210094   4.125   1.487   2.939
 3377TIP3    H110095   4.057   1.425   2.965
 3377TIP3    H210096   4.129   1.479   2.843
 3378TIP3   OH210097   3.273   1.996   4.676
 3378TIP3    H110098   3.260   1.961   4.588
 3378TIP3    H210099   3.307   1.921   4.726
 3379TIP3   OH210100   3.267   3.349   4.420
 3379TIP3    H110101   3.261   3.353   4.515
 3379TIP3    H210102   3.316   3.269   4.402
 3380TIP3   OH210103   4.736   3.949   4.521
 3380TIP3    H110104   4.724   3.887   4.449
 3380TIP3    H210105   4.666   4.013   4.510
 3381TIP3   OH210106   6.605   1.278   4.478
 3381TIP3    H110107   6.667   1.204   4.479
 3381TIP3    H210108   6.628   1.330   4.555
 3382TIP3   OH210109   5.997   0.512   4.515
 3382TIP3    H110110   6.067   0.448   4.525
 3382TIP3    H210111   6.033   0.578   4.456
 3383TIP3   OH210112   2.431   2.951   1.119
 3383TIP3    H110113   2.395   2.888   1.182
 3383TIP3    H210114   2.522   2.962   1.146
 3384TIP3   OH210115   6.564   3.391   1.808
 3384TIP3    H110116   6.519   3.314   1.773
 3384TIP3    H210117   6.653   3.361   1.827
 3385TIP3   OH210118   4.929   3.834   2.216
 3385TIP3    H110119   4.950   3.814   2.307
 3385TIP3    H210120   4.871   3.763   2.189
 3386TIP3   OH210121   2.045   3.738   5.587
 3386TIP3    H110122   2.095   3.811   5.552
 3386TIP3    H210123   2.026   3.763   5.678
 3387TIP3   OH210124   3.017   3.650   5.206
 3387TIP3    H110125   2.932   3.619   5.236
 3387TIP3    H210126   3.017   3.632   5.112
 3388TIP3   OH210127   4.313   1.147   1.865
 3388TIP3    H110128   4.403   1.163   1.836
 3388TIP3    H210129   4.272   1.106   1.789
 3389TIP3   OH210130   2.033   4.886   3.905
 3389TIP3    H110131   2.035   4.835   3.824
 3389TIP3    H210132   2.125   4.891   3.932
 3390TIP3   OH210133   4.190   5.162   2.833
 3390TIP3    H110134   4.211   5.192   2.745
 3390TIP3    H210135   4.229   5.227   2.891
 3391TIP3   OH210136   5.556   3.294   3.310
 3391TIP3    H110137   5.589   3.374   3.351
 3391TIP3    H210138   5.480   3.324   3.258
 3392TIP3   OH210139   5.742   2.669   1.456
 3392TIP3    H110140   5.668   2.636   1.507
 3392TIP3    H210141   5.715   2.757   1.430
 3393TIP3   OH210142   0.198   2.890   1.971
 3393TIP3    H110143   0.192   2.816   2.032
 3393TIP3    H210144   0.120   2.943   1.989
 3394TIP3   OH210145   6.978   1.648   3.385
 3394TIP3    H110146   6.908   1.585   3.400
 3394TIP3    H210147   6.932   1.729   3.360
 3395TIP3   OH210148   5.005   0.950   1.312
 3395TIP3    H110149   4.987   0.992   1.228
 3395TIP3    H210150   4.930   0.892   1.327
 3396TIP3   OH210151   4.093   0.764   1.378
 3396TIP3    H110152   4.148   0.828   1.333
 3396TIP3    H210153   4.154   0.701   1.416
 3397TIP3   OH210154   0.421   1.145   2.572
 3397TIP3    H110155   0.433   1.069   2.630
 3397TIP3    H210156   0.505   1.191   2.576
 3398TIP3   OH210157   1.384   0.536   2.781
 3398TIP3    H110158   1.419   0.487   2.706
 3398TIP3    H210159   1.307   0.486   2.808
 3399TIP3   OH210160   0.537   3.859   0.614
 3399TIP3    H110161   0.594   3.805   0.559
 3399TIP3    H210162   0.594   3.892   0.683
 3400TIP3   OH210163   3.085   1.150   5.056
 3400TIP3    H110164   3.065   1.244   5.057
 3400TIP3    H210165   3.114   1.133   4.966
 3401TIP3   OH210166   1.743   2.725   2.278
 3401TIP3    H110167   1.708   2.637   2.281
 3401TIP3    H210168   1.838   2.713   2.277
 3402TIP3   OH210169   1.785   0.294   3.649
 3402TIP3    H110170   1.727   0.324   3.719
 3402TIP3    H210171   1.873   0.298   3.688
 3403TIP3   OH210172   1.187   2.655   0.934
 3403TIP3    H110173   1.133   2.600   0.878
 3403TIP3    H210174   1.252   2.693   0.875
 3404TIP3   OH210175   3.985   4.754   3.209
 3404TIP3    H110176   3.955   4.754   3.118
 3404TIP3    H210177   4.049   4.683   3.214
 3405TIP3   OH210178   3.740   0.814   0.461
 3405TIP3    H110179   3.728   0.909   0.458
 3405TIP3    H210180   3.704   0.783   0.378
 3406TIP3   OH210181   1.096   1.153   1.907
 3406TIP3    H110182   1.095   1.248   1.894
 3406TIP3    H210183   1.128   1.118   1.824
 3407TIP3   OH210184   7.050   4.219   0.380
 3407TIP3    H110185   7.061   4.241   0.288
 3407TIP3    H210186   7.086   4.294   0.427
 3408TIP3   OH210187   1.029   5.520   2.635
 3408TIP3    H110188   0.985   5.563   2.561
 3408TIP3    H210189   0.963   5.519   2.704
 3409TIP3   OH210190   2.598   4.380   2.160
 3409TIP3    H110191   2.644   4.307   2.119
 3409TIP3    H210192   2.647   4.458   2.133
 3410TIP3   OH210193   6.351   6.374   2.142
 3410TIP3    H110194   6.428   6.320   2.123
 3410TIP3    H210195   6.286   6.346   2.078
 3411TIP3   OH210196   5.904   3.085   0.271
 3411TIP3    H110197   5.809   3.098   0.270
 3411TIP3    H210198   5.918   3.010   0.330
 3412TIP3   OH210199   4.453   2.425   1.625
 3412TIP3    H110200   4.417   2.410   1.712
 3412TIP3    H210201   4.545   2.445   1.640
 3413TIP3   OH210202   5.616   0.342   0.375
 3413TIP3    H110203   5.549   0.359   0.441
 3413TIP3    H210204   5.630   0.247   0.378
 3414TIP3   OH210205   4.552   0.623   4.974
 3414TIP3    H110206   4.564   0.528   4.965
 3414TIP3    H210207   4.623   0.661   4.922
 3415TIP3   OH210208   4.924   4.954   2.361
 3415TIP3    H110209   4.992   4.887   2.362
 3415TIP3    H210210   4.970   5.036   2.378
 3416TIP3   OH210211   2.930   1.220   3.438
 3416TIP3    H110212   2.849   1.249   3.396
 3416TIP3    H210213   2.969   1.158   3.376
 3417TIP3   OH210214   1.464   4.101   3.451
 3417TIP3    H110215   1.416   4.075   3.530
 3417TIP3    H210216   1.433   4.189   3.432
 3418TIP3   OH210217   0.090   2.421   3.564
 3418TIP3    H110218   0.171   2.382   3.531
 3418TIP3    H210219   0.051   2.354   3.620
 3419TIP3   OH210220   1.443   2.872   3.073
 3419TIP3    H110221   1.448   2.965   3.094
 3419TIP3    H210222   1.379   2.867   3.002
 3420TIP3   OH210223   1.741   4.604   0.106
 3420TIP3    H110224   1.710   4.570   0.190
 3420TIP3    H210225   1.680   4.675   0.085
 3421TIP3   OH210226   4.424   3.473   5.745
 3421TIP3    H110227   4.465   3.503   5.664
 3421TIP3    H210228   4.470   3.522   5.814
 3422TIP3   OH210229   0.871   1.086   1.725
 3422TIP3    H110230   0.867   1.154   1.657
 3422TIP3    H210231   0.908   1.130   1.801
 3423TIP3   OH210232   7.019   5.359   5.327
 3423TIP3    H110233   7.091   5.308   5.289
 3423TIP3    H210234   6.948   5.296   5.338
 3424TIP3   OH210235   7.114   5.276   2.306
 3424TIP3    H110236   7.101   5.370   2.314
 3424TIP3    H210237   7.175   5.266   2.233
 3425TIP3   OH210238   2.400   0.263   2.829
 3425TIP3    H110239   2.397   0.209   2.908
 3425TIP3    H210240   2.347   0.215   2.765
 3426TIP3   OH210241   5.472   1.936   0.626
 3426TIP3    H110242   5.448   2.029   0.619
 3426TIP3    H210243   5.561   1.932   0.591
 3427TIP3   OH210244   4.351   5.581   0.745
 3427TIP3    H110245   4.265   5.544   0.725
 3427TIP3    H210246   4.335   5.675   0.756
 3428TIP3   OH210247   4.958   1.274   3.541
 3428TIP3    H110248   5.046   1.294   3.507
 3428TIP3    H210249   4.901   1.277   3.464
 3429TIP3   OH210250   0.701   1.023   3.954
 3429TIP3    H110251   0.708   1.011   3.859
 3429TIP3    H210252   0.675   1.114   3.965
 3430TIP3   OH210253   6.629   0.258   0.194
 3430TIP3    H110254   6.570   0.315   0.244
 3430TIP3    H210255   6.717   0.284   0.221
 3431TIP3   OH210256   6.644   1.101   5.023
 3431TIP3    H110257   6.584   1.037   4.983
 3431TIP3    H210258   6.588   1.151   5.083
 3432TIP3   OH210259   3.847   1.429   5.230
 3432TIP3    H110260   3.892   1.449   5.148
 3432TIP3    H210261   3.818   1.338   5.220
 3433TIP3   OH210262   4.415   6.635   1.450
 3433TIP3    H110263   4.499   6.605   1.485
 3433TIP3    H210264   4.438   6.704   1.388
 3434TIP3   OH210265   5.169   4.493   1.149
 3434TIP3    H110266   5.136   4.437   1.220
 3434TIP3    H210267   5.242   4.443   1.111
 3435TIP3   OH210268   0.247   3.113   4.922
 3435TIP3    H110269   0.163   3.141   4.960
 3435TIP3    H210270   0.235   3.124   4.827
 3436TIP3   OH210271   6.016   4.280   1.380
 3436TIP3    H110272   6.004   4.187   1.359
 3436TIP3    H210273   5.928   4.316   1.383
 3437TIP3   OH210274   2.921   4.302   0.808
 3437TIP3    H110275   2.950   4.211   0.807
 3437TIP3    H210276   2.968   4.343   0.735
 3438TIP3   OH210277   1.517   0.188   2.294
 3438TIP3    H110278   1.605   0.149   2.293
 3438TIP3    H210279   1.532   0.282   2.289
 3439TIP3   OH210280   3.119   0.589   1.754
 3439TIP3    H110281   3.106   0.557   1.665
 3439TIP3    H210282   3.032   0.619   1.782
 3440TIP3   OH210283   6.097   2.314   1.027
 3440TIP3    H110284   6.104   2.280   1.117
 3440TIP3    H210285   6.065   2.239   0.976
 3441TIP3   OH210286   3.083   5.972   4.144
 3441TIP3    H110287   3.084   6.065   4.166
 3441TIP3    H210288   3.174   5.951   4.122
 3442TIP3   OH210289   6.444   4.411   3.390
 3442TIP3    H110290   6.493   4.493   3.385
 3442TIP3    H210291   6.361   4.431   3.346
 3443TIP3   OH210292   5.618   1.822   5.878
 3443TIP3    H110293   5.588   1.913   5.880
 3443TIP3    H210294   5.694   1.824   5.821
 3444TIP3   OH210295   6.666   1.275   1.422
 3444TIP3    H110296   6.741   1.222   1.395
 3444TIP3    H210297   6.633   1.312   1.341
 3445TIP3   OH210298   2.292   3.912   2.083
 3445TIP3    H110299   2.319   3.960   2.161
 3445TIP3    H210300   2.220   3.963   2.047
 3446TIP3   OH210301   4.063   6.528   4.798
 3446TIP3    H110302   4.061   6.542   4.893
 3446TIP3    H210303   4.157   6.530   4.776
 3447TIP3   OH210304   4.793   3.889   5.597
 3447TIP3    H110305   4.785   3.946   5.673
 3447TIP3    H210306   4.879   3.910   5.560
 3448TIP3   OH210307   2.412   5.709   5.627
 3448TIP3    H110308   2.462   5.632   5.653
 3448TIP3    H210309   2.354   5.726   5.701
 3449TIP3   OH210310   5.994   0.228   5.668
 3449TIP3    H110311   6.050   0.239   5.745
 3449TIP3    H210312   5.934   0.302   5.671
 3450TIP3   OH210313   5.172   1.100   1.730
 3450TIP3    H110314   5.155   1.016   1.771
 3450TIP3    H210315   5.264   1.118   1.749
 3451TIP3   OH210316   6.109   5.486   1.919
 3451TIP3    H110317   6.183   5.425   1.917
 3451TIP3    H210318   6.033   5.429   1.933
 3452TIP3   OH210319   6.181   6.409   5.441
 3452TIP3    H110320   6.188   6.331   5.386
 3452TIP3    H210321   6.206   6.380   5.529
 3453TIP3   OH210322   3.445   0.774   1.339
 3453TIP3    H110323   3.508   0.785   1.411
 3453TIP3    H210324   3.361   0.800   1.376
 3454TIP3   OH210325   6.248   6.399   0.921
 3454TIP3    H110326   6.197   6.382   1.000
 3454TIP3    H210327   6.189   6.376   0.849
 3455TIP3   OH210328   0.593   3.704   2.099
 3455TIP3    H110329   0.538   3.628   2.079
 3455TIP3    H210330   0.624   3.688   2.188
 3456TIP3   OH210331   0.193   4.347   4.164
 3456TIP3    H110332   0.149   4.401   4.231
 3456TIP3    H210333   0.128   4.337   4.095
 3457TIP3   OH210334   5.214   3.248   2.791
 3457TIP3    H110335   5.255   3.323   2.747
 3457TIP3    H210336   5.286   3.207   2.840
 3458TIP3   OH210337   3.011   1.455   2.939
 3458TIP3    H110338   2.918   1.480   2.940
 3458TIP3    H210339   3.036   1.452   3.031
 3459TIP3   OH210340   6.350   1.555   2.494
 3459TIP3    H110341   6.443   1.537   2.484
 3459TIP3    H210342   6.317   1.483   2.548
 3460TIP3   OH210343   6.068   1.873   1.112
 3460TIP3    H110344   6.030   1.846   1.028
 3460TIP3    H210345   6.067   1.792   1.164
 3461TIP3   OH210346   2.776   4.214   2.047
 3461TIP3    H110347   2.822   4.177   2.123
 3461TIP3    H210348   2.806   4.161   1.973
 3462TIP3   OH210349   4.351   3.444   4.698
 3462TIP3    H110350   4.330   3.495   4.620
 3462TIP3    H210351   4.445   3.455   4.709
 3463TIP3   OH210352   3.375   0.793   3.714
 3463TIP3    H110353   3.388   0.705   3.749
 3463TIP3    H210354   3.428   0.850   3.771
 3464TIP3   OH210355   2.317   1.955   1.703
 3464TIP3    H110356   2.269   1.873   1.692
 3464TIP3    H210357   2.248   2.021   1.715
 3465TIP3   OH210358   2.251   5.637   3.969
 3465TIP3    H110359   2.325   5.658   3.912
 3465TIP3    H210360   2.175   5.671   3.922
 3466TIP3   OH210361   3.910   3.455   2.138
 3466TIP3    H110362   3.834   3.400   2.118
 3466TIP3    H210363   3.971   3.396   2.182
 3467TIP3   OH210364   5.287   5.363   4.548
 3467TIP3    H110365   5.257   5.376   4.638
 3467TIP3    H210366   5.299   5.269   4.540
 3468TIP3   OH210367   2.888   5.183   0.975
 3468TIP3    H110368   2.940   5.229   0.910
 3468TIP3    H210369   2.800   5.180   0.937
 3469TIP3   OH210370   1.950   5.905   5.688
 3469TIP3    H110371   1.971   5.856   5.609
 3469TIP3    H210372   1.854   5.911   5.688
 3470TIP3   OH210373   3.190   1.093   0.689
 3470TIP3    H110374   3.236   1.178   0.692
 3470TIP3    H210375   3.187   1.065   0.780
 3471TIP3   OH210376   6.517   1.643   5.346
 3471TIP3    H110377   6.598   1.604   5.377
 3471TIP3    H210378   6.543   1.726   5.306
 3472TIP3   OH210379   2.254   2.221   5.451
 3472TIP3    H110380   2.200   2.282   5.502
 3472TIP3    H210381   2.340   2.226   5.492
 3473TIP3   OH210382   5.038   5.762   0.132
 3473TIP3    H110383   5.031   5.747   0.226
 3473TIP3    H210384   5.132   5.758   0.114
 3474TIP3   OH210385   5.228   3.871   0.801
 3474TIP3    H110386   5.213   3.953   0.753
 3474TIP3    H210387   5.192   3.803   0.743
 3475TIP3   OH210388   0.398   0.450   4.842
 3475TIP3    H110389   0.399   0.398   4.761
 3475TIP3    H210390   0.380   0.540   4.812
 3476TIP3   OH210391   4.749   1.802   1.399
 3476TIP3    H110392   4.673   1.831   1.350
 3476TIP3    H210393   4.823   1.819   1.341
 3477TIP3   OH210394   3.475   4.032   5.674
 3477TIP3    H110395   3.503   4.040   5.765
 3477TIP3    H210396   3.546   3.985   5.631
 3478TIP3   OH210397   0.596   4.333   5.508
 3478TIP3    H110398   0.598   4.334   5.413
 3478TIP3    H210399   0.504   4.338   5.531
 3479TIP3   OH210400   3.079   5.672   2.803
 3479TIP3    H110401   3.007   5.681   2.866
 3479TIP3    H210402   3.146   5.622   2.850
 3480TIP3   OH210403   5.160   4.195   0.857
 3480TIP3    H110404   5.172   4.192   0.762
 3480TIP3    H210405   5.245   4.223   0.891
 3481TIP3   OH210406   0.322   6.714   3.259
 3481TIP3    H110407   0.385   6.784   3.241
 3481TIP3    H210408   0.338   6.689   3.350
 3482TIP3   OH210409   4.643   2.807   4.809
 3482TIP3    H110410   4.678   2.890   4.777
 3482TIP3    H210411   4.549   2.821   4.815
 3483TIP3   OH210412   5.772   1.704   2.052
 3483TIP3    H110413   5.774   1.682   1.959
 3483TIP3    H210414   5.847   1.658   2.089
 3484TIP3   OH210415   2.718   4.824   2.797
 3484TIP3    H110416   2.702   4.915   2.824
 3484TIP3    H210417   2.651   4.773   2.842
 3485TIP3   OH210418   0.390   2.696   2.440
 3485TIP3    H110419   0.305   2.657   2.459
 3485TIP3    H210420   0.451   2.622   2.443
 3486TIP3   OH210421   5.485   4.434   0.512
 3486TIP3    H110422   5.491   4.340   0.494
 3486TIP3    H210423   5.412   4.442   0.572
 3487TIP3   OH210424   3.540   6.290   2.066
 3487TIP3    H110425   3.557   6.383   2.081
 3487TIP3    H210426   3.613   6.261   2.011
 3488TIP3   OH210427   0.937   5.809   2.555
 3488TIP3    H110428   1.000   5.788   2.487
 3488TIP3    H210429   0.855   5.825   2.509
 3489TIP3   OH210430   2.928   4.021   0.774
 3489TIP3    H110431   2.905   3.981   0.690
 3489TIP3    H210432   2.898   3.958   0.840
 3490TIP3   OH210433   6.268   4.738   2.293
 3490TIP3    H110434   6.272   4.679   2.218
 3490TIP3    H210435   6.347   4.719   2.343
 3491TIP3   OH210436   2.342   4.502   2.162
 3491TIP3    H110437   2.347   4.565   2.234
 3491TIP3    H210438   2.422   4.450   2.170
 3492TIP3   OH210439   1.845   6.654   5.468
 3492TIP3    H110440   1.933   6.649   5.505
 3492TIP3    H210441   1.786   6.641   5.543
 3493TIP3   OH210442   5.691   1.211   4.384
 3493TIP3    H110443   5.687   1.186   4.476
 3493TIP3    H210444   5.655   1.137   4.336
 3494TIP3   OH210445   7.181   1.980   3.391
 3494TIP3    H110446   7.129   1.954   3.315
 3494TIP3    H210447   7.120   2.029   3.446
 3495TIP3   OH210448   3.888   3.819   3.154
 3495TIP3    H110449   3.893   3.879   3.080
 3495TIP3    H210450   3.934   3.740   3.124
 3496TIP3   OH210451   6.420   6.505   3.780
 3496TIP3    H110452   6.467   6.440   3.832
 3496TIP3    H210453   6.487   6.568   3.754
 3497TIP3   OH210454   2.012   4.557   0.390
 3497TIP3    H110455   2.101   4.522   0.382
 3497TIP3    H210456   1.971   4.503   0.457
 3498TIP3   OH210457   2.321   5.343   1.492
 3498TIP3    H110458   2.346   5.251   1.490
 3498TIP3    H210459   2.324   5.370   1.401
 3499TIP3   OH210460   5.183   0.933   5.085
 3499TIP3    H110461   5.263   0.897   5.123
 3499TIP3    H210462   5.212   0.974   5.004
 3500TIP3   OH210463   3.166   0.235   0.208
 3500TIP3    H110464   3.199   0.232   0.298
 3500TIP3    H210465   3.237   0.198   0.155
 3501TIP3   OH210466   2.585   3.284   2.113
 3501TIP3    H110467   2.589   3.193   2.141
 3501TIP3    H210468   2.661   3.326   2.153
 3502TIP3   OH210469   1.134   6.592   4.023
 3502TIP3    H110470   1.218   6.618   3.987
 3502TIP3    H210471   1.113   6.510   3.978
 3503TIP3   OH210472   1.671   2.499   2.528
 3503TIP3    H110473   1.628   2.418   2.553
 3503TIP3    H210474   1.664   2.555   2.606
 3504TIP3   OH210475   3.761   0.936   2.228
 3504TIP3    H110476   3.848   0.953   2.264
 3504TIP3    H210477   3.718   1.021   2.227
 3505TIP3   OH210478   5.400   0.547   0.861
 3505TIP3    H110479   5.351   0.482   0.912
 3505TIP3    H210480   5.378   0.528   0.770
 3506TIP3   OH210481   0.552   5.464   1.462
 3506TIP3    H110482   0.636   5.492   1.426
 3506TIP3    H210483   0.508   5.546   1.485
 3507TIP3   OH210484   4.950   3.207   2.130
 3507TIP3    H110485   4.965   3.112   2.129
 3507TIP3    H210486   5.029   3.243   2.170
 3508TIP3   OH210487   1.078   4.466   2.759
 3508TIP3    H110488   1.165   4.498   2.734
 3508TIP3    H210489   1.087   4.371   2.758
 3509TIP3   OH210490   5.288   6.269   5.504
 3509TIP3    H110491   5.286   6.192   5.447
 3509TIP3    H210492   5.303   6.343   5.444
 3510TIP3   OH210493   6.955   1.609   2.334
 3510TIP3    H110494   6.888   1.648   2.389
 3510TIP3    H210495   6.984   1.680   2.276
 3511TIP3   OH210496   5.764   1.755   1.265
 3511TIP3    H110497   5.842   1.699   1.268
 3511TIP3    H210498   5.790   1.830   1.213
 3512TIP3   OH210499   0.265   4.318   5.092
 3512TIP3    H110500   0.280   4.244   5.033
 3512TIP3    H210501   0.278   4.396   5.037
 3513TIP3   OH210502   2.784   4.245   3.514
 3513TIP3    H110503   2.749   4.330   3.486
 3513TIP3    H210504   2.741   4.228   3.598
 3514TIP3   OH210505   1.982   5.058   4.108
 3514TIP3    H110506   2.007   5.013   4.027
 3514TIP3    H210507   1.979   4.988   4.174
 3515TIP3   OH210508   6.834   0.666   1.421
 3515TIP3    H110509   6.778   0.680   1.344
 3515TIP3    H210510   6.875   0.581   1.406
 3516TIP3   OH210511   3.502   0.329   0.802
 3516TIP3    H110512   3.465   0.241   0.808
 3516TIP3    H210513   3.581   0.319   0.749
 3517TIP3   OH210514   1.670   5.048   0.419
 3517TIP3    H110515   1.588   5.098   0.415
 3517TIP3    H210516   1.662   4.997   0.500
 3518TIP3   OH210517   1.489   2.647   0.532
 3518TIP3    H110518   1.528   2.598   0.604
 3518TIP3    H210519   1.515   2.738   0.548
 3519TIP3   OH210520   4.297   0.961   0.597
 3519TIP3    H110521   4.255   1.010   0.527
 3519TIP3    H210522   4.248   0.984   0.676
 3520TIP3   OH210523   1.532   5.891   0.918
 3520TIP3    H110524   1.478   5.836   0.861
 3520TIP3    H210525   1.585   5.829   0.968
 3521TIP3   OH210526   1.128   1.308   4.669
 3521TIP3    H110527   1.095   1.231   4.623
 3521TIP3    H210528   1.077   1.312   4.750
 3522TIP3   OH210529   3.003   3.029   5.242
 3522TIP3    H110530   3.023   2.942   5.206
 3522TIP3    H210531   3.088   3.072   5.248
 3523TIP3   OH210532   1.314   6.799   4.903
 3523TIP3    H110533   1.303   6.723   4.846
 3523TIP3    H210534   1.225   6.827   4.923
 3524TIP3   OH210535   6.822   0.265   0.631
 3524TIP3    H110536   6.817   0.275   0.726
 3524TIP3    H210537   6.755   0.200   0.611
 3525TIP3   OH210538   0.656   4.583   3.681
 3525TIP3    H110539   0.621   4.502   3.644
 3525TIP3    H210540   0.746   4.562   3.704
 3526TIP3   OH210541   2.937   0.475   5.104
 3526TIP3    H110542   3.027   0.502   5.120
 3526TIP3    H210543   2.887   0.513   5.177
 3527TIP3   OH210544   1.035   1.267   3.867
 3527TIP3    H110545   1.075   1.322   3.799
 3527TIP3    H210546   0.945   1.255   3.838
 3528TIP3   OH210547   2.423   2.080   2.589
 3528TIP3    H110548   2.486   2.043   2.528
 3528TIP3    H210549   2.368   2.006   2.615
 3529TIP3   OH210550   5.244   0.354   4.050
 3529TIP3    H110551   5.296   0.377   3.973
 3529TIP3    H210552   5.156   0.341   4.016
 3530TIP3   OH210553   1.746   2.294   0.560
 3530TIP3    H110554   1.789   2.336   0.634
 3530TIP3    H210555   1.735   2.203   0.587
 3531TIP3   OH210556   3.411   2.207   1.970
 3531TIP3    H110557   3.442   2.185   2.058
 3531TIP3    H210558   3.356   2.284   1.982
 3532TIP3   OH210559   2.084   3.149   4.888
 3532TIP3    H110560   2.130   3.077   4.846
 3532TIP3    H210561   2.091   3.222   4.827
 3533TIP3   OH210562   1.020   0.549   3.429
 3533TIP3    H110563   1.097   0.603   3.443
 3533TIP3    H210564   0.971   0.555   3.511
 3534TIP3   OH210565   1.105   6.290   2.195
 3534TIP3    H110566   1.128   6.198   2.207
 3534TIP3    H210567   1.189   6.335   2.184
 3535TIP3   OH210568   6.259   3.831   1.050
 3535TIP3    H110569   6.290   3.845   1.140
 3535TIP3    H210570   6.164   3.845   1.055
 3536TIP3   OH210571   3.024   5.217   1.824
 3536TIP3    H110572   3.009   5.252   1.912
 3536TIP3    H210573   2.985   5.282   1.765
 3537TIP3   OH210574   5.157   0.790   3.011
 3537TIP3    H110575   5.154   0.830   2.924
 3537TIP3    H210576   5.190   0.860   3.068
 3538TIP3   OH210577   0.937   0.025   4.496
 3538TIP3    H110578   0.979   0.059   4.417
 3538TIP3    H210579   0.969   0.081   4.566
 3539TIP3   OH210580   0.790   4.661   1.879
 3539TIP3    H110581   0.859   4.726   1.870
 3539TIP3    H210582   0.751   4.655   1.792
 3540TIP3   OH210583   3.741   3.613   0.170
 3540TIP3    H110584   3.739   3.593   0.263
 3540TIP3    H210585   3.788   3.539   0.131
 3541TIP3   OH210586   3.253   1.069   1.166
 3541TIP3    H110587   3.340   1.056   1.127
 3541TIP3    H210588   3.193   1.070   1.091
 3542TIP3   OH210589   2.671   6.197   0.289
 3542TIP3    H110590   2.753   6.203   0.241
 3542TIP3    H210591   2.667   6.106   0.319
 3543TIP3   OH210592   3.488   3.551   0.543
 3543TIP3    H110593   3.478   3.460   0.517
 3543TIP3    H210594   3.442   3.558   0.627
 3544TIP3   OH210595   7.078   3.344   3.643
 3544TIP3    H110596   7.051   3.255   3.623
 3544TIP3    H210597   7.161   3.334   3.689
 3545TIP3   OH210598   4.485   0.127   0.629
 3545TIP3    H110599   4.577   0.116   0.653
 3545TIP3    H210600   4.457   0.039   0.603
 3546TIP3   OH210601   2.296   1.332   0.935
 3546TIP3    H110602   2.215   1.365   0.898
 3546TIP3    H210603   2.336   1.280   0.866
 3547TIP3   OH210604   2.721   2.443   5.541
 3547TIP3    H110605   2.764   2.360   5.563
 3547TIP3    H210606   2.726   2.494   5.622
 3548TIP3   OH210607   2.469   2.092   0.261
 3548TIP3    H110608   2.386   2.118   0.301
 3548TIP3    H210609   2.447   2.015   0.209
 3549TIP3   OH210610   5.548   1.287   4.789
 3549TIP3    H110611   5.492   1.286   4.867
 3549TIP3    H210612   5.550   1.379   4.762
 3550TIP3   OH210613   3.570   1.241   3.848
 3550TIP3    H110614   3.625   1.242   3.770
 3550TIP3    H210615   3.628   1.211   3.918
 3551TIP3   OH210616   0.049   3.023   0.117
 3551TIP3    H110617  -0.012   3.031   0.045
 3551TIP3    H210618   0.116   3.090   0.099
 3552TIP3   OH210619   4.840   0.474   2.671
 3552TIP3    H110620   4.911   0.418   2.639
 3552TIP3    H210621   4.855   0.558   2.628
 3553TIP3   OH210622   5.272   6.457   1.290
 3553TIP3    H110623   5.236   6.431   1.375
 3553TIP3    H210624   5.220   6.534   1.265
 3554TIP3   OH210625   6.007   5.200   4.414
 3554TIP3    H110626   5.943   5.218   4.345
 3554TIP3    H210627   5.955   5.172   4.489
 3555TIP3   OH210628   3.305   0.776   2.858
 3555TIP3    H110629   3.300   0.869   2.879
 3555TIP3    H210630   3.337   0.735   2.938
 3556TIP3   OH210631   1.236   2.546   3.635
 3556TIP3    H110632   1.275   2.495   3.705
 3556TIP3    H210633   1.306   2.605   3.606
 3557TIP3   OH210634   0.911   4.921   2.518
 3557TIP3    H110635   0.865   4.893   2.438
 3557TIP3    H210636   0.843   4.963   2.571
 3558TIP3   OH210637   5.107   6.640   4.056
 3558TIP3    H110638   5.141   6.558   4.091
 3558TIP3    H210639   5.177   6.673   3.999
 3559TIP3   OH210640   5.129   5.215   3.567
 3559TIP3    H110641   5.147   5.233   3.659
 3559TIP3    H210642   5.202   5.256   3.520
 3560TIP3   OH210643   4.185   5.308   2.396
 3560TIP3    H110644   4.128   5.251   2.344
 3560TIP3    H210645   4.250   5.248   2.433
 3561TIP3   OH210646   3.653   5.936   0.304
 3561TIP3    H110647   3.637   5.962   0.214
 3561TIP3    H210648   3.738   5.893   0.302
 3562TIP3   OH210649   6.017   2.008   4.096
 3562TIP3    H110650   6.112   2.010   4.082
 3562TIP3    H210651   6.005   1.945   4.167
 3563TIP3   OH210652   1.658   5.117   5.219
 3563TIP3    H110653   1.751   5.105   5.200
 3563TIP3    H210654   1.617   5.036   5.187
 3564TIP3   OH210655   2.633   1.570   3.473
 3564TIP3    H110656   2.554   1.601   3.429
 3564TIP3    H210657   2.623   1.475   3.477
 3565TIP3   OH210658   5.544   6.284   4.316
 3565TIP3    H110659   5.490   6.360   4.297
 3565TIP3    H210660   5.508   6.250   4.399
 3566TIP3   OH210661   5.697   0.519   3.093
 3566TIP3    H110662   5.787   0.526   3.126
 3566TIP3    H210663   5.686   0.595   3.036
 3567TIP3   OH210664   3.559   0.830   0.747
 3567TIP3    H110665   3.516   0.750   0.778
 3567TIP3    H210666   3.631   0.798   0.692
 3568TIP3   OH210667   2.658   4.855   5.726
 3568TIP3    H110668   2.590   4.831   5.662
 3568TIP3    H210669   2.622   4.830   5.810
 3569TIP3   OH210670   3.272   4.025   2.082
 3569TIP3    H110671   3.242   3.998   2.169
 3569TIP3    H210672   3.224   3.969   2.022
 3570TIP3   OH210673   0.357   0.416   2.503
 3570TIP3    H110674   0.451   0.404   2.514
 3570TIP3    H210675   0.328   0.335   2.461
 3571TIP3   OH210676   3.032   6.562   1.310
 3571TIP3    H110677   2.979   6.489   1.279
 3571TIP3    H210678   3.122   6.531   1.302
 3572TIP3   OH210679   5.548   0.776   0.323
 3572TIP3    H110680   5.568   0.796   0.232
 3572TIP3    H210681   5.607   0.703   0.345
 3573TIP3   OH210682   3.188   3.546   0.127
 3573TIP3    H110683   3.133   3.509   0.058
 3573TIP3    H210684   3.272   3.563   0.083
 3574TIP3   OH210685   7.121   3.472   4.165
 3574TIP3    H110686   7.064   3.415   4.216
 3574TIP3    H210687   7.078   3.481   4.080
 3575TIP3   OH210688   3.786   0.276   4.589
 3575TIP3    H110689   3.702   0.247   4.626
 3575TIP3    H210690   3.807   0.356   4.637
 3576TIP3   OH210691   5.303   2.073   4.013
 3576TIP3    H110692   5.287   1.984   3.982
 3576TIP3    H210693   5.221   2.120   3.994
 3577TIP3   OH210694   1.549   5.341   5.743
 3577TIP3    H110695   1.642   5.357   5.731
 3577TIP3    H210696   1.541   5.246   5.741
 3578TIP3   OH210697   6.325   4.554   0.546
 3578TIP3    H110698   6.413   4.539   0.511
 3578TIP3    H210699   6.327   4.517   0.634
 3579TIP3   OH210700   3.939   1.377   3.861
 3579TIP3    H110701   3.880   1.399   3.934
 3579TIP3    H210702   3.881   1.344   3.792
 3580TIP3   OH210703   1.633   0.947   1.493
 3580TIP3    H110704   1.659   0.987   1.576
 3580TIP3    H210705   1.571   0.878   1.518
 3581TIP3   OH210706   1.344   4.717   0.133
 3581TIP3    H110707   1.259   4.714   0.090
 3581TIP3    H210708   1.354   4.808   0.161
 3582TIP3   OH210709   3.287   4.242   0.236
 3582TIP3    H110710   3.365   4.187   0.247
 3582TIP3    H210711   3.258   4.226   0.147
 3583TIP3   OH210712   1.602   5.681   2.222
 3583TIP3    H110713   1.586   5.692   2.315
 3583TIP3    H210714   1.575   5.591   2.204
 3584TIP3   OH210715   4.281   1.373   0.393
 3584TIP3    H110716   4.286   1.458   0.350
 3584TIP3    H210717   4.296   1.392   0.486
 3585TIP3   OH210718   4.457   3.527   5.326
 3585TIP3    H110719   4.470   3.601   5.266
 3585TIP3    H210720   4.536   3.526   5.381
 3586TIP3   OH210721   4.767   0.746   1.628
 3586TIP3    H110722   4.780   0.727   1.721
 3586TIP3    H210723   4.806   0.833   1.617
 3587TIP3   OH210724   4.882   0.080   3.502
 3587TIP3    H110725   4.832   0.005   3.469
 3587TIP3    H210726   4.974   0.053   3.492
 3588TIP3   OH210727   0.996   6.298   2.889
 3588TIP3    H110728   1.011   6.331   2.801
 3588TIP3    H210729   0.919   6.242   2.882
 3589TIP3   OH210730   4.092   0.633   5.224
 3589TIP3    H110731   4.007   0.629   5.181
 3589TIP3    H210732   4.149   0.578   5.170
 3590TIP3   OH210733   5.347   3.246   4.779
 3590TIP3    H110734   5.344   3.192   4.701
 3590TIP3    H210735   5.278   3.312   4.766
 3591TIP3   OH210736   6.302   0.760   5.738
 3591TIP3    H110737   6.240   0.699   5.699
 3591TIP3    H210738   6.316   0.827   5.670
 3592TIP3   OH210739   0.118   6.006   4.161
 3592TIP3    H110740   0.136   6.076   4.224
 3592TIP3    H210741   0.023   5.995   4.166
 3593TIP3   OH210742   2.170   3.014   2.699
 3593TIP3    H110743   2.264   2.999   2.708
 3593TIP3    H210744   2.138   3.023   2.789
 3594TIP3   OH210745   5.920   4.418   5.494
 3594TIP3    H110746   6.013   4.424   5.473
 3594TIP3    H210747   5.889   4.509   5.494
 3595TIP3   OH210748   3.194   6.031   1.687
 3595TIP3    H110749   3.130   6.101   1.679
 3595TIP3    H210750   3.144   5.954   1.715
 3596TIP3   OH210751   3.882   2.785   2.326
 3596TIP3    H110752   3.817   2.765   2.258
 3596TIP3    H210753   3.873   2.715   2.390
 3597TIP3   OH210754   3.274   0.848   5.152
 3597TIP3    H110755   3.352   0.795   5.170
 3597TIP3    H210756   3.205   0.808   5.206
 3598TIP3   OH210757   5.497   3.143   1.507
 3598TIP3    H110758   5.562   3.074   1.492
 3598TIP3    H210759   5.509   3.169   1.598
 3599TIP3   OH210760   4.064   3.453   0.195
 3599TIP3    H110761   4.052   3.548   0.191
 3599TIP3    H210762   4.039   3.422   0.108
 3600TIP3   OH210763   7.137   6.432   3.721
 3600TIP3    H110764   7.188   6.352   3.731
 3600TIP3    H210765   7.063   6.421   3.782
 3601TIP3   OH210766   5.167   5.266   1.628
 3601TIP3    H110767   5.243   5.321   1.610
 3601TIP3    H210768   5.151   5.276   1.721
 3602TIP3   OH210769   3.687   2.327   1.998
 3602TIP3    H110770   3.596   2.358   1.991
 3602TIP3    H210771   3.694   2.257   1.934
 3603TIP3   OH210772   4.052   1.683   2.186
 3603TIP3    H110773   4.039   1.701   2.093
 3603TIP3    H210774   4.134   1.726   2.208
 3604TIP3   OH210775   2.527   4.288   1.835
 3604TIP3    H110776   2.622   4.276   1.823
 3604TIP3    H210777   2.520   4.345   1.912
 3605TIP3   OH210778   4.691   6.447   2.108
 3605TIP3    H110779   4.678   6.367   2.057
 3605TIP3    H210780   4.648   6.515   2.056
 3606TIP3   OH210781   3.728   6.353   1.298
 3606TIP3    H110782   3.777   6.274   1.273
 3606TIP3    H210783   3.794   6.422   1.299
 3607TIP3   OH210784   1.275   3.616   1.513
 3607TIP3    H110785   1.260   3.614   1.419
 3607TIP3    H210786   1.191   3.641   1.551
 3608TIP3   OH210787   0.943  -0.009   5.687
 3608TIP3    H110788   0.930   0.060   5.621
 3608TIP3    H210789   0.969   0.039   5.766
 3609TIP3   OH210790   0.942   5.531   5.305
 3609TIP3    H110791   0.915   5.441   5.288
 3609TIP3    H210792   1.037   5.527   5.311
 3610TIP3   OH210793   1.398   6.023   4.644
 3610TIP3    H110794   1.453   5.953   4.608
 3610TIP3    H210795   1.309   5.988   4.641
 3611TIP3   OH210796   3.369   1.676   4.079
 3611TIP3    H110797   3.423   1.617   4.027
 3611TIP3    H210798   3.428   1.709   4.147
 3612TIP3   OH210799   1.312   3.012   4.106
 3612TIP3    H110800   1.311   2.938   4.045
 3612TIP3    H210801   1.221   3.020   4.135
 3613TIP3   OH210802   1.099   3.726   4.358
 3613TIP3    H110803   1.125   3.654   4.416
 3613TIP3    H210804   1.173   3.785   4.359
 3614TIP3   OH210805   3.026   3.927   3.245
 3614TIP3    H110806   3.099   3.947   3.186
 3614TIP3    H210807   3.031   3.832   3.257
 3615TIP3   OH210808   5.559   3.584   1.775
 3615TIP3    H110809   5.466   3.563   1.768
 3615TIP3    H210810   5.580   3.624   1.690
 3616TIP3   OH210811   2.432   4.603   2.978
 3616TIP3    H110812   2.488   4.679   2.991
 3616TIP3    H210813   2.366   4.610   3.047
 3617TIP3   OH210814   5.838   6.232   5.003
 3617TIP3    H110815   5.763   6.268   5.050
 3617TIP3    H210816   5.805   6.213   4.915
 3618TIP3   OH210817   5.006   2.277   3.518
 3618TIP3    H110818   4.968   2.241   3.438
 3618TIP3    H210819   5.038   2.200   3.566
 3619TIP3   OH210820   0.905   2.461   1.557
 3619TIP3    H110821   0.926   2.553   1.576
 3619TIP3    H210822   0.864   2.464   1.470
 3620TIP3   OH210823   4.434   3.007   1.530
 3620TIP3    H110824   4.378   2.930   1.535
 3620TIP3    H210825   4.479   3.010   1.614
 3621TIP3   OH210826   3.574   4.720   4.462
 3621TIP3    H110827   3.625   4.721   4.381
 3621TIP3    H210828   3.638   4.704   4.531
 3622TIP3   OH210829   6.280   5.275   1.943
 3622TIP3    H110830   6.361   5.225   1.937
 3622TIP3    H210831   6.296   5.339   2.013
 3623TIP3   OH210832   5.793   3.215   5.198
 3623TIP3    H110833   5.721   3.234   5.259
 3623TIP3    H210834   5.762   3.140   5.147
 3624TIP3   OH210835   6.953   4.682   0.389
 3624TIP3    H110836   6.983   4.599   0.425
 3624TIP3    H210837   6.863   4.666   0.362
 3625TIP3   OH210838   4.353   4.195   5.085
 3625TIP3    H110839   4.314   4.133   5.024
 3625TIP3    H210840   4.358   4.147   5.168
 3626TIP3   OH210841   0.475   1.237   5.314
 3626TIP3    H110842   0.429   1.166   5.359
 3626TIP3    H210843   0.441   1.236   5.225
 3627TIP3   OH210844   2.692   4.044   0.321
 3627TIP3    H110845   2.642   3.966   0.347
 3627TIP3    H210846   2.754   4.057   0.393
 3628TIP3   OH210847   0.688   3.940   1.096
 3628TIP3    H110848   0.724   4.024   1.069
 3628TIP3    H210849   0.750   3.875   1.063
 3629TIP3   OH210850   1.576   5.716   5.749
 3629TIP3    H110851   1.491   5.750   5.776
 3629TIP3    H210852   1.559   5.675   5.664
 3630TIP3   OH210853   3.436   4.628   2.376
 3630TIP3    H110854   3.378   4.670   2.313
 3630TIP3    H210855   3.494   4.573   2.323
 3631TIP3   OH210856   0.793   3.055   3.229
 3631TIP3    H110857   0.852   3.012   3.292
 3631TIP3    H210858   0.734   2.986   3.200
 3632TIP3   OH210859   0.333   1.868   3.428
 3632TIP3    H110860   0.428   1.859   3.414
 3632TIP3    H210861   0.311   1.950   3.383
 3633TIP3   OH210862   0.803   1.348   4.521
 3633TIP3    H110863   0.811   1.421   4.582
 3633TIP3    H210864   0.789   1.389   4.436
 3634TIP3   OH210865   6.812   5.547   0.621
 3634TIP3    H110866   6.902   5.515   0.627
 3634TIP3    H210867   6.820   5.633   0.580
 3635TIP3   OH210868   4.769   1.566   1.549
 3635TIP3    H110869   4.792   1.506   1.478
 3635TIP3    H210870   4.766   1.652   1.507
 3636TIP3   OH210871   4.149   1.156   2.093
 3636TIP3    H110872   4.175   1.206   2.170
 3636TIP3    H210873   4.218   1.170   2.030
 3637TIP3   OH210874   3.471   4.273   3.047
 3637TIP3    H110875   3.507   4.232   2.968
 3637TIP3    H210876   3.459   4.200   3.108
 3638TIP3   OH210877   4.039   6.316   1.566
 3638TIP3    H110878   4.026   6.235   1.516
 3638TIP3    H210879   4.115   6.358   1.525
 3639TIP3   OH210880   5.987   2.846   1.639
 3639TIP3    H110881   5.900   2.882   1.658
 3639TIP3    H210882   5.977   2.751   1.653
 3640TIP3   OH210883   2.715   2.292   2.182
 3640TIP3    H110884   2.703   2.261   2.272
 3640TIP3    H210885   2.715   2.388   2.189
 3641TIP3   OH210886   2.484   1.040   5.128
 3641TIP3    H110887   2.481   0.964   5.070
 3641TIP3    H210888   2.577   1.060   5.138
 3642TIP3   OH210889   2.075   5.823   1.509
 3642TIP3    H110890   2.088   5.916   1.527
 3642TIP3    H210891   2.146   5.801   1.448
 3643TIP3   OH210892   2.835   0.566   4.862
 3643TIP3    H110893   2.862   0.536   4.949
 3643TIP3    H210894   2.855   0.492   4.805
 3644TIP3   OH210895   4.726   3.410   0.339
 3644TIP3    H110896   4.784   3.374   0.272
 3644TIP3    H210897   4.752   3.502   0.347
 3645TIP3   OH210898   4.982   4.053   4.182
 3645TIP3    H110899   4.931   4.102   4.118
 3645TIP3    H210900   4.971   4.102   4.264
 3646TIP3   OH210901   6.754   6.649   0.250
 3646TIP3    H110902   6.823   6.708   0.281
 3646TIP3    H210903   6.754   6.659   0.155
 3647TIP3   OH210904   7.002   6.580   1.661
 3647TIP3    H110905   7.005   6.675   1.668
 3647TIP3    H210906   6.962   6.563   1.576
 3648TIP3   OH210907   6.051   3.281   5.320
 3648TIP3    H110908   5.986   3.256   5.254
 3648TIP3    H210909   6.134   3.278   5.273
 3649TIP3   OH210910   5.269   6.675   3.840
 3649TIP3    H110911   5.265   6.770   3.833
 3649TIP3    H210912   5.194   6.644   3.789
 3650TIP3   OH210913   2.378   6.664   3.325
 3650TIP3    H110914   2.297   6.711   3.344
 3650TIP3    H210915   2.354   6.571   3.335
 3651TIP3   OH210916   4.374   5.016   0.341
 3651TIP3    H110917   4.362   5.068   0.420
 3651TIP3    H210918   4.328   4.934   0.358
 3652TIP3   OH210919   3.452   1.668   1.430
 3652TIP3    H110920   3.445   1.584   1.476
 3652TIP3    H210921   3.373   1.715   1.456
 3653TIP3   OH210922   6.192   1.531   5.588
 3653TIP3    H110923   6.228   1.488   5.510
 3653TIP3    H210924   6.260   1.594   5.613
 3654TIP3   OH210925   4.228   3.703   4.787
 3654TIP3    H110926   4.214   3.673   4.697
 3654TIP3    H210927   4.189   3.790   4.790
 3655TIP3   OH210928   2.784   6.053   2.593
 3655TIP3    H110929   2.712   6.107   2.625
 3655TIP3    H210930   2.849   6.054   2.663
 3656TIP3   OH210931   4.768   5.826   3.228
 3656TIP3    H110932   4.779   5.771   3.306
 3656TIP3    H210933   4.856   5.859   3.209
 3657TIP3   OH210934   6.738   3.950   0.470
 3657TIP3    H110935   6.692   3.992   0.397
 3657TIP3    H210936   6.738   4.017   0.539
 3658TIP3   OH210937   1.089   2.991   1.294
 3658TIP3    H110938   1.015   3.021   1.346
 3658TIP3    H210939   1.049   2.946   1.219
 3659TIP3   OH210940   5.019   4.109   2.193
 3659TIP3    H110941   4.993   4.028   2.237
 3659TIP3    H210942   5.115   4.110   2.199
 3660TIP3   OH210943   1.279   5.891   0.236
 3660TIP3    H110944   1.363   5.936   0.247
 3660TIP3    H210945   1.287   5.849   0.150
 3661TIP3   OH210946   1.757   0.197   0.695
 3661TIP3    H110947   1.845   0.232   0.702
 3661TIP3    H210948   1.751   0.166   0.604
 3662TIP3   OH210949   4.166   5.353   0.652
 3662TIP3    H110950   4.091   5.293   0.652
 3662TIP3    H210951   4.128   5.440   0.657
 3663TIP3   OH210952   3.040   1.042   3.189
 3663TIP3    H110953   3.036   0.948   3.171
 3663TIP3    H210954   2.955   1.075   3.161
 3664TIP3   OH210955   3.357   5.684   3.293
 3664TIP3    H110956   3.434   5.714   3.342
 3664TIP3    H210957   3.361   5.589   3.298
 3665TIP3   OH210958   4.051   5.676   1.265
 3665TIP3    H110959   4.102   5.615   1.213
 3665TIP3    H210960   4.114   5.740   1.298
 3666TIP3   OH210961   5.517   4.510   1.560
 3666TIP3    H110962   5.585   4.450   1.529
 3666TIP3    H210963   5.549   4.597   1.536
 3667TIP3   OH210964   6.763   3.417   2.114
 3667TIP3    H110965   6.683   3.429   2.164
 3667TIP3    H210966   6.833   3.416   2.179
 3668TIP3   OH210967   5.429   6.569   0.864
 3668TIP3    H110968   5.355   6.614   0.906
 3668TIP3    H210969   5.409   6.573   0.771
 3669TIP3   OH210970   2.934   2.548   1.161
 3669TIP3    H110971   2.906   2.629   1.118
 3669TIP3    H210972   2.906   2.479   1.101
 3670TIP3   OH210973   4.258   3.760   3.783
 3670TIP3    H110974   4.301   3.838   3.817
 3670TIP3    H210975   4.311   3.687   3.814
 3671TIP3   OH210976   2.667   4.958   3.849
 3671TIP3    H110977   2.740   4.983   3.905
 3671TIP3    H210978   2.637   4.874   3.884
 3672TIP3   OH210979   2.457   3.197   0.789
 3672TIP3    H110980   2.460   3.115   0.740
 3672TIP3    H210981   2.409   3.175   0.869
 3673TIP3   OH210982   6.044   1.866   2.563
 3673TIP3    H110983   6.027   1.883   2.471
 3673TIP3    H210984   6.125   1.913   2.582
 3674TIP3   OH210985   5.440   1.551   4.749
 3674TIP3    H110986   5.450   1.591   4.835
 3674TIP3    H210987   5.345   1.543   4.737
 3675TIP3   OH210988   5.585   1.887   5.091
 3675TIP3    H110989   5.650   1.887   5.021
 3675TIP3    H210990   5.571   1.794   5.111
 3676TIP3   OH210991   6.049   0.150   4.559
 3676TIP3    H110992   6.048   0.151   4.655
 3676TIP3    H210993   6.122   0.206   4.534
 3677TIP3   OH210994   2.496   3.949   3.573
 3677TIP3    H110995   2.554   3.938   3.649
 3677TIP3    H210996   2.408   3.940   3.609
 3678TIP3   OH210997   0.035   4.548   1.890
 3678TIP3    H110998   0.055   4.640   1.871
 3678TIP3    H210999   0.065   4.500   1.813
 3679TIP3   OH211000   4.906   4.613   1.757
 3679TIP3    H111001   4.989   4.642   1.794
 3679TIP3    H211002   4.845   4.685   1.776
 3680TIP3   OH211003   1.279   6.403   3.700
 3680TIP3    H111004   1.331   6.431   3.626
 3680TIP3    H211005   1.263   6.310   3.685
 3681TIP3   OH211006   6.792   6.816   1.527
 3681TIP3    H111007   6.729   6.887   1.512
 3681TIP3    H211008   6.744   6.753   1.580
 3682TIP3   OH211009   1.084   4.790   5.278
 3682TIP3    H111010   1.057   4.882   5.274
 3682TIP3    H211011   1.173   4.793   5.312
 3683TIP3   OH211012   0.354   5.323   1.619
 3683TIP3    H111013   0.433   5.358   1.578
 3683TIP3    H211014   0.282   5.371   1.576
 3684TIP3   OH211015   3.424   1.450   0.117
 3684TIP3    H111016   3.364   1.416   0.051
 3684TIP3    H211017   3.499   1.391   0.114
 3685TIP3   OH211018   4.241   0.103   5.344
 3685TIP3    H111019   4.245   0.046   5.268
 3685TIP3    H211020   4.249   0.044   5.419
 3686TIP3   OH211021   2.442   0.399   0.710
 3686TIP3    H111022   2.390   0.368   0.784
 3686TIP3    H211023   2.437   0.327   0.646
 3687TIP3   OH211024   2.923   5.814   2.207
 3687TIP3    H111025   2.851   5.753   2.190
 3687TIP3    H211026   2.896   5.861   2.286
 3688TIP3   OH211027   4.697   4.628   5.124
 3688TIP3    H111028   4.631   4.662   5.063
 3688TIP3    H211029   4.780   4.661   5.091
 3689TIP3   OH211030   4.564   0.879   3.635
 3689TIP3    H111031   4.530   0.808   3.689
 3689TIP3    H211032   4.585   0.948   3.698
 3690TIP3   OH211033   5.516   1.175   0.738
 3690TIP3    H111034   5.491   1.175   0.645
 3690TIP3    H211035   5.555   1.261   0.752
 3691TIP3   OH211036   1.978   2.129   4.187
 3691TIP3    H111037   1.924   2.062   4.228
 3691TIP3    H211038   1.917   2.178   4.131
 3692TIP3   OH211039   5.815   4.433   3.097
 3692TIP3    H111040   5.859   4.353   3.068
 3692TIP3    H211041   5.855   4.503   3.046
 3693TIP3   OH211042   2.223   3.916   5.499
 3693TIP3    H111043   2.295   3.978   5.500
 3693TIP3    H211044   2.159   3.954   5.440
 3694TIP3   OH211045   5.008   5.143   1.331
 3694TIP3    H111046   5.012   5.121   1.238
 3694TIP3    H211047   5.090   5.111   1.367
 3695TIP3   OH211048   4.000   4.717   3.866
 3695TIP3    H111049   4.035   4.639   3.908
 3695TIP3    H211050   3.960   4.766   3.937
 3696TIP3   OH211051   3.964   2.025   4.400
 3696TIP3    H111052   3.982   2.050   4.491
 3696TIP3    H211053   3.945   1.932   4.404
 3697TIP3   OH211054   1.171   1.011   3.840
 3697TIP3    H111055   1.215   0.981   3.920
 3697TIP3    H211056   1.139   1.098   3.861
 3698TIP3   OH211057   6.770   1.896   3.984
 3698TIP3    H111058   6.796   1.812   4.020
 3698TIP3    H211059   6.853   1.938   3.959
 3699TIP3   OH211060   1.267   1.687   0.521
 3699TIP3    H111061   1.176   1.672   0.544
 3699TIP3    H211062   1.286   1.776   0.551
 3700TIP3   OH211063   4.812   1.473   4.946
 3700TIP3    H111064   4.870   1.498   5.019
 3700TIP3    H211065   4.738   1.431   4.989
 3701TIP3   OH211066   2.448   2.744   2.741
 3701TIP3    H111067   2.376   2.686   2.715
 3701TIP3    H211068   2.474   2.713   2.828
 3702TIP3   OH211069   0.940   5.352   3.417
 3702TIP3    H111070   0.846   5.356   3.435
 3702TIP3    H211071   0.981   5.366   3.503
 3703TIP3   OH211072   1.064   3.038   0.192
 3703TIP3    H111073   1.111   3.117   0.165
 3703TIP3    H211074   1.100   2.969   0.135
 3704TIP3   OH211075   0.369   4.014   3.451
 3704TIP3    H111076   0.281   3.993   3.420
 3704TIP3    H211077   0.406   3.931   3.479
 3705TIP3   OH211078   2.844   2.905   1.782
 3705TIP3    H111079   2.758   2.935   1.812
 3705TIP3    H211080   2.899   2.907   1.861
 3706TIP3   OH211081   3.390   6.259   3.850
 3706TIP3    H111082   3.307   6.299   3.877
 3706TIP3    H211083   3.407   6.193   3.917
 3707TIP3   OH211084   4.272   0.666   4.321
 3707TIP3    H111085   4.196   0.660   4.379
 3707TIP3    H211086   4.304   0.576   4.314
 3708TIP3   OH211087   3.055   0.220   5.138
 3708TIP3    H111088   3.015   0.306   5.125
 3708TIP3    H211089   2.988   0.170   5.185
 3709TIP3   OH211090   0.473   5.522   5.236
 3709TIP3    H111091   0.380   5.542   5.240
 3709TIP3    H211092   0.478   5.427   5.248
 3710TIP3   OH211093   0.206   6.109   5.786
 3710TIP3    H111094   0.278   6.137   5.730
 3710TIP3    H211095   0.201   6.176   5.854
 3711TIP3   OH211096   1.554   6.467   5.573
 3711TIP3    H111097   1.628   6.411   5.599
 3711TIP3    H211098   1.480   6.433   5.623
 3712TIP3   OH211099   6.476   5.112   4.168
 3712TIP3    H111100   6.438   5.024   4.170
 3712TIP3    H211101   6.563   5.101   4.208
 3713TIP3   OH211102   3.231   5.013   1.523
 3713TIP3    H111103   3.269   4.933   1.559
 3713TIP3    H211104   3.263   5.083   1.580
 3714TIP3   OH211105   5.961   0.184   1.368
 3714TIP3    H111106   5.976   0.144   1.454
 3714TIP3    H211107   5.880   0.233   1.378
 3715TIP3   OH211108   6.559   2.991   4.165
 3715TIP3    H111109   6.575   3.081   4.193
 3715TIP3    H211110   6.624   2.939   4.213
 3716TIP3   OH211111   1.925   6.163   4.582
 3716TIP3    H111112   1.998   6.183   4.641
 3716TIP3    H211113   1.859   6.230   4.601
 3717TIP3   OH211114   5.357   1.759   2.408
 3717TIP3    H111115   5.396   1.817   2.343
 3717TIP3    H211116   5.433   1.723   2.455
 3718TIP3   OH211117   0.417   1.146   3.025
 3718TIP3    H111118   0.496   1.116   2.978
 3718TIP3    H211119   0.383   1.218   2.972
 3719TIP3   OH211120   1.080   6.656   0.962
 3719TIP3    H111121   1.022   6.708   0.906
 3719TIP3    H211122   1.058   6.684   1.051
 3720TIP3   OH211123   3.885   3.360   5.290
 3720TIP3    H111124   3.939   3.429   5.253
 3720TIP3    H211125   3.815   3.406   5.337
 3721TIP3   OH211126   0.695   5.670   4.274
 3721TIP3    H111127   0.621   5.613   4.297
 3721TIP3    H211128   0.654   5.748   4.237
 3722TIP3   OH211129   3.977   2.968   0.457
 3722TIP3    H111130   4.020   2.884   0.444
 3722TIP3    H211131   4.034   3.032   0.413
 3723TIP3   OH211132   2.529   2.286   3.764
 3723TIP3    H111133   2.506   2.367   3.811
 3723TIP3    H211134   2.582   2.237   3.827
 3724TIP3   OH211135   5.228   1.257   0.490
 3724TIP3    H111136   5.267   1.325   0.435
 3724TIP3    H211137   5.179   1.305   0.557
 3725TIP3   OH211138   1.724   5.167   2.930
 3725TIP3    H111139   1.679   5.226   2.992
 3725TIP3    H211140   1.781   5.114   2.986
 3726TIP3   OH211141   3.026   3.261   4.867
 3726TIP3    H111142   2.947   3.211   4.843
 3726TIP3    H211143   3.094   3.194   4.875
 3727TIP3   OH211144   5.719   2.499   5.322
 3727TIP3    H111145   5.807   2.530   5.344
 3727TIP3    H211146   5.724   2.478   5.229
 3728TIP3   OH211147   6.580   2.557   1.056
 3728TIP3    H111148   6.582   2.651   1.077
 3728TIP3    H211149   6.488   2.535   1.050
 3729TIP3   OH211150   0.391   2.645   5.178
 3729TIP3    H111151   0.301   2.631   5.208
 3729TIP3    H211152   0.387   2.725   5.126
 3730TIP3   OH211153   3.356   3.659   1.261
 3730TIP3    H111154   3.366   3.617   1.175
 3730TIP3    H211155   3.388   3.594   1.323
 3731TIP3   OH211156   2.326   2.844   1.659
 3731TIP3    H111157   2.251   2.796   1.623
 3731TIP3    H211158   2.370   2.880   1.581
 3732TIP3   OH211159   3.900   0.069   3.596
 3732TIP3    H111160   3.969   0.017   3.555
 3732TIP3    H211161   3.834   0.081   3.528
 3733TIP3   OH211162   5.451   0.039   0.153
 3733TIP3    H111163   5.475   0.025   0.061
 3733TIP3    H211164   5.521   0.093   0.189
 3734TIP3   OH211165   1.394   4.201   1.091
 3734TIP3    H111166   1.399   4.245   1.006
 3734TIP3    H211167   1.389   4.108   1.069
 3735TIP3   OH211168   2.414   4.175   5.656
 3735TIP3    H111169   2.445   4.265   5.648
 3735TIP3    H211170   2.494   4.123   5.667
 3736TIP3   OH211171   2.511   3.357   1.859
 3736TIP3    H111172   2.536   3.329   1.946
 3736TIP3    H211173   2.433   3.411   1.872
 3737TIP3   OH211174   0.885   1.317   1.596
 3737TIP3    H111175   0.895   1.395   1.649
 3737TIP3    H211176   0.913   1.344   1.508
 3738TIP3   OH211177   0.146   4.485   1.641
 3738TIP3    H111178   0.062   4.518   1.609
 3738TIP3    H211179   0.126   4.398   1.676
 3739TIP3   OH211180   5.732   1.993   4.342
 3739TIP3    H111181   5.766   1.960   4.425
 3739TIP3    H211182   5.682   1.919   4.306
 3740TIP3   OH211183   4.079   0.073   3.882
 3740TIP3    H111184   4.164   0.117   3.874
 3740TIP3    H211185   4.021   0.140   3.919
 3741TIP3   OH211186   2.875   5.353   1.636
 3741TIP3    H111187   2.784   5.326   1.624
 3741TIP3    H211188   2.870   5.446   1.654
 3742TIP3   OH211189   3.679   3.344   0.975
 3742TIP3    H111190   3.750   3.337   1.038
 3742TIP3    H211191   3.663   3.439   0.968
 3743TIP3   OH211192   4.081   3.061   0.117
 3743TIP3    H111193   3.991   3.046   0.090
 3743TIP3    H211194   4.134   3.029   0.044
 3744TIP3   OH211195   7.181   0.901   3.378
 3744TIP3    H111196   7.160   0.844   3.304
 3744TIP3    H211197   7.141   0.985   3.356
 3745TIP3   OH211198   7.077   2.540   4.711
 3745TIP3    H111199   7.155   2.492   4.681
 3745TIP3    H211200   7.045   2.489   4.785
 3746TIP3   OH211201   7.029   2.213   5.559
 3746TIP3    H111202   7.090   2.286   5.568
 3746TIP3    H211203   7.079   2.136   5.589
 3747TIP3   OH211204   6.916   2.546   3.409
 3747TIP3    H111205   6.871   2.595   3.340
 3747TIP3    H211206   7.007   2.576   3.405
 3748TIP3   OH211207   6.644   0.879   2.088
 3748TIP3    H111208   6.569   0.922   2.045
 3748TIP3    H211209   6.711   0.876   2.020
 3749TIP3   OH211210   4.553   5.710   2.416
 3749TIP3    H111211   4.539   5.635   2.474
 3749TIP3    H211212   4.465   5.744   2.400
 3750TIP3   OH211213   4.163   5.120   1.692
 3750TIP3    H111214   4.072   5.103   1.715
 3750TIP3    H211215   4.158   5.165   1.607
 3751TIP3   OH211216   1.307   6.046   2.199
 3751TIP3    H111217   1.385   6.001   2.166
 3751TIP3    H211218   1.292   6.008   2.286
 3752TIP3   OH211219   2.827   5.759   5.252
 3752TIP3    H111220   2.849   5.846   5.217
 3752TIP3    H211221   2.732   5.752   5.241
 3753TIP3   OH211222   7.024   2.613   2.847
 3753TIP3    H111223   6.949   2.625   2.906
 3753TIP3    H211224   7.027   2.518   2.832
 3754TIP3   OH211225   6.962   1.174   2.942
 3754TIP3    H111226   6.919   1.252   2.979
 3754TIP3    H211227   7.055   1.195   2.945
 3755TIP3   OH211228   1.492   0.119   5.386
 3755TIP3    H111229   1.439   0.041   5.372
 3755TIP3    H211230   1.443   0.171   5.449
 3756TIP3   OH211231   1.552   3.418   2.029
 3756TIP3    H111232   1.518   3.457   1.948
 3756TIP3    H211233   1.642   3.392   2.008
 3757TIP3   OH211234   0.062   6.034   0.908
 3757TIP3    H111235   0.059   5.974   0.983
 3757TIP3    H211236   0.014   5.987   0.839
 3758TIP3   OH211237   4.781   0.220   1.612
 3758TIP3    H111238   4.783   0.198   1.705
 3758TIP3    H211239   4.695   0.262   1.600
 3759TIP3   OH211240   1.372   0.187   0.203
 3759TIP3    H111241   1.438   0.248   0.171
 3759TIP3    H211242   1.318   0.168   0.126
 3760TIP3   OH211243   6.434   4.283   2.970
 3760TIP3    H111244   6.475   4.241   3.046
 3760TIP3    H211245   6.504   4.289   2.905
 3761TIP3   OH211246   3.822   2.071   5.493
 3761TIP3    H111247   3.814   2.162   5.520
 3761TIP3    H211248   3.809   2.021   5.574
 3762TIP3   OH211249   6.367   5.630   4.053
 3762TIP3    H111250   6.395   5.625   3.961
 3762TIP3    H211251   6.434   5.581   4.101
 3763TIP3   OH211252   3.793   6.495   4.256
 3763TIP3    H111253   3.765   6.550   4.329
 3763TIP3    H211254   3.760   6.539   4.178
 3764TIP3   OH211255   1.341   3.066   5.645
 3764TIP3    H111256   1.276   3.129   5.611
 3764TIP3    H211257   1.394   3.043   5.569
 3765TIP3   OH211258   3.605   5.351   4.870
 3765TIP3    H111259   3.585   5.296   4.946
 3765TIP3    H211260   3.520   5.367   4.830
 3766TIP3   OH211261   2.056   2.841   0.780
 3766TIP3    H111262   2.009   2.867   0.859
 3766TIP3    H211263   1.989   2.812   0.719
 3767TIP3   OH211264   6.245   4.921   4.018
 3767TIP3    H111265   6.263   4.914   3.924
 3767TIP3    H211266   6.273   4.838   4.055
 3768TIP3   OH211267   7.063   2.337   2.871
 3768TIP3    H111268   7.154   2.332   2.843
 3768TIP3    H211269   7.047   2.254   2.916
 3769TIP3   OH211270   3.557   3.303   0.150
 3769TIP3    H111271   3.512   3.256   0.080
 3769TIP3    H211272   3.646   3.313   0.118
 3770TIP3   OH211273   6.589   2.167   2.164
 3770TIP3    H111274   6.534   2.191   2.089
 3770TIP3    H211275   6.545   2.206   2.240
 3771TIP3   OH211276   3.002   4.986   5.745
 3771TIP3    H111277   3.005   4.914   5.808
 3771TIP3    H211278   2.959   4.950   5.668
 3772TIP3   OH211279   1.306   2.096   3.497
 3772TIP3    H111280   1.312   2.131   3.409
 3772TIP3    H211281   1.214   2.103   3.520
 3773TIP3   OH211282   6.488   3.273   2.992
 3773TIP3    H111283   6.454   3.241   3.076
 3773TIP3    H211284   6.414   3.316   2.950
 3774TIP3   OH211285   1.046   1.952   3.730
 3774TIP3    H111286   1.095   1.872   3.747
 3774TIP3    H211287   1.107   2.023   3.751
 3775TIP3   OH211288   1.834   0.268   1.672
 3775TIP3    H111289   1.748   0.308   1.657
 3775TIP3    H211290   1.891   0.309   1.606
 3776TIP3   OH211291   3.113   1.179   1.589
 3776TIP3    H111292   3.073   1.092   1.581
 3776TIP3    H211293   3.205   1.165   1.568
 3777TIP3   OH211294   2.737   4.526   1.247
 3777TIP3    H111295   2.708   4.617   1.245
 3777TIP3    H211296   2.792   4.517   1.170
 3778TIP3   OH211297   2.620   6.504   0.179
 3778TIP3    H111298   2.649   6.576   0.123
 3778TIP3    H211299   2.573   6.445   0.120
 3779TIP3   OH211300   6.475   1.439   2.046
 3779TIP3    H111301   6.536   1.366   2.032
 3779TIP3    H211302   6.389   1.400   2.032
 3780TIP3   OH211303   5.374   0.097   2.989
 3780TIP3    H111304   5.469   0.088   3.000
 3780TIP3    H211305   5.337   0.070   3.073
 3781TIP3   OH211306   4.037   5.909   3.054
 3781TIP3    H111307   4.031   5.997   3.017
 3781TIP3    H211308   4.129   5.884   3.042
 3782TIP3   OH211309   5.745   3.214   1.084
 3782TIP3    H111310   5.819   3.274   1.071
 3782TIP3    H211311   5.745   3.158   1.006
 3783TIP3   OH211312   5.316   1.723   0.564
 3783TIP3    H111313   5.348   1.813   0.572
 3783TIP3    H211314   5.228   1.731   0.527
 3784TIP3   OH211315   3.505   0.689   5.253
 3784TIP3    H111316   3.568   0.633   5.208
 3784TIP3    H211317   3.463   0.631   5.317
 3785TIP3   OH211318   3.466   5.370   0.383
 3785TIP3    H111319   3.461   5.274   0.390
 3785TIP3    H211320   3.400   5.401   0.445
 3786TIP3   OH211321   2.774   6.709   1.716
 3786TIP3    H111322   2.686   6.701   1.753
 3786TIP3    H211323   2.801   6.618   1.702
 3787TIP3   OH211324   6.151   5.607   4.884
 3787TIP3    H111325   6.081   5.618   4.820
 3787TIP3    H211326   6.194   5.526   4.858
 3788TIP3   OH211327   2.021   0.416   0.707
 3788TIP3    H111328   2.052   0.369   0.629
 3788TIP3    H211329   2.093   0.474   0.731
 3789TIP3   OH211330   3.410   4.090   4.066
 3789TIP3    H111331   3.347   4.020   4.047
 3789TIP3    H211332   3.420   4.136   3.983
 3790TIP3   OH211333   7.124   6.103   3.493
 3790TIP3    H111334   7.172   6.020   3.487
 3790TIP3    H211335   7.193   6.169   3.501
 3791TIP3   OH211336   6.340   0.228   0.847
 3791TIP3    H111337   6.277   0.158   0.861
 3791TIP3    H211338   6.301   0.283   0.780
 3792TIP3   OH211339   6.317   3.685   3.534
 3792TIP3    H111340   6.404   3.703   3.569
 3792TIP3    H211341   6.318   3.591   3.516
 3793TIP3   OH211342   5.941   3.581   1.032
 3793TIP3    H111343   5.970   3.670   1.010
 3793TIP3    H211344   5.854   3.574   0.992
 3794TIP3   OH211345   5.939   0.904   3.489
 3794TIP3    H111346   5.945   0.998   3.468
 3794TIP3    H211347   5.875   0.900   3.560
 3795TIP3   OH211348   2.379   3.482   2.853
 3795TIP3    H111349   2.473   3.485   2.872
 3795TIP3    H211350   2.339   3.453   2.935
 3796TIP3   OH211351   4.415   1.250   3.974
 3796TIP3    H111352   4.335   1.197   3.982
 3796TIP3    H211353   4.385   1.340   3.985
 3797TIP3   OH211354   4.554   4.870   3.890
 3797TIP3    H111355   4.459   4.858   3.886
 3797TIP3    H211356   4.566   4.959   3.922
 3798TIP3   OH211357   3.018   2.919   2.248
 3798TIP3    H111358   3.029   2.946   2.339
 3798TIP3    H211359   3.096   2.868   2.228
 3799TIP3   OH211360   1.886   0.007   5.347
 3799TIP3    H111361   1.852  -0.072   5.388
 3799TIP3    H211362   1.948   0.042   5.411
 3800TIP3   OH211363   1.979   3.792   4.945
 3800TIP3    H111364   1.889   3.817   4.969
 3800TIP3    H211365   2.026   3.792   5.028
 3801TIP3   OH211366   4.030   2.969   2.143
 3801TIP3    H111367   3.970   2.942   2.213
 3801TIP3    H211368   4.047   2.888   2.095
 3802TIP3   OH211369   3.186   2.695   4.837
 3802TIP3    H111370   3.175   2.753   4.762
 3802TIP3    H211371   3.277   2.709   4.865
 3803TIP3   OH211372   1.874   6.289   0.694
 3803TIP3    H111373   1.836   6.221   0.750
 3803TIP3    H211374   1.805   6.311   0.632
 3804TIP3   OH211375   1.511   3.499   1.008
 3804TIP3    H111376   1.508   3.408   1.039
 3804TIP3    H211377   1.578   3.498   0.939
 3805TIP3   OH211378   1.619   2.661   0.794
 3805TIP3    H111379   1.665   2.592   0.843
 3805TIP3    H211380   1.623   2.737   0.851
 3806TIP3   OH211381   1.915   3.665   2.618
 3806TIP3    H111382   1.877   3.700   2.537
 3806TIP3    H211383   1.923   3.571   2.602
 3807TIP3   OH211384   4.535   0.773   4.243
 3807TIP3    H111385   4.537   0.799   4.335
 3807TIP3    H211386   4.444   0.754   4.225
 3808TIP3   OH211387   0.405   4.036   3.096
 3808TIP3    H111388   0.319   4.062   3.129
 3808TIP3    H211389   0.388   3.960   3.041
 3809TIP3   OH211390   2.932   6.026   5.588
 3809TIP3    H111391   3.027   6.027   5.577
 3809TIP3    H211392   2.918   6.068   5.673
 3810TIP3   OH211393   1.742   1.443   1.401
 3810TIP3    H111394   1.793   1.411   1.327
 3810TIP3    H211395   1.662   1.390   1.400
 3811TIP3   OH211396   6.863   4.503   1.347
 3811TIP3    H111397   6.843   4.514   1.254
 3811TIP3    H211398   6.855   4.408   1.362
 3812TIP3   OH211399   3.961   2.411   0.224
 3812TIP3    H111400   3.991   2.322   0.238
 3812TIP3    H211401   3.913   2.433   0.304
 3813TIP3   OH211402   0.190   0.937   5.063
 3813TIP3    H111403   0.266   0.890   5.030
 3813TIP3    H211404   0.127   0.934   4.991
 3814TIP3   OH211405   3.885   6.128   0.580
 3814TIP3    H111406   3.925   6.173   0.506
 3814TIP3    H211407   3.839   6.053   0.541
 3815TIP3   OH211408   6.184   6.663   3.914
 3815TIP3    H111409   6.278   6.678   3.922
 3815TIP3    H211410   6.145   6.750   3.921
 3816TIP3   OH211411   6.964   0.432   1.669
 3816TIP3    H111412   6.927   0.381   1.741
 3816TIP3    H211413   6.907   0.413   1.594
 3817TIP3   OH211414   5.172   2.629   1.321
 3817TIP3    H111415   5.197   2.703   1.376
 3817TIP3    H211416   5.252   2.607   1.272
 3818TIP3   OH211417   5.098   1.019   3.299
 3818TIP3    H111418   5.080   0.966   3.377
 3818TIP3    H211419   5.045   0.978   3.230
 3819TIP3   OH211420   4.034   4.228   4.433
 3819TIP3    H111421   4.096   4.191   4.369
 3819TIP3    H211422   3.948   4.217   4.392
 3820TIP3   OH211423   3.095   5.503   2.332
 3820TIP3    H111424   3.013   5.453   2.334
 3820TIP3    H211425   3.082   5.573   2.395
 3821TIP3   OH211426   0.806   1.221   2.396
 3821TIP3    H111427   0.811   1.252   2.305
 3821TIP3    H211428   0.827   1.128   2.391
 3822TIP3   OH211429   1.697   0.090   1.483
 3822TIP3    H111430   1.624   0.089   1.423
 3822TIP3    H211431   1.675   0.158   1.547
 3823TIP3   OH211432   1.034   0.329   1.526
 3823TIP3    H111433   1.029   0.297   1.616
 3823TIP3    H211434   0.994   0.259   1.474
 3824TIP3   OH211435   4.429   2.767   2.973
 3824TIP3    H111436   4.397   2.723   2.895
 3824TIP3    H211437   4.485   2.702   3.016
 3825TIP3   OH211438   2.404   0.742   0.957
 3825TIP3    H111439   2.412   0.832   0.924
 3825TIP3    H211440   2.492   0.719   0.987
 3826TIP3   OH211441   6.410   0.137   3.499
 3826TIP3    H111442   6.375   0.051   3.523
 3826TIP3    H211443   6.350   0.199   3.540
 3827TIP3   OH211444   0.441   3.691   1.819
 3827TIP3    H111445   0.491   3.623   1.774
 3827TIP3    H211446   0.352   3.656   1.824
 3828TIP3   OH211447   4.579   3.416   4.020
 3828TIP3    H111448   4.668   3.396   4.051
 3828TIP3    H211449   4.522   3.381   4.088
 3829TIP3   OH211450   3.588   5.935   4.532
 3829TIP3    H111451   3.638   5.976   4.602
 3829TIP3    H211452   3.646   5.866   4.498
 3830TIP3   OH211453   0.553   3.145   2.251
 3830TIP3    H111454   0.485   3.204   2.283
 3830TIP3    H211455   0.596   3.112   2.331
 3831TIP3   OH211456   2.604   4.675   4.213
 3831TIP3    H111457   2.650   4.758   4.202
 3831TIP3    H211458   2.649   4.633   4.286
 3832TIP3   OH211459   6.395   2.464   3.453
 3832TIP3    H111460   6.480   2.421   3.444
 3832TIP3    H211461   6.354   2.421   3.528
 3833TIP3   OH211462   3.554   0.917   4.577
 3833TIP3    H111463   3.629   0.857   4.579
 3833TIP3    H211464   3.577   0.983   4.512
 3834TIP3   OH211465   5.630   6.335   5.152
 3834TIP3    H111466   5.637   6.430   5.156
 3834TIP3    H211467   5.630   6.306   5.243
 3835TIP3   OH211468   3.703   5.600   5.815
 3835TIP3    H111469   3.755   5.680   5.828
 3835TIP3    H211470   3.613   5.632   5.806
 3836TIP3   OH211471   6.191   5.545   0.750
 3836TIP3    H111472   6.167   5.635   0.774
 3836TIP3    H211473   6.247   5.555   0.673
 3837TIP3   OH211474   4.908   2.973   1.758
 3837TIP3    H111475   4.978   3.038   1.759
 3837TIP3    H211476   4.833   3.018   1.718
 3838TIP3   OH211477   4.810   4.633   5.803
 3838TIP3    H111478   4.782   4.596   5.887
 3838TIP3    H211479   4.752   4.593   5.739
 3839TIP3   OH211480   0.273   1.195   5.117
 3839TIP3    H111481   0.236   1.109   5.137
 3839TIP3    H211482   0.230   1.222   5.037
 3840TIP3   OH211483   4.023   6.642   2.556
 3840TIP3    H111484   3.945   6.678   2.598
 3840TIP3    H211485   4.094   6.660   2.618
 3841TIP3   OH211486   5.575   2.448   0.847
 3841TIP3    H111487   5.610   2.495   0.771
 3841TIP3    H211488   5.582   2.356   0.823
 3842TIP3   OH211489   3.049   1.243   4.160
 3842TIP3    H111490   3.111   1.302   4.118
 3842TIP3    H211491   2.995   1.210   4.088
 3843TIP3   OH211492   3.219   4.219   2.614
 3843TIP3    H111493   3.165   4.284   2.660
 3843TIP3    H211494   3.173   4.136   2.628
 3844TIP3   OH211495   1.452   1.093   1.727
 3844TIP3    H111496   1.372   1.107   1.677
 3844TIP3    H211497   1.475   1.001   1.710
 3845TIP3   OH211498   5.754   1.853   4.871
 3845TIP3    H111499   5.797   1.768   4.885
 3845TIP3    H211500   5.751   1.861   4.775
 3846TIP3   OH211501   1.047   0.781   4.475
 3846TIP3    H111502   1.139   0.803   4.492
 3846TIP3    H211503   1.010   0.767   4.563
 3847TIP3   OH211504   0.409   5.534   4.230
 3847TIP3    H111505   0.324   5.578   4.235
 3847TIP3    H211506   0.444   5.559   4.145
 3848TIP3   OH211507   3.170   4.095   5.417
 3848TIP3    H111508   3.126   4.033   5.358
 3848TIP3    H211509   3.149   4.181   5.380
 3849TIP3   OH211510   0.304   4.698   3.465
 3849TIP3    H111511   0.229   4.730   3.415
 3849TIP3    H211512   0.266   4.637   3.529
 3850TIP3   OH211513   0.314   2.668   4.899
 3850TIP3    H111514   0.306   2.742   4.959
 3850TIP3    H211515   0.280   2.593   4.948
 3851TIP3   OH211516   2.116   0.376   4.024
 3851TIP3    H111517   2.133   0.454   4.077
 3851TIP3    H211518   2.190   0.371   3.964
 3852TIP3   OH211519   7.171   1.797   4.365
 3852TIP3    H111520   7.207   1.764   4.448
 3852TIP3    H211521   7.078   1.813   4.384
 3853TIP3   OH211522   1.911   0.210   3.099
 3853TIP3    H111523   1.838   0.232   3.157
 3853TIP3    H211524   1.870   0.168   3.024
 3854TIP3   OH211525   1.375   6.823   1.355
 3854TIP3    H111526   1.460   6.791   1.387
 3854TIP3    H211527   1.381   6.815   1.260
 3855TIP3   OH211528   6.539   3.453   4.672
 3855TIP3    H111529   6.467   3.503   4.635
 3855TIP3    H211530   6.513   3.436   4.763
 3856TIP3   OH211531   0.711   5.096   3.616
 3856TIP3    H111532   0.665   5.174   3.647
 3856TIP3    H211533   0.664   5.023   3.656
 3857TIP3   OH211534   3.104   2.653   0.573
 3857TIP3    H111535   3.160   2.631   0.647
 3857TIP3    H211536   3.157   2.711   0.519
 3858TIP3   OH211537   2.213   3.959   1.552
 3858TIP3    H111538   2.292   3.970   1.605
 3858TIP3    H211539   2.242   3.981   1.463
 3859TIP3   OH211540   6.071   5.833   5.221
 3859TIP3    H111541   6.166   5.836   5.231
 3859TIP3    H211542   6.053   5.884   5.142
 3860TIP3   OH211543   4.147   5.751   4.814
 3860TIP3    H111544   4.181   5.671   4.773
 3860TIP3    H211545   4.147   5.732   4.908
 3861TIP3   OH211546   6.292   1.373   1.598
 3861TIP3    H111547   6.361   1.425   1.557
 3861TIP3    H211548   6.263   1.314   1.528
 3862TIP3   OH211549   3.245   2.365   5.708
 3862TIP3    H111550   3.289   2.449   5.720
 3862TIP3    H211551   3.316   2.301   5.706
 3863TIP3   OH211552   4.491   2.807   3.472
 3863TIP3    H111553   4.434   2.883   3.455
 3863TIP3    H211554   4.563   2.817   3.410
 3864TIP3   OH211555   3.670   0.774   1.184
 3864TIP3    H111556   3.601   0.781   1.251
 3864TIP3    H211557   3.738   0.835   1.214
 3865TIP3   OH211558   3.325   3.092   2.240
 3865TIP3    H111559   3.341   3.106   2.147
 3865TIP3    H211560   3.288   3.003   2.244
 3866TIP3   OH211561   4.515   2.804   1.101
 3866TIP3    H111562   4.609   2.804   1.122
 3866TIP3    H211563   4.505   2.877   1.040
 3867TIP3   OH211564   0.135   4.579   0.238
 3867TIP3    H111565   0.230   4.567   0.230
 3867TIP3    H211566   0.100   4.549   0.154
 3868TIP3   OH211567   3.789   4.922   0.032
 3868TIP3    H111568   3.762   4.976   0.106
 3868TIP3    H211569   3.785   4.832   0.065
 3869TIP3   OH211570   6.223   4.639   4.040
 3869TIP3    H111571   6.172   4.579   4.095
 3869TIP3    H211572   6.178   4.638   3.956
 3870TIP3   OH211573   3.570   5.153   4.595
 3870TIP3    H111574   3.478   5.125   4.590
 3870TIP3    H211575   3.587   5.163   4.689
 3871TIP3   OH211576   5.683   1.315   2.072
 3871TIP3    H111577   5.642   1.240   2.115
 3871TIP3    H211578   5.643   1.317   1.985
 3872TIP3   OH211579   3.577   4.523   4.789
 3872TIP3    H111580   3.586   4.448   4.848
 3872TIP3    H211581   3.598   4.488   4.703
 3873TIP3   OH211582   1.488   3.815   0.680
 3873TIP3    H111583   1.470   3.795   0.772
 3873TIP3    H211584   1.553   3.751   0.653
 3874TIP3   OH211585   5.570   4.503   1.215
 3874TIP3    H111586   5.655   4.476   1.181
 3874TIP3    H211587   5.565   4.597   1.197
 3875TIP3   OH211588   2.083   0.486   5.320
 3875TIP3    H111589   2.124   0.572   5.325
 3875TIP3    H211590   1.989   0.504   5.324
 3876TIP3   OH211591   6.827   5.643   4.136
 3876TIP3    H111592   6.750   5.656   4.191
 3876TIP3    H211593   6.825   5.716   4.074
 3877TIP3   OH211594   0.397   1.331   0.363
 3877TIP3    H111595   0.330   1.399   0.368
 3877TIP3    H211596   0.399   1.304   0.272
 3878TIP3   OH211597   1.157   1.427   0.712
 3878TIP3    H111598   1.177   1.334   0.715
 3878TIP3    H211599   1.077   1.433   0.660
 3879TIP3   OH211600   5.518   0.205   5.219
 3879TIP3    H111601   5.458   0.277   5.200
 3879TIP3    H211602   5.461   0.134   5.250
 3880TIP3   OH211603   4.545   2.132   0.815
 3880TIP3    H111604   4.617   2.183   0.778
 3880TIP3    H211605   4.535   2.165   0.904
 3881TIP3   OH211606   6.570   6.750   1.126
 3881TIP3    H111607   6.584   6.796   1.043
 3881TIP3    H211608   6.651   6.763   1.175
 3882TIP3   OH211609   1.939   3.617   3.736
 3882TIP3    H111610   1.930   3.624   3.641
 3882TIP3    H211611   1.853   3.642   3.770
 3883TIP3   OH211612   1.823   0.506   5.274
 3883TIP3    H111613   1.827   0.596   5.242
 3883TIP3    H211614   1.739   0.473   5.241
 3884TIP3   OH211615   0.783   2.100   2.062
 3884TIP3    H111616   0.732   2.179   2.079
 3884TIP3    H211617   0.798   2.101   1.967
 3885TIP3   OH211618   2.533   5.080   5.516
 3885TIP3    H111619   2.549   5.104   5.425
 3885TIP3    H211620   2.477   5.002   5.511
 3886TIP3   OH211621   3.097   0.332   3.298
 3886TIP3    H111622   3.189   0.356   3.307
 3886TIP3    H211623   3.098   0.242   3.265
 3887TIP3   OH211624   3.313   3.087   1.146
 3887TIP3    H111625   3.332   3.178   1.126
 3887TIP3    H211626   3.322   3.042   1.062
 3888TIP3   OH211627   5.616   2.147   2.147
 3888TIP3    H111628   5.623   2.095   2.066
 3888TIP3    H211629   5.693   2.204   2.145
 3889TIP3   OH211630   1.019   1.049   4.858
 3889TIP3    H111631   0.992   0.958   4.872
 3889TIP3    H211632   0.988   1.069   4.770
 3890TIP3   OH211633   3.052   1.212   5.519
 3890TIP3    H111634   3.111   1.174   5.585
 3890TIP3    H211635   3.078   1.169   5.437
 3891TIP3   OH211636   2.297   6.613   0.161
 3891TIP3    H111637   2.366   6.638   0.223
 3891TIP3    H211638   2.216   6.621   0.211
 3892TIP3   OH211639   3.895   5.840   0.447
 3892TIP3    H111640   3.840   5.813   0.521
 3892TIP3    H211641   3.985   5.824   0.478
 3893TIP3   OH211642   4.866   0.943   2.782
 3893TIP3    H111643   4.883   0.984   2.867
 3893TIP3    H211644   4.788   0.989   2.749
 3894TIP3   OH211645   2.078   6.599   2.800
 3894TIP3    H111646   2.009   6.656   2.765
 3894TIP3    H211647   2.114   6.648   2.874
 3895TIP3   OH211648   3.512   4.385   3.392
 3895TIP3    H111649   3.500   4.427   3.477
 3895TIP3    H211650   3.455   4.309   3.395
 3896TIP3   OH211651   1.959   1.441   5.420
 3896TIP3    H111652   2.031   1.464   5.480
 3896TIP3    H211653   1.930   1.355   5.450
 3897TIP3   OH211654   3.829   5.082   1.618
 3897TIP3    H111655   3.858   5.017   1.555
 3897TIP3    H211656   3.867   5.054   1.701
 3898TIP3   OH211657   2.658   4.537   3.135
 3898TIP3    H111658   2.573   4.532   3.091
 3898TIP3    H211659   2.718   4.564   3.066
 3899TIP3   OH211660   0.610   0.225   0.833
 3899TIP3    H111661   0.550   0.184   0.771
 3899TIP3    H211662   0.559   0.297   0.872
 3900TIP3   OH211663   1.095   2.020   1.996
 3900TIP3    H111664   1.044   2.029   1.916
 3900TIP3    H211665   1.076   2.099   2.046
 3901TIP3   OH211666   5.746   4.890   0.416
 3901TIP3    H111667   5.755   4.934   0.331
 3901TIP3    H211668   5.699   4.809   0.396
 3902TIP3   OH211669   0.605   0.366   3.550
 3902TIP3    H111670   0.682   0.415   3.520
 3902TIP3    H211671   0.596   0.390   3.642
 3903TIP3   OH211672   4.040   3.929   2.945
 3903TIP3    H111673   4.136   3.932   2.948
 3903TIP3    H211674   4.020   3.838   2.921
 3904TIP3   OH211675   0.673   5.142   1.284
 3904TIP3    H111676   0.684   5.221   1.231
 3904TIP3    H211677   0.640   5.173   1.368
 3905TIP3   OH211678   4.421   3.640   0.264
 3905TIP3    H111679   4.419   3.689   0.181
 3905TIP3    H211680   4.365   3.691   0.323
 3906TIP3   OH211681   2.479   5.279   3.499
 3906TIP3    H111682   2.474   5.202   3.557
 3906TIP3    H211683   2.570   5.309   3.508
 3907TIP3   OH211684   5.007   5.531   1.990
 3907TIP3    H111685   4.971   5.616   2.017
 3907TIP3    H211686   4.935   5.470   2.006
 3908TIP3   OH211687   3.819   6.719   4.484
 3908TIP3    H111688   3.844   6.762   4.566
 3908TIP3    H211689   3.757   6.780   4.443
 3909TIP3   OH211690   0.665   1.051   1.995
 3909TIP3    H111691   0.602   1.123   1.993
 3909TIP3    H211692   0.618   0.978   1.954
 3910TIP3   OH211693   1.002   0.421   4.194
 3910TIP3    H111694   0.935   0.409   4.127
 3910TIP3    H211695   1.019   0.515   4.194
 3911TIP3   OH211696   2.443   1.178   0.715
 3911TIP3    H111697   2.398   1.250   0.669
 3911TIP3    H211698   2.443   1.106   0.652
 3912TIP3   OH211699   2.639   5.898   4.347
 3912TIP3    H111700   2.675   5.821   4.304
 3912TIP3    H211701   2.644   5.879   4.441
 3913TIP3   OH211702   2.827   0.398   2.446
 3913TIP3    H111703   2.892   0.328   2.460
 3913TIP3    H211704   2.743   0.358   2.471
 3914TIP3   OH211705   3.842   6.178   5.665
 3914TIP3    H111706   3.875   6.187   5.754
 3914TIP3    H211707   3.843   6.267   5.630
 3915TIP3   OH211708   7.024   6.320   5.741
 3915TIP3    H111709   6.997   6.237   5.700
 3915TIP3    H211710   7.060   6.294   5.825
 3916TIP3   OH211711   3.316   4.378   0.776
 3916TIP3    H111712   3.384   4.348   0.715
 3916TIP3    H211713   3.360   4.385   0.860
 3917TIP3   OH211714   3.418   1.041   2.449
 3917TIP3    H111715   3.327   1.070   2.447
 3917TIP3    H211716   3.415   0.953   2.486
 3918TIP3   OH211717   3.168   5.061   0.109
 3918TIP3    H111718   3.081   5.021   0.109
 3918TIP3    H211719   3.162   5.129   0.177
 3919TIP3   OH211720   4.331   5.585   1.800
 3919TIP3    H111721   4.306   5.631   1.879
 3919TIP3    H211722   4.263   5.519   1.787
 3920TIP3   OH211723   5.218   2.185   0.271
 3920TIP3    H111724   5.197   2.269   0.229
 3920TIP3    H211725   5.278   2.209   0.342
 3921TIP3   OH211726   7.174   4.692   2.714
 3921TIP3    H111727   7.106   4.759   2.719
 3921TIP3    H211728   7.130   4.611   2.739
 3922TIP3   OH211729   4.832   1.412   3.964
 3922TIP3    H111730   4.798   1.329   3.997
 3922TIP3    H211731   4.771   1.478   3.997
 3923TIP3   OH211732   4.563   2.633   1.843
 3923TIP3    H111733   4.610   2.549   1.839
 3923TIP3    H211734   4.586   2.677   1.760
 3924TIP3   OH211735   5.976   4.141   4.624
 3924TIP3    H111736   5.932   4.104   4.548
 3924TIP3    H211737   5.930   4.104   4.700
 3925TIP3   OH211738   0.809   0.709   4.337
 3925TIP3    H111739   0.899   0.708   4.371
 3925TIP3    H211740   0.817   0.747   4.250
 3926TIP3   OH211741   3.101   1.476   1.984
 3926TIP3    H111742   3.064   1.513   1.904
 3926TIP3    H211743   3.027   1.465   2.043
 3927TIP3   OH211744   1.651   6.349   4.183
 3927TIP3    H111745   1.667   6.442   4.168
 3927TIP3    H211746   1.735   6.308   4.166
 3928TIP3   OH211747   6.400   4.423   0.816
 3928TIP3    H111748   6.443   4.498   0.858
 3928TIP3    H211749   6.411   4.351   0.878
 3929TIP3   OH211750   4.633   1.966   3.860
 3929TIP3    H111751   4.552   1.917   3.873
 3929TIP3    H211752   4.643   1.971   3.765
 3930TIP3   OH211753   2.909   1.112   5.802
 3930TIP3    H111754   2.833   1.114   5.860
 3930TIP3    H211755   2.872   1.117   5.714
 3931TIP3   OH211756   0.834   4.378   2.482
 3931TIP3    H111757   0.829   4.473   2.480
 3931TIP3    H211758   0.928   4.359   2.485
 3932TIP3   OH211759   4.634   0.254   2.640
 3932TIP3    H111760   4.705   0.190   2.633
 3932TIP3    H211761   4.677   0.339   2.640
 3933TIP3   OH211762   6.972   2.809   2.317
 3933TIP3    H111763   7.009   2.803   2.405
 3933TIP3    H211764   6.921   2.889   2.318
 3934TIP3   OH211765   7.065   1.512   0.927
 3934TIP3    H111766   7.116   1.432   0.941
 3934TIP3    H211767   6.976   1.481   0.909
 3935TIP3   OH211768   2.955   6.113   5.313
 3935TIP3    H111769   2.890   6.132   5.380
 3935TIP3    H211770   3.031   6.168   5.336
 3936TIP3   OH211771   4.740   4.950   5.404
 3936TIP3    H111772   4.830   4.980   5.404
 3936TIP3    H211773   4.691   5.018   5.358
 3937TIP3   OH211774   1.797   1.023   1.301
 3937TIP3    H111775   1.739   0.992   1.371
 3937TIP3    H211776   1.877   0.973   1.311
 3938TIP3   OH211777   2.471   3.759   1.964
 3938TIP3    H111778   2.408   3.829   1.983
 3938TIP3    H211779   2.456   3.694   2.032
 3939TIP3   OH211780   5.690   3.570   0.962
 3939TIP3    H111781   5.664   3.486   0.925
 3939TIP3    H211782   5.632   3.634   0.921
 3940TIP3   OH211783   1.262   2.837   2.748
 3940TIP3    H111784   1.296   2.756   2.710
 3940TIP3    H211785   1.321   2.905   2.714
 3941TIP3   OH211786   6.855   4.766   1.437
 3941TIP3    H111787   6.782   4.789   1.379
 3941TIP3    H211788   6.862   4.671   1.429
 3942TIP3   OH211789   5.893   6.206   3.933
 3942TIP3    H111790   5.886   6.263   4.009
 3942TIP3    H211791   5.949   6.254   3.872
 3943TIP3   OH211792   4.306   3.644   0.796
 3943TIP3    H111793   4.334   3.638   0.888
 3943TIP3    H211794   4.376   3.601   0.747
 3944TIP3   OH211795   6.573   3.820   5.624
 3944TIP3    H111796   6.532   3.789   5.544
 3944TIP3    H211797   6.543   3.911   5.633
 3945TIP3   OH211798   2.514   6.316   3.092
 3945TIP3    H111799   2.427   6.353   3.077
 3945TIP3    H211800   2.497   6.236   3.141
 3946TIP3   OH211801   0.689   6.554   3.609
 3946TIP3    H111802   0.699   6.614   3.683
 3946TIP3    H211803   0.718   6.469   3.642
 3947TIP3   OH211804   2.189   1.572   3.975
 3947TIP3    H111805   2.223   1.525   3.899
 3947TIP3    H211806   2.254   1.555   4.044
 3948TIP3   OH211807   7.086   3.380   1.885
 3948TIP3    H111808   7.036   3.459   1.865
 3948TIP3    H211809   7.107   3.388   1.978
 3949TIP3   OH211810   6.074   6.230   1.120
 3949TIP3    H111811   5.979   6.224   1.119
 3949TIP3    H211812   6.095   6.274   1.202
 3950TIP3   OH211813   3.883   3.159   2.743
 3950TIP3    H111814   3.858   3.240   2.786
 3950TIP3    H211815   3.950   3.184   2.679
 3951TIP3   OH211816   0.347   6.701   5.440
 3951TIP3    H111817   0.297   6.627   5.406
 3951TIP3    H211818   0.281   6.766   5.464
 3952TIP3   OH211819   5.698   4.866   4.793
 3952TIP3    H111820   5.667   4.844   4.705
 3952TIP3    H211821   5.690   4.962   4.798
 3953TIP3   OH211822   2.315   4.706   3.761
 3953TIP3    H111823   2.223   4.717   3.738
 3953TIP3    H211824   2.363   4.730   3.681
 3954TIP3   OH211825   3.128   0.585   4.658
 3954TIP3    H111826   3.222   0.599   4.670
 3954TIP3    H211827   3.088   0.670   4.676
 3955TIP3   OH211828   2.847   1.762   2.733
 3955TIP3    H111829   2.769   1.735   2.684
 3955TIP3    H211830   2.831   1.729   2.822
 3956TIP3   OH211831   1.336   6.390   3.115
 3956TIP3    H111832   1.315   6.360   3.204
 3956TIP3    H211833   1.252   6.416   3.078
 3957TIP3   OH211834   2.072   5.810   3.840
 3957TIP3    H111835   2.029   5.866   3.905
 3957TIP3    H211836   2.155   5.854   3.823
 3958TIP3   OH211837   5.492   3.818   1.269
 3958TIP3    H111838   5.441   3.843   1.193
 3958TIP3    H211839   5.537   3.738   1.243
 3959TIP3   OH211840   0.424   5.689   2.681
 3959TIP3    H111841   0.514   5.660   2.689
 3959TIP3    H211842   0.407   5.739   2.760
 3960TIP3   OH211843   4.143   5.356   4.922
 3960TIP3    H111844   4.062   5.377   4.875
 3960TIP3    H211845   4.208   5.416   4.885
 3961TIP3   OH211846   3.408   0.643   2.460
 3961TIP3    H111847   3.322   0.676   2.436
 3961TIP3    H211848   3.397   0.548   2.466
 3962TIP3   OH211849   0.435   2.943   0.062
 3962TIP3    H111850   0.391   2.978   0.140
 3962TIP3    H211851   0.508   3.004   0.047
 3963TIP3   OH211852   5.480   2.301   1.412
 3963TIP3    H111853   5.395   2.265   1.439
 3963TIP3    H211854   5.484   2.386   1.456
 3964TIP3   OH211855   1.423   6.256   4.974
 3964TIP3    H111856   1.490   6.187   4.973
 3964TIP3    H211857   1.412   6.280   4.882
 3965TIP3   OH211858   5.543   6.527   4.773
 3965TIP3    H111859   5.590   6.607   4.798
 3965TIP3    H211860   5.569   6.512   4.682
 3966TIP3   OH211861   0.328   3.735   4.500
 3966TIP3    H111862   0.355   3.725   4.591
 3966TIP3    H211863   0.373   3.813   4.470
 3967TIP3   OH211864   2.546   2.558   1.481
 3967TIP3    H111865   2.527   2.466   1.466
 3967TIP3    H211866   2.552   2.566   1.576
 3968TIP3   OH211867   1.729   4.065   3.388
 3968TIP3    H111868   1.785   4.135   3.423
 3968TIP3    H211869   1.643   4.082   3.428
 3969TIP3   OH211870   0.491   1.915   2.433
 3969TIP3    H111871   0.483   1.875   2.347
 3969TIP3    H211872   0.585   1.915   2.451
 3970TIP3   OH211873   0.185   6.765   4.322
 3970TIP3    H111874   0.213   6.722   4.403
 3970TIP3    H211875   0.245   6.839   4.313
 3971TIP3   OH211876   2.173   2.887   0.296
 3971TIP3    H111877   2.249   2.831   0.312
 3971TIP3    H211878   2.209   2.965   0.254
 3972TIP3   OH211879   1.094   3.652   5.197
 3972TIP3    H111880   1.084   3.625   5.106
 3972TIP3    H211881   1.172   3.605   5.228
 3973TIP3   OH211882   4.161   6.383   5.188
 3973TIP3    H111883   4.186   6.309   5.131
 3973TIP3    H211884   4.103   6.344   5.253
 3974TIP3   OH211885   1.413   3.154   2.714
 3974TIP3    H111886   1.331   3.139   2.760
 3974TIP3    H211887   1.417   3.249   2.700
 3975TIP3   OH211888   5.004   1.828   1.305
 3975TIP3    H111889   4.990   1.923   1.302
 3975TIP3    H211890   5.082   1.817   1.359
 3976TIP3   OH211891   4.881   5.873   2.681
 3976TIP3    H111892   4.937   5.885   2.758
 3976TIP3    H211893   4.937   5.832   2.616
 3977TIP3   OH211894   5.706   1.338   0.386
 3977TIP3    H111895   5.722   1.432   0.389
 3977TIP3    H211896   5.748   1.303   0.464
 3978TIP3   OH211897   5.337   4.674   4.886
 3978TIP3    H111898   5.394   4.711   4.819
 3978TIP3    H211899   5.321   4.746   4.946
 3979TIP3   OH211900   5.137   3.850   3.483
 3979TIP3    H111901   5.230   3.874   3.479
 3979TIP3    H211902   5.137   3.754   3.483
 3980TIP3   OH211903   7.152   3.654   1.122
 3980TIP3    H111904   7.229   3.639   1.176
 3980TIP3    H211905   7.186   3.662   1.033
 3981TIP3   OH211906   3.970   6.374   0.407
 3981TIP3    H111907   3.933   6.418   0.330
 3981TIP3    H211908   3.992   6.446   0.467
 3982TIP3   OH211909   7.177   5.022   3.900
 3982TIP3    H111910   7.182   5.104   3.949
 3982TIP3    H211911   7.268   4.995   3.889
 3983TIP3   OH211912   5.179   5.580   5.645
 3983TIP3    H111913   5.135   5.652   5.601
 3983TIP3    H211914   5.229   5.536   5.576
 3984TIP3   OH211915   2.146   1.929   4.661
 3984TIP3    H111916   2.154   1.863   4.730
 3984TIP3    H211917   2.114   1.880   4.585
 3985TIP3   OH211918   4.194   4.323   3.506
 3985TIP3    H111919   4.207   4.297   3.415
 3985TIP3    H211920   4.119   4.383   3.503
 3986TIP3   OH211921   3.652   2.654   4.583
 3986TIP3    H111922   3.639   2.560   4.592
 3986TIP3    H211923   3.740   2.663   4.547
 3987TIP3   OH211924   5.889   2.072   2.944
 3987TIP3    H111925   5.877   2.013   2.869
 3987TIP3    H211926   5.970   2.119   2.925
 3988TIP3   OH211927   1.736   0.986   0.676
 3988TIP3    H111928   1.831   0.983   0.667
 3988TIP3    H211929   1.716   0.924   0.746
 3989TIP3   OH211930   3.114   2.996   1.331
 3989TIP3    H111931   3.189   3.025   1.279
 3989TIP3    H211932   3.144   3.001   1.421
 3990TIP3   OH211933   1.922   5.775   0.094
 3990TIP3    H111934   1.906   5.719   0.171
 3990TIP3    H211935   1.997   5.735   0.051
 3991TIP3   OH211936   2.966   6.135   0.715
 3991TIP3    H111937   2.996   6.213   0.670
 3991TIP3    H211938   2.945   6.073   0.645
 3992TIP3   OH211939   3.492   4.671   1.648
 3992TIP3    H111940   3.572   4.620   1.632
 3992TIP3    H211941   3.511   4.757   1.609
 3993TIP3   OH211942   6.959   3.867   4.824
 3993TIP3    H111943   7.038   3.910   4.858
 3993TIP3    H211944   6.983   3.839   4.736
 3994TIP3   OH211945   3.200  -0.030   5.468
 3994TIP3    H111946   3.138   0.026   5.515
 3994TIP3    H211947   3.265  -0.054   5.533
 3995TIP3   OH211948   2.292   5.764   4.514
 3995TIP3    H111949   2.319   5.673   4.526
 3995TIP3    H211950   2.270   5.770   4.421
 3996TIP3   OH211951   6.400   4.066   0.006
 3996TIP3    H111952   6.340   4.125  -0.039
 3996TIP3    H211953   6.478   4.118   0.022
 3997TIP3   OH211954   3.758   1.527   0.151
 3997TIP3    H111955   3.841   1.487   0.175
 3997TIP3    H211956   3.698   1.453   0.141
 3998TIP3   OH211957   4.558   0.380   5.560
 3998TIP3    H111958   4.615   0.426   5.498
 3998TIP3    H211959   4.579   0.420   5.645
 3999TIP3   OH211960   5.360   5.462   0.919
 3999TIP3    H111961   5.300   5.407   0.969
 3999TIP3    H211962   5.447   5.443   0.956
 4000TIP3   OH211963   4.116   3.597   1.234
 4000TIP3    H111964   4.087   3.561   1.318
 4000TIP3    H211965   4.157   3.681   1.257
 4001TIP3   OH211966   2.380   4.761   0.940
 4001TIP3    H111967   2.442   4.832   0.922
 4001TIP3    H211968   2.430   4.696   0.989
 4002TIP3   OH211969   7.125   2.039   4.611
 4002TIP3    H111970   7.113   1.944   4.618
 4002TIP3    H211971   7.206   2.056   4.658
 4003TIP3   OH211972   3.248   6.526   2.841
 4003TIP3    H111973   3.268   6.546   2.932
 4003TIP3    H211974   3.255   6.431   2.835
 4004TIP3   OH211975   4.000   6.271   3.070
 4004TIP3    H111976   4.083   6.316   3.084
 4004TIP3    H211977   3.937   6.319   3.124
 4005TIP3   OH211978   5.230   0.720   2.243
 4005TIP3    H111979   5.275   0.762   2.170
 4005TIP3    H211980   5.279   0.639   2.258
 4006TIP3   OH211981   3.831   4.714   5.176
 4006TIP3    H111982   3.854   4.792   5.125
 4006TIP3    H211983   3.877   4.724   5.259
 4007TIP3   OH211984   4.863   4.093   0.205
 4007TIP3    H111985   4.833   4.117   0.293
 4007TIP3    H211986   4.957   4.112   0.206
 4008TIP3   OH211987   1.405   2.628   5.574
 4008TIP3    H111988   1.486   2.675   5.553
 4008TIP3    H211989   1.337   2.680   5.532
 4009TIP3   OH211990   6.527   0.020   5.346
 4009TIP3    H111991   6.443   0.029   5.392
 4009TIP3    H211992   6.584   0.085   5.386
 4010TIP3   OH211993   1.646   2.675   5.341
 4010TIP3    H111994   1.640   2.588   5.380
 4010TIP3    H211995   1.722   2.715   5.384
 4011TIP3   OH211996   4.167   0.560   1.802
 4011TIP3    H111997   4.144   0.501   1.730
 4011TIP3    H211998   4.163   0.506   1.881
 4012TIP3   OH211999   6.019   3.884   2.306
 4012TIP3    H112000   5.989   3.961   2.257
 4012TIP3    H212001   6.074   3.919   2.376
 4013TIP3   OH212002   6.181   4.448   5.425
 4013TIP3    H112003   6.204   4.416   5.338
 4013TIP3    H212004   6.264   4.473   5.465
 4014TIP3   OH212005   4.180   6.763   2.364
 4014TIP3    H112006   4.142   6.685   2.405
 4014TIP3    H212007   4.271   6.764   2.395
 4015TIP3   OH212008   2.858   5.916   0.542
 4015TIP3    H112009   2.817   5.917   0.455
 4015TIP3    H212010   2.784   5.920   0.603
 4016TIP3   OH212011   4.880   5.415   5.807
 4016TIP3    H112012   4.820   5.363   5.860
 4016TIP3    H212013   4.873   5.378   5.719
 4017TIP3   OH212014   1.801   1.565   3.247
 4017TIP3    H112015   1.870   1.592   3.309
 4017TIP3    H212016   1.757   1.647   3.225
 4018TIP3   OH212017   2.824   1.245   3.134
 4018TIP3    H112018   2.839   1.212   3.046
 4018TIP3    H212019   2.743   1.202   3.163
 4019TIP3   OH212020   5.968   3.160   5.580
 4019TIP3    H112021   6.024   3.166   5.503
 4019TIP3    H212022   5.887   3.120   5.548
 4020TIP3   OH212023   4.784   4.365   0.816
 4020TIP3    H112024   4.743   4.405   0.892
 4020TIP3    H212025   4.878   4.370   0.833
 4021TIP3   OH212026   0.631   2.433   3.374
 4021TIP3    H112027   0.714   2.472   3.402
 4021TIP3    H212028   0.652   2.388   3.292
 4022TIP3   OH212029   3.389   3.647   4.553
 4022TIP3    H112030   3.332   3.676   4.482
 4022TIP3    H212031   3.387   3.552   4.547
 4023TIP3   OH212032   0.645   2.094   3.315
 4023TIP3    H112033   0.695   2.122   3.392
 4023TIP3    H212034   0.638   1.999   3.325
 4024TIP3   OH212035   5.587   6.326   5.583
 4024TIP3    H112036   5.519   6.358   5.643
 4024TIP3    H212037   5.637   6.403   5.559
 4025TIP3   OH212038   1.742   3.520   4.860
 4025TIP3    H112039   1.744   3.542   4.953
 4025TIP3    H212040   1.812   3.456   4.849
 4026TIP3   OH212041   2.523   4.573   0.230
 4026TIP3    H112042   2.583   4.513   0.186
 4026TIP3    H212043   2.517   4.648   0.171
 4027TIP3   OH212044   7.162   1.251   0.962
 4027TIP3    H112045   7.191   1.195   0.890
 4027TIP3    H212046   7.166   1.194   1.039
 4028TIP3   OH212047   1.008   3.961   2.193
 4028TIP3    H112048   0.996   3.927   2.105
 4028TIP3    H212049   1.103   3.958   2.208
 4029TIP3   OH212050   3.337   0.369   3.423
 4029TIP3    H112051   3.341   0.458   3.459
 4029TIP3    H212052   3.427   0.350   3.395
 4030TIP3   OH212053   1.837   2.146   5.808
 4030TIP3    H112054   1.853   2.058   5.773
 4030TIP3    H212055   1.798   2.132   5.894
 4031TIP3   OH212056   0.851   2.155   4.818
 4031TIP3    H112057   0.835   2.217   4.890
 4031TIP3    H212058   0.940   2.123   4.833
 4032TIP3   OH212059   4.136   2.948   1.053
 4032TIP3    H112060   4.140   3.039   1.021
 4032TIP3    H212061   4.050   2.916   1.025
 4033TIP3   OH212062   2.371   1.187   3.779
 4033TIP3    H112063   2.317   1.121   3.821
 4033TIP3    H212064   2.461   1.160   3.798
 4034TIP3   OH212065   2.578   4.147   1.415
 4034TIP3    H112066   2.620   4.062   1.427
 4034TIP3    H212067   2.547   4.146   1.324
 4035TIP3   OH212068   1.851   5.850   4.264
 4035TIP3    H112069   1.845   5.906   4.342
 4035TIP3    H212070   1.812   5.768   4.291
 4036TIP3   OH212071   6.470   2.018   0.187
 4036TIP3    H112072   6.391   2.010   0.134
 4036TIP3    H212073   6.540   2.036   0.124
 4037TIP3   OH212074   0.223   1.598   3.146
 4037TIP3    H112075   0.239   1.617   3.239
 4037TIP3    H212076   0.128   1.592   3.139
 4038TIP3   OH212077   2.136   0.535   5.790
 4038TIP3    H112078   2.187   0.605   5.830
 4038TIP3    H212079   2.114   0.568   5.703
 4039TIP3   OH212080   6.653   3.708   1.134
 4039TIP3    H112081   6.687   3.748   1.214
 4039TIP3    H212082   6.640   3.616   1.157
 4040TIP3   OH212083   2.633   2.568   1.213
 4040TIP3    H112084   2.621   2.653   1.171
 4040TIP3    H212085   2.598   2.579   1.301
 4041TIP3   OH212086   0.129   6.411   3.340
 4041TIP3    H112087   0.041   6.376   3.321
 4041TIP3    H212088   0.189   6.342   3.310
 4042TIP3   OH212089   0.944   0.476   1.329
 4042TIP3    H112090   0.980   0.416   1.394
 4042TIP3    H212091   0.982   0.561   1.351
 4043TIP3   OH212092   2.387   3.255   3.255
 4043TIP3    H112093   2.403   3.345   3.225
 4043TIP3    H212094   2.472   3.224   3.284
 4044TIP3   OH212095   1.423   4.013   3.194
 4044TIP3    H112096   1.448   4.038   3.283
 4044TIP3    H212097   1.387   3.925   3.203
 4045TIP3   OH212098   4.761   0.392   0.307
 4045TIP3    H112099   4.724   0.304   0.308
 4045TIP3    H212100   4.721   0.436   0.382
 4046TIP3   OH212101   3.204   1.833   2.863
 4046TIP3    H112102   3.217   1.774   2.937
 4046TIP3    H212103   3.128   1.886   2.887
 4047TIP3   OH212104   5.809   1.124   2.368
 4047TIP3    H112105   5.851   1.185   2.308
 4047TIP3    H212106   5.726   1.101   2.326
 4048TIP3   OH212107   7.003   5.291   4.477
 4048TIP3    H112108   7.017   5.329   4.564
 4048TIP3    H212109   7.057   5.212   4.477
 4049TIP3   OH212110   6.886   4.009   2.366
 4049TIP3    H112111   6.807   3.975   2.324
 4049TIP3    H212112   6.912   4.083   2.311
 4050TIP3   OH212113   5.674   5.788   3.296
 4050TIP3    H112114   5.641   5.848   3.362
 4050TIP3    H212115   5.725   5.723   3.346
 4051TIP3   OH212116   2.988   4.646   4.772
 4051TIP3    H112117   2.960   4.695   4.694
 4051TIP3    H212118   3.020   4.563   4.738
 4052TIP3   OH212119   1.303   2.790   3.300
 4052TIP3    H112120   1.209   2.802   3.291
 4052TIP3    H212121   1.338   2.806   3.212
 4053TIP3   OH212122   1.701   1.457   0.099
 4053TIP3    H112123   1.673   1.373   0.134
 4053TIP3    H212124   1.750   1.435   0.020
 4054TIP3   OH212125   4.625   1.473   1.816
 4054TIP3    H112126   4.684   1.501   1.887
 4054TIP3    H212127   4.669   1.503   1.736
 4055TIP3   OH212128   2.155   6.515   4.266
 4055TIP3    H112129   2.171   6.424   4.237
 4055TIP3    H212130   2.242   6.546   4.293
 4056TIP3   OH212131   2.093   1.215   0.568
 4056TIP3    H112132   2.036   1.142   0.593
 4056TIP3    H212133   2.171   1.174   0.531
 4057TIP3   OH212134   4.494   1.260   0.275
 4057TIP3    H112135   4.469   1.237   0.186
 4057TIP3    H212136   4.412   1.289   0.316
 4058TIP3   OH212137   5.174   0.121   0.497
 4058TIP3    H112138   5.205   0.031   0.490
 4058TIP3    H212139   5.226   0.170   0.433
 4059TIP3   OH212140   6.524   6.471   0.907
 4059TIP3    H112141   6.438   6.433   0.929
 4059TIP3    H212142   6.563   6.491   0.992
 4060TIP3   OH212143   1.081   2.011   4.874
 4060TIP3    H112144   1.129   2.085   4.911
 4060TIP3    H212145   1.143   1.970   4.813
 4061TIP3   OH212146   1.696   1.125   3.985
 4061TIP3    H112147   1.643   1.168   4.052
 4061TIP3    H212148   1.640   1.124   3.907
 4062TIP3   OH212149   0.358   3.054   2.833
 4062TIP3    H112150   0.286   3.043   2.896
 4062TIP3    H212151   0.407   3.130   2.866
 4063TIP3   OH212152   5.697   2.895  -0.005
 4063TIP3    H112153   5.693   2.802   0.014
 4063TIP3    H212154   5.762   2.903  -0.075
 4064TIP3   OH212155   0.630   1.667   1.618
 4064TIP3    H112156   0.577   1.677   1.539
 4064TIP3    H212157   0.605   1.581   1.653
 4065TIP3   OH212158   2.105   3.430   2.343
 4065TIP3    H112159   2.124   3.337   2.329
 4065TIP3    H212160   2.191   3.468   2.363
 4066TIP3   OH212161   4.519   5.465   2.832
 4066TIP3    H112162   4.429   5.450   2.862
 4066TIP3    H212163   4.567   5.486   2.912
 4067TIP3   OH212164   4.754   1.921   0.122
 4067TIP3    H112165   4.780   2.013   0.120
 4067TIP3    H212166   4.709   1.907   0.038
 4068TIP3   OH212167   2.755   0.425   3.812
 4068TIP3    H112168   2.793   0.430   3.725
 4068TIP3    H212169   2.679   0.368   3.803
 4069TIP3   OH212170   6.661   1.914   2.096
 4069TIP3    H112171   6.631   1.994   2.140
 4069TIP3    H212172   6.717   1.945   2.025
 4070TIP3   OH212173   4.621   2.356   3.551
 4070TIP3    H112174   4.674   2.393   3.621
 4070TIP3    H212175   4.532   2.354   3.586
 4071TIP3   OH212176   3.644   0.820   0.051
 4071TIP3    H112177   3.684   0.738   0.022
 4071TIP3    H212178   3.604   0.798   0.135
 4072TIP3   OH212179   0.039   5.513   1.610
 4072TIP3    H112180   0.079   5.494   1.525
 4072TIP3    H212181   0.033   5.427   1.653
 4073TIP3   OH212182   6.378   1.190   1.794
 4073TIP3    H112183   6.429   1.136   1.734
 4073TIP3    H212184   6.325   1.246   1.737
 4074TIP3   OH212185   2.834   2.192   5.575
 4074TIP3    H112186   2.824   2.176   5.481
 4074TIP3    H212187   2.868   2.109   5.609
 4075TIP3   OH212188   5.258   5.345   0.287
 4075TIP3    H112189   5.341   5.343   0.335
 4075TIP3    H212190   5.200   5.397   0.343
 4076TIP3   OH212191   3.296   5.578   2.935
 4076TIP3    H112192   3.382   5.542   2.959
 4076TIP3    H212193   3.272   5.634   3.009
 4077TIP3   OH212194   6.579   3.646   3.597
 4077TIP3    H112195   6.654   3.664   3.540
 4077TIP3    H212196   6.601   3.564   3.640
 4078TIP3   OH212197   1.057   1.562   5.462
 4078TIP3    H112198   1.119   1.497   5.495
 4078TIP3    H212199   0.971   1.528   5.487
 4079TIP3   OH212200   4.649   1.588   3.340
 4079TIP3    H112201   4.615   1.519   3.284
 4079TIP3    H212202   4.743   1.569   3.346
 4080TIP3   OH212203   4.153   2.170   5.053
 4080TIP3    H112204   4.218   2.105   5.028
 4080TIP3    H212205   4.181   2.201   5.139
 4081TIP3   OH212206   3.143   3.421   1.969
 4081TIP3    H112207   3.187   3.505   1.960
 4081TIP3    H212208   3.058   3.433   1.927
 4082TIP3   OH212209   4.484   0.366   3.627
 4082TIP3    H112210   4.556   0.305   3.645
 4082TIP3    H212211   4.484   0.376   3.532
 4083TIP3   OH212212   6.065   5.860   1.581
 4083TIP3    H112213   6.090   5.768   1.590
 4083TIP3    H212214   6.124   5.895   1.515
 4084TIP3   OH212215   5.316   2.710   0.545
 4084TIP3    H112216   5.285   2.740   0.459
 4084TIP3    H212217   5.273   2.767   0.608
 4085TIP3   OH212218   6.314   2.997   0.547
 4085TIP3    H112219   6.410   2.999   0.546
 4085TIP3    H212220   6.292   2.923   0.491
 4086TIP3   OH212221   4.433   0.854   2.905
 4086TIP3    H112222   4.515   0.856   2.954
 4086TIP3    H212223   4.452   0.901   2.824
 4087TIP3   OH212224   0.543   1.891   3.675
 4087TIP3    H112225   0.598   1.895   3.754
 4087TIP3    H212226   0.545   1.798   3.650
 4088TIP3   OH212227   5.931   4.515   4.101
 4088TIP3    H112228   5.888   4.590   4.142
 4088TIP3    H212229   5.897   4.514   4.011
 4089TIP3   OH212230   3.894   4.499   5.711
 4089TIP3    H112231   3.811   4.534   5.742
 4089TIP3    H212232   3.933   4.459   5.789
 4090TIP3   OH212233   0.743   4.097   1.712
 4090TIP3    H112234   0.794   4.019   1.736
 4090TIP3    H212235   0.653   4.065   1.706
 4091TIP3   OH212236   3.263   2.595   5.229
 4091TIP3    H112237   3.295   2.580   5.318
 4091TIP3    H212238   3.210   2.517   5.209
 4092TIP3   OH212239   0.515   0.507   2.991
 4092TIP3    H112240   0.508   0.534   2.899
 4092TIP3    H212241   0.605   0.531   3.016
 4093TIP3   OH212242   4.476   4.747   5.270
 4093TIP3    H112243   4.527   4.666   5.273
 4093TIP3    H212244   4.523   4.802   5.208
 4094TIP3   OH212245   5.488   0.537   4.301
 4094TIP3    H112246   5.549   0.601   4.265
 4094TIP3    H212247   5.405   0.554   4.255
 4095TIP3   OH212248   3.721   6.577   4.026
 4095TIP3    H112249   3.626   6.572   4.040
 4095TIP3    H212250   3.731   6.615   3.939
 4096TIP3   OH212251   0.298   1.615   3.774
 4096TIP3    H112252   0.377   1.613   3.720
 4096TIP3    H212253   0.304   1.697   3.822
 4097TIP3   OH212254   4.400   1.963   5.454
 4097TIP3    H112255   4.372   1.926   5.538
 4097TIP3    H212256   4.377   2.056   5.459
 4098TIP3   OH212257   1.824   4.683   0.880
 4098TIP3    H112258   1.888   4.615   0.861
 4098TIP3    H212259   1.744   4.654   0.836
 4099TIP3   OH212260   5.360   3.458   0.585
 4099TIP3    H112261   5.423   3.527   0.607
 4099TIP3    H212262   5.317   3.490   0.505
 4100TIP3   OH212263   4.278   2.688   2.501
 4100TIP3    H112264   4.229   2.623   2.450
 4100TIP3    H212265   4.334   2.732   2.437
 4101TIP3   OH212266   3.303   2.436   3.436
 4101TIP3    H112267   3.253   2.355   3.425
 4101TIP3    H212268   3.257   2.483   3.506
 4102TIP3   OH212269   6.860   5.287   3.974
 4102TIP3    H112270   6.930   5.261   4.034
 4102TIP3    H212271   6.903   5.297   3.889
 4103TIP3   OH212272   6.508   1.462   0.117
 4103TIP3    H112273   6.561   1.457   0.037
 4103TIP3    H212274   6.564   1.506   0.180
 4104TIP3   OH212275   3.285   4.246   1.910
 4104TIP3    H112276   3.319   4.325   1.953
 4104TIP3    H212277   3.263   4.187   1.982
 4105TIP3   OH212278   5.404   2.914   1.254
 4105TIP3    H112279   5.413   2.819   1.262
 4105TIP3    H212280   5.424   2.933   1.162
 4106TIP3   OH212281   5.500   5.529   5.274
 4106TIP3    H112282   5.556   5.561   5.344
 4106TIP3    H212283   5.547   5.454   5.238
 4107TIP3   OH212284   1.812   0.780   5.567
 4107TIP3    H112285   1.751   0.781   5.494
 4107TIP3    H212286   1.760   0.747   5.641
 4108TIP3   OH212287   0.979   0.910   0.858
 4108TIP3    H112288   0.898   0.871   0.890
 4108TIP3    H212289   1.019   0.951   0.935
 4109TIP3   OH212290   5.945   6.575   5.084
 4109TIP3    H112291   5.851   6.590   5.096
 4109TIP3    H212292   5.966   6.506   5.147
 4110TIP3   OH212293   2.060   4.081   3.930
 4110TIP3    H112294   1.969   4.053   3.920
 4110TIP3    H212295   2.105   4.006   3.968
 4111TIP3   OH212296   5.324   1.196   0.926
 4111TIP3    H112297   5.355   1.241   1.004
 4111TIP3    H212298   5.393   1.209   0.861
 4112TIP3   OH212299   5.234   0.904   2.757
 4112TIP3    H112300   5.291   0.931   2.685
 4112TIP3    H212301   5.150   0.946   2.738
 4113TIP3   OH212302   3.937   0.608   3.252
 4113TIP3    H112303   3.846   0.639   3.250
 4113TIP3    H212304   3.930   0.514   3.268
 4114TIP3   OH212305   0.515   6.746   2.155
 4114TIP3    H112306   0.478   6.722   2.239
 4114TIP3    H212307   0.568   6.671   2.129
 4115TIP3   OH212308   4.562   1.872   1.214
 4115TIP3    H112309   4.510   1.792   1.218
 4115TIP3    H212310   4.550   1.904   1.124
 4116TIP3   OH212311   1.301   4.511   1.860
 4116TIP3    H112312   1.217   4.507   1.815
 4116TIP3    H212313   1.288   4.459   1.939
 4117TIP3   OH212314   1.983   4.835   0.389
 4117TIP3    H112315   1.976   4.739   0.388
 4117TIP3    H212316   1.966   4.860   0.480
 4118TIP3   OH212317   6.188   3.092   4.833
 4118TIP3    H112318   6.133   3.141   4.895
 4118TIP3    H212319   6.177   3.137   4.750
 4119TIP3   OH212320   3.869   2.000   5.225
 4119TIP3    H112321   3.853   2.030   5.314
 4119TIP3    H212322   3.959   1.966   5.226
 4120TIP3   OH212323   6.708   2.904   5.231
 4120TIP3    H112324   6.775   2.961   5.193
 4120TIP3    H212325   6.630   2.959   5.236
 4121TIP3   OH212326   3.394   2.658   5.466
 4121TIP3    H112327   3.449   2.692   5.536
 4121TIP3    H212328   3.359   2.737   5.423
 4122TIP3   OH212329   2.084   5.071   4.414
 4122TIP3    H112330   2.130   5.127   4.352
 4122TIP3    H212331   2.097   5.114   4.499
 4123TIP3   OH212332   4.051   6.623   5.079
 4123TIP3    H112333   4.079   6.543   5.124
 4123TIP3    H212334   4.010   6.676   5.147
 4124TIP3   OH212335   0.369   2.562   0.734
 4124TIP3    H112336   0.453   2.519   0.716
 4124TIP3    H212337   0.381   2.651   0.701
 4125TIP3   OH212338   3.082   0.875   5.778
 4125TIP3    H112339   3.108   0.821   5.704
 4125TIP3    H212340   3.001   0.917   5.749
 4126TIP3   OH212341   0.942   5.156   2.810
 4126TIP3    H112342   0.973   5.221   2.873
 4126TIP3    H212343   0.954   5.072   2.855
 4127TIP3   OH212344   7.072   4.228   2.570
 4127TIP3    H112345   7.161   4.191   2.577
 4127TIP3    H212346   7.055   4.230   2.476
 4128TIP3   OH212347   3.291   6.382   5.216
 4128TIP3    H112348   3.214   6.345   5.173
 4128TIP3    H212349   3.357   6.312   5.210
 4129TIP3   OH212350   1.536   1.279   4.639
 4129TIP3    H112351   1.560   1.222   4.565
 4129TIP3    H212352   1.460   1.328   4.608
 4130TIP3   OH212353   2.879   4.486   2.978
 4130TIP3    H112354   2.948   4.550   2.994
 4130TIP3    H212355   2.881   4.430   3.056
 4131TIP3   OH212356   1.567   6.267   3.356
 4131TIP3    H112357   1.508   6.193   3.345
 4131TIP3    H212358   1.625   6.241   3.428
 4132TIP3   OH212359   0.836   0.362   3.359
 4132TIP3    H112360   0.841   0.278   3.404
 4132TIP3    H212361   0.925   0.396   3.360
 4133TIP3   OH212362   4.496   4.313   5.571
 4133TIP3    H112363   4.418   4.272   5.609
 4133TIP3    H212364   4.462   4.366   5.499
 4134TIP3   OH212365   4.152   2.104   1.298
 4134TIP3    H112366   4.135   2.198   1.296
 4134TIP3    H212367   4.221   2.090   1.232
 4135TIP3   OH212368   1.562   6.756   4.137
 4135TIP3    H112369   1.516   6.790   4.060
 4135TIP3    H212370   1.499   6.697   4.178
 4136TIP3   OH212371   3.687   3.913   5.556
 4136TIP3    H112372   3.737   3.974   5.609
 4136TIP3    H212373   3.721   3.925   5.467
 4137TIP3   OH212374   2.362   0.432   4.235
 4137TIP3    H112375   2.372   0.338   4.217
 4137TIP3    H212376   2.414   0.475   4.168
 4138TIP3   OH212377   3.048   3.066   0.681
 4138TIP3    H112378   3.012   3.097   0.598
 4138TIP3    H212379   3.133   3.108   0.688
 4139TIP3   OH212380   3.426   3.024   3.710
 4139TIP3    H112381   3.410   2.931   3.699
 4139TIP3    H212382   3.369   3.066   3.646
 4140TIP3   OH212383   6.194   6.624   1.932
 4140TIP3    H112384   6.202   6.717   1.910
 4140TIP3    H212385   6.115   6.618   1.986
 4141TIP3   OH212386   0.000   2.207   0.827
 4141TIP3    H112387   0.032   2.293   0.799
 4141TIP3    H212388   0.079   2.154   0.838
 4142TIP3   OH212389   2.244   1.834   2.770
 4142TIP3    H112390   2.251   1.820   2.676
 4142TIP3    H212391   2.150   1.836   2.787
 4143TIP3   OH212392   2.121   2.796   3.646
 4143TIP3    H112393   2.031   2.783   3.677
 4143TIP3    H212394   2.114   2.865   3.580
 4144TIP3   OH212395   6.643   6.614   5.534
 4144TIP3    H112396   6.570   6.565   5.573
 4144TIP3    H212397   6.699   6.635   5.609
 4145TIP3   OH212398   1.549   6.034   0.542
 4145TIP3    H112399   1.519   6.069   0.625
 4145TIP3    H212400   1.579   5.945   0.562
 4146TIP3   OH212401   1.342   2.820   0.741
 4146TIP3    H112402   1.379   2.907   0.726
 4146TIP3    H212403   1.388   2.763   0.679
 4147TIP3   OH212404   5.065   1.963   2.415
 4147TIP3    H112405   5.037   2.050   2.387
 4147TIP3    H212406   5.089   1.919   2.334
 4148TIP3   OH212407   4.018   0.580   2.083
 4148TIP3    H112408   4.063   0.664   2.095
 4148TIP3    H212409   4.048   0.526   2.155
 4149TIP3   OH212410   3.718   1.181   5.178
 4149TIP3    H112411   3.624   1.162   5.179
 4149TIP3    H212412   3.757   1.109   5.129
 4150TIP3   OH212413   3.760   1.570   0.508
 4150TIP3    H112414   3.790   1.649   0.552
 4150TIP3    H212415   3.729   1.599   0.423
 4151TIP3   OH212416   0.822   3.079   2.017
 4151TIP3    H112417   0.902   3.104   1.970
 4151TIP3    H212418   0.841   2.993   2.054
 4152TIP3   OH212419   0.873   5.998   5.448
 4152TIP3    H112420   0.795   5.971   5.495
 4152TIP3    H212421   0.885   5.931   5.380
 4153TIP3   OH212422   3.143   1.065   4.789
 4153TIP3    H112423   3.202   1.042   4.717
 4153TIP3    H212424   3.115   0.982   4.826
 4154TIP3   OH212425   4.044   4.178   2.846
 4154TIP3    H112426   4.012   4.166   2.756
 4154TIP3    H212427   4.051   4.090   2.882
 4155TIP3   OH212428   5.588   2.178   1.059
 4155TIP3    H112429   5.612   2.192   0.968
 4155TIP3    H212430   5.532   2.252   1.081
 4156TIP3   OH212431   5.114   1.595   3.767
 4156TIP3    H112432   5.113   1.500   3.770
 4156TIP3    H212433   5.022   1.620   3.752
 4157TIP3   OH212434   2.654   0.092   1.602
 4157TIP3    H112435   2.710   0.098   1.679
 4157TIP3    H212436   2.612   0.006   1.609
 4158TIP3   OH212437   7.129   4.595   1.553
 4158TIP3    H112438   7.169   4.666   1.504
 4158TIP3    H212439   7.079   4.638   1.622
 4159TIP3   OH212440   4.658   0.472   1.859
 4159TIP3    H112441   4.745   0.473   1.897
 4159TIP3    H212442   4.607   0.532   1.914
 4160TIP3   OH212443   3.750   3.612   0.456
 4160TIP3    H112444   3.666   3.601   0.502
 4160TIP3    H212445   3.813   3.564   0.509
 4161TIP3   OH212446   3.433   6.265   0.738
 4161TIP3    H112447   3.507   6.282   0.680
 4161TIP3    H212448   3.358   6.255   0.680
 4162TIP3   OH212449   3.887   3.197   0.623
 4162TIP3    H112450   3.909   3.107   0.598
 4162TIP3    H212451   3.892   3.247   0.541
 4163TIP3   OH212452   6.246   6.486   2.409
 4163TIP3    H112453   6.256   6.507   2.316
 4163TIP3    H212454   6.158   6.450   2.417
 4164TIP3   OH212455   0.943   3.328   0.759
 4164TIP3    H112456   0.917   3.353   0.671
 4164TIP3    H212457   1.034   3.298   0.749
 4165TIP3   OH212458   0.238   2.230   0.576
 4165TIP3    H112459   0.264   2.278   0.497
 4165TIP3    H212460   0.207   2.297   0.637
 4166TIP3   OH212461   2.575   1.417   0.953
 4166TIP3    H112462   2.505   1.373   1.002
 4166TIP3    H212463   2.550   1.510   0.954
 4167TIP3   OH212464   7.160   0.352   2.506
 4167TIP3    H112465   7.130   0.280   2.450
 4167TIP3    H212466   7.246   0.323   2.537
 4168TIP3   OH212467   0.424   4.226   3.644
 4168TIP3    H112468   0.395   4.178   3.566
 4168TIP3    H212469   0.477   4.163   3.693
 4169TIP3   OH212470   0.497   0.589   2.742
 4169TIP3    H112471   0.542   0.673   2.755
 4169TIP3    H212472   0.475   0.587   2.649
 4170TIP3   OH212473   2.901   1.582   3.442
 4170TIP3    H112474   2.806   1.567   3.441
 4170TIP3    H212475   2.916   1.635   3.520
 4171TIP3   OH212476   1.251   1.790   1.297
 4171TIP3    H112477   1.261   1.765   1.205
 4171TIP3    H212478   1.156   1.803   1.308
 4172TIP3   OH212479   2.792   5.801   4.876
 4172TIP3    H112480   2.848   5.730   4.906
 4172TIP3    H212481   2.704   5.776   4.903
 4173TIP3   OH212482   1.023   0.789   3.904
 4173TIP3    H112483   1.011   0.730   3.829
 4173TIP3    H212484   1.017   0.876   3.866
 4174TIP3   OH212485   4.355   6.146   0.180
 4174TIP3    H112486   4.380   6.239   0.182
 4174TIP3    H212487   4.437   6.100   0.162
 4175TIP3   OH212488   3.433   4.802   4.124
 4175TIP3    H112489   3.491   4.866   4.164
 4175TIP3    H212490   3.449   4.810   4.030
 4176TIP3   OH212491   2.192   0.793   0.664
 4176TIP3    H112492   2.169   0.736   0.738
 4176TIP3    H212493   2.226   0.733   0.597
 4177TIP3   OH212494   0.166   2.214   5.195
 4177TIP3    H112495   0.090   2.174   5.237
 4177TIP3    H212496   0.130   2.260   5.119
 4178TIP3   OH212497   1.259   3.965   4.895
 4178TIP3    H112498   1.249   4.044   4.843
 4178TIP3    H212499   1.310   3.905   4.840
 4179TIP3   OH212500   0.678   5.918   3.032
 4179TIP3    H112501   0.765   5.957   3.040
 4179TIP3    H212502   0.675   5.852   3.101
 4180TIP3   OH212503   0.831   2.299   1.179
 4180TIP3    H112504   0.899   2.251   1.226
 4180TIP3    H212505   0.847   2.279   1.087
 4181TIP3   OH212506   4.031   6.686   0.322
 4181TIP3    H112507   3.987   6.608   0.286
 4181TIP3    H212508   4.031   6.671   0.417
 4182TIP3   OH212509   6.775   0.795   0.491
 4182TIP3    H112510   6.697   0.847   0.507
 4182TIP3    H212511   6.798   0.814   0.400
 4183TIP3   OH212512   2.891   5.065   1.550
 4183TIP3    H112513   2.852   5.125   1.613
 4183TIP3    H212514   2.928   5.122   1.482
 4184TIP3   OH212515   6.370   0.217   1.115
 4184TIP3    H112516   6.287   0.253   1.147
 4184TIP3    H212517   6.369   0.234   1.021
 4185TIP3   OH212518   0.182   5.457   3.408
 4185TIP3    H112519   0.150   5.419   3.326
 4185TIP3    H212520   0.178   5.386   3.471
 4186TIP3   OH212521   2.778   3.240   0.240
 4186TIP3    H112522   2.694   3.213   0.276
 4186TIP3    H212523   2.764   3.241   0.145
 4187TIP3   OH212524   2.280   2.462   1.971
 4187TIP3    H112525   2.290   2.446   2.065
 4187TIP3    H212526   2.370   2.477   1.940
 4188TIP3   OH212527   3.650   6.493   0.660
 4188TIP3    H112528   3.734   6.458   0.690
 4188TIP3    H212529   3.623   6.434   0.591
 4189TIP3   OH212530   0.798   3.420   1.101
 4189TIP3    H112531   0.843   3.370   1.033
 4189TIP3    H212532   0.717   3.450   1.060
 4190TIP3   OH212533   5.671   2.500   1.994
 4190TIP3    H112534   5.707   2.452   2.069
 4190TIP3    H212535   5.601   2.553   2.032
 4191TIP3   OH212536   0.327   1.237   4.383
 4191TIP3    H112537   0.258   1.172   4.378
 4191TIP3    H212538   0.287   1.317   4.349
 4192TIP3   OH212539   5.202   4.154   0.589
 4192TIP3    H112540   5.170   4.073   0.550
 4192TIP3    H212541   5.204   4.217   0.517
 4193TIP3   OH212542   1.142   6.631   4.431
 4193TIP3    H112543   1.188   6.649   4.513
 4193TIP3    H212544   1.106   6.544   4.442
 4194TIP3   OH212545   0.625   0.841   2.712
 4194TIP3    H112546   0.657   0.816   2.625
 4194TIP3    H212547   0.660   0.929   2.726
 4195TIP3   OH212548   6.028   6.339   3.460
 4195TIP3    H112549   5.943   6.382   3.464
 4195TIP3    H212550   6.088   6.408   3.430
 4196TIP3   OH212551   5.269   3.251   3.803
 4196TIP3    H112552   5.200   3.185   3.790
 4196TIP3    H212553   5.317   3.251   3.720
 4197TIP3   OH212554   3.071   1.806   4.824
 4197TIP3    H112555   3.115   1.874   4.773
 4197TIP3    H212556   3.141   1.746   4.849
 4198TIP3   OH212557   4.448   6.725   2.334
 4198TIP3    H112558   4.432   6.656   2.271
 4198TIP3    H212559   4.486   6.680   2.410
 4199TIP3   OH212560   6.255   5.720   1.967
 4199TIP3    H112561   6.206   5.654   1.918
 4199TIP3    H212562   6.227   5.804   1.929
 4200TIP3   OH212563   5.890   2.011   3.842
 4200TIP3    H112564   5.957   1.963   3.793
 4200TIP3    H212565   5.929   2.026   3.928
 4201TIP3   OH212566   4.221   6.235   1.855
 4201TIP3    H112567   4.154   6.302   1.868
 4201TIP3    H212568   4.271   6.234   1.937
 4202TIP3   OH212569   1.759   2.219   1.416
 4202TIP3    H112570   1.774   2.130   1.386
 4202TIP3    H212571   1.804   2.274   1.353
 4203TIP3   OH212572   1.233   4.874   4.393
 4203TIP3    H112573   1.206   4.804   4.334
 4203TIP3    H212574   1.151   4.913   4.423
 4204TIP3   OH212575   5.614   1.550   2.219
 4204TIP3    H112576   5.666   1.620   2.180
 4204TIP3    H212577   5.657   1.470   2.190
 4205TIP3   OH212578   6.049   5.134   1.891
 4205TIP3    H112579   6.077   5.104   1.804
 4205TIP3    H212580   6.124   5.182   1.925
 4206TIP3   OH212581   0.437   1.212   1.957
 4206TIP3    H112582   0.421   1.210   1.862
 4206TIP3    H212583   0.357   1.176   1.996
 4207TIP3   OH212584   4.447   4.274   2.376
 4207TIP3    H112585   4.483   4.187   2.355
 4207TIP3    H212586   4.496   4.334   2.320
 4208TIP3   OH212587   4.759   3.177   3.045
 4208TIP3    H112588   4.704   3.194   3.122
 4208TIP3    H212589   4.821   3.250   3.043
 4209TIP3   OH212590   2.295   6.189   2.883
 4209TIP3    H112591   2.390   6.190   2.874
 4209TIP3    H212592   2.263   6.242   2.810
 4210TIP3   OH212593   1.858   5.008   0.177
 4210TIP3    H112594   1.858   4.932   0.236
 4210TIP3    H212595   1.835   5.082   0.233
 4211TIP3   OH212596   4.087   2.321   2.992
 4211TIP3    H112597   4.038   2.376   3.054
 4211TIP3    H212598   4.178   2.346   3.004
 4212TIP3   OH212599   0.073   6.245   1.164
 4212TIP3    H112600   0.139   6.180   1.139
 4212TIP3    H212601   0.076   6.247   1.260
 4213TIP3   OH212602   7.250   6.278   1.883
 4213TIP3    H112603   7.178   6.339   1.901
 4213TIP3    H212604   7.267   6.236   1.967
 4214TIP3   OH212605   6.285   4.906   1.464
 4214TIP3    H112606   6.351   4.845   1.498
 4214TIP3    H212607   6.215   4.850   1.431
 4215TIP3   OH212608   3.056   3.997   4.433
 4215TIP3    H112609   3.045   4.004   4.527
 4215TIP3    H212610   2.979   4.039   4.395
 4216TIP3   OH212611   1.433   5.202   1.384
 4216TIP3    H112612   1.501   5.138   1.403
 4216TIP3    H212613   1.457   5.239   1.299
 4217TIP3   OH212614   1.668   3.006   0.324
 4217TIP3    H112615   1.673   3.060   0.245
 4217TIP3    H212616   1.756   2.970   0.334
 4218TIP3   OH212617   2.774   2.446   4.307
 4218TIP3    H112618   2.685   2.424   4.335
 4218TIP3    H212619   2.783   2.406   4.221
 4219TIP3   OH212620   4.435   1.489   4.955
 4219TIP3    H112621   4.507   1.508   5.016
 4219TIP3    H212622   4.441   1.394   4.940
 4220TIP3   OH212623   1.234   6.676   0.709
 4220TIP3    H112624   1.210   6.632   0.790
 4220TIP3    H212625   1.306   6.735   0.734
 4221TIP3   OH212626   5.141   6.730   5.824
 4221TIP3    H112627   5.066   6.788   5.834
 4221TIP3    H212628   5.107   6.654   5.777
 4222TIP3   OH212629   0.539   2.308   4.804
 4222TIP3    H112630   0.586   2.390   4.818
 4222TIP3    H212631   0.579   2.271   4.724
 4223TIP3   OH212632   5.426   2.445   4.966
 4223TIP3    H112633   5.486   2.379   5.000
 4223TIP3    H212634   5.432   2.437   4.871
 4224TIP3   OH212635   6.909   3.516   2.373
 4224TIP3    H112636   6.832   3.550   2.420
 4224TIP3    H212637   6.982   3.567   2.406
 4225TIP3   OH212638   4.216   0.112   5.689
 4225TIP3    H112639   4.157   0.188   5.692
 4225TIP3    H212640   4.157   0.037   5.679
 4226TIP3   OH212641   2.664   2.611   5.113
 4226TIP3    H112642   2.632   2.640   5.027
 4226TIP3    H212643   2.743   2.662   5.127
 4227TIP3   OH212644   4.534   5.147   4.782
 4227TIP3    H112645   4.568   5.099   4.857
 4227TIP3    H212646   4.543   5.239   4.807
 4228TIP3   OH212647   0.097   4.764   2.183
 4228TIP3    H112648   0.128   4.833   2.124
 4228TIP3    H212649   0.106   4.801   2.270
 4229TIP3   OH212650   5.721   3.987   0.826
 4229TIP3    H112651   5.814   3.979   0.805
 4229TIP3    H212652   5.683   3.906   0.793
 4230TIP3   OH212653   2.847   0.197   0.486
 4230TIP3    H112654   2.754   0.188   0.506
 4230TIP3    H212655   2.868   0.120   0.433
 4231TIP3   OH212656   5.337   6.652   5.458
 4231TIP3    H112657   5.341   6.592   5.383
 4231TIP3    H212658   5.274   6.719   5.432
 4232TIP3   OH212659   0.565   2.136   1.822
 4232TIP3    H112660   0.567   2.073   1.750
 4232TIP3    H212661   0.631   2.202   1.797
 4233TIP3   OH212662   7.081   2.631   5.345
 4233TIP3    H112663   7.025   2.706   5.364
 4233TIP3    H212664   7.076   2.577   5.424
 4234TIP3   OH212665   2.192   2.831   5.217
 4234TIP3    H112666   2.244   2.851   5.295
 4234TIP3    H212667   2.121   2.776   5.249
 4235TIP3   OH212668   1.641   0.411   3.278
 4235TIP3    H112669   1.589   0.414   3.198
 4235TIP3    H212670   1.650   0.502   3.305
 4236TIP3   OH212671   6.096   6.634   3.647
 4236TIP3    H112672   6.134   6.663   3.564
 4236TIP3    H212673   6.169   6.639   3.709
 4237TIP3   OH212674   1.374   3.982   5.791
 4237TIP3    H112675   1.375   4.002   5.884
 4237TIP3    H212676   1.331   4.057   5.750
 4238TIP3   OH212677   6.882   0.190   2.607
 4238TIP3    H112678   6.826   0.222   2.536
 4238TIP3    H212679   6.960   0.156   2.563
 4239TIP3   OH212680   4.239   6.609   4.107
 4239TIP3    H112681   4.205   6.522   4.129
 4239TIP3    H212682   4.162   6.666   4.108
 4240TIP3   OH212683   6.698   1.414   4.238
 4240TIP3    H112684   6.728   1.363   4.163
 4240TIP3    H212685   6.736   1.370   4.314
 4241TIP3   OH212686   4.282   5.683   4.446
 4241TIP3    H112687   4.187   5.688   4.431
 4241TIP3    H212688   4.292   5.631   4.525
 4242TIP3   OH212689   1.883   2.007   0.387
 4242TIP3    H112690   1.935   2.032   0.311
 4242TIP3    H212691   1.804   1.968   0.350
 4243TIP3   OH212692   6.730   3.905   5.271
 4243TIP3    H112693   6.749   3.858   5.189
 4243TIP3    H212694   6.634   3.910   5.273
 4244TIP3   OH212695   5.390   3.305   1.183
 4244TIP3    H112696   5.434   3.306   1.098
 4244TIP3    H212697   5.331   3.230   1.177
 4245TIP3   OH212698   1.275   2.457   2.354
 4245TIP3    H112699   1.327   2.377   2.355
 4245TIP3    H212700   1.184   2.428   2.346
 4246TIP3   OH212701   1.829   2.616   1.632
 4246TIP3    H112702   1.743   2.654   1.619
 4246TIP3    H212703   1.818   2.556   1.706
 4247TIP3   OH212704   2.121   4.913   3.060
 4247TIP3    H112705   2.133   4.899   3.154
 4247TIP3    H212706   2.045   4.970   3.053
 4248TIP3   OH212707   3.808   2.428   5.111
 4248TIP3    H112708   3.859   2.444   5.190
 4248TIP3    H212709   3.861   2.466   5.041
 4249TIP3   OH212710   6.993   2.579   5.648
 4249TIP3    H112711   7.011   2.672   5.636
 4249TIP3    H212712   6.903   2.568   5.618
 4250TIP3   OH212713   1.160   3.196   0.918
 4250TIP3    H112714   1.250   3.199   0.885
 4250TIP3    H212715   1.139   3.103   0.921
 4251TIP3   OH212716   1.004   2.208   2.174
 4251TIP3    H112717   0.975   2.277   2.234
 4251TIP3    H212718   0.924   2.178   2.132
 4252TIP3   OH212719   3.346   5.418   2.356
 4252TIP3    H112720   3.251   5.436   2.356
 4252TIP3    H212721   3.363   5.385   2.445
 4253TIP3   OH212722   7.106   1.213   4.902
 4253TIP3    H112723   7.068   1.160   4.832
 4253TIP3    H212724   7.196   1.230   4.873
 4254TIP3   OH212725   2.008   0.896   1.657
 4254TIP3    H112726   2.060   0.971   1.687
 4254TIP3    H212727   2.005   0.906   1.562
 4255TIP3   OH212728   6.707   6.510   1.275
 4255TIP3    H112729   6.623   6.482   1.240
 4255TIP3    H212730   6.687   6.545   1.362
 4256TIP3   OH212731   2.859   2.276   2.818
 4256TIP3    H112732   2.798   2.220   2.770
 4256TIP3    H212733   2.828   2.272   2.909
 4257TIP3   OH212734   1.342   0.990   4.045
 4257TIP3    H112735   1.397   0.940   3.985
 4257TIP3    H212736   1.345   0.940   4.127
 4258TIP3   OH212737   5.779   4.199   0.612
 4258TIP3    H112738   5.698   4.161   0.578
 4258TIP3    H212739   5.762   4.293   0.615
 4259TIP3   OH212740   2.333   6.032   0.503
 4259TIP3    H112741   2.370   6.091   0.437
 4259TIP3    H212742   2.328   5.947   0.459
 4260TIP3   OH212743   6.031   2.273   4.293
 4260TIP3    H112744   6.031   2.230   4.208
 4260TIP3    H212745   5.978   2.352   4.280
 4261TIP3   OH212746   4.536   5.984   3.130
 4261TIP3    H112747   4.590   5.908   3.152
 4261TIP3    H212748   4.545   5.994   3.036
 4262TIP3   OH212749   2.657   5.920   0.348
 4262TIP3    H112750   2.621   5.840   0.387
 4262TIP3    H212751   2.704   5.890   0.271
 4263TIP3   OH212752   0.447   6.526   4.856
 4263TIP3    H112753   0.424   6.516   4.764
 4263TIP3    H212754   0.539   6.502   4.861
 4264TIP3   OH212755   5.659   0.108   3.052
 4264TIP3    H112756   5.732   0.144   3.001
 4264TIP3    H212757   5.689   0.020   3.077
 4265TIP3   OH212758   4.107   3.401   5.757
 4265TIP3    H112759   4.069   3.485   5.729
 4265TIP3    H212760   4.196   3.403   5.723
 4266TIP3   OH212761   3.295   5.490   0.939
 4266TIP3    H112762   3.309   5.447   1.024
 4266TIP3    H212763   3.227   5.439   0.897
 4267TIP3   OH212764   4.957   6.188   5.544
 4267TIP3    H112765   4.885   6.200   5.606
 4267TIP3    H212766   4.981   6.277   5.517
 4268TIP3   OH212767   0.120   2.387   1.730
 4268TIP3    H112768   0.130   2.470   1.778
 4268TIP3    H212769   0.057   2.407   1.661
 4269TIP3   OH212770   4.150   4.815   0.128
 4269TIP3    H112771   4.096   4.756   0.180
 4269TIP3    H212772   4.240   4.794   0.153
 4270TIP3   OH212773   3.645   2.614   5.351
 4270TIP3    H112774   3.560   2.615   5.395
 4270TIP3    H212775   3.708   2.633   5.421
 4271TIP3   OH212776   1.681   4.814   5.623
 4271TIP3    H112777   1.586   4.824   5.618
 4271TIP3    H212778   1.695   4.724   5.651
 4272TIP3   OH212779   3.637   2.384   1.169
 4272TIP3    H112780   3.642   2.299   1.214
 4272TIP3    H212781   3.584   2.367   1.092
 4273TIP3   OH212782   0.140   4.277   1.851
 4273TIP3    H112783   0.225   4.298   1.813
 4273TIP3    H212784   0.159   4.218   1.923
 4274TIP3   OH212785   5.072   0.395   3.784
 4274TIP3    H112786   5.107   0.330   3.724
 4274TIP3    H212787   5.029   0.344   3.853
 4275TIP3   OH212788   0.674   5.144   5.690
 4275TIP3    H112789   0.599   5.181   5.644
 4275TIP3    H212790   0.742   5.210   5.680
 4276TIP3   OH212791   4.685   6.205   0.271
 4276TIP3    H112792   4.672   6.154   0.191
 4276TIP3    H212793   4.755   6.266   0.248
 4277TIP3   OH212794   2.716   1.533   5.640
 4277TIP3    H112795   2.802   1.491   5.635
 4277TIP3    H212796   2.707   1.580   5.558
 4278TIP3   OH212797   2.171   4.810   1.414
 4278TIP3    H112798   2.163   4.822   1.509
 4278TIP3    H212799   2.083   4.782   1.386
 4279TIP3   OH212800   6.253   5.800   5.632
 4279TIP3    H112801   6.176   5.742   5.630
 4279TIP3    H212802   6.323   5.748   5.592
 4280TIP3   OH212803   4.047   2.540   2.667
 4280TIP3    H112804   3.999   2.476   2.614
 4280TIP3    H212805   3.979   2.597   2.702
 4281TIP3   OH212806   1.340   6.238   0.165
 4281TIP3    H112807   1.299   6.213   0.248
 4281TIP3    H212808   1.278   6.211   0.098
 4282TIP3   OH212809   1.118   5.459   4.955
 4282TIP3    H112810   1.112   5.467   4.860
 4282TIP3    H212811   1.078   5.374   4.975
 4283TIP3   OH212812   6.409   0.869   4.346
 4283TIP3    H112813   6.354   0.890   4.270
 4283TIP3    H212814   6.407   0.774   4.352
 4284TIP3   OH212815   5.207   6.358   2.044
 4284TIP3    H112816   5.149   6.336   2.116
 4284TIP3    H212817   5.148   6.388   1.974
 4285TIP3   OH212818   5.152   0.127   1.516
 4285TIP3    H112819   5.175   0.096   1.603
 4285TIP3    H212820   5.126   0.048   1.468
 4286TIP3   OH212821   0.636   0.500   4.286
 4286TIP3    H112822   0.583   0.550   4.349
 4286TIP3    H212823   0.724   0.538   4.294
 4287TIP3   OH212824   3.338   2.160   2.389
 4287TIP3    H112825   3.382   2.226   2.336
 4287TIP3    H212826   3.401   2.138   2.457
 4288TIP3   OH212827   0.327   6.400   3.618
 4288TIP3    H112828   0.235   6.404   3.592
 4288TIP3    H212829   0.358   6.315   3.585
 4289TIP3   OH212830   3.021   1.952   1.901
 4289TIP3    H112831   2.993   2.029   1.951
 4289TIP3    H212832   3.050   1.987   1.817
 4290TIP3   OH212833   5.264   1.291   4.120
 4290TIP3    H112834   5.317   1.271   4.197
 4290TIP3    H212835   5.176   1.259   4.142
 4291TIP3   OH212836   7.198   4.511   4.329
 4291TIP3    H112837   7.126   4.528   4.269
 4291TIP3    H212838   7.156   4.506   4.415
 4292TIP3   OH212839   0.954   6.062   0.968
 4292TIP3    H112840   0.874   6.014   0.991
 4292TIP3    H212841   0.948   6.143   1.020
 4293TIP3   OH212842   5.450   3.099   2.473
 4293TIP3    H112843   5.515   3.139   2.531
 4293TIP3    H212844   5.376   3.080   2.530
 4294TIP3   OH212845   4.171   2.812   1.338
 4294TIP3    H112846   4.209   2.897   1.314
 4294TIP3    H212847   4.083   2.815   1.301
 4295TIP3   OH212848   5.565   0.823   1.873
 4295TIP3    H112849   5.633   0.883   1.842
 4295TIP3    H212850   5.570   0.748   1.814
 4296TIP3   OH212851   0.748   3.386   5.269
 4296TIP3    H112852   0.800   3.445   5.324
 4296TIP3    H212853   0.664   3.432   5.258
 4297TIP3   OH212854   1.354   1.590   3.290
 4297TIP3    H112855   1.362   1.601   3.385
 4297TIP3    H212856   1.261   1.571   3.276
 4298TIP3   OH212857   5.621   3.701   1.525
 4298TIP3    H112858   5.614   3.703   1.429
 4298TIP3    H212859   5.611   3.792   1.551
 4299TIP3   OH212860   1.393   0.708   2.280
 4299TIP3    H112861   1.413   0.615   2.288
 4299TIP3    H212862   1.432   0.733   2.196
 4300TIP3   OH212863   2.986   2.130   4.413
 4300TIP3    H112864   2.928   2.067   4.458
 4300TIP3    H212865   3.003   2.197   4.479
 4301TIP3   OH212866   4.983   6.070   4.129
 4301TIP3    H112867   4.926   6.063   4.206
 4301TIP3    H212868   4.977   5.985   4.087
 4302TIP3   OH212869   5.707   2.170   4.761
 4302TIP3    H112870   5.625   2.205   4.726
 4302TIP3    H212871   5.727   2.095   4.705
 4303TIP3   OH212872   5.600   6.308   1.199
 4303TIP3    H112873   5.525   6.291   1.142
 4303TIP3    H212874   5.596   6.402   1.216
 4304TIP3   OH212875   1.628   4.108   4.911
 4304TIP3    H112876   1.716   4.112   4.872
 4304TIP3    H212877   1.574   4.067   4.843
 4305TIP3   OH212878   0.318   3.427   0.246
 4305TIP3    H112879   0.268   3.506   0.266
 4305TIP3    H212880   0.409   3.456   0.240
 4306TIP3   OH212881   3.410   1.230   1.818
 4306TIP3    H112882   3.487   1.217   1.874
 4306TIP3    H212883   3.414   1.158   1.756
 4307TIP3   OH212884   1.033   1.745   5.034
 4307TIP3    H112885   1.067   1.674   4.979
 4307TIP3    H212886   1.111   1.784   5.074
 4308TIP3   OH212887   0.732   1.809   1.830
 4308TIP3    H112888   0.765   1.873   1.766
 4308TIP3    H212889   0.724   1.728   1.780
 4309TIP3   OH212890   7.127   0.353   2.037
 4309TIP3    H112891   7.124   0.282   1.972
 4309TIP3    H212892   7.079   0.318   2.112
 4310TIP3   OH212893   2.577   5.578   2.637
 4310TIP3    H112894   2.663   5.621   2.635
 4310TIP3    H212895   2.586   5.511   2.705
 4311TIP3   OH212896   6.947   1.906   0.255
 4311TIP3    H112897   6.928   1.962   0.330
 4311TIP3    H212898   6.945   1.964   0.180
 4312TIP3   OH212899   4.094   3.240   5.417
 4312TIP3    H112900   4.028   3.306   5.397
 4312TIP3    H212901   4.108   3.195   5.334
 4313TIP3   OH212902   6.687   1.428   4.788
 4313TIP3    H112903   6.727   1.508   4.756
 4313TIP3    H212904   6.747   1.399   4.858
 4314TIP3   OH212905   7.160   0.322   5.139
 4314TIP3    H112906   7.225   0.262   5.175
 4314TIP3    H212907   7.125   0.277   5.062
 4315TIP3   OH212908   7.130   3.465   2.134
 4315TIP3    H112909   7.198   3.455   2.201
 4315TIP3    H212910   7.060   3.512   2.178
 4316TIP3   OH212911   4.101   6.347   4.184
 4316TIP3    H112912   4.154   6.271   4.162
 4316TIP3    H212913   4.042   6.317   4.253
 4317TIP3   OH212914   2.020   4.255   0.978
 4317TIP3    H112915   1.991   4.323   0.917
 4317TIP3    H212916   2.115   4.257   0.972
 4318TIP3   OH212917   7.005   6.810   5.718
 4318TIP3    H112918   7.050   6.725   5.726
 4318TIP3    H212919   6.958   6.821   5.801
 4319TIP3   OH212920   4.748   5.972   2.044
 4319TIP3    H112921   4.835   6.011   2.035
 4319TIP3    H212922   4.701   6.001   1.966
 4320TIP3   OH212923   3.602   0.645   3.007
 4320TIP3    H112924   3.514   0.608   3.014
 4320TIP3    H212925   3.633   0.620   2.920
 4321TIP3   OH212926   6.898   4.757   5.649
 4321TIP3    H112927   6.939   4.783   5.732
 4321TIP3    H212928   6.815   4.716   5.675
 4322TIP3   OH212929   6.368   3.942   2.258
 4322TIP3    H112930   6.344   3.875   2.194
 4322TIP3    H212931   6.366   4.024   2.209
 4323TIP3   OH212932   5.643   6.548   4.517
 4323TIP3    H112933   5.716   6.493   4.487
 4323TIP3    H212934   5.681   6.635   4.526
 4324TIP3   OH212935   4.943   3.033   0.786
 4324TIP3    H112936   4.855   3.052   0.754
 4324TIP3    H212937   4.996   3.107   0.757
 4325TIP3   OH212938   2.866   6.156   0.064
 4325TIP3    H112939   2.807   6.082   0.047
 4325TIP3    H212940   2.954   6.120   0.053
 4326TIP3   OH212941   5.311   3.559   5.149
 4326TIP3    H112942   5.404   3.582   5.154
 4326TIP3    H212943   5.310   3.463   5.155
 4327TIP3   OH212944   5.891   0.112   0.258
 4327TIP3    H112945   5.972   0.160   0.273
 4327TIP3    H212946   5.881   0.110   0.163
 4328TIP3   OH212947   0.507   1.218   4.582
 4328TIP3    H112948   0.550   1.301   4.563
 4328TIP3    H212949   0.437   1.212   4.517
 4329TIP3   OH212950   1.577   6.548   3.364
 4329TIP3    H112951   1.572   6.453   3.358
 4329TIP3    H212952   1.528   6.579   3.288
 4330TIP3   OH212953   4.003   0.870   1.886
 4330TIP3    H112954   4.036   0.865   1.975
 4330TIP3    H212955   4.078   0.898   1.834
 4331TIP3   OH212956   6.952   2.188   0.105
 4331TIP3    H112957   7.033   2.194   0.155
 4331TIP3    H212958   6.968   2.238   0.025
 4332TIP3   OH212959   2.764   6.771   4.848
 4332TIP3    H112960   2.797   6.775   4.938
 4332TIP3    H212961   2.831   6.723   4.800
 4333TIP3   OH212962   5.330   3.111   5.576
 4333TIP3    H112963   5.321   3.054   5.500
 4333TIP3    H212964   5.398   3.071   5.630
 4334TIP3   OH212965   0.211   0.135   4.068
 4334TIP3    H112966   0.189   0.170   3.982
 4334TIP3    H212967   0.222   0.041   4.053
 4335TIP3   OH212968   4.453   5.420   2.174
 4335TIP3    H112969   4.411   5.351   2.123
 4335TIP3    H212970   4.497   5.374   2.246
 4336TIP3   OH212971   2.306   0.025   5.410
 4336TIP3    H112972   2.226   0.009   5.460
 4336TIP3    H212973   2.284   0.099   5.353
 4337TIP3   OH212974   0.690   6.608   2.607
 4337TIP3    H112975   0.705   6.569   2.520
 4337TIP3    H212976   0.679   6.533   2.665
 4338TIP3   OH212977   2.049   3.633   2.149
 4338TIP3    H112978   2.104   3.651   2.226
 4338TIP3    H212979   1.997   3.557   2.174
 4339TIP3   OH212980   5.348   4.621   5.175
 4339TIP3    H112981   5.353   4.624   5.079
 4339TIP3    H212982   5.431   4.581   5.201
 4340TIP3   OH212983   4.794   0.713   4.807
 4340TIP3    H112984   4.857   0.742   4.741
 4340TIP3    H212985   4.830   0.744   4.890
 4341TIP3   OH212986   2.759   1.505   2.862
 4341TIP3    H112987   2.691   1.444   2.834
 4341TIP3    H212988   2.738   1.523   2.954
 4342TIP3   OH212989   3.064   3.037   2.533
 4342TIP3    H112990   3.042   3.094   2.607
 4342TIP3    H212991   3.097   2.957   2.574
 4343TIP3   OH212992   0.351   4.702   0.719
 4343TIP3    H112993   0.387   4.642   0.785
 4343TIP3    H212994   0.314   4.774   0.770
 4344TIP3   OH212995   0.645   0.085   3.509
 4344TIP3    H112996   0.740   0.069   3.511
 4344TIP3    H212997   0.637   0.180   3.507
 4345TIP3   OH212998   4.110   2.942   4.343
 4345TIP3    H112999   4.047   2.950   4.271
 4345TIP3    H213000   4.192   2.977   4.308
 4346TIP3   OH213001   5.245   4.202   3.789
 4346TIP3    H113002   5.271   4.187   3.880
 4346TIP3    H213003   5.149   4.206   3.792
 4347TIP3   OH213004   0.585   1.578   5.147
 4347TIP3    H113005   0.541   1.508   5.098
 4347TIP3    H213006   0.674   1.579   5.111
 4348TIP3   OH213007   4.869   4.510   0.100
 4348TIP3    H113008   4.853   4.490   0.192
 4348TIP3    H213009   4.790   4.557   0.072
 4349TIP3   OH213010   4.939   6.650   1.944
 4349TIP3    H113011   4.984   6.665   2.027
 4349TIP3    H213012   4.860   6.704   1.949
 4350TIP3   OH213013   2.488   1.354   5.680
 4350TIP3    H113014   2.453   1.377   5.767
 4350TIP3    H213015   2.560   1.416   5.667
 4351TIP3   OH213016   3.883   5.977   4.290
 4351TIP3    H113017   3.862   6.070   4.283
 4351TIP3    H213018   3.854   5.939   4.207
 4352TIP3   OH213019   3.838   2.074   0.380
 4352TIP3    H113020   3.779   2.047   0.309
 4352TIP3    H213021   3.779   2.103   0.450
 4353TIP3   OH213022   5.036   2.830   5.373
 4353TIP3    H113023   4.946   2.828   5.341
 4353TIP3    H213024   5.028   2.855   5.465
 4354TIP3   OH213025   6.501   0.966   1.676
 4354TIP3    H113026   6.564   0.909   1.632
 4354TIP3    H213027   6.418   0.951   1.632
 4355TIP3   OH213028   5.030   3.801   5.141
 4355TIP3    H113029   5.010   3.804   5.048
 4355TIP3    H213030   4.991   3.719   5.171
 4356TIP3   OH213031   3.313   0.395   4.889
 4356TIP3    H113032   3.341   0.481   4.858
 4356TIP3    H213033   3.395   0.346   4.899
 4357TIP3   OH213034   2.423   3.310   5.515
 4357TIP3    H113035   2.374   3.358   5.447
 4357TIP3    H213036   2.356   3.285   5.579
 4358TIP3   OH213037   3.654   1.955   2.065
 4358TIP3    H113038   3.639   1.963   1.971
 4358TIP3    H213039   3.569   1.927   2.101
 4359TIP3   OH213040   1.220   6.153   1.945
 4359TIP3    H113041   1.249   6.128   2.033
 4359TIP3    H213042   1.250   6.243   1.934
 4360TIP3   OH213043   1.658   0.040   4.427
 4360TIP3    H113044   1.711   0.078   4.357
 4360TIP3    H213045   1.649  -0.052   4.403
 4361TIP3   OH213046   3.077   2.111   1.691
 4361TIP3    H113047   3.033   2.188   1.654
 4361TIP3    H213048   3.143   2.088   1.626
 4362TIP3   OH213049   3.285   1.313   0.981
 4362TIP3    H113050   3.318   1.238   0.931
 4362TIP3    H213051   3.206   1.340   0.934
 4363TIP3   OH213052   1.279   1.509   2.692
 4363TIP3    H113053   1.277   1.554   2.607
 4363TIP3    H213054   1.190   1.516   2.725
 4364TIP3   OH213055   6.983   6.222   4.094
 4364TIP3    H113056   7.069   6.228   4.136
 4364TIP3    H213057   6.932   6.164   4.151
 4365TIP3   OH213058   3.278   0.146   3.576
 4365TIP3    H113059   3.269   0.235   3.541
 4365TIP3    H213060   3.297   0.158   3.669
 4366TIP3   OH213061   4.109   2.482   2.278
 4366TIP3    H113062   4.117   2.546   2.207
 4366TIP3    H213063   4.019   2.450   2.272
 4367TIP3   OH213064   4.770   2.605   4.333
 4367TIP3    H113065   4.737   2.694   4.346
 4367TIP3    H213066   4.758   2.589   4.239
 4368TIP3   OH213067   2.537   1.715   2.924
 4368TIP3    H113068   2.573   1.719   2.835
 4368TIP3    H213069   2.455   1.667   2.915
 4369TIP3   OH213070   5.219   6.722   0.958
 4369TIP3    H113071   5.211   6.803   0.907
 4369TIP3    H213072   5.200   6.748   1.048
 4370TIP3   OH213073   4.715   0.741   3.444
 4370TIP3    H113074   4.643   0.779   3.494
 4370TIP3    H213075   4.685   0.655   3.418
 4371TIP3   OH213076   1.225   6.434   0.921
 4371TIP3    H113077   1.169   6.504   0.952
 4371TIP3    H213078   1.172   6.387   0.856
 4372TIP3   OH213079   4.385   4.472   3.875
 4372TIP3    H113080   4.466   4.509   3.910
 4372TIP3    H213081   4.349   4.542   3.820
 4373TIP3   OH213082   1.749   6.280   1.010
 4373TIP3    H113083   1.836   6.267   1.048
 4373TIP3    H213084   1.748   6.223   0.932
 4374TIP3   OH213085   6.125   2.499   0.316
 4374TIP3    H113086   6.053   2.537   0.367
 4374TIP3    H213087   6.188   2.470   0.382
 4375TIP3   OH213088   6.786   5.388   4.961
 4375TIP3    H113089   6.818   5.325   5.025
 4375TIP3    H213090   6.855   5.392   4.895
 4376TIP3   OH213091   6.203   4.399   2.569
 4376TIP3    H113092   6.253   4.479   2.552
 4376TIP3    H213093   6.170   4.372   2.483
 4377TIP3   OH213094   1.247   6.208   5.373
 4377TIP3    H113095   1.212   6.147   5.308
 4377TIP3    H213096   1.179   6.274   5.383
 4378TIP3   OH213097   4.700   4.330   3.772
 4378TIP3    H113098   4.605   4.324   3.770
 4378TIP3    H213099   4.719   4.421   3.750
 4379TIP3   OH213100   6.576   4.094   4.223
 4379TIP3    H113101   6.543   4.120   4.136
 4379TIP3    H213102   6.610   4.175   4.260
 4380TIP3   OH213103   6.594   4.949   2.382
 4380TIP3    H113104   6.686   4.930   2.364
 4380TIP3    H213105   6.553   4.864   2.391
 4381TIP3   OH213106   1.086   4.697   0.008
 4381TIP3    H113107   1.076   4.656   0.093
 4381TIP3    H213108   1.009   4.754  -0.001
 4382TIP3   OH213109   1.761   0.528   0.749
 4382TIP3    H113110   1.729   0.501   0.663
 4382TIP3    H213111   1.845   0.485   0.759
 4383TIP3   OH213112   2.819   0.855   5.164
 4383TIP3    H113113   2.799   0.859   5.070
 4383TIP3    H213114   2.779   0.933   5.201
 4384TIP3   OH213115   1.159   3.504   5.492
 4384TIP3    H113116   1.132   3.594   5.510
 4384TIP3    H213117   1.253   3.509   5.477
 4385TIP3   OH213118   6.287   3.556   1.164
 4385TIP3    H113119   6.290   3.645   1.129
 4385TIP3    H213120   6.211   3.555   1.222
 4386TIP3   OH213121   1.937   3.886   1.596
 4386TIP3    H113122   1.903   3.903   1.508
 4386TIP3    H213123   2.031   3.896   1.588
 4387TIP3   OH213124   5.419   6.783   5.856
 4387TIP3    H113125   5.323   6.774   5.861
 4387TIP3    H213126   5.447   6.705   5.808
 4388TIP3   OH213127   2.443   4.348   1.573
 4388TIP3    H113128   2.480   4.285   1.511
 4388TIP3    H213129   2.496   4.338   1.652
 4389TIP3   OH213130   1.014   4.053   3.052
 4389TIP3    H113131   0.974   4.022   2.971
 4389TIP3    H213132   1.024   4.147   3.040
 4390TIP3   OH213133   4.517   0.210   1.393
 4390TIP3    H113134   4.607   0.180   1.375
 4390TIP3    H213135   4.528   0.276   1.461
 4391TIP3   OH213136   1.375   5.601   4.856
 4391TIP3    H113137   1.411   5.635   4.938
 4391TIP3    H213138   1.305   5.542   4.882
 4392TIP3   OH213139   1.683   2.727   1.204
 4392TIP3    H113140   1.630   2.648   1.208
 4392TIP3    H213141   1.703   2.747   1.295
 4393TIP3   OH213142   4.314   1.867   5.742
 4393TIP3    H113143   4.275   1.931   5.801
 4393TIP3    H213144   4.399   1.848   5.781
 4394TIP3   OH213145   3.140   2.518   3.889
 4394TIP3    H113146   3.102   2.595   3.930
 4394TIP3    H213147   3.146   2.454   3.959
 4395TIP3   OH213148   0.793   0.605   1.911
 4395TIP3    H113149   0.775   0.524   1.959
 4395TIP3    H213150   0.711   0.654   1.915
 4396TIP3   OH213151   2.774   1.784   3.048
 4396TIP3    H113152   2.692   1.757   3.007
 4396TIP3    H213153   2.747   1.827   3.130
 4397TIP3   OH213154   1.612   1.079   4.458
 4397TIP3    H113155   1.627   0.992   4.422
 4397TIP3    H213156   1.541   1.116   4.406
 4398TIP3   OH213157   0.437   3.748   3.211
 4398TIP3    H113158   0.463   3.789   3.294
 4398TIP3    H213159   0.356   3.793   3.187
 4399TIP3   OH213160   2.092   3.990   3.447
 4399TIP3    H113161   2.144   4.047   3.391
 4399TIP3    H213162   2.058   3.923   3.388
 4400TIP3   OH213163   1.700   4.072   3.862
 4400TIP3    H113164   1.758   4.038   3.794
 4400TIP3    H213165   1.645   4.136   3.817
 4401TIP3   OH213166   0.708   3.846   0.384
 4401TIP3    H113167   0.644   3.909   0.349
 4401TIP3    H213168   0.732   3.792   0.309
 4402TIP3   OH213169   7.056   0.801   1.972
 4402TIP3    H113170   7.023   0.713   1.988
 4402TIP3    H213171   7.061   0.842   2.058
 4403TIP3   OH213172   1.104   0.676   0.798
 4403TIP3    H113173   1.060   0.761   0.804
 4403TIP3    H213174   1.162   0.674   0.874
 4404TIP3   OH213175   1.008   2.535   4.204
 4404TIP3    H113176   1.064   2.586   4.263
 4404TIP3    H213177   0.950   2.486   4.262
 4405TIP3   OH213178   1.107   3.103   5.258
 4405TIP3    H113179   1.013   3.100   5.275
 4405TIP3    H213180   1.116   3.156   5.179
 4406TIP3   OH213181   3.625   5.320   3.321
 4406TIP3    H113182   3.548   5.375   3.309
 4406TIP3    H213183   3.622   5.258   3.248
 4407TIP3   OH213184   5.786   3.870   1.194
 4407TIP3    H113185   5.713   3.909   1.146
 4407TIP3    H213186   5.760   3.778   1.206
 4408TIP3   OH213187   2.420   3.335   5.855
 4408TIP3    H113188   2.413   3.262   5.915
 4408TIP3    H213189   2.378   3.304   5.775
 4409TIP3   OH213190   6.775   1.188   3.747
 4409TIP3    H113191   6.680   1.174   3.747
 4409TIP3    H213192   6.804   1.148   3.665
 4410TIP3   OH213193   6.436   6.375   2.720
 4410TIP3    H113194   6.520   6.329   2.729
 4410TIP3    H213195   6.371   6.310   2.746
 4411TIP3   OH213196   3.457   5.251   3.988
 4411TIP3    H113197   3.390   5.315   3.964
 4411TIP3    H213198   3.506   5.237   3.907
 4412TIP3   OH213199   2.718   0.871   0.826
 4412TIP3    H113200   2.690   0.792   0.781
 4412TIP3    H213201   2.806   0.889   0.792
 4413TIP3   OH213202   0.125   0.560   2.079
 4413TIP3    H113203   0.164   0.577   1.994
 4413TIP3    H213204   0.053   0.499   2.061
 4414TIP3   OH213205   2.636   2.568   2.889
 4414TIP3    H113206   2.640   2.489   2.944
 4414TIP3    H213207   2.721   2.609   2.900
 4415TIP3   OH213208   1.365   4.415   0.561
 4415TIP3    H113209   1.385   4.478   0.492
 4415TIP3    H213210   1.305   4.353   0.519
 4416TIP3   OH213211   0.465   1.584   5.789
 4416TIP3    H113212   0.458   1.643   5.864
 4416TIP3    H213213   0.547   1.538   5.803
 4417TIP3   OH213214   0.047   3.385   0.462
 4417TIP3    H113215  -0.002   3.372   0.381
 4417TIP3    H213216   0.136   3.406   0.434
 4418TIP3   OH213217   5.955   2.136   1.611
 4418TIP3    H113218   5.890   2.197   1.577
 4418TIP3    H213219   5.958   2.153   1.705
 4419TIP3   OH213220   1.057   6.043   4.014
 4419TIP3    H113221   1.031   5.952   4.003
 4419TIP3    H213222   0.986   6.082   4.066
 4420TIP3   OH213223   1.774   0.370   0.363
 4420TIP3    H113224   1.810   0.389   0.277
 4420TIP3    H213225   1.766   0.275   0.366
 4421TIP3   OH213226   7.047   5.620   1.258
 4421TIP3    H113227   7.022   5.690   1.198
 4421TIP3    H213228   6.991   5.632   1.334
 4422TIP3   OH213229   2.638   1.578   5.307
 4422TIP3    H113230   2.592   1.569   5.224
 4422TIP3    H213231   2.695   1.654   5.294
 4423TIP3   OH213232   6.137   1.466   3.725
 4423TIP3    H113233   6.072   1.442   3.791
 4423TIP3    H213234   6.212   1.497   3.775
 4424TIP3   OH213235   5.139   3.207   0.186
 4424TIP3    H113236   5.130   3.146   0.259
 4424TIP3    H213237   5.212   3.172   0.135
 4425TIP3   OH213238   2.296   6.469   3.016
 4425TIP3    H113239   2.279   6.561   3.036
 4425TIP3    H213240   2.211   6.434   2.991
 4426TIP3   OH213241   2.371   3.656   2.644
 4426TIP3    H113242   2.424   3.630   2.569
 4426TIP3    H213243   2.376   3.581   2.704
 4427TIP3   OH213244   2.035   5.796   5.468
 4427TIP3    H113245   2.102   5.826   5.407
 4427TIP3    H213246   1.964   5.765   5.412
 4428TIP3   OH213247   6.613   6.283   1.771
 4428TIP3    H113248   6.597   6.265   1.863
 4428TIP3    H213249   6.702   6.252   1.755
 4429TIP3   OH213250   4.310   1.692   5.447
 4429TIP3    H113251   4.364   1.658   5.518
 4429TIP3    H213252   4.343   1.781   5.433
 4430TIP3   OH213253   6.364   4.964   5.599
 4430TIP3    H113254   6.307   4.928   5.531
 4430TIP3    H213255   6.326   5.049   5.620
 4431TIP3   OH213256   3.096   5.606   5.768
 4431TIP3    H113257   3.161   5.542   5.796
 4431TIP3    H213258   3.145   5.669   5.715
 4432TIP3   OH213259   0.964   0.919   5.735
 4432TIP3    H113260   1.016   0.975   5.793
 4432TIP3    H213261   0.931   0.850   5.791
 4433TIP3   OH213262   0.486   3.954   1.763
 4433TIP3    H113263   0.400   3.984   1.793
 4433TIP3    H213264   0.487   3.861   1.783
 4434TIP3   OH213265   0.996   4.097   0.176
 4434TIP3    H113266   1.061   4.148   0.224
 4434TIP3    H213267   0.912   4.132   0.205
 4435TIP3   OH213268   6.746   5.991   5.265
 4435TIP3    H113269   6.728   6.039   5.184
 4435TIP3    H213270   6.790   6.055   5.321
 4436TIP3   OH213271   0.180   6.038   4.829
 4436TIP3    H113272   0.146   6.127   4.820
 4436TIP3    H213273   0.148   6.008   4.914
 4437TIP3   OH213274   4.504   3.424   0.071
 4437TIP3    H113275   4.421   3.470   0.053
 4437TIP3    H213276   4.548   3.479   0.136
 4438TIP3   OH213277   2.345   6.451   5.476
 4438TIP3    H113278   2.331   6.360   5.449
 4438TIP3    H213279   2.420   6.480   5.425
 4439TIP3   OH213280   4.324   5.754   2.982
 4439TIP3    H113281   4.258   5.720   2.922
 4439TIP3    H213282   4.406   5.749   2.932
 4440TIP3   OH213283   6.955   5.597   3.700
 4440TIP3    H113284   6.954   5.511   3.741
 4440TIP3    H213285   6.874   5.600   3.649
 4441TIP3   OH213286   6.184   6.031   4.358
 4441TIP3    H113287   6.264   5.990   4.328
 4441TIP3    H213288   6.136   5.962   4.403
 4442TIP3   OH213289   0.626   0.269   3.054
 4442TIP3    H113290   0.565   0.341   3.037
 4442TIP3    H213291   0.629   0.262   3.149
 4443TIP3   OH213292   2.382   1.880   2.237
 4443TIP3    H113293   2.317   1.810   2.240
 4443TIP3    H213294   2.342   1.952   2.287
 4444TIP3   OH213295   1.277   3.553   4.769
 4444TIP3    H113296   1.351   3.492   4.773
 4444TIP3    H213297   1.256   3.559   4.676
 4445TIP3   OH213298   6.352   0.087   0.139
 4445TIP3    H113299   6.355   0.025   0.212
 4445TIP3    H213300   6.385   0.169   0.175
 4446TIP3   OH213301   2.675   1.750   0.637
 4446TIP3    H113302   2.730   1.803   0.696
 4446TIP3    H213303   2.589   1.792   0.641
 4447TIP3   OH213304   1.528   3.903   2.943
 4447TIP3    H113305   1.604   3.864   2.987
 4447TIP3    H213306   1.473   3.934   3.014
 4448TIP3   OH213307   4.337   6.221   2.093
 4448TIP3    H113308   4.328   6.126   2.099
 4448TIP3    H213309   4.286   6.255   2.167
 4449TIP3   OH213310   6.791   1.925   3.622
 4449TIP3    H113311   6.731   1.853   3.605
 4449TIP3    H213312   6.851   1.891   3.688
 4450TIP3   OH213313   0.056   1.819   1.649
 4450TIP3    H113314   0.141   1.857   1.672
 4450TIP3    H213315   0.046   1.745   1.708
 4451TIP3   OH213316   5.984   3.709   3.146
 4451TIP3    H113317   5.965   3.712   3.053
 4451TIP3    H213318   6.075   3.680   3.152
 4452TIP3   OH213319   2.154   5.740   0.704
 4452TIP3    H113320   2.129   5.823   0.663
 4452TIP3    H213321   2.215   5.766   0.774
 4453TIP3   OH213322   2.655   5.123   5.828
 4453TIP3    H113323   2.736   5.167   5.801
 4453TIP3    H213324   2.653   5.043   5.776
 4454TIP3   OH213325   3.486   4.139   1.251
 4454TIP3    H113326   3.438   4.194   1.313
 4454TIP3    H213327   3.517   4.065   1.303
 4455TIP3   OH213328   5.731   2.295   2.920
 4455TIP3    H113329   5.695   2.285   3.008
 4455TIP3    H213330   5.777   2.213   2.903
 4456TIP3   OH213331   5.676   1.955   1.982
 4456TIP3    H113332   5.668   1.957   1.887
 4456TIP3    H213333   5.701   1.865   2.003
 4457TIP3   OH213334   4.114   5.731   5.098
 4457TIP3    H113335   4.199   5.715   5.141
 4457TIP3    H213336   4.062   5.775   5.165
 4458TIP3   OH213337   6.681   5.198   4.738
 4458TIP3    H113338   6.677   5.236   4.826
 4458TIP3    H213339   6.625   5.121   4.742
 4459TIP3   OH213340   4.610   1.345   4.149
 4459TIP3    H113341   4.552   1.333   4.074
 4459TIP3    H213342   4.575   1.422   4.194
 4460TIP3   OH213343   2.944   3.030   1.107
 4460TIP3    H113344   2.991   3.035   1.191
 4460TIP3    H213345   2.888   3.108   1.106
 4461TIP3   OH213346   2.259   5.971   4.312
 4461TIP3    H113347   2.291   5.904   4.251
 4461TIP3    H213348   2.315   5.961   4.389
 4462TIP3   OH213349   1.407   1.999   0.187
 4462TIP3    H113350   1.470   2.058   0.145
 4462TIP3    H213351   1.337   2.057   0.218
 4463TIP3   OH213352   6.544   5.421   2.383
 4463TIP3    H113353   6.637   5.435   2.366
 4463TIP3    H213354   6.520   5.348   2.326
 4464TIP3   OH213355   4.023   5.761   4.504
 4464TIP3    H113356   3.978   5.754   4.588
 4464TIP3    H213357   4.017   5.853   4.480
 4465TIP3   OH213358   6.783   3.226   1.930
 4465TIP3    H113359   6.869   3.226   1.887
 4465TIP3    H213360   6.786   3.301   1.989
 4466TIP3   OH213361   0.760   1.288   4.126
 4466TIP3    H113362   0.727   1.378   4.119
 4466TIP3    H213363   0.685   1.237   4.156
 4467TIP3   OH213364   6.258   2.628   0.713
 4467TIP3    H113365   6.339   2.645   0.664
 4467TIP3    H213366   6.232   2.714   0.746
 4468TIP3   OH213367   6.708   0.194   5.618
 4468TIP3    H113368   6.792   0.225   5.652
 4468TIP3    H213369   6.713   0.213   5.524
 4469TIP3   OH213370   1.346   1.062   2.319
 4469TIP3    H113371   1.317   1.003   2.249
 4469TIP3    H213372   1.433   1.030   2.344
 4470TIP3   OH213373   6.187   3.249   4.582
 4470TIP3    H113374   6.254   3.189   4.550
 4470TIP3    H213375   6.170   3.308   4.509
 4471TIP3   OH213376   3.215   5.409   3.970
 4471TIP3    H113377   3.121   5.424   3.978
 4471TIP3    H213378   3.248   5.415   4.059
 4472TIP3   OH213379   0.276   1.313   2.833
 4472TIP3    H113380   0.245   1.402   2.853
 4472TIP3    H213381   0.276   1.308   2.738
 4473TIP3   OH213382   6.310   5.005   0.550
 4473TIP3    H113383   6.331   5.084   0.500
 4473TIP3    H213384   6.382   4.944   0.530
 4474TIP3   OH213385   6.958   5.735   5.616
 4474TIP3    H113386   7.026   5.724   5.683
 4474TIP3    H213387   6.989   5.683   5.542
 4475TIP3   OH213388   2.379   2.530  -0.002
 4475TIP3    H113389   2.440   2.468  -0.041
 4475TIP3    H213390   2.427   2.613   0.001
 4476TIP3   OH213391   6.016   3.290   3.896
 4476TIP3    H113392   5.953   3.344   3.944
 4476TIP3    H213393   5.975   3.203   3.891
 4477TIP3   OH213394   6.714   1.572   4.521
 4477TIP3    H113395   6.642   1.584   4.459
 4477TIP3    H213396   6.785   1.625   4.485
 4478TIP3   OH213397   3.870   0.917   5.533
 4478TIP3    H113398   3.874   0.822   5.543
 4478TIP3    H213399   3.810   0.931   5.459
 4479TIP3   OH213400   3.790   3.565   4.046
 4479TIP3    H113401   3.833   3.623   4.108
 4479TIP3    H213402   3.774   3.620   3.969
 4480TIP3   OH213403   4.021   0.971   2.350
 4480TIP3    H113404   4.000   0.954   2.441
 4480TIP3    H213405   4.089   1.039   2.353
 4481TIP3   OH213406   3.688   6.277   2.349
 4481TIP3    H113407   3.663   6.342   2.284
 4481TIP3    H213408   3.610   6.267   2.404
 4482TIP3   OH213409   4.331   2.754   1.870
 4482TIP3    H113410   4.408   2.699   1.854
 4482TIP3    H213411   4.277   2.743   1.792
 4483TIP3   OH213412   3.471   0.319   5.848
 4483TIP3    H113413   3.453   0.346   5.938
 4483TIP3    H213414   3.553   0.363   5.826
 4484TIP3   OH213415   6.391   3.568   4.933
 4484TIP3    H113416   6.356   3.556   5.022
 4484TIP3    H213417   6.314   3.561   4.876
 4485TIP3   OH213418   3.440   6.546   5.375
 4485TIP3    H113419   3.370   6.502   5.328
 4485TIP3    H213420   3.396   6.606   5.435
 4486TIP3   OH213421   0.989   3.963   1.471
 4486TIP3    H113422   1.004   3.998   1.383
 4486TIP3    H213423   1.006   3.869   1.463
 4487TIP3   OH213424   5.908   4.210   3.010
 4487TIP3    H113425   5.990   4.168   2.983
 4487TIP3    H213426   5.851   4.137   3.034
 4488TIP3   OH213427   5.753   1.494   5.808
 4488TIP3    H113428   5.845   1.519   5.810
 4488TIP3    H213429   5.731   1.487   5.715
 4489TIP3   OH213430   2.890   3.501   0.210
 4489TIP3    H113431   2.930   3.424   0.170
 4489TIP3    H213432   2.932   3.507   0.296
 4490TIP3   OH213433   5.075   4.410   5.163
 4490TIP3    H113434   5.165   4.417   5.130
 4490TIP3    H213435   5.023   4.390   5.085
 4491TIP3   OH213436   4.661   4.468   1.046
 4491TIP3    H113437   4.700   4.437   1.128
 4491TIP3    H213438   4.568   4.477   1.065
 4492TIP3   OH213439   4.467   1.314   3.614
 4492TIP3    H113440   4.560   1.290   3.616
 4492TIP3    H213441   4.423   1.240   3.654
 4493TIP3   OH213442   3.477   2.866   5.271
 4493TIP3    H113443   3.538   2.939   5.286
 4493TIP3    H213444   3.530   2.799   5.228
 4494TIP3   OH213445   4.452   4.308   4.851
 4494TIP3    H113446   4.428   4.288   4.942
 4494TIP3    H213447   4.499   4.230   4.820
 4495TIP3   OH213448   1.176   6.325   1.435
 4495TIP3    H113449   1.161   6.335   1.341
 4495TIP3    H213450   1.112   6.385   1.475
 4496TIP3   OH213451   6.570   3.056   1.843
 4496TIP3    H113452   6.620   3.106   1.908
 4496TIP3    H213453   6.585   2.965   1.868
 4497TIP3   OH213454   6.557   6.616   1.552
 4497TIP3    H113455   6.530   6.708   1.549
 4497TIP3    H213456   6.510   6.580   1.627
 4498TIP3   OH213457   5.298   6.146   1.370
 4498TIP3    H113458   5.388   6.140   1.401
 4498TIP3    H213459   5.257   6.212   1.425
 4499TIP3   OH213460   5.021   5.835   2.204
 4499TIP3    H113461   4.928   5.855   2.216
 4499TIP3    H213462   5.027   5.740   2.212
 4500TIP3   OH213463   0.161   0.308   2.669
 4500TIP3    H113464   0.136   0.366   2.741
 4500TIP3    H213465   0.226   0.358   2.620
 4501TIP3   OH213466   0.884   1.808   4.802
 4501TIP3    H113467   0.897   1.883   4.745
 4501TIP3    H213468   0.921   1.835   4.886
 4502TIP3   OH213469   4.633   4.424   0.557
 4502TIP3    H113470   4.609   4.516   0.557
 4502TIP3    H213471   4.708   4.419   0.616
 4503TIP3   OH213472   0.134   1.499   5.192
 4503TIP3    H113473   0.217   1.484   5.147
 4503TIP3    H213474   0.150   1.476   5.283
 4504TIP3   OH213475   3.016   1.865   3.246
 4504TIP3    H113476   3.091   1.825   3.290
 4504TIP3    H213477   2.940   1.817   3.279
 4505TIP3   OH213478   0.018   3.086   2.135
 4505TIP3    H113479   0.113   3.091   2.141
 4505TIP3    H213480  -0.014   3.105   2.223
 4506TIP3   OH213481   5.683   6.612   2.288
 4506TIP3    H113482   5.652   6.523   2.303
 4506TIP3    H213483   5.658   6.631   2.197
 4507TIP3   OH213484   6.320   6.108   1.763
 4507TIP3    H113485   6.406   6.068   1.750
 4507TIP3    H213486   6.329   6.159   1.844
 4508TIP3   OH213487   2.759   4.178   1.004
 4508TIP3    H113488   2.833   4.221   0.960
 4508TIP3    H213489   2.795   4.095   1.036
 4509TIP3   OH213490   5.995   6.361   0.556
 4509TIP3    H113491   6.057   6.297   0.521
 4509TIP3    H213492   6.032   6.446   0.533
 4510TIP3   OH213493   6.888   6.250   5.088
 4510TIP3    H113494   6.941   6.208   5.156
 4510TIP3    H213495   6.881   6.184   5.019
 4511TIP3   OH213496   5.022   3.243   1.783
 4511TIP3    H113497   5.095   3.282   1.831
 4511TIP3    H213498   5.016   3.294   1.702
 4512TIP3   OH213499   0.654   3.850   2.607
 4512TIP3    H113500   0.721   3.867   2.541
 4512TIP3    H213501   0.677   3.908   2.679
 4513TIP3   OH213502   4.934   0.771   5.035
 4513TIP3    H113503   4.956   0.692   5.084
 4513TIP3    H213504   5.012   0.826   5.042
 4514TIP3   OH213505   4.175   1.469   1.259
 4514TIP3    H113506   4.145   1.495   1.347
 4514TIP3    H213507   4.095   1.470   1.206
 4515TIP3   OH213508   1.075   2.498   0.213
 4515TIP3    H113509   1.169   2.492   0.193
 4515TIP3    H213510   1.068   2.464   0.302
 4516TIP3   OH213511   4.952   6.493   5.064
 4516TIP3    H113512   4.925   6.489   4.972
 4516TIP3    H213513   5.004   6.415   5.077
 4517TIP3   OH213514   0.721   4.889   4.590
 4517TIP3    H113515   0.776   4.950   4.541
 4517TIP3    H213516   0.716   4.812   4.533
 4518TIP3   OH213517   2.087   2.176   3.378
 4518TIP3    H113518   2.021   2.116   3.413
 4518TIP3    H213519   2.170   2.143   3.412
 4519TIP3   OH213520   4.987   0.720   2.674
 4519TIP3    H113521   4.940   0.788   2.722
 4519TIP3    H213522   5.014   0.763   2.593
 4520TIP3   OH213523   4.047   1.624   3.995
 4520TIP3    H113524   4.130   1.577   3.991
 4520TIP3    H213525   4.006   1.608   3.910
 4521TIP3   OH213526   2.158   1.185   1.102
 4521TIP3    H113527   2.211   1.244   1.049
 4521TIP3    H213528   2.189   1.198   1.192
 4522TIP3   OH213529   0.687   4.161   2.553
 4522TIP3    H113530   0.752   4.231   2.541
 4522TIP3    H213531   0.696   4.107   2.475
 4523TIP3   OH213532   3.547   2.533   2.250
 4523TIP3    H113533   3.498   2.571   2.322
 4523TIP3    H213534   3.610   2.600   2.224
 4524TIP3   OH213535   3.753   5.593   4.906
 4524TIP3    H113536   3.695   5.526   4.870
 4524TIP3    H213537   3.808   5.545   4.969
 4525TIP3   OH213538   6.224   4.155   2.668
 4525TIP3    H113539   6.232   4.250   2.670
 4525TIP3    H213540   6.130   4.139   2.661
 4526TIP3   OH213541   2.042   5.422   4.336
 4526TIP3    H113542   2.030   5.509   4.298
 4526TIP3    H213543   2.136   5.414   4.348
 4527TIP3   OH213544   0.346   2.268   1.610
 4527TIP3    H113545   0.274   2.303   1.664
 4527TIP3    H213546   0.387   2.202   1.666
 4528TIP3   OH213547   6.881   2.260   3.139
 4528TIP3    H113548   6.807   2.227   3.089
 4528TIP3    H213549   6.862   2.235   3.229
 4529TIP3   OH213550   3.556   4.902   5.849
 4529TIP3    H113551   3.553   4.997   5.862
 4529TIP3    H213552   3.472   4.870   5.881
 4530TIP3   OH213553   1.357   1.919   1.965
 4530TIP3    H113554   1.398   2.004   1.950
 4530TIP3    H213555   1.271   1.941   2.001
 4531TIP3   OH213556   1.082   2.522   1.850
 4531TIP3    H113557   1.007   2.507   1.908
 4531TIP3    H213558   1.117   2.607   1.877
 4532TIP3   OH213559   6.128   5.943   1.856
 4532TIP3    H113560   6.189   6.008   1.820
 4532TIP3    H213561   6.085   5.906   1.779
 4533TIP3   OH213562   2.477   0.809   4.629
 4533TIP3    H113563   2.424   0.770   4.560
 4533TIP3    H213564   2.492   0.899   4.600
 4534TIP3   OH213565   0.931   2.337   5.427
 4534TIP3    H113566   0.960   2.267   5.368
 4534TIP3    H213567   0.898   2.291   5.504
 4535TIP3   OH213568   0.458   6.690   0.674
 4535TIP3    H113569   0.368   6.712   0.652
 4535TIP3    H213570   0.465   6.596   0.654
 4536TIP3   OH213571   0.710   2.968   1.615
 4536TIP3    H113572   0.740   2.930   1.698
 4536TIP3    H213573   0.649   2.903   1.580
 4537TIP3   OH213574   6.173   6.465   5.721
 4537TIP3    H113575   6.089   6.507   5.700
 4537TIP3    H213576   6.149   6.392   5.779
 4538TIP3   OH213577   0.693   0.496   1.653
 4538TIP3    H113578   0.681   0.566   1.589
 4538TIP3    H213579   0.715   0.541   1.735
 4539TIP3   OH213580   0.641   1.774   1.146
 4539TIP3    H113581   0.629   1.683   1.119
 4539TIP3    H213582   0.552   1.809   1.155
 4540TIP3   OH213583   4.702   5.033   2.546
 4540TIP3    H113584   4.774   5.047   2.485
 4540TIP3    H213585   4.726   4.954   2.594
 4541TIP3   OH213586   3.923   4.429   4.250
 4541TIP3    H113587   3.979   4.492   4.205
 4541TIP3    H213588   3.946   4.344   4.212
 4542TIP3   OH213589   1.354   3.813   4.444
 4542TIP3    H113590   1.428   3.821   4.504
 4542TIP3    H213591   1.322   3.903   4.433
 4543TIP3   OH213592   0.437   3.305   5.491
 4543TIP3    H113593   0.456   3.273   5.403
 4543TIP3    H213594   0.349   3.273   5.511
 4544TIP3   OH213595   3.732   5.279   4.083
 4544TIP3    H113596   3.754   5.193   4.048
 4544TIP3    H213597   3.804   5.300   4.143
 4545TIP3   OH213598   3.702   2.348   5.486
 4545TIP3    H113599   3.652   2.319   5.409
 4545TIP3    H213600   3.647   2.416   5.525
 4546TIP3   OH213601   0.098   3.643   4.031
 4546TIP3    H113602   0.091   3.693   3.950
 4546TIP3    H213603   0.173   3.680   4.077
 4547TIP3   OH213604   5.220   1.488   4.351
 4547TIP3    H113605   5.307   1.450   4.345
 4547TIP3    H213606   5.207   1.532   4.267
 4548TIP3   OH213607   0.489   3.522   4.096
 4548TIP3    H113608   0.464   3.443   4.048
 4548TIP3    H213609   0.584   3.528   4.086
 4549TIP3   OH213610   1.244   5.421   1.157
 4549TIP3    H113611   1.201   5.339   1.184
 4549TIP3    H213612   1.337   5.401   1.159
 4550TIP3   OH213613   5.100   5.437   0.088
 4550TIP3    H113614   5.176   5.401   0.135
 4550TIP3    H213615   5.082   5.521   0.131
 4551TIP3   OH213616   6.556   5.833   3.315
 4551TIP3    H113617   6.519   5.828   3.227
 4551TIP3    H213618   6.521   5.756   3.360
 4552TIP3   OH213619   6.660   2.017   2.480
 4552TIP3    H113620   6.719   2.091   2.465
 4552TIP3    H213621   6.574   2.051   2.458
 4553TIP3   OH213622   4.237   3.758   3.528
 4553TIP3    H113623   4.225   3.746   3.622
 4553TIP3    H213624   4.184   3.835   3.507
 4554TIP3   OH213625   2.796   2.414   1.369
 4554TIP3    H113626   2.812   2.463   1.288
 4554TIP3    H213627   2.714   2.450   1.403
 4555TIP3   OH213628   6.237   4.484   2.997
 4555TIP3    H113629   6.300   4.418   2.966
 4555TIP3    H213630   6.167   4.481   2.932
 4556TIP3   OH213631   5.448   5.698   0.371
 4556TIP3    H113632   5.505   5.759   0.324
 4556TIP3    H213633   5.407   5.751   0.439
 4557TIP3   OH213634   0.337   1.794   2.658
 4557TIP3    H113635   0.392   1.850   2.604
 4557TIP3    H213636   0.248   1.824   2.640
 4558TIP3   OH213637   1.718   4.534   4.535
 4558TIP3    H113638   1.806   4.499   4.549
 4558TIP3    H213639   1.723   4.580   4.452
 4559TIP3   OH213640   6.032   1.145   0.451
 4559TIP3    H113641   6.110   1.199   0.440
 4559TIP3    H213642   5.967   1.204   0.490
 4560TIP3   OH213643   1.923   2.227   5.407
 4560TIP3    H113644   1.927   2.256   5.316
 4560TIP3    H213645   2.013   2.234   5.439
 4561TIP3   OH213646   3.242   2.217   4.825
 4561TIP3    H113647   3.303   2.286   4.797
 4561TIP3    H213648   3.274   2.137   4.784
 4562TIP3   OH213649   6.614   1.338   5.355
 4562TIP3    H113650   6.554   1.310   5.424
 4562TIP3    H213651   6.701   1.316   5.390
 4563TIP3   OH213652   3.219   1.982   4.335
 4563TIP3    H113653   3.195   1.893   4.361
 4563TIP3    H213654   3.138   2.032   4.343
 4564TIP3   OH213655   3.613   2.350   4.329
 4564TIP3    H113656   3.556   2.278   4.302
 4564TIP3    H213657   3.700   2.324   4.297
 4565TIP3   OH213658   0.242   3.575   2.782
 4565TIP3    H113659   0.328   3.614   2.773
 4565TIP3    H213660   0.187   3.623   2.720
 4566TIP3   OH213661   2.218   5.056   2.549
 4566TIP3    H113662   2.257   5.018   2.627
 4566TIP3    H213663   2.127   5.027   2.550
 4567TIP3   OH213664   4.699   5.187   1.864
 4567TIP3    H113665   4.707   5.274   1.903
 4567TIP3    H213666   4.788   5.152   1.864
 4568TIP3   OH213667   7.028   2.417   2.286
 4568TIP3    H113668   7.116   2.387   2.307
 4568TIP3    H213669   7.025   2.418   2.190
 4569TIP3   OH213670   4.285   0.530   1.124
 4569TIP3    H113671   4.341   0.607   1.136
 4569TIP3    H213672   4.332   0.475   1.062
 4570TIP3   OH213673   1.975   0.063   0.987
 4570TIP3    H113674   1.979  -0.032   0.995
 4570TIP3    H213675   2.014   0.096   1.068
 4571TIP3   OH213676   6.844   4.388   2.418
 4571TIP3    H113677   6.797   4.326   2.473
 4571TIP3    H213678   6.778   4.425   2.360
 4572TIP3   OH213679   5.517   5.852   3.535
 4572TIP3    H113680   5.495   5.792   3.464
 4572TIP3    H213681   5.505   5.801   3.615
 4573TIP3   OH213682   5.567   3.214   4.919
 4573TIP3    H113683   5.543   3.256   5.001
 4573TIP3    H213684   5.485   3.210   4.869
 4574TIP3   OH213685   2.399   3.302   1.289
 4574TIP3    H113686   2.403   3.327   1.382
 4574TIP3    H213687   2.313   3.331   1.260
 4575TIP3   OH213688   2.622   5.211   1.626
 4575TIP3    H113689   2.592   5.130   1.587
 4575TIP3    H213690   2.585   5.211   1.715
 4576TIP3   OH213691   5.679   4.762   1.888
 4576TIP3    H113692   5.767   4.796   1.878
 4576TIP3    H213693   5.689   4.685   1.943
 4577TIP3   OH213694   6.466   2.500   2.071
 4577TIP3    H113695   6.411   2.557   2.017
 4577TIP3    H213696   6.514   2.560   2.128
 4578TIP3   OH213697   3.436   4.063   3.225
 4578TIP3    H113698   3.514   4.030   3.268
 4578TIP3    H213699   3.373   4.076   3.296
 4579TIP3   OH213700   0.392   4.225   2.296
 4579TIP3    H113701   0.376   4.168   2.372
 4579TIP3    H213702   0.487   4.235   2.293
 4580TIP3   OH213703   4.526   0.052   1.005
 4580TIP3    H113704   4.613   0.018   1.026
 4580TIP3    H213705   4.480  -0.021   0.964
 4581TIP3   OH213706   0.980   0.784   4.976
 4581TIP3    H113707   1.056   0.832   5.011
 4581TIP3    H213708   0.905   0.824   5.019
 4582TIP3   OH213709   6.683   0.581   5.700
 4582TIP3    H113710   6.757   0.523   5.682
 4582TIP3    H213711   6.606   0.528   5.679
 4583TIP3   OH213712   1.145   2.759   0.347
 4583TIP3    H113713   1.097   2.808   0.280
 4583TIP3    H213714   1.227   2.808   0.357
 4584TIP3   OH213715   1.304   5.866   3.622
 4584TIP3    H113716   1.297   5.802   3.694
 4584TIP3    H213717   1.398   5.869   3.603
 4585TIP3   OH213718   2.863   2.769   1.045
 4585TIP3    H113719   2.780   2.775   0.998
 4585TIP3    H213720   2.884   2.859   1.070
 4586TIP3   OH213721   1.972   6.379   1.645
 4586TIP3    H113722   1.884   6.414   1.629
 4586TIP3    H213723   1.956   6.298   1.694
 4587TIP3   OH213724   3.200   4.671   5.263
 4587TIP3    H113725   3.227   4.604   5.326
 4587TIP3    H213726   3.258   4.658   5.188
 4588TIP3   OH213727   5.444   4.219   5.741
 4588TIP3    H113728   5.515   4.250   5.684
 4588TIP3    H213729   5.434   4.126   5.719
 4589TIP3   OH213730   5.745   4.674   5.243
 4589TIP3    H113731   5.659   4.699   5.276
 4589TIP3    H213732   5.796   4.756   5.245
 4590TIP3   OH213733   7.055   4.375   3.659
 4590TIP3    H113734   7.111   4.452   3.663
 4590TIP3    H213735   7.049   4.354   3.565
 4591TIP3   OH213736   5.795   2.922   2.967
 4591TIP3    H113737   5.795   2.911   2.872
 4591TIP3    H213738   5.750   3.005   2.982
 4592TIP3   OH213739   6.112   0.320   1.171
 4592TIP3    H113740   6.085   0.264   1.244
 4592TIP3    H213741   6.042   0.385   1.164
 4593TIP3   OH213742   0.773   6.289   0.365
 4593TIP3    H113743   0.729   6.267   0.282
 4593TIP3    H213744   0.799   6.380   0.355
 4594TIP3   OH213745   0.458   1.631   0.449
 4594TIP3    H113746   0.488   1.636   0.358
 4594TIP3    H213747   0.511   1.561   0.488
 4595TIP3   OH213748   6.884   6.485   3.090
 4595TIP3    H113749   6.930   6.560   3.052
 4595TIP3    H213750   6.816   6.464   3.027
 4596TIP3   OH213751   2.000   3.405   3.200
 4596TIP3    H113752   1.907   3.428   3.193
 4596TIP3    H213753   2.007   3.361   3.285
 4597TIP3   OH213754   5.607   4.649   0.331
 4597TIP3    H113755   5.514   4.629   0.335
 4597TIP3    H213756   5.650   4.566   0.355
 4598TIP3   OH213757   5.305   5.759   5.147
 4598TIP3    H113758   5.377   5.717   5.099
 4598TIP3    H213759   5.324   5.852   5.142
 4599TIP3   OH213760   5.655   5.712   0.776
 4599TIP3    H113761   5.688   5.664   0.852
 4599TIP3    H213762   5.602   5.648   0.728
 4600TIP3   OH213763   1.751   4.729   4.303
 4600TIP3    H113764   1.767   4.783   4.380
 4600TIP3    H213765   1.833   4.731   4.255
 4601TIP3   OH213766   4.135   2.029   1.913
 4601TIP3    H113767   4.070   1.959   1.922
 4601TIP3    H213768   4.126   2.079   1.994
 4602TIP3   OH213769   3.154   4.196   0.610
 4602TIP3    H113770   3.202   4.247   0.676
 4602TIP3    H213771   3.162   4.105   0.640
 4603TIP3   OH213772   6.276   6.705   4.929
 4603TIP3    H113773   6.266   6.702   5.024
 4603TIP3    H213774   6.347   6.767   4.914
 4604TIP3   OH213775   3.538   2.567   3.957
 4604TIP3    H113776   3.525   2.527   4.043
 4604TIP3    H213777   3.504   2.656   3.967
 4605TIP3   OH213778   5.819   2.945   5.522
 4605TIP3    H113779   5.749   2.949   5.587
 4605TIP3    H213780   5.898   2.924   5.572
 4606TIP3   OH213781   5.168   3.428   4.659
 4606TIP3    H113782   5.227   3.493   4.697
 4606TIP3    H213783   5.137   3.469   4.578
 4607TIP3   OH213784   4.465   5.256   1.754
 4607TIP3    H113785   4.526   5.200   1.801
 4607TIP3    H213786   4.519   5.304   1.692
 4608TIP3   OH213787   1.588   1.977   4.404
 4608TIP3    H113788   1.535   1.906   4.369
 4608TIP3    H213789   1.638   2.009   4.329
 4609TIP3   OH213790   3.096   5.711   3.928
 4609TIP3    H113791   3.056   5.741   4.010
 4609TIP3    H213792   3.190   5.726   3.941
 4610TIP3   OH213793   1.448   0.183   5.029
 4610TIP3    H113794   1.396   0.224   4.960
 4610TIP3    H213795   1.388   0.125   5.074
 4611TIP3   OH213796   0.876   6.222   5.269
 4611TIP3    H113797   0.810   6.192   5.207
 4611TIP3    H213798   0.874   6.157   5.339
 4612TIP3   OH213799   1.575   3.980   5.586
 4612TIP3    H113800   1.591   4.073   5.569
 4612TIP3    H213801   1.534   3.978   5.673
 4613TIP3   OH213802   3.972   4.903   5.559
 4613TIP3    H113803   4.034   4.973   5.579
 4613TIP3    H213804   4.025   4.823   5.566
 4614TIP3   OH213805   2.786   3.728   2.313
 4614TIP3    H113806   2.764   3.668   2.242
 4614TIP3    H213807   2.862   3.688   2.356
 4615TIP3   OH213808   4.883   1.671   1.115
 4615TIP3    H113809   4.934   1.734   1.166
 4615TIP3    H213810   4.836   1.725   1.051
 4616TIP3   OH213811   2.643   4.793   5.123
 4616TIP3    H113812   2.660   4.869   5.067
 4616TIP3    H213813   2.716   4.733   5.105
 4617TIP3   OH213814   5.300   4.336   4.268
 4617TIP3    H113815   5.327   4.295   4.186
 4617TIP3    H213816   5.378   4.332   4.324
 4618TIP3   OH213817   4.654   1.812   4.613
 4618TIP3    H113818   4.560   1.798   4.622
 4618TIP3    H213819   4.693   1.725   4.622
 4619TIP3   OH213820   4.926   1.042   2.080
 4619TIP3    H113821   4.942   1.118   2.024
 4619TIP3    H213822   4.833   1.023   2.069
 4620TIP3   OH213823   0.098   2.100   1.483
 4620TIP3    H113824   0.065   2.079   1.570
 4620TIP3    H213825   0.037   2.166   1.450
 4621TIP3   OH213826   2.407   1.648   4.933
 4621TIP3    H113827   2.366   1.626   5.016
 4621TIP3    H213828   2.501   1.652   4.952
 4622TIP3   OH213829   5.202   1.506   3.070
 4622TIP3    H113830   5.128   1.552   3.031
 4622TIP3    H213831   5.166   1.421   3.097
 4623TIP3   OH213832   0.112   5.907   4.554
 4623TIP3    H113833   0.118   5.990   4.507
 4623TIP3    H213834   0.132   5.928   4.645
 4624TIP3   OH213835   6.276   2.513   0.990
 4624TIP3    H113836   6.208   2.445   0.997
 4624TIP3    H213837   6.259   2.555   0.906
 4625TIP3   OH213838   3.180   6.683   5.064
 4625TIP3    H113839   3.236   6.632   5.006
 4625TIP3    H213840   3.192   6.642   5.150
 4626TIP3   OH213841   0.567   4.673   4.839
 4626TIP3    H113842   0.584   4.686   4.746
 4626TIP3    H213843   0.538   4.758   4.870
 4627TIP3   OH213844   0.061   5.273   4.254
 4627TIP3    H113845   0.028   5.253   4.341
 4627TIP3    H213846   0.052   5.368   4.245
 4628TIP3   OH213847   6.497   4.656   3.991
 4628TIP3    H113848   6.406   4.658   3.963
 4628TIP3    H213849   6.532   4.575   3.955
 4629TIP3   OH213850   6.654   3.047   3.878
 4629TIP3    H113851   6.721   2.992   3.918
 4629TIP3    H213852   6.596   3.071   3.951
 4630TIP3   OH213853   7.151   4.580   5.140
 4630TIP3    H113854   7.204   4.542   5.210
 4630TIP3    H213855   7.077   4.621   5.185
 4631TIP3   OH213856   3.082   6.332   5.469
 4631TIP3    H113857   3.128   6.377   5.398
 4631TIP3    H213858   3.010   6.391   5.492
 4632TIP3   OH213859   2.554   0.104   3.979
 4632TIP3    H113860   2.505   0.023   3.963
 4632TIP3    H213861   2.619   0.080   4.045
 4633TIP3   OH213862   3.391   0.568   3.872
 4633TIP3    H113863   3.309   0.520   3.857
 4633TIP3    H213864   3.454   0.529   3.811
 4634TIP3   OH213865   1.135   0.776   2.282
 4634TIP3    H113866   1.226   0.746   2.284
 4634TIP3    H213867   1.103   0.748   2.196
 4635TIP3   OH213868   4.817   2.157   4.287
 4635TIP3    H113869   4.804   2.160   4.192
 4635TIP3    H213870   4.854   2.070   4.304
 4636TIP3   OH213871   3.064   4.227   3.032
 4636TIP3    H113872   3.123   4.153   3.046
 4636TIP3    H213873   3.002   4.222   3.104
 4637TIP3   OH213874   0.588   0.972   5.680
 4637TIP3    H113875   0.573   0.905   5.747
 4637TIP3    H213876   0.675   0.954   5.646
 4638TIP3   OH213877   3.118   3.067   3.809
 4638TIP3    H113878   3.135   2.975   3.828
 4638TIP3    H213879   3.145   3.078   3.717
 4639TIP3   OH213880   6.699   2.346   4.529
 4639TIP3    H113881   6.696   2.307   4.617
 4639TIP3    H213882   6.713   2.439   4.545
 4640TIP3   OH213883   1.921   0.861   4.923
 4640TIP3    H113884   1.947   0.822   4.839
 4640TIP3    H213885   1.833   0.827   4.939
 4641TIP3   OH213886   1.877   3.546   3.449
 4641TIP3    H113887   1.811   3.492   3.494
 4641TIP3    H213888   1.827   3.618   3.411
 4642TIP3   OH213889   1.051   6.154   4.916
 4642TIP3    H113890   1.077   6.061   4.909
 4642TIP3    H213891   1.104   6.198   4.849
 4643TIP3   OH213892   6.200   0.438   3.071
 4643TIP3    H113893   6.211   0.420   2.978
 4643TIP3    H213894   6.282   0.410   3.112
 4644TIP3   OH213895   6.844   3.854   5.894
 4644TIP3    H113896   6.881   3.790   5.834
 4644TIP3    H213897   6.835   3.806   5.977
 4645TIP3   OH213898   4.974   4.791   1.990
 4645TIP3    H113899   5.063   4.762   1.973
 4645TIP3    H213900   4.978   4.887   1.982
 4646TIP3   OH213901   2.579   3.691   5.561
 4646TIP3    H113902   2.553   3.675   5.652
 4646TIP3    H213903   2.673   3.706   5.565
 4647TIP3   OH213904   1.569   1.307   2.209
 4647TIP3    H113905   1.500   1.303   2.143
 4647TIP3    H213906   1.523   1.313   2.292
 4648TIP3   OH213907   0.681   5.998   1.494
 4648TIP3    H113908   0.675   6.064   1.563
 4648TIP3    H213909   0.754   5.942   1.522
 4649TIP3   OH213910   6.407   4.879   1.169
 4649TIP3    H113911   6.484   4.924   1.135
 4649TIP3    H213912   6.443   4.806   1.220
 4650TIP3   OH213913   3.579   5.726   3.027
 4650TIP3    H113914   3.574   5.630   3.026
 4650TIP3    H213915   3.668   5.745   3.056
 4651TIP3   OH213916   1.239   1.529   2.225
 4651TIP3    H113917   1.149   1.557   2.240
 4651TIP3    H213918   1.238   1.435   2.241
 4652TIP3   OH213919   4.450   2.714   5.092
 4652TIP3    H113920   4.443   2.785   5.028
 4652TIP3    H213921   4.439   2.634   5.041
 4653TIP3   OH213922   6.762   4.051   4.768
 4653TIP3    H113923   6.843   4.007   4.790
 4653TIP3    H213924   6.696   3.982   4.767
 4654TIP3   OH213925   1.362   3.633   2.852
 4654TIP3    H113926   1.381   3.603   2.942
 4654TIP3    H213927   1.280   3.680   2.860
 4655TIP3   OH213928   5.669   2.357   3.186
 4655TIP3    H113929   5.704   2.437   3.147
 4655TIP3    H213930   5.658   2.378   3.278
 4656TIP3   OH213931   2.503   2.104   1.840
 4656TIP3    H113932   2.445   2.035   1.808
 4656TIP3    H213933   2.582   2.057   1.869
 4657TIP3   OH213934   4.034   2.609   5.224
 4657TIP3    H113935   4.019   2.590   5.131
 4657TIP3    H213936   4.128   2.598   5.236
 4658TIP3   OH213937   3.388   2.766   0.087
 4658TIP3    H113938   3.379   2.724   0.002
 4658TIP3    H213939   3.306   2.748   0.132
 4659TIP3   OH213940   1.708   2.697   2.765
 4659TIP3    H113941   1.800   2.703   2.788
 4659TIP3    H213942   1.663   2.759   2.823
 4660TIP3   OH213943   5.236   5.061   1.426
 4660TIP3    H113944   5.252   5.097   1.513
 4660TIP3    H213945   5.289   5.116   1.367
 4661TIP3   OH213946   7.187   2.530   3.158
 4661TIP3    H113947   7.215   2.537   3.250
 4661TIP3    H213948   7.165   2.438   3.147
 4662TIP3   OH213949   1.533   3.370   3.027
 4662TIP3    H113950   1.587   3.421   2.967
 4662TIP3    H213951   1.467   3.432   3.058
 4663TIP3   OH213952   5.080   5.683   5.033
 4663TIP3    H113953   5.165   5.703   5.073
 4663TIP3    H213954   5.016   5.700   5.102
 4664TIP3   OH213955   4.943   5.814   1.816
 4664TIP3    H113956   4.889   5.798   1.894
 4664TIP3    H213957   4.880   5.838   1.748
 4665TIP3   OH213958   0.617   5.850   5.699
 4665TIP3    H113959   0.698   5.809   5.670
 4665TIP3    H213960   0.548   5.792   5.667
 4666TIP3   OH213961   3.698   4.469   1.603
 4666TIP3    H113962   3.705   4.455   1.509
 4666TIP3    H213963   3.771   4.528   1.624
 4667TIP3   OH213964   1.200   1.927   0.719
 4667TIP3    H113965   1.153   1.942   0.801
 4667TIP3    H213966   1.293   1.934   0.743
 4668TIP3   OH213967   6.702   6.507   2.901
 4668TIP3    H113968   6.619   6.545   2.928
 4668TIP3    H213969   6.718   6.544   2.814
 4669TIP3   OH213970   5.849   4.856   1.257
 4669TIP3    H113971   5.754   4.869   1.255
 4669TIP3    H213972   5.876   4.863   1.166
 4670TIP3   OH213973   3.396   6.246   0.260
 4670TIP3    H113974   3.355   6.182   0.202
 4670TIP3    H213975   3.466   6.284   0.207
 4671TIP3   OH213976   1.552   0.344   0.065
 4671TIP3    H113977   1.617   0.348  -0.005
 4671TIP3    H213978   1.479   0.397   0.033
 4672TIP3   OH213979   5.849   6.551   3.534
 4672TIP3    H113980   5.815   6.485   3.594
 4672TIP3    H213981   5.930   6.581   3.576
 4673TIP3   OH213982   1.465   0.927   1.156
 4673TIP3    H113983   1.399   0.895   1.218
 4673TIP3    H213984   1.535   0.861   1.161
 4674TIP3   OH213985   5.068   5.960   2.883
 4674TIP3    H113986   5.151   5.945   2.929
 4674TIP3    H213987   5.011   6.000   2.949
 4675TIP3   OH213988   2.966   2.690   4.060
 4675TIP3    H113989   2.936   2.780   4.046
 4675TIP3    H213990   2.908   2.637   4.006
 4676TIP3   OH213991   4.870   3.051   3.423
 4676TIP3    H113992   4.826   3.135   3.409
 4676TIP3    H213993   4.961   3.074   3.444
 4677TIP3   OH213994   4.614   3.566   2.608
 4677TIP3    H113995   4.572   3.488   2.644
 4677TIP3    H213996   4.636   3.619   2.684
 4678TIP3   OH213997   6.374   6.279   4.841
 4678TIP3    H113998   6.305   6.346   4.841
 4678TIP3    H213999   6.410   6.282   4.752
 4679TIP3   OH214000   1.428   2.595   4.125
 4679TIP3    H114001   1.393   2.669   4.074
 4679TIP3    H214002   1.442   2.632   4.212
 4680TIP3   OH214003   2.263   3.895   0.687
 4680TIP3    H114004   2.330   3.951   0.725
 4680TIP3    H214005   2.185   3.911   0.741
 4681TIP3   OH214006   2.563   2.184   0.591
 4681TIP3    H114007   2.509   2.256   0.624
 4681TIP3    H214008   2.610   2.222   0.517
 4682TIP3   OH214009   3.344   5.757   1.548
 4682TIP3    H114010   3.256   5.794   1.552
 4682TIP3    H214011   3.354   5.710   1.631
 4683TIP3   OH214012   4.847   5.272   3.379
 4683TIP3    H114013   4.904   5.344   3.407
 4683TIP3    H214014   4.907   5.198   3.368
 4684TIP3   OH214015   6.393   2.493   0.365
 4684TIP3    H114016   6.360   2.457   0.282
 4684TIP3    H214017   6.424   2.416   0.413
 4685TIP3   OH214018   1.019   0.147   4.724
 4685TIP3    H114019   1.058   0.064   4.752
 4685TIP3    H214020   1.008   0.197   4.805
 4686TIP3   OH214021   2.876   0.280   4.063
 4686TIP3    H114022   2.940   0.350   4.073
 4686TIP3    H214023   2.835   0.297   3.978
 4687TIP3   OH214024   2.435   3.182   2.428
 4687TIP3    H114025   2.385   3.151   2.353
 4687TIP3    H214026   2.451   3.104   2.481
 4688TIP3   OH214027   6.334   3.649   4.566
 4688TIP3    H114028   6.293   3.728   4.602
 4688TIP3    H214029   6.393   3.682   4.497
 4689TIP3   OH214030   6.305   2.357   4.146
 4689TIP3    H114031   6.308   2.418   4.220
 4689TIP3    H214032   6.380   2.298   4.161
 4690TIP3   OH214033   4.213   5.274   4.287
 4690TIP3    H114034   4.274   5.313   4.224
 4690TIP3    H214035   4.159   5.215   4.234
 4691TIP3   OH214036   6.951   3.937   0.732
 4691TIP3    H114037   6.882   3.881   0.768
 4691TIP3    H214038   7.029   3.912   0.781
 4692TIP3   OH214039   3.419   3.872   5.346
 4692TIP3    H114040   3.417   3.958   5.389
 4692TIP3    H214041   3.351   3.877   5.278
 4693TIP3   OH214042   3.227   4.296   3.757
 4693TIP3    H114043   3.202   4.302   3.665
 4693TIP3    H214044   3.144   4.285   3.804
 4694TIP3   OH214045   1.396   4.408   1.532
 4694TIP3    H114046   1.434   4.359   1.606
 4694TIP3    H214047   1.430   4.363   1.454
 4695TIP3   OH214048   4.488   6.191   3.701
 4695TIP3    H114049   4.436   6.160   3.627
 4695TIP3    H214050   4.547   6.255   3.663
 4696TIP3   OH214051   3.739   1.160   2.514
 4696TIP3    H114052   3.820   1.204   2.539
 4696TIP3    H214053   3.670   1.215   2.553
 4697TIP3   OH214054   6.684   2.796   1.913
 4697TIP3    H114055   6.685   2.767   1.822
 4697TIP3    H214056   6.769   2.771   1.948
 4698TIP3   OH214057   2.524   1.682   1.017
 4698TIP3    H114058   2.509   1.763   0.968
 4698TIP3    H214059   2.565   1.711   1.099
 4699TIP3   OH214060   4.370   1.583   3.061
 4699TIP3    H114061   4.277   1.562   3.068
 4699TIP3    H214062   4.413   1.519   3.118
 4700TIP3   OH214063   4.136   3.431   3.737
 4700TIP3    H114064   4.161   3.473   3.819
 4700TIP3    H214065   4.044   3.408   3.749
 4701TIP3   OH214066   1.776   6.040   1.969
 4701TIP3    H114067   1.854   6.007   2.013
 4701TIP3    H214068   1.788   6.135   1.968
 4702TIP3   OH214069   1.229   5.330   0.910
 4702TIP3    H114070   1.158   5.330   0.846
 4702TIP3    H214071   1.191   5.370   0.988
 4703TIP3   OH214072   5.008   1.851   4.665
 4703TIP3    H114073   5.000   1.756   4.663
 4703TIP3    H214074   5.005   1.877   4.573
 4704TIP3   OH214075   1.634   2.839   1.752
 4704TIP3    H114076   1.692   2.896   1.802
 4704TIP3    H214077   1.617   2.765   1.810
 4705TIP3   OH214078   4.495   0.761   1.211
 4705TIP3    H114079   4.531   0.837   1.255
 4705TIP3    H214080   4.476   0.791   1.122
 4706TIP3   OH214081   4.830   4.692   5.458
 4706TIP3    H114082   4.914   4.655   5.429
 4706TIP3    H214083   4.816   4.766   5.399
 4707TIP3   OH214084   3.626   1.073   1.338
 4707TIP3    H114085   3.610   0.996   1.392
 4707TIP3    H214086   3.679   1.130   1.393
 4708TIP3   OH214087   0.391   0.674   4.650
 4708TIP3    H114088   0.471   0.710   4.611
 4708TIP3    H214089   0.377   0.591   4.604
 4709TIP3   OH214090   1.676   5.254   4.131
 4709TIP3    H114091   1.740   5.245   4.202
 4709TIP3    H214092   1.675   5.168   4.089
 4710TIP3   OH214093   0.815   4.798   5.471
 4710TIP3    H114094   0.856   4.852   5.403
 4710TIP3    H214095   0.731   4.771   5.432
 4711TIP3   OH214096   0.307   3.551   5.464
 4711TIP3    H114097   0.358   3.470   5.464
 4711TIP3    H214098   0.217   3.522   5.482
 4712TIP3   OH214099   5.310   0.831   3.586
 4712TIP3    H114100   5.311   0.915   3.631
 4712TIP3    H214101   5.219   0.802   3.591
 4713TIP3   OH214102   1.156   6.333   0.687
 4713TIP3    H114103   1.149   6.239   0.703
 4713TIP3    H214104   1.065   6.364   0.686
 4714TIP3   OH214105   3.787   4.809   1.975
 4714TIP3    H114106   3.708   4.847   2.014
 4714TIP3    H214107   3.854   4.820   2.041
 4715TIP3   OH214108   7.231   5.259   1.687
 4715TIP3    H114109   7.212   5.170   1.658
 4715TIP3    H214110   7.253   5.250   1.780
 4716TIP3   OH214111   1.624   4.904   0.098
 4716TIP3    H114112   1.705   4.952   0.111
 4716TIP3    H214113   1.620   4.889   0.004
 4717TIP3   OH214114   3.135   5.230   2.964
 4717TIP3    H114115   3.063   5.184   2.921
 4717TIP3    H214116   3.093   5.301   3.013
 4718TIP3   OH214117   3.088   1.228   0.440
 4718TIP3    H114118   3.163   1.284   0.420
 4718TIP3    H214119   3.120   1.168   0.508
 4719TIP3   OH214120   1.200   2.790   5.424
 4719TIP3    H114121   1.164   2.707   5.455
 4719TIP3    H214122   1.153   2.807   5.342
 4720TIP3   OH214123   4.099   2.426   3.901
 4720TIP3    H114124   4.069   2.467   3.982
 4720TIP3    H214125   4.165   2.363   3.929
 4721TIP3   OH214126   0.346   6.727   5.028
 4721TIP3    H114127   0.359   6.660   4.960
 4721TIP3    H214128   0.340   6.809   4.980
 4722TIP3   OH214129   2.877   3.937   5.287
 4722TIP3    H114130   2.924   3.939   5.203
 4722TIP3    H214131   2.789   3.908   5.264
 4723TIP3   OH214132   1.595   5.107   3.265
 4723TIP3    H114133   1.541   5.173   3.221
 4723TIP3    H214134   1.534   5.035   3.282
 4724TIP3   OH214135   5.659   4.720   3.558
 4724TIP3    H114136   5.708   4.656   3.506
 4724TIP3    H214137   5.724   4.758   3.617
 4725TIP3   OH214138   3.425   1.369   5.120
 4725TIP3    H114139   3.423   1.278   5.089
 4725TIP3    H214140   3.491   1.411   5.067
 4726TIP3   OH214141   3.041   6.007   0.973
 4726TIP3    H114142   3.058   6.076   1.038
 4726TIP3    H214143   3.061   6.047   0.889
 4727TIP3   OH214144   5.279   5.970   3.037
 4727TIP3    H114145   5.361   5.934   3.071
 4727TIP3    H214146   5.291   6.065   3.040
 4728TIP3   OH214147   0.721   5.895   3.923
 4728TIP3    H114148   0.721   5.991   3.927
 4728TIP3    H214149   0.707   5.876   3.830
 4729TIP3   OH214150   1.769   1.712   4.785
 4729TIP3    H114151   1.790   1.639   4.844
 4729TIP3    H214152   1.825   1.698   4.709
 4730TIP3   OH214153   6.035   0.646   5.802
 4730TIP3    H114154   5.972   0.600   5.747
 4730TIP3    H214155   5.985   0.716   5.844
 4731TIP3   OH214156   1.531   4.176   4.029
 4731TIP3    H114157   1.596   4.132   3.975
 4731TIP3    H214158   1.452   4.179   3.975
 4732TIP3   OH214159   0.446   1.732   5.549
 4732TIP3    H114160   0.468   1.701   5.637
 4732TIP3    H214161   0.490   1.671   5.490
 4733TIP3   OH214162   2.854   4.481   1.504
 4733TIP3    H114163   2.819   4.553   1.557
 4733TIP3    H214164   2.810   4.488   1.420
 4734TIP3   OH214165   2.095   6.343   2.401
 4734TIP3    H114166   2.140   6.417   2.441
 4734TIP3    H214167   2.133   6.265   2.442
 4735TIP3   OH214168   4.905   1.018   0.149
 4735TIP3    H114169   4.873   1.066   0.225
 4735TIP3    H214170   4.948   1.084   0.094
 4736TIP3   OH214171   1.135   1.144   4.389
 4736TIP3    H114172   1.091   1.181   4.313
 4736TIP3    H214173   1.108   1.052   4.390
 4737TIP3   OH214174   2.140   0.202   0.071
 4737TIP3    H114175   2.113   0.180   0.160
 4737TIP3    H214176   2.229   0.169   0.063
 4738TIP3   OH214177   3.944   5.745   1.520
 4738TIP3    H114178   3.948   5.715   1.429
 4738TIP3    H214179   3.972   5.670   1.572
 4739TIP3   OH214180   6.275   2.761   0.400
 4739TIP3    H114181   6.298   2.668   0.403
 4739TIP3    H214182   6.313   2.793   0.318
 4740TIP3   OH214183   0.706   2.981   2.414
 4740TIP3    H114184   0.700   2.888   2.392
 4740TIP3    H214185   0.793   3.007   2.385
 4741TIP3   OH214186   6.615   4.233   2.258
 4741TIP3    H114187   6.589   4.219   2.349
 4741TIP3    H214188   6.644   4.324   2.256
 4742TIP3   OH214189   3.445   4.393   2.068
 4742TIP3    H114190   3.521   4.425   2.018
 4742TIP3    H214191   3.482   4.354   2.146
 4743TIP3   OH214192   3.540   3.496   2.483
 4743TIP3    H114193   3.462   3.541   2.517
 4743TIP3    H214194   3.507   3.411   2.454
 4744TIP3   OH214195   6.620   1.693   3.551
 4744TIP3    H114196   6.632   1.624   3.615
 4744TIP3    H214197   6.528   1.685   3.523
 4745TIP3   OH214198   0.895   3.880   1.789
 4745TIP3    H114199   0.990   3.886   1.792
 4745TIP3    H214200   0.877   3.822   1.714
 4746TIP3   OH214201   0.105   5.593   4.157
 4746TIP3    H114202   0.138   5.652   4.226
 4746TIP3    H214203   0.014   5.577   4.181
 4747TIP3   OH214204   6.867   1.297   0.381
 4747TIP3    H114205   6.910   1.367   0.332
 4747TIP3    H214206   6.918   1.289   0.462
 4748TIP3   OH214207   2.349   1.035   1.387
 4748TIP3    H114208   2.261   1.072   1.388
 4748TIP3    H214209   2.404   1.104   1.426
 4749TIP3   OH214210   1.135   4.771   1.603
 4749TIP3    H114211   1.121   4.687   1.648
 4749TIP3    H214212   1.074   4.831   1.646
 4750TIP3   OH214213   5.122   6.282   3.029
 4750TIP3    H114214   5.141   6.374   3.011
 4750TIP3    H214215   5.167   6.264   3.111
 4751TIP3   OH214216   1.973   2.989   5.097
 4751TIP3    H114217   2.020   3.044   5.034
 4751TIP3    H214218   2.039   2.929   5.131
 4752TIP3   OH214219   4.316   4.999   3.801
 4752TIP3    H114220   4.253   5.037   3.863
 4752TIP3    H214221   4.319   5.062   3.729
 4753TIP3   OH214222   5.210   1.582  -0.019
 4753TIP3    H114223   5.266   1.505  -0.023
 4753TIP3    H214224   5.254   1.641   0.042
 4754TIP3   OH214225   7.004   1.592   4.802
 4754TIP3    H114226   6.917   1.623   4.829
 4754TIP3    H214227   7.054   1.589   4.883
 4755TIP3   OH214228   0.350   2.393   5.525
 4755TIP3    H114229   0.404   2.469   5.505
 4755TIP3    H214230   0.359   2.337   5.448
 4756TIP3   OH214231   0.769   3.445   1.991
 4756TIP3    H114232   0.799   3.419   2.078
 4756TIP3    H214233   0.824   3.520   1.968
 4757TIP3   OH214234   6.027   3.184   2.894
 4757TIP3    H114235   5.964   3.161   2.963
 4757TIP3    H214236   5.973   3.202   2.817
 4758TIP3   OH214237   1.145   3.431   4.069
 4758TIP3    H114238   1.177   3.403   3.983
 4758TIP3    H214239   1.188   3.371   4.130
 4759TIP3   OH214240   4.050   1.467   0.171
 4759TIP3    H114241   4.055   1.520   0.251
 4759TIP3    H214242   4.091   1.521   0.104
 4760TIP3   OH214243   3.401   2.714   1.233
 4760TIP3    H114244   3.343   2.662   1.289
 4760TIP3    H214245   3.472   2.742   1.290
 4761TIP3   OH214246   3.070   5.043   2.296
 4761TIP3    H114247   3.156   5.085   2.302
 4761TIP3    H214248   3.007   5.115   2.309
 4762TIP3   OH214249   6.408   2.016   4.860
 4762TIP3    H114250   6.429   2.010   4.766
 4762TIP3    H214251   6.474   2.076   4.895
 4763TIP3   OH214252   2.528   5.484   1.884
 4763TIP3    H114253   2.535   5.469   1.789
 4763TIP3    H214254   2.511   5.577   1.893
 4764TIP3   OH214255   5.362   3.982   5.622
 4764TIP3    H114256   5.406   3.900   5.604
 4764TIP3    H214257   5.276   3.956   5.656
 4765TIP3   OH214258   5.522   5.425   0.369
 4765TIP3    H114259   5.475   5.507   0.388
 4765TIP3    H214260   5.608   5.454   0.340
 4766TIP3   OH214261   4.451   4.483   3.013
 4766TIP3    H114262   4.404   4.564   3.029
 4766TIP3    H214263   4.387   4.425   2.972
 4767TIP3   OH214264   3.557   4.645   5.121
 4767TIP3    H114265   3.618   4.719   5.122
 4767TIP3    H214266   3.547   4.621   5.213
 4768TIP3   OH214267   3.315   3.359   4.690
 4768TIP3    H114268   3.395   3.329   4.733
 4768TIP3    H214269   3.247   3.347   4.757
 4769TIP3   OH214270   4.436   3.833   1.115
 4769TIP3    H114271   4.368   3.895   1.090
 4769TIP3    H214272   4.438   3.770   1.043
 4770TIP3   OH214273   3.968   0.317   0.759
 4770TIP3    H114274   3.937   0.323   0.850
 4770TIP3    H214275   3.967   0.408   0.728
 4771TIP3   OH214276   3.620   2.392   4.600
 4771TIP3    H114277   3.594   2.382   4.509
 4771TIP3    H214278   3.662   2.309   4.622
 4772TIP3   OH214279   0.101   2.215   3.769
 4772TIP3    H114280   0.034   2.147   3.783
 4772TIP3    H214281   0.173   2.169   3.726
 4773TIP3   OH214282   2.559   2.351   1.944
 4773TIP3    H114283   2.593   2.338   2.033
 4773TIP3    H214284   2.509   2.271   1.926
 4774TIP3   OH214285   2.359   1.102   5.717
 4774TIP3    H114286   2.425   1.168   5.696
 4774TIP3    H214287   2.403   1.019   5.699
 4775TIP3   OH214288   5.796   5.438   4.947
 4775TIP3    H114289   5.801   5.513   4.887
 4775TIP3    H214290   5.855   5.462   5.018
 4776TIP3   OH214291   4.244   5.230   3.880
 4776TIP3    H114292   4.307   5.261   3.945
 4776TIP3    H214293   4.178   5.300   3.875
 4777TIP3   OH214294   4.205   6.014   4.733
 4777TIP3    H114295   4.169   5.935   4.773
 4777TIP3    H214296   4.237   5.985   4.647
 4778TIP3   OH214297   1.634   4.373   4.917
 4778TIP3    H114298   1.590   4.441   4.866
 4778TIP3    H214299   1.607   4.291   4.875
 4779TIP3   OH214300   5.338   5.048   2.408
 4779TIP3    H114301   5.271   5.014   2.468
 4779TIP3    H214302   5.363   5.132   2.447
 4780TIP3   OH214303   0.136   3.089   3.029
 4780TIP3    H114304   0.176   3.109   3.113
 4780TIP3    H214305   0.044   3.074   3.048
 4781TIP3   OH214306   3.499   0.299   5.559
 4781TIP3    H114307   3.497   0.208   5.591
 4781TIP3    H214308   3.529   0.349   5.634
 4782TIP3   OH214309   2.456   2.420   0.693
 4782TIP3    H114310   2.427   2.434   0.783
 4782TIP3    H214311   2.550   2.437   0.695
 4783TIP3   OH214312   0.112   3.974   5.395
 4783TIP3    H114313   0.179   3.908   5.379
 4783TIP3    H214314   0.159   4.057   5.393
 4784TIP3   OH214315   5.994   2.098   0.898
 4784TIP3    H114316   5.955   2.010   0.895
 4784TIP3    H214317   6.029   2.111   0.810
 4785TIP3   OH214318   3.326   5.327   4.837
 4785TIP3    H114319   3.322   5.233   4.820
 4785TIP3    H214320   3.282   5.338   4.921
 4786TIP3   OH214321   6.579   2.814   4.964
 4786TIP3    H114322   6.587   2.750   5.035
 4786TIP3    H214323   6.497   2.860   4.983
 4787TIP3   OH214324   4.790   4.151   3.994
 4787TIP3    H114325   4.735   4.185   4.064
 4787TIP3    H214326   4.746   4.178   3.914
 4788TIP3   OH214327   6.332   2.338   0.130
 4788TIP3    H114328   6.279   2.262   0.151
 4788TIP3    H214329   6.363   2.322   0.041
 4789TIP3   OH214330   5.005   2.835   0.241
 4789TIP3    H114331   5.048   2.902   0.294
 4789TIP3    H214332   5.001   2.759   0.298
 4790TIP3   OH214333   3.738   2.969   2.855
 4790TIP3    H114334   3.652   3.000   2.883
 4790TIP3    H214335   3.775   3.044   2.808
 4791TIP3   OH214336   7.215   0.964   5.407
 4791TIP3    H114337   7.177   1.032   5.464
 4791TIP3    H214338   7.196   0.995   5.318
 4792TIP3   OH214339   3.172   6.245   0.003
 4792TIP3    H114340   3.199   6.172   0.059
 4792TIP3    H214341   3.250   6.266  -0.048
 4793TIP3   OH214342   3.522   6.630   4.962
 4793TIP3    H114343   3.560   6.558   4.912
 4793TIP3    H214344   3.432   6.636   4.932
 4794TIP3   OH214345   6.251   4.788   5.803
 4794TIP3    H114346   6.312   4.789   5.876
 4794TIP3    H214347   6.283   4.855   5.742
 4795TIP3   OH214348   5.756   5.038   4.001
 4795TIP3    H114349   5.708   5.098   4.058
 4795TIP3    H214350   5.836   5.018   4.048
 4796TIP3   OH214351   6.654   3.300   1.489
 4796TIP3    H114352   6.576   3.255   1.521
 4796TIP3    H214353   6.727   3.259   1.535
 4797TIP3   OH214354   4.586   6.542   0.775
 4797TIP3    H114355   4.646   6.563   0.847
 4797TIP3    H214356   4.615   6.456   0.745
 4798TIP3   OH214357   0.657   0.039   0.540
 4798TIP3    H114358   0.748   0.013   0.546
 4798TIP3    H214359   0.652   0.123   0.586
 4799TIP3   OH214360   2.000   2.621   2.227
 4799TIP3    H114361   2.063   2.575   2.172
 4799TIP3    H214362   1.985   2.561   2.301
 4800TIP3   OH214363   4.421   0.727   0.527
 4800TIP3    H114364   4.355   0.677   0.479
 4800TIP3    H214365   4.374   0.806   0.556
 4801TIP3   OH214366   5.011   2.515   2.843
 4801TIP3    H114367   4.965   2.595   2.818
 4801TIP3    H214368   4.945   2.460   2.885
 4802TIP3   OH214369   2.677   5.685   2.160
 4802TIP3    H114370   2.622   5.719   2.089
 4802TIP3    H214371   2.625   5.699   2.239
 4803TIP3   OH214372   3.390   5.486   2.696
 4803TIP3    H114373   3.350   5.530   2.772
 4803TIP3    H214374   3.483   5.509   2.702
 4804TIP3   OH214375   3.081   2.458   3.630
 4804TIP3    H114376   3.035   2.376   3.648
 4804TIP3    H214377   3.104   2.492   3.716
 4805TIP3   OH214378   4.675   3.928   1.192
 4805TIP3    H114379   4.681   4.007   1.138
 4805TIP3    H214380   4.583   3.902   1.186
 4806TIP3   OH214381   0.453   6.770   1.764
 4806TIP3    H114382   0.492   6.764   1.677
 4806TIP3    H214383   0.479   6.689   1.808
 4807TIP3   OH214384   2.489   3.398   3.881
 4807TIP3    H114385   2.458   3.336   3.814
 4807TIP3    H214386   2.532   3.343   3.946
 4808TIP3   OH214387   6.625   4.062   1.804
 4808TIP3    H114388   6.707   4.057   1.853
 4808TIP3    H214389   6.583   3.977   1.819
 4809TIP3   OH214390   2.192   0.241   0.537
 4809TIP3    H114391   2.155   0.186   0.607
 4809TIP3    H214392   2.268   0.192   0.506
 4810TIP3   OH214393   6.217   6.305   0.158
 4810TIP3    H114394   6.140   6.312   0.214
 4810TIP3    H214395   6.289   6.339   0.211
 4811TIP3   OH214396   6.062   1.628   1.260
 4811TIP3    H114397   6.113   1.547   1.256
 4811TIP3    H214398   6.021   1.627   1.346
 4812TIP3   OH214399   0.155   4.943   4.420
 4812TIP3    H114400   0.192   4.870   4.370
 4812TIP3    H214401   0.221   5.012   4.414
 4813TIP3   OH214402   6.286   2.883   2.261
 4813TIP3    H114403   6.330   2.968   2.272
 4813TIP3    H214404   6.214   2.885   2.324
 4814TIP3   OH214405   0.916   5.681   3.957
 4814TIP3    H114406   0.872   5.754   3.913
 4814TIP3    H214407   1.009   5.701   3.950
 4815TIP3   OH214408   4.174   2.815   0.796
 4815TIP3    H114409   4.146   2.859   0.876
 4815TIP3    H214410   4.094   2.809   0.742
 4816TIP3   OH214411   4.108   1.117   5.372
 4816TIP3    H114412   4.046   1.144   5.440
 4816TIP3    H214413   4.119   1.023   5.385
 4817TIP3   OH214414   6.689   0.510   5.321
 4817TIP3    H114415   6.771   0.497   5.274
 4817TIP3    H214416   6.677   0.605   5.324
 4818TIP3   OH214417   6.232   6.054   3.334
 4818TIP3    H114418   6.278   6.115   3.277
 4818TIP3    H214419   6.139   6.069   3.315
 4819TIP3   OH214420   0.633   1.880   5.779
 4819TIP3    H114421   0.682   1.798   5.769
 4819TIP3    H214422   0.683   1.944   5.727
 4820TIP3   OH214423   3.365   1.486   1.647
 4820TIP3    H114424   3.418   1.433   1.589
 4820TIP3    H214425   3.314   1.423   1.698
 4821TIP3   OH214426   2.567   2.666   4.853
 4821TIP3    H114427   2.619   2.644   4.775
 4821TIP3    H214428   2.551   2.760   4.845
 4822TIP3   OH214429   6.089   3.508   2.521
 4822TIP3    H114430   6.099   3.538   2.431
 4822TIP3    H214431   6.020   3.442   2.517
 4823TIP3   OH214432   4.915   4.283   2.956
 4823TIP3    H114433   4.822   4.304   2.954
 4823TIP3    H214434   4.955   4.352   3.009
 4824TIP3   OH214435   0.160   5.319   4.783
 4824TIP3    H114436   0.139   5.351   4.695
 4824TIP3    H214437   0.212   5.389   4.823
 4825TIP3   OH214438   7.134   3.446   2.879
 4825TIP3    H114439   7.136   3.441   2.974
 4825TIP3    H214440   7.044   3.423   2.855
 4826TIP3   OH214441   0.554   4.116   5.123
 4826TIP3    H114442   0.648   4.100   5.132
 4826TIP3    H214443   0.546   4.212   5.125
 4827TIP3   OH214444   5.053   6.141   0.151
 4827TIP3    H114445   4.977   6.174   0.104
 4827TIP3    H214446   5.105   6.096   0.084
 4828TIP3   OH214447   1.049   6.384   4.461
 4828TIP3    H114448   0.955   6.389   4.446
 4828TIP3    H214449   1.086   6.360   4.377
 4829TIP3   OH214450   3.200   5.384   4.265
 4829TIP3    H114451   3.205   5.479   4.271
 4829TIP3    H214452   3.231   5.352   4.350
 4830TIP3   OH214453   5.563   0.794   2.407
 4830TIP3    H114454   5.516   0.843   2.339
 4830TIP3    H214455   5.523   0.822   2.489
 4831TIP3   OH214456   1.982   3.042   5.529
 4831TIP3    H114457   1.931   3.069   5.453
 4831TIP3    H214458   1.955   3.101   5.598
 4832TIP3   OH214459   7.009   1.344   0.619
 4832TIP3    H114460   7.073   1.416   0.620
 4832TIP3    H214461   7.059   1.267   0.645
 4833TIP3   OH214462   4.974   0.372   3.201
 4833TIP3    H114463   5.061   0.364   3.162
 4833TIP3    H214464   4.916   0.328   3.139
 4834TIP3   OH214465   5.084   6.240   0.961
 4834TIP3    H114466   5.171   6.264   0.991
 4834TIP3    H214467   5.047   6.188   1.032
 4835TIP3   OH214468   3.302   4.854   1.794
 4835TIP3    H114469   3.337   4.765   1.795
 4835TIP3    H214470   3.379   4.909   1.783
 4836TIP3   OH214471   5.909   0.952   0.323
 4836TIP3    H114472   5.974   0.892   0.287
 4836TIP3    H214473   5.959   1.028   0.353
 4837TIP3   OH214474   4.457   3.441   1.565
 4837TIP3    H114475   4.437   3.518   1.511
 4837TIP3    H214476   4.448   3.473   1.655
 4838TIP3   OH214477   2.597   3.566   5.806
 4838TIP3    H114478   2.543   3.491   5.834
 4838TIP3    H214479   2.671   3.566   5.866
 4839TIP3   OH214480   3.511   1.382   3.390
 4839TIP3    H114481   3.442   1.440   3.357
 4839TIP3    H214482   3.523   1.317   3.320
 4840TIP3   OH214483   6.627   6.454   3.459
 4840TIP3    H114484   6.691   6.400   3.505
 4840TIP3    H214485   6.661   6.544   3.467
 4841TIP3   OH214486   3.194   3.496   0.925
 4841TIP3    H114487   3.244   3.503   0.844
 4841TIP3    H214488   3.176   3.587   0.951
 4842TIP3   OH214489   4.125   4.435   2.624
 4842TIP3    H114490   4.202   4.473   2.666
 4842TIP3    H214491   4.155   4.410   2.536
 4843TIP3   OH214492   3.080   5.365   0.816
 4843TIP3    H114493   3.012   5.405   0.762
 4843TIP3    H214494   3.095   5.280   0.776
 4844TIP3   OH214495   1.614   1.734   1.193
 4844TIP3    H114496   1.616   1.719   1.288
 4844TIP3    H214497   1.524   1.760   1.175
 4845TIP3   OH214498   1.430   5.831   1.527
 4845TIP3    H114499   1.410   5.864   1.615
 4845TIP3    H214500   1.395   5.898   1.468
 4846TIP3   OH214501   5.440   1.836   4.439
 4846TIP3    H114502   5.417   1.842   4.532
 4846TIP3    H214503   5.386   1.902   4.396
 4847TIP3   OH214504   4.354   0.814   5.040
 4847TIP3    H114505   4.380   0.721   5.039
 4847TIP3    H214506   4.431   0.860   5.074
 4848TIP3   OH214507   3.090   5.160   1.342
 4848TIP3    H114508   3.155   5.222   1.307
 4848TIP3    H214509   3.140   5.106   1.403
 4849TIP3   OH214510   3.100   6.783   1.804
 4849TIP3    H114511   3.036   6.734   1.856
 4849TIP3    H214512   3.062   6.786   1.716
 4850TIP3   OH214513   0.312   4.965   0.467
 4850TIP3    H114514   0.380   4.898   0.462
 4850TIP3    H214515   0.315   5.009   0.382
 4851TIP3   OH214516   2.274   3.157   1.017
 4851TIP3    H114517   2.218   3.216   1.068
 4851TIP3    H214518   2.320   3.105   1.083
 4852TIP3   OH214519   2.891   1.930   3.891
 4852TIP3    H114520   2.938   2.007   3.859
 4852TIP3    H214521   2.946   1.897   3.962
 4853TIP3   OH214522   4.075   4.796   4.961
 4853TIP3    H114523   4.079   4.719   4.904
 4853TIP3    H214524   4.110   4.867   4.909
 4854TIP3   OH214525   4.265   0.579   5.423
 4854TIP3    H114526   4.196   0.605   5.361
 4854TIP3    H214527   4.277   0.486   5.406
 4855TIP3   OH214528   0.800   0.418   0.931
 4855TIP3    H114529   0.762   0.361   0.864
 4855TIP3    H214530   0.734   0.422   1.000
 4856TIP3   OH214531   7.038   6.190   4.684
 4856TIP3    H114532   6.982   6.244   4.629
 4856TIP3    H214533   6.979   6.128   4.725
 4857TIP3   OH214534   3.930   1.901   1.701
 4857TIP3    H114535   3.846   1.902   1.654
 4857TIP3    H214536   3.996   1.908   1.633
 4858TIP3   OH214537   4.662   0.989   4.718
 4858TIP3    H114538   4.723   1.049   4.762
 4858TIP3    H214539   4.631   0.931   4.787
 4859TIP3   OH214540   5.737   5.328   1.487
 4859TIP3    H114541   5.696   5.251   1.449
 4859TIP3    H214542   5.670   5.365   1.545
 4860TIP3   OH214543   0.861   4.895   4.860
 4860TIP3    H114544   0.802   4.910   4.786
 4860TIP3    H214545   0.905   4.979   4.873
 4861TIP3   OH214546   0.865   4.922   4.197
 4861TIP3    H114547   0.884   4.839   4.151
 4861TIP3    H214548   0.941   4.977   4.178
 4862TIP3   OH214549   0.812   5.959   1.778
 4862TIP3    H114550   0.768   5.966   1.863
 4862TIP3    H214551   0.875   5.887   1.789
 4863TIP3   OH214552   5.145   4.117   1.888
 4863TIP3    H114553   5.097   4.037   1.912
 4863TIP3    H214554   5.077   4.183   1.880
 4864TIP3   OH214555   7.090   2.472   1.238
 4864TIP3    H114556   7.040   2.404   1.191
 4864TIP3    H214557   7.130   2.524   1.169
 4865TIP3   OH214558   5.647   4.238   1.669
 4865TIP3    H114559   5.592   4.260   1.744
 4865TIP3    H214560   5.682   4.151   1.690
 4866TIP3   OH214561   2.897   6.087   3.706
 4866TIP3    H114562   2.838   6.151   3.664
 4866TIP3    H214563   2.984   6.113   3.678
 4867TIP3   OH214564   0.736   3.651   1.619
 4867TIP3    H114565   0.693   3.573   1.653
 4867TIP3    H214566   0.668   3.719   1.620
 4868TIP3   OH214567   7.119   6.271   0.232
 4868TIP3    H114568   7.154   6.320   0.307
 4868TIP3    H214569   7.110   6.336   0.163
 4869TIP3   OH214570   0.657   5.869   3.659
 4869TIP3    H114571   0.598   5.830   3.594
 4869TIP3    H214572   0.737   5.887   3.611
 4870TIP3   OH214573   3.021   0.931   4.516
 4870TIP3    H114574   2.993   0.897   4.601
 4870TIP3    H214575   3.112   0.904   4.507
 4871TIP3   OH214576   2.250   5.197   1.101
 4871TIP3    H114577   2.203   5.226   1.023
 4871TIP3    H214578   2.339   5.230   1.090
 4872TIP3   OH214579   4.185   3.231   3.522
 4872TIP3    H114580   4.156   3.314   3.559
 4872TIP3    H214581   4.197   3.174   3.599
 4873TIP3   OH214582   0.226   0.290   4.289
 4873TIP3    H114583   0.225   0.244   4.206
 4873TIP3    H214584   0.200   0.224   4.354
 4874TIP3   OH214585   0.833   5.726   0.628
 4874TIP3    H114586   0.889   5.801   0.646
 4874TIP3    H214587   0.874   5.681   0.554
 4875TIP3   OH214588   4.721   2.678   3.592
 4875TIP3    H114589   4.744   2.597   3.638
 4875TIP3    H214590   4.627   2.690   3.610
 4876TIP3   OH214591   1.706   0.792   1.867
 4876TIP3    H114592   1.640   0.811   1.934
 4876TIP3    H214593   1.707   0.870   1.812
 4877TIP3   OH214594   2.719   4.914   4.162
 4877TIP3    H114595   2.733   4.999   4.203
 4877TIP3    H214596   2.807   4.882   4.142
 4878TIP3   OH214597   1.617   0.662   3.337
 4878TIP3    H114598   1.682   0.724   3.303
 4878TIP3    H214599   1.537   0.715   3.346
 4879TIP3   OH214600   6.657   6.193   0.544
 4879TIP3    H114601   6.723   6.228   0.483
 4879TIP3    H214602   6.695   6.208   0.631
 4880TIP3   OH214603   2.686   6.522   0.976
 4880TIP3    H114604   2.775   6.534   0.944
 4880TIP3    H214605   2.649   6.453   0.919
 4881TIP3   OH214606   5.146   6.293   4.085
 4881TIP3    H114607   5.192   6.305   4.001
 4881TIP3    H214608   5.092   6.215   4.071
 4882TIP3   OH214609   0.440   3.324   4.727
 4882TIP3    H114610   0.525   3.299   4.761
 4882TIP3    H214611   0.429   3.272   4.648
 4883TIP3   OH214612   3.514   0.825   2.648
 4883TIP3    H114613   3.475   0.772   2.578
 4883TIP3    H214614   3.450   0.824   2.718
 4884TIP3   OH214615   6.206   6.664   5.388
 4884TIP3    H114616   6.144   6.592   5.402
 4884TIP3    H214617   6.290   6.621   5.373
 4885TIP3   OH214618   5.240   0.170   3.685
 4885TIP3    H114619   5.188   0.142   3.609
 4885TIP3    H214620   5.264   0.089   3.730
 4886TIP3   OH214621   5.963   0.559   3.152
 4886TIP3    H114622   6.041   0.504   3.153
 4886TIP3    H214623   5.995   0.645   3.125
 4887TIP3   OH214624   0.744   0.527   5.004
 4887TIP3    H114625   0.678   0.481   5.055
 4887TIP3    H214626   0.713   0.618   5.000
 4888TIP3   OH214627   4.864   4.883   0.336
 4888TIP3    H114628   4.791   4.904   0.394
 4888TIP3    H214629   4.824   4.841   0.261
 4889TIP3   OH214630   4.962   5.149   2.855
 4889TIP3    H114631   4.875   5.121   2.883
 4889TIP3    H214632   4.990   5.213   2.920
 4890TIP3   OH214633   4.803   1.109   4.938
 4890TIP3    H114634   4.853   1.047   4.992
 4890TIP3    H214635   4.870   1.158   4.890
 4891TIP3   OH214636   2.227   2.110   0.421
 4891TIP3    H114637   2.138   2.132   0.395
 4891TIP3    H214638   2.225   2.015   0.436
 4892TIP3   OH214639   5.248   2.985   0.396
 4892TIP3    H114640   5.218   2.994   0.487
 4892TIP3    H214641   5.342   3.002   0.401
 4893TIP3   OH214642   2.717   3.458   3.161
 4893TIP3    H114643   2.667   3.511   3.099
 4893TIP3    H214644   2.704   3.502   3.246
 4894TIP3   OH214645   4.883   3.383   3.596
 4894TIP3    H114646   4.834   3.351   3.521
 4894TIP3    H214647   4.816   3.422   3.653
 4895TIP3   OH214648   0.799   6.117   2.739
 4895TIP3    H114649   0.783   6.041   2.796
 4895TIP3    H214650   0.829   6.079   2.657
 4896TIP3   OH214651   6.537   5.153   1.960
 4896TIP3    H114652   6.495   5.107   1.888
 4896TIP3    H214653   6.631   5.136   1.947
 4897TIP3   OH214654   3.650   4.454   0.272
 4897TIP3    H114655   3.742   4.428   0.268
 4897TIP3    H214656   3.646   4.520   0.341
 4898TIP3   OH214657   5.650   1.907   1.063
 4898TIP3    H114658   5.648   2.003   1.069
 4898TIP3    H214659   5.599   1.887   0.984
 4899TIP3   OH214660   2.641   2.360   3.096
 4899TIP3    H114661   2.707   2.291   3.106
 4899TIP3    H214662   2.596   2.363   3.181
 4900TIP3   OH214663   1.920   6.702   0.810
 4900TIP3    H114664   1.886   6.792   0.811
 4900TIP3    H214665   1.841   6.647   0.813
 4901TIP3   OH214666   3.635   1.586   1.847
 4901TIP3    H114667   3.567   1.566   1.911
 4901TIP3    H214668   3.620   1.678   1.823
 4902TIP3   OH214669   3.122   0.437   5.557
 4902TIP3    H114670   3.055   0.383   5.515
 4902TIP3    H214671   3.132   0.399   5.644
 4903TIP3   OH214672   5.912   5.214   2.882
 4903TIP3    H114673   5.981   5.270   2.918
 4903TIP3    H214674   5.867   5.180   2.960
 4904TIP3   OH214675   0.142   1.053   2.822
 4904TIP3    H114676   0.233   1.023   2.821
 4904TIP3    H214677   0.139   1.122   2.756
 4905TIP3   OH214678   3.863   2.346   2.201
 4905TIP3    H114679   3.837   2.294   2.276
 4905TIP3    H214680   3.799   2.324   2.133
 4906TIP3   OH214681   4.284   4.792   0.513
 4906TIP3    H114682   4.213   4.729   0.501
 4906TIP3    H214683   4.253   4.850   0.583
 4907TIP3   OH214684   1.277   4.052   2.261
 4907TIP3    H114685   1.365   4.087   2.278
 4907TIP3    H214686   1.289   3.957   2.260
 4908TIP3   OH214687   5.020   1.116   5.198
 4908TIP3    H114688   5.098   1.060   5.200
 4908TIP3    H214689   5.021   1.160   5.283
 4909TIP3   OH214690   1.226   4.315   2.993
 4909TIP3    H114691   1.287   4.251   2.956
 4909TIP3    H214692   1.269   4.400   2.980
 4910TIP3   OH214693   0.780   4.517   0.512
 4910TIP3    H114694   0.739   4.514   0.598
 4910TIP3    H214695   0.830   4.599   0.511
 4911TIP3   OH214696   0.769   3.517   4.057
 4911TIP3    H114697   0.816   3.595   4.085
 4911TIP3    H214698   0.802   3.448   4.115
 4912TIP3   OH214699   2.435   2.253   4.259
 4912TIP3    H114700   2.524   2.217   4.258
 4912TIP3    H214701   2.391   2.206   4.330
 4913TIP3   OH214702   7.166   1.170   4.136
 4913TIP3    H114703   7.095   1.218   4.177
 4913TIP3    H214704   7.177   1.213   4.050
 4914TIP3   OH214705   3.755   6.223   1.662
 4914TIP3    H114706   3.723   6.186   1.744
 4914TIP3    H214707   3.842   6.183   1.650
 4915TIP3   OH214708   1.025   6.124   1.744
 4915TIP3    H114709   1.104   6.124   1.798
 4915TIP3    H214710   0.964   6.067   1.791
 4916TIP3   OH214711   3.792   0.736   2.563
 4916TIP3    H114712   3.703   0.769   2.548
 4916TIP3    H214713   3.804   0.743   2.658
 4917TIP3   OH214714   4.139   1.124   1.356
 4917TIP3    H114715   4.170   1.212   1.332
 4917TIP3    H214716   4.143   1.074   1.275
 4918TIP3   OH214717   2.076   6.648   0.353
 4918TIP3    H114718   2.113   6.646   0.441
 4918TIP3    H214719   1.983   6.668   0.367
 4919TIP3   OH214720   7.236   3.309   1.678
 4919TIP3    H114721   7.255   3.218   1.654
 4919TIP3    H214722   7.203   3.304   1.768
 4920TIP3   OH214723   0.856   4.236   5.349
 4920TIP3    H114724   0.878   4.240   5.256
 4920TIP3    H214725   0.771   4.279   5.355
 4921TIP3   OH214726   6.388   4.168   2.098
 4921TIP3    H114727   6.465   4.216   2.128
 4921TIP3    H214728   6.396   4.166   2.003
 4922TIP3   OH214729   4.266   1.064   0.923
 4922TIP3    H114730   4.290   1.143   0.972
 4922TIP3    H214731   4.170   1.068   0.917
 4923TIP3   OH214732   6.980   0.403   0.454
 4923TIP3    H114733   7.023   0.476   0.497
 4923TIP3    H214734   6.938   0.354   0.525
 4924TIP3   OH214735   0.224   4.903   0.828
 4924TIP3    H114736   0.184   4.989   0.832
 4924TIP3    H214737   0.155   4.842   0.855
 4925TIP3   OH214738   0.805   3.686   4.816
 4925TIP3    H114739   0.853   3.603   4.806
 4925TIP3    H214740   0.768   3.681   4.904
 4926TIP3   OH214741   4.338   0.395   4.324
 4926TIP3    H114742   4.359   0.303   4.305
 4926TIP3    H214743   4.305   0.393   4.414
 4927TIP3   OH214744   4.807   6.353   1.311
 4927TIP3    H114745   4.875   6.299   1.272
 4927TIP3    H214746   4.736   6.293   1.332
 4928TIP3   OH214747   3.567   6.316   0.058
 4928TIP3    H114748   3.531   6.288  -0.026
 4928TIP3    H214749   3.659   6.336   0.040
 4929TIP3   OH214750   0.907   2.082   1.796
 4929TIP3    H114751   0.908   2.027   1.718
 4929TIP3    H214752   0.888   2.170   1.764
 4930TIP3   OH214753   2.981   3.848   2.142
 4930TIP3    H114754   2.909   3.867   2.082
 4930TIP3    H214755   2.987   3.925   2.198
 4931TIP3   OH214756   5.362   1.170   4.638
 4931TIP3    H114757   5.325   1.255   4.613
 4931TIP3    H214758   5.424   1.191   4.708
 4932TIP3   OH214759   1.445   2.168   4.063
 4932TIP3    H114760   1.462   2.203   4.151
 4932TIP3    H214761   1.450   2.245   4.006
 4933TIP3   OH214762   3.243   4.577   0.149
 4933TIP3    H114763   3.252   4.543   0.239
 4933TIP3    H214764   3.217   4.668   0.160
 4934TIP3   OH214765   3.054   4.365   2.782
 4934TIP3    H114766   3.080   4.319   2.861
 4934TIP3    H214767   2.968   4.403   2.804
 4935TIP3   OH214768   5.451   3.596   4.488
 4935TIP3    H114769   5.498   3.542   4.552
 4935TIP3    H214770   5.365   3.610   4.527
 4936TIP3   OH214771   1.373   5.697   3.817
 4936TIP3    H114772   1.457   5.652   3.808
 4936TIP3    H214773   1.310   5.627   3.835
 4937TIP3   OH214774   3.243   5.715   1.893
 4937TIP3    H114775   3.337   5.706   1.911
 4937TIP3    H214776   3.221   5.639   1.840
 4938TIP3   OH214777   2.524   0.606   3.414
 4938TIP3    H114778   2.547   0.526   3.366
 4938TIP3    H214779   2.540   0.677   3.352
 4939TIP3   OH214780   2.561   1.652   3.738
 4939TIP3    H114781   2.536   1.562   3.756
 4939TIP3    H214782   2.603   1.648   3.651
 4940TIP3   OH214783   3.319   6.540   1.266
 4940TIP3    H114784   3.365   6.468   1.309
 4940TIP3    H214785   3.376   6.616   1.278
 4941TIP3   OH214786   3.020   4.069   5.015
 4941TIP3    H114787   3.073   4.116   4.950
 4941TIP3    H214788   2.931   4.101   5.002
 4942TIP3   OH214789   4.426   6.264   1.216
 4942TIP3    H114790   4.472   6.330   1.164
 4942TIP3    H214791   4.408   6.193   1.154
 4943TIP3   OH214792   6.389   0.085   2.095
 4943TIP3    H114793   6.436   0.102   2.177
 4943TIP3    H214794   6.452   0.041   2.039
 4944TIP3   OH214795   0.441   3.617   0.504
 4944TIP3    H114796   0.509   3.587   0.565
 4944TIP3    H214797   0.414   3.703   0.538
 4945TIP3   OH214798   4.880   2.150   2.616
 4945TIP3    H114799   4.908   2.199   2.693
 4945TIP3    H214800   4.888   2.212   2.543
 4946TIP3   OH214801   6.581   5.222   3.877
 4946TIP3    H114802   6.647   5.291   3.886
 4946TIP3    H214803   6.620   5.145   3.918
 4947TIP3   OH214804   4.616   2.574   5.258
 4947TIP3    H114805   4.637   2.493   5.210
 4947TIP3    H214806   4.561   2.623   5.198
 4948TIP3   OH214807   6.107   4.791   5.127
 4948TIP3    H114808   6.079   4.803   5.037
 4948TIP3    H214809   6.095   4.698   5.144
 4949TIP3   OH214810   4.291   4.160   5.695
 4949TIP3    H114811   4.229   4.087   5.708
 4949TIP3    H214812   4.269   4.194   5.609
 4950TIP3   OH214813   0.214   2.098   3.368
 4950TIP3    H114814   0.221   2.159   3.294
 4950TIP3    H214815   0.126   2.060   3.359
 4951TIP3   OH214816   2.061   1.405   4.493
 4951TIP3    H114817   1.984   1.380   4.441
 4951TIP3    H214818   2.031   1.401   4.583
 4952TIP3   OH214819   2.809   5.195   5.521
 4952TIP3    H114820   2.719   5.162   5.527
 4952TIP3    H214821   2.859   5.122   5.485
 4953TIP3   OH214822   7.044   1.965   1.620
 4953TIP3    H114823   7.030   1.974   1.526
 4953TIP3    H214824   7.121   1.909   1.629
 4954TIP3   OH214825   1.828   6.699   0.426
 4954TIP3    H114826   1.790   6.630   0.372
 4954TIP3    H214827   1.786   6.689   0.511
 4955TIP3   OH214828   5.283   1.747   1.052
 4955TIP3    H114829   5.313   1.747   1.143
 4955TIP3    H214830   5.349   1.798   1.005
 4956TIP3   OH214831   4.782   4.934   0.627
 4956TIP3    H114832   4.870   4.964   0.603
 4956TIP3    H214833   4.734   5.014   0.647
 4957TIP3   OH214834   2.408   1.771   1.275
 4957TIP3    H114835   2.457   1.702   1.320
 4957TIP3    H214836   2.333   1.726   1.236
 4958TIP3   OH214837   2.792   2.850   5.072
 4958TIP3    H114838   2.823   2.918   5.132
 4958TIP3    H214839   2.737   2.897   5.009
 4959TIP3   OH214840   3.022   5.749   0.849
 4959TIP3    H114841   3.023   5.834   0.895
 4959TIP3    H214842   3.077   5.763   0.772
 4960TIP3   OH214843   6.883   5.906   2.295
 4960TIP3    H114844   6.796   5.936   2.322
 4960TIP3    H214845   6.876   5.811   2.292
 4961TIP3   OH214846   5.197   4.841   2.310
 4961TIP3    H114847   5.243   4.924   2.307
 4961TIP3    H214848   5.254   4.780   2.264
 4962TIP3   OH214849   0.148   5.197   4.025
 4962TIP3    H114850   0.230   5.246   4.012
 4962TIP3    H214851   0.121   5.218   4.114
 4963TIP3   OH214852   2.835   3.959   2.857
 4963TIP3    H114853   2.817   3.958   2.951
 4963TIP3    H214854   2.791   4.039   2.826
 4964TIP3   OH214855   3.032   1.193   4.430
 4964TIP3    H114856   3.026   1.101   4.456
 4964TIP3    H214857   3.027   1.191   4.334
 4965TIP3   OH214858   0.178   2.700   0.414
 4965TIP3    H114859   0.194   2.725   0.505
 4965TIP3    H214860   0.209   2.774   0.362
 4966TIP3   OH214861   0.853   6.057   0.505
 4966TIP3    H114862   0.895   6.015   0.430
 4966TIP3    H214863   0.812   6.135   0.469
 4967TIP3   OH214864   3.942   3.132   4.002
 4967TIP3    H114865   4.008   3.198   4.024
 4967TIP3    H214866   3.860   3.181   3.997
 4968TIP3   OH214867   4.001   6.251   3.490
 4968TIP3    H114868   4.044   6.273   3.572
 4968TIP3    H214869   4.036   6.164   3.468
 4969TIP3   OH214870   2.893   3.415   2.492
 4969TIP3    H114871   2.828   3.362   2.445
 4969TIP3    H214872   2.963   3.429   2.429
 4970TIP3   OH214873   0.484   3.288   5.033
 4970TIP3    H114874   0.566   3.260   4.992
 4970TIP3    H214875   0.416   3.253   4.976
 4971TIP3   OH214876   7.204   0.593   1.795
 4971TIP3    H114877   7.157   0.659   1.743
 4971TIP3    H214878   7.143   0.569   1.864
 4972TIP3   OH214879   0.490   4.214   4.744
 4972TIP3    H114880   0.549   4.279   4.781
 4972TIP3    H214881   0.509   4.215   4.650
 4973TIP3   OH214882   1.695   6.739   3.482
 4973TIP3    H114883   1.708   6.677   3.555
 4973TIP3    H214884   1.650   6.688   3.415
 4974TIP3   OH214885   0.787   2.138   4.523
 4974TIP3    H114886   0.837   2.205   4.476
 4974TIP3    H214887   0.806   2.154   4.616
 4975TIP3   OH214888   3.275   2.629   5.885
 4975TIP3    H114889   3.352   2.573   5.886
 4975TIP3    H214890   3.309   2.718   5.896
 4976TIP3   OH214891   7.208   0.037   5.440
 4976TIP3    H114892   7.263  -0.016   5.382
 4976TIP3    H214893   7.121  -0.003   5.432
 4977TIP3   OH214894   6.089   4.287   4.150
 4977TIP3    H114895   6.029   4.351   4.110
 4977TIP3    H214896   6.114   4.230   4.077
 4978TIP3   OH214897   2.768   5.099   2.282
 4978TIP3    H114898   2.731   5.013   2.302
 4978TIP3    H214899   2.755   5.109   2.188
 4979TIP3   OH214900   1.292   0.175   2.174
 4979TIP3    H114901   1.224   0.124   2.219
 4979TIP3    H214902   1.367   0.174   2.234
 4980TIP3   OH214903   5.735   2.246   0.260
 4980TIP3    H114904   5.766   2.333   0.287
 4980TIP3    H214905   5.650   2.262   0.219
 4981TIP3   OH214906   7.188   4.853   3.682
 4981TIP3    H114907   7.190   4.894   3.768
 4981TIP3    H214908   7.252   4.782   3.688
 4982TIP3   OH214909   3.192   2.255   0.636
 4982TIP3    H114910   3.110   2.261   0.586
 4982TIP3    H214911   3.177   2.309   0.713
 4983TIP3   OH214912   0.830   3.820   3.971
 4983TIP3    H114913   0.898   3.768   4.013
 4983TIP3    H214914   0.804   3.769   3.895
 4984TIP3   OH214915   5.445   6.363   4.948
 4984TIP3    H114916   5.488   6.410   4.877
 4984TIP3    H214917   5.516   6.322   4.997
 4985TIP3   OH214918   4.155   5.996   4.232
 4985TIP3    H114919   4.063   6.013   4.253
 4985TIP3    H214920   4.152   5.930   4.163
 4986TIP3   OH214921   6.184   4.113   0.514
 4986TIP3    H114922   6.219   4.113   0.603
 4986TIP3    H214923   6.253   4.151   0.460
 4987TIP3   OH214924   2.557   0.142   2.207
 4987TIP3    H114925   2.574   0.135   2.113
 4987TIP3    H214926   2.468   0.177   2.213
 4988TIP3   OH214927   5.325   2.658   5.854
 4988TIP3    H114928   5.351   2.578   5.808
 4988TIP3    H214929   5.388   2.666   5.925
 4989TIP3   OH214930   1.770   1.832   1.000
 4989TIP3    H114931   1.736   1.810   1.086
 4989TIP3    H214932   1.834   1.763   0.981
 4990TIP3   OH214933   3.041   3.308   1.018
 4990TIP3    H114934   3.106   3.370   0.985
 4990TIP3    H214935   3.001   3.270   0.940
 4991TIP3   OH214936   2.566   5.350   2.480
 4991TIP3    H114937   2.628   5.285   2.514
 4991TIP3    H214938   2.567   5.421   2.545
 4992TIP3   OH214939   3.386   5.748   0.878
 4992TIP3    H114940   3.374   5.667   0.929
 4992TIP3    H214941   3.381   5.818   0.943
 4993TIP3   OH214942   5.112   5.678   4.533
 4993TIP3    H114943   5.075   5.631   4.607
 4993TIP3    H214944   5.193   5.631   4.513
 4994TIP3   OH214945   5.683   5.693   1.387
 4994TIP3    H114946   5.668   5.752   1.461
 4994TIP3    H214947   5.740   5.743   1.328
 4995TIP3   OH214948   4.581   6.062   0.058
 4995TIP3    H114949   4.549   6.117  -0.013
 4995TIP3    H214950   4.589   5.974   0.020
 4996TIP3   OH214951   5.615   6.746   0.115
 4996TIP3    H114952   5.621   6.812   0.184
 4996TIP3    H214953   5.540   6.773   0.063
 4997TIP3   OH214954   0.847   3.697   2.230
 4997TIP3    H114955   0.919   3.641   2.260
 4997TIP3    H214956   0.858   3.702   2.135
 4998TIP3   OH214957   5.611   6.755   4.940
 4998TIP3    H114958   5.585   6.698   5.012
 4998TIP3    H214959   5.531   6.803   4.917
 4999TIP3   OH214960   1.465   2.349   2.632
 4999TIP3    H114961   1.402   2.284   2.603
 4999TIP3    H214962   1.506   2.310   2.709
 5000TIP3   OH214963   3.482   5.379   1.581
 5000TIP3    H114964   3.402   5.339   1.615
 5000TIP3    H214965   3.542   5.379   1.656
 5001TIP3   OH214966   2.309   4.563   5.840
 5001TIP3    H114967   2.279   4.653   5.830
 5001TIP3    H214968   2.315   4.549   5.934
 5002TIP3   OH214969   6.385   2.476   2.630
 5002TIP3    H114970   6.341   2.547   2.677
 5002TIP3    H214971   6.398   2.510   2.542
 5003TIP3   OH214972   0.204   4.145   2.672
 5003TIP3    H114973   0.300   4.152   2.671
 5003TIP3    H214974   0.186   4.069   2.617
 5004TIP3   OH214975   5.618   1.065   5.657
 5004TIP3    H114976   5.647   0.979   5.688
 5004TIP3    H214977   5.699   1.114   5.642
 5005TIP3   OH214978   4.619   0.618   2.763
 5005TIP3    H114979   4.684   0.550   2.745
 5005TIP3    H214980   4.617   0.626   2.858
 5006TIP3   OH214981   6.021   5.459   0.958
 5006TIP3    H114982   6.087   5.473   0.890
 5006TIP3    H214983   6.045   5.375   0.998
 5007TIP3   OH214984   5.443   2.659   2.047
 5007TIP3    H114985   5.359   2.614   2.045
 5007TIP3    H214986   5.432   2.733   1.988
 5008TIP3   OH214987   5.476   1.314   1.908
 5008TIP3    H114988   5.430   1.356   1.835
 5008TIP3    H214989   5.491   1.224   1.879
 5009TIP3   OH214990   1.102   5.495   5.641
 5009TIP3    H114991   1.131   5.576   5.598
 5009TIP3    H214992   1.108   5.515   5.735
 5010TIP3   OH214993   1.228   0.085   3.982
 5010TIP3    H114994   1.244   0.050   4.070
 5010TIP3    H214995   1.141   0.053   3.959
 5011TIP3   OH214996   4.270   1.668   1.070
 5011TIP3    H114997   4.221   1.750   1.069
 5011TIP3    H214998   4.276   1.646   1.163
 5012TIP3   OH214999   1.447   4.152   0.215
 5012TIP3    H115000   1.540   4.158   0.237
 5012TIP3    H215001   1.424   4.061   0.232
 5013TIP3   OH215002   2.922   3.192   3.511
 5013TIP3    H115003   2.953   3.248   3.440
 5013TIP3    H215004   2.850   3.241   3.550
 5014TIP3   OH215005   3.353   3.837   0.119
 5014TIP3    H115006   3.436   3.805   0.085
 5014TIP3    H215007   3.363   3.837   0.214
 5015TIP3   OH215008   3.436   4.359   1.096
 5015TIP3    H115009   3.476   4.283   1.138
 5015TIP3    H215010   3.342   4.345   1.105
 5016TIP3   OH215011   1.939   5.048   2.606
 5016TIP3    H115012   1.895   5.012   2.528
 5016TIP3    H215013   1.927   4.981   2.673
 5017TIP3   OH215014   3.065   0.265   0.688
 5017TIP3    H115015   2.994   0.213   0.650
 5017TIP3    H215016   3.137   0.259   0.624
 5018TIP3   OH215017   6.974   2.870   3.567
 5018TIP3    H115018   6.902   2.815   3.599
 5018TIP3    H215019   6.979   2.851   3.473
 5019TIP3   OH215020   0.892   0.824   1.714
 5019TIP3    H115021   0.901   0.915   1.742
 5019TIP3    H215022   0.860   0.778   1.792
 5020TIP3   OH215023   2.003   6.213   5.060
 5020TIP3    H115024   2.039   6.264   5.132
 5020TIP3    H215025   1.908   6.221   5.071
 5021TIP3   OH215026   0.430   4.700   5.527
 5021TIP3    H115027   0.449   4.675   5.436
 5021TIP3    H215028   0.334   4.698   5.532
 5022TIP3   OH215029   3.356   6.592   2.594
 5022TIP3    H115030   3.300   6.645   2.537
 5022TIP3    H215031   3.295   6.547   2.652
 5023TIP3   OH215032   4.762   0.157   5.651
 5023TIP3    H115033   4.745   0.241   5.609
 5023TIP3    H215034   4.765   0.094   5.578
 5024TIP3   OH215035   6.985   1.066   2.680
 5024TIP3    H115036   7.001   1.130   2.750
 5024TIP3    H215037   6.940   0.994   2.723
 5025TIP3   OH215038   6.672   3.708   4.060
 5025TIP3    H115039   6.667   3.768   3.985
 5025TIP3    H215040   6.596   3.731   4.114
 5026TIP3   OH215041   0.395   3.768   4.185
 5026TIP3    H115042   0.385   3.697   4.121
 5026TIP3    H215043   0.490   3.781   4.192
 5027TIP3   OH215044   6.390   5.498   4.553
 5027TIP3    H115045   6.330   5.534   4.488
 5027TIP3    H215046   6.401   5.406   4.527
 5028TIP3   OH215047   5.161   1.228   1.200
 5028TIP3    H115048   5.195   1.316   1.216
 5028TIP3    H215049   5.071   1.241   1.173
 5029TIP3   OH215050   6.428   5.592   5.549
 5029TIP3    H115051   6.483   5.550   5.484
 5029TIP3    H215052   6.448   5.547   5.631
 5030TIP3   OH215053   6.341   0.804   3.807
 5030TIP3    H115054   6.247   0.799   3.826
 5030TIP3    H215055   6.375   0.719   3.835
 5031TIP3   OH215056   3.178   5.179   5.494
 5031TIP3    H115057   3.231   5.153   5.569
 5031TIP3    H215058   3.164   5.098   5.445
 5032TIP3   OH215059   6.728   1.172   4.058
 5032TIP3    H115060   6.721   1.152   3.965
 5032TIP3    H215061   6.682   1.100   4.101
 5033TIP3   OH215062   5.761   6.732   0.567
 5033TIP3    H115063   5.848   6.770   0.577
 5033TIP3    H215064   5.738   6.701   0.654
 5034TIP3   OH215065   6.771   5.806   1.900
 5034TIP3    H115066   6.807   5.718   1.911
 5034TIP3    H215067   6.683   5.801   1.938
 5035TIP3   OH215068   5.095   5.753   2.488
 5035TIP3    H115069   5.116   5.838   2.449
 5035TIP3    H215070   5.110   5.690   2.417
 5036TIP3   OH215071   7.175   0.591   0.784
 5036TIP3    H115072   7.136   0.590   0.872
 5036TIP3    H215073   7.104   0.622   0.728
 5037TIP3   OH215074   5.508   3.682   0.574
 5037TIP3    H115075   5.515   3.742   0.500
 5037TIP3    H215076   5.589   3.695   0.623
 5038TIP3   OH215077   2.936   6.564   0.879
 5038TIP3    H115078   2.957   6.614   0.801
 5038TIP3    H215079   3.020   6.551   0.923
 5039TIP3   OH215080   0.475   5.312   5.434
 5039TIP3    H115081   0.517   5.354   5.508
 5039TIP3    H215082   0.416   5.247   5.473
 5040TIP3   OH215083   3.505   1.735   3.607
 5040TIP3    H115084   3.458   1.757   3.687
 5040TIP3    H215085   3.597   1.733   3.633
 5041TIP3   OH215086   6.992   4.730   3.537
 5041TIP3    H115087   7.052   4.765   3.603
 5041TIP3    H215088   6.907   4.766   3.561
 5042TIP3   OH215089   7.107   2.843   1.180
 5042TIP3    H115090   7.026   2.889   1.200
 5042TIP3    H215091   7.091   2.753   1.208
 5043TIP3   OH215092   6.847   4.354   3.407
 5043TIP3    H115093   6.919   4.291   3.396
 5043TIP3    H215094   6.829   4.384   3.318
 5044TIP3   OH215095   6.228   6.629   4.507
 5044TIP3    H115096   6.300   6.620   4.446
 5044TIP3    H215097   6.166   6.560   4.481
 5045TIP3   OH215098   6.420   4.091   5.763
 5045TIP3    H115099   6.335   4.051   5.783
 5045TIP3    H215100   6.399   4.174   5.721
 5046TIP3   OH215101   6.621   1.919   0.818
 5046TIP3    H115102   6.643   2.011   0.831
 5046TIP3    H215103   6.564   1.897   0.892
 5047TIP3   OH215104   4.583   6.576   4.975
 5047TIP3    H115105   4.527   6.557   4.899
 5047TIP3    H215106   4.552   6.517   5.043
 5048TIP3   OH215107   6.832   2.494   2.081
 5048TIP3    H115108   6.766   2.546   2.127
 5048TIP3    H215109   6.830   2.409   2.125
 5049TIP3   OH215110   5.373   2.855   3.523
 5049TIP3    H115111   5.392   2.778   3.469
 5049TIP3    H215112   5.398   2.929   3.468
 5050TIP3   OH215113   1.866   3.872   0.863
 5050TIP3    H115114   1.936   3.822   0.905
 5050TIP3    H215115   1.908   3.954   0.836
 5051TIP3   OH215116   1.515   3.409   4.764
 5051TIP3    H115117   1.581   3.476   4.781
 5051TIP3    H215118   1.543   3.334   4.817
 5052TIP3   OH215119   4.603   4.495   2.727
 5052TIP3    H115120   4.674   4.457   2.675
 5052TIP3    H215121   4.647   4.540   2.798
 5053TIP3   OH215122   6.986   4.012   0.192
 5053TIP3    H115123   6.900   4.006   0.150
 5053TIP3    H215124   6.971   3.979   0.280
 5054TIP3   OH215125   3.729   5.367   4.528
 5054TIP3    H115126   3.690   5.280   4.529
 5054TIP3    H215127   3.658   5.426   4.555
 5055TIP3   OH215128   3.532   5.437   4.253
 5055TIP3    H115129   3.483   5.362   4.288
 5055TIP3    H215130   3.582   5.401   4.180
 5056TIP3   OH215131   3.885   1.502   1.908
 5056TIP3    H115132   3.896   1.407   1.897
 5056TIP3    H215133   3.791   1.516   1.902
 5057TIP3   OH215134   6.884   2.583   3.124
 5057TIP3    H115135   6.880   2.494   3.089
 5057TIP3    H215136   6.976   2.594   3.151
 5058TIP3   OH215137   0.234   2.361   0.077
 5058TIP3    H115138   0.327   2.341   0.064
 5058TIP3    H215139   0.189   2.307   0.012
 5059TIP3   OH215140   2.428   3.542   2.134
 5059TIP3    H115141   2.392   3.523   2.221
 5059TIP3    H215142   2.495   3.475   2.121
 5060TIP3   OH215143   3.924   1.113   4.193
 5060TIP3    H115144   3.881   1.033   4.163
 5060TIP3    H215145   3.886   1.132   4.278
 5061TIP3   OH215146   1.797   2.271   0.122
 5061TIP3    H115147   1.873   2.214   0.107
 5061TIP3    H215148   1.827   2.357   0.093
 5062TIP3   OH215149   5.175   6.770   3.168
 5062TIP3    H115150   5.147   6.712   3.239
 5062TIP3    H215151   5.093   6.800   3.129
 5063TIP3   OH215152   6.582   3.406   0.295
 5063TIP3    H115153   6.656   3.379   0.241
 5063TIP3    H215154   6.616   3.477   0.350
 5064TIP3   OH215155   1.433   2.892   4.580
 5064TIP3    H115156   1.357   2.930   4.624
 5064TIP3    H215157   1.501   2.959   4.585
 5065TIP3   OH215158   0.031   2.653   0.681
 5065TIP3    H115159   0.079   2.587   0.732
 5065TIP3    H215160  -0.015   2.603   0.614
 5066TIP3   OH215161   0.510   5.270   2.570
 5066TIP3    H115162   0.464   5.187   2.582
 5066TIP3    H215163   0.600   5.251   2.595
 5067TIP3   OH215164   0.019   1.949   3.113
 5067TIP3    H115165  -0.010   1.873   3.063
 5067TIP3    H215166   0.110   1.963   3.084
 5068TIP3   OH215167   1.076   5.078   5.745
 5068TIP3    H115168   1.165   5.085   5.712
 5068TIP3    H215169   1.024   5.055   5.667
 5069TIP3   OH215170   2.340   4.525   5.550
 5069TIP3    H115171   2.252   4.554   5.527
 5069TIP3    H215172   2.335   4.503   5.643
 5070TIP3   OH215173   1.523   6.666   2.470
 5070TIP3    H115174   1.577   6.689   2.545
 5070TIP3    H215175   1.451   6.729   2.471
 5071TIP3   OH215176   4.364   6.426   0.191
 5071TIP3    H115177   4.331   6.489   0.254
 5071TIP3    H215178   4.445   6.465   0.158
 5072TIP3   OH215179   3.440   0.514   2.146
 5072TIP3    H115180   3.373   0.522   2.079
 5072TIP3    H215181   3.445   0.420   2.165
 5073TIP3   OH215182   2.015   2.166   3.060
 5073TIP3    H115183   2.052   2.234   3.117
 5073TIP3    H215184   2.051   2.185   2.973
 5074TIP3   OH215185   2.919   5.235   2.663
 5074TIP3    H115186   2.990   5.176   2.690
 5074TIP3    H215187   2.839   5.183   2.674
 5075TIP3   OH215188   3.758   4.576   3.017
 5075TIP3    H115189   3.831   4.516   2.996
 5075TIP3    H215190   3.795   4.663   3.003
 5076TIP3   OH215191   3.052   4.944   1.761
 5076TIP3    H115192   3.067   5.037   1.777
 5076TIP3    H215193   3.136   4.903   1.779
 5077TIP3   OH215194   5.645   5.656   0.071
 5077TIP3    H115195   5.624   5.697  -0.013
 5077TIP3    H215196   5.602   5.570   0.066
 5078TIP3   OH215197   4.213   0.513   0.539
 5078TIP3    H115198   4.294   0.481   0.500
 5078TIP3    H215199   4.143   0.469   0.491
 5079TIP3   OH215200   4.660   6.228   3.117
 5079TIP3    H115201   4.617   6.145   3.135
 5079TIP3    H215202   4.596   6.279   3.068
 5080TIP3   OH215203   0.607   2.511   2.699
 5080TIP3    H115204   0.569   2.462   2.626
 5080TIP3    H215205   0.567   2.597   2.695
 5081TIP3   OH215206   2.673   1.294   3.384
 5081TIP3    H115207   2.638   1.221   3.332
 5081TIP3    H215208   2.601   1.316   3.444
 5082TIP3   OH215209   5.442   5.141   2.788
 5082TIP3    H115210   5.424   5.077   2.856
 5082TIP3    H215211   5.494   5.093   2.723
 5083TIP3   OH215212   0.318   5.611   3.615
 5083TIP3    H115213   0.244   5.643   3.666
 5083TIP3    H215214   0.293   5.523   3.587
 5084TIP3   OH215215   5.221   0.383   0.365
 5084TIP3    H115216   5.152   0.449   0.358
 5084TIP3    H215217   5.211   0.331   0.285
 5085TIP3   OH215218   0.391   4.398   2.868
 5085TIP3    H115219   0.298   4.422   2.864
 5085TIP3    H215220   0.400   4.325   2.808
 5086TIP3   OH215221   5.926   3.501   3.328
 5086TIP3    H115222   5.975   3.578   3.299
 5086TIP3    H215223   5.989   3.450   3.379
 5087TIP3   OH215224   6.462   4.502   2.661
 5087TIP3    H115225   6.553   4.487   2.686
 5087TIP3    H215226   6.428   4.414   2.642
 5088TIP3   OH215227   6.237   2.713   2.775
 5088TIP3    H115228   6.215   2.659   2.851
 5088TIP3    H215229   6.304   2.773   2.807
 5089TIP3   OH215230   5.642   5.326   5.681
 5089TIP3    H115231   5.560   5.284   5.706
 5089TIP3    H215232   5.620   5.419   5.672
 5090TIP3   OH215233   3.016   5.457   3.070
 5090TIP3    H115234   3.051   5.546   3.072
 5090TIP3    H215235   2.929   5.465   3.108
 5091TIP3   OH215236   5.608   6.140   3.539
 5091TIP3    H115237   5.634   6.060   3.583
 5091TIP3    H215238   5.513   6.145   3.552
 5092TIP3   OH215239   2.363   4.681   2.361
 5092TIP3    H115240   2.321   4.661   2.445
 5092TIP3    H215241   2.338   4.771   2.343
 5093TIP3   OH215242   6.408   6.072   3.930
 5093TIP3    H115243   6.367   6.119   3.857
 5093TIP3    H215244   6.348   5.999   3.948
 5094TIP3   OH215245   4.608   6.017   5.351
 5094TIP3    H115246   4.584   5.946   5.411
 5094TIP3    H215247   4.692   6.049   5.384
 5095TIP3   OH215248   0.960   5.101   1.436
 5095TIP3    H115249   0.947   5.172   1.498
 5095TIP3    H215250   0.881   5.047   1.445
 5096TIP3   OH215251   1.742   0.244   1.938
 5096TIP3    H115252   1.782   0.229   1.852
 5096TIP3    H215253   1.721   0.157   1.971
 5097TIP3   OH215254   2.448   4.195   4.212
 5097TIP3    H115255   2.431   4.116   4.263
 5097TIP3    H215256   2.407   4.265   4.262
 5098TIP3   OH215257   2.324   5.794   0.947
 5098TIP3    H115258   2.242   5.797   0.996
 5098TIP3    H215259   2.367   5.714   0.978
 5099TIP3   OH215260   0.661   2.787   3.779
 5099TIP3    H115261   0.585   2.845   3.792
 5099TIP3    H215262   0.640   2.709   3.832
 5100TIP3   OH215263   2.107   6.309   0.563
 5100TIP3    H115264   2.077   6.306   0.472
 5100TIP3    H215265   2.026   6.315   0.615
 5101TIP3   OH215266   6.563   6.090   3.319
 5101TIP3    H115267   6.658   6.104   3.320
 5101TIP3    H215268   6.553   5.995   3.329
 5102TIP3   OH215269   5.419   3.831   3.772
 5102TIP3    H115270   5.383   3.891   3.706
 5102TIP3    H215271   5.415   3.881   3.854
 5103TIP3   OH215272   4.280   1.951   0.408
 5103TIP3    H115273   4.341   2.006   0.361
 5103TIP3    H215274   4.217   1.922   0.342
 5104TIP3   OH215275   2.916   3.643   1.356
 5104TIP3    H115276   2.962   3.727   1.348
 5104TIP3    H215277   2.837   3.653   1.304
 5105TIP3   OH215278   1.568   6.298   2.981
 5105TIP3    H115279   1.577   6.224   3.040
 5105TIP3    H215280   1.478   6.328   2.992
 5106TIP3   OH215281   3.381   5.880   3.583
 5106TIP3    H115282   3.461   5.906   3.628
 5106TIP3    H215283   3.399   5.790   3.553
 5107TIP3   OH215284   3.726   4.252   2.099
 5107TIP3    H115285   3.731   4.283   2.008
 5107TIP3    H215286   3.648   4.197   2.101
 5108TIP3   OH215287   6.119   5.587   1.173
 5108TIP3    H115288   6.141   5.671   1.134
 5108TIP3    H215289   6.067   5.543   1.106
 5109TIP3   OH215290   2.308   2.573   4.890
 5109TIP3    H115291   2.237   2.560   4.828
 5109TIP3    H215292   2.388   2.555   4.840
 5110TIP3   OH215293   3.522   6.253   3.128
 5110TIP3    H115294   3.570   6.245   3.211
 5110TIP3    H215295   3.584   6.296   3.069
 5111TIP3   OH215296   0.400   5.661   2.385
 5111TIP3    H115297   0.322   5.707   2.354
 5111TIP3    H215298   0.411   5.691   2.476
 5112TIP3   OH215299   2.017   5.581   1.678
 5112TIP3    H115300   2.086   5.646   1.693
 5112TIP3    H215301   1.943   5.631   1.645
 5113TIP3   OH215302   2.793   2.912   4.060
 5113TIP3    H115303   2.827   2.986   4.111
 5113TIP3    H215304   2.703   2.938   4.039
 5114TIP3   OH215305   2.540   1.017   0.950
 5114TIP3    H115306   2.495   1.080   0.893
 5114TIP3    H215307   2.614   0.987   0.899
 5115TIP3   OH215308   2.386   0.920   1.950
 5115TIP3    H115309   2.398   0.938   2.043
 5115TIP3    H215310   2.319   0.852   1.947
 5116TIP3   OH215311   6.029   0.423   4.064
 5116TIP3    H115312   5.947   0.473   4.062
 5116TIP3    H215313   6.001   0.332   4.065
 5117TIP3   OH215314   6.142   5.507   0.253
 5117TIP3    H115315   6.236   5.523   0.266
 5117TIP3    H215316   6.131   5.413   0.269
 5118TIP3   OH215317   2.437   1.934   0.611
 5118TIP3    H115318   2.462   2.026   0.602
 5118TIP3    H215319   2.351   1.928   0.572
 5119TIP3   OH215320   4.236   5.856   3.996
 5119TIP3    H115321   4.284   5.805   4.061
 5119TIP3    H215322   4.294   5.930   3.975
 5120TIP3   OH215323   1.820   1.292   0.889
 5120TIP3    H115324   1.905   1.255   0.867
 5120TIP3    H215325   1.765   1.274   0.812
 5121TIP3   OH215326   1.378   0.197   4.257
 5121TIP3    H115327   1.345   0.109   4.274
 5121TIP3    H215328   1.432   0.217   4.334
 5122TIP3   OH215329   0.176   2.642   4.435
 5122TIP3    H115330   0.158   2.553   4.406
 5122TIP3    H215331   0.245   2.673   4.377
 5123TIP3   OH215332   3.928   4.961   3.742
 5123TIP3    H115333   3.851   4.922   3.701
 5123TIP3    H215334   3.963   4.892   3.799
 5124TIP3   OH215335   7.058   2.833   3.021
 5124TIP3    H115336   7.102   2.785   2.951
 5124TIP3    H215337   7.048   2.922   2.987
 5125TIP3   OH215338   4.142   5.338   1.047
 5125TIP3    H115339   4.178   5.366   1.132
 5125TIP3    H215340   4.219   5.327   0.992
 5126TIP3   OH215341   0.339   3.344   2.645
 5126TIP3    H115342   0.300   3.276   2.700
 5126TIP3    H215343   0.297   3.425   2.674
 5127TIP3   OH215344   6.610   5.479   5.389
 5127TIP3    H115345   6.668   5.437   5.452
 5127TIP3    H215346   6.666   5.497   5.313
 5128TIP3   OH215347   2.403   4.681   1.324
 5128TIP3    H115348   2.368   4.592   1.317
 5128TIP3    H215349   2.327   4.735   1.345
 5129TIP3   OH215350   0.803   2.317   5.060
 5129TIP3    H115351   0.732   2.335   5.122
 5129TIP3    H215352   0.883   2.339   5.108
 5130TIP3   OH215353   6.701   5.982   1.695
 5130TIP3    H115354   6.741   5.926   1.762
 5130TIP3    H215355   6.616   5.941   1.677
 5131TIP3   OH215356   4.470   3.840   2.527
 5131TIP3    H115357   4.481   3.783   2.451
 5131TIP3    H215358   4.555   3.837   2.571
 5132TIP3   OH215359   5.462   1.850   0.883
 5132TIP3    H115360   5.437   1.886   0.798
 5132TIP3    H215361   5.453   1.755   0.872
 5133TIP3   OH215362   7.120   5.877   0.295
 5133TIP3    H115363   7.061   5.806   0.270
 5133TIP3    H215364   7.063   5.950   0.317
 5134TIP3   OH215365   1.314   6.450   2.160
 5134TIP3    H115366   1.392   6.434   2.107
 5134TIP3    H215367   1.298   6.544   2.152
 5135TIP3   OH215368   4.203   5.081   4.910
 5135TIP3    H115369   4.200   5.176   4.924
 5135TIP3    H215370   4.261   5.049   4.979
 5136TIP3   OH215371   0.616   3.531   2.405
 5136TIP3    H115372   0.619   3.436   2.410
 5136TIP3    H215373   0.702   3.560   2.438
 5137TIP3   OH215374   4.830   4.650   3.249
 5137TIP3    H115375   4.840   4.700   3.330
 5137TIP3    H215376   4.744   4.610   3.256
 5138TIP3   OH215377   3.448   3.202   1.761
 5138TIP3    H115378   3.472   3.294   1.759
 5138TIP3    H215379   3.525   3.156   1.726
 5139TIP3   OH215380   4.749   0.318   2.300
 5139TIP3    H115381   4.676   0.313   2.237
 5139TIP3    H215382   4.771   0.227   2.318
 5140TIP3   OH215383   3.486   3.445   2.074
 5140TIP3    H115384   3.405   3.420   2.118
 5140TIP3    H215385   3.532   3.362   2.059
 5141TIP3   OH215386   2.632   1.698   4.060
 5141TIP3    H115387   2.562   1.757   4.089
 5141TIP3    H215388   2.625   1.697   3.965
 5142TIP3   OH215389   4.841   2.907   3.667
 5142TIP3    H115390   4.785   2.831   3.655
 5142TIP3    H215391   4.870   2.929   3.578
 5143TIP3   OH215392   3.760   0.456   2.507
 5143TIP3    H115393   3.760   0.444   2.412
 5143TIP3    H215394   3.795   0.544   2.520
 5144TIP3   OH215395   6.354   1.883   1.423
 5144TIP3    H115396   6.265   1.864   1.454
 5144TIP3    H215397   6.347   1.969   1.381
 5145TIP3   OH215398   3.713   4.985   5.559
 5145TIP3    H115399   3.806   4.963   5.567
 5145TIP3    H215400   3.669   4.900   5.551
 5146TIP3   OH215401   3.220   5.730   2.189
 5146TIP3    H115402   3.128   5.734   2.213
 5146TIP3    H215403   3.220   5.708   2.096
 5147TIP3   OH215404   2.861   2.686   2.991
 5147TIP3    H115405   2.913   2.607   3.007
 5147TIP3    H215406   2.843   2.721   3.078
 5148TIP3   OH215407   5.021   3.609   5.701
 5148TIP3    H115408   5.045   3.701   5.715
 5148TIP3    H215409   5.094   3.559   5.738
 5149TIP3   OH215410   1.494   2.419   3.931
 5149TIP3    H115411   1.496   2.496   3.987
 5149TIP3    H215412   1.551   2.441   3.857
 5150TIP3   OH215413   3.624   2.127   1.291
 5150TIP3    H115414   3.627   2.036   1.319
 5150TIP3    H215415   3.552   2.131   1.228
 5151TIP3   OH215416   4.935   3.142   1.038
 5151TIP3    H115417   4.928   3.099   0.952
 5151TIP3    H215418   4.845   3.150   1.068
 5152TIP3   OH215419   5.862   4.765   4.229
 5152TIP3    H115420   5.885   4.847   4.185
 5152TIP3    H215421   5.936   4.746   4.286
 5153TIP3   OH215422   5.633   1.041   2.143
 5153TIP3    H115423   5.603   1.039   2.052
 5153TIP3    H215424   5.700   0.972   2.147
 5154TIP3   OH215425   5.687   5.524   4.246
 5154TIP3    H115426   5.597   5.548   4.266
 5154TIP3    H215427   5.735   5.606   4.245
 5155TIP3   OH215428   3.427   1.767   1.723
 5155TIP3    H115429   3.358   1.771   1.789
 5155TIP3    H215430   3.411   1.685   1.676
 5156TIP3   OH215431   2.956   5.753   1.930
 5156TIP3    H115432   3.049   5.733   1.941
 5156TIP3    H215433   2.930   5.792   2.013
 5157TIP3   OH215434   0.075   1.828   1.289
 5157TIP3    H115435  -0.020   1.818   1.280
 5157TIP3    H215436   0.088   1.852   1.381
 5158TIP3   OH215437   4.336   5.935   3.657
 5158TIP3    H115438   4.419   5.949   3.702
 5158TIP3    H215439   4.331   5.840   3.646
 5159TIP3   OH215440   1.144   6.053   5.185
 5159TIP3    H115441   1.096   5.972   5.170
 5159TIP3    H215442   1.117   6.111   5.113
 5160TIP3   OH215443   3.051   2.157   2.288
 5160TIP3    H115444   3.142   2.127   2.293
 5160TIP3    H215445   3.056   2.243   2.246
 5161TIP3   OH215446   0.950   6.711   3.760
 5161TIP3    H115447   0.871   6.734   3.808
 5161TIP3    H215448   1.005   6.789   3.764
 5162TIP3   OH215449   6.661   5.022   1.074
 5162TIP3    H115450   6.719   5.096   1.092
 5162TIP3    H215451   6.624   5.041   0.988
 5163TIP3   OH215452   5.660   0.296   3.267
 5163TIP3    H115453   5.716   0.371   3.247
 5163TIP3    H215454   5.673   0.236   3.194
 5164TIP3   OH215455   5.224   5.782   1.795
 5164TIP3    H115456   5.135   5.816   1.791
 5164TIP3    H215457   5.253   5.799   1.884
 5165TIP3   OH215458   1.302   6.698   5.465
 5165TIP3    H115459   1.267   6.627   5.519
 5165TIP3    H215460   1.384   6.664   5.429
 5166TIP3   OH215461   1.654   6.553   1.583
 5166TIP3    H115462   1.577   6.571   1.528
 5166TIP3    H215463   1.634   6.468   1.623
 5167TIP3   OH215464   6.680   3.593   2.496
 5167TIP3    H115465   6.657   3.622   2.584
 5167TIP3    H215466   6.605   3.619   2.442
 5168TIP3   OH215467   5.625   6.646   2.026
 5168TIP3    H115468   5.552   6.585   2.010
 5168TIP3    H215469   5.681   6.636   1.950
 5169TIP3   OH215470   0.641   5.225   1.565
 5169TIP3    H115471   0.636   5.205   1.658
 5169TIP3    H215472   0.631   5.320   1.560
 5170TIP3   OH215473   5.177   6.531   2.997
 5170TIP3    H115474   5.242   6.584   3.042
 5170TIP3    H215475   5.186   6.554   2.905
 5171TIP3   OH215476   0.900   4.454   3.982
 5171TIP3    H115477   0.834   4.435   4.049
 5171TIP3    H215478   0.921   4.546   3.993
 5172TIP3   OH215479   4.962   4.112   3.198
 5172TIP3    H115480   5.044   4.127   3.246
 5172TIP3    H215481   4.937   4.199   3.167
 5173TIP3   OH215482   5.571   1.187   1.073
 5173TIP3    H115483   5.543   1.098   1.053
 5173TIP3    H215484   5.666   1.180   1.084
 5174TIP3   OH215485   0.518   5.084   5.246
 5174TIP3    H115486   0.490   5.080   5.338
 5174TIP3    H215487   0.614   5.080   5.250
 5175TIP3   OH215488   2.600   0.014   0.153
 5175TIP3    H115489   2.583  -0.068   0.198
 5175TIP3    H215490   2.656   0.064   0.213
 5176TIP3   OH215491   3.339   2.338   5.376
 5176TIP3    H115492   3.328   2.321   5.470
 5176TIP3    H215493   3.431   2.320   5.359
 5177TIP3   OH215494   6.050   2.855   0.561
 5177TIP3    H115495   6.067   2.802   0.483
 5177TIP3    H215496   6.131   2.904   0.575
 5178TIP3   OH215497   4.571   3.715   2.295
 5178TIP3    H115498   4.516   3.727   2.217
 5178TIP3    H215499   4.657   3.691   2.261
 5179TIP3   OH215500   5.118   6.051   1.844
 5179TIP3    H115501   5.052   6.059   1.912
 5179TIP3    H215502   5.198   6.029   1.890
 5180TIP3   OH215503   6.043   5.135   0.066
 5180TIP3    H115504   6.073   5.066   0.007
 5180TIP3    H215505   6.120   5.158   0.118
 5181TIP3   OH215506   1.861   5.095   1.240
 5181TIP3    H115507   1.845   5.169   1.181
 5181TIP3    H215508   1.890   5.024   1.183
 5182TIP3   OH215509   3.029   1.514   4.267
 5182TIP3    H115510   3.070   1.429   4.278
 5182TIP3    H215511   2.977   1.505   4.187
 5183TIP3   OH215512   6.905   1.427   1.280
 5183TIP3    H115513   6.963   1.357   1.311
 5183TIP3    H215514   6.950   1.508   1.304
 5184TIP3   OH215515   2.027   0.113   0.336
 5184TIP3    H115516   2.071   0.161   0.406
 5184TIP3    H215517   1.935   0.109   0.364
 5185TIP3   OH215518   1.854   3.839   4.395
 5185TIP3    H115519   1.923   3.843   4.460
 5185TIP3    H215520   1.865   3.919   4.343
 5186TIP3   OH215521   3.737   2.168   2.793
 5186TIP3    H115522   3.678   2.223   2.844
 5186TIP3    H215523   3.772   2.227   2.725
 5187TIP3   OH215524   6.887   3.160   4.127
 5187TIP3    H115525   6.828   3.234   4.110
 5187TIP3    H215526   6.829   3.090   4.154
 5188TIP3   OH215527   4.851   1.350   4.294
 5188TIP3    H115528   4.865   1.444   4.278
 5188TIP3    H215529   4.777   1.327   4.238
 5189TIP3   OH215530   6.655   2.741   3.388
 5189TIP3    H115531   6.652   2.658   3.436
 5189TIP3    H215532   6.611   2.723   3.305
 5190TIP3   OH215533   4.285   5.963   4.480
 5190TIP3    H115534   4.259   5.874   4.457
 5190TIP3    H215535   4.265   6.015   4.402
 5191TIP3   OH215536   0.869   6.560   5.196
 5191TIP3    H115537   0.883   6.655   5.191
 5191TIP3    H215538   0.955   6.524   5.219
 5192TIP3   OH215539   3.764   4.196   0.352
 5192TIP3    H115540   3.821   4.199   0.275
 5192TIP3    H215541   3.807   4.137   0.413
 5193TIP3   OH215542   4.569   5.797   0.003
 5193TIP3    H115543   4.657   5.781   0.038
 5193TIP3    H215544   4.510   5.770   0.074
 5194TIP3   OH215545   1.391   5.358   4.094
 5194TIP3    H115546   1.465   5.349   4.033
 5194TIP3    H215547   1.389   5.274   4.141
 5195TIP3   OH215548   0.499   4.646   4.045
 5195TIP3    H115549   0.575   4.656   3.988
 5195TIP3    H215550   0.489   4.731   4.088
 5196TIP3   OH215551   0.833   2.484   0.088
 5196TIP3    H115552   0.900   2.479   0.156
 5196TIP3    H215553   0.837   2.574   0.056
 5197TIP3   OH215554   6.369   1.807   0.522
 5197TIP3    H115555   6.379   1.902   0.528
 5197TIP3    H215556   6.458   1.773   0.537
 5198TIP3   OH215557   4.624   2.827   4.441
 5198TIP3    H115558   4.671   2.905   4.413
 5198TIP3    H215559   4.536   2.836   4.403
 5199TIP3   OH215560   5.767   0.821   5.815
 5199TIP3    H115561   5.784   0.766   5.892
 5199TIP3    H215562   5.706   0.771   5.762
 5200TIP3   OH215563   1.230   5.074   0.209
 5200TIP3    H115564   1.201   5.064   0.118
 5200TIP3    H215565   1.164   5.129   0.250
 5201TIP3   OH215566   5.087   1.811   5.483
 5201TIP3    H115567   5.044   1.784   5.402
 5201TIP3    H215568   5.109   1.903   5.469
 5202TIP3   OH215569   3.958   1.452   4.645
 5202TIP3    H115570   3.960   1.408   4.560
 5202TIP3    H215571   3.872   1.494   4.648
 5203TIP3   OH215572   5.621   2.164   0.790
 5203TIP3    H115573   5.537   2.127   0.762
 5203TIP3    H215574   5.687   2.110   0.747
 5204TIP3   OH215575   3.992   0.959   3.856
 5204TIP3    H115576   4.057   0.941   3.788
 5204TIP3    H215577   3.970   1.052   3.844
 5205TIP3   OH215578   6.969   4.505   4.947
 5205TIP3    H115579   7.030   4.500   5.021
 5205TIP3    H215580   7.006   4.573   4.890
 5206TIP3   OH215581   6.338   2.653   5.838
 5206TIP3    H115582   6.303   2.636   5.750
 5206TIP3    H215583   6.332   2.747   5.849
 5207TIP3   OH215584   2.618   2.907   0.495
 5207TIP3    H115585   2.686   2.926   0.560
 5207TIP3    H215586   2.569   2.835   0.532
 5208TIP3   OH215587   2.761   4.160   4.982
 5208TIP3    H115588   2.720   4.229   5.034
 5208TIP3    H215589   2.690   4.097   4.967
 5209TIP3   OH215590   3.413   0.598   4.715
 5209TIP3    H115591   3.484   0.642   4.760
 5209TIP3    H215592   3.432   0.610   4.622
 5210TIP3   OH215593   3.499   3.775   2.680
 5210TIP3    H115594   3.581   3.749   2.724
 5210TIP3    H215595   3.528   3.822   2.602
 5211TIP3   OH215596   5.460   4.437   5.893
 5211TIP3    H115597   5.441   4.358   5.842
 5211TIP3    H215598   5.546   4.465   5.863
 5212TIP3   OH215599   3.431   5.236   1.371
 5212TIP3    H115600   3.466   5.293   1.439
 5212TIP3    H215601   3.490   5.161   1.371
 5213TIP3   OH215602   1.001   2.891   3.400
 5213TIP3    H115603   1.060   2.940   3.458
 5213TIP3    H215604   0.932   2.859   3.458
 5214TIP3   OH215605   3.820   4.057   1.342
 5214TIP3    H115606   3.766   4.101   1.408
 5214TIP3    H215607   3.850   3.977   1.385
 5215TIP3   OH215608   3.319   0.715   1.107
 5215TIP3    H115609   3.371   0.749   1.180
 5215TIP3    H215610   3.230   0.746   1.125
 5216TIP3   OH215611   4.098   5.591   5.782
 5216TIP3    H115612   4.049   5.509   5.780
 5216TIP3    H215613   4.089   5.622   5.872
 5217TIP3   OH215614   5.377   1.753   3.162
 5217TIP3    H115615   5.408   1.716   3.080
 5217TIP3    H215616   5.299   1.701   3.184
 5218TIP3   OH215617   2.696   4.430   3.764
 5218TIP3    H115618   2.608   4.391   3.769
 5218TIP3    H215619   2.727   4.430   3.855
 5219TIP3   OH215620   5.644   3.135   2.660
 5219TIP3    H115621   5.683   3.049   2.675
 5219TIP3    H215622   5.584   3.147   2.734
 5220TIP3   OH215623   2.833   2.010   0.203
 5220TIP3    H115624   2.901   2.062   0.247
 5220TIP3    H215625   2.882   1.943   0.155
 5221TIP3   OH215626   5.640   1.906   3.899
 5221TIP3    H115627   5.597   1.851   3.835
 5221TIP3    H215628   5.721   1.934   3.856
 5222TIP3   OH215629   5.479   2.379   5.396
 5222TIP3    H115630   5.485   2.305   5.456
 5222TIP3    H215631   5.567   2.390   5.361
 5223TIP3   OH215632   2.770   2.920   2.373
 5223TIP3    H115633   2.780   2.993   2.434
 5223TIP3    H215634   2.859   2.889   2.358
 5224TIP3   OH215635   5.741   1.993   0.313
 5224TIP3    H115636   5.722   2.087   0.308
 5224TIP3    H215637   5.682   1.953   0.250
 5225TIP3   OH215638   3.342   2.370   3.755
 5225TIP3    H115639   3.258   2.324   3.759
 5225TIP3    H215640   3.328   2.448   3.809
 5226TIP3   OH215641   0.098   3.737   4.304
 5226TIP3    H115642   0.058   3.813   4.263
 5226TIP3    H215643   0.171   3.773   4.355
 5227TIP3   OH215644   6.210   0.529   0.815
 5227TIP3    H115645   6.177   0.606   0.769
 5227TIP3    H215646   6.163   0.455   0.776
 5228TIP3   OH215647   2.605   1.286   2.767
 5228TIP3    H115648   2.553   1.277   2.687
 5228TIP3    H215649   2.692   1.255   2.742
 5229TIP3   OH215650   7.002   5.387   0.304
 5229TIP3    H115651   7.018   5.293   0.294
 5229TIP3    H215652   7.037   5.407   0.391
 5230TIP3   OH215653   0.715   6.697   1.273
 5230TIP3    H115654   0.700   6.653   1.190
 5230TIP3    H215655   0.777   6.767   1.252
 5231TIP3   OH215656   7.069   5.400   4.809
 5231TIP3    H115657   7.158   5.366   4.818
 5231TIP3    H215658   7.081   5.490   4.779
 5232TIP3   OH215659   0.388   6.278   3.280
 5232TIP3    H115660   0.479   6.271   3.308
 5232TIP3    H215661   0.345   6.199   3.312
 5233TIP3   OH215662   0.556   4.699   1.447
 5233TIP3    H115663   0.527   4.614   1.481
 5233TIP3    H215664   0.562   4.687   1.353
 5234TIP3   OH215665   6.063   0.808   3.861
 5234TIP3    H115666   6.007   0.863   3.916
 5234TIP3    H215667   6.012   0.728   3.847
 5235TIP3   OH215668   3.039   0.906   1.624
 5235TIP3    H115669   3.113   0.851   1.601
 5235TIP3    H215670   2.986   0.851   1.682
 5236TIP3   OH215671   5.378   2.191   0.641
 5236TIP3    H115672   5.315   2.211   0.710
 5236TIP3    H215673   5.373   2.266   0.582
 5237TIP3   OH215674   1.860   1.273   1.211
 5237TIP3    H115675   1.862   1.185   1.249
 5237TIP3    H215676   1.875   1.259   1.118
 5238TIP3   OH215677   6.828   6.343   2.408
 5238TIP3    H115678   6.749   6.291   2.391
 5238TIP3    H215679   6.895   6.304   2.352
 5239TIP3   OH215680   5.665   5.933   0.601
 5239TIP3    H115681   5.691   5.879   0.676
 5239TIP3    H215682   5.597   5.991   0.636
 5240TIP3   OH215683   6.256   5.989   0.210
 5240TIP3    H115684   6.263   6.084   0.218
 5240TIP3    H215685   6.314   5.966   0.137
 5241TIP3   OH215686   2.817   0.060   3.831
 5241TIP3    H115687   2.763  -0.014   3.805
 5241TIP3    H215688   2.858   0.032   3.913
 5242TIP3   OH215689   1.959   3.489   0.334
 5242TIP3    H115690   1.886   3.472   0.276
 5242TIP3    H215691   1.935   3.448   0.417
 5243TIP3   OH215692   6.161   2.156   0.607
 5243TIP3    H115693   6.252   2.135   0.587
 5243TIP3    H215694   6.155   2.251   0.595
 5244TIP3   OH215695   1.421   5.672   1.772
 5244TIP3    H115696   1.498   5.684   1.828
 5244TIP3    H215697   1.371   5.753   1.782
 5245TIP3   OH215698   3.846   5.769   2.760
 5245TIP3    H115699   3.937   5.766   2.791
 5245TIP3    H215700   3.837   5.855   2.721
 5246TIP3   OH215701   6.692   5.138   1.396
 5246TIP3    H115702   6.777   5.169   1.363
 5246TIP3    H215703   6.707   5.046   1.418
 5247TIP3   OH215704   0.422   4.461  -0.022
 5247TIP3    H115705   0.472   4.531  -0.064
 5247TIP3    H215706   0.462   4.453   0.065
 5248TIP3   OH215707   5.876   4.105   4.084
 5248TIP3    H115708   5.952   4.122   4.140
 5248TIP3    H215709   5.834   4.028   4.124
 5249TIP3   OH215710   6.338   2.974   5.306
 5249TIP3    H115711   6.375   2.993   5.392
 5249TIP3    H215712   6.244   2.970   5.321
 5250TIP3   OH215713   4.092   3.208   0.977
 5250TIP3    H115714   4.129   3.227   1.063
 5250TIP3    H215715   4.006   3.250   0.978
 5251TIP3   OH215716   2.371   3.453   2.377
 5251TIP3    H115717   2.396   3.363   2.401
 5251TIP3    H215718   2.447   3.506   2.403
 5252TIP3   OH215719   0.011   4.233   2.864
 5252TIP3    H115720   0.027   4.150   2.909
 5252TIP3    H215721   0.061   4.227   2.783
 5253TIP3   OH215722   5.849   0.680   0.061
 5253TIP3    H115723   5.798   0.761   0.054
 5253TIP3    H215724   5.854   0.647  -0.028
 5254TIP3   OH215725   2.262   5.187   4.219
 5254TIP3    H115726   2.254   5.105   4.171
 5254TIP3    H215727   2.240   5.255   4.155
 5255TIP3   OH215728   3.142   2.602   1.909
 5255TIP3    H115729   3.133   2.571   1.819
 5255TIP3    H215730   3.054   2.629   1.934
 5256TIP3   OH215731   6.879   0.179   5.083
 5256TIP3    H115732   6.944   0.177   5.013
 5256TIP3    H215733   6.815   0.111   5.058
 5257TIP3   OH215734   0.575   4.139   0.071
 5257TIP3    H115735   0.624   4.120  -0.008
 5257TIP3    H215736   0.484   4.144   0.042
 5258TIP3   OH215737   2.248   5.370   2.876
 5258TIP3    H115738   2.189   5.363   2.801
 5258TIP3    H215739   2.278   5.281   2.892
 5259TIP3   OH215740   0.805   2.763   2.057
 5259TIP3    H115741   0.823   2.783   2.148
 5259TIP3    H215742   0.843   2.676   2.043
 5260TIP3   OH215743   3.910   3.346   1.117
 5260TIP3    H115744   3.961   3.306   1.188
 5260TIP3    H215745   3.944   3.435   1.111
 5261TIP3   OH215746   7.155   0.326   1.026
 5261TIP3    H115747   7.085   0.261   1.028
 5261TIP3    H215748   7.110   0.410   1.040
 5262TIP3   OH215749   2.006   3.819   0.467
 5262TIP3    H115750   1.973   3.775   0.388
 5262TIP3    H215751   2.101   3.818   0.457
 5263TIP3   OH215752   3.387   2.102   1.118
 5263TIP3    H115753   3.401   2.049   1.039
 5263TIP3    H215754   3.355   2.185   1.085
 5264TIP3   OH215755   0.025   1.783   2.878
 5264TIP3    H115756   0.073   1.722   2.822
 5264TIP3    H215757   0.082   1.861   2.882
 5265TIP3   OH215758   2.688   4.394   2.414
 5265TIP3    H115759   2.625   4.355   2.475
 5265TIP3    H215760   2.655   4.368   2.328
 5266TIP3   OH215761   6.956   3.640   5.732
 5266TIP3    H115762   6.963   3.557   5.778
 5266TIP3    H215763   6.891   3.624   5.663
 5267TIP3   OH215764   3.618   0.666   2.278
 5267TIP3    H115765   3.582   0.664   2.367
 5267TIP3    H215766   3.571   0.598   2.231
 5268TIP3   OH215767   4.818   1.343   2.242
 5268TIP3    H115768   4.833   1.274   2.307
 5268TIP3    H215769   4.758   1.303   2.179
 5269TIP3   OH215770   2.841   1.472   4.020
 5269TIP3    H115771   2.908   1.506   3.961
 5269TIP3    H215772   2.769   1.534   4.013
 5270TIP3   OH215773   2.877   3.213   5.706
 5270TIP3    H115774   2.831   3.280   5.656
 5270TIP3    H215775   2.959   3.199   5.658
 5271TIP3   OH215776   1.773   4.977   2.069
 5271TIP3    H115777   1.704   4.925   2.027
 5271TIP3    H215778   1.836   4.912   2.100
 5272TIP3   OH215779   3.791   6.136   3.622
 5272TIP3    H115780   3.828   6.186   3.549
 5272TIP3    H215781   3.752   6.201   3.679
 5273TIP3   OH215782   4.773   2.867   1.196
 5273TIP3    H115783   4.804   2.794   1.249
 5273TIP3    H215784   4.852   2.904   1.157
 5274TIP3   OH215785   6.984   5.987   1.879
 5274TIP3    H115786   6.913   5.933   1.913
 5274TIP3    H215787   7.033   6.014   1.956
 5275TIP3   OH215788   7.123   2.413   5.863
 5275TIP3    H115789   7.076   2.439   5.783
 5275TIP3    H215790   7.169   2.333   5.839
 5276TIP3   OH215791   2.958   0.210   1.663
 5276TIP3    H115792   3.000   0.177   1.583
 5276TIP3    H215793   3.030   0.219   1.725
 5277TIP3   OH215794   1.626   2.924   1.452
 5277TIP3    H115795   1.664   2.886   1.531
 5277TIP3    H215796   1.538   2.888   1.448
 5278TIP3   OH215797   5.169   2.253   1.217
 5278TIP3    H115798   5.113   2.285   1.147
 5278TIP3    H215799   5.123   2.176   1.251
 5279TIP3   OH215800   0.888   0.379   3.736
 5279TIP3    H115801   0.876   0.468   3.704
 5279TIP3    H215802   0.978   0.356   3.712
 5280TIP3   OH215803   1.057   3.489   2.817
 5280TIP3    H115804   0.973   3.494   2.863
 5280TIP3    H215805   1.064   3.572   2.770
 5281TIP3   OH215806   4.471   6.650   4.622
 5281TIP3    H115807   4.379   6.667   4.606
 5281TIP3    H215808   4.514   6.664   4.537
 5282TIP3   OH215809   1.781   4.149   2.131
 5282TIP3    H115810   1.858   4.184   2.087
 5282TIP3    H215811   1.801   4.056   2.144
 5283TIP3   OH215812   0.575   6.147   1.181
 5283TIP3    H115813   0.486   6.152   1.145
 5283TIP3    H215814   0.562   6.120   1.272
 5284TIP3   OH215815   1.705   6.556   0.875
 5284TIP3    H115816   1.691   6.619   0.946
 5284TIP3    H215817   1.695   6.471   0.917
 5285TIP3   OH215818   3.249   3.108   5.269
 5285TIP3    H115819   3.273   3.015   5.273
 5285TIP3    H215820   3.332   3.154   5.271
 5286TIP3   OH215821   2.084   5.535   3.034
 5286TIP3    H115822   2.127   5.468   2.980
 5286TIP3    H215823   2.083   5.497   3.122
 5287TIP3   OH215824   4.360   5.085   0.946
 5287TIP3    H115825   4.293   5.083   0.877
 5287TIP3    H215826   4.396   5.174   0.942
 5288TIP3   OH215827   0.661   6.481   5.396
 5288TIP3    H115828   0.601   6.532   5.342
 5288TIP3    H215829   0.744   6.483   5.349
 5289TIP3   OH215830   2.627   1.067   3.747
 5289TIP3    H115831   2.697   1.124   3.714
 5289TIP3    H215832   2.658   0.979   3.728
 5290TIP3   OH215833   0.119   1.990   2.227
 5290TIP3    H115834   0.115   1.898   2.255
 5290TIP3    H215835   0.156   1.986   2.139
 5291TIP3   OH215836   5.956   2.062   5.806
 5291TIP3    H115837   5.947   2.100   5.718
 5291TIP3    H215838   6.049   2.041   5.814
 5292TIP3   OH215839   4.430   1.155   0.014
 5292TIP3    H115840   4.431   1.068   0.055
 5292TIP3    H215841   4.375   1.144  -0.064
 5293TIP3   OH215842   0.920   4.782   3.669
 5293TIP3    H115843   0.842   4.821   3.708
 5293TIP3    H215844   0.992   4.810   3.725
 5294TIP3   OH215845   5.984   5.767   4.405
 5294TIP3    H115846   6.007   5.674   4.403
 5294TIP3    H215847   5.945   5.783   4.319
 5295TIP3   OH215848   0.425   3.471   2.098
 5295TIP3    H115849   0.504   3.417   2.089
 5295TIP3    H215850   0.357   3.420   2.053
 5296TIP3   OH215851   0.225   3.731   2.206
 5296TIP3    H115852   0.245   3.682   2.126
 5296TIP3    H215853   0.275   3.812   2.197
 5297TIP3   OH215854   1.116   4.704   2.548
 5297TIP3    H115855   1.148   4.722   2.637
 5297TIP3    H215856   1.021   4.712   2.554
 5298TIP3   OH215857   0.150   2.085   5.554
 5298TIP3    H115858   0.080   2.072   5.490
 5298TIP3    H215859   0.219   2.025   5.526
 5299TIP3   OH215860   6.088   5.041   1.633
 5299TIP3    H115861   6.164   5.005   1.587
 5299TIP3    H215862   6.012   5.009   1.584
 5300TIP3   OH215863   5.465   1.516   3.004
 5300TIP3    H115864   5.475   1.485   2.914
 5300TIP3    H215865   5.372   1.508   3.022
 5301TIP3   OH215866   1.676   5.205   4.898
 5301TIP3    H115867   1.580   5.207   4.889
 5301TIP3    H215868   1.691   5.206   4.992
 5302TIP3   OH215869   5.731   4.815   4.474
 5302TIP3    H115870   5.644   4.775   4.477
 5302TIP3    H215871   5.771   4.779   4.396
 5303TIP3   OH215872   3.466   1.213   2.944
 5303TIP3    H115873   3.560   1.198   2.939
 5303TIP3    H215874   3.459   1.302   2.980
 5304TIP3   OH215875   1.372   4.740   5.373
 5304TIP3    H115876   1.348   4.653   5.341
 5304TIP3    H215877   1.465   4.749   5.352
 5305TIP3   OH215878   2.387   6.681   4.337
 5305TIP3    H115879   2.400   6.775   4.324
 5305TIP3    H215880   2.460   6.640   4.291
 5306TIP3   OH215881   1.851   2.923   5.808
 5306TIP3    H115882   1.840   2.923   5.903
 5306TIP3    H215883   1.892   3.007   5.788
 5307TIP3   OH215884   3.638   2.782   1.368
 5307TIP3    H115885   3.692   2.840   1.421
 5307TIP3    H215886   3.698   2.747   1.302
 5308TIP3   OH215887   6.106   4.852   2.836
 5308TIP3    H115888   6.098   4.893   2.750
 5308TIP3    H215889   6.128   4.924   2.896
 5309TIP3   OH215890   2.541   3.825   3.068
 5309TIP3    H115891   2.529   3.839   2.974
 5309TIP3    H215892   2.630   3.856   3.085
 5310TIP3   OH215893   1.006   2.122   1.321
 5310TIP3    H115894   1.039   2.211   1.313
 5310TIP3    H215895   1.070   2.077   1.376
 5311TIP3   OH215896   1.197   4.155   5.651
 5311TIP3    H115897   1.152   4.081   5.609
 5311TIP3    H215898   1.137   4.229   5.640
 5312TIP3   OH215899   2.200   3.075   4.252
 5312TIP3    H115900   2.290   3.055   4.277
 5312TIP3    H215901   2.174   3.147   4.309
 5313TIP3   OH215902   6.826   3.551   4.835
 5313TIP3    H115903   6.907   3.557   4.783
 5313TIP3    H215904   6.761   3.598   4.783
 5314TIP3   OH215905   0.424   2.549   1.693
 5314TIP3    H115906   0.487   2.544   1.765
 5314TIP3    H215907   0.398   2.458   1.678
 5315TIP3   OH215908   0.747   6.386   1.344
 5315TIP3    H115909   0.658   6.361   1.367
 5315TIP3    H215910   0.801   6.310   1.367
 5316TIP3   OH215911   5.812   1.584   3.632
 5316TIP3    H115912   5.886   1.581   3.571
 5316TIP3    H215913   5.795   1.678   3.643
 5317TIP3   OH215914   5.278   0.813   4.770
 5317TIP3    H115915   5.317   0.894   4.802
 5317TIP3    H215916   5.344   0.777   4.709
 5318TIP3   OH215917   5.845   6.492   1.368
 5318TIP3    H115918   5.905   6.420   1.387
 5318TIP3    H215919   5.880   6.566   1.418
 5319TIP3   OH215920   1.632   3.386   2.461
 5319TIP3    H115921   1.655   3.295   2.480
 5319TIP3    H215922   1.711   3.435   2.481
 5320TIP3   OH215923   1.405   5.487   3.569
 5320TIP3    H115924   1.396   5.457   3.660
 5320TIP3    H215925   1.498   5.477   3.550
 5321TIP3   OH215926   3.329   5.151   2.288
 5321TIP3    H115927   3.351   5.244   2.300
 5321TIP3    H215928   3.400   5.117   2.235
 5322TIP3   OH215929   0.979   2.348   4.493
 5322TIP3    H115930   1.010   2.336   4.583
 5322TIP3    H215931   1.056   2.329   4.440
 5323TIP3   OH215932   4.040   3.669   5.695
 5323TIP3    H115933   3.946   3.661   5.679
 5323TIP3    H215934   4.070   3.737   5.634
 5324TIP3   OH215935   0.435   4.463   0.534
 5324TIP3    H115936   0.341   4.478   0.546
 5324TIP3    H215937   0.458   4.400   0.603
 5325TIP3   OH215938   6.749   6.114   4.276
 5325TIP3    H115939   6.653   6.112   4.269
 5325TIP3    H215940   6.771   6.035   4.325
 5326TIP3   OH215941   6.026   3.954   3.297
 5326TIP3    H115942   5.989   3.870   3.269
 5326TIP3    H215943   6.078   3.933   3.374
 5327TIP3   OH215944   6.393   3.831   0.127
 5327TIP3    H115945   6.381   3.918   0.090
 5327TIP3    H215946   6.335   3.829   0.203
 5328TIP3   OH215947   5.440   5.815   5.774
 5328TIP3    H115948   5.387   5.785   5.848
 5328TIP3    H215949   5.377   5.849   5.711
 5329TIP3   OH215950   6.103   6.103   2.493
 5329TIP3    H115951   6.042   6.055   2.549
 5329TIP3    H215952   6.128   6.040   2.425
 5330TIP3   OH215953   2.903   0.811   3.980
 5330TIP3    H115954   2.831   0.749   3.970
 5330TIP3    H215955   2.960   0.795   3.905
 5331TIP3   OH215956   0.355   0.269   3.584
 5331TIP3    H115957   0.339   0.219   3.504
 5331TIP3    H215958   0.445   0.300   3.575
 5332TIP3   OH215959   4.738   3.642   1.216
 5332TIP3    H115960   4.742   3.738   1.218
 5332TIP3    H215961   4.755   3.616   1.307
 5333TIP3   OH215962   7.089   2.969   0.938
 5333TIP3    H115963   7.099   2.897   1.000
 5333TIP3    H215964   7.089   3.048   0.992
 5334TIP3   OH215965   1.441   1.852   4.209
 5334TIP3    H115966   1.457   1.881   4.119
 5334TIP3    H215967   1.416   1.760   4.200
 5335TIP3   OH215968   4.211   6.823   3.794
 5335TIP3    H115969   4.136   6.814   3.852
 5335TIP3    H215970   4.209   6.743   3.741
 5336TIP3   OH215971   2.392   6.198   0.185
 5336TIP3    H115972   2.487   6.200   0.191
 5336TIP3    H215973   2.371   6.107   0.165
 5337TIP3   OH215974   2.908   5.878   0.053
 5337TIP3    H115975   2.945   5.849   0.137
 5337TIP3    H215976   2.884   5.797   0.008
 5338TIP3   OH215977   5.917   2.897   3.650
 5338TIP3    H115978   5.892   2.832   3.584
 5338TIP3    H215979   5.936   2.977   3.600
 5339TIP3   OH215980   4.892   4.778   5.000
 5339TIP3    H115981   4.982   4.810   5.014
 5339TIP3    H215982   4.877   4.790   4.906
 5340TIP3   OH215983   6.877   3.979   1.929
 5340TIP3    H115984   6.908   3.939   2.010
 5340TIP3    H215985   6.941   3.953   1.863
 5341TIP3   OH215986   2.413   0.595   1.929
 5341TIP3    H115987   2.419   0.505   1.899
 5341TIP3    H215988   2.329   0.626   1.897
 5342TIP3   OH215989   5.821   6.349   0.938
 5342TIP3    H115990   5.812   6.426   0.994
 5342TIP3    H215991   5.739   6.344   0.891
 5343TIP3   OH215992   5.791   5.360   0.725
 5343TIP3    H115993   5.867   5.377   0.780
 5343TIP3    H215994   5.802   5.269   0.695
 5344TIP3   OH215995   5.988   5.652   2.823
 5344TIP3    H115996   5.901   5.625   2.852
 5344TIP3    H215997   5.999   5.739   2.863
 5345TIP3   OH215998   1.548   3.569   2.274
 5345TIP3    H115999   1.537   3.501   2.207
 5345TIP3    H216000   1.589   3.524   2.347
 5346TIP3   OH216001   4.029   6.731   4.261
 5346TIP3    H116002   3.972   6.680   4.319
 5346TIP3    H216003   3.974   6.804   4.232
 5347TIP3   OH216004   6.291   4.123   4.255
 5347TIP3    H116005   6.343   4.122   4.174
 5347TIP3    H216006   6.216   4.180   4.235
 5348TIP3   OH216007   3.277   3.088   0.268
 5348TIP3    H116008   3.326   3.113   0.189
 5348TIP3    H216009   3.224   3.165   0.288
 5349TIP3   OH216010   6.368   3.987   1.486
 5349TIP3    H116011   6.301   3.991   1.554
 5349TIP3    H216012   6.325   3.944   1.412
 5350TIP3   OH216013   0.355   6.290   3.966
 5350TIP3    H116014   0.396   6.297   4.052
 5350TIP3    H216015   0.261   6.287   3.985
 5351TIP3   OH216016   5.040   5.083   0.288
 5351TIP3    H116017   4.964   5.025   0.297
 5351TIP3    H216018   5.003   5.166   0.257
 5352TIP3   OH216019   2.720   6.003   1.087
 5352TIP3    H116020   2.790   6.043   1.036
 5352TIP3    H216021   2.640   6.037   1.046
 5353TIP3   OH216022   0.458   4.867   0.990
 5353TIP3    H116023   0.441   4.927   1.062
 5353TIP3    H216024   0.377   4.866   0.939
 5354TIP3   OH216025   6.676   1.456   1.639
 5354TIP3    H116026   6.583   1.475   1.627
 5354TIP3    H216027   6.690   1.373   1.593
 5355TIP3   OH216028   4.669   3.273   1.156
 5355TIP3    H116029   4.655   3.194   1.208
 5355TIP3    H216030   4.692   3.340   1.221
 5356TIP3   OH216031   1.984   6.281   2.744
 5356TIP3    H116032   2.051   6.334   2.700
 5356TIP3    H216033   1.914   6.273   2.679
 5357TIP3   OH216034   1.750   3.565   1.543
 5357TIP3    H116035   1.777   3.558   1.452
 5357TIP3    H216036   1.708   3.651   1.549
 5358TIP3   OH216037   5.290   3.966   4.867
 5358TIP3    H116038   5.346   3.960   4.945
 5358TIP3    H216039   5.299   4.056   4.838
 5359TIP3   OH216040   3.433   0.056   2.951
 5359TIP3    H116041   3.432   0.124   2.884
 5359TIP3    H216042   3.348   0.013   2.944
 5360TIP3   OH216043   1.373   2.868   1.684
 5360TIP3    H116044   1.463   2.876   1.715
 5360TIP3    H216045   1.377   2.893   1.592
 5361TIP3   OH216046   2.516   5.767   1.926
 5361TIP3    H116047   2.528   5.860   1.948
 5361TIP3    H216048   2.461   5.768   1.848
 5362TIP3   OH216049   2.538   3.186   5.220
 5362TIP3    H116050   2.462   3.138   5.254
 5362TIP3    H216051   2.601   3.186   5.292
 5363TIP3   OH216052   1.857   4.905   2.369
 5363TIP3    H116053   1.832   4.827   2.418
 5363TIP3    H216054   1.919   4.873   2.303
 5364TIP3   OH216055   4.893   1.348   5.806
 5364TIP3    H116056   4.900   1.265   5.854
 5364TIP3    H216057   4.978   1.359   5.765
 5365TIP3   OH216058   4.843   1.724   0.275
 5365TIP3    H116059   4.839   1.657   0.207
 5365TIP3    H216060   4.832   1.807   0.227
 5366TIP3   OH216061   5.456   1.344   4.309
 5366TIP3    H116062   5.490   1.431   4.290
 5366TIP3    H216063   5.522   1.304   4.365
 5367TIP3   OH216064   1.415   4.591   3.289
 5367TIP3    H116065   1.327   4.602   3.327
 5367TIP3    H216066   1.433   4.497   3.298
 5368TIP3   OH216067   3.521   2.864   4.932
 5368TIP3    H116068   3.445   2.886   4.987
 5368TIP3    H216069   3.565   2.793   4.979
 5369TIP3   OH216070   2.620   6.510   5.699
 5369TIP3    H116071   2.621   6.525   5.794
 5369TIP3    H216072   2.610   6.415   5.689
 5370TIP3   OH216073   2.879   5.538   0.729
 5370TIP3    H116074   2.927   5.619   0.745
 5370TIP3    H216075   2.794   5.552   0.769
 5371TIP3   OH216076   0.846   0.720   5.875
 5371TIP3    H116077   0.775   0.673   5.832
 5371TIP3    H216078   0.899   0.650   5.915
 5372TIP3   OH216079   5.183   1.605   4.077
 5372TIP3    H116080   5.246   1.534   4.075
 5372TIP3    H216081   5.142   1.603   3.991
 5373TIP3   OH216082   3.472   5.959   1.404
 5373TIP3    H116083   3.428   5.888   1.450
 5373TIP3    H216084   3.562   5.928   1.393
 5374TIP3   OH216085   3.275   0.259   0.454
 5374TIP3    H116086   3.338   0.187   0.456
 5374TIP3    H216087   3.319   0.331   0.499
 5375TIP3   OH216088   1.340   3.183   4.789
 5375TIP3    H116089   1.376   3.191   4.700
 5375TIP3    H216090   1.417   3.189   4.846
 5376TIP3   OH216091   0.062   0.568   1.255
 5376TIP3    H116092  -0.014   0.613   1.219
 5376TIP3    H216093   0.027   0.515   1.326
 5377TIP3   OH216094   0.059   4.591   4.828
 5377TIP3    H116095   0.101   4.658   4.775
 5377TIP3    H216096   0.131   4.544   4.870
 5378TIP3   OH216097   0.411   4.305   5.893
 5378TIP3    H116098   0.345   4.250   5.851
 5378TIP3    H216099   0.447   4.250   5.962
 5379TIP3   OH216100   6.638   1.564   0.477
 5379TIP3    H116101   6.646   1.536   0.386
 5379TIP3    H216102   6.628   1.659   0.472
 5380TIP3   OH216103   6.821   5.114   0.687
 5380TIP3    H116104   6.903   5.152   0.719
 5380TIP3    H216105   6.849   5.038   0.636
 5381TIP3   OH216106   0.030   5.650   2.820
 5381TIP3    H116107   0.013   5.712   2.891
 5381TIP3    H216108  -0.029   5.678   2.749
 5382TIP3   OH216109   3.942   6.754   4.736
 5382TIP3    H116110   3.877   6.762   4.805
 5382TIP3    H216111   4.011   6.698   4.773
 5383TIP3   OH216112   2.000   2.969   1.666
 5383TIP3    H116113   2.004   2.892   1.608
 5383TIP3    H216114   2.048   3.037   1.619
 5384TIP3   OH216115   7.024   4.721   1.767
 5384TIP3    H116116   6.975   4.790   1.811
 5384TIP3    H216117   7.005   4.642   1.818
 5385TIP3   OH216118   3.646   1.963   5.060
 5385TIP3    H116119   3.627   2.055   5.040
 5385TIP3    H216120   3.715   1.967   5.126
 5386TIP3   OH216121   0.948   5.602   2.033
 5386TIP3    H116122   1.028   5.594   2.086
 5386TIP3    H216123   0.884   5.546   2.077
 5387TIP3   OH216124   5.334   5.070   0.878
 5387TIP3    H116125   5.332   5.012   0.802
 5387TIP3    H216126   5.410   5.126   0.863
 5388TIP3   OH216127   2.627   4.565   0.660
 5388TIP3    H116128   2.546   4.514   0.663
 5388TIP3    H216129   2.612   4.631   0.592
 5389TIP3   OH216130   6.266   2.415   5.318
 5389TIP3    H116131   6.280   2.464   5.399
 5389TIP3    H216132   6.311   2.332   5.332
 5390TIP3   OH216133   7.034   1.028   4.689
 5390TIP3    H116134   7.012   0.936   4.698
 5390TIP3    H216135   7.118   1.029   4.643
 5391TIP3   OH216136   6.468   4.273   2.509
 5391TIP3    H116137   6.382   4.288   2.471
 5391TIP3    H216138   6.455   4.204   2.574
 5392TIP3   OH216139   4.466   4.694   3.499
 5392TIP3    H116140   4.383   4.718   3.458
 5392TIP3    H216141   4.511   4.642   3.433
 5393TIP3   OH216142   2.271   1.393   1.640
 5393TIP3    H116143   2.328   1.347   1.579
 5393TIP3    H216144   2.226   1.323   1.688
 5394TIP3   OH216145   4.431   1.576   3.539
 5394TIP3    H116146   4.503   1.577   3.475
 5394TIP3    H216147   4.435   1.488   3.578
 5395TIP3   OH216148   0.277   3.942   3.827
 5395TIP3    H116149   0.238   3.862   3.791
 5395TIP3    H216150   0.202   3.998   3.849
 5396TIP3   OH216151   2.495   6.156   2.270
 5396TIP3    H116152   2.572   6.112   2.307
 5396TIP3    H216153   2.429   6.152   2.340
 5397TIP3   OH216154   6.333   1.927   1.100
 5397TIP3    H116155   6.238   1.919   1.092
 5397TIP3    H216156   6.368   1.863   1.038
 5398TIP3   OH216157   2.688   2.877   1.286
 5398TIP3    H116158   2.734   2.800   1.319
 5398TIP3    H216159   2.726   2.951   1.334
 5399TIP3   OH216160   0.041   4.075   1.661
 5399TIP3    H116161   0.063   4.164   1.689
 5399TIP3    H216162   0.078   4.068   1.573
 5400TIP3   OH216163   0.212   4.740   1.629
 5400TIP3    H116164   0.225   4.646   1.611
 5400TIP3    H216165   0.283   4.762   1.690
 5401TIP3   OH216166   2.729   6.805   3.479
 5401TIP3    H116167   2.754   6.713   3.486
 5401TIP3    H216168   2.789   6.842   3.414
 5402TIP3   OH216169   0.321   1.311   3.410
 5402TIP3    H116170   0.377   1.280   3.481
 5402TIP3    H216171   0.337   1.406   3.407
 5403TIP3   OH216172   1.623   6.560   5.313
 5403TIP3    H116173   1.572   6.510   5.376
 5403TIP3    H216174   1.690   6.603   5.366
 5404TIP3   OH216175   4.721   4.320   5.740
 5404TIP3    H116176   4.640   4.340   5.693
 5404TIP3    H216177   4.784   4.299   5.672
 5405TIP3   OH216178   4.478   2.205   5.868
 5405TIP3    H116179   4.389   2.172   5.870
 5405TIP3    H216180   4.506   2.195   5.777
 5406TIP3   OH216181   0.563   5.014   2.872
 5406TIP3    H116182   0.496   5.014   2.804
 5406TIP3    H216183   0.627   4.950   2.842
 5407TIP3   OH216184   3.937   4.101   3.326
 5407TIP3    H116185   3.858   4.150   3.346
 5407TIP3    H216186   3.920   4.060   3.241
 5408TIP3   OH216187   4.812   6.737   2.209
 5408TIP3    H116188   4.870   6.771   2.277
 5408TIP3    H216189   4.818   6.642   2.219
 5409TIP3   OH216190   0.320   5.837   0.593
 5409TIP3    H116191   0.252   5.866   0.532
 5409TIP3    H216192   0.398   5.826   0.538
 5410TIP3   OH216193   4.368   0.184   2.731
 5410TIP3    H116194   4.452   0.219   2.702
 5410TIP3    H216195   4.359   0.100   2.686
 5411TIP3   OH216196   3.598   0.531   3.690
 5411TIP3    H116197   3.666   0.594   3.668
 5411TIP3    H216198   3.646   0.456   3.726
 5412TIP3   OH216199   2.256   1.825   2.490
 5412TIP3    H116200   2.200   1.748   2.480
 5412TIP3    H216201   2.196   1.897   2.504
 5413TIP3   OH216202   2.554   6.483   5.290
 5413TIP3    H116203   2.597   6.567   5.274
 5413TIP3    H216204   2.506   6.464   5.210
 5414TIP3   OH216205   4.758   1.898   1.677
 5414TIP3    H116206   4.752   1.852   1.594
 5414TIP3    H216207   4.726   1.986   1.658
 5415TIP3   OH216208   4.470   1.318   2.400
 5415TIP3    H116209   4.464   1.224   2.416
 5415TIP3    H216210   4.474   1.357   2.487
 5416TIP3   OH216211   4.882   4.816   4.728
 5416TIP3    H116212   4.799   4.864   4.722
 5416TIP3    H216213   4.887   4.766   4.646
 5417TIP3   OH216214   5.004   5.080   5.425
 5417TIP3    H116215   4.953   5.156   5.397
 5417TIP3    H216216   5.029   5.100   5.515
 5418TIP3   OH216217   6.095   0.890   0.549
 5418TIP3    H116218   6.007   0.854   0.537
 5418TIP3    H216219   6.087   0.981   0.522
 5419TIP3   OH216220   2.051   5.483   2.366
 5419TIP3    H116221   2.127   5.425   2.369
 5419TIP3    H216222   1.980   5.426   2.335
 5420TIP3   OH216223   4.107   3.302   2.243
 5420TIP3    H116224   4.178   3.309   2.178
 5420TIP3    H216225   4.116   3.213   2.278
 5421TIP3   OH216226   0.043   2.389   4.616
 5421TIP3    H116227   0.096   2.385   4.537
 5421TIP3    H216228   0.088   2.332   4.679
 5422TIP3   OH216229   6.671   5.570   4.357
 5422TIP3    H116230   6.653   5.518   4.436
 5422TIP3    H216231   6.623   5.525   4.288
 5423TIP3   OH216232   4.265   0.356   4.582
 5423TIP3    H116233   4.294   0.265   4.585
 5423TIP3    H216234   4.214   0.367   4.662
 5424TIP3   OH216235   1.583   1.508   4.465
 5424TIP3    H116236   1.583   1.578   4.530
 5424TIP3    H216237   1.492   1.482   4.458
 5425TIP3   OH216238   3.361   6.736   1.761
 5425TIP3    H116239   3.376   6.642   1.763
 5425TIP3    H216240   3.265   6.745   1.758
 5426TIP3   OH216241   3.460   6.489   4.301
 5426TIP3    H116242   3.472   6.532   4.216
 5426TIP3    H216243   3.376   6.522   4.333
 5427TIP3   OH216244   3.505   1.021   1.087
 5427TIP3    H116245   3.521   0.927   1.089
 5427TIP3    H216246   3.550   1.055   1.164
 5428TIP3   OH216247   3.752   3.906   0.269
 5428TIP3    H116248   3.845   3.916   0.294
 5428TIP3    H216249   3.739   3.812   0.263
 5429TIP3   OH216250   2.335   5.470   0.241
 5429TIP3    H116251   2.242   5.474   0.263
 5429TIP3    H216252   2.341   5.397   0.179
 5430TIP3   OH216253   5.695   0.910   3.628
 5430TIP3    H116254   5.663   0.972   3.563
 5430TIP3    H216255   5.712   0.964   3.706
 5431TIP3   OH216256   6.208   6.255   1.545
 5431TIP3    H116257   6.237   6.208   1.623
 5431TIP3    H216258   6.245   6.343   1.554
 5432TIP3   OH216259   2.652   3.481   2.875
 5432TIP3    H116260   2.725   3.430   2.840
 5432TIP3    H216261   2.673   3.571   2.852
 5433TIP3   OH216262   0.581   3.505   0.297
 5433TIP3    H116263   0.628   3.432   0.339
 5433TIP3    H216264   0.554   3.561   0.370
 5434TIP3   OH216265   6.844   1.266   5.481
 5434TIP3    H116266   6.866   1.181   5.443
 5434TIP3    H216267   6.833   1.248   5.574
 5435TIP3   OH216268   0.768   2.875   4.390
 5435TIP3    H116269   0.841   2.851   4.332
 5435TIP3    H216270   0.710   2.800   4.387
 5436TIP3   OH216271   2.307   1.509   1.299
 5436TIP3    H116272   2.401   1.494   1.310
 5436TIP3    H216273   2.297   1.533   1.206
 5437TIP3   OH216274   6.391   4.919   0.238
 5437TIP3    H116275   6.437   4.889   0.160
 5437TIP3    H216276   6.392   4.844   0.298
 5438TIP3   OH216277   1.993   0.463   1.511
 5438TIP3    H116278   1.958   0.530   1.570
 5438TIP3    H216279   2.085   0.487   1.499
 5439TIP3   OH216280   4.055   1.987   0.624
 5439TIP3    H116281   4.151   1.984   0.629
 5439TIP3    H216282   4.033   2.079   0.637
 5440TIP3   OH216283   6.211   2.393   2.434
 5440TIP3    H116284   6.263   2.464   2.398
 5440TIP3    H216285   6.258   2.366   2.513
 5441TIP3   OH216286   4.911   0.575   2.924
 5441TIP3    H116287   4.991   0.627   2.933
 5441TIP3    H216288   4.900   0.564   2.830
 5442TIP3   OH216289   7.051   1.720   2.640
 5442TIP3    H116290   7.056   1.651   2.707
 5442TIP3    H216291   6.961   1.715   2.607
 5443TIP3   OH216292   4.196   1.344   5.651
 5443TIP3    H116293   4.140   1.267   5.664
 5443TIP3    H216294   4.170   1.378   5.566
 5444TIP3   OH216295   0.717   4.766   2.705
 5444TIP3    H116296   0.806   4.777   2.737
 5444TIP3    H216297   0.679   4.700   2.764
 5445TIP3   OH216298   2.810   3.627   4.405
 5445TIP3    H116299   2.889   3.670   4.439
 5445TIP3    H216300   2.841   3.543   4.372
 5446TIP3   OH216301   1.810   0.605   4.986
 5446TIP3    H116302   1.787   0.513   4.980
 5446TIP3    H216303   1.905   0.606   4.996
 5447TIP3   OH216304   0.411   1.671   4.110
 5447TIP3    H116305   0.328   1.689   4.155
 5447TIP3    H216306   0.413   1.734   4.038
 5448TIP3   OH216307   0.997   5.582   0.439
 5448TIP3    H116308   1.076   5.637   0.434
 5448TIP3    H216309   0.999   5.529   0.360
 5449TIP3   OH216310   2.812   4.159   4.090
 5449TIP3    H116311   2.823   4.133   4.181
 5449TIP3    H216312   2.740   4.104   4.058
 5450TIP3   OH216313   3.306   3.902   3.605
 5450TIP3    H116314   3.386   3.953   3.593
 5450TIP3    H216315   3.332   3.811   3.590
 5451TIP3   OH216316   4.885   6.316   2.617
 5451TIP3    H116317   4.978   6.301   2.636
 5451TIP3    H216318   4.885   6.382   2.548
 5452TIP3   OH216319   1.654   0.178   5.615
 5452TIP3    H116320   1.724   0.232   5.579
 5452TIP3    H216321   1.614   0.136   5.539
 5453TIP3   OH216322   4.565   2.403   2.938
 5453TIP3    H116323   4.617   2.393   2.859
 5453TIP3    H216324   4.592   2.488   2.974
 5454TIP3   OH216325   4.752   6.744   4.682
 5454TIP3    H116326   4.745   6.756   4.777
 5454TIP3    H216327   4.673   6.696   4.658
 5455TIP3   OH216328   3.104   1.314   1.208
 5455TIP3    H116329   3.172   1.247   1.206
 5455TIP3    H216330   3.031   1.276   1.159
 5456TIP3   OH216331   0.487   1.283   2.306
 5456TIP3    H116332   0.581   1.290   2.321
 5456TIP3    H216333   0.471   1.189   2.298
 5457TIP3   OH216334   1.780   5.517   3.635
 5457TIP3    H116335   1.738   5.533   3.550
 5457TIP3    H216336   1.863   5.564   3.630
 5458TIP3   OH216337   2.869   1.065   1.961
 5458TIP3    H116338   2.938   1.130   1.948
 5458TIP3    H216339   2.900   1.011   2.033
 5459TIP3   OH216340   3.848   3.354   3.688
 5459TIP3    H116341   3.785   3.288   3.717
 5459TIP3    H216342   3.802   3.437   3.697
 5460TIP3   OH216343   2.238   2.159   4.072
 5460TIP3    H116344   2.286   2.227   4.120
 5460TIP3    H216345   2.155   2.151   4.119
 5461TIP3   OH216346   2.040   4.459   4.526
 5461TIP3    H116347   2.058   4.480   4.434
 5461TIP3    H216348   2.117   4.410   4.555
 5462TIP3   OH216349   4.351   2.110   1.091
 5462TIP3    H116350   4.301   2.123   1.011
 5462TIP3    H216351   4.426   2.169   1.082
 5463TIP3   OH216352   2.830   2.638   1.643
 5463TIP3    H116353   2.824   2.722   1.689
 5463TIP3    H216354   2.830   2.661   1.550
 5464TIP3   OH216355   5.291   6.580   0.601
 5464TIP3    H116356   5.235   6.658   0.609
 5464TIP3    H216357   5.356   6.605   0.535
 5465TIP3   OH216358   0.935   6.247   3.471
 5465TIP3    H116359   0.901   6.323   3.520
 5465TIP3    H216360   1.019   6.229   3.511
 5466TIP3   OH216361   4.406   0.250   0.187
 5466TIP3    H116362   4.408   0.284   0.277
 5466TIP3    H216363   4.481   0.191   0.183
 5467TIP3   OH216364   7.060   5.949   1.282
 5467TIP3    H116365   7.023   6.022   1.330
 5467TIP3    H216366   7.068   5.878   1.346
 5468TIP3   OH216367   0.420   0.796   5.012
 5468TIP3    H116368   0.457   0.733   5.075
 5468TIP3    H216369   0.476   0.788   4.935
 5469TIP3   OH216370   4.822   5.278   0.578
 5469TIP3    H116371   4.744   5.240   0.618
 5469TIP3    H216372   4.789   5.329   0.504
 5470TIP3   OH216373   6.484   4.572   3.128
 5470TIP3    H116374   6.468   4.480   3.151
 5470TIP3    H216375   6.414   4.593   3.066
 5471TIP3   OH216376   5.095   2.700   2.483
 5471TIP3    H116377   5.072   2.792   2.476
 5471TIP3    H216378   5.190   2.698   2.472
 5472TIP3   OH216379   2.377   6.123   5.133
 5472TIP3    H116380   2.355   6.216   5.126
 5472TIP3    H216381   2.470   6.122   5.156
 5473TIP3   OH216382   3.430   0.384   0.126
 5473TIP3    H116383   3.467   0.337   0.051
 5473TIP3    H216384   3.471   0.343   0.202
 5474TIP3   OH216385   2.613   0.451   4.085
 5474TIP3    H116386   2.672   0.457   4.010
 5474TIP3    H216387   2.647   0.514   4.148
 5475TIP3   OH216388   7.039   2.842   1.592
 5475TIP3    H116389   7.124   2.883   1.608
 5475TIP3    H216390   6.977   2.893   1.645
 5476TIP3   OH216391   3.815   6.649   1.559
 5476TIP3    H116392   3.855   6.638   1.473
 5476TIP3    H216393   3.758   6.573   1.569
 5477TIP3   OH216394   5.751   0.057   4.259
 5477TIP3    H116395   5.738   0.101   4.175
 5477TIP3    H216396   5.722   0.122   4.324
 5478TIP3   OH216397   5.976   6.753   4.846
 5478TIP3    H116398   5.931   6.707   4.917
 5478TIP3    H216399   6.068   6.729   4.856
 5479TIP3   OH216400   1.776   1.347   2.027
 5479TIP3    H116401   1.716   1.314   2.094
 5479TIP3    H216402   1.731   1.332   1.944
 5480TIP3   OH216403   5.892   4.493   1.720
 5480TIP3    H116404   5.801   4.477   1.744
 5480TIP3    H216405   5.888   4.528   1.631
 5481TIP3   OH216406   7.110   0.691   0.255
 5481TIP3    H116407   7.018   0.683   0.230
 5481TIP3    H216408   7.141   0.600   0.262
 5482TIP3   OH216409   6.563   4.418   5.141
 5482TIP3    H116410   6.579   4.323   5.137
 5482TIP3    H216411   6.469   4.426   5.160
 5483TIP3   OH216412   2.392   6.267   4.010
 5483TIP3    H116413   2.412   6.360   3.994
 5483TIP3    H216414   2.442   6.221   3.943
 5484TIP3   OH216415   4.064   3.935   4.019
 5484TIP3    H116416   4.041   4.023   3.987
 5484TIP3    H216417   4.158   3.939   4.034
 5485TIP3   OH216418   2.469   1.201   2.517
 5485TIP3    H116419   2.529   1.216   2.444
 5485TIP3    H216420   2.390   1.166   2.477
 5486TIP3   OH216421   1.200   1.090   1.629
 5486TIP3    H116422   1.188   1.127   1.541
 5486TIP3    H216423   1.188   0.996   1.616
 5487TIP3   OH216424   1.569   4.643   0.723
 5487TIP3    H116425   1.481   4.639   0.762
 5487TIP3    H216426   1.575   4.564   0.669
 5488TIP3   OH216427   4.978   4.173   2.649
 5488TIP3    H116428   5.058   4.223   2.636
 5488TIP3    H216429   4.948   4.197   2.736
 5489TIP3   OH216430   2.310   4.170   3.371
 5489TIP3    H116431   2.333   4.227   3.445
 5489TIP3    H216432   2.392   4.156   3.325
 5490TIP3   OH216433   5.496   3.887   0.356
 5490TIP3    H116434   5.417   3.877   0.301
 5490TIP3    H216435   5.568   3.867   0.297
 5491TIP3   OH216436   0.934   3.088   2.944
 5491TIP3    H116437   0.871   3.033   2.897
 5491TIP3    H216438   0.901   3.090   3.034
 5492TIP3   OH216439   4.622   5.464   5.162
 5492TIP3    H116440   4.648   5.450   5.253
 5492TIP3    H216441   4.612   5.559   5.154
 5493TIP3   OH216442   2.521   5.499   1.609
 5493TIP3    H116443   2.450   5.442   1.582
 5493TIP3    H216444   2.548   5.544   1.530
 5494TIP3   OH216445   0.233   2.533   3.798
 5494TIP3    H116446   0.167   2.519   3.731
 5494TIP3    H216447   0.315   2.503   3.759
 5495TIP3   OH216448   5.898   1.002   4.793
 5495TIP3    H116449   5.967   1.060   4.762
 5495TIP3    H216450   5.933   0.914   4.779
 5496TIP3   OH216451   3.019   2.496   3.079
 5496TIP3    H116452   3.091   2.437   3.058
 5496TIP3    H216453   2.973   2.452   3.151
 5497TIP3   OH216454   6.700   4.637   2.107
 5497TIP3    H116455   6.687   4.723   2.067
 5497TIP3    H216456   6.792   4.617   2.093
 5498TIP3   OH216457   4.921   0.282   3.980
 5498TIP3    H116458   4.912   0.306   4.072
 5498TIP3    H216459   4.840   0.312   3.939
 5499TIP3   OH216460   4.391   6.193   4.148
 5499TIP3    H116461   4.398   6.241   4.231
 5499TIP3    H216462   4.481   6.169   4.127
 5500TIP3   OH216463   4.104   0.506   3.919
 5500TIP3    H116464   4.032   0.542   3.971
 5500TIP3    H216465   4.109   0.563   3.842
 5501TIP3   OH216466   0.377   1.476   2.148
 5501TIP3    H116467   0.426   1.429   2.080
 5501TIP3    H216468   0.381   1.418   2.225
 5502TIP3   OH216469   4.181   2.806   5.479
 5502TIP3    H116470   4.234   2.727   5.469
 5502TIP3    H216471   4.221   2.870   5.420
 5503TIP3   OH216472   2.164   0.967   2.876
 5503TIP3    H116473   2.076   1.006   2.875
 5503TIP3    H216474   2.152   0.883   2.919
 5504TIP3   OH216475   5.549   5.152   4.224
 5504TIP3    H116476   5.530   5.190   4.138
 5504TIP3    H216477   5.470   5.104   4.248
 5505TIP3   OH216478   5.406   3.194   0.938
 5505TIP3    H116479   5.356   3.195   0.857
 5505TIP3    H216480   5.416   3.102   0.960
 5506TIP3   OH216481   6.290   2.983   4.208
 5506TIP3    H116482   6.381   3.007   4.224
 5506TIP3    H216483   6.292   2.889   4.190
 5507TIP3   OH216484   2.281   3.494   1.893
 5507TIP3    H116485   2.310   3.518   1.981
 5507TIP3    H216486   2.262   3.578   1.850
 5508TIP3   OH216487   5.001   6.569   0.862
 5508TIP3    H116488   5.029   6.548   0.773
 5508TIP3    H216489   5.074   6.620   0.898
 5509TIP3   OH216490   5.331   4.108   2.258
 5509TIP3    H116491   5.410   4.070   2.219
 5509TIP3    H216492   5.339   4.202   2.244
 5510TIP3   OH216493   1.295   2.363   5.228
 5510TIP3    H116494   1.385   2.392   5.211
 5510TIP3    H216495   1.275   2.398   5.314
 5511TIP3   OH216496   5.264   1.825   3.867
 5511TIP3    H116497   5.205   1.752   3.848
 5511TIP3    H216498   5.332   1.820   3.800
 5512TIP3   OH216499   6.776   0.102   2.057
 5512TIP3    H116500   6.828   0.098   2.138
 5512TIP3    H216501   6.725   0.021   2.058
 5513TIP3   OH216502   5.278   0.764   1.175
 5513TIP3    H116503   5.248   0.674   1.167
 5513TIP3    H216504   5.326   0.766   1.258
 5514TIP3   OH216505   7.134   0.964   1.636
 5514TIP3    H116506   7.060   1.024   1.640
 5514TIP3    H216507   7.098   0.878   1.657
 5515TIP3   OH216508   6.796   6.654   3.526
 5515TIP3    H116509   6.870   6.596   3.541
 5515TIP3    H216510   6.835   6.734   3.490
 5516TIP3   OH216511   1.926   0.906   0.354
 5516TIP3    H116512   1.979   0.841   0.401
 5516TIP3    H216513   1.874   0.855   0.292
 5517TIP3   OH216514   5.542   3.771   5.250
 5517TIP3    H116515   5.459   3.811   5.223
 5517TIP3    H216516   5.553   3.797   5.341
 5518TIP3   OH216517   1.089   2.021   0.958
 5518TIP3    H116518   1.055   2.026   1.048
 5518TIP3    H216519   1.108   2.111   0.934
 5519TIP3   OH216520   5.940   2.570   2.899
 5519TIP3    H116521   5.885   2.609   2.832
 5519TIP3    H216522   5.879   2.540   2.966
 5520TIP3   OH216523   3.310   3.033   1.589
 5520TIP3    H116524   3.352   3.099   1.644
 5520TIP3    H216525   3.357   3.038   1.505
 5521TIP3   OH216526   6.570   0.321   1.977
 5521TIP3    H116527   6.597   0.229   1.984
 5521TIP3    H216528   6.579   0.355   2.066
 5522TIP3   OH216529   3.508   1.076   0.826
 5522TIP3    H116530   3.508   1.080   0.922
 5522TIP3    H216531   3.529   0.985   0.807
 5523TIP3   OH216532   0.904   2.221   5.702
 5523TIP3    H116533   0.948   2.165   5.767
 5523TIP3    H216534   0.872   2.296   5.753
 5524TIP3   OH216535   0.476   3.525   4.393
 5524TIP3    H116536   0.421   3.587   4.441
 5524TIP3    H216537   0.466   3.549   4.301
 5525TIP3   OH216538   4.598   2.755   0.705
 5525TIP3    H116539   4.503   2.770   0.705
 5525TIP3    H216540   4.632   2.820   0.767
 5526TIP3   OH216541   6.472   3.902   5.174
 5526TIP3    H116542   6.454   3.841   5.246
 5526TIP3    H216543   6.402   3.886   5.111
 5527TIP3   OH216544   2.608   6.551   4.632
 5527TIP3    H116545   2.690   6.562   4.583
 5527TIP3    H216546   2.558   6.487   4.581
 5528TIP3   OH216547   3.311   1.188   3.650
 5528TIP3    H116548   3.342   1.135   3.577
 5528TIP3    H216549   3.382   1.249   3.668
 5529TIP3   OH216550   1.594   4.675   4.728
 5529TIP3    H116551   1.621   4.625   4.650
 5529TIP3    H216552   1.658   4.746   4.732
 5530TIP3   OH216553   2.257   4.559   3.989
 5530TIP3    H116554   2.288   4.472   3.962
 5530TIP3    H216555   2.277   4.615   3.914
 5531TIP3   OH216556   4.389   1.885   1.599
 5531TIP3    H116557   4.430   1.820   1.542
 5531TIP3    H216558   4.377   1.839   1.682
 5532TIP3   OH216559   3.308   5.228   1.741
 5532TIP3    H116560   3.226   5.227   1.791
 5532TIP3    H216561   3.376   5.218   1.808
 5533TIP3   OH216562   6.272   0.492   5.074
 5533TIP3    H116563   6.179   0.476   5.060
 5533TIP3    H216564   6.303   0.415   5.122
 5534TIP3   OH216565   3.799   4.455   0.852
 5534TIP3    H116566   3.832   4.479   0.938
 5534TIP3    H216567   3.713   4.497   0.846
 5535TIP3   OH216568   4.926   4.763   0.793
 5535TIP3    H116569   4.864   4.746   0.864
 5535TIP3    H216570   4.874   4.808   0.727
 5536TIP3   OH216571   0.835   1.946   2.278
 5536TIP3    H116572   0.782   1.869   2.255
 5536TIP3    H216573   0.807   2.013   2.216
 5537TIP3   OH216574   0.378   0.079   2.560
 5537TIP3    H116575   0.389   0.054   2.652
 5537TIP3    H216576   0.465   0.070   2.521
 5538TIP3   OH216577   4.276   5.137   4.508
 5538TIP3    H116578   4.253   5.159   4.418
 5538TIP3    H216579   4.192   5.129   4.554
 5539TIP3   OH216580   5.609   6.043   0.316
 5539TIP3    H116581   5.532   6.039   0.259
 5539TIP3    H216582   5.617   6.135   0.340
 5540TIP3   OH216583   2.602   4.124   4.594
 5540TIP3    H116584   2.517   4.098   4.629
 5540TIP3    H216585   2.651   4.042   4.585
 5541TIP3   OH216586   7.136   1.307   5.185
 5541TIP3    H116587   7.209   1.366   5.207
 5541TIP3    H216588   7.149   1.287   5.093
 5542TIP3   OH216589   1.343   0.267   1.923
 5542TIP3    H116590   1.314   0.214   1.998
 5542TIP3    H216591   1.269   0.323   1.903
 5543TIP3   OH216592   7.017   2.006   1.337
 5543TIP3    H116593   6.935   2.048   1.310
 5543TIP3    H216594   7.084   2.048   1.283
 5544TIP3   OH216595   6.766   1.441   3.471
 5544TIP3    H116596   6.767   1.413   3.562
 5544TIP3    H216597   6.714   1.521   3.471
 5545TIP3   OH216598   2.730   1.514   4.558
 5545TIP3    H116599   2.781   1.508   4.477
 5545TIP3    H216600   2.644   1.545   4.529
 5546TIP3   OH216601   3.328   3.564   2.747
 5546TIP3    H116602   3.376   3.527   2.821
 5546TIP3    H216603   3.385   3.634   2.714
 5547TIP3   OH216604   4.701   5.271   3.869
 5547TIP3    H116605   4.708   5.221   3.951
 5547TIP3    H216606   4.689   5.362   3.898
 5548TIP3   OH216607   1.464   2.922   4.896
 5548TIP3    H116608   1.408   2.999   4.904
 5548TIP3    H216609   1.478   2.892   4.986
 5549TIP3   OH216610   3.231   4.259   2.241
 5549TIP3    H116611   3.293   4.267   2.313
 5549TIP3    H216612   3.237   4.342   2.194
 5550TIP3   OH216613   6.489   4.462   4.618
 5550TIP3    H116614   6.414   4.520   4.605
 5550TIP3    H216615   6.565   4.515   4.595
 5551TIP3   OH216616   2.221   4.310   3.660
 5551TIP3    H116617   2.132   4.299   3.628
 5551TIP3    H216618   2.217   4.285   3.752
 5552TIP3   OH216619   7.047   5.925   4.193
 5552TIP3    H116620   7.026   5.845   4.241
 5552TIP3    H216621   7.006   5.913   4.107
 5553TIP3   OH216622   6.545   0.654   4.638
 5553TIP3    H116623   6.516   0.595   4.569
 5553TIP3    H216624   6.542   0.741   4.599
 5554TIP3   OH216625   4.926   0.184   1.270
 5554TIP3    H116626   4.947   0.218   1.356
 5554TIP3    H216627   5.007   0.143   1.239
 5555TIP3   OH216628   2.354   4.915   4.591
 5555TIP3    H116629   2.339   4.958   4.675
 5555TIP3    H216630   2.277   4.860   4.578
 5556TIP3   OH216631   3.819   1.990   3.176
 5556TIP3    H116632   3.849   1.956   3.091
 5556TIP3    H216633   3.847   2.082   3.176
 5557TIP3   OH216634   2.023   2.630   5.328
 5557TIP3    H116635   2.071   2.595   5.403
 5557TIP3    H216636   2.035   2.563   5.260
 5558TIP3   OH216637   2.496   5.207   2.241
 5558TIP3    H116638   2.506   5.277   2.305
 5558TIP3    H216639   2.586   5.186   2.215
 5559TIP3   OH216640   2.338   5.095   2.961
 5559TIP3    H116641   2.395   5.073   3.035
 5559TIP3    H216642   2.263   5.036   2.970
 5560TIP3   OH216643   0.271   1.873   3.969
 5560TIP3    H116644   0.180   1.903   3.972
 5560TIP3    H216645   0.322   1.954   3.975
 5561TIP3   OH216646   1.065   1.934   4.044
 5561TIP3    H116647   1.135   1.987   4.006
 5561TIP3    H216648   1.030   1.884   3.970
 5562TIP3   OH216649   2.771   4.291   0.508
 5562TIP3    H116650   2.786   4.370   0.559
 5562TIP3    H216651   2.830   4.299   0.433
 5563TIP3   OH216652   5.165   4.293   3.271
 5563TIP3    H116653   5.236   4.349   3.303
 5563TIP3    H216654   5.210   4.222   3.225
 5564TIP3   OH216655   3.535   4.090   0.255
 5564TIP3    H116656   3.554   3.998   0.239
 5564TIP3    H216657   3.617   4.126   0.288
 5565TIP3   OH216658   6.102   4.430   0.455
 5565TIP3    H116659   6.133   4.375   0.527
 5565TIP3    H216660   6.172   4.493   0.441
 5566TIP3   OH216661   5.650   5.236   3.046
 5566TIP3    H116662   5.709   5.229   3.122
 5566TIP3    H216663   5.604   5.318   3.059
 5567TIP3   OH216664   6.640   0.950   4.642
 5567TIP3    H116665   6.677   1.010   4.577
 5567TIP3    H216666   6.545   0.960   4.631
 5568TIP3   OH216667   0.417   5.044   3.632
 5568TIP3    H116668   0.432   4.951   3.649
 5568TIP3    H216669   0.415   5.050   3.536
 5569TIP3   OH216670   5.538   0.341   2.417
 5569TIP3    H116671   5.620   0.322   2.463
 5569TIP3    H216672   5.489   0.396   2.479
 5570TIP3   OH216673   3.581   5.434   2.241
 5570TIP3    H116674   3.603   5.517   2.199
 5570TIP3    H216675   3.505   5.455   2.296
 5571TIP3   OH216676   3.021   1.731   0.626
 5571TIP3    H116677   2.983   1.718   0.540
 5571TIP3    H216678   2.983   1.813   0.657
 5572TIP3   OH216679   2.056   5.380   3.265
 5572TIP3    H116680   1.974   5.350   3.304
 5572TIP3    H216681   2.119   5.377   3.337
 5573TIP3   OH216682   5.095   5.071   5.690
 5573TIP3    H116683   5.176   5.020   5.691
 5573TIP3    H216684   5.097   5.122   5.770
 5574TIP3   OH216685   6.907   1.443   2.945
 5574TIP3    H116686   6.842   1.503   2.909
 5574TIP3    H216687   6.988   1.466   2.899
 5575TIP3   OH216688   5.198   2.117   3.689
 5575TIP3    H116689   5.138   2.071   3.746
 5575TIP3    H216690   5.268   2.054   3.671
 5576TIP3   OH216691   2.126   5.628   4.824
 5576TIP3    H116692   2.098   5.584   4.744
 5576TIP3    H216693   2.078   5.711   4.823
 5577TIP3   OH216694   0.426   4.277   1.309
 5577TIP3    H116695   0.335   4.278   1.280
 5577TIP3    H216696   0.443   4.185   1.331
 5578TIP3   OH216697   5.072   5.869   3.539
 5578TIP3    H116698   5.132   5.803   3.573
 5578TIP3    H216699   5.087   5.869   3.444
 5579TIP3   OH216700   1.262   4.446   2.505
 5579TIP3    H116701   1.192   4.417   2.446
 5579TIP3    H216702   1.239   4.536   2.526
 5580TIP3   OH216703   1.648   5.728   0.069
 5580TIP3    H116704   1.590   5.786   0.118
 5580TIP3    H216705   1.735   5.746   0.103
 5581TIP3   OH216706   5.737   3.553   3.662
 5581TIP3    H116707   5.765   3.478   3.609
 5581TIP3    H216708   5.669   3.518   3.719
 5582TIP3   OH216709   6.651   3.905   3.132
 5582TIP3    H116710   6.644   3.854   3.213
 5582TIP3    H216711   6.604   3.986   3.151
 5583TIP3   OH216712   4.139   0.226   3.645
 5583TIP3    H116713   4.084   0.300   3.673
 5583TIP3    H216714   4.085   0.149   3.661
 5584TIP3   OH216715   1.577   0.313   3.838
 5584TIP3    H116716   1.499   0.364   3.816
 5584TIP3    H216717   1.560   0.283   3.927
 5585TIP3   OH216718   2.281   5.969   1.854
 5585TIP3    H116719   2.215   5.923   1.801
 5585TIP3    H216720   2.291   5.915   1.932
 5586TIP3   OH216721   2.479   5.196   4.381
 5586TIP3    H116722   2.392   5.214   4.345
 5586TIP3    H216723   2.498   5.106   4.356
 5587TIP3   OH216724   1.483   1.905   3.951
 5587TIP3    H116725   1.545   1.874   3.885
 5587TIP3    H216726   1.505   1.998   3.961
 5588TIP3   OH216727   5.961   3.748   2.869
 5588TIP3    H116728   5.877   3.779   2.837
 5588TIP3    H216729   6.014   3.736   2.791
 5589TIP3   OH216730   5.005   0.774   4.668
 5589TIP3    H116731   5.010   0.841   4.599
 5589TIP3    H216732   5.096   0.766   4.699
 5590TIP3   OH216733   0.891   1.540   1.764
 5590TIP3    H116734   0.830   1.515   1.834
 5590TIP3    H216735   0.941   1.613   1.801
 5591TIP3   OH216736   1.673   5.545   3.382
 5591TIP3    H116737   1.741   5.522   3.317
 5591TIP3    H216738   1.609   5.596   3.332
 5592TIP3   OH216739   1.866   0.180   1.271
 5592TIP3    H116740   1.792   0.151   1.325
 5592TIP3    H216741   1.854   0.275   1.264
 5593TIP3   OH216742   2.676   1.905   2.178
 5593TIP3    H116743   2.753   1.849   2.166
 5593TIP3    H216744   2.609   1.866   2.122
 5594TIP3   OH216745   1.329   6.070   5.612
 5594TIP3    H116746   1.403   6.126   5.589
 5594TIP3    H216747   1.265   6.085   5.543
 5595TIP3   OH216748   4.849   3.474   4.084
 5595TIP3    H116749   4.929   3.442   4.043
 5595TIP3    H216750   4.846   3.567   4.061
 5596TIP3   OH216751   0.799   2.826   3.056
 5596TIP3    H116752   0.748   2.858   2.982
 5596TIP3    H216753   0.819   2.735   3.033
 5597TIP3   OH216754   0.343   6.469   3.102
 5597TIP3    H116755   0.356   6.387   3.149
 5597TIP3    H216756   0.341   6.536   3.169
 5598TIP3   OH216757   0.370   3.331   2.366
 5598TIP3    H116758   0.319   3.397   2.319
 5598TIP3    H216759   0.358   3.352   2.458
 5599TIP3   OH216760   2.399   0.453   2.424
 5599TIP3    H116761   2.388   0.521   2.358
 5599TIP3    H216762   2.320   0.458   2.478
 5600TIP3   OH216763   0.388   0.637   3.795
 5600TIP3    H116764   0.470   0.591   3.814
 5600TIP3    H216765   0.322   0.568   3.795
 5601TIP3   OH216766   4.439   1.008   2.306
 5601TIP3    H116767   4.487   0.934   2.342
 5601TIP3    H216768   4.498   1.046   2.241
 5602TIP3   OH216769   6.249   5.929   0.662
 5602TIP3    H116770   6.199   5.874   0.722
 5602TIP3    H216771   6.340   5.919   0.689
 5603TIP3   OH216772   3.615   4.957   4.259
 5603TIP3    H116773   3.698   4.997   4.284
 5603TIP3    H216774   3.618   4.870   4.300
 5604TIP3   OH216775   3.393   6.180   1.588
 5604TIP3    H116776   3.465   6.117   1.582
 5604TIP3    H216777   3.314   6.127   1.598
 5605TIP3   OH216778   0.191   3.325   3.569
 5605TIP3    H116779   0.189   3.362   3.657
 5605TIP3    H216780   0.184   3.230   3.583
 5606TIP3   OH216781   5.987   3.057   3.457
 5606TIP3    H116782   5.913   3.034   3.402
 5606TIP3    H216783   6.058   3.000   3.427
 5607TIP3   OH216784   1.031   3.751   5.543
 5607TIP3    H116785   0.989   3.788   5.621
 5607TIP3    H216786   1.076   3.826   5.503
 5608TIP3   OH216787   2.811   1.060   1.685
 5608TIP3    H116788   2.836   1.065   1.778
 5608TIP3    H216789   2.884   1.017   1.642
 5609TIP3   OH216790   6.926   2.967   4.512
 5609TIP3    H116791   7.014   2.931   4.514
 5609TIP3    H216792   6.935   3.054   4.551
 5610TIP3   OH216793   3.551   3.759   5.100
 5610TIP3    H116794   3.644   3.752   5.081
 5610TIP3    H216795   3.546   3.802   5.185
 5611TIP3   OH216796   0.277   2.109   2.435
 5611TIP3    H116797   0.233   2.052   2.371
 5611TIP3    H216798   0.350   2.056   2.467
 5612TIP3   OH216799   1.086   2.153   0.582
 5612TIP3    H116800   1.063   2.147   0.489
 5612TIP3    H216801   1.128   2.069   0.601
 5613TIP3   OH216802   5.401   4.385   3.356
 5613TIP3    H116803   5.489   4.361   3.326
 5613TIP3    H216804   5.383   4.326   3.428
 5614TIP3   OH216805   5.432   6.132   4.558
 5614TIP3    H116806   5.346   6.152   4.521
 5614TIP3    H216807   5.415   6.116   4.651
 5615TIP3   OH216808   1.919   1.183   1.519
 5615TIP3    H116809   1.951   1.262   1.562
 5615TIP3    H216810   1.838   1.210   1.475
 5616TIP3   OH216811   1.035   4.654   0.293
 5616TIP3    H116812   0.972   4.698   0.350
 5616TIP3    H216813   1.015   4.560   0.302
 5617TIP3   OH216814   4.237   3.748   0.456
 5617TIP3    H116815   4.161   3.698   0.487
 5617TIP3    H216816   4.286   3.769   0.536
 5618TIP3   OH216817   0.096   5.612   2.435
 5618TIP3    H116818   0.154   5.684   2.408
 5618TIP3    H216819   0.151   5.555   2.488
 5619TIP3   OH216820   5.348   6.578   2.286
 5619TIP3    H116821   5.363   6.531   2.368
 5619TIP3    H216822   5.374   6.517   2.218
 5620TIP3   OH216823   6.312   0.810   0.718
 5620TIP3    H116824   6.283   0.847   0.802
 5620TIP3    H216825   6.239   0.827   0.658
 5621TIP3   OH216826   3.859   6.767   5.197
 5621TIP3    H116827   3.789   6.702   5.189
 5621TIP3    H216828   3.877   6.773   5.291
 5622TIP3   OH216829   1.930   0.843   3.448
 5622TIP3    H116830   1.996   0.774   3.446
 5622TIP3    H216831   1.888   0.839   3.363
 5623TIP3   OH216832   4.450   1.794   4.869
 5623TIP3    H116833   4.430   1.771   4.779
 5623TIP3    H216834   4.543   1.773   4.879
 5624TIP3   OH216835   1.048   5.301   3.008
 5624TIP3    H116836   1.008   5.312   3.094
 5624TIP3    H216837   1.122   5.362   3.008
 5625TIP3   OH216838   6.433   5.141   1.212
 5625TIP3    H116839   6.528   5.127   1.213
 5625TIP3    H216840   6.399   5.072   1.269
 5626TIP3   OH216841   6.988   3.303   4.356
 5626TIP3    H116842   6.955   3.273   4.441
 5626TIP3    H216843   6.929   3.263   4.292
 5627TIP3   OH216844   6.773   2.917   0.724
 5627TIP3    H116845   6.818   2.997   0.696
 5627TIP3    H216846   6.768   2.924   0.819
 5628TIP3   OH216847   3.268   5.620   4.847
 5628TIP3    H116848   3.271   5.639   4.941
 5628TIP3    H216849   3.286   5.527   4.841
 5629TIP3   OH216850   1.246   2.741   4.886
 5629TIP3    H116851   1.231   2.647   4.894
 5629TIP3    H216852   1.340   2.752   4.900
 5630TIP3   OH216853   6.593   4.121   1.531
 5630TIP3    H116854   6.605   4.076   1.615
 5630TIP3    H216855   6.524   4.071   1.487
 5631TIP3   OH216856   2.659   5.445   0.281
 5631TIP3    H116857   2.711   5.494   0.346
 5631TIP3    H216858   2.588   5.407   0.332
 5632TIP3   OH216859   1.324   4.915   2.062
 5632TIP3    H116860   1.410   4.923   2.020
 5632TIP3    H216861   1.322   4.824   2.095
 5633TIP3   OH216862   2.123   2.300   4.410
 5633TIP3    H116863   2.090   2.249   4.484
 5633TIP3    H216864   2.098   2.249   4.333
 5634TIP3   OH216865   3.234   2.880   5.445
 5634TIP3    H116866   3.147   2.843   5.426
 5634TIP3    H216867   3.231   2.900   5.538
 5635TIP3   OH216868   0.352   5.524   4.779
 5635TIP3    H116869   0.404   5.530   4.699
 5635TIP3    H216870   0.320   5.613   4.793
 5636TIP3   OH216871   1.633   5.999   5.632
 5636TIP3    H116872   1.628   6.010   5.726
 5636TIP3    H216873   1.559   5.942   5.610
 5637TIP3   OH216874   4.543   6.533   3.536
 5637TIP3    H116875   4.557   6.482   3.615
 5637TIP3    H216876   4.599   6.491   3.470
 5638TIP3   OH216877   1.901   5.752   1.279
 5638TIP3    H116878   1.942   5.784   1.359
 5638TIP3    H216879   1.807   5.750   1.298
 5639TIP3   OH216880   3.998   2.252   0.684
 5639TIP3    H116881   4.046   2.332   0.661
 5639TIP3    H216882   3.907   2.281   0.693
 5640TIP3   OH216883   0.155   3.871   3.341
 5640TIP3    H116884   0.109   3.795   3.377
 5640TIP3    H216885   0.176   3.846   3.251
 5641TIP3   OH216886   1.980   0.959   2.048
 5641TIP3    H116887   1.885   0.955   2.064
 5641TIP3    H216888   1.992   0.923   1.961
 5642TIP3   OH216889   1.836   4.341   3.197
 5642TIP3    H116890   1.798   4.266   3.153
 5642TIP3    H216891   1.930   4.324   3.197
 5643TIP3   OH216892   3.875   6.470   0.177
 5643TIP3    H116893   3.877   6.420   0.096
 5643TIP3    H216894   3.794   6.522   0.171
 5644TIP3   OH216895   6.445   1.390   1.249
 5644TIP3    H116896   6.448   1.465   1.190
 5644TIP3    H216897   6.382   1.416   1.317
 5645TIP3   OH216898   1.898   4.395   0.562
 5645TIP3    H116899   1.925   4.307   0.538
 5645TIP3    H216900   1.809   4.385   0.596
 5646TIP3   OH216901   2.836   4.776   3.441
 5646TIP3    H116902   2.784   4.774   3.521
 5646TIP3    H216903   2.922   4.807   3.470
 5647TIP3   OH216904   2.911   3.823   3.998
 5647TIP3    H116905   2.932   3.736   4.032
 5647TIP3    H216906   2.957   3.827   3.914
 5648TIP3   OH216907   1.357   0.015   5.660
 5648TIP3    H116908   1.391  -0.015   5.576
 5648TIP3    H216909   1.297   0.086   5.638
 5649TIP3   OH216910   2.419   3.131   4.725
 5649TIP3    H116911   2.412   3.226   4.739
 5649TIP3    H216912   2.448   3.123   4.634
 5650TIP3   OH216913   6.069   1.569   3.483
 5650TIP3    H116914   6.086   1.663   3.484
 5650TIP3    H216915   6.087   1.540   3.572
 5651TIP3   OH216916   3.686   4.407   2.728
 5651TIP3    H116917   3.768   4.420   2.776
 5651TIP3    H216918   3.712   4.377   2.641
 5652TIP3   OH216919   7.072   0.166   0.756
 5652TIP3    H116920   7.002   0.155   0.821
 5652TIP3    H216921   7.132   0.229   0.796
 5653TIP3   OH216922   2.015   5.085   3.559
 5653TIP3    H116923   1.947   5.079   3.626
 5653TIP3    H216924   1.978   5.143   3.492
 5654TIP3   OH216925   2.712   6.295   5.401
 5654TIP3    H116926   2.674   6.266   5.484
 5654TIP3    H216927   2.648   6.355   5.365
 5655TIP3   OH216928   5.577   5.307   1.764
 5655TIP3    H116929   5.666   5.302   1.799
 5655TIP3    H216930   5.534   5.373   1.817
 5656TIP3   OH216931   2.637   6.745   4.020
 5656TIP3    H116932   2.711   6.787   3.975
 5656TIP3    H216933   2.661   6.747   4.112
 5657TIP3   OH216934   2.922   1.744   1.180
 5657TIP3    H116935   2.851   1.803   1.205
 5657TIP3    H216936   2.895   1.658   1.213
 5658TIP3   OH216937   6.439   2.679   3.222
 5658TIP3    H116938   6.429   2.620   3.147
 5658TIP3    H216939   6.395   2.633   3.294
 5659TIP3   OH216940   4.483   2.528   1.027
 5659TIP3    H116941   4.402   2.557   1.069
 5659TIP3    H216942   4.535   2.608   1.019
 5660TIP3   OH216943   1.851   6.476   4.876
 5660TIP3    H116944   1.786   6.442   4.937
 5660TIP3    H216945   1.921   6.509   4.932
 5661TIP3   OH216946   1.942   2.568   0.285
 5661TIP3    H116947   1.982   2.535   0.365
 5661TIP3    H216948   2.011   2.560   0.219
 5662TIP3   OH216949   6.021   6.038   2.108
 5662TIP3    H116950   5.986   5.949   2.115
 5662TIP3    H216951   6.087   6.032   2.038
 5663TIP3   OH216952   1.093   5.486   3.257
 5663TIP3    H116953   1.044   5.441   3.326
 5663TIP3    H216954   1.039   5.561   3.233
 5664TIP3   OH216955   0.743   3.661   5.723
 5664TIP3    H116956   0.676   3.603   5.685
 5664TIP3    H216957   0.706   3.749   5.715
 5665TIP3   OH216958   3.636   6.019   1.857
 5665TIP3    H116959   3.699   5.971   1.912
 5665TIP3    H216960   3.554   6.016   1.906
 5666TIP3   OH216961   5.413   4.917   1.948
 5666TIP3    H116962   5.490   4.865   1.923
 5666TIP3    H216963   5.449   4.987   2.004
 5667TIP3   OH216964   1.237   3.814   3.579
 5667TIP3    H116965   1.188   3.870   3.518
 5667TIP3    H216966   1.182   3.808   3.657
 5668TIP3   OH216967   1.752   0.099   0.408
 5668TIP3    H116968   1.715   0.036   0.469
 5668TIP3    H216969   1.713   0.077   0.323
 5669TIP3   OH216970   1.571   1.113   3.722
 5669TIP3    H116971   1.539   1.177   3.659
 5669TIP3    H216972   1.642   1.067   3.675
 5670TIP3   OH216973   0.701   5.931   2.012
 5670TIP3    H116974   0.655   5.910   2.094
 5670TIP3    H216975   0.793   5.919   2.034
 5671TIP3   OH216976   2.830   3.202   1.887
 5671TIP3    H116977   2.742   3.171   1.867
 5671TIP3    H216978   2.885   3.124   1.885
 5672TIP3   OH216979   5.742   3.858   5.093
 5672TIP3    H116980   5.694   3.929   5.049
 5672TIP3    H216981   5.675   3.814   5.146
 5673TIP3   OH216982   5.650   5.698   5.469
 5673TIP3    H116983   5.641   5.659   5.555
 5673TIP3    H216984   5.574   5.755   5.460
 5674TIP3   OH216985   5.931   6.267   5.415
 5674TIP3    H116986   5.999   6.241   5.478
 5674TIP3    H216987   5.874   6.191   5.409
 5675TIP3   OH216988   0.657   2.271   3.073
 5675TIP3    H116989   0.647   2.218   3.153
 5675TIP3    H216990   0.709   2.217   3.015
 5676TIP3   OH216991   1.188   0.151   5.529
 5676TIP3    H116992   1.100   0.142   5.492
 5676TIP3    H216993   1.193   0.241   5.560
 5677TIP3   OH216994   4.464   3.657   1.374
 5677TIP3    H116995   4.474   3.697   1.288
 5677TIP3    H216996   4.533   3.697   1.427
 5678TIP3   OH216997   1.360   3.174   1.990
 5678TIP3    H116998   1.384   3.081   1.989
 5678TIP3    H216999   1.411   3.212   2.061
 5679TIP3   OH217000   3.486   0.234   1.568
 5679TIP3    H117001   3.477   0.260   1.476
 5679TIP3    H217002   3.525   0.146   1.564
 5680TIP3   OH217003   0.487   2.585   2.121
 5680TIP3    H117004   0.393   2.589   2.141
 5680TIP3    H217005   0.526   2.651   2.178
 5681TIP3   OH217006   6.786   3.411   4.077
 5681TIP3    H117007   6.714   3.424   4.015
 5681TIP3    H217008   6.756   3.454   4.157
 5682TIP3   OH217009   6.248   5.637   1.619
 5682TIP3    H117010   6.288   5.564   1.667
 5682TIP3    H217011   6.276   5.624   1.529
 5683TIP3   OH217012   0.208   4.289   3.791
 5683TIP3    H117013   0.278   4.250   3.739
 5683TIP3    H217014   0.186   4.370   3.745
 5684TIP3   OH217015   5.103   4.954   3.520
 5684TIP3    H117016   5.185   4.955   3.472
 5684TIP3    H217017   5.101   5.038   3.567
 5685TIP3   OH217018   5.147   1.517   4.757
 5685TIP3    H117019   5.141   1.504   4.852
 5685TIP3    H217020   5.099   1.444   4.719
 5686TIP3   OH217021   0.030   3.950   0.793
 5686TIP3    H117022   0.123   3.941   0.775
 5686TIP3    H217023   0.013   3.889   0.864
 5687TIP3   OH217024   4.365   1.755   4.601
 5687TIP3    H117025   4.411   1.679   4.566
 5687TIP3    H217026   4.273   1.740   4.580
 5688TIP3   OH217027   3.273   3.637   4.968
 5688TIP3    H117028   3.213   3.563   4.963
 5688TIP3    H217029   3.223   3.711   4.933
 5689TIP3   OH217030   7.035   0.774   3.890
 5689TIP3    H117031   7.040   0.804   3.799
 5689TIP3    H217032   7.126   0.774   3.921
 5690TIP3   OH217033   5.668   1.675   4.618
 5690TIP3    H117034   5.585   1.644   4.656
 5690TIP3    H217035   5.642   1.742   4.555
 5691TIP3   OH217036   5.075   1.017   5.669
 5691TIP3    H117037   5.128   1.019   5.748
 5691TIP3    H217038   5.037   0.929   5.669
 5692TIP3   OH217039   3.534   5.187   5.068
 5692TIP3    H117040   3.440   5.166   5.076
 5692TIP3    H217041   3.573   5.153   5.148
 5693TIP3   OH217042   1.664   4.246   5.742
 5693TIP3    H117043   1.720   4.250   5.665
 5693TIP3    H217044   1.678   4.329   5.787
 5694TIP3   OH217045   6.825   2.256   1.288
 5694TIP3    H117046   6.753   2.197   1.309
 5694TIP3    H217047   6.831   2.254   1.192
 5695TIP3   OH217048   6.999   0.812   1.174
 5695TIP3    H117049   6.907   0.835   1.188
 5695TIP3    H217050   7.044   0.845   1.252
 5696TIP3   OH217051   1.122   3.525   0.155
 5696TIP3    H117052   1.105   3.558   0.243
 5696TIP3    H217053   1.165   3.598   0.110
 5697TIP3   OH217054   4.157   3.425   1.695
 5697TIP3    H117055   4.174   3.471   1.613
 5697TIP3    H217056   4.241   3.430   1.742
 5698TIP3   OH217057   5.921   6.820   3.320
 5698TIP3    H117058   6.013   6.807   3.342
 5698TIP3    H217059   5.882   6.733   3.327
 5699TIP3   OH217060   6.312   4.473   1.667
 5699TIP3    H117061   6.395   4.431   1.691
 5699TIP3    H217062   6.293   4.441   1.578
 5700TIP3   OH217063   7.079   3.879   3.297
 5700TIP3    H117064   7.102   3.847   3.385
 5700TIP3    H217065   7.114   3.812   3.238
 5701TIP3   OH217066   3.876   5.845   3.709
 5701TIP3    H117067   3.935   5.919   3.715
 5701TIP3    H217068   3.791   5.879   3.738
 5702TIP3   OH217069   5.039   4.445   0.891
 5702TIP3    H117070   5.076   4.358   0.909
 5702TIP3    H217071   5.086   4.504   0.951
 5703TIP3   OH217072   0.179   0.142   5.137
 5703TIP3    H117073   0.271   0.146   5.113
 5703TIP3    H217074   0.143   0.072   5.082
 5704TIP3   OH217075   2.318   5.743   1.405
 5704TIP3    H117076   2.353   5.813   1.350
 5704TIP3    H217077   2.382   5.672   1.399
 5705TIP3   OH217078   6.079   3.710   5.307
 5705TIP3    H117079   6.045   3.797   5.286
 5705TIP3    H217080   6.012   3.671   5.363
 5706TIP3   OH217081   5.536   1.612   4.281
 5706TIP3    H117082   5.503   1.685   4.333
 5706TIP3    H217083   5.525   1.640   4.190
 5707TIP3   OH217084   4.962   3.283   1.271
 5707TIP3    H117085   4.876   3.321   1.289
 5707TIP3    H217086   4.957   3.256   1.179
 5708TIP3   OH217087   4.190   4.406   2.354
 5708TIP3    H117088   4.250   4.332   2.364
 5708TIP3    H217089   4.153   4.395   2.266
 5709TIP3   OH217090   6.090   4.615   3.518
 5709TIP3    H117091   6.167   4.585   3.471
 5709TIP3    H217092   6.053   4.684   3.463
 5710TIP3   OH217093   5.363   4.163   5.418
 5710TIP3    H117094   5.372   4.105   5.493
 5710TIP3    H217095   5.452   4.172   5.384
 5711TIP3   OH217096   2.105   1.573   2.544
 5711TIP3    H117097   2.061   1.502   2.498
 5711TIP3    H217098   2.060   1.579   2.628
 5712TIP3   OH217099   0.387   3.282   0.895
 5712TIP3    H117100   0.307   3.236   0.920
 5712TIP3    H217101   0.454   3.246   0.954
 5713TIP3   OH217102   3.642   4.467   2.272
 5713TIP3    H117103   3.717   4.495   2.324
 5713TIP3    H217104   3.679   4.410   2.205
 5714TIP3   OH217105   4.286   0.448   5.066
 5714TIP3    H117106   4.344   0.440   5.142
 5714TIP3    H217107   4.337   0.411   4.993
 5715TIP3   OH217108   2.312   4.517   0.647
 5715TIP3    H117109   2.296   4.527   0.553
 5715TIP3    H217110   2.271   4.593   0.687
 5716TIP3   OH217111   5.414   5.100   4.547
 5716TIP3    H117112   5.342   5.043   4.573
 5716TIP3    H217113   5.457   5.053   4.476
 5717TIP3   OH217114   1.798   5.744   1.674
 5717TIP3    H117115   1.767   5.704   1.755
 5717TIP3    H217116   1.734   5.717   1.608
 5718TIP3   OH217117   0.166   4.885   3.021
 5718TIP3    H117118   0.162   4.978   3.040
 5718TIP3    H217119   0.148   4.843   3.105
 5719TIP3   OH217120   1.049   5.156   3.246
 5719TIP3    H117121   1.039   5.232   3.303
 5719TIP3    H217122   1.011   5.083   3.295
 5720TIP3   OH217123   3.632   1.284   0.151
 5720TIP3    H117124   3.593   1.228   0.219
 5720TIP3    H217125   3.703   1.231   0.115
 5721TIP3   OH217126   5.771   4.348   3.687
 5721TIP3    H117127   5.808   4.261   3.672
 5721TIP3    H217128   5.721   4.367   3.608
 5722TIP3   OH217129   3.095   2.104   0.249
 5722TIP3    H117130   3.126   2.033   0.306
 5722TIP3    H217131   3.111   2.184   0.299
 5723TIP3   OH217132   4.189   5.962   2.743
 5723TIP3    H117133   4.197   5.981   2.650
 5723TIP3    H217134   4.197   6.047   2.786
 5724TIP3   OH217135   6.429   4.214   5.430
 5724TIP3    H117136   6.411   4.238   5.339
 5724TIP3    H217137   6.523   4.197   5.432
 5725TIP3   OH217138   6.323   5.244   5.653
 5725TIP3    H117139   6.264   5.263   5.726
 5725TIP3    H217140   6.411   5.258   5.689
 5726TIP3   OH217141   4.014   1.505   1.475
 5726TIP3    H117142   3.929   1.498   1.520
 5726TIP3    H217143   4.075   1.458   1.532
 5727TIP3   OH217144   4.299   2.021   4.883
 5727TIP3    H117145   4.245   2.027   4.805
 5727TIP3    H217146   4.359   1.947   4.865
 5728TIP3   OH217147   0.625   2.483   1.313
 5728TIP3    H117148   0.593   2.572   1.299
 5728TIP3    H217149   0.671   2.461   1.232
 5729TIP3   OH217150   5.561   5.161   0.447
 5729TIP3    H117151   5.533   5.252   0.437
 5729TIP3    H217152   5.649   5.158   0.407
 5730TIP3   OH217153   3.523   4.569   0.867
 5730TIP3    H117154   3.482   4.627   0.803
 5730TIP3    H217155   3.472   4.581   0.947
 5731TIP3   OH217156   1.539   0.446   1.975
 5731TIP3    H117157   1.626   0.406   1.963
 5731TIP3    H217158   1.478   0.379   1.945
 5732TIP3   OH217159   0.337   3.641   5.784
 5732TIP3    H117160   0.263   3.680   5.737
 5732TIP3    H217161   0.373   3.713   5.836
 5733TIP3   OH217162   2.101   5.129   4.686
 5733TIP3    H117163   2.161   5.064   4.722
 5733TIP3    H217164   2.020   5.119   4.737
 5734TIP3   OH217165   6.068   4.171   3.648
 5734TIP3    H117166   6.137   4.109   3.622
 5734TIP3    H217167   6.006   4.118   3.699
 5735TIP3   OH217168   2.965   6.597   4.724
 5735TIP3    H117169   2.976   6.546   4.644
 5735TIP3    H217170   3.011   6.546   4.791
 5736TIP3   OH217171   3.695   1.367   1.115
 5736TIP3    H117172   3.627   1.344   1.179
 5736TIP3    H217173   3.747   1.288   1.105
 5737TIP3   OH217174   4.937   2.598   0.415
 5737TIP3    H117175   4.844   2.586   0.435
 5737TIP3    H217176   4.961   2.521   0.364
 5738TIP3   OH217177   3.473   2.198   5.741
 5738TIP3    H117178   3.555   2.152   5.759
 5738TIP3    H217179   3.440   2.222   5.828
 5739TIP3   OH217180   1.503   1.895   3.480
 5739TIP3    H117181   1.431   1.953   3.502
 5739TIP3    H217182   1.484   1.813   3.525
 5740TIP3   OH217183   3.379   2.686   4.537
 5740TIP3    H117184   3.351   2.603   4.497
 5740TIP3    H217185   3.467   2.669   4.570
 5741TIP3   OH217186   5.492   0.244   3.734
 5741TIP3    H117187   5.401   0.219   3.747
 5741TIP3    H217188   5.509   0.228   3.642
 5742TIP3   OH217189   6.762   5.478   1.280
 5742TIP3    H117190   6.734   5.554   1.230
 5742TIP3    H217191   6.786   5.413   1.214
 5743TIP3   OH217192   4.495   6.350   2.671
 5743TIP3    H117193   4.543   6.409   2.613
 5743TIP3    H217194   4.550   6.272   2.677
 5744TIP3   OH217195   1.555   2.479   5.186
 5744TIP3    H117196   1.574   2.563   5.226
 5744TIP3    H217197   1.606   2.477   5.105
 5745TIP3   OH217198   5.983   2.530   5.421
 5745TIP3    H117199   6.067   2.574   5.437
 5745TIP3    H217200   5.968   2.477   5.499
 5746TIP3   OH217201   0.179   0.788   2.561
 5746TIP3    H117202   0.243   0.821   2.624
 5746TIP3    H217203   0.231   0.744   2.494
 5747TIP3   OH217204   2.929   6.312   2.468
 5747TIP3    H117205   2.944   6.301   2.562
 5747TIP3    H217206   3.015   6.332   2.432
 5748TIP3   OH217207   3.437   5.099   0.436
 5748TIP3    H117208   3.370   5.032   0.421
 5748TIP3    H217209   3.510   5.072   0.380
 5749TIP3   OH217210   5.778   0.704   3.368
 5749TIP3    H117211   5.810   0.779   3.417
 5749TIP3    H217212   5.810   0.718   3.279
 5750TIP3   OH217213   3.360   4.520   4.142
 5750TIP3    H117214   3.369   4.611   4.171
 5750TIP3    H217215   3.284   4.520   4.085
 5751TIP3   OH217216   6.772   4.173   0.620
 5751TIP3    H117217   6.763   4.249   0.677
 5751TIP3    H217218   6.865   4.167   0.602
 5752TIP3   OH217219   3.552   4.804   0.728
 5752TIP3    H117220   3.605   4.878   0.698
 5752TIP3    H217221   3.479   4.800   0.667
 5753TIP3   OH217222   5.196   6.273   5.073
 5753TIP3    H117223   5.198   6.178   5.060
 5753TIP3    H217224   5.268   6.306   5.020
 5754TIP3   OH217225   0.836   0.877   5.512
 5754TIP3    H117226   0.878   0.915   5.435
 5754TIP3    H217227   0.893   0.902   5.585
 5755TIP3   OH217228   5.398   6.632   0.347
 5755TIP3    H117229   5.482   6.603   0.311
 5755TIP3    H217230   5.407   6.726   0.357
 5756TIP3   OH217231   1.120   6.837   5.615
 5756TIP3    H117232   1.188   6.801   5.558
 5756TIP3    H217233   1.064   6.762   5.635
 5757TIP3   OH217234   6.411   6.027   5.643
 5757TIP3    H117235   6.343   5.964   5.618
 5757TIP3    H217236   6.493   5.978   5.636
 5758TIP3   OH217237   1.855   1.878   4.248
 5758TIP3    H117238   1.795   1.804   4.263
 5758TIP3    H217239   1.917   1.846   4.184
 5759TIP3   OH217240   0.106   3.340   4.698
 5759TIP3    H117241   0.146   3.359   4.783
 5759TIP3    H217242   0.142   3.255   4.673
 5760TIP3   OH217243   2.912   5.460   3.524
 5760TIP3    H117244   2.957   5.413   3.595
 5760TIP3    H217245   2.879   5.539   3.565
 5761TIP3   OH217246   5.867   5.991   5.360
 5761TIP3    H117247   5.801   5.944   5.309
 5761TIP3    H217248   5.948   5.944   5.342
 5762TIP3   OH217249   0.114   6.115   2.625
 5762TIP3    H117250   0.087   6.202   2.653
 5762TIP3    H217251   0.200   6.103   2.665
 5763TIP3   OH217252   1.949   5.337   4.965
 5763TIP3    H117253   1.946   5.373   5.054
 5763TIP3    H217254   1.916   5.408   4.910
 5764TIP3   OH217255   3.371   4.993   5.644
 5764TIP3    H117256   3.462   4.972   5.667
 5764TIP3    H217257   3.326   5.002   5.728
 5765TIP3   OH217258   2.647   6.679   0.693
 5765TIP3    H117259   2.643   6.646   0.603
 5765TIP3    H217260   2.634   6.602   0.748
 5766TIP3   OH217261   2.918   4.448   5.481
 5766TIP3    H117262   3.004   4.453   5.438
 5766TIP3    H217263   2.912   4.358   5.513
 5767TIP3   OH217264   6.059   3.834   3.588
 5767TIP3    H117265   6.153   3.824   3.578
 5767TIP3    H217266   6.041   3.806   3.678
 5768TIP3   OH217267   3.765   5.159   3.499
 5768TIP3    H117268   3.799   5.092   3.440
 5768TIP3    H217269   3.725   5.224   3.441
 5769TIP3   OH217270   5.688   3.944   5.445
 5769TIP3    H117271   5.615   3.938   5.506
 5769TIP3    H217272   5.662   4.013   5.384
 5770TIP3   OH217273   5.129   3.558   4.910
 5770TIP3    H117274   5.181   3.577   4.988
 5770TIP3    H217275   5.154   3.625   4.847
 5771TIP3   OH217276   5.810   4.160   3.433
 5771TIP3    H117277   5.742   4.111   3.477
 5771TIP3    H217278   5.862   4.094   3.388
 5772TIP3   OH217279   3.697   5.439   3.838
 5772TIP3    H117280   3.787   5.468   3.819
 5772TIP3    H217281   3.698   5.418   3.931
 5773TIP3   OH217282   5.127   3.561   3.267
 5773TIP3    H117283   5.160   3.479   3.303
 5773TIP3    H217284   5.204   3.603   3.228
 5774TIP3   OH217285   0.385   3.081   3.319
 5774TIP3    H117286   0.291   3.099   3.330
 5774TIP3    H217287   0.390   3.031   3.237
 5775TIP3   OH217288   5.644   1.123   3.418
 5775TIP3    H117289   5.687   1.189   3.473
 5775TIP3    H217290   5.566   1.167   3.384
 5776TIP3   OH217291   5.313   0.657   0.129
 5776TIP3    H117292   5.296   0.659   0.223
 5776TIP3    H217293   5.402   0.623   0.121
 5777TIP3   OH217294   4.169   0.913   4.252
 5777TIP3    H117295   4.214   0.831   4.275
 5777TIP3    H217296   4.087   0.885   4.212
 5778TIP3   OH217297   2.332   2.374   0.384
 5778TIP3    H117298   2.255   2.326   0.414
 5778TIP3    H217299   2.406   2.320   0.411
 5779TIP3   OH217300   5.594   0.909   0.773
 5779TIP3    H117301   5.532   0.874   0.709
 5779TIP3    H217302   5.577   1.003   0.773
 5780TIP3   OH217303   2.622   4.207   0.709
 5780TIP3    H117304   2.681   4.247   0.645
 5780TIP3    H217305   2.666   4.219   0.793
 5781TIP3   OH217306   1.438   1.789   5.729
 5781TIP3    H117307   1.406   1.772   5.641
 5781TIP3    H217308   1.374   1.747   5.786
 5782TIP3   OH217309   4.750   3.759   0.055
 5782TIP3    H117310   4.701   3.840   0.064
 5782TIP3    H217311   4.779   3.738   0.144
 5783TIP3   OH217312   1.945   5.277   0.170
 5783TIP3    H117313   1.965   5.187   0.146
 5783TIP3    H217314   1.862   5.296   0.126
 5784TIP3   OH217315   0.938   3.898   2.709
 5784TIP3    H117316   0.921   3.986   2.742
 5784TIP3    H217317   0.924   3.904   2.614
 5785TIP3   OH217318   1.530   3.735   0.342
 5785TIP3    H117319   1.595   3.749   0.411
 5785TIP3    H217320   1.469   3.672   0.378
 5786TIP3   OH217321   2.902   4.230   2.476
 5786TIP3    H117322   2.924   4.258   2.564
 5786TIP3    H217323   2.860   4.306   2.436
 5787TIP3   OH217324   1.442   3.423   0.164
 5787TIP3    H117325   1.510   3.486   0.138
 5787TIP3    H217326   1.411   3.454   0.249
 5788TIP3   OH217327   7.091   4.610   5.912
 5788TIP3    H117328   7.115   4.519   5.900
 5788TIP3    H217329   6.995   4.609   5.922
 5789TIP3   OH217330   2.458   0.612   5.219
 5789TIP3    H117331   2.395   0.677   5.249
 5789TIP3    H217332   2.422   0.580   5.136
 5790TIP3   OH217333   2.236   0.395   1.251
 5790TIP3    H117334   2.145   0.419   1.270
 5790TIP3    H217335   2.244   0.305   1.284
 5791TIP3   OH217336   5.774   2.465   4.772
 5791TIP3    H117337   5.818   2.475   4.856
 5791TIP3    H217338   5.769   2.371   4.757
 5792TIP3   OH217339   0.857   0.821   3.052
 5792TIP3    H117340   0.951   0.836   3.043
 5792TIP3    H217341   0.820   0.908   3.067
 5793TIP3   OH217342   6.997   4.368   4.471
 5793TIP3    H117343   7.050   4.291   4.490
 5793TIP3    H217344   6.962   4.395   4.555
 5794TIP3   OH217345   3.330   4.527   4.565
 5794TIP3    H117346   3.409   4.552   4.517
 5794TIP3    H217347   3.349   4.440   4.600
 5795TIP3   OH217348   4.395   4.994   1.884
 5795TIP3    H117349   4.458   5.006   1.955
 5795TIP3    H217350   4.343   4.918   1.910
 5796TIP3   OH217351   2.859   1.363   5.269
 5796TIP3    H117352   2.855   1.401   5.181
 5796TIP3    H217353   2.935   1.404   5.309
 5797TIP3   OH217354   6.208   6.119   5.332
 5797TIP3    H117355   6.182   6.141   5.243
 5797TIP3    H217356   6.300   6.097   5.326
 5798TIP3   OH217357   0.229   2.735   5.512
 5798TIP3    H117358   0.184   2.727   5.596
 5798TIP3    H217359   0.309   2.683   5.523
 5799TIP3   OH217360   0.618   0.706   5.451
 5799TIP3    H117361   0.575   0.754   5.379
 5799TIP3    H217362   0.693   0.760   5.474
 5800TIP3   OH217363   1.943   5.990   2.885
 5800TIP3    H117364   1.961   6.071   2.838
 5800TIP3    H217365   1.856   5.963   2.854
 5801TIP3   OH217366   0.482   0.855   3.592
 5801TIP3    H117367   0.454   0.774   3.636
 5801TIP3    H217368   0.400   0.900   3.571
 5802TIP3   OH217369   3.450   5.503   0.673
 5802TIP3    H117370   3.537   5.462   0.675
 5802TIP3    H217371   3.435   5.532   0.763
 5803TIP3   OH217372   7.238   1.473   2.308
 5803TIP3    H117373   7.230   1.378   2.309
 5803TIP3    H217374   7.205   1.500   2.222
 5804TIP3   OH217375   1.837   6.172   3.256
 5804TIP3    H117376   1.923   6.187   3.294
 5804TIP3    H217377   1.807   6.259   3.229
 5805TIP3   OH217378   2.229   6.656   3.815
 5805TIP3    H117379   2.185   6.681   3.896
 5805TIP3    H217380   2.184   6.705   3.746
 5806TIP3   OH217381   1.884   5.448   5.894
 5806TIP3    H117382   1.863   5.426   5.803
 5806TIP3    H217383   1.979   5.446   5.898
 5807TIP3   OH217384   2.258   3.866   4.018
 5807TIP3    H117385   2.304   3.836   4.096
 5807TIP3    H217386   2.312   3.834   3.945
 5808TIP3   OH217387   0.972   6.440   2.374
 5808TIP3    H117388   0.997   6.384   2.301
 5808TIP3    H217389   0.887   6.475   2.349
 5809TIP3   OH217390   0.216   5.426   0.578
 5809TIP3    H117391   0.145   5.417   0.515
 5809TIP3    H217392   0.250   5.337   0.588
 5810TIP3   OH217393   0.750   1.122   1.353
 5810TIP3    H117394   0.752   1.217   1.343
 5810TIP3    H217395   0.832   1.101   1.396
 5811TIP3   OH217396   0.222   2.954   5.346
 5811TIP3    H117397   0.299   3.000   5.314
 5811TIP3    H217398   0.257   2.878   5.393
 5812TIP3   OH217399   7.070   1.885   5.531
 5812TIP3    H117400   7.121   1.826   5.587
 5812TIP3    H217401   6.985   1.892   5.575
 5813TIP3   OH217402   3.408   3.978   2.845
 5813TIP3    H117403   3.416   4.063   2.802
 5813TIP3    H217404   3.455   3.917   2.788
 5814TIP3   OH217405   5.773   4.885   3.110
 5814TIP3    H117406   5.751   4.915   3.198
 5814TIP3    H217407   5.733   4.950   3.052
 5815TIP3   OH217408   6.137   0.095   1.948
 5815TIP3    H117409   6.223   0.095   1.991
 5815TIP3    H217410   6.106   0.005   1.956
 5816TIP3   OH217411   2.168   0.106   2.179
 5816TIP3    H117412   2.239   0.169   2.168
 5816TIP3    H217413   2.090   0.153   2.149
 5817TIP3   OH217414   0.300   0.914   0.213
 5817TIP3    H117415   0.238   0.855   0.171
 5817TIP3    H217416   0.326   0.870   0.293
 5818TIP3   OH217417   6.781   4.064   5.711
 5818TIP3    H117418   6.793   3.999   5.780
 5818TIP3    H217419   6.869   4.101   5.697
 5819TIP3   OH217420   3.518   2.583   3.427
 5819TIP3    H117421   3.444   2.526   3.449
 5819TIP3    H217422   3.594   2.525   3.432
 5820TIP3   OH217423   6.857   3.425   0.210
 5820TIP3    H117424   6.932   3.367   0.223
 5820TIP3    H217425   6.883   3.483   0.139
 5821TIP3   OH217426   5.000   2.858   4.581
 5821TIP3    H117427   5.064   2.844   4.511
 5821TIP3    H217428   4.939   2.922   4.545
 5822TIP3   OH217429   0.211   0.332   1.137
 5822TIP3    H117430   0.203   0.415   1.183
 5822TIP3    H217431   0.129   0.324   1.088
 5823TIP3   OH217432   0.741   3.311   3.194
 5823TIP3    H117433   0.747   3.217   3.213
 5823TIP3    H217434   0.764   3.318   3.102
 5824TIP3   OH217435   6.532   2.363   4.800
 5824TIP3    H117436   6.596   2.297   4.827
 5824TIP3    H217437   6.465   2.360   4.868
 5825TIP3   OH217438   2.626   5.985   2.058
 5825TIP3    H117439   2.591   6.034   2.132
 5825TIP3    H217440   2.714   5.960   2.085
 5826TIP3   OH217441   2.478   2.803   3.027
 5826TIP3    H117442   2.572   2.787   3.020
 5826TIP3    H217443   2.472   2.898   3.042
 5827TIP3   OH217444   2.930   0.025   2.929
 5827TIP3    H117445   2.938   0.113   2.892
 5827TIP3    H217446   2.884  -0.026   2.862
 5828TIP3   OH217447   1.876   3.186   3.350
 5828TIP3    H117448   1.954   3.144   3.387
 5828TIP3    H217449   1.882   3.169   3.256
 5829TIP3   OH217450   5.590   3.831   4.474
 5829TIP3    H117451   5.598   3.854   4.566
 5829TIP3    H217452   5.540   3.749   4.473
 5830TIP3   OH217453   1.870   1.664   4.533
 5830TIP3    H117454   1.826   1.655   4.449
 5830TIP3    H217455   1.961   1.681   4.511
 5831TIP3   OH217456   0.776   2.581   1.028
 5831TIP3    H117457   0.819   2.577   0.942
 5831TIP3    H217458   0.848   2.581   1.091
 5832TIP3   OH217459   7.138   4.959   3.405
 5832TIP3    H117460   7.142   4.900   3.481
 5832TIP3    H217461   7.050   4.946   3.370
 5833TIP3   OH217462   3.464   1.228   4.667
 5833TIP3    H117463   3.387   1.203   4.616
 5833TIP3    H217464   3.523   1.268   4.603
 5834TIP3   OH217465   1.926   6.816   3.131
 5834TIP3    H117466   1.904   6.730   3.095
 5834TIP3    H217467   1.891   6.879   3.069
 5835TIP3   OH217468   7.013   4.075   4.312
 5835TIP3    H117469   7.068   4.092   4.389
 5835TIP3    H217470   6.940   4.023   4.346
 5836TIP3   OH217471   2.308   2.176   1.302
 5836TIP3    H117472   2.365   2.183   1.379
 5836TIP3    H217473   2.220   2.186   1.337
 5837TIP3   OH217474   7.080   2.102   4.328
 5837TIP3    H117475   7.081   2.063   4.416
 5837TIP3    H217476   6.992   2.137   4.318
 5838TIP3   OH217477   3.067   3.512   3.604
 5838TIP3    H117478   3.005   3.504   3.677
 5838TIP3    H217479   3.026   3.577   3.546
 5839TIP3   OH217480   0.668   3.800   4.204
 5839TIP3    H117481   0.681   3.780   4.111
 5839TIP3    H217482   0.740   3.859   4.227
 5840TIP3   OH217483   3.977   0.475   4.765
 5840TIP3    H117484   4.055   0.512   4.805
 5840TIP3    H217485   3.975   0.384   4.794
 5841TIP3   OH217486   4.056   1.619   2.465
 5841TIP3    H117487   4.064   1.615   2.370
 5841TIP3    H217488   4.122   1.683   2.492
 5842TIP3   OH217489   0.453   6.199   5.682
 5842TIP3    H117490   0.407   6.269   5.636
 5842TIP3    H217491   0.535   6.189   5.635
 5843TIP3   OH217492   6.334   2.274   2.157
 5843TIP3    H117493   6.258   2.307   2.109
 5843TIP3    H217494   6.377   2.352   2.192
 5844TIP3   OH217495   2.977   4.963   5.162
 5844TIP3    H117496   3.010   4.943   5.075
 5844TIP3    H217497   2.987   5.058   5.170
 5845TIP3   OH217498   5.310   4.705   5.564
 5845TIP3    H117499   5.237   4.689   5.624
 5845TIP3    H217500   5.302   4.636   5.498
 5846TIP3   OH217501   5.229   5.678   3.034
 5846TIP3    H117502   5.309   5.626   3.049
 5846TIP3    H217503   5.255   5.743   2.968
 5847TIP3   OH217504   3.171   5.221   0.340
 5847TIP3    H117505   3.124   5.286   0.288
 5847TIP3    H217506   3.204   5.269   0.415
 5848TIP3   OH217507   6.100   1.640   2.755
 5848TIP3    H117508   6.124   1.574   2.691
 5848TIP3    H217509   6.101   1.723   2.707
 5849TIP3   OH217510   7.122   2.879   0.648
 5849TIP3    H117511   7.100   2.904   0.737
 5849TIP3    H217512   7.181   2.804   0.658
 5850TIP3   OH217513   0.337   4.506   4.923
 5850TIP3    H117514   0.329   4.451   4.844
 5850TIP3    H217515   0.396   4.577   4.896
 5851TIP3   OH217516   3.888   2.890   0.953
 5851TIP3    H117517   3.863   2.968   0.904
 5851TIP3    H217518   3.815   2.830   0.941
 5852TIP3   OH217519   2.061   5.650   2.608
 5852TIP3    H117520   2.036   5.609   2.526
 5852TIP3    H217521   1.993   5.625   2.670
 5853TIP3   OH217522   3.416   5.988   5.436
 5853TIP3    H117523   3.503   5.947   5.433
 5853TIP3    H217524   3.406   6.029   5.351
 5854TIP3   OH217525   4.041   1.582   3.711
 5854TIP3    H117526   4.017   1.504   3.760
 5854TIP3    H217527   4.092   1.550   3.637
 5855TIP3   OH217528   2.646   0.792   2.015
 5855TIP3    H117529   2.614   0.882   2.021
 5855TIP3    H217530   2.569   0.742   1.987
 5856TIP3   OH217531   0.596   6.060   5.251
 5856TIP3    H117532   0.504   6.060   5.224
 5856TIP3    H217533   0.625   5.970   5.237
 5857TIP3   OH217534   2.481   4.081   2.712
 5857TIP3    H117535   2.409   4.118   2.661
 5857TIP3    H217536   2.442   4.008   2.760
 5858TIP3   OH217537   5.383   1.014   4.913
 5858TIP3    H117538   5.473   1.004   4.883
 5858TIP3    H217539   5.389   1.076   4.985
 5859TIP3   OH217540   7.035   4.029   5.372
 5859TIP3    H117541   6.949   4.021   5.330
 5859TIP3    H217542   7.089   4.073   5.306
 5860TIP3   OH217543   2.621   2.606   4.071
 5860TIP3    H117544   2.606   2.515   4.047
 5860TIP3    H217545   2.654   2.602   4.160
 5861TIP3   OH217546   3.678   4.781   4.850
 5861TIP3    H117547   3.612   4.716   4.871
 5861TIP3    H217548   3.715   4.751   4.767
 5862TIP3   OH217549   3.872   1.839   2.329
 5862TIP3    H117550   3.817   1.763   2.310
 5862TIP3    H217551   3.962   1.808   2.315
 5863TIP3   OH217552   6.691   4.867   1.928
 5863TIP3    H117553   6.783   4.892   1.936
 5863TIP3    H217554   6.678   4.852   1.834
 5864TIP3   OH217555   3.957   3.323   4.228
 5864TIP3    H117556   3.894   3.266   4.272
 5864TIP3    H217557   4.011   3.358   4.300
 5865TIP3   OH217558   6.451   0.398   0.592
 5865TIP3    H117559   6.469   0.471   0.532
 5865TIP3    H217560   6.462   0.436   0.679
 5866TIP3   OH217561   0.405   4.349   3.959
 5866TIP3    H117562   0.369   4.417   4.014
 5866TIP3    H217563   0.351   4.350   3.880
 5867TIP3   OH217564   2.508   5.279   1.097
 5867TIP3    H117565   2.555   5.283   1.181
 5867TIP3    H217566   2.576   5.259   1.033
 5868TIP3   OH217567   0.206   5.159   3.407
 5868TIP3    H117568   0.131   5.153   3.349
 5868TIP3    H217569   0.259   5.082   3.386
 5869TIP3   OH217570   5.326   4.565   4.057
 5869TIP3    H117571   5.308   4.492   4.117
 5869TIP3    H217572   5.295   4.535   3.972
 5870TIP3   OH217573   2.732   6.315   3.648
 5870TIP3    H117574   2.658   6.375   3.643
 5870TIP3    H217575   2.780   6.342   3.726
 5871TIP3   OH217576   2.176   3.762   1.322
 5871TIP3    H117577   2.096   3.727   1.283
 5871TIP3    H217578   2.222   3.803   1.249
 5872TIP3   OH217579   5.492   0.669   3.395
 5872TIP3    H117580   5.585   0.689   3.409
 5872TIP3    H217581   5.447   0.751   3.411
 5873TIP3   OH217582   2.571   4.383   5.532
 5873TIP3    H117583   2.502   4.449   5.527
 5873TIP3    H217584   2.612   4.398   5.618
 5874TIP3   OH217585   3.212   5.758   5.574
 5874TIP3    H117586   3.287   5.715   5.534
 5874TIP3    H217587   3.167   5.800   5.501
 5875TIP3   OH217588   3.820   1.837   0.536
 5875TIP3    H117589   3.808   1.876   0.449
 5875TIP3    H217590   3.904   1.870   0.566
 5876TIP3   OH217591   6.067   3.598   1.329
 5876TIP3    H117592   5.986   3.581   1.281
 5876TIP3    H217593   6.062   3.541   1.406
 5877TIP3   OH217594   0.457   5.578   0.060
 5877TIP3    H117595   0.382   5.591   0.117
 5877TIP3    H217596   0.439   5.496   0.014
 5878TIP3   OH217597   6.301   3.284   0.031
 5878TIP3    H117598   6.300   3.375   0.061
 5878TIP3    H217599   6.357   3.239   0.094
 5879TIP3   OH217600   0.876   1.540   3.708
 5879TIP3    H117601   0.838   1.468   3.758
 5879TIP3    H217602   0.881   1.612   3.771
 5880TIP3   OH217603   0.474   4.989   5.489
 5880TIP3    H117604   0.522   4.934   5.551
 5880TIP3    H217605   0.417   4.928   5.442
 5881TIP3   OH217606   4.578   6.366   5.452
 5881TIP3    H117607   4.525   6.384   5.375
 5881TIP3    H217608   4.555   6.436   5.513
 5882TIP3   OH217609   0.161   0.091   2.387
 5882TIP3    H117610   0.215   0.149   2.334
 5882TIP3    H217611   0.214   0.072   2.465
 5883TIP3   OH217612   1.771   4.608   3.153
 5883TIP3    H117613   1.806   4.522   3.179
 5883TIP3    H217614   1.715   4.589   3.078
 5884TIP3   OH217615   4.018   3.622   1.948
 5884TIP3    H117616   4.095   3.612   2.004
 5884TIP3    H217617   3.947   3.579   1.996
 5885TIP3   OH217618   0.713   4.881   3.839
 5885TIP3    H117619   0.764   4.952   3.876
 5885TIP3    H217620   0.624   4.915   3.832
 5886TIP3   OH217621   1.161   6.097   0.814
 5886TIP3    H117622   1.079   6.082   0.861
 5886TIP3    H217623   1.229   6.073   0.878
 5887TIP3   OH217624   2.368   3.401   4.640
 5887TIP3    H117625   2.307   3.468   4.670
 5887TIP3    H217626   2.439   3.450   4.598
 5888TIP3   OH217627   1.202   4.724   3.579
 5888TIP3    H117628   1.201   4.797   3.517
 5888TIP3    H217629   1.143   4.659   3.540
 5889TIP3   OH217630   5.142   2.862   4.996
 5889TIP3    H117631   5.162   2.816   4.915
 5889TIP3    H217632   5.055   2.829   5.021
 5890TIP3   OH217633   0.219   6.568   4.519
 5890TIP3    H117634   0.312   6.572   4.543
 5890TIP3    H217635   0.189   6.483   4.550
 5891TIP3   OH217636   4.361   1.597   2.572
 5891TIP3    H117637   4.319   1.682   2.556
 5891TIP3    H217638   4.429   1.591   2.505
 5892TIP3   OH217639   2.349   3.943   5.789
 5892TIP3    H117640   2.339   4.019   5.732
 5892TIP3    H217641   2.285   3.880   5.755
 5893TIP3   OH217642   6.716   4.258   3.617
 5893TIP3    H117643   6.753   4.310   3.545
 5893TIP3    H217644   6.772   4.278   3.692
 5894TIP3   OH217645   0.690   3.184   4.876
 5894TIP3    H117646   0.750   3.259   4.874
 5894TIP3    H217647   0.728   3.121   4.816
 5895TIP3   OH217648   1.912   4.647   2.029
 5895TIP3    H117649   1.943   4.690   2.109
 5895TIP3    H217650   1.851   4.580   2.060
 5896TIP3   OH217651   4.132   4.008   3.487
 5896TIP3    H117652   4.198   4.077   3.495
 5896TIP3    H217653   4.080   4.033   3.410
 5897TIP3   OH217654   0.591   5.096   1.919
 5897TIP3    H117655   0.587   5.018   1.975
 5897TIP3    H217656   0.508   5.097   1.872
 5898TIP3   OH217657   0.337   6.214   2.025
 5898TIP3    H117658   0.309   6.123   2.033
 5898TIP3    H217659   0.429   6.213   2.050
 5899TIP3   OH217660   5.798   6.178   5.689
 5899TIP3    H117661   5.731   6.224   5.639
 5899TIP3    H217662   5.881   6.202   5.647
 5900TIP3   OH217663   3.024   3.020   1.631
 5900TIP3    H117664   2.975   2.969   1.695
 5900TIP3    H217665   3.106   3.042   1.677
 5901TIP3   OH217666   1.765   5.217   1.937
 5901TIP3    H117667   1.784   5.137   1.986
 5901TIP3    H217668   1.771   5.191   1.846
 5902TIP3   OH217669   0.520   6.417   1.124
 5902TIP3    H117670   0.569   6.336   1.140
 5902TIP3    H217671   0.488   6.444   1.210
 5903TIP3   OH217672   4.247   2.962   2.921
 5903TIP3    H117673   4.293   2.892   2.967
 5903TIP3    H217674   4.174   2.917   2.877
 5904TIP3   OH217675   5.908   4.889   0.697
 5904TIP3    H117676   5.846   4.817   0.709
 5904TIP3    H217677   5.989   4.847   0.670
 5905TIP3   OH217678   3.669   4.460   5.414
 5905TIP3    H117679   3.591   4.406   5.403
 5905TIP3    H217680   3.729   4.406   5.465
 5906TIP3   OH217681   0.077   1.554   1.762
 5906TIP3    H117682  -0.004   1.518   1.725
 5906TIP3    H217683   0.060   1.559   1.856
 5907TIP3   OH217684   1.431   0.784   1.634
 5907TIP3    H117685   1.466   0.697   1.654
 5907TIP3    H217686   1.339   0.769   1.615
 5908TIP3   OH217687   3.543   2.940   1.816
 5908TIP3    H117688   3.629   2.983   1.821
 5908TIP3    H217689   3.547   2.890   1.734
 5909TIP3   OH217690   3.633   2.696   0.562
 5909TIP3    H117691   3.611   2.766   0.500
 5909TIP3    H217692   3.562   2.633   0.553
 5910TIP3   OH217693   4.667   6.135   2.619
 5910TIP3    H117694   4.723   6.211   2.601
 5910TIP3    H217695   4.726   6.060   2.607
 5911TIP3   OH217696   4.693   5.929   0.801
 5911TIP3    H117697   4.651   6.012   0.778
 5911TIP3    H217698   4.767   5.955   0.857
 5912TIP3   OH217699   6.966   4.617   5.352
 5912TIP3    H117700   6.941   4.554   5.420
 5912TIP3    H217701   6.902   4.687   5.360
 5913TIP3   OH217702   6.171   2.582   3.318
 5913TIP3    H117703   6.224   2.538   3.385
 5913TIP3    H217704   6.119   2.512   3.279
 5914TIP3   OH217705   6.883   1.768   4.418
 5914TIP3    H117706   6.906   1.842   4.475
 5914TIP3    H217707   6.820   1.805   4.356
 5915TIP3   OH217708   2.232   6.452   4.680
 5915TIP3    H117709   2.300   6.434   4.615
 5915TIP3    H217710   2.210   6.366   4.716
 5916TIP3   OH217711   2.408   6.351   4.507
 5916TIP3    H117712   2.450   6.357   4.421
 5916TIP3    H217713   2.377   6.261   4.512
 5917TIP3   OH217714   2.522   5.367   3.802
 5917TIP3    H117715   2.495   5.287   3.758
 5917TIP3    H217716   2.570   5.338   3.880
 5918TIP3   OH217717   6.388   6.197   1.294
 5918TIP3    H117718   6.453   6.209   1.362
 5918TIP3    H217719   6.306   6.182   1.341
 5919TIP3   OH217720   1.294   4.363   2.096
 5919TIP3    H117721   1.241   4.290   2.065
 5919TIP3    H217722   1.379   4.325   2.115
 5920TIP3   OH217723   7.049   0.892   3.648
 5920TIP3    H117724   7.079   0.849   3.568
 5920TIP3    H217725   7.079   0.982   3.639
 5921TIP3   OH217726   6.629   2.108   1.159
 5921TIP3    H117727   6.580   2.026   1.158
 5921TIP3    H217728   6.642   2.129   1.067
 5922TIP3   OH217729   3.268   4.651   2.845
 5922TIP3    H117730   3.290   4.607   2.763
 5922TIP3    H217731   3.178   4.682   2.833
 5923TIP3   OH217732   5.234   5.643   3.588
 5923TIP3    H117733   5.252   5.643   3.682
 5923TIP3    H217734   5.306   5.593   3.550
 5924TIP3   OH217735   3.458  -0.007   4.967
 5924TIP3    H117736   3.401  -0.007   4.890
 5924TIP3    H217737   3.398   0.005   5.041
 5925TIP3   OH217738   3.476   2.148   1.704
 5925TIP3    H117739   3.440   2.152   1.793
 5925TIP3    H217740   3.422   2.209   1.654
 5926TIP3   OH217741   6.493   3.345   5.845
 5926TIP3    H117742   6.487   3.440   5.831
 5926TIP3    H217743   6.555   3.335   5.917
 5927TIP3   OH217744   4.982   5.336   5.563
 5927TIP3    H117745   5.007   5.386   5.641
 5927TIP3    H217746   5.065   5.309   5.523
 5928TIP3   OH217747   3.584   1.482   3.033
 5928TIP3    H117748   3.647   1.489   2.962
 5928TIP3    H217749   3.613   1.545   3.099
 5929TIP3   OH217750   4.619   5.393   5.467
 5929TIP3    H117751   4.630   5.318   5.525
 5929TIP3    H217752   4.524   5.407   5.464
 5930TIP3   OH217753   0.016   2.171   5.794
 5930TIP3    H117754   0.068   2.147   5.718
 5930TIP3    H217755   0.037   2.104   5.860
 5931TIP3   OH217756   4.647   5.814   1.702
 5931TIP3    H117757   4.624   5.771   1.620
 5931TIP3    H217758   4.624   5.751   1.770
 5932TIP3   OH217759   6.613   5.714   2.506
 5932TIP3    H117760   6.524   5.750   2.509
 5932TIP3    H217761   6.620   5.679   2.417
 5933TIP3   OH217762   1.508   1.279   1.397
 5933TIP3    H117763   1.468   1.276   1.310
 5933TIP3    H217764   1.526   1.187   1.418
 5934TIP3   OH217765   0.984   0.922   3.632
 5934TIP3    H117766   1.062   0.957   3.675
 5934TIP3    H217767   1.011   0.908   3.542
 5935TIP3   OH217768   4.627   1.422   5.192
 5935TIP3    H117769   4.654   1.344   5.240
 5935TIP3    H217770   4.614   1.489   5.259
 5936TIP3   OH217771   2.265   3.772   0.414
 5936TIP3    H117772   2.301   3.794   0.500
 5936TIP3    H217773   2.340   3.778   0.354
 5937TIP3   OH217774   5.181   4.634   4.644
 5937TIP3    H117775   5.113   4.581   4.685
 5937TIP3    H217776   5.251   4.638   4.709
 5938TIP3   OH217777   6.665   1.087   3.097
 5938TIP3    H117778   6.691   1.115   3.009
 5938TIP3    H217779   6.692   1.160   3.153
 5939TIP3   OH217780   4.535   1.390   3.193
 5939TIP3    H117781   4.478   1.314   3.201
 5939TIP3    H217782   4.588   1.373   3.115
 5940TIP3   OH217783   6.277   4.181   0.257
 5940TIP3    H117784   6.266   4.105   0.201
 5940TIP3    H217785   6.194   4.228   0.252
 5941TIP3   OH217786   1.160   5.618   0.828
 5941TIP3    H117787   1.093   5.674   0.867
 5941TIP3    H217788   1.112   5.542   0.795
 5942TIP3   OH217789   1.312   0.338   3.994
 5942TIP3    H117790   1.352   0.316   4.078
 5942TIP3    H217791   1.290   0.254   3.955
 5943TIP3   OH217792   6.201   4.642   1.148
 5943TIP3    H117793   6.268   4.707   1.127
 5943TIP3    H217794   6.154   4.679   1.223
 5944TIP3   OH217795   3.318   0.435   1.167
 5944TIP3    H117796   3.315   0.395   1.080
 5944TIP3    H217797   3.344   0.526   1.151
 5945TIP3   OH217798   0.607   5.376   3.673
 5945TIP3    H117799   0.637   5.388   3.583
 5945TIP3    H217800   0.648   5.447   3.722
 5946TIP3   OH217801   3.475   3.195   4.344
 5946TIP3    H117802   3.447   3.104   4.341
 5946TIP3    H217803   3.569   3.191   4.365
 5947TIP3   OH217804   2.310   6.134   3.453
 5947TIP3    H117805   2.382   6.158   3.394
 5947TIP3    H217806   2.240   6.107   3.394
 5948TIP3   OH217807   6.689   4.640   2.870
 5948TIP3    H117808   6.659   4.559   2.912
 5948TIP3    H217809   6.741   4.611   2.795
 5949TIP3   OH217810   0.088   4.648   0.856
 5949TIP3    H117811   0.053   4.620   0.771
 5949TIP3    H217812   0.032   4.603   0.920
 5950TIP3   OH217813   0.606   0.223   1.538
 5950TIP3    H117814   0.612   0.232   1.443
 5950TIP3    H217815   0.646   0.303   1.572
 5951TIP3   OH217816   4.127   5.418   1.889
 5951TIP3    H117817   4.188   5.390   1.957
 5951TIP3    H217818   4.052   5.359   1.898
 5952TIP3   OH217819   5.571   2.238   3.839
 5952TIP3    H117820   5.567   2.145   3.861
 5952TIP3    H217821   5.578   2.282   3.923
 5953TIP3   OH217822   5.566   2.427   3.437
 5953TIP3    H117823   5.529   2.515   3.425
 5953TIP3    H217824   5.604   2.428   3.524
 5954TIP3   OH217825   4.513   3.891   4.177
 5954TIP3    H117826   4.573   3.824   4.208
 5954TIP3    H217827   4.497   3.947   4.253
 5955TIP3   OH217828   3.926   2.709   4.452
 5955TIP3    H117829   3.937   2.764   4.375
 5955TIP3    H217830   3.989   2.638   4.441
 5956TIP3   OH217831   1.112   2.005   4.555
 5956TIP3    H117832   1.165   2.082   4.575
 5956TIP3    H217833   1.126   1.990   4.462
 5957TIP3   OH217834   6.451   4.700   1.595
 5957TIP3    H117835   6.388   4.629   1.608
 5957TIP3    H217836   6.532   4.669   1.635
 5958TIP3   OH217837   6.877   6.251   1.743
 5958TIP3    H117838   6.925   6.305   1.805
 5958TIP3    H217839   6.910   6.163   1.756
 5959TIP3   OH217840   0.814   3.117   0.907
 5959TIP3    H117841   0.860   3.195   0.876
 5959TIP3    H217842   0.814   3.058   0.831
 5960TIP3   OH217843   2.306   4.745   4.175
 5960TIP3    H117844   2.380   4.719   4.228
 5960TIP3    H217845   2.285   4.668   4.122
 5961TIP3   OH217846   7.061   0.088   4.330
 5961TIP3    H117847   7.020   0.003   4.316
 5961TIP3    H217848   7.044   0.136   4.249
 5962TIP3   OH217849   5.510   6.497   2.962
 5962TIP3    H117850   5.514   6.588   2.932
 5962TIP3    H217851   5.455   6.453   2.897
 5963TIP3   OH217852   3.180   1.617   1.240
 5963TIP3    H117853   3.231   1.642   1.317
 5963TIP3    H217854   3.220   1.536   1.209
 5964TIP3   OH217855   2.032   1.681   0.020
 5964TIP3    H117856   2.113   1.646   0.057
 5964TIP3    H217857   2.002   1.612  -0.039
 5965TIP3   OH217858   3.234   2.729   1.621
 5965TIP3    H117859   3.327   2.705   1.628
 5965TIP3    H217860   3.235   2.825   1.618
 5966TIP3   OH217861   4.046   0.655   2.499
 5966TIP3    H117862   3.961   0.694   2.517
 5966TIP3    H217863   4.060   0.594   2.571
 5967TIP3   OH217864   4.798   3.835   0.595
 5967TIP3    H117865   4.745   3.895   0.648
 5967TIP3    H217866   4.864   3.800   0.655
 5968TIP3   OH217867   2.777   6.252   3.368
 5968TIP3    H117868   2.687   6.228   3.347
 5968TIP3    H217869   2.770   6.311   3.443
 5969TIP3   OH217870   1.765   5.523   4.079
 5969TIP3    H117871   1.725   5.439   4.102
 5969TIP3    H217872   1.754   5.577   4.158
 5970TIP3   OH217873   4.704   2.889   3.276
 5970TIP3    H117874   4.759   2.939   3.336
 5970TIP3    H217875   4.764   2.825   3.237
 5971TIP3   OH217876   1.276   0.915   4.531
 5971TIP3    H117877   1.273   0.995   4.583
 5971TIP3    H217878   1.345   0.862   4.573
 5972TIP3   OH217879   2.017   2.042   0.135
 5972TIP3    H117880   2.089   2.074   0.079
 5972TIP3    H217881   1.988   1.962   0.092
 5973TIP3   OH217882   4.760   5.628   3.442
 5973TIP3    H117883   4.845   5.604   3.479
 5973TIP3    H217884   4.701   5.556   3.467
 5974TIP3   OH217885   1.136   4.422   4.333
 5974TIP3    H117886   1.214   4.403   4.282
 5974TIP3    H217887   1.149   4.375   4.416
 5975TIP3   OH217888   0.924   6.631   5.652
 5975TIP3    H117889   0.914   6.548   5.606
 5975TIP3    H217890   0.940   6.606   5.743
 5976TIP3   OH217891   5.061   0.103   1.996
 5976TIP3    H117892   5.126   0.043   1.960
 5976TIP3    H217893   5.112   0.164   2.050
 5977TIP3   OH217894   2.597   3.555   2.471
 5977TIP3    H117895   2.676   3.501   2.478
 5977TIP3    H217896   2.625   3.633   2.424
 5978TIP3   OH217897   7.167   1.191   1.946
 5978TIP3    H117898   7.244   1.167   1.997
 5978TIP3    H217899   7.132   1.268   1.990
 5979TIP3   OH217900   2.825   5.571   5.745
 5979TIP3    H117901   2.919   5.560   5.763
 5979TIP3    H217902   2.821   5.647   5.687
 5980TIP3   OH217903   6.642   3.486   2.882
 5980TIP3    H117904   6.610   3.402   2.914
 5980TIP3    H217905   6.578   3.549   2.914
 5981TIP3   OH217906   5.529   0.109   5.588
 5981TIP3    H117907   5.508   0.146   5.674
 5981TIP3    H217908   5.571   0.180   5.541
 5982TIP3   OH217909   6.107   4.777   4.369
 5982TIP3    H117910   6.154   4.858   4.389
 5982TIP3    H217911   6.172   4.723   4.323
 5983TIP3   OH217912   2.177   3.829   5.189
 5983TIP3    H117913   2.157   3.896   5.253
 5983TIP3    H217914   2.265   3.798   5.212
 5984TIP3   OH217915   3.257   5.249   3.609
 5984TIP3    H117916   3.222   5.338   3.615
 5984TIP3    H217917   3.350   5.259   3.628
 5985TIP3   OH217918   4.736   0.011   0.723
 5985TIP3    H117919   4.772  -0.017   0.807
 5985TIP3    H217920   4.801   0.071   0.687
 5986TIP3   OH217921   6.675   4.602   4.399
 5986TIP3    H117922   6.715   4.516   4.385
 5986TIP3    H217923   6.714   4.658   4.332
 5987TIP3   OH217924   6.433   3.590   3.008
 5987TIP3    H117925   6.416   3.683   2.997
 5987TIP3    H217926   6.440   3.578   3.102
 5988TIP3   OH217927   0.008   5.152   4.514
 5988TIP3    H117928   0.086   5.195   4.550
 5988TIP3    H217929   0.041   5.071   4.476
 5989TIP3   OH217930   5.011   5.176   2.471
 5989TIP3    H117931   5.078   5.157   2.536
 5989TIP3    H217932   4.955   5.241   2.512
 5990TIP3   OH217933   4.219   4.054   4.281
 5990TIP3    H117934   4.295   4.061   4.339
 5990TIP3    H217935   4.239   4.113   4.208
 5991TIP3   OH217936   4.689   4.160   1.032
 5991TIP3    H117937   4.780   4.131   1.042
 5991TIP3    H217938   4.695   4.239   0.978
 5992TIP3   OH217939   6.705   1.845   0.550
 5992TIP3    H117940   6.758   1.920   0.521
 5992TIP3    H217941   6.650   1.880   0.620
 5993TIP3   OH217942   4.965   5.275   2.195
 5993TIP3    H117943   5.050   5.283   2.152
 5993TIP3    H217944   4.983   5.231   2.278
 5994TIP3   OH217945   3.761   3.918   5.907
 5994TIP3    H117946   3.675   3.888   5.878
 5994TIP3    H217947   3.795   3.969   5.834
 5995TIP3   OH217948   0.693   1.367   1.931
 5995TIP3    H117949   0.624   1.303   1.914
 5995TIP3    H217950   0.647   1.447   1.954
 5996TIP3   OH217951   1.623   5.507   0.560
 5996TIP3    H117952   1.539   5.488   0.600
 5996TIP3    H217953   1.611   5.487   0.467
 5997TIP3   OH217954   6.363   5.503   2.077
 5997TIP3    H117955   6.334   5.498   2.168
 5997TIP3    H217956   6.312   5.575   2.039
 5998TIP3   OH217957   0.870   2.852   0.208
 5998TIP3    H117958   0.852   2.829   0.117
 5998TIP3    H217959   0.904   2.941   0.205
 5999TIP3   OH217960   2.309   2.475   4.117
 5999TIP3    H117961   2.372   2.426   4.170
 5999TIP3    H217962   2.317   2.565   4.148
 6000TIP3   OH217963   0.688   0.985   3.673
 6000TIP3    H117964   0.739   0.924   3.620
 6000TIP3    H217965   0.597   0.958   3.661
 6001TIP3   OH217966   2.574   5.383   0.041
 6001TIP3    H117967   2.642   5.405  -0.022
 6001TIP3    H217968   2.600   5.427   0.122
 6002TIP3   OH217969   6.326   5.312   0.860
 6002TIP3    H117970   6.295   5.383   0.804
 6002TIP3    H217971   6.414   5.338   0.886
 6003TIP3   OH217972   0.901   0.663   3.655
 6003TIP3    H117973   0.825   0.670   3.597
 6003TIP3    H217974   0.951   0.743   3.638
 6004TIP3   OH217975   6.092   6.144   5.587
 6004TIP3    H117976   6.134   6.110   5.509
 6004TIP3    H217977   6.083   6.068   5.645
 6005TIP3   OH217978   4.640   5.592   0.931
 6005TIP3    H117979   4.677   5.613   0.845
 6005TIP3    H217980   4.678   5.507   0.952
 6006TIP3   OH217981   2.119   5.103   1.325
 6006TIP3    H117982   2.034   5.086   1.286
 6006TIP3    H217983   2.176   5.124   1.250
 6007TIP3   OH217984   0.244   1.670   4.577
 6007TIP3    H117985   0.171   1.685   4.637
 6007TIP3    H217986   0.319   1.654   4.635
 6008TIP3   OH217987   3.498   1.511   4.326
 6008TIP3    H117988   3.421   1.522   4.382
 6008TIP3    H217989   3.530   1.600   4.313
 6009TIP3   OH217990   6.321   1.650   0.998
 6009TIP3    H117991   6.262   1.705   0.946
 6009TIP3    H217992   6.299   1.560   0.973
 6010TIP3   OH217993   4.632   5.585   3.057
 6010TIP3    H117994   4.707   5.606   3.001
 6010TIP3    H217995   4.649   5.631   3.138
 6011TIP3   OH217996   2.947   3.240   3.972
 6011TIP3    H117997   3.002   3.174   3.929
 6011TIP3    H217998   2.936   3.207   4.061
 6012TIP3   OH217999   3.365   0.092   0.712
 6012TIP3    H118000   3.312   0.032   0.659
 6012TIP3    H218001   3.454   0.056   0.708
 6013TIP3   OH218002   2.269   3.119   0.179
 6013TIP3    H118003   2.302   3.208   0.168
 6013TIP3    H218004   2.303   3.071   0.103
 6014TIP3   OH218005   5.515   3.777   0.852
 6014TIP3    H118006   5.476   3.830   0.922
 6014TIP3    H218007   5.444   3.764   0.790
 6015TIP3   OH218008   1.371   6.774   3.813
 6015TIP3    H118009   1.388   6.809   3.726
 6015TIP3    H218010   1.350   6.851   3.866
 6016TIP3   OH218011   6.382   2.104   2.379
 6016TIP3    H118012   6.409   2.186   2.420
 6016TIP3    H218013   6.349   2.130   2.293
 6017TIP3   OH218014   5.047   6.158   3.550
 6017TIP3    H118015   5.042   6.064   3.533
 6017TIP3    H218016   4.995   6.170   3.629
 6018TIP3   OH218017   2.073   5.956   5.008
 6018TIP3    H118018   2.167   5.955   5.028
 6018TIP3    H218019   2.043   6.041   5.039
 6019TIP3   OH218020   4.948   2.126   3.283
 6019TIP3    H118021   5.042   2.108   3.289
 6019TIP3    H218022   4.908   2.040   3.267
 6020TIP3   OH218023   1.730   1.601   3.830
 6020TIP3    H118024   1.787   1.584   3.755
 6020TIP3    H218025   1.701   1.691   3.818
 6021TIP3   OH218026   0.638   6.545   5.661
 6021TIP3    H118027   0.720   6.595   5.662
 6021TIP3    H218028   0.615   6.539   5.568
 6022TIP3   OH218029   6.506   6.494   3.173
 6022TIP3    H118030   6.590   6.459   3.203
 6022TIP3    H218031   6.498   6.579   3.218
 6023TIP3   OH218032   6.116   1.605   4.204
 6023TIP3    H118033   6.149   1.649   4.126
 6023TIP3    H218034   6.098   1.676   4.266
 6024TIP3   OH218035   3.638   3.831   3.749
 6024TIP3    H118036   3.632   3.810   3.842
 6024TIP3    H218037   3.691   3.761   3.711
 6025TIP3   OH218038   2.118   3.702   2.786
 6025TIP3    H118039   2.185   3.643   2.751
 6025TIP3    H218040   2.044   3.691   2.726
 6026TIP3   OH218041   5.618   5.117   1.332
 6026TIP3    H118042   5.541   5.162   1.299
 6026TIP3    H218043   5.607   5.026   1.302
 6027TIP3   OH218044   3.925   2.714   0.657
 6027TIP3    H118045   3.983   2.720   0.580
 6027TIP3    H218046   3.840   2.744   0.624
 6028TIP3   OH218047   6.345   0.271   0.350
 6028TIP3    H118048   6.334   0.199   0.412
 6028TIP3    H218049   6.368   0.347   0.404
 6029TIP3   OH218050   7.017   2.044   3.940
 6029TIP3    H118051   7.005   2.133   3.905
 6029TIP3    H218052   7.080   2.055   4.011
 6030TIP3   OH218053   3.190   6.103   5.594
 6030TIP3    H118054   3.184   6.191   5.556
 6030TIP3    H218055   3.252   6.057   5.539
 6031TIP3   OH218056   7.083   3.049   0.449
 6031TIP3    H118057   7.175   3.072   0.435
 6031TIP3    H218058   7.087   2.967   0.499
 6032TIP3   OH218059   2.425   3.465   5.080
 6032TIP3    H118060   2.476   3.389   5.052
 6032TIP3    H218061   2.338   3.430   5.101
 6033TIP3   OH218062   5.787   1.316   3.584
 6033TIP3    H118063   5.776   1.410   3.575
 6033TIP3    H218064   5.867   1.297   3.535
 6034TIP3   OH218065   0.894   5.574   1.721
 6034TIP3    H118066   0.894   5.595   1.814
 6034TIP3    H218067   0.804   5.545   1.703
 6035TIP3   OH218068   7.139   6.554   0.349
 6035TIP3    H118069   7.072   6.543   0.281
 6035TIP3    H218070   7.105   6.505   0.424
 6036TIP3   OH218071   3.300   1.063   3.240
 6036TIP3    H118072   3.206   1.061   3.225
 6036TIP3    H218073   3.315   0.999   3.310
 6037TIP3   OH218074   6.827   0.860   2.777
 6037TIP3    H118075   6.844   0.766   2.784
 6037TIP3    H218076   6.732   0.867   2.768
 6038TIP3   OH218077   4.054   2.380   0.993
 6038TIP3    H118078   4.137   2.424   0.974
 6038TIP3    H218079   4.020   2.425   1.069
 6039TIP3   OH218080   3.570   3.956   4.304
 6039TIP3    H118081   3.513   4.011   4.251
 6039TIP3    H218082   3.647   4.009   4.320
 6040TIP3   OH218083   5.629   2.024   3.145
 6040TIP3    H118084   5.589   1.988   3.066
 6040TIP3    H218085   5.655   2.113   3.120
 6041TIP3   OH218086   3.872   3.772   1.058
 6041TIP3    H118087   3.907   3.717   0.988
 6041TIP3    H218088   3.858   3.712   1.131
 6042TIP3   OH218089   0.914   4.640   1.402
 6042TIP3    H118090   0.941   4.552   1.378
 6042TIP3    H218091   0.948   4.653   1.491
 6043TIP3   OH218092   0.204   4.045   4.572
 6043TIP3    H118093   0.251   3.986   4.630
 6043TIP3    H218094   0.237   4.026   4.484
 6044TIP3   OH218095   4.025   0.453   0.322
 6044TIP3    H118096   4.045   0.513   0.251
 6044TIP3    H218097   3.954   0.398   0.289
 6045TIP3   OH218098   2.634   1.375   5.096
 6045TIP3    H118099   2.590   1.304   5.049
 6045TIP3    H218100   2.651   1.340   5.183
 6046TIP3   OH218101   4.279   3.045   1.837
 6046TIP3    H118102   4.269   2.950   1.835
 6046TIP3    H218103   4.214   3.077   1.773
 6047TIP3   OH218104   5.939   4.131   1.989
 6047TIP3    H118105   5.938   4.158   2.081
 6047TIP3    H218106   5.996   4.195   1.946
 6048TIP3   OH218107   5.347   0.281   5.750
 6048TIP3    H118108   5.391   0.360   5.781
 6048TIP3    H218109   5.263   0.281   5.796
 6049TIP3   OH218110   3.671   6.223   1.019
 6049TIP3    H118111   3.632   6.311   1.023
 6049TIP3    H218112   3.757   6.234   1.058
 6050TIP3   OH218113   1.424   5.461   0.749
 6050TIP3    H118114   1.412   5.550   0.782
 6050TIP3    H218115   1.357   5.410   0.794
 6051TIP3   OH218116   4.940   0.782   2.165
 6051TIP3    H118117   4.929   0.876   2.152
 6051TIP3    H218118   5.035   0.771   2.177
 6052TIP3   OH218119   5.146   3.895   0.472
 6052TIP3    H118120   5.092   3.817   0.488
 6052TIP3    H218121   5.175   3.885   0.381
 6053TIP3   OH218122   1.126   4.763   3.856
 6053TIP3    H118123   1.200   4.807   3.897
 6053TIP3    H218124   1.155   4.747   3.766
 6054TIP3   OH218125   1.936   5.961   3.589
 6054TIP3    H118126   2.025   5.994   3.605
 6054TIP3    H218127   1.899   5.950   3.677
 6055TIP3   OH218128   3.710   5.132   5.315
 6055TIP3    H118129   3.615   5.142   5.322
 6055TIP3    H218130   3.737   5.095   5.399
 6056TIP3   OH218131   0.697   5.656   2.652
 6056TIP3    H118132   0.726   5.593   2.718
 6056TIP3    H218133   0.705   5.608   2.569
 6057TIP3   OH218134   4.669   1.737   3.630
 6057TIP3    H118135   4.672   1.832   3.623
 6057TIP3    H218136   4.576   1.715   3.627
 6058TIP3   OH218137   2.677   6.260   1.868
 6058TIP3    H118138   2.725   6.207   1.804
 6058TIP3    H218139   2.635   6.196   1.926
 6059TIP3   OH218140   3.567   0.282   3.074
 6059TIP3    H118141   3.502   0.212   3.082
 6059TIP3    H218142   3.626   0.254   3.005
 6060TIP3   OH218143   2.730   3.189   3.146
 6060TIP3    H118144   2.716   3.284   3.141
 6060TIP3    H218145   2.825   3.179   3.146
 6061TIP3   OH218146   3.232   2.869   0.460
 6061TIP3    H118147   3.255   2.907   0.544
 6061TIP3    H218148   3.254   2.936   0.395
 6062TIP3   OH218149   0.985   1.008   2.342
 6062TIP3    H118150   1.051   0.941   2.360
 6062TIP3    H218151   0.980   1.013   2.247
 6063TIP3   OH218152   3.557   5.471   2.967
 6063TIP3    H118153   3.637   5.444   2.923
 6063TIP3    H218154   3.502   5.393   2.968
 6064TIP3   OH218155   7.130   3.383   2.560
 6064TIP3    H118156   7.046   3.411   2.597
 6064TIP3    H218157   7.162   3.317   2.622
 6065TIP3   OH218158   5.083   2.078   2.955
 6065TIP3    H118159   5.094   2.115   3.043
 6065TIP3    H218160   4.990   2.089   2.936
 6066TIP3   OH218161   5.078   4.560   5.402
 6066TIP3    H118162   5.060   4.508   5.324
 6066TIP3    H218163   5.140   4.508   5.452
 6067TIP3   OH218164   1.651   2.890   2.064
 6067TIP3    H118165   1.704   2.963   2.033
 6067TIP3    H218166   1.686   2.871   2.151
 6068TIP3   OH218167   1.717   6.018   1.697
 6068TIP3    H118168   1.775   5.947   1.669
 6068TIP3    H218169   1.693   5.996   1.787
 6069TIP3   OH218170   5.155   2.820   1.958
 6069TIP3    H118171   5.170   2.741   1.904
 6069TIP3    H218172   5.060   2.830   1.960
 6070TIP3   OH218173   7.130   1.163   0.232
 6070TIP3    H118174   7.121   1.089   0.293
 6070TIP3    H218175   7.184   1.226   0.279
 6071TIP3   OH218176   6.054   6.661   1.044
 6071TIP3    H118177   6.066   6.622   0.957
 6071TIP3    H218178   5.962   6.648   1.063
 6072TIP3   OH218179   4.985   5.952   4.684
 6072TIP3    H118180   5.002   5.988   4.597
 6072TIP3    H218181   4.986   5.857   4.670
 6073TIP3   OH218182   3.644   4.449   1.331
 6073TIP3    H118183   3.709   4.429   1.264
 6073TIP3    H218184   3.561   4.417   1.294
 6074TIP3   OH218185   2.994   3.001   2.001
 6074TIP3    H118186   2.957   3.011   2.089
 6074TIP3    H218187   3.086   3.024   2.011
 6075TIP3   OH218188   2.958   0.085   3.226
 6075TIP3    H118189   3.000   0.000   3.239
 6075TIP3    H218190   2.945   0.091   3.131
 6076TIP3   OH218191   6.739   6.606   0.734
 6076TIP3    H118192   6.655   6.590   0.776
 6076TIP3    H218193   6.804   6.580   0.800
 6077TIP3   OH218194   2.091   1.313   4.174
 6077TIP3    H118195   2.067   1.273   4.090
 6077TIP3    H218196   2.096   1.407   4.155
 6078TIP3   OH218197   2.896   6.369   1.173
 6078TIP3    H118198   2.979   6.340   1.136
 6078TIP3    H218199   2.833   6.362   1.101
 6079TIP3   OH218200   6.474   0.315   5.689
 6079TIP3    H118201   6.510   0.226   5.694
 6079TIP3    H218202   6.453   0.337   5.780
 6080TIP3   OH218203   4.031   2.304   1.954
 6080TIP3    H118204   3.993   2.299   2.041
 6080TIP3    H218205   3.960   2.275   1.895
 6081TIP3   OH218206   2.636   0.604   0.416
 6081TIP3    H118207   2.614   0.515   0.443
 6081TIP3    H218208   2.637   0.601   0.320
 6082TIP3   OH218209   5.020   3.698   1.814
 6082TIP3    H118210   5.055   3.685   1.726
 6082TIP3    H218211   4.960   3.625   1.828
 6083TIP3   OH218212   0.113   0.840   2.066
 6083TIP3    H118213   0.027   0.862   2.030
 6083TIP3    H218214   0.104   0.750   2.098
 6084TIP3   OH218215   1.670   3.827   4.051
 6084TIP3    H118216   1.687   3.909   4.004
 6084TIP3    H218217   1.748   3.815   4.106
 6085TIP3   OH218218   6.343   4.121   1.812
 6085TIP3    H118219   6.272   4.103   1.751
 6085TIP3    H218220   6.423   4.111   1.759
 6086TIP3   OH218221   4.258   5.262   2.071
 6086TIP3    H118222   4.183   5.267   2.130
 6086TIP3    H218223   4.286   5.171   2.075
 6087TIP3   OH218224   2.807   1.247   0.152
 6087TIP3    H118225   2.756   1.321   0.118
 6087TIP3    H218226   2.850   1.210   0.075
 6088TIP3   OH218227   5.815   4.531   2.662
 6088TIP3    H118228   5.751   4.587   2.706
 6088TIP3    H218229   5.882   4.514   2.729
 6089TIP3   OH218230   2.926   0.656   2.362
 6089TIP3    H118231   2.867   0.587   2.392
 6089TIP3    H218232   2.895   0.677   2.274
 6090TIP3   OH218233   7.031   5.171   4.987
 6090TIP3    H118234   7.069   5.259   4.992
 6090TIP3    H218235   7.010   5.159   4.894
 6091TIP3   OH218236   5.933   0.580   3.828
 6091TIP3    H118237   5.854   0.623   3.794
 6091TIP3    H218238   5.907   0.489   3.841
 6092TIP3   OH218239   6.387   2.770   0.939
 6092TIP3    H118240   6.339   2.844   0.901
 6092TIP3    H218241   6.323   2.699   0.939
 6093TIP3   OH218242   0.058   0.740   3.967
 6093TIP3    H118243   0.130   0.679   3.982
 6093TIP3    H218244   0.095   0.827   3.982
 6094TIP3   OH218245   0.080   6.786   4.717
 6094TIP3    H118246   0.058   6.854   4.652
 6094TIP3    H218247   0.131   6.722   4.668
 6095TIP3   OH218248   6.534   2.604   0.605
 6095TIP3    H118249   6.625   2.588   0.581
 6095TIP3    H218250   6.496   2.645   0.528
 6096TIP3   OH218251   0.834   3.273   1.791
 6096TIP3    H118252   0.808   3.181   1.787
 6096TIP3    H218253   0.761   3.317   1.836
 6097TIP3   OH218254   0.379   2.880   1.794
 6097TIP3    H118255   0.441   2.941   1.836
 6097TIP3    H218256   0.303   2.879   1.852
 6098TIP3   OH218257   1.177   1.270   2.259
 6098TIP3    H118258   1.194   1.191   2.310
 6098TIP3    H218259   1.114   1.243   2.192
 6099TIP3   OH218260   0.399   4.292   3.292
 6099TIP3    H118261   0.435   4.218   3.341
 6099TIP3    H218262   0.305   4.272   3.285
 6100TIP3   OH218263   0.091   2.407   2.204
 6100TIP3    H118264   0.182   2.415   2.233
 6100TIP3    H218265   0.089   2.451   2.119
 6101TIP3   OH218266   2.910   1.083   3.968
 6101TIP3    H118267   2.905   0.988   3.981
 6101TIP3    H218268   2.948   1.093   3.880
 6102TIP3   OH218269   2.950   1.755   0.369
 6102TIP3    H118270   2.925   1.840   0.330
 6102TIP3    H218271   2.872   1.700   0.356
 6103TIP3   OH218272   2.043   6.351   3.000
 6103TIP3    H118273   2.057   6.318   2.911
 6103TIP3    H218274   1.949   6.339   3.016
 6104TIP3   OH218275   4.248   0.800   2.646
 6104TIP3    H118276   4.195   0.823   2.723
 6104TIP3    H218277   4.184   0.786   2.577
 6105TIP3   OH218278   4.800   3.523   1.816
 6105TIP3    H118279   4.775   3.430   1.821
 6105TIP3    H218280   4.758   3.554   1.736
 6106TIP3   OH218281   3.841   1.269   3.087
 6106TIP3    H118282   3.759   1.288   3.131
 6106TIP3    H218283   3.906   1.267   3.157
 6107TIP3   OH218284   3.653   0.921   5.340
 6107TIP3    H118285   3.692   0.956   5.261
 6107TIP3    H218286   3.612   0.838   5.313
 6108TIP3   OH218287   6.956   5.159   1.348
 6108TIP3    H118288   7.008   5.238   1.360
 6108TIP3    H218289   6.993   5.117   1.270
 6109TIP3   OH218290   0.911   4.629   2.905
 6109TIP3    H118291   0.969   4.589   2.840
 6109TIP3    H218292   0.966   4.693   2.950
 6110TIP3   OH218293   0.736   4.520   3.283
 6110TIP3    H118294   0.759   4.506   3.375
 6110TIP3    H218295   0.640   4.522   3.283
 6111TIP3   OH218296   6.096   2.799   0.875
 6111TIP3    H118297   6.041   2.760   0.943
 6111TIP3    H218298   6.036   2.815   0.802
 6112TIP3   OH218299   0.592   5.291   0.284
 6112TIP3    H118300   0.627   5.207   0.314
 6112TIP3    H218301   0.516   5.268   0.231
 6113TIP3   OH218302   3.186   6.630   3.946
 6113TIP3    H118303   3.106   6.643   3.997
 6113TIP3    H218304   3.191   6.535   3.935
 6114TIP3   OH218305   3.948   4.973   1.842
 6114TIP3    H118306   4.029   4.922   1.854
 6114TIP3    H218307   3.880   4.919   1.881
 6115TIP3   OH218308   1.191   6.557   1.736
 6115TIP3    H118309   1.247   6.485   1.706
 6115TIP3    H218310   1.109   6.514   1.761
 6116TIP3   OH218311   0.216   1.145   3.206
 6116TIP3    H118312   0.289   1.131   3.146
 6116TIP3    H218313   0.246   1.217   3.263
 6117TIP3   OH218314   0.288   3.542   3.429
 6117TIP3    H118315   0.286   3.454   3.468
 6117TIP3    H218316   0.321   3.528   3.341
 6118TIP3   OH218317   7.139   5.920   0.695
 6118TIP3    H118318   7.160   5.844   0.640
 6118TIP3    H218319   7.159   5.996   0.640
 6119TIP3   OH218320   4.849   1.537   3.696
 6119TIP3    H118321   4.805   1.453   3.709
 6119TIP3    H218322   4.778   1.600   3.684
 6120TIP3   OH218323   0.147   2.297   2.859
 6120TIP3    H118324   0.107   2.241   2.792
 6120TIP3    H218325   0.239   2.270   2.860
 6121TIP3   OH218326   5.679   4.534   2.065
 6121TIP3    H118327   5.593   4.499   2.040
 6121TIP3    H218328   5.727   4.457   2.096
 6122TIP3   OH218329   5.455   0.160   4.170
 6122TIP3    H118330   5.405   0.232   4.133
 6122TIP3    H218331   5.521   0.202   4.225
 6123TIP3   OH218332   6.977   6.082   0.099
 6123TIP3    H118333   7.056   6.124   0.133
 6123TIP3    H218334   6.922   6.155   0.070
 6124TIP3   OH218335   1.324   0.501   1.249
 6124TIP3    H118336   1.416   0.521   1.266
 6124TIP3    H218337   1.281   0.518   1.333
 6125TIP3   OH218338   1.567   3.690   1.293
 6125TIP3    H118339   1.473   3.672   1.290
 6125TIP3    H218340   1.607   3.605   1.312
 6126TIP3   OH218341   7.042   1.776   2.123
 6126TIP3    H118342   6.972   1.794   2.061
 6126TIP3    H218343   7.112   1.836   2.098
 6127TIP3   OH218344   5.913   6.535   4.310
 6127TIP3    H118345   5.912   6.497   4.399
 6127TIP3    H218346   5.910   6.459   4.252
 6128TIP3   OH218347   1.916   1.828   1.582
 6128TIP3    H118348   1.987   1.818   1.646
 6128TIP3    H218349   1.855   1.889   1.624
 6129TIP3   OH218350   1.475   0.083   4.640
 6129TIP3    H118351   1.523   0.083   4.557
 6129TIP3    H218352   1.441  -0.006   4.647
 6130TIP3   OH218353   3.729   3.097   4.373
 6130TIP3    H118354   3.719   3.030   4.441
 6130TIP3    H218355   3.764   3.050   4.297
 6131TIP3   OH218356   0.655   5.331   4.258
 6131TIP3    H118357   0.592   5.399   4.232
 6131TIP3    H218358   0.673   5.283   4.177
 6132TIP3   OH218359   1.595   3.635   0.106
 6132TIP3    H118360   1.671   3.681   0.073
 6132TIP3    H218361   1.581   3.672   0.193
 6133TIP3   OH218362   6.720   4.132   5.419
 6133TIP3    H118363   6.740   4.058   5.361
 6133TIP3    H218364   6.737   4.098   5.507
 6134TIP3   OH218365   4.523   3.130   2.170
 6134TIP3    H118366   4.431   3.155   2.158
 6134TIP3    H218367   4.522   3.035   2.174
 6135TIP3   OH218368   6.534   3.587   3.267
 6135TIP3    H118369   6.582   3.504   3.267
 6135TIP3    H218370   6.565   3.633   3.345
 6136TIP3   OH218371   4.436   5.361   4.579
 6136TIP3    H118372   4.525   5.327   4.569
 6136TIP3    H218373   4.380   5.291   4.547
 6137TIP3   OH218374   0.572   4.455   2.363
 6137TIP3    H118375   0.526   4.438   2.445
 6137TIP3    H218376   0.661   4.480   2.391
 6138TIP3   OH218377   1.299   6.712   2.167
 6138TIP3    H118378   1.320   6.771   2.095
 6138TIP3    H218379   1.343   6.751   2.243
 6139TIP3   OH218380   3.060   1.361   0.836
 6139TIP3    H118381   3.032   1.447   0.805
 6139TIP3    H218382   2.984   1.305   0.821
 6140TIP3   OH218383   0.996   4.290   3.615
 6140TIP3    H118384   0.960   4.336   3.539
 6140TIP3    H218385   0.945   4.323   3.689
 6141TIP3   OH218386   4.364   4.645   2.429
 6141TIP3    H118387   4.306   4.581   2.388
 6141TIP3    H218388   4.389   4.704   2.358
 6142TIP3   OH218389   3.975   0.954   2.693
 6142TIP3    H118390   3.879   0.946   2.696
 6142TIP3    H218391   3.991   1.040   2.654
 6143TIP3   OH218392   0.996   1.717   4.403
 6143TIP3    H118393   1.036   1.691   4.486
 6143TIP3    H218394   0.934   1.786   4.427
 6144TIP3   OH218395   2.505   0.371   0.434
 6144TIP3    H118396   2.482   0.386   0.342
 6144TIP3    H218397   2.551   0.287   0.434
 6145TIP3   OH218398   3.181   2.746   3.192
 6145TIP3    H118399   3.165   2.653   3.208
 6145TIP3    H218400   3.169   2.756   3.097
 6146TIP3   OH218401   5.877   5.326   3.795
 6146TIP3    H118402   5.913   5.241   3.773
 6146TIP3    H218403   5.906   5.343   3.885
 6147TIP3   OH218404   2.022   0.972   0.978
 6147TIP3    H118405   2.060   0.898   1.025
 6147TIP3    H218406   2.051   1.049   1.026
 6148TIP3   OH218407   4.164   4.922   2.980
 6148TIP3    H118408   4.207   5.001   2.949
 6148TIP3    H218409   4.071   4.935   2.960
 6149TIP3   OH218410   4.809   5.308   2.610
 6149TIP3    H118411   4.812   5.342   2.700
 6149TIP3    H218412   4.755   5.229   2.617
 6150TIP3   OH218413   4.125   2.640   4.134
 6150TIP3    H118414   4.054   2.589   4.174
 6150TIP3    H218415   4.203   2.613   4.183
 6151TIP3   OH218416   2.744   5.166   3.203
 6151TIP3    H118417   2.711   5.087   3.246
 6151TIP3    H218418   2.802   5.206   3.267
 6152TIP3   OH218419   2.127   0.720   4.666
 6152TIP3    H118420   2.184   0.679   4.601
 6152TIP3    H218421   2.094   0.648   4.718
 6153TIP3   OH218422   6.670   3.766   0.125
 6153TIP3    H118423   6.697   3.858   0.122
 6153TIP3    H218424   6.574   3.770   0.122
 6154TIP3   OH218425   0.714   3.815   5.283
 6154TIP3    H118426   0.700   3.882   5.350
 6154TIP3    H218427   0.771   3.751   5.325
 6155TIP3   OH218428   4.940   3.210   4.593
 6155TIP3    H118429   4.892   3.282   4.552
 6155TIP3    H218430   5.017   3.198   4.537
 6156TIP3   OH218431   0.147   1.305   4.875
 6156TIP3    H118432   0.161   1.400   4.873
 6156TIP3    H218433   0.178   1.275   4.790
 6157TIP3   OH218434   5.812   5.354   0.084
 6157TIP3    H118435   5.768   5.389   0.007
 6157TIP3    H218436   5.868   5.284   0.051
 6158TIP3   OH218437   5.914   4.945   5.246
 6158TIP3    H118438   5.992   4.901   5.213
 6158TIP3    H218439   5.946   4.999   5.319
 6159TIP3   OH218440   4.300   2.067   4.580
 6159TIP3    H118441   4.386   2.109   4.578
 6159TIP3    H218442   4.312   1.984   4.534
 6160TIP3   OH218443   1.092   2.854   2.958
 6160TIP3    H118444   1.011   2.899   2.934
 6160TIP3    H218445   1.141   2.848   2.876
 6161TIP3   OH218446   5.541   0.638   1.676
 6161TIP3    H118447   5.453   0.623   1.640
 6161TIP3    H218448   5.594   0.663   1.600
 6162TIP3   OH218449   1.505   2.561   0.239
 6162TIP3    H118450   1.588   2.587   0.197
 6162TIP3    H218451   1.529   2.488   0.295
 6163TIP3   OH218452   1.415   4.775   3.895
 6163TIP3    H118453   1.387   4.692   3.934
 6163TIP3    H218454   1.437   4.831   3.970
 6164TIP3   OH218455   6.717   0.487   1.216
 6164TIP3    H118456   6.793   0.515   1.166
 6164TIP3    H218457   6.656   0.453   1.151
 6165TIP3   OH218458   5.759   3.197   3.040
 6165TIP3    H118459   5.669   3.192   3.008
 6165TIP3    H218460   5.777   3.290   3.050
 6166TIP3   OH218461   5.448   0.765   0.582
 6166TIP3    H118462   5.392   0.688   0.593
 6166TIP3    H218463   5.446   0.783   0.488
 6167TIP3   OH218464   1.719   1.091   0.421
 6167TIP3    H118465   1.788   1.025   0.412
 6167TIP3    H218466   1.694   1.087   0.513
 6168TIP3   OH218467   2.417   5.549   1.028
 6168TIP3    H118468   2.429   5.459   1.058
 6168TIP3    H218469   2.467   5.554   0.946
 6169TIP3   OH218470   4.490   5.161   4.247
 6169TIP3    H118471   4.450   5.164   4.160
 6169TIP3    H218472   4.425   5.114   4.300
 6170TIP3   OH218473   5.432   6.458   1.935
 6170TIP3    H118474   5.454   6.387   1.874
 6170TIP3    H218475   5.356   6.425   1.983
 6171TIP3   OH218476   2.223   6.401   2.681
 6171TIP3    H118477   2.295   6.434   2.626
 6171TIP3    H218478   2.175   6.479   2.706
 6172TIP3   OH218479   2.614   5.590   1.351
 6172TIP3    H118480   2.694   5.550   1.317
 6172TIP3    H218481   2.583   5.647   1.281
 6173TIP3   OH218482   4.612   5.569   1.842
 6173TIP3    H118483   4.689   5.521   1.814
 6173TIP3    H218484   4.539   5.524   1.799
 6174TIP3   OH218485   4.604   2.117   1.623
 6174TIP3    H118486   4.573   2.154   1.540
 6174TIP3    H218487   4.530   2.066   1.655
 6175TIP3   OH218488   4.468   2.112   1.374
 6175TIP3    H118489   4.402   2.055   1.413
 6175TIP3    H218490   4.474   2.084   1.283
 6176TIP3   OH218491   6.417   0.640   3.530
 6176TIP3    H118492   6.361   0.698   3.582
 6176TIP3    H218493   6.442   0.570   3.590
 6177TIP3   OH218494   3.264   6.268   2.806
 6177TIP3    H118495   3.211   6.210   2.751
 6177TIP3    H218496   3.284   6.215   2.884
 6178TIP3   OH218497   6.616   2.515   3.959
 6178TIP3    H118498   6.603   2.533   3.866
 6178TIP3    H218499   6.610   2.601   4.001
 6179TIP3   OH218500   4.033   4.091   2.573
 6179TIP3    H118501   4.129   4.089   2.578
 6179TIP3    H218502   4.008   4.000   2.561
 6180TIP3   OH218503   6.542   6.084   5.062
 6180TIP3    H118504   6.453   6.063   5.034
 6180TIP3    H218505   6.576   6.141   4.994
 6181TIP3   OH218506   0.588   0.089   2.183
 6181TIP3    H118507   0.610   0.003   2.220
 6181TIP3    H218508   0.576   0.071   2.089
 6182TIP3   OH218509   4.344   6.733   5.190
 6182TIP3    H118510   4.258   6.740   5.231
 6182TIP3    H218511   4.334   6.779   5.106
 6183TIP3   OH218512   2.643   3.729   4.836
 6183TIP3    H118513   2.650   3.636   4.815
 6183TIP3    H218514   2.562   3.736   4.887
 6184TIP3   OH218515   7.197   6.231   3.894
 6184TIP3    H118516   7.203   6.137   3.908
 6184TIP3    H218517   7.180   6.267   3.981
 6185TIP3   OH218518   6.000   4.925   2.077
 6185TIP3    H118519   6.080   4.968   2.048
 6185TIP3    H218520   5.955   4.902   1.996
 6186TIP3   OH218521   2.001   2.837   4.592
 6186TIP3    H118522   2.064   2.864   4.659
 6186TIP3    H218523   1.969   2.920   4.555
 6187TIP3   OH218524   1.506   1.079   0.891
 6187TIP3    H118525   1.463   0.997   0.865
 6187TIP3    H218526   1.576   1.051   0.951
 6188TIP3   OH218527   6.842   0.918   1.516
 6188TIP3    H118528   6.791   0.839   1.497
 6188TIP3    H218529   6.866   0.952   1.430
 6189TIP3   OH218530   3.440   2.910   4.392
 6189TIP3    H118531   3.419   2.820   4.416
 6189TIP3    H218532   3.531   2.922   4.420
 6190TIP3   OH218533   2.199   3.584   0.239
 6190TIP3    H118534   2.189   3.661   0.294
 6190TIP3    H218535   2.125   3.528   0.261
 6191TIP3   OH218536   2.451   1.914   5.422
 6191TIP3    H118537   2.535   1.943   5.387
 6191TIP3    H218538   2.395   1.992   5.418
 6192TIP3   OH218539   2.794   3.982   3.126
 6192TIP3    H118540   2.878   3.955   3.163
 6192TIP3    H218541   2.804   4.076   3.112
 6193TIP3   OH218542   4.738   1.524   0.043
 6193TIP3    H118543   4.716   1.445   0.093
 6193TIP3    H218544   4.821   1.504   0.002
 6194TIP3   OH218545   3.911   3.155   3.501
 6194TIP3    H118546   4.005   3.149   3.512
 6194TIP3    H218547   3.882   3.217   3.568
 6195TIP3   OH218548   6.677   4.515   5.400
 6195TIP3    H118549   6.714   4.428   5.385
 6195TIP3    H218550   6.648   4.544   5.313
 6196TIP3   OH218551   1.376   6.045   2.773
 6196TIP3    H118552   1.309   6.033   2.841
 6196TIP3    H218553   1.438   6.107   2.811
 6197TIP3   OH218554   1.806   1.864   3.419
 6197TIP3    H118555   1.856   1.875   3.339
 6197TIP3    H218556   1.862   1.811   3.476
 6198TIP3   OH218557   4.510   2.334   0.285
 6198TIP3    H118558   4.600   2.359   0.266
 6198TIP3    H218559   4.456   2.396   0.235
 6199TIP3   OH218560   1.717   5.242  -0.010
 6199TIP3    H118561   1.718   5.336   0.005
 6199TIP3    H218562   1.630   5.214   0.020
 6200TIP3   OH218563   4.754   4.616   2.919
 6200TIP3    H118564   4.778   4.689   2.975
 6200TIP3    H218565   4.834   4.595   2.870
 6201TIP3   OH218566   3.260   1.810   3.431
 6201TIP3    H118567   3.341   1.804   3.482
 6201TIP3    H218568   3.203   1.867   3.483
 6202TIP3   OH218569   1.106   4.801   0.712
 6202TIP3    H118570   1.121   4.811   0.618
 6202TIP3    H218571   1.147   4.878   0.751
 6203TIP3   OH218572   4.449   2.517   0.759
 6203TIP3    H118573   4.526   2.562   0.723
 6203TIP3    H218574   4.465   2.514   0.853
 6204TIP3   OH218575   0.862   3.706   0.742
 6204TIP3    H118576   0.842   3.767   0.813
 6204TIP3    H218577   0.863   3.761   0.663
 6205TIP3   OH218578   5.312   1.521   0.393
 6205TIP3    H118579   5.310   1.568   0.477
 6205TIP3    H218580   5.335   1.587   0.329
 6206TIP3   OH218581   3.016   6.472   0.054
 6206TIP3    H118582   3.043   6.528  -0.019
 6206TIP3    H218583   3.061   6.389   0.039
 6207TIP3   OH218584   4.892   3.912   2.682
 6207TIP3    H118585   4.912   3.877   2.769
 6207TIP3    H218586   4.929   4.000   2.682
 6208TIP3   OH218587   5.849   1.458   1.128
 6208TIP3    H118588   5.867   1.535   1.073
 6208TIP3    H218589   5.931   1.441   1.173
 6209TIP3   OH218590   7.194   3.984   2.961
 6209TIP3    H118591   7.109   3.974   3.005
 6209TIP3    H218592   7.182   3.942   2.876
 6210TIP3   OH218593   5.194   4.178   1.609
 6210TIP3    H118594   5.200   4.166   1.703
 6210TIP3    H218595   5.280   4.211   1.584
 6211TIP3   OH218596   2.455   0.811   5.734
 6211TIP3    H118597   2.536   0.831   5.781
 6211TIP3    H218598   2.483   0.794   5.644
 6212TIP3   OH218599   2.017   0.867   1.369
 6212TIP3    H118600   2.090   0.839   1.314
 6212TIP3    H218601   1.959   0.791   1.370
 6213TIP3   OH218602   4.131   1.194   4.006
 6213TIP3    H118603   4.053   1.149   4.037
 6213TIP3    H218604   4.097   1.270   3.959
 6214TIP3   OH218605   2.144   1.731   4.850
 6214TIP3    H118606   2.090   1.658   4.881
 6214TIP3    H218607   2.228   1.720   4.896
 6215TIP3   OH218608   6.780   5.883   0.174
 6215TIP3    H118609   6.832   5.803   0.176
 6215TIP3    H218610   6.843   5.952   0.157
 6216TIP3   OH218611   1.217   4.276   4.561
 6216TIP3    H118612   1.240   4.187   4.534
 6216TIP3    H218613   1.151   4.263   4.629
 6217TIP3   OH218614   0.714   1.809   0.102
 6217TIP3    H118615   0.647   1.877   0.101
 6217TIP3    H218616   0.671   1.733   0.140
 6218TIP3   OH218617   2.958   0.922   2.227
 6218TIP3    H118618   3.013   0.893   2.299
 6218TIP3    H218619   2.944   0.844   2.174
 6219TIP3   OH218620   5.694   6.476   0.046
 6219TIP3    H118621   5.781   6.501   0.013
 6219TIP3    H218622   5.656   6.558   0.077
 6220TIP3   OH218623   6.776   2.614   2.672
 6220TIP3    H118624   6.743   2.628   2.583
 6220TIP3    H218625   6.757   2.522   2.690
 6221TIP3   OH218626   6.228   1.779   4.812
 6221TIP3    H118627   6.284   1.712   4.773
 6221TIP3    H218628   6.283   1.821   4.879
 6222TIP3   OH218629   1.564   6.677   0.606
 6222TIP3    H118630   1.504   6.661   0.533
 6222TIP3    H218631   1.552   6.601   0.663
 6223TIP3   OH218632   2.202   0.590   0.857
 6223TIP3    H118633   2.286   0.630   0.881
 6223TIP3    H218634   2.183   0.530   0.929
 6224TIP3   OH218635   0.385   6.024   4.069
 6224TIP3    H118636   0.306   5.988   4.109
 6224TIP3    H218637   0.358   6.109   4.034
 6225TIP3   OH218638   1.817   1.863   5.780
 6225TIP3    H118639   1.756   1.925   5.741
 6225TIP3    H218640   1.763   1.789   5.807
 6226TIP3   OH218641   5.195   0.593   4.902
 6226TIP3    H118642   5.230   0.678   4.874
 6226TIP3    H218643   5.172   0.549   4.820
 6227TIP3   OH218644   5.082   3.700   1.068
 6227TIP3    H118645   5.145   3.653   1.013
 6227TIP3    H218646   5.118   3.695   1.156
 6228TIP3   OH218647   1.300   6.484   3.399
 6228TIP3    H118648   1.373   6.544   3.382
 6228TIP3    H218649   1.222   6.539   3.399
 6229TIP3   OH218650   0.266   1.996   4.492
 6229TIP3    H118651   0.214   2.003   4.572
 6229TIP3    H218652   0.355   2.017   4.519
 6230TIP3   OH218653   4.296   2.206   3.340
 6230TIP3    H118654   4.369   2.222   3.281
 6230TIP3    H218655   4.307   2.270   3.411
 6231TIP3   OH218656   3.800   1.226   1.701
 6231TIP3    H118657   3.819   1.247   1.793
 6231TIP3    H218658   3.780   1.133   1.702
 6232TIP3   OH218659   4.377   0.260   2.988
 6232TIP3    H118660   4.355   0.281   2.897
 6232TIP3    H218661   4.463   0.219   2.984
 6233TIP3   OH218662   1.861   1.226   4.947
 6233TIP3    H118663   1.825   1.144   4.912
 6233TIP3    H218664   1.810   1.243   5.026
 6234TIP3   OH218665   0.416   6.760   1.213
 6234TIP3    H118666   0.389   6.671   1.231
 6234TIP3    H218667   0.504   6.767   1.252
 6235TIP3   OH218668   7.230   4.784   1.174
 6235TIP3    H118669   7.214   4.819   1.262
 6235TIP3    H218670   7.203   4.855   1.115
 6236TIP3   OH218671   1.092   6.270   0.360
 6236TIP3    H118672   1.076   6.335   0.292
 6236TIP3    H218673   1.069   6.314   0.442
 6237TIP3   OH218674   2.241   4.722   2.029
 6237TIP3    H118675   2.287   4.653   2.076
 6237TIP3    H218676   2.153   4.688   2.015
 6238TIP3   OH218677   1.752   4.063   3.106
 6238TIP3    H118678   1.728   4.046   3.197
 6238TIP3    H218679   1.754   3.976   3.065
 6239TIP3   OH218680   4.516   0.090   4.645
 6239TIP3    H118681   4.607   0.062   4.646
 6239TIP3    H218682   4.507   0.139   4.563
 6240TIP3   OH218683   6.960   2.839   0.011
 6240TIP3    H118684   6.946   2.898   0.085
 6240TIP3    H218685   6.973   2.896  -0.064
 6241TIP3   OH218686   3.409   6.726   3.773
 6241TIP3    H118687   3.374   6.639   3.753
 6241TIP3    H218688   3.340   6.769   3.824
 6242TIP3   OH218689   4.931   1.699   0.789
 6242TIP3    H118690   5.007   1.642   0.774
 6242TIP3    H218691   4.958   1.784   0.756
 6243TIP3   OH218692   2.155   3.321   1.186
 6243TIP3    H118693   2.136   3.395   1.128
 6243TIP3    H218694   2.080   3.319   1.246
 6244TIP3   OH218695   7.002   0.601   1.012
 6244TIP3    H118696   6.918   0.597   0.965
 6244TIP3    H218697   6.991   0.671   1.075
 6245TIP3   OH218698   3.591   4.803   3.874
 6245TIP3    H118699   3.643   4.785   3.795
 6245TIP3    H218700   3.583   4.719   3.917
 6246TIP3   OH218701   2.634   4.875   2.327
 6246TIP3    H118702   2.540   4.881   2.307
 6246TIP3    H218703   2.654   4.781   2.322
 6247TIP3   OH218704   3.859   2.531   0.854
 6247TIP3    H118705   3.928   2.475   0.887
 6247TIP3    H218706   3.905   2.603   0.810
 6248TIP3   OH218707   6.793   3.456   0.752
 6248TIP3    H118708   6.800   3.383   0.814
 6248TIP3    H218709   6.836   3.424   0.672
 6249TIP3   OH218710   0.119   5.357   0.313
 6249TIP3    H118711   0.163   5.277   0.283
 6249TIP3    H218712   0.027   5.331   0.322
 6250TIP3   OH218713   6.740   3.277   4.964
 6250TIP3    H118714   6.756   3.358   4.915
 6250TIP3    H218715   6.656   3.246   4.932
 6251TIP3   OH218716   3.930   4.418   3.505
 6251TIP3    H118717   3.912   4.513   3.507
 6251TIP3    H218718   3.870   4.384   3.439
 6252TIP3   OH218719   3.626   3.300   4.808
 6252TIP3    H118720   3.573   3.227   4.777
 6252TIP3    H218721   3.699   3.305   4.748
 6253TIP3   OH218722   5.078   1.307   4.591
 6253TIP3    H118723   5.000   1.274   4.545
 6253TIP3    H218724   5.129   1.350   4.522
 6254TIP3   OH218725   2.582   3.498   0.254
 6254TIP3    H118726   2.571   3.470   0.345
 6254TIP3    H218727   2.674   3.481   0.235
 6255TIP3   OH218728   5.392   5.242   5.561
 6255TIP3    H118729   5.356   5.156   5.540
 6255TIP3    H218730   5.362   5.299   5.491
 6256TIP3   OH218731   0.888   1.080   0.090
 6256TIP3    H118732   0.887   1.173   0.069
 6256TIP3    H218733   0.817   1.069   0.153
 6257TIP3   OH218734   4.315   0.383   2.375
 6257TIP3    H118735   4.225   0.350   2.374
 6257TIP3    H218736   4.340   0.381   2.467
 6258TIP3   OH218737   7.056   4.704   2.177
 6258TIP3    H118738   7.036   4.677   2.267
 6258TIP3    H218739   7.152   4.700   2.171
 6259TIP3   OH218740   5.087   4.195   5.330
 6259TIP3    H118741   5.086   4.275   5.278
 6259TIP3    H218742   5.180   4.173   5.338
 6260TIP3   OH218743   0.245   2.105   0.967
 6260TIP3    H118744   0.251   2.104   1.063
 6260TIP3    H218745   0.242   2.013   0.942
 6261TIP3   OH218746   5.951   0.207   3.430
 6261TIP3    H118747   5.880   0.143   3.443
 6261TIP3    H218748   5.919   0.287   3.472
 6262TIP3   OH218749   1.155   5.624   4.439
 6262TIP3    H118750   1.075   5.602   4.392
 6262TIP3    H218751   1.224   5.621   4.372
 6263TIP3   OH218752   0.541   6.803   5.612
 6263TIP3    H118753   0.555   6.725   5.665
 6263TIP3    H218754   0.470   6.780   5.553
 6264TIP3   OH218755   6.271   4.956   2.086
 6264TIP3    H118756   6.293   4.917   2.002
 6264TIP3    H218757   6.279   4.884   2.149
 6265TIP3   OH218758   3.350   1.349   0.440
 6265TIP3    H118759   3.414   1.289   0.403
 6265TIP3    H218760   3.350   1.329   0.534
 6266TIP3   OH218761   6.767   4.724   4.184
 6266TIP3    H118762   6.760   4.818   4.204
 6266TIP3    H218763   6.702   4.709   4.116
 6267TIP3   OH218764   0.784   4.171   0.990
 6267TIP3    H118765   0.722   4.240   1.015
 6267TIP3    H218766   0.870   4.212   0.998
 6268TIP3   OH218767   2.460   5.297   5.706
 6268TIP3    H118768   2.400   5.250   5.648
 6268TIP3    H218769   2.541   5.246   5.704
 6269TIP3   OH218770   1.592   1.998   1.375
 6269TIP3    H118771   1.600   2.083   1.419
 6269TIP3    H218772   1.681   1.973   1.353
 6270TIP3   OH218773   2.973   0.456   0.378
 6270TIP3    H118774   3.014   0.429   0.296
 6270TIP3    H218775   2.935   0.375   0.413
 6271TIP3   OH218776   2.976   6.592   1.946
 6271TIP3    H118777   2.890   6.551   1.937
 6271TIP3    H218778   2.974   6.635   2.031
 6272TIP3   OH218779   1.196   4.869   2.352
 6272TIP3    H118780   1.157   4.840   2.269
 6272TIP3    H218781   1.153   4.815   2.419
 6273TIP3   OH218782   0.091   5.717   1.336
 6273TIP3    H118783   0.053   5.754   1.416
 6273TIP3    H218784   0.024   5.658   1.302
 6274TIP3   OH218785   7.006   6.510   0.127
 6274TIP3    H118786   6.912   6.526   0.113
 6274TIP3    H218787   7.040   6.493   0.039
 6275TIP3   OH218788   2.468   5.640   3.767
 6275TIP3    H118789   2.464   5.686   3.683
 6275TIP3    H218790   2.457   5.547   3.744
 6276TIP3   OH218791   2.134   6.649   0.617
 6276TIP3    H118792   2.191   6.706   0.669
 6276TIP3    H218793   2.062   6.627   0.677
 6277TIP3   OH218794   6.458   0.399   4.751
 6277TIP3    H118795   6.521   0.379   4.821
 6277TIP3    H218796   6.467   0.493   4.736
 6278TIP3   OH218797   0.240   0.147   3.336
 6278TIP3    H118798   0.304   0.090   3.294
 6278TIP3    H218799   0.233   0.223   3.278
 6279TIP3   OH218800   5.327   2.582   0.836
 6279TIP3    H118801   5.343   2.672   0.865
 6279TIP3    H218802   5.415   2.544   0.829
 6280TIP3   OH218803   6.178   5.285   1.098
 6280TIP3    H118804   6.206   5.199   1.130
 6280TIP3    H218805   6.254   5.319   1.050
 6281TIP3   OH218806   4.858   1.894   5.104
 6281TIP3    H118807   4.871   1.988   5.094
 6281TIP3    H218808   4.808   1.885   5.185
 6282TIP3   OH218809   0.776   2.600   5.410
 6282TIP3    H118810   0.775   2.611   5.315
 6282TIP3    H218811   0.816   2.514   5.424
 6283TIP3   OH218812   0.342   5.165   2.099
 6283TIP3    H118813   0.310   5.186   2.187
 6283TIP3    H218814   0.307   5.235   2.044
 6284TIP3   OH218815   6.760   3.985   4.421
 6284TIP3    H118816   6.710   4.016   4.345
 6284TIP3    H218817   6.745   4.051   4.488
 6285TIP3   OH218818   3.111   5.714   3.129
 6285TIP3    H118819   3.177   5.716   3.198
 6285TIP3    H218820   3.043   5.774   3.160
 6286TIP3   OH218821   3.832   5.003   1.151
 6286TIP3    H118822   3.907   4.945   1.145
 6286TIP3    H218823   3.763   4.960   1.100
 6287TIP3   OH218824   1.012   6.602   1.447
 6287TIP3    H118825   0.954   6.673   1.474
 6287TIP3    H218826   0.974   6.570   1.365
 6288TIP3   OH218827   1.805   6.132   1.455
 6288TIP3    H118828   1.896   6.155   1.470
 6288TIP3    H218829   1.779   6.082   1.533
 6289TIP3   OH218830   7.076   0.368   3.031
 6289TIP3    H118831   7.147   0.408   3.081
 6289TIP3    H218832   7.078   0.412   2.946
 6290TIP3   OH218833   0.661   4.394   5.759
 6290TIP3    H118834   0.577   4.404   5.803
 6290TIP3    H218835   0.641   4.396   5.666
 6291TIP3   OH218836   2.011   3.036   4.070
 6291TIP3    H118837   1.920   3.046   4.100
 6291TIP3    H218838   2.061   3.025   4.151
 6292TIP3   OH218839   4.464   1.110   2.762
 6292TIP3    H118840   4.552   1.108   2.725
 6292TIP3    H218841   4.414   1.166   2.702
 6293TIP3   OH218842   1.804   4.674   1.165
 6293TIP3    H118843   1.808   4.579   1.174
 6293TIP3    H218844   1.806   4.690   1.071
 6294TIP3   OH218845   1.772   2.093   3.533
 6294TIP3    H118846   1.703   2.092   3.600
 6294TIP3    H218847   1.782   2.002   3.508
 6295TIP3   OH218848   1.291   4.631   2.120
 6295TIP3    H118849   1.259   4.541   2.133
 6295TIP3    H218850   1.353   4.625   2.048
 6296TIP3   OH218851   5.983   6.206   4.607
 6296TIP3    H118852   5.922   6.226   4.536
 6296TIP3    H218853   5.930   6.159   4.671
 6297TIP3   OH218854   1.910   1.527   4.038
 6297TIP3    H118855   1.863   1.549   3.957
 6297TIP3    H218856   2.002   1.529   4.013
 6298TIP3   OH218857   4.593   4.033   2.360
 6298TIP3    H118858   4.640   4.072   2.433
 6298TIP3    H218859   4.597   3.938   2.376
 6299TIP3   OH218860   0.256   1.417   1.576
 6299TIP3    H118861   0.338   1.460   1.555
 6299TIP3    H218862   0.210   1.479   1.632
 6300TIP3   OH218863   1.890   4.562   4.886
 6300TIP3    H118864   1.812   4.528   4.929
 6300TIP3    H218865   1.956   4.494   4.899
 6301TIP3   OH218866   7.042   2.617   2.521
 6301TIP3    H118867   7.006   2.596   2.435
 6301TIP3    H218868   6.966   2.611   2.580
 6302TIP3   OH218869   0.884   6.653   4.272
 6302TIP3    H118870   0.821   6.721   4.293
 6302TIP3    H218871   0.959   6.671   4.328
 6303TIP3   OH218872   1.141   6.103   3.649
 6303TIP3    H118873   1.091   6.078   3.726
 6303TIP3    H218874   1.210   6.036   3.641
 6304TIP3   OH218875   5.477   5.107   3.348
 6304TIP3    H118876   5.406   5.154   3.305
 6304TIP3    H218877   5.441   5.020   3.365
 6305TIP3   OH218878   1.859   6.135   2.486
 6305TIP3    H118879   1.948   6.112   2.511
 6305TIP3    H218880   1.829   6.060   2.433
 6306TIP3   OH218881   5.524   4.303   4.473
 6306TIP3    H118882   5.609   4.297   4.428
 6306TIP3    H218883   5.542   4.358   4.549
 6307TIP3   OH218884   6.369   2.791   1.214
 6307TIP3    H118885   6.383   2.812   1.121
 6307TIP3    H218886   6.346   2.875   1.254
 6308TIP3   OH218887   5.086   4.976   1.700
 6308TIP3    H118888   5.153   5.044   1.704
 6308TIP3    H218889   5.097   4.935   1.615
 6309TIP3   OH218890   2.083   2.503   2.961
 6309TIP3    H118891   2.175   2.521   2.982
 6309TIP3    H218892   2.047   2.466   3.041
 6310TIP3   OH218893   1.396   4.124   2.851
 6310TIP3    H118894   1.413   4.030   2.841
 6310TIP3    H218895   1.483   4.165   2.849
 6311TIP3   OH218896   2.080   4.055   5.306
 6311TIP3    H118897   1.988   4.062   5.330
 6311TIP3    H218898   2.111   4.146   5.304
 6312TIP3   OH218899   2.952   4.698   0.728
 6312TIP3    H118900   2.884   4.758   0.757
 6312TIP3    H218901   3.026   4.716   0.785
 6313TIP3   OH218902   1.013   6.416   0.142
 6313TIP3    H118903   0.952   6.395   0.072
 6313TIP3    H218904   1.095   6.437   0.098
 6314TIP3   OH218905   5.513   4.740   4.157
 6314TIP3    H118906   5.580   4.728   4.090
 6314TIP3    H218907   5.443   4.679   4.133
 6315TIP3   OH218908   0.321   5.458   0.866
 6315TIP3    H118909   0.319   5.401   0.789
 6315TIP3    H218910   0.239   5.439   0.912
 6316TIP3   OH218911   5.843   4.745   2.465
 6316TIP3    H118912   5.932   4.780   2.469
 6316TIP3    H218913   5.789   4.819   2.439
 6317TIP3   OH218914   1.833   2.762   4.173
 6317TIP3    H118915   1.894   2.808   4.115
 6317TIP3    H218916   1.889   2.720   4.239
 6318TIP3   OH218917   6.559   0.716   0.681
 6318TIP3    H118918   6.557   0.690   0.589
 6318TIP3    H218919   6.470   0.746   0.700
 6319TIP3   OH218920   5.751   1.253   1.694
 6319TIP3    H118921   5.847   1.246   1.700
 6319TIP3    H218922   5.733   1.257   1.600
 6320TIP3   OH218923   3.168   3.051   3.265
 6320TIP3    H118924   3.123   2.967   3.268
 6320TIP3    H218925   3.135   3.093   3.186
 6321TIP3   OH218926   1.677   1.293   1.719
 6321TIP3    H118927   1.627   1.374   1.726
 6321TIP3    H218928   1.612   1.223   1.716
 6322TIP3   OH218929   5.436   5.800   1.642
 6322TIP3    H118930   5.356   5.798   1.694
 6322TIP3    H218931   5.496   5.740   1.687
 6323TIP3   OH218932   6.576   0.677   4.122
 6323TIP3    H118933   6.515   0.626   4.175
 6323TIP3    H218934   6.582   0.629   4.040
 6324TIP3   OH218935   4.343   2.748   0.136
 6324TIP3    H118936   4.329   2.822   0.078
 6324TIP3    H218937   4.258   2.703   0.139
 6325TIP3   OH218938   3.294   4.321   5.757
 6325TIP3    H118939   3.260   4.349   5.842
 6325TIP3    H218940   3.332   4.234   5.773
 6326TIP3   OH218941   5.529   6.136   5.353
 6326TIP3    H118942   5.511   6.198   5.423
 6326TIP3    H218943   5.571   6.062   5.396
 6327TIP3   OH218944   2.727   2.428   4.891
 6327TIP3    H118945   2.662   2.477   4.941
 6327TIP3    H218946   2.809   2.475   4.904
 6328TIP3   OH218947   4.995   2.368   1.815
 6328TIP3    H118948   5.067   2.313   1.844
 6328TIP3    H218949   5.036   2.434   1.759
 6329TIP3   OH218950   1.894   0.212   5.151
 6329TIP3    H118951   1.887   0.141   5.215
 6329TIP3    H218952   1.885   0.292   5.204
 6330TIP3   OH218953   4.738   4.180   2.526
 6330TIP3    H118954   4.824   4.188   2.566
 6330TIP3    H218955   4.734   4.250   2.461
 6331TIP3   OH218956   6.971   0.178   4.098
 6331TIP3    H118957   6.894   0.131   4.066
 6331TIP3    H218958   6.947   0.270   4.093
 6332TIP3   OH218959   2.632   3.876   1.707
 6332TIP3    H118960   2.560   3.925   1.746
 6332TIP3    H218961   2.593   3.792   1.684
 6333TIP3   OH218962   1.722   0.509   4.601
 6333TIP3    H118963   1.788   0.469   4.545
 6333TIP3    H218964   1.720   0.454   4.679
 6334TIP3   OH218965   4.674   5.059   1.059
 6334TIP3    H118966   4.660   5.076   1.153
 6334TIP3    H218967   4.623   4.980   1.041
 6335TIP3   OH218968   0.951   5.561   4.283
 6335TIP3    H118969   0.859   5.589   4.277
 6335TIP3    H218970   0.955   5.481   4.231
 6336TIP3   OH218971   0.418   6.347   2.305
 6336TIP3    H118972   0.394   6.434   2.337
 6336TIP3    H218973   0.344   6.320   2.250
 6337TIP3   OH218974   7.052   4.078   3.709
 6337TIP3    H118975   7.061   4.174   3.708
 6337TIP3    H218976   7.065   4.052   3.618
 6338TIP3   OH218977   3.925   6.006   1.598
 6338TIP3    H118978   3.982   6.016   1.674
 6338TIP3    H218979   3.947   5.921   1.561
 6339TIP3   OH218980   6.933   4.686   0.837
 6339TIP3    H118981   6.955   4.765   0.788
 6339TIP3    H218982   6.991   4.619   0.801
 6340TIP3   OH218983   1.427   0.092   1.412
 6340TIP3    H118984   1.340   0.053   1.416
 6340TIP3    H218985   1.446   0.098   1.318
 6341TIP3   OH218986   3.963   4.709   3.469
 6341TIP3    H118987   3.949   4.737   3.379
 6341TIP3    H218988   4.053   4.735   3.489
 6342TIP3   OH218989   5.408   5.424   3.942
 6342TIP3    H118990   5.474   5.460   3.883
 6342TIP3    H218991   5.433   5.332   3.952
 6343TIP3   OH218992   2.730   4.507   0.890
 6343TIP3    H118993   2.685   4.535   0.810
 6343TIP3    H218994   2.798   4.447   0.860
 6344TIP3   OH218995   5.601   5.988   2.849
 6344TIP3    H118996   5.540   6.060   2.868
 6344TIP3    H218997   5.590   5.927   2.922
 6345TIP3   OH218998   5.415   0.677   3.817
 6345TIP3    H118999   5.384   0.701   3.730
 6345TIP3    H219000   5.353   0.718   3.877
 6346TIP3   OH219001   6.431   4.754   3.346
 6346TIP3    H119002   6.451   4.708   3.265
 6346TIP3    H219003   6.491   4.829   3.347
 6347TIP3   OH219004   0.901   2.681   5.665
 6347TIP3    H119005   0.839   2.693   5.593
 6347TIP3    H219006   0.862   2.611   5.718
 6348TIP3   OH219007   6.364   3.522   1.428
 6348TIP3    H119008   6.353   3.539   1.334
 6348TIP3    H219009   6.436   3.459   1.432
 6349TIP3   OH219010   0.736   0.108   3.786
 6349TIP3    H119011   0.704   0.105   3.695
 6349TIP3    H219012   0.662   0.141   3.836
 6350TIP3   OH219013   1.212   2.363   0.662
 6350TIP3    H119014   1.154   2.287   0.666
 6350TIP3    H219015   1.189   2.408   0.581
 6351TIP3   OH219016   3.161   3.864   2.475
 6351TIP3    H119017   3.244   3.912   2.480
 6351TIP3    H219018   3.114   3.890   2.554
 6352TIP3   OH219019   3.342   2.619   2.985
 6352TIP3    H119020   3.303   2.531   2.989
 6352TIP3    H219021   3.373   2.634   3.074
 6353TIP3   OH219022   5.287   2.846   2.701
 6353TIP3    H119023   5.239   2.904   2.641
 6353TIP3    H219024   5.299   2.765   2.651
 6354TIP3   OH219025   4.668   1.268   5.420
 6354TIP3    H119026   4.666   1.305   5.508
 6354TIP3    H219027   4.577   1.247   5.401
 6355TIP3   OH219028   5.354   5.067   1.715
 6355TIP3    H119029   5.398   5.152   1.713
 6355TIP3    H219030   5.376   5.031   1.801
 6356TIP3   OH219031   0.824   0.309   3.976
 6356TIP3    H119032   0.801   0.222   3.943
 6356TIP3    H219033   0.862   0.354   3.902
 6357TIP3   OH219034   6.848   6.662   3.966
 6357TIP3    H119035   6.935   6.704   3.964
 6357TIP3    H219036   6.789   6.729   3.931
 6358TIP3   OH219037   1.740   3.791   3.361
 6358TIP3    H119038   1.731   3.886   3.362
 6358TIP3    H219039   1.653   3.759   3.384
 6359TIP3   OH219040   1.182   1.827   2.730
 6359TIP3    H119041   1.139   1.911   2.745
 6359TIP3    H219042   1.172   1.811   2.636
 6360TIP3   OH219043   0.191   1.570   2.726
 6360TIP3    H119044   0.206   1.520   2.646
 6360TIP3    H219045   0.246   1.647   2.717
 6361TIP3   OH219046   0.544   1.959   1.582
 6361TIP3    H119047   0.590   2.022   1.526
 6361TIP3    H219048   0.610   1.893   1.603
 6362TIP3   OH219049   6.294   5.748   5.075
 6362TIP3    H119050   6.304   5.825   5.019
 6362TIP3    H219051   6.240   5.688   5.023
 6363TIP3   OH219052   4.593   4.082   2.861
 6363TIP3    H119053   4.656   4.126   2.917
 6363TIP3    H219054   4.593   4.133   2.780
 6364TIP3   OH219055   3.309   2.729   0.740
 6364TIP3    H119056   3.355   2.812   0.751
 6364TIP3    H219057   3.298   2.696   0.829
 6365TIP3   OH219058   6.105   6.270   3.119
 6365TIP3    H119059   6.081   6.351   3.074
 6365TIP3    H219060   6.200   6.277   3.131
 6366TIP3   OH219061   6.395   1.329   4.297
 6366TIP3    H119062   6.484   1.324   4.331
 6366TIP3    H219063   6.393   1.265   4.225
 6367TIP3   OH219064   6.519   5.029   5.834
 6367TIP3    H119065   6.576   5.106   5.824
 6367TIP3    H219066   6.511   4.993   5.746
 6368TIP3   OH219067   6.339   4.940   3.759
 6368TIP3    H119068   6.370   4.998   3.689
 6368TIP3    H219069   6.351   4.852   3.724
 6369TIP3   OH219070   2.568   4.200   3.067
 6369TIP3    H119071   2.544   4.261   3.136
 6369TIP3    H219072   2.576   4.115   3.111
 6370TIP3   OH219073   5.962   4.003   1.410
 6370TIP3    H119074   5.874   4.006   1.371
 6370TIP3    H219075   5.953   3.946   1.486
 6371TIP3   OH219076   3.497   0.187   5.252
 6371TIP3    H119077   3.413   0.148   5.229
 6371TIP3    H219078   3.483   0.227   5.338
 6372TIP3   OH219079   6.834   5.010   3.825
 6372TIP3    H119080   6.753   4.984   3.869
 6372TIP3    H219081   6.903   4.984   3.886
 6373TIP3   OH219082   6.372   4.608   5.510
 6373TIP3    H119083   6.346   4.700   5.505
 6373TIP3    H219084   6.442   4.600   5.446
 6374TIP3   OH219085   6.970   2.077   2.907
 6374TIP3    H119086   6.876   2.066   2.893
 6374TIP3    H219087   7.004   1.988   2.917
 6375TIP3   OH219088   1.056   3.444   1.851
 6375TIP3    H119089   1.126   3.386   1.822
 6375TIP3    H219090   0.976   3.394   1.835
 6376TIP3   OH219091   4.552   2.581   4.558
 6376TIP3    H119092   4.587   2.665   4.528
 6376TIP3    H219093   4.605   2.515   4.513
 6377TIP3   OH219094   5.676   5.990   5.546
 6377TIP3    H119095   5.701   6.039   5.624
 6377TIP3    H219096   5.754   5.990   5.491
 6378TIP3   OH219097   4.164   0.933   3.227
 6378TIP3    H119098   4.215   0.853   3.218
 6378TIP3    H219099   4.186   0.983   3.148
 6379TIP3   OH219100   3.935   3.260   5.008
 6379TIP3    H119101   3.903   3.271   5.098
 6379TIP3    H219102   3.904   3.338   4.962
 6380TIP3   OH219103   2.651   2.073   3.907
 6380TIP3    H119104   2.603   2.022   3.972
 6380TIP3    H219105   2.733   2.026   3.895
 6381TIP3   OH219106   0.215   5.211   3.021
 6381TIP3    H119107   0.203   5.306   3.022
 6381TIP3    H219108   0.129   5.176   3.047
 6382TIP3   OH219109   5.076   5.579   3.216
 6382TIP3    H119110   5.134   5.637   3.167
 6382TIP3    H219111   5.068   5.501   3.161
 6383TIP3   OH219112   6.247   1.372   4.963
 6383TIP3    H119113   6.278   1.317   5.035
 6383TIP3    H219114   6.306   1.353   4.891
 6384TIP3   OH219115   7.180   3.159   2.388
 6384TIP3    H119116   7.156   3.084   2.442
 6384TIP3    H219117   7.207   3.227   2.450
 6385TIP3   OH219118   2.574   6.061   3.830
 6385TIP3    H119119   2.527   6.034   3.752
 6385TIP3    H219120   2.660   6.020   3.823
 6386TIP3   OH219121   6.332   5.590   1.351
 6386TIP3    H119122   6.384   5.527   1.301
 6386TIP3    H219123   6.247   5.591   1.307
 6387TIP3   OH219124   5.199   4.902   1.043
 6387TIP3    H119125   5.118   4.949   1.063
 6387TIP3    H219126   5.252   4.965   0.995
 6388TIP3   OH219127   3.941   1.547   3.184
 6388TIP3    H119128   4.021   1.551   3.131
 6388TIP3    H219129   3.883   1.613   3.144
 6389TIP3   OH219130   1.348   3.737   2.440
 6389TIP3    H119131   1.420   3.677   2.423
 6389TIP3    H219132   1.329   3.776   2.355
 6390TIP3   OH219133   7.043   0.837   5.771
 6390TIP3    H119134   7.032   0.751   5.811
 6390TIP3    H219135   6.983   0.838   5.697
 6391TIP3   OH219136   5.103   1.430   2.709
 6391TIP3    H119137   5.164   1.357   2.692
 6391TIP3    H219138   5.152   1.508   2.684
 6392TIP3   OH219139   3.502   1.392   5.785
 6392TIP3    H119140   3.438   1.453   5.748
 6392TIP3    H219141   3.582   1.443   5.794
 6393TIP3   OH219142   3.120   5.498   1.755
 6393TIP3    H119143   3.164   5.461   1.832
 6393TIP3    H219144   3.030   5.512   1.785
 6394TIP3   OH219145   0.516   4.672   1.177
 6394TIP3    H119146   0.513   4.735   1.105
 6394TIP3    H219147   0.424   4.645   1.189
 6395TIP3   OH219148   2.253   3.965   3.677
 6395TIP3    H119149   2.210   4.006   3.601
 6395TIP3    H219150   2.199   3.990   3.751
 6396TIP3   OH219151   6.475   4.044   2.668
 6396TIP3    H119152   6.388   4.076   2.690
 6396TIP3    H219153   6.508   4.006   2.749
 6397TIP3   OH219154   1.801   1.187   2.324
 6397TIP3    H119155   1.881   1.174   2.273
 6397TIP3    H219156   1.759   1.264   2.285
 6398TIP3   OH219157   3.002   0.772   3.148
 6398TIP3    H119158   3.026   0.682   3.125
 6398TIP3    H219159   2.920   0.763   3.196
 6399TIP3   OH219160   0.706   6.567   2.090
 6399TIP3    H119161   0.798   6.546   2.073
 6399TIP3    H219162   0.657   6.519   2.023
 6400TIP3   OH219163   3.826   6.632   1.946
 6400TIP3    H119164   3.831   6.601   2.037
 6400TIP3    H219165   3.880   6.569   1.897
 6401TIP3   OH219166   6.065   4.039   0.039
 6401TIP3    H119167   6.115   4.119   0.022
 6401TIP3    H219168   6.054   3.999  -0.047
 6402TIP3   OH219169   0.169   5.366   1.383
 6402TIP3    H119170   0.215   5.400   1.306
 6402TIP3    H219171   0.155   5.273   1.363
 6403TIP3   OH219172   2.952   5.278   2.087
 6403TIP3    H119173   2.877   5.336   2.097
 6403TIP3    H219174   2.944   5.215   2.159
 6404TIP3   OH219175   6.063   3.905   1.913
 6404TIP3    H119176   6.153   3.895   1.942
 6404TIP3    H219177   6.031   3.982   1.959
 6405TIP3   OH219178   6.445   5.152   3.611
 6405TIP3    H119179   6.491   5.191   3.685
 6405TIP3    H219180   6.378   5.216   3.588
 6406TIP3   OH219181   1.048   1.615   4.653
 6406TIP3    H119182   0.984   1.669   4.699
 6406TIP3    H219183   1.025   1.525   4.677
 6407TIP3   OH219184   6.150   2.957   3.064
 6407TIP3    H119185   6.111   3.021   3.004
 6407TIP3    H219186   6.220   2.916   3.014
 6408TIP3   OH219187   5.123   0.844   1.833
 6408TIP3    H119188   5.154   0.773   1.777
 6408TIP3    H219189   5.033   0.819   1.856
 6409TIP3   OH219190   4.290   3.504   4.973
 6409TIP3    H119191   4.313   3.471   4.885
 6409TIP3    H219192   4.250   3.589   4.957
 6410TIP3   OH219193   3.948   2.808   2.954
 6410TIP3    H119194   3.890   2.866   2.906
 6410TIP3    H219195   4.024   2.796   2.897
 6411TIP3   OH219196   2.103   1.250   2.671
 6411TIP3    H119197   2.056   1.298   2.740
 6411TIP3    H219198   2.034   1.211   2.618
 6412TIP3   OH219199   0.264   6.617   3.771
 6412TIP3    H119200   0.172   6.606   3.795
 6412TIP3    H219201   0.283   6.540   3.717
 6413TIP3   OH219202   4.225   3.597   2.111
 6413TIP3    H119203   4.266   3.542   2.178
 6413TIP3    H219204   4.283   3.673   2.104
 6414TIP3   OH219205   6.165   5.521   4.361
 6414TIP3    H119206   6.176   5.572   4.281
 6414TIP3    H219207   6.216   5.441   4.346
 6415TIP3   OH219208   3.251   2.102   3.126
 6415TIP3    H119209   3.181   2.050   3.088
 6415TIP3    H219210   3.331   2.069   3.085
 6416TIP3   OH219211   6.870   3.620   0.003
 6416TIP3    H119212   6.795   3.657   0.050
 6416TIP3    H219213   6.840   3.614  -0.088
 6417TIP3   OH219214   6.847   6.127   3.375
 6417TIP3    H119215   6.927   6.080   3.397
 6417TIP3    H219216   6.833   6.187   3.448
 6418TIP3   OH219217   5.459   6.096   0.713
 6418TIP3    H119218   5.397   6.162   0.681
 6418TIP3    H219219   5.433   6.083   0.804
 6419TIP3   OH219220   4.318   4.634   0.816
 6419TIP3    H119221   4.281   4.675   0.738
 6419TIP3    H219222   4.304   4.540   0.802
 6420TIP3   OH219223   6.846   0.213   5.341
 6420TIP3    H119224   6.919   0.264   5.376
 6420TIP3    H219225   6.858   0.216   5.246
 6421TIP3   OH219226   0.766   6.809   2.363
 6421TIP3    H119227   0.747   6.887   2.310
 6421TIP3    H219228   0.851   6.779   2.332
 6422TIP3   OH219229   6.991   1.804   3.783
 6422TIP3    H119230   7.016   1.891   3.813
 6422TIP3    H219231   7.042   1.744   3.838
 6423TIP3   OH219232   6.670   4.680   0.737
 6423TIP3    H119233   6.759   4.664   0.769
 6423TIP3    H219234   6.614   4.662   0.813
 6424TIP3   OH219235   1.041   5.266   0.323
 6424TIP3    H119236   1.091   5.294   0.399
 6424TIP3    H219237   1.027   5.346   0.273
 6425TIP3   OH219238   3.008   3.411   5.844
 6425TIP3    H119239   2.966   3.331   5.813
 6425TIP3    H219240   3.001   3.472   5.770
 6426TIP3   OH219241   6.119   1.407   0.671
 6426TIP3    H119242   6.199   1.392   0.621
 6426TIP3    H219243   6.093   1.496   0.649
 6427TIP3   OH219244   6.548   1.527   2.748
 6427TIP3    H119245   6.538   1.520   2.653
 6427TIP3    H219246   6.461   1.551   2.780
 6428TIP3   OH219247   4.056   4.555   0.615
 6428TIP3    H119248   3.990   4.491   0.590
 6428TIP3    H219249   4.122   4.504   0.662
 6429TIP3   OH219250   2.643   2.552   2.556
 6429TIP3    H119251   2.724   2.507   2.580
 6429TIP3    H219252   2.638   2.627   2.615
 6430TIP3   OH219253   6.786   1.317   3.224
 6430TIP3    H119254   6.853   1.357   3.170
 6430TIP3    H219255   6.788   1.366   3.306
 6431TIP3   OH219256   3.276   6.638   2.317
 6431TIP3    H119257   3.354   6.586   2.294
 6431TIP3    H219258   3.292   6.724   2.279
 6432TIP3   OH219259   1.773   6.109   0.321
 6432TIP3    H119260   1.819   6.026   0.335
 6432TIP3    H219261   1.839   6.176   0.334
 6433TIP3   OH219262   3.045   1.396   2.322
 6433TIP3    H119263   3.051   1.430   2.411
 6433TIP3    H219264   3.113   1.328   2.318
 6434TIP3   OH219265   6.737   2.308   0.283
 6434TIP3    H119266   6.813   2.285   0.231
 6434TIP3    H219267   6.664   2.308   0.221
 6435TIP3   OH219268   2.972   4.127   1.447
 6435TIP3    H119269   2.895   4.095   1.494
 6435TIP3    H219270   3.044   4.119   1.509
 6436TIP3   OH219271   3.703   6.732   3.807
 6436TIP3    H119272   3.711   6.822   3.778
 6436TIP3    H219273   3.610   6.711   3.794
 6437TIP3   OH219274   4.976   0.205   5.365
 6437TIP3    H119275   5.015   0.140   5.423
 6437TIP3    H219276   5.050   0.255   5.331
 6438TIP3   OH219277   0.961   2.738   1.573
 6438TIP3    H119278   0.910   2.801   1.522
 6438TIP3    H219279   0.949   2.766   1.664
 6439TIP3   OH219280   3.551   4.761   0.320
 6439TIP3    H119281   3.470   4.802   0.288
 6439TIP3    H219282   3.527   4.724   0.405
 6440TIP3   OH219283   2.075   1.390   0.780
 6440TIP3    H119284   2.086   1.325   0.710
 6440TIP3    H219285   2.049   1.470   0.734
 6441TIP3   OH219286   1.328   1.440   5.577
 6441TIP3    H119287   1.335   1.406   5.488
 6441TIP3    H219288   1.419   1.454   5.605
 6442TIP3   OH219289   1.324   0.849   0.820
 6442TIP3    H119290   1.375   0.776   0.854
 6442TIP3    H219291   1.261   0.869   0.889
 6443TIP3   OH219292   1.249   5.381   2.627
 6443TIP3    H119293   1.219   5.291   2.615
 6443TIP3    H219294   1.169   5.433   2.634
 6444TIP3   OH219295   0.520   3.538   1.058
 6444TIP3    H119296   0.462   3.487   1.114
 6444TIP3    H219297   0.532   3.621   1.103
 6445TIP3   OH219298   5.093   4.992   5.058
 6445TIP3    H119299   5.107   5.081   5.091
 6445TIP3    H219300   5.116   4.935   5.131
 6446TIP3   OH219301   6.786   3.203   0.866
 6446TIP3    H119302   6.803   3.175   0.775
 6446TIP3    H219303   6.770   3.121   0.913
 6447TIP3   OH219304   5.496   4.750   5.941
 6447TIP3    H119305   5.475   4.687   6.010
 6447TIP3    H219306   5.560   4.706   5.887
 6448TIP3   OH219307   6.467   1.791   4.511
 6448TIP3    H119308   6.430   1.743   4.585
 6448TIP3    H219309   6.459   1.731   4.437
 6449TIP3   OH219310   0.256   2.299   4.776
 6449TIP3    H119311   0.241   2.392   4.796
 6449TIP3    H219312   0.350   2.287   4.786
 6450TIP3   OH219313   1.693   0.981   2.144
 6450TIP3    H119314   1.612   0.990   2.094
 6450TIP3    H219315   1.672   1.012   2.231
 6451TIP3   OH219316   3.760   6.708   2.217
 6451TIP3    H119317   3.716   6.756   2.287
 6451TIP3    H219318   3.815   6.772   2.174
 6452TIP3   OH219319   1.416   5.098   4.902
 6452TIP3    H119320   1.403   5.063   4.814
 6452TIP3    H219321   1.392   5.026   4.960
 6453TIP3   OH219322   0.754   5.413   2.183
 6453TIP3    H119323   0.661   5.392   2.197
 6453TIP3    H219324   0.778   5.362   2.105
 6454TIP3   OH219325   5.770   3.335   4.007
 6454TIP3    H119326   5.694   3.355   3.953
 6454TIP3    H219327   5.783   3.412   4.061
 6455TIP3   OH219328   0.087   5.912   1.158
 6455TIP3    H119329   0.011   5.947   1.205
 6455TIP3    H219330   0.106   5.830   1.202
 6456TIP3   OH219331   2.581   0.020   2.645
 6456TIP3    H119332   2.573   0.114   2.629
 6456TIP3    H219333   2.664   0.010   2.691
 6457TIP3   OH219334   1.637   5.174   5.478
 6457TIP3    H119335   1.628   5.113   5.405
 6457TIP3    H219336   1.553   5.221   5.481
 6458TIP3   OH219337   6.418   5.646   1.021
 6458TIP3    H119338   6.502   5.642   0.975
 6458TIP3    H219339   6.416   5.567   1.075
 6459TIP3   OH219340   4.224   4.928   2.218
 6459TIP3    H119341   4.313   4.934   2.252
 6459TIP3    H219342   4.222   4.847   2.167
 6460TIP3   OH219343   5.866   3.398   4.331
 6460TIP3    H119344   5.946   3.366   4.373
 6460TIP3    H219345   5.891   3.483   4.295
 6461TIP3   OH219346   3.098   3.784   0.264
 6461TIP3    H119347   3.077   3.841   0.190
 6461TIP3    H219348   3.079   3.695   0.233
 6462TIP3   OH219349   0.898   2.582   0.757
 6462TIP3    H119350   0.909   2.493   0.726
 6462TIP3    H219351   0.907   2.637   0.679
 6463TIP3   OH219352   6.821   2.206   4.306
 6463TIP3    H119353   6.796   2.239   4.220
 6463TIP3    H219354   6.816   2.282   4.364
 6464TIP3   OH219355   4.634   2.356   0.601
 6464TIP3    H119356   4.637   2.391   0.512
 6464TIP3    H219357   4.565   2.406   0.644
 6465TIP3   OH219358   3.655   0.644   3.305
 6465TIP3    H119359   3.603   0.579   3.352
 6465TIP3    H219360   3.624   0.639   3.214
 6466TIP3   OH219361   5.970   3.093   0.688
 6466TIP3    H119362   5.971   3.184   0.657
 6466TIP3    H219363   5.972   3.040   0.609
 6467TIP3   OH219364   5.659   3.511   4.693
 6467TIP3    H119365   5.698   3.598   4.703
 6467TIP3    H219366   5.722   3.451   4.732
 6468TIP3   OH219367   7.091   4.450   0.532
 6468TIP3    H119368   7.079   4.413   0.620
 6468TIP3    H219369   7.170   4.504   0.540
 6469TIP3   OH219370   6.662   6.038   2.329
 6469TIP3    H119371   6.627   6.082   2.251
 6469TIP3    H219372   6.591   6.043   2.393
 6470TIP3   OH219373   4.507   1.091   1.214
 6470TIP3    H119374   4.494   1.156   1.283
 6470TIP3    H219375   4.467   1.129   1.136
 6471TIP3   OH219376   6.955   2.352   4.873
 6471TIP3    H119377   7.012   2.296   4.926
 6471TIP3    H219378   6.915   2.293   4.810
 6472TIP3   OH219379   4.054   1.123   2.926
 6472TIP3    H119380   3.974   1.166   2.957
 6472TIP3    H219381   4.023   1.045   2.880
 6473TIP3   OH219382   5.207   1.350   2.302
 6473TIP3    H119383   5.279   1.345   2.365
 6473TIP3    H219384   5.248   1.376   2.220
 6474TIP3   OH219385   3.155   3.498   1.531
 6474TIP3    H119386   3.096   3.550   1.476
 6474TIP3    H219387   3.168   3.416   1.482
 6475TIP3   OH219388   2.209   5.713   2.287
 6475TIP3    H119389   2.254   5.670   2.214
 6475TIP3    H219390   2.142   5.651   2.315
 6476TIP3   OH219391   6.838   0.828   0.192
 6476TIP3    H119392   6.758   0.777   0.180
 6476TIP3    H219393   6.882   0.823   0.107
 6477TIP3   OH219394   6.225   1.964   1.803
 6477TIP3    H119395   6.253   1.922   1.884
 6477TIP3    H219396   6.157   2.025   1.829
 6478TIP3   OH219397   0.384   3.594   0.831
 6478TIP3    H119398   0.428   3.555   0.907
 6478TIP3    H219399   0.331   3.523   0.795
 6479TIP3   OH219400   2.442   4.150   0.506
 6479TIP3    H119401   2.499   4.154   0.583
 6479TIP3    H219402   2.501   4.158   0.432
 6480TIP3   OH219403   1.736   0.982   1.003
 6480TIP3    H119404   1.830   0.965   0.997
 6480TIP3    H219405   1.728   1.045   1.075
 6481TIP3   OH219406   0.288   5.708   5.400
 6481TIP3    H119407   0.372   5.705   5.445
 6481TIP3    H219408   0.223   5.693   5.469
 6482TIP3   OH219409   3.502   1.430   2.291
 6482TIP3    H119410   3.446   1.432   2.213
 6482TIP3    H219411   3.568   1.364   2.271
 6483TIP3   OH219412   5.895   1.529   4.652
 6483TIP3    H119413   5.831   1.596   4.626
 6483TIP3    H219414   5.939   1.504   4.571
 6484TIP3   OH219415   3.654   0.200   2.597
 6484TIP3    H119416   3.674   0.197   2.690
 6484TIP3    H219417   3.697   0.279   2.565
 6485TIP3   OH219418   2.707   0.699   3.810
 6485TIP3    H119419   2.616   0.703   3.782
 6485TIP3    H219420   2.731   0.607   3.800
 6486TIP3   OH219421   0.236   0.625   2.350
 6486TIP3    H119422   0.279   0.545   2.380
 6486TIP3    H219423   0.201   0.603   2.264
 6487TIP3   OH219424   5.411   1.637   5.012
 6487TIP3    H119425   5.464   1.578   5.066
 6487TIP3    H219426   5.354   1.681   5.075
 6488TIP3   OH219427   0.111   5.984   0.420
 6488TIP3    H119428   0.119   6.040   0.342
 6488TIP3    H219429   0.044   5.919   0.396
 6489TIP3   OH219430   3.898   6.557   2.933
 6489TIP3    H119431   3.890   6.585   3.025
 6489TIP3    H219432   3.990   6.574   2.911
 6490TIP3   OH219433   7.228   0.972   2.489
 6490TIP3    H119434   7.171   0.988   2.564
 6490TIP3    H219435   7.273   0.890   2.509
 6491TIP3   OH219436   6.106   0.332   2.067
 6491TIP3    H119437   6.105   0.258   2.007
 6491TIP3    H219438   6.141   0.405   2.016
 6492TIP3   OH219439   3.069   1.426   1.489
 6492TIP3    H119440   3.084   1.423   1.395
 6492TIP3    H219441   3.098   1.340   1.521
 6493TIP3   OH219442   3.606   3.185   1.522
 6493TIP3    H119443   3.557   3.264   1.542
 6493TIP3    H219444   3.556   3.142   1.452
 6494TIP3   OH219445   6.197   0.845   4.106
 6494TIP3    H119446   6.261   0.874   4.041
 6494TIP3    H219447   6.136   0.789   4.056
 6495TIP3   OH219448   5.703   3.506   1.986
 6495TIP3    H119449   5.671   3.541   1.903
 6495TIP3    H219450   5.775   3.563   2.011
 6496TIP3   OH219451   1.901   3.205   5.776
 6496TIP3    H119452   1.938   3.273   5.833
 6496TIP3    H219453   1.809   3.200   5.802
 6497TIP3   OH219454   1.430   2.732   3.532
 6497TIP3    H119455   1.392   2.808   3.576
 6497TIP3    H219456   1.395   2.736   3.443
 6498TIP3   OH219457   1.277   4.005   0.787
 6498TIP3    H119458   1.328   3.935   0.744
 6498TIP3    H219459   1.283   3.984   0.880
 6499TIP3   OH219460   4.285   6.545   3.323
 6499TIP3    H119461   4.370   6.558   3.365
 6499TIP3    H219462   4.266   6.630   3.283
 6500TIP3   OH219463   2.184   6.675   5.853
 6500TIP3    H119464   2.210   6.765   5.870
 6500TIP3    H219465   2.091   6.680   5.831
 6501TIP3   OH219466   5.873   5.629   4.748
 6501TIP3    H119467   5.902   5.579   4.672
 6501TIP3    H219468   5.778   5.632   4.740
 6502TIP3   OH219469   6.541   3.872   3.881
 6502TIP3    H119470   6.624   3.912   3.856
 6502TIP3    H219471   6.482   3.893   3.809
 6503TIP3   OH219472   3.781   1.809   2.629
 6503TIP3    H119473   3.822   1.798   2.544
 6503TIP3    H219474   3.699   1.857   2.611
 6504TIP3   OH219475   2.364   0.128   4.521
 6504TIP3    H119476   2.410   0.203   4.482
 6504TIP3    H219477   2.276   0.160   4.537
 6505TIP3   OH219478   2.854   0.828   0.358
 6505TIP3    H119479   2.787   0.775   0.401
 6505TIP3    H219480   2.840   0.917   0.391
 6506TIP3   OH219481   1.237   3.540   5.850
 6506TIP3    H119482   1.310   3.511   5.796
 6506TIP3    H219483   1.161   3.535   5.792
 6507TIP3   OH219484   3.762   2.583   2.465
 6507TIP3    H119485   3.686   2.525   2.457
 6507TIP3    H219486   3.771   2.599   2.559
 6508TIP3   OH219487   6.348   2.262   3.113
 6508TIP3    H119488   6.416   2.195   3.110
 6508TIP3    H219489   6.395   2.344   3.128
 6509TIP3   OH219490   6.104   5.684   4.104
 6509TIP3    H119491   6.066   5.769   4.082
 6509TIP3    H219492   6.193   5.687   4.069
 6510TIP3   OH219493   4.295   4.925   5.744
 6510TIP3    H119494   4.306   4.921   5.649
 6510TIP3    H219495   4.361   4.864   5.778
 6511TIP3   OH219496   2.184   4.499   4.906
 6511TIP3    H119497   2.213   4.411   4.883
 6511TIP3    H219498   2.209   4.553   4.832
 6512TIP3   OH219499   3.835   4.851   4.051
 6512TIP3    H119500   3.787   4.824   4.130
 6512TIP3    H219501   3.769   4.847   3.981
 6513TIP3   OH219502   4.808   2.853   0.070
 6513TIP3    H119503   4.892   2.832   0.110
 6513TIP3    H219504   4.778   2.932   0.116
 6514TIP3   OH219505   1.424   3.715   4.944
 6514TIP3    H119506   1.423   3.641   5.004
 6514TIP3    H219507   1.336   3.717   4.907
 6515TIP3   OH219508   0.595   3.263   2.571
 6515TIP3    H119509   0.596   3.330   2.639
 6515TIP3    H219510   0.513   3.216   2.585
 6516TIP3   OH219511   6.214   3.917   4.576
 6516TIP3    H119512   6.264   3.973   4.516
 6516TIP3    H219513   6.143   3.972   4.607
 6517TIP3   OH219514   4.144   2.544   5.590
 6517TIP3    H119515   4.111   2.633   5.597
 6517TIP3    H219516   4.083   2.500   5.530
 6518TIP3   OH219517   3.800   1.472   0.784
 6518TIP3    H119518   3.740   1.505   0.718
 6518TIP3    H219519   3.887   1.478   0.744
 6519TIP3   OH219520   1.105   1.307   0.250
 6519TIP3    H119521   1.120   1.215   0.271
 6519TIP3    H219522   1.188   1.337   0.214
 6520TIP3   OH219523   0.273   1.186   3.694
 6520TIP3    H119524   0.200   1.203   3.754
 6520TIP3    H219525   0.235   1.134   3.623
 6521TIP3   OH219526   2.688   6.762   4.299
 6521TIP3    H119527   2.773   6.739   4.338
 6521TIP3    H219528   2.664   6.845   4.341
 6522TIP3   OH219529   6.468   4.216   4.849
 6522TIP3    H119530   6.538   4.249   4.794
 6522TIP3    H219531   6.397   4.279   4.838
 6523TIP3   OH219532   5.022   5.810   5.819
 6523TIP3    H119533   5.092   5.750   5.793
 6523TIP3    H219534   5.067   5.892   5.842
 6524TIP3   OH219535   6.731   6.396   5.229
 6524TIP3    H119536   6.682   6.355   5.300
 6524TIP3    H219537   6.792   6.328   5.200
 6525TIP3   OH219538   0.786   2.315   1.758
 6525TIP3    H119539   0.729   2.378   1.802
 6525TIP3    H219540   0.838   2.369   1.697
 6526TIP3   OH219541   2.411   1.985   4.382
 6526TIP3    H119542   2.459   2.004   4.463
 6526TIP3    H219543   2.359   1.908   4.402
 6527TIP3   OH219544   5.459   4.867   5.100
 6527TIP3    H119545   5.435   4.802   5.166
 6527TIP3    H219546   5.520   4.926   5.146
 6528TIP3   OH219547   5.336   0.243   3.389
 6528TIP3    H119548   5.418   0.196   3.400
 6528TIP3    H219549   5.352   0.303   3.317
 6529TIP3   OH219550   1.378   3.278   4.115
 6529TIP3    H119551   1.445   3.312   4.174
 6529TIP3    H219552   1.384   3.183   4.124
 6530TIP3   OH219553   4.656   5.815   4.744
 6530TIP3    H119554   4.661   5.771   4.829
 6530TIP3    H219555   4.682   5.748   4.681
 6531TIP3   OH219556   0.506   5.855   4.481
 6531TIP3    H119557   0.531   5.943   4.510
 6531TIP3    H219558   0.589   5.810   4.466
 6532TIP3   OH219559   1.947   1.409   0.412
 6532TIP3    H119560   1.991   1.341   0.464
 6532TIP3    H219561   1.855   1.403   0.438
 6533TIP3   OH219562   3.843   2.298   5.719
 6533TIP3    H119563   3.764   2.336   5.679
 6533TIP3    H219564   3.809   2.239   5.787
 6534TIP3   OH219565   0.367   2.323   2.262
 6534TIP3    H119566   0.395   2.267   2.190
 6534TIP3    H219567   0.321   2.264   2.322
 6535TIP3   OH219568   3.766   2.174   3.844
 6535TIP3    H119569   3.818   2.148   3.921
 6535TIP3    H219570   3.676   2.181   3.878
 6536TIP3   OH219571   4.088   4.783   0.931
 6536TIP3    H119572   4.162   4.727   0.905
 6536TIP3    H219573   4.103   4.865   0.884
 6537TIP3   OH219574   4.066   0.167   4.286
 6537TIP3    H119575   4.160   0.165   4.265
 6537TIP3    H219576   4.030   0.089   4.245
 6538TIP3   OH219577   5.392   1.346   2.509
 6538TIP3    H119578   5.376   1.318   2.599
 6538TIP3    H219579   5.480   1.383   2.511
 6539TIP3   OH219580   5.322   2.394   0.462
 6539TIP3    H119581   5.346   2.428   0.376
 6539TIP3    H219582   5.313   2.471   0.517
 6540TIP3   OH219583   6.174   1.165   4.367
 6540TIP3    H119584   6.198   1.090   4.313
 6540TIP3    H219585   6.235   1.235   4.341
 6541TIP3   OH219586   6.275   6.050   2.247
 6541TIP3    H119587   6.219   6.126   2.236
 6541TIP3    H219588   6.364   6.084   2.238
 6542TIP3   OH219589   2.802   2.109   2.020
 6542TIP3    H119590   2.786   2.034   2.078
 6542TIP3    H219591   2.789   2.185   2.077
 6543TIP3   OH219592   2.217   3.328   3.019
 6543TIP3    H119593   2.282   3.325   3.089
 6543TIP3    H219594   2.148   3.386   3.053
 6544TIP3   OH219595   2.968   2.368   5.741
 6544TIP3    H119596   2.921   2.315   5.677
 6544TIP3    H219597   3.059   2.342   5.732
 6545TIP3   OH219598   6.372   3.633   1.817
 6545TIP3    H119599   6.281   3.637   1.788
 6545TIP3    H219600   6.388   3.539   1.831
 6546TIP3   OH219601   5.955   2.786   1.962
 6546TIP3    H119602   6.045   2.819   1.957
 6546TIP3    H219603   5.908   2.850   2.015
 6547TIP3   OH219604   7.160   6.468   1.091
 6547TIP3    H119605   7.219   6.394   1.100
 6547TIP3    H219606   7.093   6.453   1.158
 6548TIP3   OH219607   1.441   2.934   2.350
 6548TIP3    H119608   1.376   2.866   2.334
 6548TIP3    H219609   1.516   2.887   2.388
 6549TIP3   OH219610   2.015   0.899   5.173
 6549TIP3    H119611   2.090   0.959   5.174
 6549TIP3    H219612   1.991   0.892   5.080
 6550TIP3   OH219613   3.832   3.629   3.655
 6550TIP3    H119614   3.862   3.676   3.577
 6550TIP3    H219615   3.883   3.666   3.727
 6551TIP3   OH219616   1.814   2.414   1.866
 6551TIP3    H119617   1.800   2.492   1.921
 6551TIP3    H219618   1.902   2.383   1.890
 6552TIP3   OH219619   0.479   0.721   2.498
 6552TIP3    H119620   0.428   0.713   2.417
 6552TIP3    H219621   0.566   0.746   2.470
 6553TIP3   OH219622   0.364   5.717   1.440
 6553TIP3    H119623   0.439   5.745   1.387
 6553TIP3    H219624   0.291   5.715   1.378
 6554TIP3   OH219625   6.236   1.575   1.971
 6554TIP3    H119626   6.215   1.584   2.064
 6554TIP3    H219627   6.295   1.648   1.953
 6555TIP3   OH219628   5.343   6.166   2.308
 6555TIP3    H119629   5.429   6.178   2.267
 6555TIP3    H219630   5.296   6.107   2.248
 6556TIP3   OH219631   0.720   4.870   5.724
 6556TIP3    H119632   0.741   4.963   5.731
 6556TIP3    H219633   0.756   4.844   5.639
 6557TIP3   OH219634   0.224   5.810   3.984
 6557TIP3    H119635   0.170   5.882   4.020
 6557TIP3    H219636   0.188   5.731   4.025
 6558TIP3   OH219637   1.748   6.440   0.329
 6558TIP3    H119638   1.741   6.376   0.399
 6558TIP3    H219639   1.673   6.422   0.272
 6559TIP3   OH219640   5.855   0.080   0.628
 6559TIP3    H119641   5.835   0.056   0.719
 6559TIP3    H219642   5.772   0.075   0.582
 6560TIP3   OH219643   1.400   2.904   2.029
 6560TIP3    H119644   1.495   2.901   2.036
 6560TIP3    H219645   1.369   2.829   2.081
 6561TIP3   OH219646   3.821   0.391   1.612
 6561TIP3    H119647   3.843   0.408   1.704
 6561TIP3    H219648   3.906   0.377   1.570
 6562TIP3   OH219649   1.279   2.257   4.656
 6562TIP3    H119650   1.342   2.321   4.624
 6562TIP3    H219651   1.293   2.254   4.751
 6563TIP3   OH219652   1.799   6.740   4.776
 6563TIP3    H119653   1.884   6.772   4.806
 6563TIP3    H219654   1.805   6.645   4.785
 6564TIP3   OH219655   6.517   3.435   3.940
 6564TIP3    H119656   6.444   3.404   3.886
 6564TIP3    H219657   6.475   3.487   4.009
 6565TIP3   OH219658   1.366   3.088   5.367
 6565TIP3    H119659   1.386   3.169   5.321
 6565TIP3    H219660   1.274   3.070   5.347
 6566TIP3   OH219661   1.236   2.188   5.007
 6566TIP3    H119662   1.268   2.104   5.040
 6566TIP3    H219663   1.241   2.247   5.081
 6567TIP3   OH219664   3.316   6.538   0.989
 6567TIP3    H119665   3.404   6.503   1.003
 6567TIP3    H219666   3.263   6.499   1.059
 6568TIP3   OH219667   3.510   1.521   0.773
 6568TIP3    H119668   3.571   1.532   0.846
 6568TIP3    H219669   3.439   1.583   0.792
 6569TIP3   OH219670   4.549   1.792   4.082
 6569TIP3    H119671   4.584   1.763   4.166
 6569TIP3    H219672   4.469   1.741   4.071
 6570TIP3   OH219673   5.199   4.730   0.834
 6570TIP3    H119674   5.112   4.762   0.811
 6570TIP3    H219675   5.222   4.776   0.915
 6571TIP3   OH219676   7.048   5.182   4.157
 6571TIP3    H119677   7.075   5.091   4.148
 6571TIP3    H219678   7.121   5.225   4.202
 6572TIP3   OH219679   1.283   5.447   3.840
 6572TIP3    H119680   1.327   5.406   3.914
 6572TIP3    H219681   1.190   5.434   3.858
 6573TIP3   OH219682   5.054   0.989   3.628
 6573TIP3    H119683   5.029   0.932   3.555
 6573TIP3    H219684   4.987   1.058   3.627
 6574TIP3   OH219685   6.695   0.480   3.865
 6574TIP3    H119686   6.779   0.493   3.820
 6574TIP3    H219687   6.718   0.427   3.942
 6575TIP3   OH219688   3.473   1.056   1.586
 6575TIP3    H119689   3.425   0.974   1.595
 6575TIP3    H219690   3.426   1.105   1.518
 6576TIP3   OH219691   3.759   1.759   1.005
 6576TIP3    H119692   3.802   1.694   0.951
 6576TIP3    H219693   3.830   1.795   1.060
 6577TIP3   OH219694   1.973   1.110   4.341
 6577TIP3    H119695   1.928   1.165   4.405
 6577TIP3    H219696   2.016   1.172   4.282
 6578TIP3   OH219697   2.565   4.684   4.823
 6578TIP3    H119698   2.580   4.772   4.857
 6578TIP3    H219699   2.621   4.627   4.875
 6579TIP3   OH219700   4.643   3.912   5.331
 6579TIP3    H119701   4.705   3.899   5.403
 6579TIP3    H219702   4.683   3.981   5.278
 6580TIP3   OH219703   3.681   0.846   1.497
 6580TIP3    H119704   3.723   0.761   1.506
 6580TIP3    H219705   3.696   0.889   1.582
 6581TIP3   OH219706   2.459   6.590   2.825
 6581TIP3    H119707   2.402   6.538   2.882
 6581TIP3    H219708   2.520   6.527   2.787
 6582TIP3   OH219709   1.066   5.831   5.877
 6582TIP3    H119710   1.142   5.853   5.822
 6582TIP3    H219711   1.039   5.914   5.915
 6583TIP3   OH219712   5.219   5.720   2.725
 6583TIP3    H119713   5.284   5.788   2.708
 6583TIP3    H219714   5.155   5.730   2.655
 6584TIP3   OH219715   1.911   6.395   5.677
 6584TIP3    H119716   1.866   6.409   5.760
 6584TIP3    H219717   1.854   6.335   5.629
 6585TIP3   OH219718   4.318   0.893   3.973
 6585TIP3    H119719   4.297   0.817   3.919
 6585TIP3    H219720   4.233   0.933   3.994
 6586TIP3   OH219721   3.541   5.168   0.733
 6586TIP3    H119722   3.467   5.163   0.672
 6586TIP3    H219723   3.593   5.089   0.714
 6587TIP3   OH219724   5.519   1.827   5.598
 6587TIP3    H119725   5.611   1.826   5.623
 6587TIP3    H219726   5.481   1.899   5.649
 6588TIP3   OH219727   4.567   2.309   3.279
 6588TIP3    H119728   4.571   2.396   3.241
 6588TIP3    H219729   4.581   2.323   3.373
 6589TIP3   OH219730   4.291   3.132   3.971
 6589TIP3    H119731   4.224   3.200   3.960
 6589TIP3    H219732   4.289   3.083   3.889
 6590TIP3   OH219733   4.102   6.662   1.565
 6590TIP3    H119734   4.111   6.593   1.499
 6590TIP3    H219735   4.014   6.650   1.601
 6591TIP3   OH219736   4.353   0.838   4.753
 6591TIP3    H119737   4.426   0.779   4.736
 6591TIP3    H219738   4.349   0.846   4.848
 6592TIP3   OH219739   2.549   5.868   5.294
 6592TIP3    H119740   2.579   5.956   5.273
 6592TIP3    H219741   2.546   5.866   5.390
 6593TIP3   OH219742   4.624   3.057   1.313
 6593TIP3    H119743   4.584   3.034   1.397
 6593TIP3    H219744   4.673   2.978   1.288
 6594TIP3   OH219745   0.714   5.489   0.130
 6594TIP3    H119746   0.667   5.420   0.177
 6594TIP3    H219747   0.644   5.544   0.095
 6595TIP3   OH219748   6.674   0.429   4.979
 6595TIP3    H119749   6.750   0.393   5.024
 6595TIP3    H219750   6.711   0.478   4.906
 6596TIP3   OH219751   3.615   1.174   2.270
 6596TIP3    H119752   3.529   1.161   2.308
 6596TIP3    H219753   3.676   1.163   2.344
 6597TIP3   OH219754   6.945   2.648   0.658
 6597TIP3    H119755   6.858   2.686   0.653
 6597TIP3    H219756   7.005   2.722   0.647
 6598TIP3   OH219757   0.086   2.107   2.670
 6598TIP3    H119758  -0.007   2.113   2.650
 6598TIP3    H219759   0.129   2.151   2.596
 6599TIP3   OH219760   7.034   0.455   3.816
 6599TIP3    H119761   7.051   0.405   3.737
 6599TIP3    H219762   7.047   0.546   3.791
 6600TIP3   OH219763   0.496   1.237   3.844
 6600TIP3    H119764   0.470   1.183   3.770
 6600TIP3    H219765   0.413   1.257   3.889
 6601TIP3   OH219766   6.950   2.846   5.735
 6601TIP3    H119767   6.952   2.927   5.683
 6601TIP3    H219768   6.974   2.874   5.823
 6602TIP3   OH219769   5.692   5.006   2.881
 6602TIP3    H119770   5.684   5.101   2.881
 6602TIP3    H219771   5.734   4.986   2.798
 6603TIP3   OH219772   1.751   2.810   5.045
 6603TIP3    H119773   1.827   2.846   5.090
 6603TIP3    H219774   1.677   2.830   5.103
 6604TIP3   OH219775   4.589   4.959   3.360
 6604TIP3    H119776   4.522   4.910   3.310
 6604TIP3    H219777   4.584   4.923   3.448
 6605TIP3   OH219778   2.249   1.315   5.342
 6605TIP3    H119779   2.226   1.351   5.428
 6605TIP3    H219780   2.248   1.390   5.283
 6606TIP3   OH219781   4.205   2.269   5.318
 6606TIP3    H119782   4.118   2.293   5.349
 6606TIP3    H219783   4.261   2.274   5.395
 6607TIP3   OH219784   2.566   1.291   0.468
 6607TIP3    H119785   2.633   1.357   0.485
 6607TIP3    H219786   2.592   1.216   0.521
 6608TIP3   OH219787   1.742   3.151   2.147
 6608TIP3    H119788   1.660   3.184   2.184
 6608TIP3    H219789   1.764   3.214   2.078
 6609TIP3   OH219790   5.187   3.412   5.845
 6609TIP3    H119791   5.116   3.378   5.899
 6609TIP3    H219792   5.252   3.443   5.908
 6610TIP3   OH219793   2.166   0.425   4.734
 6610TIP3    H119794   2.125   0.438   4.819
 6610TIP3    H219795   2.251   0.386   4.754
 6611TIP3   OH219796   6.577   1.909   5.576
 6611TIP3    H119797   6.486   1.880   5.575
 6611TIP3    H219798   6.585   1.960   5.657
 6612TIP3   OH219799   2.422   0.762   3.184
 6612TIP3    H119800   2.331   0.778   3.206
 6612TIP3    H219801   2.420   0.687   3.125
 6613TIP3   OH219802   1.443   3.214   0.386
 6613TIP3    H119803   1.517   3.274   0.382
 6613TIP3    H219804   1.474   3.134   0.344
 6614TIP3   OH219805   5.403   6.543   4.356
 6614TIP3    H119806   5.471   6.577   4.415
 6614TIP3    H219807   5.410   6.598   4.278
 6615TIP3   OH219808   6.077   6.668   2.798
 6615TIP3    H119809   6.121   6.665   2.883
 6615TIP3    H219810   5.996   6.715   2.815
 6616TIP3   OH219811   0.168   0.526   4.136
 6616TIP3    H119812   0.222   0.488   4.206
 6616TIP3    H219813   0.132   0.451   4.089
 6617TIP3   OH219814   1.826   4.101   2.579
 6617TIP3    H119815   1.884   4.072   2.509
 6617TIP3    H219816   1.867   4.068   2.659
 6618TIP3   OH219817   3.862   0.976   4.759
 6618TIP3    H119818   3.908   1.060   4.755
 6618TIP3    H219819   3.914   0.917   4.704
 6619TIP3   OH219820   5.984   5.925   5.811
 6619TIP3    H119821   6.029   5.845   5.787
 6619TIP3    H219822   5.892   5.900   5.817
 6620TIP3   OH219823   5.380   1.417   1.689
 6620TIP3    H119824   5.427   1.453   1.614
 6620TIP3    H219825   5.289   1.413   1.659
 6621TIP3   OH219826   4.524   3.130   2.646
 6621TIP3    H119827   4.557   3.207   2.692
 6621TIP3    H219828   4.446   3.105   2.695
 6622TIP3   OH219829   4.691   3.446   3.767
 6622TIP3    H119830   4.654   3.455   3.854
 6622TIP3    H219831   4.642   3.374   3.727
 6623TIP3   OH219832   4.348   3.567   4.200
 6623TIP3    H119833   4.284   3.616   4.252
 6623TIP3    H219834   4.412   3.632   4.172
 6624TIP3   OH219835   2.149   3.061   0.573
 6624TIP3    H119836   2.158   3.100   0.660
 6624TIP3    H219837   2.112   2.974   0.590
 6625TIP3   OH219838   5.659   1.044   2.957
 6625TIP3    H119839   5.700   1.006   2.879
 6625TIP3    H219840   5.715   1.118   2.980
 6626TIP3   OH219841   1.066   2.135   5.318
 6626TIP3    H119842   1.084   2.043   5.340
 6626TIP3    H219843   1.149   2.180   5.337
 6627TIP3   OH219844   2.131   4.144   0.352
 6627TIP3    H119845   2.139   4.221   0.295
 6627TIP3    H219846   2.218   4.134   0.390
 6628TIP3   OH219847   5.343   3.380   1.483
 6628TIP3    H119848   5.388   3.304   1.518
 6628TIP3    H219849   5.393   3.405   1.406
 6629TIP3   OH219850   3.325   6.183   2.210
 6629TIP3    H119851   3.289   6.138   2.134
 6629TIP3    H219852   3.409   6.218   2.180
 6630TIP3   OH219853   0.350   1.709   5.022
 6630TIP3    H119854   0.361   1.707   5.117
 6630TIP3    H219855   0.368   1.800   4.997
 6631TIP3   OH219856   1.415   4.617   0.371
 6631TIP3    H119857   1.379   4.626   0.283
 6631TIP3    H219858   1.492   4.674   0.372
 6632TIP3   OH219859   5.682   4.227   0.293
 6632TIP3    H119860   5.734   4.281   0.353
 6632TIP3    H219861   5.708   4.256   0.206
 6633TIP3   OH219862   3.458   2.791   5.690
 6633TIP3    H119863   3.370   2.827   5.695
 6633TIP3    H219864   3.509   2.857   5.643
 6634TIP3   OH219865   0.215   5.830   2.315
 6634TIP3    H119866   0.129   5.874   2.317
 6634TIP3    H219867   0.277   5.901   2.300
 6635TIP3   OH219868   4.656   1.217   2.054
 6635TIP3    H119869   4.624   1.214   1.964
 6635TIP3    H219870   4.636   1.130   2.089
 6636TIP3   OH219871   5.344   1.240   2.739
 6636TIP3    H119872   5.434   1.266   2.760
 6636TIP3    H219873   5.333   1.155   2.783
 6637TIP3   OH219874   0.652   0.358   0.010
 6637TIP3    H119875   0.726   0.345  -0.050
 6637TIP3    H219876   0.689   0.404   0.085
 6638TIP3   OH219877   0.765   4.187   4.294
 6638TIP3    H119878   0.702   4.173   4.223
 6638TIP3    H219879   0.817   4.106   4.297
 6639TIP3   OH219880   5.967   1.692   4.847
 6639TIP3    H119881   6.055   1.727   4.854
 6639TIP3    H219882   5.965   1.649   4.761
 6640TIP3   OH219883   3.954   4.874   2.169
 6640TIP3    H119884   4.045   4.895   2.190
 6640TIP3    H219885   3.910   4.867   2.254
 6641TIP3   OH219886   2.368   2.749   2.460
 6641TIP3    H119887   2.392   2.657   2.472
 6641TIP3    H219888   2.399   2.792   2.539
 6642TIP3   OH219889   6.812   5.814   0.508
 6642TIP3    H119890   6.749   5.875   0.470
 6642TIP3    H219891   6.851   5.862   0.581
 6643TIP3   OH219892   5.084   0.964   3.908
 6643TIP3    H119893   5.093   0.870   3.925
 6643TIP3    H219894   5.059   0.969   3.816
 6644TIP3   OH219895   2.942   6.009   4.723
 6644TIP3    H119896   2.893   5.941   4.770
 6644TIP3    H219897   2.895   6.090   4.741
 6645TIP3   OH219898   4.307   0.727   3.104
 6645TIP3    H119899   4.366   0.658   3.133
 6645TIP3    H219900   4.350   0.766   3.027
 6646TIP3   OH219901   5.609   0.458   2.036
 6646TIP3    H119902   5.532   0.477   1.982
 6646TIP3    H219903   5.626   0.365   2.023
 6647TIP3   OH219904   5.676   0.263   5.814
 6647TIP3    H119905   5.693   0.310   5.896
 6647TIP3    H219906   5.723   0.313   5.747
 6648TIP3   OH219907   3.706   3.972   4.704
 6648TIP3    H119908   3.699   3.904   4.771
 6648TIP3    H219909   3.620   3.975   4.663
 6649TIP3   OH219910   3.876   3.963   4.474
 6649TIP3    H119911   3.828   3.983   4.555
 6649TIP3    H219912   3.963   3.937   4.504
 6650TIP3   OH219913   3.100   3.963   2.732
 6650TIP3    H119914   3.157   3.912   2.789
 6650TIP3    H219915   3.013   3.956   2.773
 6651TIP3   OH219916   0.679   3.264   4.510
 6651TIP3    H119917   0.703   3.356   4.512
 6651TIP3    H219918   0.629   3.253   4.430
 6652TIP3   OH219919   2.998   1.386   5.850
 6652TIP3    H119920   2.954   1.306   5.820
 6652TIP3    H219921   3.085   1.357   5.878
 6653TIP3   OH219922   4.868   3.497   4.500
 6653TIP3    H119923   4.876   3.582   4.541
 6653TIP3    H219924   4.945   3.489   4.444
 6654TIP3   OH219925   0.568   3.625   3.010
 6654TIP3    H119926   0.509   3.645   3.083
 6654TIP3    H219927   0.654   3.654   3.041
 6655TIP3   OH219928   0.220   2.408   0.374
 6655TIP3    H119929   0.214   2.384   0.281
 6655TIP3    H219930   0.207   2.503   0.375
 6656TIP3   OH219931   3.364   0.510   3.088
 6656TIP3    H119932   3.280   0.465   3.075
 6656TIP3    H219933   3.428   0.439   3.096
 6657TIP3   OH219934   2.166   3.355   5.155
 6657TIP3    H119935   2.158   3.425   5.090
 6657TIP3    H219936   2.076   3.328   5.172
 6658TIP3   OH219937   7.105   3.067   3.758
 6658TIP3    H119938   7.101   3.053   3.853
 6658TIP3    H219939   7.061   2.990   3.721
 6659TIP3   OH219940   6.125   5.352   4.755
 6659TIP3    H119941   6.099   5.295   4.827
 6659TIP3    H219942   6.048   5.406   4.737
 6660TIP3   OH219943   5.420   2.789   4.011
 6660TIP3    H119944   5.339   2.813   4.056
 6660TIP3    H219945   5.392   2.760   3.924
 6661TIP3   OH219946   0.127   3.053   3.635
 6661TIP3    H119947   0.135   2.958   3.646
 6661TIP3    H219948   0.039   3.073   3.664
 6662TIP3   OH219949   4.337   4.073   3.080
 6662TIP3    H119950   4.381   4.155   3.057
 6662TIP3    H219951   4.354   4.014   3.007
 6663TIP3   OH219952   1.313   2.585   2.620
 6663TIP3    H119953   1.368   2.509   2.637
 6663TIP3    H219954   1.299   2.584   2.525
 6664TIP3   OH219955   1.147   1.746   0.238
 6664TIP3    H119956   1.222   1.785   0.195
 6664TIP3    H219957   1.181   1.668   0.281
 6665TIP3   OH219958   4.760   5.041   2.149
 6665TIP3    H119959   4.811   5.000   2.219
 6665TIP3    H219960   4.824   5.057   2.079
 6666TIP3   OH219961   0.895   4.148   2.790
 6666TIP3    H119962   0.962   4.202   2.749
 6666TIP3    H219963   0.860   4.202   2.861
 6667TIP3   OH219964   4.184   0.849   5.848
 6667TIP3    H119965   4.202   0.810   5.762
 6667TIP3    H219966   4.261   0.903   5.866
 6668TIP3   OH219967   5.669   4.311   5.607
 6668TIP3    H119968   5.723   4.296   5.685
 6668TIP3    H219969   5.728   4.349   5.543
 6669TIP3   OH219970   1.314   5.840   5.745
 6669TIP3    H119971   1.302   5.916   5.688
 6669TIP3    H219972   1.361   5.874   5.821
 6670TIP3   OH219973   5.009   5.420   1.362
 6670TIP3    H119974   5.012   5.324   1.368
 6670TIP3    H219975   5.023   5.450   1.452
 6671TIP3   OH219976   0.753   1.034   1.090
 6671TIP3    H119977   0.663   1.003   1.082
 6671TIP3    H219978   0.758   1.070   1.179
 6672TIP3   OH219979   5.301   6.309   0.599
 6672TIP3    H119980   5.290   6.403   0.618
 6672TIP3    H219981   5.234   6.291   0.533
 6673TIP3   OH219982   2.966   1.482   2.613
 6673TIP3    H119983   2.947   1.464   2.705
 6673TIP3    H219984   3.025   1.558   2.615
 6674TIP3   OH219985   5.336   4.872   0.656
 6674TIP3    H119986   5.294   4.791   0.686
 6674TIP3    H219987   5.429   4.859   0.677
 6675TIP3   OH219988   3.506   1.767   0.056
 6675TIP3    H119989   3.429   1.743   0.004
 6675TIP3    H219990   3.500   1.711   0.134
 6676TIP3   OH219991   5.405   5.674   2.359
 6676TIP3    H119992   5.407   5.649   2.451
 6676TIP3    H219993   5.480   5.733   2.349
 6677TIP3   OH219994   2.371   5.959   4.916
 6677TIP3    H119995   2.453   5.996   4.883
 6677TIP3    H219996   2.356   6.005   4.999
 6678TIP3   OH219997   5.682   0.784   5.452
 6678TIP3    H119998   5.777   0.773   5.448
 6678TIP3    H219999   5.651   0.706   5.498
 6679TIP3   OH220000   5.776   5.529   2.883
 6679TIP3    H120001   5.813   5.444   2.905
 6679TIP3    H220002   5.697   5.536   2.936
 6680TIP3   OH220003   5.336   5.327   2.484
 6680TIP3    H120004   5.255   5.312   2.533
 6680TIP3    H220005   5.366   5.413   2.513
 6681TIP3   OH220006   5.920   3.898   5.719
 6681TIP3    H120007   5.920   3.979   5.667
 6681TIP3    H220008   5.944   3.829   5.657
 6682TIP3   OH220009   2.799   4.790   1.655
 6682TIP3    H120010   2.719   4.767   1.608
 6682TIP3    H220011   2.792   4.745   1.739
 6683TIP3   OH220012   6.396   1.536   3.939
 6683TIP3    H120013   6.341   1.615   3.935
 6683TIP3    H220014   6.485   1.568   3.926
 6684TIP3   OH220015   3.260   1.397   2.842
 6684TIP3    H120016   3.248   1.306   2.816
 6684TIP3    H220017   3.174   1.425   2.874
 6685TIP3   OH220018   5.944   6.604   5.671
 6685TIP3    H120019   5.872   6.660   5.698
 6685TIP3    H220020   6.015   6.664   5.648
 6686TIP3   OH220021   2.659   1.216   1.894
 6686TIP3    H120022   2.691   1.293   1.848
 6686TIP3    H220023   2.736   1.158   1.901
 6687TIP3   OH220024   3.070   2.767   5.204
 6687TIP3    H120025   3.141   2.702   5.203
 6687TIP3    H220026   3.004   2.730   5.262
 6688TIP3   OH220027   4.849   3.226   2.385
 6688TIP3    H120028   4.839   3.149   2.329
 6688TIP3    H220029   4.863   3.191   2.472
 6689TIP3   OH220030   4.410   1.447   1.539
 6689TIP3    H120031   4.355   1.436   1.616
 6689TIP3    H220032   4.439   1.358   1.516
 6690TIP3   OH220033   2.861   2.449   3.872
 6690TIP3    H120034   2.917   2.376   3.846
 6690TIP3    H220035   2.891   2.523   3.820
 6691TIP3   OH220036   3.866   0.654   5.052
 6691TIP3    H120037   3.875   0.749   5.063
 6691TIP3    H220038   3.805   0.644   4.979
 6692TIP3   OH220039   0.615   1.935   4.186
 6692TIP3    H120040   0.653   1.995   4.251
 6692TIP3    H220041   0.539   1.898   4.230
 6693TIP3   OH220042   1.345   0.960   3.623
 6693TIP3    H120043   1.416   1.018   3.652
 6693TIP3    H220044   1.293   0.945   3.702
 6694TIP3   OH220045   6.961   4.912   4.505
 6694TIP3    H120046   6.869   4.888   4.508
 6694TIP3    H220047   7.005   4.845   4.558
 6695TIP3   OH220048   4.654   4.295   3.055
 6695TIP3    H120049   4.641   4.259   3.143
 6695TIP3    H220050   4.590   4.366   3.048
 6696TIP3   OH220051   6.209   2.623   3.795
 6696TIP3    H120052   6.117   2.596   3.792
 6696TIP3    H220053   6.258   2.541   3.803
 6697TIP3   OH220054   1.039   0.154   0.259
 6697TIP3    H120055   0.946   0.151   0.281
 6697TIP3    H220056   1.075   0.223   0.315
 6698TIP3   OH220057   1.333   1.596   4.144
 6698TIP3    H120058   1.402   1.543   4.105
 6698TIP3    H220059   1.289   1.537   4.206
 6699TIP3   OH220060   0.523   4.915   5.004
 6699TIP3    H120061   0.495   4.930   5.095
 6699TIP3    H220062   0.485   4.988   4.955
 6700TIP3   OH220063   2.108   1.023   5.694
 6700TIP3    H120064   2.074   1.090   5.635
 6700TIP3    H220065   2.188   1.061   5.731
 6701TIP3   OH220066   3.673   2.518   1.723
 6701TIP3    H120067   3.651   2.479   1.639
 6701TIP3    H220068   3.755   2.475   1.748
 6702TIP3   OH220069   1.309   3.203   3.341
 6702TIP3    H120070   1.213   3.199   3.346
 6702TIP3    H220071   1.329   3.172   3.253
 6703TIP3   OH220072   5.390   5.975   3.778
 6703TIP3    H120073   5.375   5.913   3.849
 6703TIP3    H220074   5.305   6.015   3.762
 6704TIP3   OH220075   2.537   4.446   1.062
 6704TIP3    H120076   2.595   4.492   1.001
 6704TIP3    H220077   2.588   4.438   1.142
 6705TIP3   OH220078   4.837   3.679   3.639
 6705TIP3    H120079   4.915   3.624   3.646
 6705TIP3    H220080   4.771   3.621   3.599
 6706TIP3   OH220081   6.498   4.165   3.487
 6706TIP3    H120082   6.584   4.190   3.520
 6706TIP3    H220083   6.459   4.247   3.456
 6707TIP3   OH220084   5.693   6.595   5.205
 6707TIP3    H120085   5.679   6.690   5.210
 6707TIP3    H220086   5.703   6.567   5.296
 6708TIP3   OH220087   1.774   5.382   4.714
 6708TIP3    H120088   1.760   5.326   4.790
 6708TIP3    H220089   1.697   5.439   4.711
 6709TIP3   OH220090   1.068   3.188   4.786
 6709TIP3    H120091   1.046   3.095   4.781
 6709TIP3    H220092   1.164   3.191   4.778
 6710TIP3   OH220093   1.274   4.638   4.730
 6710TIP3    H120094   1.180   4.641   4.715
 6710TIP3    H220095   1.284   4.590   4.812
 6711TIP3   OH220096   1.378   0.021   0.400
 6711TIP3    H120097   1.380   0.099   0.455
 6711TIP3    H220098   1.362   0.054   0.311
 6712TIP3   OH220099   3.268   1.891   1.227
 6712TIP3    H120100   3.323   1.955   1.184
 6712TIP3    H220101   3.253   1.926   1.315
 6713TIP3   OH220102   2.110   2.936   1.297
 6713TIP3    H120103   2.201   2.955   1.316
 6713TIP3    H220104   2.068   2.929   1.383
 6714TIP3   OH220105   6.386   5.378   0.008
 6714TIP3    H120106   6.329   5.365  -0.068
 6714TIP3    H220107   6.371   5.300   0.063
 6715TIP3   OH220108   1.802   4.583   5.211
 6715TIP3    H120109   1.895   4.602   5.203
 6715TIP3    H220110   1.791   4.501   5.163
 6716TIP3   OH220111   6.616   5.096   5.495
 6716TIP3    H120112   6.542   5.040   5.515
 6716TIP3    H220113   6.582   5.185   5.504
 6717TIP3   OH220114   2.357   0.551   4.944
 6717TIP3    H120115   2.345   0.456   4.951
 6717TIP3    H220116   2.447   0.561   4.912
 6718TIP3   OH220117   5.206   2.833   1.503
 6718TIP3    H120118   5.141   2.898   1.529
 6718TIP3    H220119   5.274   2.883   1.459
 6719TIP3   OH220120   5.629   4.939   0.674
 6719TIP3    H120121   5.623   5.034   0.679
 6719TIP3    H220122   5.671   4.922   0.590
 6720TIP3   OH220123   6.594   6.404   3.969
 6720TIP3    H120124   6.681   6.393   3.930
 6720TIP3    H220125   6.572   6.318   4.004
 6721TIP3   OH220126   5.199   4.478   3.836
 6721TIP3    H120127   5.203   4.382   3.836
 6721TIP3    H220128   5.150   4.500   3.757
 6722TIP3   OH220129   4.209   3.053   0.335
 6722TIP3    H120130   4.275   2.988   0.310
 6722TIP3    H220131   4.159   3.068   0.255
 6723TIP3   OH220132   6.364   5.413   1.682
 6723TIP3    H120133   6.433   5.408   1.748
 6723TIP3    H220134   6.405   5.380   1.601
 6724TIP3   OH220135   4.376   2.942   2.409
 6724TIP3    H120136   4.343   2.922   2.322
 6724TIP3    H220137   4.470   2.958   2.396
 6725TIP3   OH220138   5.370   5.493   1.581
 6725TIP3    H120139   5.277   5.517   1.587
 6725TIP3    H220140   5.405   5.510   1.668
 6726TIP3   OH220141   3.011   4.404   0.110
 6726TIP3    H120142   3.101   4.432   0.126
 6726TIP3    H220143   3.007   4.314   0.144
 6727TIP3   OH220144   4.972   6.184   4.808
 6727TIP3    H120145   4.886   6.205   4.844
 6727TIP3    H220146   4.964   6.093   4.778
 6728TIP3   OH220147   0.230   0.887   4.618
 6728TIP3    H120148   0.192   0.871   4.532
 6728TIP3    H220149   0.306   0.829   4.622
 6729TIP3   OH220150   2.685   0.620   4.294
 6729TIP3    H120151   2.597   0.656   4.281
 6729TIP3    H220152   2.741   0.697   4.302
 6730TIP3   OH220153   2.776   6.270   4.696
 6730TIP3    H120154   2.782   6.305   4.607
 6730TIP3    H220155   2.774   6.348   4.752
 6731TIP3   OH220156   2.704   6.530   2.687
 6731TIP3    H120157   2.778   6.487   2.645
 6731TIP3    H220158   2.629   6.512   2.630
 6732TIP3   OH220159   5.482   4.185   0.791
 6732TIP3    H120160   5.558   4.128   0.775
 6732TIP3    H220161   5.437   4.189   0.706
 6733TIP3   OH220162   0.910   2.833   3.953
 6733TIP3    H120163   0.854   2.758   3.973
 6733TIP3    H220164   0.901   2.847   3.859
 6734TIP3   OH220165   6.740   1.616   0.214
 6734TIP3    H120166   6.773   1.676   0.146
 6734TIP3    H220167   6.819   1.578   0.252
 6735TIP3   OH220168   6.094   4.380   1.129
 6735TIP3    H120169   6.143   4.461   1.117
 6735TIP3    H220170   6.091   4.368   1.224
 6736TIP3   OH220171   1.406   6.228   1.021
 6736TIP3    H120172   1.339   6.283   0.981
 6736TIP3    H220173   1.373   6.139   1.009
 6737TIP3   OH220174   6.238   1.654   2.227
 6737TIP3    H120175   6.262   1.747   2.220
 6737TIP3    H220176   6.262   1.630   2.316
 6738TIP3   OH220177   4.941   0.683   1.412
 6738TIP3    H120178   4.955   0.599   1.370
 6738TIP3    H220179   4.860   0.673   1.462
 6739TIP3   OH220180   6.946   2.274   3.822
 6739TIP3    H120181   6.981   2.361   3.805
 6739TIP3    H220182   6.925   2.239   3.736
 6740TIP3   OH220183   5.965   2.744   4.163
 6740TIP3    H120184   6.034   2.782   4.110
 6740TIP3    H220185   5.884   2.772   4.121
 6741TIP3   OH220186   6.926   1.728   1.075
 6741TIP3    H120187   6.945   1.706   1.166
 6741TIP3    H220188   6.992   1.680   1.024
 6742TIP3   OH220189   7.195   2.941   2.595
 6742TIP3    H120190   7.202   2.865   2.654
 6742TIP3    H220191   7.222   3.016   2.649
 6743TIP3   OH220192   1.703   1.528   5.330
 6743TIP3    H120193   1.707   1.479   5.248
 6743TIP3    H220194   1.783   1.503   5.377
 6744TIP3   OH220195   5.457   5.846   2.641
 6744TIP3    H120196   5.511   5.772   2.612
 6744TIP3    H220197   5.516   5.900   2.693
 6745TIP3   OH220198   6.968   2.670   1.925
 6745TIP3    H120199   6.936   2.605   1.987
 6745TIP3    H220200   7.030   2.723   1.976
 6746TIP3   OH220201   6.276   2.064   5.712
 6746TIP3    H120202   6.319   2.147   5.732
 6746TIP3    H220203   6.200   2.089   5.658
 6747TIP3   OH220204   0.513   5.139   0.851
 6747TIP3    H120205   0.527   5.057   0.898
 6747TIP3    H220206   0.597   5.159   0.811
 6748TIP3   OH220207   4.890   1.968   3.553
 6748TIP3    H120208   4.892   1.925   3.467
 6748TIP3    H220209   4.806   2.014   3.555
 6749TIP3   OH220210   4.020   4.662   0.343
 6749TIP3    H120211   3.965   4.741   0.352
 6749TIP3    H220212   4.036   4.633   0.433
 6750TIP3   OH220213   4.613   4.609   0.265
 6750TIP3    H120214   4.627   4.657   0.346
 6750TIP3    H220215   4.629   4.518   0.288
 6751TIP3   OH220216   4.332   0.622   5.753
 6751TIP3    H120217   4.276   0.556   5.711
 6751TIP3    H220218   4.388   0.654   5.682
 6752TIP3   OH220219   4.337   5.877   5.844
 6752TIP3    H120220   4.355   5.789   5.811
 6752TIP3    H220221   4.377   5.936   5.779
 6753TIP3   OH220222   0.204   3.980   0.167
 6753TIP3    H120223   0.226   4.049   0.105
 6753TIP3    H220224   0.167   3.910   0.112
 6754TIP3   OH220225   5.748   1.655   5.177
 6754TIP3    H120226   5.776   1.566   5.200
 6754TIP3    H220227   5.693   1.682   5.250
 6755TIP3   OH220228   3.506   1.816   4.299
 6755TIP3    H120229   3.437   1.791   4.360
 6755TIP3    H220230   3.559   1.879   4.348
 6756TIP3   OH220231   6.461   5.405   1.178
 6756TIP3    H120232   6.440   5.312   1.173
 6756TIP3    H220233   6.546   5.412   1.134
 6757TIP3   OH220234   3.350   2.222   5.104
 6757TIP3    H120235   3.292   2.219   5.029
 6757TIP3    H220236   3.327   2.304   5.149
 6758TIP3   OH220237   0.625   2.070   0.474
 6758TIP3    H120238   0.692   2.091   0.409
 6758TIP3    H220239   0.673   2.063   0.556
 6759TIP3   OH220240   2.393   4.889   2.690
 6759TIP3    H120241   2.441   4.807   2.676
 6759TIP3    H220242   2.460   4.957   2.690
 6760TIP3   OH220243   4.886   4.819   3.030
 6760TIP3    H120244   4.866   4.904   3.068
 6760TIP3    H220245   4.881   4.758   3.104
 6761TIP3   OH220246   3.051   2.422   5.141
 6761TIP3    H120247   3.037   2.507   5.099
 6761TIP3    H220248   3.034   2.359   5.071
 6762TIP3   OH220249   6.819   0.313   1.455
 6762TIP3    H120250   6.783   0.374   1.391
 6762TIP3    H220251   6.773   0.231   1.439
 6763TIP3   OH220252   2.065   6.014   0.589
 6763TIP3    H120253   2.037   6.105   0.596
 6763TIP3    H220254   2.160   6.018   0.582
 6764TIP3   OH220255   6.016   0.445   4.978
 6764TIP3    H120256   5.926   0.422   5.000
 6764TIP3    H220257   6.052   0.365   4.940
 6765TIP3   OH220258   5.826   1.075   0.812
 6765TIP3    H120259   5.819   1.108   0.902
 6765TIP3    H220260   5.781   0.990   0.815
 6766TIP3   OH220261   4.428   5.213   2.628
 6766TIP3    H120262   4.496   5.198   2.694
 6766TIP3    H220263   4.448   5.149   2.560
 6767TIP3   OH220264   4.401   2.513   5.656
 6767TIP3    H120265   4.419   2.531   5.748
 6767TIP3    H220266   4.306   2.524   5.647
 6768TIP3   OH220267   5.142   0.645   3.716
 6768TIP3    H120268   5.178   0.597   3.642
 6768TIP3    H220269   5.115   0.578   3.779
 6769TIP3   OH220270   3.862   5.579   5.497
 6769TIP3    H120271   3.816   5.663   5.505
 6769TIP3    H220272   3.836   5.545   5.411
 6770TIP3   OH220273   2.128   2.682   0.069
 6770TIP3    H120274   2.157   2.678   0.160
 6770TIP3    H220275   2.192   2.631   0.021
 6771TIP3   OH220276   5.879   1.281   0.639
 6771TIP3    H120277   5.869   1.208   0.700
 6771TIP3    H220278   5.966   1.316   0.658
 6772TIP3   OH220279   0.526   4.319   0.749
 6772TIP3    H120280   0.589   4.390   0.761
 6772TIP3    H220281   0.462   4.331   0.820
 6773TIP3   OH220282   2.776   2.208   3.601
 6773TIP3    H120283   2.838   2.225   3.672
 6773TIP3    H220284   2.691   2.237   3.635
 6774TIP3   OH220285   5.875   3.146   1.735
 6774TIP3    H120286   5.832   3.063   1.715
 6774TIP3    H220287   5.834   3.209   1.675
 6775TIP3   OH220288   5.542   2.181   4.453
 6775TIP3    H120289   5.625   2.145   4.424
 6775TIP3    H220290   5.477   2.142   4.394
 6776TIP3   OH220291   6.719   1.931   2.741
 6776TIP3    H120292   6.694   1.940   2.649
 6776TIP3    H220293   6.671   2.000   2.787
 6777TIP3   OH220294   6.170   1.779   0.821
 6777TIP3    H120295   6.124   1.853   0.783
 6777TIP3    H220296   6.113   1.704   0.805
 6778TIP3   OH220297   3.118   3.258   2.306
 6778TIP3    H120298   3.196   3.217   2.268
 6778TIP3    H220299   3.092   3.198   2.376
 6779TIP3   OH220300   3.567   3.888   0.584
 6779TIP3    H120301   3.615   3.818   0.628
 6779TIP3    H220302   3.537   3.849   0.502
 6780TIP3   OH220303   1.758   5.472   2.022
 6780TIP3    H120304   1.758   5.390   1.973
 6780TIP3    H220305   1.778   5.447   2.112
 6781TIP3   OH220306   2.996   4.771   2.005
 6781TIP3    H120307   3.020   4.826   2.080
 6781TIP3    H220308   3.004   4.829   1.929
 6782TIP3   OH220309   4.038   1.312   0.978
 6782TIP3    H120310   3.978   1.263   1.034
 6782TIP3    H220311   4.003   1.401   0.978
 6783TIP3   OH220312   2.639   6.621   3.091
 6783TIP3    H120313   2.618   6.656   3.004
 6783TIP3    H220314   2.560   6.637   3.143
 6784TIP3   OH220315   6.923   0.639   0.693
 6784TIP3    H120316   6.873   0.607   0.768
 6784TIP3    H220317   6.857   0.670   0.631
 6785TIP3   OH220318   3.859   5.926   2.001
 6785TIP3    H120319   3.830   5.849   2.050
 6785TIP3    H220320   3.954   5.927   2.011
 6786TIP3   OH220321   6.942   0.087   1.051
 6786TIP3    H120322   6.879   0.015   1.062
 6786TIP3    H220323   7.012   0.067   1.113
 6787TIP3   OH220324   5.913   4.868   1.823
 6787TIP3    H120325   5.984   4.830   1.771
 6787TIP3    H220326   5.893   4.950   1.778
 6788TIP3   OH220327   1.411   1.955   1.132
 6788TIP3    H120328   1.341   1.931   1.193
 6788TIP3    H220329   1.485   1.978   1.189
 6789TIP3   OH220330   5.066   1.369   0.681
 6789TIP3    H120331   4.980   1.400   0.653
 6789TIP3    H220332   5.110   1.446   0.716
 6790TIP3   OH220333   5.888   5.323   1.801
 6790TIP3    H120334   5.922   5.255   1.860
 6790TIP3    H220335   5.935   5.309   1.719
 6791TIP3   OH220336   5.836   0.721   2.408
 6791TIP3    H120337   5.746   0.752   2.415
 6791TIP3    H220338   5.830   0.626   2.417
 6792TIP3   OH220339   4.468   2.667   3.745
 6792TIP3    H120340   4.443   2.575   3.755
 6792TIP3    H220341   4.396   2.707   3.696
 6793TIP3   OH220342   6.250   3.214   1.655
 6793TIP3    H120343   6.169   3.252   1.621
 6793TIP3    H220344   6.236   3.120   1.654
 6794TIP3   OH220345   0.455   5.634   5.619
 6794TIP3    H120346   0.531   5.582   5.593
 6794TIP3    H220347   0.404   5.576   5.676
 6795TIP3   OH220348   0.397   0.849   3.033
 6795TIP3    H120349   0.380   0.940   3.059
 6795TIP3    H220350   0.314   0.804   3.048
 6796TIP3   OH220351   3.837   3.742   5.081
 6796TIP3    H120352   3.888   3.806   5.032
 6796TIP3    H220353   3.857   3.658   5.039
 6797TIP3   OH220354   2.923   6.271   2.774
 6797TIP3    H120355   2.986   6.202   2.754
 6797TIP3    H220356   2.973   6.336   2.824
 6798TIP3   OH220357   2.830   3.080   1.428
 6798TIP3    H120358   2.818   3.175   1.426
 6798TIP3    H220359   2.895   3.066   1.496
 6799TIP3   OH220360   2.589   4.026   4.054
 6799TIP3    H120361   2.578   3.955   4.117
 6799TIP3    H220362   2.541   4.100   4.092
 6800TIP3   OH220363   4.037   0.316   5.104
 6800TIP3    H120364   4.025   0.265   5.024
 6800TIP3    H220365   4.101   0.384   5.080
 6801TIP3   OH220366   3.544   0.290   4.998
 6801TIP3    H120367   3.536   0.216   5.058
 6801TIP3    H220368   3.587   0.358   5.050
 6802TIP3   OH220369   0.800   4.252   1.308
 6802TIP3    H120370   0.869   4.190   1.285
 6802TIP3    H220371   0.765   4.281   1.224
 6803TIP3   OH220372   3.120   5.154   0.642
 6803TIP3    H120373   3.064   5.132   0.567
 6803TIP3    H220374   3.169   5.073   0.660
 6804TIP3   OH220375   6.751   6.575   2.625
 6804TIP3    H120376   6.664   6.609   2.601
 6804TIP3    H220377   6.763   6.499   2.568
 6805TIP3   OH220378   1.388   1.974   3.028
 6805TIP3    H120379   1.339   1.896   3.003
 6805TIP3    H220380   1.433   2.001   2.948
 6806TIP3   OH220381   0.793   3.273   2.221
 6806TIP3    H120382   0.701   3.246   2.214
 6806TIP3    H220383   0.843   3.200   2.187
 6807TIP3   OH220384   5.463   4.365   2.907
 6807TIP3    H120385   5.494   4.455   2.913
 6807TIP3    H220386   5.486   4.325   2.991
 6808TIP3   OH220387   2.971   3.571   4.096
 6808TIP3    H120388   2.915   3.516   4.151
 6808TIP3    H220389   3.060   3.544   4.117
 6809TIP3   OH220390   6.569   4.624   0.037
 6809TIP3    H120391   6.563   4.672  -0.045
 6809TIP3    H220392   6.490   4.571   0.041
 6810TIP3   OH220393   3.390   0.457   1.698
 6810TIP3    H120394   3.358   0.480   1.611
 6810TIP3    H220395   3.407   0.363   1.694
 6811TIP3   OH220396   6.403   0.412   2.546
 6811TIP3    H120397   6.335   0.382   2.485
 6811TIP3    H220398   6.433   0.333   2.590
 6812TIP3   OH220399   4.103   5.673   3.486
 6812TIP3    H120400   4.162   5.650   3.557
 6812TIP3    H220401   4.160   5.697   3.413
 6813TIP3   OH220402   1.092   5.456   4.659
 6813TIP3    H120403   1.070   5.528   4.600
 6813TIP3    H220404   1.186   5.442   4.645
 6814TIP3   OH220405   1.298   3.617   1.208
 6814TIP3    H120406   1.359   3.594   1.138
 6814TIP3    H220407   1.245   3.538   1.220
 6815TIP3   OH220408   2.212   3.746   2.394
 6815TIP3    H120409   2.255   3.727   2.477
 6815TIP3    H220410   2.241   3.834   2.371
 6816TIP3   OH220411   0.408   0.848   2.215
 6816TIP3    H120412   0.378   0.905   2.286
 6816TIP3    H220413   0.329   0.825   2.167
 6817TIP3   OH220414   6.650   5.853   3.941
 6817TIP3    H120415   6.617   5.786   3.880
 6817TIP3    H220416   6.589   5.926   3.931
 6818TIP3   OH220417   3.112   6.091   2.672
 6818TIP3    H120418   3.143   6.015   2.720
 6818TIP3    H220419   3.146   6.079   2.583
 6819TIP3   OH220420   4.373   0.522   2.656
 6819TIP3    H120421   4.323   0.596   2.692
 6819TIP3    H220422   4.463   0.539   2.686
 6820TIP3   OH220423   3.798   5.796   1.253
 6820TIP3    H120424   3.882   5.756   1.230
 6820TIP3    H220425   3.744   5.722   1.281
 6821TIP3   OH220426   0.107   0.037   3.077
 6821TIP3    H120427   0.041  -0.032   3.092
 6821TIP3    H220428   0.066   0.116   3.112
 6822TIP3   OH220429   1.961   5.327   1.130
 6822TIP3    H120430   1.926   5.375   1.205
 6822TIP3    H220431   2.044   5.292   1.161
 6823TIP3   OH220432   2.213   0.727   5.308
 6823TIP3    H120433   2.159   0.798   5.273
 6823TIP3    H220434   2.217   0.745   5.402
 6824TIP3   OH220435   5.967   4.153   2.601
 6824TIP3    H120436   5.924   4.238   2.611
 6824TIP3    H220437   5.966   4.136   2.507
 6825TIP3   OH220438   5.930   5.089   2.642
 6825TIP3    H120439   5.924   5.138   2.724
 6825TIP3    H220440   5.841   5.089   2.607
 6826TIP3   OH220441   3.037   2.195   1.063
 6826TIP3    H120442   2.950   2.228   1.086
 6826TIP3    H220443   3.085   2.191   1.146
 6827TIP3   OH220444   7.042   1.915   5.874
 6827TIP3    H120445   6.971   1.850   5.878
 6827TIP3    H220446   7.106   1.877   5.815
 6828TIP3   OH220447   0.709   6.466   2.367
 6828TIP3    H120448   0.689   6.509   2.283
 6828TIP3    H220449   0.652   6.390   2.368
 6829TIP3   OH220450   0.763   2.805   3.526
 6829TIP3    H120451   0.700   2.876   3.513
 6829TIP3    H220452   0.747   2.776   3.615
 6830TIP3   OH220453   6.386   5.526   3.308
 6830TIP3    H120454   6.339   5.601   3.270
 6830TIP3    H220455   6.445   5.497   3.240
 6831TIP3   OH220456   5.827   1.978   4.616
 6831TIP3    H120457   5.862   2.065   4.601
 6831TIP3    H220458   5.904   1.925   4.637
 6832TIP3   OH220459   6.851   5.745   1.460
 6832TIP3    H120460   6.802   5.675   1.503
 6832TIP3    H220461   6.788   5.788   1.403
 6833TIP3   OH220462   2.124   6.203   4.804
 6833TIP3    H120463   2.108   6.173   4.893
 6833TIP3    H220464   2.144   6.123   4.755
 6834TIP3   OH220465   4.890   2.600   1.983
 6834TIP3    H120466   4.920   2.628   1.896
 6834TIP3    H220467   4.967   2.558   2.022
 6835TIP3   OH220468   3.330   2.985   4.135
 6835TIP3    H120469   3.357   2.962   4.223
 6835TIP3    H220470   3.287   3.071   4.145
 6836TIP3   OH220471   3.660   1.280   4.496
 6836TIP3    H120472   3.749   1.249   4.480
 6836TIP3    H220473   3.648   1.352   4.434
 6837TIP3   OH220474   6.713   4.590   4.972
 6837TIP3    H120475   6.792   4.538   4.957
 6837TIP3    H220476   6.661   4.537   5.033
 6838TIP3   OH220477   7.147   0.443   1.456
 6838TIP3    H120478   7.176   0.352   1.462
 6838TIP3    H220479   7.118   0.465   1.544
 6839TIP3   OH220480   1.044   0.067   2.272
 6839TIP3    H120481   1.025  -0.009   2.328
 6839TIP3    H220482   1.014   0.142   2.323
 6840TIP3   OH220483   0.759   0.156   0.284
 6840TIP3    H120484   0.714   0.163   0.369
 6840TIP3    H220485   0.739   0.238   0.240
 6841TIP3   OH220486   0.843   2.878   0.760
 6841TIP3    H120487   0.931   2.898   0.728
 6841TIP3    H220488   0.837   2.783   0.756
 6842TIP3   OH220489   2.973   5.248   5.176
 6842TIP3    H120490   3.038   5.299   5.128
 6842TIP3    H220491   2.984   5.274   5.267
 6843TIP3   OH220492   1.093   2.913   0.676
 6843TIP3    H120493   1.178   2.879   0.706
 6843TIP3    H220494   1.113   2.958   0.594
 6844TIP3   OH220495   1.276   0.973   4.996
 6844TIP3    H120496   1.271   0.985   4.901
 6844TIP3    H220497   1.341   0.904   5.009
 6845TIP3   OH220498   3.674   2.580   5.647
 6845TIP3    H120499   3.759   2.609   5.612
 6845TIP3    H220500   3.634   2.660   5.681
 6846TIP3   OH220501   5.626   4.628   4.938
 6846TIP3    H120502   5.691   4.648   5.005
 6846TIP3    H220503   5.619   4.708   4.886
 6847TIP3   OH220504   0.892   3.767   1.030
 6847TIP3    H120505   0.945   3.705   0.980
 6847TIP3    H220506   0.858   3.715   1.103
 6848TIP3   OH220507   2.450   3.002   4.315
 6848TIP3    H120508   2.498   2.996   4.232
 6848TIP3    H220509   2.507   3.054   4.372
 6849TIP3   OH220510   5.346   1.798   1.774
 6849TIP3    H120511   5.306   1.759   1.852
 6849TIP3    H220512   5.436   1.764   1.774
 6850TIP3   OH220513   1.881   5.744   0.787
 6850TIP3    H120514   1.886   5.699   0.872
 6850TIP3    H220515   1.972   5.758   0.762
 6851TIP3   OH220516   6.947   4.003   2.742
 6851TIP3    H120517   6.930   4.040   2.828
 6851TIP3    H220518   6.965   4.080   2.686
 6852TIP3   OH220519   1.260   3.563   3.481
 6852TIP3    H120520   1.181   3.510   3.489
 6852TIP3    H220521   1.233   3.650   3.511
 6853TIP3   OH220522   0.552   1.586   1.945
 6853TIP3    H120523   0.465   1.591   1.905
 6853TIP3    H220524   0.572   1.677   1.970
 6854TIP3   OH220525   6.325   2.033   4.072
 6854TIP3    H120526   6.331   2.021   4.167
 6854TIP3    H220527   6.409   2.072   4.048
 6855TIP3   OH220528   3.541   3.057   5.852
 6855TIP3    H120529   3.624   3.102   5.869
 6855TIP3    H220530   3.558   2.965   5.874
 6856TIP3   OH220531   0.456   2.593   0.239
 6856TIP3    H120532   0.520   2.663   0.251
 6856TIP3    H220533   0.371   2.638   0.236
 6857TIP3   OH220534   2.194   6.380   0.070
 6857TIP3    H120535   2.220   6.459   0.117
 6857TIP3    H220536   2.247   6.310   0.108
 6858TIP3   OH220537   4.233   3.905   5.751
 6858TIP3    H120538   4.292   3.929   5.823
 6858TIP3    H220539   4.265   3.820   5.721
 6859TIP3   OH220540   6.269   5.450   2.344
 6859TIP3    H120541   6.261   5.396   2.423
 6859TIP3    H220542   6.348   5.503   2.359
 6860TIP3   OH220543   6.000   3.373   0.632
 6860TIP3    H120544   6.043   3.384   0.547
 6860TIP3    H220545   5.927   3.434   0.631
 6861TIP3   OH220546   6.421   3.285   5.380
 6861TIP3    H120547   6.513   3.259   5.380
 6861TIP3    H220548   6.387   3.256   5.464
 6862TIP3   OH220549   2.569   4.682   2.601
 6862TIP3    H120550   2.640   4.744   2.615
 6862TIP3    H220551   2.609   4.596   2.616
 6863TIP3   OH220552   6.425   2.501   4.612
 6863TIP3    H120553   6.482   2.445   4.664
 6863TIP3    H220554   6.471   2.585   4.607
 6864TIP3   OH220555   5.372   6.389   2.744
 6864TIP3    H120556   5.291   6.341   2.726
 6864TIP3    H220557   5.399   6.423   2.659
 6865TIP3   OH220558   0.630   0.986   1.673
 6865TIP3    H120559   0.587   1.071   1.676
 6865TIP3    H220560   0.723   1.007   1.661
 6866TIP3   OH220561   5.200   2.595   4.468
 6866TIP3    H120562   5.150   2.677   4.475
 6866TIP3    H220563   5.134   2.529   4.448
 6867TIP3   OH220564   2.129   4.330   0.137
 6867TIP3    H120565   2.180   4.311   0.058
 6867TIP3    H220566   2.094   4.417   0.122
 6868TIP3   OH220567   6.191   2.167   3.396
 6868TIP3    H120568   6.214   2.226   3.467
 6868TIP3    H220569   6.147   2.223   3.331
 6869TIP3   OH220570   6.351   3.256   5.633
 6869TIP3    H120571   6.407   3.290   5.703
 6869TIP3    H220572   6.319   3.172   5.667
 6870TIP3   OH220573   0.542   3.495   5.672
 6870TIP3    H120574   0.465   3.546   5.697
 6870TIP3    H220575   0.509   3.430   5.610
 6871TIP3   OH220576   5.118   2.070   5.522
 6871TIP3    H120577   5.173   2.101   5.594
 6871TIP3    H220578   5.054   2.140   5.508
 6872TIP3   OH220579   3.172   1.123   2.271
 6872TIP3    H120580   3.227   1.096   2.197
 6872TIP3    H220581   3.096   1.064   2.267
 6873TIP3   OH220582   5.109   3.026   2.957
 6873TIP3    H120583   5.119   2.966   2.883
 6873TIP3    H220584   5.051   3.095   2.924
 6874TIP3   OH220585   6.027   4.362   0.169
 6874TIP3    H120586   5.960   4.407   0.118
 6874TIP3    H220587   6.031   4.411   0.251
 6875TIP3   OH220588   5.452   4.752   4.655
 6875TIP3    H120589   5.448   4.845   4.630
 6875TIP3    H220590   5.439   4.705   4.573
 6876TIP3   OH220591   1.358   5.398   4.511
 6876TIP3    H120592   1.368   5.473   4.452
 6876TIP3    H220593   1.442   5.353   4.506
 6877TIP3   OH220594   4.820   5.593   1.140
 6877TIP3    H120595   4.747   5.637   1.097
 6877TIP3    H220596   4.863   5.662   1.191
 6878TIP3   OH220597   3.754   5.129   3.051
 6878TIP3    H120598   3.756   5.082   2.968
 6878TIP3    H220599   3.757   5.221   3.026
 6879TIP3   OH220600   5.554   4.095   3.843
 6879TIP3    H120601   5.554   4.052   3.929
 6879TIP3    H220602   5.646   4.099   3.817
 6880TIP3   OH220603   6.369   0.557   3.895
 6880TIP3    H120604   6.329   0.505   3.965
 6880TIP3    H220605   6.407   0.492   3.835
 6881TIP3   OH220606   6.032   1.218   4.732
 6881TIP3    H120607   6.061   1.239   4.821
 6881TIP3    H220608   5.984   1.296   4.703
 6882TIP3   OH220609   5.542   2.787   2.461
 6882TIP3    H120610   5.511   2.857   2.519
 6882TIP3    H220611   5.492   2.710   2.488
 6883TIP3   OH220612   6.605   4.250   4.500
 6883TIP3    H120613   6.672   4.302   4.455
 6883TIP3    H220614   6.556   4.314   4.552
 6884TIP3   OH220615   3.093   2.518   1.583
 6884TIP3    H120616   2.999   2.535   1.591
 6884TIP3    H220617   3.135   2.602   1.603
 6885TIP3   OH220618   4.194   1.339   3.491
 6885TIP3    H120619   4.281   1.321   3.454
 6885TIP3    H220620   4.172   1.427   3.458
 6886TIP3   OH220621   5.062   4.111   5.813
 6886TIP3    H120622   5.097   4.058   5.885
 6886TIP3    H220623   5.125   4.183   5.803
 6887TIP3   OH220624   0.048   1.351   3.388
 6887TIP3    H120625   0.142   1.333   3.389
 6887TIP3    H220626   0.039   1.424   3.327
 6888TIP3   OH220627   0.014   5.650   3.309
 6888TIP3    H120628   0.066   5.593   3.365
 6888TIP3    H220629  -0.069   5.603   3.297
 6889TIP3   OH220630   6.852   5.178   3.577
 6889TIP3    H120631   6.948   5.176   3.570
 6889TIP3    H220632   6.834   5.132   3.660
 6890TIP3   OH220633   2.913   2.689   3.724
 6890TIP3    H120634   2.991   2.743   3.738
 6890TIP3    H220635   2.861   2.738   3.660
 6891TIP3   OH220636   2.875   2.365   4.609
 6891TIP3    H120637   2.967   2.390   4.604
 6891TIP3    H220638   2.830   2.445   4.637
 6892TIP3   OH220639   6.323   6.653   0.793
 6892TIP3    H120640   6.234   6.618   0.794
 6892TIP3    H220641   6.378   6.583   0.827
 6893TIP3   OH220642   7.012   2.489   4.429
 6893TIP3    H120643   7.016   2.499   4.524
 6893TIP3    H220644   7.102   2.471   4.402
 6894TIP3   OH220645   0.313   2.106   3.641
 6894TIP3    H120646   0.365   2.025   3.641
 6894TIP3    H220647   0.269   2.106   3.556
 6895TIP3   OH220648   3.919   2.871   5.281
 6895TIP3    H120649   3.955   2.792   5.240
 6895TIP3    H220650   3.983   2.939   5.260
 6896TIP3   OH220651   3.995   2.497   5.896
 6896TIP3    H120652   3.985   2.473   5.804
 6896TIP3    H220653   4.029   2.418   5.939
 6897TIP3   OH220654   1.048   1.541   1.197
 6897TIP3    H120655   1.107   1.523   1.124
 6897TIP3    H220656   1.021   1.632   1.184
 6898TIP3   OH220657   1.571   0.349   5.221
 6898TIP3    H120658   1.577   0.272   5.277
 6898TIP3    H220659   1.534   0.316   5.139
 6899TIP3   OH220660   2.547   2.238   5.325
 6899TIP3    H120661   2.557   2.281   5.411
 6899TIP3    H220662   2.454   2.247   5.304
 6900TIP3   OH220663   2.975   2.252   4.952
 6900TIP3    H120664   2.897   2.261   4.898
 6900TIP3    H220665   3.046   2.237   4.890
 6901TIP3   OH220666   1.913   5.718   4.504
 6901TIP3    H120667   1.954   5.646   4.552
 6901TIP3    H220668   1.931   5.795   4.558
 6902TIP3   OH220669   4.121   4.000   2.282
 6902TIP3    H120670   4.074   4.075   2.245
 6902TIP3    H220671   4.127   4.020   2.375
 6903TIP3   OH220672   5.795   0.314   5.073
 6903TIP3    H120673   5.840   0.231   5.086
 6903TIP3    H220674   5.705   0.298   5.100
 6904TIP3   OH220675   4.122   3.127   3.115
 6904TIP3    H120676   4.152   3.216   3.095
 6904TIP3    H220677   4.139   3.078   3.035
 6905TIP3   OH220678   6.590   4.930   3.963
 6905TIP3    H120679   6.557   4.848   3.999
 6905TIP3    H220680   6.513   4.973   3.926
 6906TIP3   OH220681   3.636   4.434   1.882
 6906TIP3    H120682   3.724   4.470   1.872
 6906TIP3    H220683   3.597   4.441   1.794
 6907TIP3   OH220684   7.083   3.120   1.496
 6907TIP3    H120685   7.103   3.028   1.513
 6907TIP3    H220686   7.136   3.142   1.419
 6908TIP3   OH220687   2.807   2.722   5.645
 6908TIP3    H120688   2.775   2.751   5.560
 6908TIP3    H220689   2.886   2.773   5.660
 6909TIP3   OH220690   0.732   2.681   2.332
 6909TIP3    H120691   0.827   2.689   2.343
 6909TIP3    H220692   0.713   2.591   2.357
 6910TIP3   OH220693   1.585   0.461   0.518
 6910TIP3    H120694   1.516   0.426   0.461
 6910TIP3    H220695   1.663   0.464   0.463
 6911TIP3   OH220696   3.239   1.031   2.934
 6911TIP3    H120697   3.309   1.096   2.940
 6911TIP3    H220698   3.184   1.049   3.010
 6912TIP3   OH220699   1.348   3.899   0.264
 6912TIP3    H120700   1.287   3.891   0.338
 6912TIP3    H220701   1.420   3.841   0.286
 6913TIP3   OH220702   4.179   0.655   3.680
 6913TIP3    H120703   4.264   0.640   3.641
 6913TIP3    H220704   4.149   0.738   3.642
 6914TIP3   OH220705   1.023   0.369   0.080
 6914TIP3    H120706   1.027   0.277   0.106
 6914TIP3    H220707   0.976   0.413   0.152
 6915TIP3   OH220708   5.236   6.052   5.340
 6915TIP3    H120709   5.325   6.064   5.308
 6915TIP3    H220710   5.184   6.036   5.261
 6916TIP3   OH220711   0.298   1.948   1.657
 6916TIP3    H120712   0.262   1.996   1.582
 6916TIP3    H220713   0.392   1.944   1.639
 6917TIP3   OH220714   4.852   6.015   3.887
 6917TIP3    H120715   4.897   5.956   3.948
 6917TIP3    H220716   4.835   5.962   3.809
 6918TIP3   OH220717   0.842   3.605   2.555
 6918TIP3    H120718   0.841   3.510   2.569
 6918TIP3    H220719   0.929   3.633   2.584
 6919TIP3   OH220720   3.180   3.876   5.207
 6919TIP3    H120721   3.133   3.793   5.217
 6919TIP3    H220722   3.146   3.914   5.127
 6920TIP3   OH220723   2.668   0.355   4.698
 6920TIP3    H120724   2.686   0.348   4.792
 6920TIP3    H220725   2.573   0.365   4.692
 6921TIP3   OH220726   6.799   5.177   2.982
 6921TIP3    H120727   6.796   5.264   2.943
 6921TIP3    H220728   6.714   5.138   2.961
 6922TIP3   OH220729   4.479   4.789   2.206
 6922TIP3    H120730   4.555   4.799   2.263
 6922TIP3    H220731   4.514   4.794   2.118
 6923TIP3   OH220732   0.558   2.834   5.657
 6923TIP3    H120733   0.484   2.889   5.685
 6923TIP3    H220734   0.621   2.840   5.729
 6924TIP3   OH220735   6.882   4.152   2.120
 6924TIP3    H120736   6.856   4.087   2.055
 6924TIP3    H220737   6.927   4.220   2.070
 6925TIP3   OH220738   2.117   2.545   1.749
 6925TIP3    H120739   2.191   2.544   1.810
 6925TIP3    H220740   2.061   2.617   1.779
 6926TIP3   OH220741   1.366   5.420   3.279
 6926TIP3    H120742   1.273   5.439   3.266
 6926TIP3    H220743   1.392   5.474   3.353
 6927TIP3   OH220744   2.070   3.995   1.925
 6927TIP3    H120745   1.994   3.938   1.915
 6927TIP3    H220746   2.069   4.049   1.845
 6928TIP3   OH220747   3.046   4.805   0.052
 6928TIP3    H120748   3.126   4.809   0.000
 6928TIP3    H220749   3.004   4.724   0.024
 6929TIP3   OH220750   6.259   1.945   2.139
 6929TIP3    H120751   6.282   2.036   2.123
 6929TIP3    H220752   6.327   1.895   2.093
 6930TIP3   OH220753   6.599   0.706   0.071
 6930TIP3    H120754   6.571   0.743  -0.012
 6930TIP3    H220755   6.559   0.761   0.137
 6931TIP3   OH220756   3.869   3.310   1.576
 6931TIP3    H120757   3.878   3.284   1.668
 6931TIP3    H220758   3.793   3.261   1.545
 6932TIP3   OH220759   3.524   1.959   4.063
 6932TIP3    H120760   3.522   1.907   4.144
 6932TIP3    H220761   3.522   2.050   4.093
 6933TIP3   OH220762   1.295   5.060   3.922
 6933TIP3    H120763   1.365   5.117   3.892
 6933TIP3    H220764   1.339   4.997   3.979
 6934TIP3   OH220765   1.948   4.215   5.620
 6934TIP3    H120766   2.026   4.226   5.675
 6934TIP3    H220767   1.950   4.290   5.561
 6935TIP3   OH220768   1.556   3.275   5.572
 6935TIP3    H120769   1.542   3.181   5.568
 6935TIP3    H220770   1.506   3.304   5.649
 6936TIP3   OH220771   1.862   0.158   2.811
 6936TIP3    H120772   1.778   0.113   2.808
 6936TIP3    H220773   1.861   0.216   2.734
 6937TIP3   OH220774   0.848   1.411   1.346
 6937TIP3    H120775   0.923   1.426   1.288
 6937TIP3    H220776   0.781   1.471   1.314
 6938TIP3   OH220777   2.281   5.122   0.547
 6938TIP3    H120778   2.262   5.083   0.462
 6938TIP3    H220779   2.205   5.178   0.565
 6939TIP3   OH220780   3.731   0.035   5.189
 6939TIP3    H120781   3.768   0.060   5.274
 6939TIP3    H220782   3.647   0.081   5.185
 6940TIP3   OH220783   1.249   4.932   1.182
 6940TIP3    H120784   1.224   4.885   1.103
 6940TIP3    H220785   1.184   5.003   1.189
 6941TIP3   OH220786   6.029   1.411   2.590
 6941TIP3    H120787   6.115   1.370   2.601
 6941TIP3    H220788   5.983   1.394   2.672
 6942TIP3   OH220789   6.802   0.304   2.986
 6942TIP3    H120790   6.747   0.382   2.988
 6942TIP3    H220791   6.892   0.338   2.991
 6943TIP3   OH220792   0.213   4.935   3.820
 6943TIP3    H120793   0.239   4.853   3.863
 6943TIP3    H220794   0.287   4.957   3.764
 6944TIP3   OH220795   3.094   1.350   4.674
 6944TIP3    H120796   3.043   1.307   4.606
 6944TIP3    H220797   3.140   1.279   4.719
 6945TIP3   OH220798   6.866   2.170   4.687
 6945TIP3    H120799   6.802   2.105   4.659
 6945TIP3    H220800   6.949   2.139   4.651
 6946TIP3   OH220801   3.890   6.248   1.968
 6946TIP3    H120802   3.965   6.249   2.027
 6946TIP3    H220803   3.885   6.157   1.939
 6947TIP3   OH220804   5.427   4.225   1.894
 6947TIP3    H120805   5.483   4.215   1.971
 6947TIP3    H220806   5.356   4.162   1.908
 6948TIP3   OH220807   2.281   0.931   3.468
 6948TIP3    H120808   2.259   0.954   3.377
 6948TIP3    H220809   2.260   0.838   3.474
 6949TIP3   OH220810   1.088   3.059   3.669
 6949TIP3    H120811   1.134   3.140   3.647
 6949TIP3    H220812   1.004   3.087   3.704
 6950TIP3   OH220813   2.152   0.081   3.143
 6950TIP3    H120814   2.161  -0.005   3.102
 6950TIP3    H220815   2.064   0.110   3.118
 6951TIP3   OH220816   5.682   1.712   0.318
 6951TIP3    H120817   5.678   1.715   0.223
 6951TIP3    H220818   5.736   1.787   0.342
 6952TIP3   OH220819   1.811   3.017   1.868
 6952TIP3    H120820   1.893   3.004   1.821
 6952TIP3    H220821   1.795   3.111   1.863
 6953TIP3   OH220822   2.272   3.095   5.274
 6953TIP3    H120823   2.207   3.040   5.231
 6953TIP3    H220824   2.237   3.184   5.267
 6954TIP3   OH220825   6.390   2.710   1.880
 6954TIP3    H120826   6.474   2.753   1.897
 6954TIP3    H220827   6.392   2.690   1.786
 6955TIP3   OH220828   2.887   5.132   0.132
 6955TIP3    H120829   2.846   5.104   0.214
 6955TIP3    H220830   2.895   5.227   0.141
 6956TIP3   OH220831   1.732   4.951   4.759
 6956TIP3    H120832   1.786   5.008   4.814
 6956TIP3    H220833   1.642   4.971   4.784
 6957TIP3   OH220834   0.119   4.178   3.222
 6957TIP3    H120835   0.136   4.101   3.276
 6957TIP3    H220836   0.024   4.192   3.230
 6958TIP3   OH220837   6.812   2.289   3.406
 6958TIP3    H120838   6.849   2.377   3.405
 6958TIP3    H220839   6.739   2.295   3.468
 6959TIP3   OH220840   1.898   2.271   1.186
 6959TIP3    H120841   1.891   2.225   1.103
 6959TIP3    H220842   1.983   2.315   1.183
 6960TIP3   OH220843   0.702   0.749   3.486
 6960TIP3    H120844   0.681   0.735   3.394
 6960TIP3    H220845   0.626   0.793   3.522
 6961TIP3   OH220846   6.103   5.750   0.119
 6961TIP3    H120847   6.135   5.813   0.184
 6961TIP3    H220848   6.133   5.665   0.151
 6962TIP3   OH220849   2.811   3.605   3.435
 6962TIP3    H120850   2.744   3.664   3.399
 6962TIP3    H220851   2.770   3.565   3.512
 6963TIP3   OH220852   6.811   4.389   0.356
 6963TIP3    H120853   6.796   4.362   0.266
 6963TIP3    H220854   6.865   4.319   0.394
 6964TIP3   OH220855   6.083   2.124   5.529
 6964TIP3    H120856   5.996   2.164   5.525
 6964TIP3    H220857   6.095   2.085   5.442
 6965TIP3   OH220858   0.693   1.899   3.901
 6965TIP3    H120859   0.755   1.830   3.874
 6965TIP3    H220860   0.694   1.895   3.997
 6966TIP3   OH220861   5.459   1.617   5.371
 6966TIP3    H120862   5.479   1.667   5.450
 6966TIP3    H220863   5.405   1.677   5.319
 6967TIP3   OH220864   3.134   0.831   2.438
 6967TIP3    H120865   3.131   0.877   2.522
 6967TIP3    H220866   3.071   0.760   2.447
 6968TIP3   OH220867   3.340   5.996   3.957
 6968TIP3    H120868   3.305   6.007   3.869
 6968TIP3    H220869   3.347   5.901   3.969
 6969TIP3   OH220870   1.950   4.959   1.007
 6969TIP3    H120871   1.905   4.880   0.978
 6969TIP3    H220872   2.033   4.928   1.044
 6970TIP3   OH220873   5.710   4.619   5.792
 6970TIP3    H120874   5.788   4.573   5.824
 6970TIP3    H220875   5.721   4.620   5.697
 6971TIP3   OH220876   6.907   5.838   3.941
 6971TIP3    H120877   6.932   5.764   3.885
 6971TIP3    H220878   6.814   5.851   3.924
 6972TIP3   OH220879   4.149   2.563   4.955
 6972TIP3    H120880   4.227   2.534   5.002
 6972TIP3    H220881   4.148   2.511   4.875
 6973TIP3   OH220882   0.072   3.512   4.468
 6973TIP3    H120883   0.104   3.441   4.523
 6973TIP3    H220884   0.085   3.591   4.521
 6974TIP3   OH220885   6.202   6.493   4.172
 6974TIP3    H120886   6.151   6.442   4.236
 6974TIP3    H220887   6.217   6.432   4.100
 6975TIP3   OH220888   6.578   5.416   2.876
 6975TIP3    H120889   6.639   5.490   2.870
 6975TIP3    H220890   6.512   5.435   2.809
 6976TIP3   OH220891   6.292   0.889   0.057
 6976TIP3    H120892   6.244   0.820   0.102
 6976TIP3    H220893   6.351   0.843  -0.003
 6977TIP3   OH220894   4.490   3.733   2.027
 6977TIP3    H120895   4.540   3.752   1.948
 6977TIP3    H220896   4.421   3.800   2.028
 6978TIP3   OH220897   0.209   5.149   5.443
 6978TIP3    H120898   0.191   5.195   5.362
 6978TIP3    H220899   0.206   5.056   5.420
 6979TIP3   OH220900   5.987   1.007   2.560
 6979TIP3    H120901   5.932   1.055   2.497
 6979TIP3    H220902   6.071   1.051   2.557
 6980TIP3   OH220903   3.472   3.871   1.786
 6980TIP3    H120904   3.448   3.802   1.724
 6980TIP3    H220905   3.474   3.828   1.871
 6981TIP3   OH220906   0.970   5.858   4.330
 6981TIP3    H120907   0.931   5.845   4.416
 6981TIP3    H220908   0.966   5.771   4.289
 6982TIP3   OH220909   2.902   6.454   5.252
 6982TIP3    H120910   2.873   6.386   5.312
 6982TIP3    H220911   2.824   6.506   5.234
 6983TIP3   OH220912   6.065   2.532   4.565
 6983TIP3    H120913   5.977   2.496   4.554
 6983TIP3    H220914   6.087   2.514   4.656
 6984TIP3   OH220915   1.510   0.743   5.035
 6984TIP3    H120916   1.538   0.668   4.983
 6984TIP3    H220917   1.592   0.786   5.061
 6985TIP3   OH220918   6.512   0.940   4.063
 6985TIP3    H120919   6.543   0.911   3.977
 6985TIP3    H220920   6.522   0.863   4.119
 6986TIP3   OH220921   3.578   5.177   2.691
 6986TIP3    H120922   3.625   5.249   2.650
 6986TIP3    H220923   3.489   5.212   2.705
 6987TIP3   OH220924   1.434   3.945   1.627
 6987TIP3    H120925   1.500   3.878   1.641
 6987TIP3    H220926   1.468   3.998   1.555
 6988TIP3   OH220927   0.675   3.656   5.077
 6988TIP3    H120928   0.593   3.609   5.093
 6988TIP3    H220929   0.676   3.726   5.142
 6989TIP3   OH220930   0.120   6.402   2.726
 6989TIP3    H120931   0.037   6.451   2.730
 6989TIP3    H220932   0.159   6.427   2.642
 6990TIP3   OH220933   4.513   0.792   2.540
 6990TIP3    H120934   4.563   0.737   2.601
 6990TIP3    H220935   4.426   0.798   2.580
 6991TIP3   OH220936   3.909   2.021   2.105
 6991TIP3    H120937   3.822   2.036   2.070
 6991TIP3    H220938   3.902   1.939   2.154
 6992TIP3   OH220939   4.885   5.623   2.860
 6992TIP3    H120940   4.915   5.609   2.770
 6992TIP3    H220941   4.963   5.653   2.907
 6993TIP3   OH220942   1.339   3.803   2.151
 6993TIP3    H120943   1.315   3.794   2.059
 6993TIP3    H220944   1.339   3.713   2.185
 6994TIP3   OH220945   4.831   2.253   1.125
 6994TIP3    H120946   4.911   2.301   1.102
 6994TIP3    H220947   4.834   2.175   1.069
 6995TIP3   OH220948   7.035   0.736   4.787
 6995TIP3    H120949   7.109   0.675   4.780
 6995TIP3    H220950   6.960   0.680   4.806
 6996TIP3   OH220951   4.635   6.419   1.688
 6996TIP3    H120952   4.584   6.447   1.764
 6996TIP3    H220953   4.577   6.358   1.642
 6997TIP3   OH220954   1.406   6.532   3.920
 6997TIP3    H120955   1.412   6.625   3.897
 6997TIP3    H220956   1.362   6.491   3.845
 6998TIP3   OH220957   0.392   0.387   4.553
 6998TIP3    H120958   0.301   0.359   4.562
 6998TIP3    H220959   0.411   0.375   4.460
 6999TIP3   OH220960   5.974   1.567   2.240
 6999TIP3    H120961   6.061   1.602   2.256
 6999TIP3    H220962   5.985   1.472   2.238
 7000TIP3   OH220963   3.806   1.390   3.436
 7000TIP3    H120964   3.721   1.424   3.406
 7000TIP3    H220965   3.869   1.427   3.375
 7001TIP3   OH220966   4.087   0.439   1.552
 7001TIP3    H120967   4.120   0.360   1.510
 7001TIP3    H220968   4.156   0.504   1.538
 7002TIP3   OH220969   0.177   3.081   4.646
 7002TIP3    H120970   0.172   2.990   4.675
 7002TIP3    H220971   0.260   3.086   4.598
 7003TIP3   OH220972   2.226   5.363   4.517
 7003TIP3    H120973   2.216   5.303   4.591
 7003TIP3    H220974   2.295   5.423   4.544
 7004TIP3   OH220975   6.427   6.618   2.133
 7004TIP3    H120976   6.411   6.523   2.131
 7004TIP3    H220977   6.340   6.657   2.121
 7005TIP3   OH220978   2.267   0.298   5.357
 7005TIP3    H120979   2.204   0.365   5.332
 7005TIP3    H220980   2.225   0.250   5.428
 7006TIP3   OH220981   0.270   0.573   1.833
 7006TIP3    H120982   0.322   0.651   1.812
 7006TIP3    H220983   0.184   0.591   1.796
 7007TIP3   OH220984   5.296   0.104   2.568
 7007TIP3    H120985   5.301   0.188   2.615
 7007TIP3    H220986   5.211   0.068   2.592
 7008TIP3   OH220987   5.997   5.929   4.003
 7008TIP3    H120988   5.972   6.021   3.997
 7008TIP3    H220989   6.069   5.919   3.940
 7009TIP3   OH220990   0.606   3.466   1.763
 7009TIP3    H120991   0.553   3.389   1.783
 7009TIP3    H220992   0.663   3.477   1.839
 7010TIP3   OH220993   1.090   4.856   2.787
 7010TIP3    H120994   1.158   4.897   2.841
 7010TIP3    H220995   1.008   4.885   2.826
 7011TIP3   OH220996   0.152   6.273   1.449
 7011TIP3    H120997   0.193   6.190   1.473
 7011TIP3    H220998   0.069   6.273   1.497
 7012TIP3   OH220999   3.424   6.147   5.212
 7012TIP3    H121000   3.491   6.185   5.154
 7012TIP3    H221001   3.411   6.058   5.178
 7013TIP3   OH221002   6.892   0.245   3.340
 7013TIP3    H121003   6.957   0.177   3.320
 7013TIP3    H221004   6.841   0.254   3.259
 7014TIP3   OH221005   4.648   3.016   2.449
 7014TIP3    H121006   4.660   3.092   2.392
 7014TIP3    H221007   4.584   3.044   2.514
 7015TIP3   OH221008   1.295   3.390   3.767
 7015TIP3    H121009   1.337   3.373   3.683
 7015TIP3    H221010   1.357   3.446   3.814
 7016TIP3   OH221011   5.187   2.822   5.685
 7016TIP3    H121012   5.232   2.761   5.744
 7016TIP3    H221013   5.146   2.886   5.743
 7017TIP3   OH221014   2.301   2.603   0.254
 7017TIP3    H121015   2.312   2.526   0.311
 7017TIP3    H221016   2.310   2.569   0.165
 7018TIP3   OH221017   0.670   3.530   0.619
 7018TIP3    H121018   0.662   3.590   0.694
 7018TIP3    H221019   0.764   3.516   0.610
 7019TIP3   OH221020   0.184   2.697   1.611
 7019TIP3    H121021   0.214   2.661   1.527
 7019TIP3    H221022   0.261   2.693   1.667
 7020TIP3   OH221023   1.542   2.109   1.814
 7020TIP3    H121024   1.453   2.116   1.780
 7020TIP3    H221025   1.590   2.181   1.772
 7021TIP3   OH221026   4.878   2.704   3.177
 7021TIP3    H121027   4.974   2.709   3.169
 7021TIP3    H221028   4.862   2.621   3.223
 7022TIP3   OH221029   1.181   1.520   4.955
 7022TIP3    H121030   1.177   1.433   4.994
 7022TIP3    H221031   1.271   1.549   4.969
 7023TIP3   OH221032   6.258   0.831   0.980
 7023TIP3    H121033   6.349   0.829   1.010
 7023TIP3    H221034   6.223   0.745   1.002
 7024TIP3   OH221035   5.076   6.553   3.676
 7024TIP3    H121036   4.981   6.561   3.684
 7024TIP3    H221037   5.089   6.465   3.641
 7025TIP3   OH221038   5.132   3.449   0.349
 7025TIP3    H121039   5.115   3.516   0.283
 7025TIP3    H221040   5.146   3.369   0.298
 7026TIP3   OH221041   3.285   1.074   3.898
 7026TIP3    H121042   3.355   1.133   3.871
 7026TIP3    H221043   3.218   1.082   3.829
 7027TIP3   OH221044   3.289   1.529   3.400
 7027TIP3    H121045   3.255   1.506   3.486
 7027TIP3    H221046   3.278   1.624   3.394
 7028TIP3   OH221047   1.064   2.906   4.188
 7028TIP3    H121048   1.004   2.896   4.115
 7028TIP3    H221049   1.098   2.818   4.204
 7029TIP3   OH221050   4.220   4.373   0.836
 7029TIP3    H121051   4.140   4.329   0.864
 7029TIP3    H221052   4.278   4.301   0.810
 7030TIP3   OH221053   1.715   4.685   1.579
 7030TIP3    H121054   1.641   4.640   1.537
 7030TIP3    H221055   1.677   4.765   1.615
 7031TIP3   OH221056   5.595   4.913   1.157
 7031TIP3    H121057   5.627   4.902   1.067
 7031TIP3    H221058   5.507   4.877   1.156
 7032TIP3   OH221059   6.953   6.383   0.846
 7032TIP3    H121060   7.002   6.332   0.910
 7032TIP3    H221061   6.874   6.331   0.829
 7033TIP3   OH221062   6.148   3.647   2.281
 7033TIP3    H121063   6.122   3.616   2.194
 7033TIP3    H221064   6.101   3.729   2.293
 7034TIP3   OH221065   6.815   2.137   1.899
 7034TIP3    H121066   6.860   2.157   1.981
 7034TIP3    H221067   6.763   2.216   1.880
 7035TIP3   OH221068   3.323   4.789   0.565
 7035TIP3    H121069   3.273   4.819   0.641
 7035TIP3    H221070   3.257   4.757   0.504
 7036TIP3   OH221071   4.233   6.174   4.979
 7036TIP3    H121072   4.283   6.112   5.032
 7036TIP3    H221073   4.233   6.135   4.891
 7037TIP3   OH221074   3.039   0.078   4.557
 7037TIP3    H121075   3.053   0.134   4.634
 7037TIP3    H221076   2.947   0.051   4.564
 7038TIP3   OH221077   4.520   1.114   5.685
 7038TIP3    H121078   4.533   1.207   5.704
 7038TIP3    H221079   4.607   1.083   5.659
 7039TIP3   OH221080   6.071   5.789   0.835
 7039TIP3    H121081   6.076   5.880   0.862
 7039TIP3    H221082   5.978   5.773   0.821
 7040TIP3   OH221083   4.830   5.567   4.822
 7040TIP3    H121084   4.923   5.553   4.804
 7040TIP3    H221085   4.788   5.564   4.736
 7041TIP3   OH221086   4.394   5.849   0.819
 7041TIP3    H121087   4.393   5.797   0.900
 7041TIP3    H221088   4.484   5.882   0.813
 7042TIP3   OH221089   2.839   2.568   5.865
 7042TIP3    H121090   2.885   2.491   5.831
 7042TIP3    H221091   2.811   2.616   5.787
 7043TIP3   OH221092   3.869   3.120   3.227
 7043TIP3    H121093   3.877   3.156   3.316
 7043TIP3    H221094   3.959   3.112   3.196
 7044TIP3   OH221095   5.660   0.845   3.921
 7044TIP3    H121096   5.667   0.939   3.935
 7044TIP3    H221097   5.573   0.832   3.884
 7045TIP3   OH221098   3.788   0.063   3.274
 7045TIP3    H121099   3.713   0.060   3.332
 7045TIP3    H221100   3.768   0.000   3.205
 7046TIP3   OH221101   5.413   2.189   3.388
 7046TIP3    H121102   5.484   2.145   3.341
 7046TIP3    H221103   5.447   2.276   3.407
 7047TIP3   OH221104   0.784   1.803   0.480
 7047TIP3    H121105   0.752   1.718   0.448
 7047TIP3    H221106   0.708   1.860   0.475
 7048TIP3   OH221107   2.553   0.041   5.542
 7048TIP3    H121108   2.472   0.014   5.499
 7048TIP3    H221109   2.525   0.100   5.612
 7049TIP3   OH221110   2.465   4.361   3.257
 7049TIP3    H121111   2.407   4.400   3.322
 7049TIP3    H221112   2.553   4.392   3.280
 7050TIP3   OH221113   0.843   2.736   5.034
 7050TIP3    H121114   0.835   2.782   4.951
 7050TIP3    H221115   0.786   2.784   5.094
 7051TIP3   OH221116   6.928   2.720   0.370
 7051TIP3    H121117   6.868   2.648   0.389
 7051TIP3    H221118   7.013   2.691   0.401
 7052TIP3   OH221119   5.993   0.095   5.143
 7052TIP3    H121120   6.066   0.153   5.166
 7052TIP3    H221121   5.989   0.033   5.215
 7053TIP3   OH221122   0.024   1.385   0.370
 7053TIP3    H121123  -0.018   1.456   0.419
 7053TIP3    H221124   0.102   1.364   0.422
 7054TIP3   OH221125   2.377   0.315   0.968
 7054TIP3    H121126   2.385   0.220   0.973
 7054TIP3    H221127   2.380   0.345   1.059
 7055TIP3   OH221128   5.662   2.279   5.840
 7055TIP3    H121129   5.610   2.258   5.917
 7055TIP3    H221130   5.609   2.248   5.766
 7056TIP3   OH221131   5.267   6.670   1.852
 7056TIP3    H121132   5.188   6.657   1.904
 7056TIP3    H221133   5.329   6.606   1.886
 7057TIP3   OH221134   5.289   4.056   3.203
 7057TIP3    H121135   5.269   3.986   3.141
 7057TIP3    H221136   5.368   4.097   3.167
 7058TIP3   OH221137   2.945   5.274   2.397
 7058TIP3    H121138   2.962   5.261   2.491
 7058TIP3    H221139   2.861   5.230   2.382
 7059TIP3   OH221140   6.841   1.641   4.115
 7059TIP3    H121141   6.932   1.631   4.144
 7059TIP3    H221142   6.792   1.577   4.166
 7060TIP3   OH221143   0.118   3.806   0.494
 7060TIP3    H121144   0.131   3.826   0.587
 7060TIP3    H221145   0.079   3.885   0.458
 7061TIP3   OH221146   5.129   3.350   3.472
 7061TIP3    H121147   5.045   3.368   3.515
 7061TIP3    H221148   5.143   3.256   3.486
 7062TIP3   OH221149   1.937   3.900   2.208
 7062TIP3    H121150   2.003   3.845   2.165
 7062TIP3    H221151   1.854   3.858   2.187
 7063TIP3   OH221152   4.757   0.378   4.194
 7063TIP3    H121153   4.799   0.454   4.234
 7063TIP3    H221154   4.731   0.408   4.107
 7064TIP3   OH221155   2.938   6.741   4.368
 7064TIP3    H121156   2.943   6.831   4.402
 7064TIP3    H221157   2.997   6.691   4.425
 7065TIP3   OH221158   5.628   3.333   0.818
 7065TIP3    H121159   5.554   3.312   0.876
 7065TIP3    H221160   5.625   3.264   0.751
 7066TIP3   OH221161   2.230   3.200   3.962
 7066TIP3    H121162   2.194   3.287   3.943
 7066TIP3    H221163   2.163   3.158   4.017
 7067TIP3   OH221164   3.204   2.545   1.321
 7067TIP3    H121165   3.169   2.595   1.395
 7067TIP3    H221166   3.126   2.514   1.274
 7068TIP3   OH221167   1.565   5.027   4.390
 7068TIP3    H121168   1.603   5.113   4.407
 7068TIP3    H221169   1.573   4.981   4.474
 7069TIP3   OH221170   7.165   5.626   0.858
 7069TIP3    H121171   7.202   5.567   0.925
 7069TIP3    H221172   7.241   5.659   0.811
 7070TIP3   OH221173   1.812   2.244   5.001
 7070TIP3    H121174   1.793   2.335   5.024
 7070TIP3    H221175   1.736   2.214   4.951
 7071TIP3   OH221176   5.563   2.466   2.788
 7071TIP3    H121177   5.626   2.411   2.835
 7071TIP3    H221178   5.479   2.447   2.830
 7072TIP3   OH221179   3.244   1.818   2.412
 7072TIP3    H121180   3.198   1.769   2.344
 7072TIP3    H221181   3.191   1.804   2.491
 7073TIP3   OH221182   5.550   5.226   0.806
 7073TIP3    H121183   5.606   5.279   0.749
 7073TIP3    H221184   5.575   5.251   0.895
 7074TIP3   OH221185   0.796   5.505   1.330
 7074TIP3    H121186   0.792   5.457   1.247
 7074TIP3    H221187   0.846   5.584   1.310
 7075TIP3   OH221188   1.436   3.360   5.802
 7075TIP3    H121189   1.380   3.324   5.871
 7075TIP3    H221190   1.491   3.424   5.847
 7076TIP3   OH221191   4.856   5.299   0.169
 7076TIP3    H121192   4.939   5.340   0.145
 7076TIP3    H221193   4.825   5.349   0.244
 7077TIP3   OH221194   3.707   5.644   1.767
 7077TIP3    H121195   3.802   5.632   1.773
 7077TIP3    H221196   3.695   5.720   1.711
 7078TIP3   OH221197   0.329   0.567   3.210
 7078TIP3    H121198   0.385   0.591   3.136
 7078TIP3    H221199   0.375   0.602   3.286
 7079TIP3   OH221200   5.859   4.678   5.542
 7079TIP3    H121201   5.839   4.771   5.529
 7079TIP3    H221202   5.934   4.678   5.602
 7080TIP3   OH221203   2.064   2.304   1.938
 7080TIP3    H121204   2.115   2.370   1.890
 7080TIP3    H221205   2.128   2.236   1.960
 7081TIP3   OH221206   6.253   0.015   5.469
 7081TIP3    H121207   6.266  -0.039   5.548
 7081TIP3    H221208   6.158   0.020   5.460
 7082TIP3   OH221209   0.687   1.073   4.785
 7082TIP3    H121210   0.765   1.088   4.732
 7082TIP3    H221211   0.614   1.097   4.727
 7083TIP3   OH221212   1.491   1.703   5.293
 7083TIP3    H121213   1.548   1.780   5.295
 7083TIP3    H221214   1.551   1.628   5.288
 7084TIP3   OH221215   2.469   5.117   0.116
 7084TIP3    H121216   2.457   5.125   0.210
 7084TIP3    H221217   2.517   5.195   0.090
 7085TIP3   OH221218   2.034   5.861   1.807
 7085TIP3    H121219   1.994   5.875   1.893
 7085TIP3    H221220   1.963   5.824   1.754
 7086TIP3   OH221221   4.647   5.185   2.824
 7086TIP3    H121222   4.667   5.091   2.823
 7086TIP3    H221223   4.667   5.213   2.913
 7087TIP3   OH221224   1.331   2.945   1.065
 7087TIP3    H121225   1.327   2.996   0.984
 7087TIP3    H221226   1.245   2.904   1.072
 7088TIP3   OH221227   2.265   5.298   2.459
 7088TIP3    H121228   2.361   5.299   2.450
 7088TIP3    H221229   2.247   5.217   2.507
 7089TIP3   OH221230   1.184   4.302   5.107
 7089TIP3    H121231   1.209   4.217   5.144
 7089TIP3    H221232   1.091   4.292   5.086
 7090TIP3   OH221233   1.524   6.131   4.310
 7090TIP3    H121234   1.563   6.183   4.239
 7090TIP3    H221235   1.477   6.195   4.363
 7091TIP3   OH221236   0.963   1.692   0.029
 7091TIP3    H121237   0.877   1.718   0.060
 7091TIP3    H221238   1.024   1.735   0.089
 7092TIP3   OH221239   6.676   6.204   4.843
 7092TIP3    H121240   6.727   6.129   4.811
 7092TIP3    H221241   6.649   6.250   4.765
 7093TIP3   OH221242   1.388   1.365   1.996
 7093TIP3    H121243   1.422   1.453   1.981
 7093TIP3    H221244   1.304   1.363   1.950
 7094TIP3   OH221245   2.902   4.422   4.219
 7094TIP3    H121246   2.962   4.390   4.287
 7094TIP3    H221247   2.871   4.342   4.175
 7095TIP3   OH221248   3.246   6.459   5.797
 7095TIP3    H121249   3.301   6.383   5.781
 7095TIP3    H221250   3.307   6.532   5.801
 7096TIP3   OH221251   2.601   5.041   0.469
 7096TIP3    H121252   2.579   5.122   0.517
 7096TIP3    H221253   2.520   4.990   0.470
 7097TIP3   OH221254   4.069   5.414   4.548
 7097TIP3    H121255   4.088   5.340   4.491
 7097TIP3    H221256   3.979   5.400   4.577
 7098TIP3   OH221257   6.966   4.876   1.959
 7098TIP3    H121258   7.043   4.932   1.973
 7098TIP3    H221259   6.981   4.800   2.015
 7099TIP3   OH221260   1.968   5.352   3.948
 7099TIP3    H121261   1.978   5.295   4.024
 7099TIP3    H221262   1.943   5.437   3.984
 7100TIP3   OH221263   1.714   6.311   1.710
 7100TIP3    H121264   1.745   6.319   1.801
 7100TIP3    H221265   1.702   6.217   1.696
 7101TIP3   OH221266   4.067   3.800   4.374
 7101TIP3    H121267   3.988   3.770   4.330
 7101TIP3    H221268   4.100   3.871   4.318
 7102TIP3   OH221269   2.764   1.571   0.307
 7102TIP3    H121270   2.755   1.490   0.357
 7102TIP3    H221271   2.734   1.549   0.219
 7103TIP3   OH221272   2.314   0.062   1.073
 7103TIP3    H121273   2.256   0.049   1.148
 7103TIP3    H221274   2.401   0.039   1.107
 7104TIP3   OH221275   6.271   3.846   2.914
 7104TIP3    H121276   6.205   3.880   2.975
 7104TIP3    H221277   6.220   3.796   2.850
 7105TIP3   OH221278   6.250   5.922   2.672
 7105TIP3    H121279   6.211   6.000   2.712
 7105TIP3    H221280   6.344   5.939   2.673
 7106TIP3   OH221281   4.654   0.979   1.479
 7106TIP3    H121282   4.720   0.972   1.410
 7106TIP3    H221283   4.685   1.050   1.534
 7107TIP3   OH221284   4.818   1.080   2.382
 7107TIP3    H121285   4.791   0.990   2.398
 7107TIP3    H221286   4.912   1.075   2.366
 7108TIP3   OH221287   2.144   1.292   3.272
 7108TIP3    H121288   2.169   1.375   3.312
 7108TIP3    H221289   2.096   1.246   3.340
 7109TIP3   OH221290   4.946   3.570   2.836
 7109TIP3    H121291   4.916   3.634   2.900
 7109TIP3    H221292   5.024   3.609   2.797
 7110TIP3   OH221293   6.526   2.412   0.799
 7110TIP3    H121294   6.516   2.470   0.723
 7110TIP3    H221295   6.559   2.468   0.869
 7111TIP3   OH221296   4.242   4.016   4.645
 7111TIP3    H121297   4.293   4.093   4.620
 7111TIP3    H221298   4.254   3.955   4.573
 7112TIP3   OH221299   1.161   0.396   3.232
 7112TIP3    H121300   1.124   0.478   3.265
 7112TIP3    H221301   1.246   0.390   3.276
 7113TIP3   OH221302   2.831   5.938   3.924
 7113TIP3    H121303   2.869   5.995   3.857
 7113TIP3    H221304   2.903   5.921   3.985
 7114TIP3   OH221305   6.479   0.853   0.277
 7114TIP3    H121306   6.404   0.894   0.235
 7114TIP3    H221307   6.528   0.926   0.315
 7115TIP3   OH221308   6.525   6.657   4.034
 7115TIP3    H121309   6.521   6.628   4.125
 7115TIP3    H221310   6.562   6.582   3.987
 7116TIP3   OH221311   4.681   4.579   3.644
 7116TIP3    H121312   4.592   4.602   3.619
 7116TIP3    H221313   4.732   4.659   3.628
 7117TIP3   OH221314   1.964   3.022   2.521
 7117TIP3    H121315   1.882   3.051   2.560
 7117TIP3    H221316   2.017   2.994   2.596
 7118TIP3   OH221317   4.059   4.171   1.512
 7118TIP3    H121318   4.015   4.162   1.596
 7118TIP3    H221319   4.019   4.103   1.457
 7119TIP3   OH221320   5.747   3.753   3.478
 7119TIP3    H121321   5.840   3.757   3.500
 7119TIP3    H221322   5.716   3.671   3.518
 7120TIP3   OH221323   2.318   0.996   0.526
 7120TIP3    H121324   2.387   0.939   0.492
 7120TIP3    H221325   2.278   0.946   0.597
 7121TIP3   OH221326   3.721   3.278   3.995
 7121TIP3    H121327   3.637   3.314   4.023
 7121TIP3    H221328   3.776   3.354   3.979
 7122TIP3   OH221329   0.359   6.434   2.828
 7122TIP3    H121330   0.362   6.433   2.924
 7122TIP3    H221331   0.267   6.426   2.806
 7123TIP3   OH221332   2.097   4.393   2.230
 7123TIP3    H121333   2.080   4.462   2.294
 7123TIP3    H221334   2.184   4.414   2.194
 7124TIP3   OH221335   1.062   4.016   5.425
 7124TIP3    H121336   1.108   4.013   5.341
 7124TIP3    H221337   0.978   4.056   5.404
 7125TIP3   OH221338   5.782   1.930   5.329
 7125TIP3    H121339   5.849   1.863   5.343
 7125TIP3    H221340   5.734   1.900   5.251
 7126TIP3   OH221341   2.578   6.045   4.748
 7126TIP3    H121342   2.623   5.977   4.698
 7126TIP3    H221343   2.646   6.109   4.766
 7127TIP3   OH221344   1.603   6.812   2.193
 7127TIP3    H121345   1.674   6.752   2.170
 7127TIP3    H221346   1.584   6.792   2.285
 7128TIP3   OH221347   2.019   0.074   0.726
 7128TIP3    H121348   2.018   0.060   0.820
 7128TIP3    H221349   1.994  -0.011   0.689
 7129TIP3   OH221350   3.164   0.787   1.405
 7129TIP3    H121351   3.083   0.753   1.443
 7129TIP3    H221352   3.138   0.819   1.319
 7130TIP3   OH221353   5.189  -0.016   5.809
 7130TIP3    H121354   5.259  -0.022   5.874
 7130TIP3    H221355   5.199   0.071   5.770
 7131TIP3   OH221356   4.415   2.128   2.841
 7131TIP3    H121357   4.500   2.106   2.805
 7131TIP3    H221358   4.405   2.221   2.826
 7132TIP3   OH221359   1.856   5.557   1.004
 7132TIP3    H121360   1.879   5.465   1.016
 7132TIP3    H221361   1.784   5.572   1.065
 7133TIP3   OH221362   3.420   1.477   4.763
 7133TIP3    H121363   3.465   1.468   4.847
 7133TIP3    H221364   3.426   1.390   4.723
 7134TIP3   OH221365   4.661   1.895   5.325
 7134TIP3    H121366   4.571   1.925   5.339
 7134TIP3    H221367   4.713   1.949   5.385
 7135TIP3   OH221368   3.133   2.451   4.619
 7135TIP3    H121369   3.200   2.445   4.687
 7135TIP3    H221370   3.104   2.542   4.621
 7136TIP3   OH221371   2.797   2.318   1.050
 7136TIP3    H121372   2.767   2.266   0.976
 7136TIP3    H221373   2.717   2.346   1.094
 7137TIP3   OH221374   5.122   1.103   2.350
 7137TIP3    H121375   5.211   1.082   2.322
 7137TIP3    H221376   5.105   1.189   2.312
 7138TIP3   OH221377   0.394   4.325   1.775
 7138TIP3    H121378   0.402   4.358   1.686
 7138TIP3    H221379   0.472   4.356   1.820
 7139TIP3   OH221380   2.398   6.751   1.571
 7139TIP3    H121381   2.396   6.847   1.565
 7139TIP3    H221382   2.438   6.734   1.656
 7140TIP3   OH221383   1.222   6.700   0.185
 7140TIP3    H121384   1.298   6.756   0.173
 7140TIP3    H221385   1.212   6.654   0.102
 7141TIP3   OH221386   4.180   6.038   2.462
 7141TIP3    H121387   4.257   6.090   2.439
 7141TIP3    H221388   4.110   6.102   2.472
 7142TIP3   OH221389   2.516   6.359   1.681
 7142TIP3    H121390   2.573   6.330   1.751
 7142TIP3    H221391   2.562   6.336   1.600
 7143TIP3   OH221392   3.163   6.763   0.930
 7143TIP3    H121393   3.135   6.757   0.839
 7143TIP3    H221394   3.215   6.684   0.945
 7144TIP3   OH221395   6.265   5.221   1.434
 7144TIP3    H121396   6.243   5.130   1.418
 7144TIP3    H221397   6.360   5.226   1.422
 7145TIP3   OH221398   1.635   5.631   1.505
 7145TIP3    H121399   1.547   5.662   1.524
 7145TIP3    H221400   1.645   5.552   1.557
 7146TIP3   OH221401   5.599   4.722   1.442
 7146TIP3    H121402   5.601   4.811   1.478
 7146TIP3    H221403   5.529   4.724   1.377
 7147TIP3   OH221404   4.334   1.498   1.907
 7147TIP3    H121405   4.417   1.486   1.861
 7147TIP3    H221406   4.357   1.500   1.999
 7148TIP3   OH221407   4.425   1.170   1.483
 7148TIP3    H121408   4.352   1.135   1.534
 7148TIP3    H221409   4.492   1.102   1.487
 7149TIP3   OH221410   4.769   2.497   2.229
 7149TIP3    H121411   4.735   2.570   2.280
 7149TIP3    H221412   4.790   2.536   2.144
 7150TIP3   OH221413   6.513   2.642   3.737
 7150TIP3    H121414   6.419   2.658   3.728
 7150TIP3    H221415   6.540   2.697   3.811
 7151TIP3   OH221416   1.269   0.214   0.788
 7151TIP3    H121417   1.204   0.281   0.807
 7151TIP3    H221418   1.312   0.197   0.872
 7152TIP3   OH221419   1.194   1.654   2.481
 7152TIP3    H121420   1.238   1.693   2.405
 7152TIP3    H221421   1.118   1.711   2.497
 7153TIP3   OH221422   1.744   5.411   2.508
 7153TIP3    H121423   1.769   5.346   2.573
 7153TIP3    H221424   1.664   5.450   2.542
 7154TIP3   OH221425   6.577   3.860   3.390
 7154TIP3    H121426   6.661   3.830   3.425
 7154TIP3    H221427   6.592   3.952   3.368
 7155TIP3   OH221428   6.504   1.604   4.317
 7155TIP3    H121429   6.580   1.568   4.271
 7155TIP3    H221430   6.437   1.536   4.310
 7156TIP3   OH221431   3.423   0.381   4.333
 7156TIP3    H121432   3.387   0.464   4.364
 7156TIP3    H221433   3.353   0.317   4.346
 7157TIP3   OH221434   3.670   3.153   3.766
 7157TIP3    H121435   3.592   3.100   3.749
 7157TIP3    H221436   3.679   3.151   3.862
 7158TIP3   OH221437   2.247   2.566   3.577
 7158TIP3    H121438   2.191   2.643   3.584
 7158TIP3    H221439   2.294   2.562   3.660
 7159TIP3   OH221440   4.345   6.663   1.773
 7159TIP3    H121441   4.273   6.708   1.818
 7159TIP3    H221442   4.305   6.626   1.695
 7160TIP3   OH221443   0.640   6.472   3.249
 7160TIP3    H121444   0.594   6.533   3.306
 7160TIP3    H221445   0.684   6.527   3.184
 7161TIP3   OH221446   4.867   6.334   4.073
 7161TIP3    H121447   4.847   6.418   4.115
 7161TIP3    H221448   4.918   6.286   4.138
 7162TIP3   OH221449   5.898   6.478   4.608
 7162TIP3    H121450   5.949   6.399   4.625
 7162TIP3    H221451   5.934   6.544   4.668
 7163TIP3   OH221452   4.307   1.769   1.834
 7163TIP3    H121453   4.323   1.681   1.869
 7163TIP3    H221454   4.215   1.786   1.853
 7164TIP3   OH221455   3.934   4.035   1.083
 7164TIP3    H121456   3.925   3.940   1.077
 7164TIP3    H221457   3.920   4.055   1.176
 7165TIP3   OH221458   1.402   1.194   1.146
 7165TIP3    H121459   1.438   1.106   1.138
 7165TIP3    H221460   1.456   1.248   1.089
 7166TIP3   OH221461   3.221   2.905   5.733
 7166TIP3    H121462   3.248   2.955   5.810
 7166TIP3    H221463   3.126   2.896   5.742
 7167TIP3   OH221464   0.448   0.847   4.244
 7167TIP3    H121465   0.442   0.844   4.148
 7167TIP3    H221466   0.358   0.842   4.274
 7168TIP3   OH221467   5.441   5.456   3.610
 7168TIP3    H121468   5.413   5.365   3.608
 7168TIP3    H221469   5.518   5.457   3.667
 7169TIP3   OH221470   3.251   1.725   0.973
 7169TIP3    H121471   3.333   1.729   1.022
 7169TIP3    H221472   3.277   1.735   0.881
 7170TIP3   OH221473   4.685   3.592   5.015
 7170TIP3    H121474   4.682   3.507   4.971
 7170TIP3    H221475   4.754   3.582   5.081
 7171TIP3   OH221476   5.229   1.885   1.541
 7171TIP3    H121477   5.280   1.838   1.476
 7171TIP3    H221478   5.272   1.866   1.624
 7172TIP3   OH221479   0.010   2.955   5.173
 7172TIP3    H121480   0.067   2.906   5.232
 7172TIP3    H221481   0.025   3.046   5.195
 7173TIP3   OH221482   2.693   0.930   4.930
 7173TIP3    H121483   2.663   1.021   4.921
 7173TIP3    H221484   2.624   0.878   4.889
 7174TIP3   OH221485   0.686   2.513   5.734
 7174TIP3    H121486   0.642   2.553   5.809
 7174TIP3    H221487   0.617   2.467   5.687
 7175TIP3   OH221488   6.269   0.787   4.761
 7175TIP3    H121489   6.228   0.854   4.706
 7175TIP3    H221490   6.311   0.728   4.699
 7176TIP3   OH221491   4.735   0.500   3.333
 7176TIP3    H121492   4.801   0.504   3.263
 7176TIP3    H221493   4.786   0.483   3.412
 7177TIP3   OH221494   6.495   3.114   1.596
 7177TIP3    H121495   6.529   3.071   1.674
 7177TIP3    H221496   6.410   3.150   1.623
 7178TIP3   OH221497   6.699   2.986   4.700
 7178TIP3    H121498   6.736   2.923   4.762
 7178TIP3    H221499   6.762   2.989   4.628
 7179TIP3   OH221500   4.800   6.737   4.972
 7179TIP3    H121501   4.722   6.688   4.998
 7179TIP3    H221502   4.870   6.671   4.970
 7180TIP3   OH221503   2.191   1.255   2.007
 7180TIP3    H121504   2.202   1.345   2.040
 7180TIP3    H221505   2.272   1.238   1.959
 7181TIP3   OH221506   2.342   0.284   3.153
 7181TIP3    H121507   2.381   0.280   3.240
 7181TIP3    H221508   2.276   0.214   3.152
 7182TIP3   OH221509   3.760   4.508   3.753
 7182TIP3    H121510   3.792   4.491   3.842
 7182TIP3    H221511   3.776   4.602   3.740
 7183TIP3   OH221512   2.289   2.276   5.044
 7183TIP3    H121513   2.299   2.357   4.994
 7183TIP3    H221514   2.373   2.231   5.035
 7184TIP3   OH221515   1.715   5.970   4.473
 7184TIP3    H121516   1.757   6.048   4.508
 7184TIP3    H221517   1.647   6.003   4.415
 7185TIP3   OH221518   6.185   3.190   1.965
 7185TIP3    H121519   6.231   3.127   1.910
 7185TIP3    H221520   6.134   3.242   1.903
 7186TIP3   OH221521   4.332   6.425   5.738
 7186TIP3    H121522   4.378   6.434   5.821
 7186TIP3    H221523   4.387   6.471   5.674
 7187TIP3   OH221524   5.178   4.945   2.888
 7187TIP3    H121525   5.084   4.966   2.887
 7187TIP3    H221526   5.191   4.897   2.970
 7188TIP3   OH221527   6.501   3.138   0.273
 7188TIP3    H121528   6.493   3.232   0.288
 7188TIP3    H221529   6.547   3.105   0.350
 7189TIP3   OH221530   3.519   3.269   5.487
 7189TIP3    H121531   3.593   3.331   5.487
 7189TIP3    H221532   3.460   3.304   5.553
 7190TIP3   OH221533   4.614   3.317   0.582
 7190TIP3    H121534   4.525   3.351   0.594
 7190TIP3    H221535   4.647   3.363   0.505
 7191TIP3   OH221536   4.576   6.609   4.179
 7191TIP3    H121537   4.492   6.564   4.180
 7191TIP3    H221538   4.574   6.662   4.100
 7192TIP3   OH221539   3.841   2.177   1.799
 7192TIP3    H121540   3.861   2.084   1.784
 7192TIP3    H221541   3.805   2.208   1.716
 7193TIP3   OH221542   4.664   0.761   0.671
 7193TIP3    H121543   4.580   0.747   0.628
 7193TIP3    H221544   4.666   0.854   0.691
 7194TIP3   OH221545   0.034   3.644   3.481
 7194TIP3    H121546  -0.013   3.566   3.450
 7194TIP3    H221547   0.126   3.626   3.462
 7195TIP3   OH221548   6.800   2.999   3.252
 7195TIP3    H121549   6.846   2.973   3.173
 7195TIP3    H221550   6.747   2.923   3.276
 7196TIP3   OH221551   2.841   0.662   0.143
 7196TIP3    H121552   2.862   0.707   0.224
 7196TIP3    H221553   2.898   0.585   0.142
 7197TIP3   OH221554   6.783   3.426   3.309
 7197TIP3    H121555   6.825   3.467   3.385
 7197TIP3    H221556   6.745   3.345   3.343
 7198TIP3   OH221557   1.280   2.466   4.945
 7198TIP3    H121558   1.280   2.371   4.956
 7198TIP3    H221559   1.367   2.493   4.976
 7199TIP3   OH221560   0.381   1.991   5.770
 7199TIP3    H121561   0.356   1.961   5.683
 7199TIP3    H221562   0.458   1.940   5.793
 7200TIP3   OH221563   5.535   2.468   2.266
 7200TIP3    H121564   5.447   2.434   2.252
 7200TIP3    H221565   5.534   2.555   2.225
 7201TIP3   OH221566  -0.051   0.502   3.450
 7201TIP3    H121567   0.027   0.517   3.503
 7201TIP3    H221568  -0.018   0.491   3.360
 7202TIP3   OH221569   1.986   1.170   3.921
 7202TIP3    H121570   2.025   1.091   3.957
 7202TIP3    H221571   1.893   1.163   3.943
 7203TIP3   OH221572   5.051   0.637   3.221
 7203TIP3    H121573   5.100   0.657   3.141
 7203TIP3    H221574   5.061   0.542   3.232
 7204TIP3   OH221575   3.620   6.414   5.757
 7204TIP3    H121576   3.606   6.372   5.842
 7204TIP3    H221577   3.637   6.506   5.778
 7205TIP3   OH221578   5.818   6.061   2.680
 7205TIP3    H121579   5.849   5.981   2.637
 7205TIP3    H221580   5.747   6.031   2.737
 7206TIP3   OH221581   6.742   0.838   3.068
 7206TIP3    H121582   6.777   0.839   2.979
 7206TIP3    H221583   6.697   0.922   3.078
 7207TIP3   OH221584   5.241   2.243   1.532
 7207TIP3    H121585   5.275   2.175   1.589
 7207TIP3    H221586   5.148   2.225   1.524
 7208TIP3   OH221587   2.182   6.731   3.043
 7208TIP3    H121588   2.112   6.770   3.096
 7208TIP3    H221589   2.209   6.801   2.984
 7209TIP3   OH221590   3.791   5.349   2.903
 7209TIP3    H121591   3.852   5.283   2.871
 7209TIP3    H221592   3.846   5.417   2.940
 7210TIP3   OH221593   5.615   1.155   4.024
 7210TIP3    H121594   5.595   1.088   4.089
 7210TIP3    H221595   5.572   1.234   4.056
 7211TIP3   OH221596   3.497   2.572   4.245
 7211TIP3    H121597   3.536   2.496   4.288
 7211TIP3    H221598   3.403   2.566   4.266
 7212TIP3   OH221599   4.099   1.695   4.551
 7212TIP3    H121600   4.048   1.615   4.559
 7212TIP3    H221601   4.056   1.757   4.610
 7213TIP3   OH221602   2.461   1.948   4.063
 7213TIP3    H121603   2.378   1.983   4.030
 7213TIP3    H221604   2.460   1.969   4.156
 7214TIP3   OH221605   3.871   0.951   1.297
 7214TIP3    H121606   3.927   0.907   1.361
 7214TIP3    H221607   3.825   1.018   1.346
 7215TIP3   OH221608   6.649   3.951   2.256
 7215TIP3    H121609   6.555   3.940   2.264
 7215TIP3    H221610   6.660   4.033   2.209
 7216TIP3   OH221611   1.580   2.903   0.560
 7216TIP3    H121612   1.610   2.952   0.483
 7216TIP3    H221613   1.592   2.963   0.633
 7217TIP3   OH221614   4.180   2.685   2.079
 7217TIP3    H121615   4.243   2.727   2.021
 7217TIP3    H221616   4.103   2.669   2.025
 7218TIP3   OH221617   1.556   4.500   2.623
 7218TIP3    H121618   1.538   4.493   2.529
 7218TIP3    H221619   1.472   4.528   2.661
 7219TIP3   OH221620   5.861   4.599   1.452
 7219TIP3    H121621   5.815   4.516   1.443
 7219TIP3    H221622   5.798   4.665   1.425
 7220TIP3   OH221623   3.280   5.246   2.625
 7220TIP3    H121624   3.314   5.335   2.632
 7220TIP3    H221625   3.236   5.229   2.708
 7221TIP3   OH221626   1.396   0.549   5.224
 7221TIP3    H121627   1.464   0.483   5.217
 7221TIP3    H221628   1.414   0.610   5.153
 7222TIP3   OH221629   5.642   2.550   1.122
 7222TIP3    H121630   5.608   2.499   1.048
 7222TIP3    H221631   5.680   2.484   1.181
 7223TIP3   OH221632   4.364   2.816   4.367
 7223TIP3    H121633   4.351   2.881   4.298
 7223TIP3    H221634   4.277   2.804   4.405
 7224TIP3   OH221635   2.091   1.762   5.246
 7224TIP3    H121636   2.036   1.773   5.323
 7224TIP3    H221637   2.118   1.850   5.223
 7225TIP3   OH221638   7.003   3.136   2.971
 7225TIP3    H121639   6.913   3.162   2.990
 7225TIP3    H221640   7.056   3.194   3.025
 7226TIP3   OH221641   5.652   5.926   1.916
 7226TIP3    H121642   5.608   5.901   1.835
 7226TIP3    H221643   5.698   5.847   1.944
 7227TIP3   OH221644   3.860   2.565   1.184
 7227TIP3    H121645   3.910   2.514   1.249
 7227TIP3    H221646   3.775   2.522   1.180
 7228TIP3   OH221647   0.921   4.522   3.508
 7228TIP3    H121648   0.994   4.545   3.450
 7228TIP3    H221649   0.897   4.604   3.550
 7229TIP3   OH221650   5.644   4.024   4.905
 7229TIP3    H121651   5.615   4.066   4.824
 7229TIP3    H221652   5.576   4.044   4.969
 7230TIP3   OH221653   6.790   2.903   4.271
 7230TIP3    H121654   6.821   2.930   4.358
 7230TIP3    H221655   6.826   2.815   4.259
 7231TIP3   OH221656   4.284   3.625   2.901
 7231TIP3    H121657   4.371   3.590   2.922
 7231TIP3    H221658   4.233   3.611   2.981
 7232TIP3   OH221659   5.259   2.170   4.751
 7232TIP3    H121660   5.297   2.140   4.833
 7232TIP3    H221661   5.306   2.251   4.731
 7233TIP3   OH221662   1.228   4.417   1.174
 7233TIP3    H121663   1.178   4.356   1.120
 7233TIP3    H221664   1.173   4.432   1.250
 7234TIP3   OH221665   0.116   6.134   5.132
 7234TIP3    H121666   0.197   6.178   5.108
 7234TIP3    H221667   0.052   6.164   5.068
 7235TIP3   OH221668   3.883   4.555   1.861
 7235TIP3    H121669   3.847   4.640   1.888
 7235TIP3    H221670   3.907   4.567   1.770
 7236TIP3   OH221671   3.523   1.151   0.382
 7236TIP3    H121672   3.592   1.117   0.439
 7236TIP3    H221673   3.447   1.097   0.401
 7237TIP3   OH221674   6.798   6.090   1.463
 7237TIP3    H121675   6.769   6.041   1.540
 7237TIP3    H221676   6.744   6.169   1.463
 7238TIP3   OH221677   2.253   4.134   2.541
 7238TIP3    H121678   2.178   4.093   2.497
 7238TIP3    H221679   2.239   4.228   2.529
 7239TIP3   OH221680   3.349   1.699   5.383
 7239TIP3    H121681   3.429   1.669   5.339
 7239TIP3    H221682   3.320   1.774   5.331
 7240TIP3   OH221683   3.701   3.048   5.309
 7240TIP3    H121684   3.757   3.114   5.351
 7240TIP3    H221685   3.762   2.987   5.269
 7241TIP3   OH221686   6.093   5.264   2.540
 7241TIP3    H121687   6.108   5.200   2.470
 7241TIP3    H221688   6.036   5.219   2.602
 7242TIP3   OH221689   6.638   3.147   5.447
 7242TIP3    H121690   6.667   3.180   5.532
 7242TIP3    H221691   6.718   3.121   5.402
 7243TIP3   OH221692   4.579   2.113  -0.018
 7243TIP3    H121693   4.628   2.195  -0.011
 7243TIP3    H221694   4.527   2.109   0.061
 7244TIP3   OH221695   2.024   4.653   3.017
 7244TIP3    H121696   1.937   4.654   3.056
 7244TIP3    H221697   2.046   4.745   3.002
 7245TIP3   OH221698   0.244   2.154   4.218
 7245TIP3    H121699   0.298   2.130   4.142
 7245TIP3    H221700   0.255   2.082   4.280
 7246TIP3   OH221701   7.172   1.131   0.685
 7246TIP3    H121702   7.248   1.102   0.634
 7246TIP3    H221703   7.115   1.054   0.689
 7247TIP3   OH221704   1.695   0.424   2.886
 7247TIP3    H121705   1.698   0.372   2.805
 7247TIP3    H221706   1.606   0.413   2.918
 7248TIP3   OH221707   3.538   6.567   4.602
 7248TIP3    H121708   3.626   6.560   4.638
 7248TIP3    H221709   3.541   6.519   4.520
 7249TIP3   OH221710   1.266   4.468   5.340
 7249TIP3    H121711   1.301   4.393   5.388
 7249TIP3    H221712   1.236   4.432   5.257
 7250TIP3   OH221713   5.736   2.887   1.714
 7250TIP3    H121714   5.731   2.885   1.810
 7250TIP3    H221715   5.674   2.820   1.686
 7251TIP3   OH221716   6.232   2.129   1.584
 7251TIP3    H121717   6.138   2.130   1.568
 7251TIP3    H221718   6.244   2.066   1.656
 7252TIP3   OH221719   5.332   6.055   1.654
 7252TIP3    H121720   5.362   5.965   1.646
 7252TIP3    H221721   5.245   6.048   1.693
 7253TIP3   OH221722   1.580   0.366   4.422
 7253TIP3    H121723   1.645   0.394   4.357
 7253TIP3    H221724   1.552   0.447   4.464
 7254TIP3   OH221725   1.503   4.176   2.129
 7254TIP3    H121726   1.597   4.181   2.109
 7254TIP3    H221727   1.472   4.101   2.079
 7255TIP3   OH221728   0.650   3.108   0.075
 7255TIP3    H121729   0.709   3.054   0.023
 7255TIP3    H221730   0.675   3.198   0.056
 7256TIP3   OH221731   6.102   6.729   4.245
 7256TIP3    H121732   6.097   6.643   4.203
 7256TIP3    H221733   6.035   6.727   4.313
 7257TIP3   OH221734   5.538   5.172   3.664
 7257TIP3    H121735   5.526   5.127   3.580
 7257TIP3    H221736   5.627   5.150   3.690
 7258TIP3   OH221737   1.215   5.674   1.453
 7258TIP3    H121738   1.219   5.585   1.486
 7258TIP3    H221739   1.282   5.722   1.501
 7259TIP3   OH221740   6.687   5.344   0.298
 7259TIP3    H121741   6.773   5.386   0.301
 7259TIP3    H221742   6.697   5.265   0.350
 7260TIP3   OH221743   5.129   2.477   4.055
 7260TIP3    H121744   5.222   2.471   4.031
 7260TIP3    H221745   5.082   2.456   3.975
 7261TIP3   OH221746   1.057   0.717   0.037
 7261TIP3    H121747   1.102   0.801   0.046
 7261TIP3    H221748   1.026   0.697   0.125
 7262TIP3   OH221749   5.665   3.601   1.229
 7262TIP3    H121750   5.707   3.583   1.145
 7262TIP3    H221751   5.634   3.515   1.259
 7263TIP3   OH221752   6.641   5.151   5.131
 7263TIP3    H121753   6.564   5.109   5.168
 7263TIP3    H221754   6.606   5.225   5.080
 7264TIP3   OH221755   0.592   2.437   0.703
 7264TIP3    H121756   0.567   2.417   0.612
 7264TIP3    H221757   0.687   2.446   0.700
 7265TIP3   OH221758   5.229   0.331   0.902
 7265TIP3    H121759   5.295   0.266   0.926
 7265TIP3    H221760   5.161   0.281   0.858
 7266TIP3   OH221761   3.831   0.640   1.496
 7266TIP3    H121762   3.818   0.554   1.535
 7266TIP3    H221763   3.926   0.649   1.490
 7267TIP3   OH221764   1.373   5.732   0.761
 7267TIP3    H121765   1.350   5.733   0.668
 7267TIP3    H221766   1.296   5.697   0.805
 7268TIP3   OH221767   0.715   6.684   3.085
 7268TIP3    H121768   0.788   6.664   3.027
 7268TIP3    H221769   0.656   6.738   3.032
 7269TIP3   OH221770   6.440   1.234   5.159
 7269TIP3    H121771   6.499   1.275   5.222
 7269TIP3    H221772   6.359   1.221   5.208
 7270TIP3   OH221773   3.908   4.004   5.688
 7270TIP3    H121774   3.970   3.964   5.628
 7270TIP3    H221775   3.962   4.063   5.741
 7271TIP3   OH221776   0.896   6.576   2.904
 7271TIP3    H121777   0.953   6.511   2.945
 7271TIP3    H221778   0.835   6.525   2.850
 7272TIP3   OH221779   4.453   3.321   4.248
 7272TIP3    H121780   4.522   3.347   4.309
 7272TIP3    H221781   4.402   3.401   4.234
 7273TIP3   OH221782   5.411   2.634   4.257
 7273TIP3    H121783   5.341   2.618   4.320
 7273TIP3    H221784   5.368   2.636   4.172
 7274TIP3   OH221785   3.346   4.497   5.444
 7274TIP3    H121786   3.392   4.519   5.526
 7274TIP3    H221787   3.350   4.401   5.439
 7275TIP3   OH221788   2.993   0.465   1.100
 7275TIP3    H121789   2.953   0.522   1.034
 7275TIP3    H221790   3.073   0.432   1.058
 7276TIP3   OH221791   1.127   3.079   0.458
 7276TIP3    H121792   1.133   3.060   0.364
 7276TIP3    H221793   1.173   3.163   0.468
 7277TIP3   OH221794   2.167   5.390   1.769
 7277TIP3    H121795   2.204   5.348   1.690
 7277TIP3    H221796   2.085   5.428   1.740
 7278TIP3   OH221797   4.888   0.176   0.568
 7278TIP3    H121798   4.977   0.199   0.540
 7278TIP3    H221799   4.857   0.114   0.501
 7279TIP3   OH221800   2.119   4.045   1.170
 7279TIP3    H121801   2.053   4.081   1.111
 7279TIP3    H221802   2.104   4.090   1.253
 7280TIP3   OH221803   5.901   1.372   2.818
 7280TIP3    H121804   5.891   1.323   2.900
 7280TIP3    H221805   5.842   1.447   2.828
 7281TIP3   OH221806   6.695   0.384   4.363
 7281TIP3    H121807   6.666   0.299   4.330
 7281TIP3    H221808   6.623   0.444   4.341
 7282TIP3   OH221809   4.019   1.757   0.805
 7282TIP3    H121810   4.052   1.770   0.894
 7282TIP3    H221811   4.027   1.843   0.763
 7283TIP3   OH221812   3.659   4.212   1.515
 7283TIP3    H121813   3.691   4.283   1.570
 7283TIP3    H221814   3.569   4.236   1.495
 7284TIP3   OH221815   0.335   3.683   0.033
 7284TIP3    H121816   0.283   3.610   0.065
 7284TIP3    H221817   0.355   3.735   0.111
 7285TIP3   OH221818   4.871   4.284   5.514
 7285TIP3    H121819   4.886   4.366   5.465
 7285TIP3    H221820   4.943   4.227   5.487
 7286TIP3   OH221821   1.966   2.188   1.689
 7286TIP3    H121822   1.958   2.259   1.752
 7286TIP3    H221823   1.921   2.114   1.730
 7287TIP3   OH221824   6.866   0.835   5.555
 7287TIP3    H121825   6.873   0.828   5.460
 7287TIP3    H221826   6.801   0.768   5.580
 7288TIP3   OH221827   3.735   4.319   3.970
 7288TIP3    H121828   3.662   4.281   3.922
 7288TIP3    H221829   3.811   4.306   3.914
 7289TIP3   OH221830   5.752   1.448   3.888
 7289TIP3    H121831   5.820   1.469   3.824
 7289TIP3    H221832   5.794   1.387   3.948
 7290TIP3   OH221833   5.813   0.285   4.549
 7290TIP3    H121834   5.883   0.222   4.560
 7290TIP3    H221835   5.857   0.370   4.544
 7291TIP3   OH221836   1.923   4.751   1.779
 7291TIP3    H121837   1.840   4.736   1.733
 7291TIP3    H221838   1.910   4.712   1.865
 7292TIP3   OH221839   3.779   1.172   2.842
 7292TIP3    H121840   3.799   1.248   2.787
 7292TIP3    H221841   3.788   1.204   2.931
 7293TIP3   OH221842   3.681   2.923   3.120
 7293TIP3    H121843   3.744   2.988   3.151
 7293TIP3    H221844   3.725   2.878   3.048
 7294TIP3   OH221845   6.262   1.385   0.936
 7294TIP3    H121846   6.352   1.393   0.904
 7294TIP3    H221847   6.209   1.380   0.857
 7295TIP3   OH221848   4.768   3.648   2.056
 7295TIP3    H121849   4.763   3.580   1.989
 7295TIP3    H221850   4.710   3.717   2.024
 7296TIP3   OH221851   1.397   3.946   1.030
 7296TIP3    H121852   1.366   3.892   1.102
 7296TIP3    H221853   1.454   3.889   0.979
 7297TIP3   OH221854   0.332   5.325   3.675
 7297TIP3    H121855   0.426   5.346   3.674
 7297TIP3    H221856   0.327   5.233   3.649
 7298TIP3   OH221857   2.453   4.454   4.770
 7298TIP3    H121858   2.456   4.427   4.861
 7298TIP3    H221859   2.456   4.549   4.772
 7299TIP3   OH221860   6.730   5.617   2.745
 7299TIP3    H121861   6.720   5.704   2.783
 7299TIP3    H221862   6.694   5.625   2.656
 7300TIP3   OH221863   1.246   3.541   2.234
 7300TIP3    H121864   1.161   3.497   2.232
 7300TIP3    H221865   1.295   3.493   2.301
 7301TIP3   OH221866   5.185   4.603   4.375
 7301TIP3    H121867   5.261   4.544   4.378
 7301TIP3    H221868   5.181   4.639   4.464
 7302TIP3   OH221869   0.621   4.016   3.669
 7302TIP3    H121870   0.577   3.959   3.607
 7302TIP3    H221871   0.592   3.986   3.755
 7303TIP3   OH221872   6.517   5.804   0.240
 7303TIP3    H121873   6.489   5.868   0.306
 7303TIP3    H221874   6.611   5.818   0.230
 7304TIP3   OH221875   6.610   0.165   4.742
 7304TIP3    H121876   6.679   0.230   4.731
 7304TIP3    H221877   6.532   0.207   4.706
 7305TIP3   OH221878   0.986   5.354   1.540
 7305TIP3    H121879   0.968   5.404   1.620
 7305TIP3    H221880   0.923   5.388   1.477
 7306TIP3   OH221881   3.453   0.592   0.849
 7306TIP3    H121882   3.468   0.499   0.838
 7306TIP3    H221883   3.496   0.614   0.932
 7307TIP3   OH221884   4.140   0.601   0.109
 7307TIP3    H121885   4.094   0.631   0.031
 7307TIP3    H221886   4.222   0.565   0.077
 7308TIP3   OH221887   5.573   6.209   2.620
 7308TIP3    H121888   5.535   6.191   2.706
 7308TIP3    H221889   5.665   6.186   2.629
 7309TIP3   OH221890   3.472   4.220   3.842
 7309TIP3    H121891   3.390   4.267   3.828
 7309TIP3    H221892   3.503   4.199   3.754
 7310TIP3   OH221893   5.068   0.304   2.631
 7310TIP3    H121894   5.155   0.343   2.644
 7310TIP3    H221895   5.062   0.237   2.699
 7311TIP3   OH221896   4.265   4.894   5.452
 7311TIP3    H121897   4.219   4.848   5.381
 7311TIP3    H221898   4.356   4.867   5.443
 7312TIP3   OH221899   3.713   0.022   2.413
 7312TIP3    H121900   3.674   0.078   2.480
 7312TIP3    H221901   3.645  -0.044   2.396
 7313TIP3   OH221902   0.429   3.117   4.529
 7313TIP3    H121903   0.411   3.151   4.442
 7313TIP3    H221904   0.523   3.101   4.530
 7314TIP3   OH221905   2.803   2.530   0.461
 7314TIP3    H121906   2.725   2.504   0.413
 7314TIP3    H221907   2.872   2.532   0.395
 7315TIP3   OH221908   1.161   4.188   2.712
 7315TIP3    H121909   1.154   4.115   2.650
 7315TIP3    H221910   1.240   4.168   2.763
 7316TIP3   OH221911   6.663   5.636   0.839
 7316TIP3    H121912   6.732   5.623   0.774
 7316TIP3    H221913   6.710   5.661   0.919
 7317TIP3   OH221914   4.897   5.767   5.245
 7317TIP3    H121915   4.942   5.842   5.285
 7317TIP3    H221916   4.825   5.748   5.304
 7318TIP3   OH221917   1.252   6.627   5.811
 7318TIP3    H121918   1.335   6.669   5.831
 7318TIP3    H221919   1.266   6.584   5.727
 7319TIP3   OH221920   4.058   1.078   5.111
 7319TIP3    H121921   4.077   1.105   5.201
 7319TIP3    H221922   4.125   1.122   5.058
 7320TIP3   OH221923   6.908   0.756   2.437
 7320TIP3    H121924   6.990   0.730   2.479
 7320TIP3    H221925   6.900   0.698   2.362
 7321TIP3   OH221926   4.224   3.826   5.166
 7321TIP3    H121927   4.309   3.805   5.126
 7321TIP3    H221928   4.189   3.898   5.113
 7322TIP3   OH221929   0.740   5.203   4.029
 7322TIP3    H121930   0.656   5.189   3.985
 7322TIP3    H221931   0.802   5.152   3.977
 7323TIP3   OH221932   0.308   1.410   2.532
 7323TIP3    H121933   0.349   1.327   2.510
 7323TIP3    H221934   0.356   1.475   2.481
 7324TIP3   OH221935   6.807   6.433   4.907
 7324TIP3    H121936   6.845   6.371   4.969
 7324TIP3    H221937   6.726   6.391   4.878
 7325TIP3   OH221938   0.500   0.088   4.689
 7325TIP3    H121939   0.405   0.084   4.680
 7325TIP3    H221940   0.525   0.169   4.644
 7326TIP3   OH221941   3.589   3.827   4.024
 7326TIP3    H121942   3.626   3.905   4.066
 7326TIP3    H221943   3.576   3.766   4.096
 7327TIP3   OH221944   5.421   3.132   4.542
 7327TIP3    H121945   5.476   3.209   4.554
 7327TIP3    H221946   5.457   3.087   4.466
 7328TIP3   OH221947   5.789   3.046   0.892
 7328TIP3    H121948   5.758   2.968   0.847
 7328TIP3    H221949   5.853   3.084   0.832
 7329TIP3   OH221950   1.708   1.697   1.456
 7329TIP3    H121951   1.750   1.613   1.436
 7329TIP3    H221952   1.774   1.747   1.504
 7330TIP3   OH221953   3.925   6.496   2.325
 7330TIP3    H121954   3.872   6.571   2.300
 7330TIP3    H221955   3.958   6.518   2.412
 7331TIP3   OH221956   0.788   1.239   5.273
 7331TIP3    H121957   0.693   1.250   5.283
 7331TIP3    H221958   0.801   1.234   5.179
 7332TIP3   OH221959   1.007   5.495   0.156
 7332TIP3    H121960   0.916   5.486   0.126
 7332TIP3    H221961   1.057   5.512   0.077
 7333TIP3   OH221962   5.123   5.762   5.467
 7333TIP3    H121963   5.115   5.845   5.514
 7333TIP3    H221964   5.062   5.770   5.394
 7334TIP3   OH221965   5.257   2.303   0.868
 7334TIP3    H121966   5.232   2.390   0.836
 7334TIP3    H221967   5.289   2.319   0.957
 7335TIP3   OH221968   6.262   3.839   4.988
 7335TIP3    H121969   6.272   3.761   4.934
 7335TIP3    H221970   6.168   3.844   5.006
 7336TIP3   OH221971   1.627   5.842   1.280
 7336TIP3    H121972   1.575   5.788   1.221
 7336TIP3    H221973   1.586   5.831   1.366
 7337TIP3   OH221974   0.207   1.831   4.274
 7337TIP3    H121975   0.112   1.820   4.284
 7337TIP3    H221976   0.235   1.871   4.356
 7338TIP3   OH221977   6.863   4.946   3.307
 7338TIP3    H121978   6.794   4.987   3.359
 7338TIP3    H221979   6.820   4.870   3.268
 7339TIP3   OH221980   5.452   4.038   5.085
 7339TIP3    H121981   5.428   4.130   5.093
 7339TIP3    H221982   5.390   3.991   5.140
 7340TIP3   OH221983   1.762   1.618   4.269
 7340TIP3    H121984   1.699   1.548   4.287
 7340TIP3    H221985   1.814   1.584   4.196
 7341TIP3   OH221986   4.870   4.607   2.173
 7341TIP3    H121987   4.858   4.667   2.099
 7341TIP3    H221988   4.936   4.545   2.143
 7342TIP3   OH221989   6.204   5.165   2.268
 7342TIP3    H121990   6.199   5.081   2.222
 7342TIP3    H221991   6.295   5.193   2.258
 7343TIP3   OH221992   6.825   6.607   1.011
 7343TIP3    H121993   6.862   6.526   0.975
 7343TIP3    H221994   6.782   6.581   1.092
 7344TIP3   OH221995   0.653   0.075   2.506
 7344TIP3    H121996   0.737   0.057   2.550
 7344TIP3    H221997   0.671   0.063   2.413
 7345TIP3   OH221998   5.160   5.638   0.912
 7345TIP3    H121999   5.141   5.652   1.005
 7345TIP3    H222000   5.248   5.601   0.912
 7346TIP3   OH222001   4.102   4.512   5.318
 7346TIP3    H122002   4.021   4.485   5.274
 7346TIP3    H222003   4.074   4.581   5.378
 7347TIP3   OH222004   4.625   0.479   5.795
 7347TIP3    H122005   4.582   0.477   5.881
 7347TIP3    H222006   4.690   0.549   5.803
 7348TIP3   OH222007   1.171   6.078   2.948
 7348TIP3    H122008   1.101   6.136   2.919
 7348TIP3    H222009   1.167   6.080   3.044
 7349TIP3   OH222010   1.101   1.487   3.207
 7349TIP3    H122011   1.058   1.544   3.143
 7349TIP3    H222012   1.040   1.481   3.280
 7350TIP3   OH222013   3.402   3.305   1.014
 7350TIP3    H122014   3.373   3.395   1.000
 7350TIP3    H222015   3.497   3.308   1.004
 7351TIP3   OH222016   4.771   4.286   1.344
 7351TIP3    H122017   4.855   4.245   1.364
 7351TIP3    H222018   4.780   4.376   1.376
 7352TIP3   OH222019   2.503   4.686   3.466
 7352TIP3    H122020   2.491   4.592   3.481
 7352TIP3    H222021   2.581   4.709   3.515
 7353TIP3   OH222022   0.492   0.643   1.131
 7353TIP3    H122023   0.570   0.588   1.137
 7353TIP3    H222024   0.461   0.649   1.221
 7354TIP3   OH222025   6.545   1.163   3.472
 7354TIP3    H122026   6.626   1.213   3.462
 7354TIP3    H222027   6.567   1.095   3.535
 7355TIP3   OH222028   3.018   3.630   0.702
 7355TIP3    H122029   3.049   3.720   0.693
 7355TIP3    H222030   2.948   3.636   0.768
 7356TIP3   OH222031   3.805   6.037   1.337
 7356TIP3    H122032   3.782   5.945   1.320
 7356TIP3    H222033   3.802   6.045   1.433
 7357TIP3   OH222034   6.380   0.141   2.653
 7357TIP3    H122035   6.329   0.066   2.684
 7357TIP3    H222036   6.462   0.136   2.702
 7358TIP3   OH222037   5.346   4.944   5.797
 7358TIP3    H122038   5.393   4.881   5.851
 7358TIP3    H222039   5.379   4.929   5.708
 7359TIP3   OH222040   6.927   0.077   1.342
 7359TIP3    H122041   6.941   0.112   1.431
 7359TIP3    H222042   6.881   0.148   1.296
 7360TIP3   OH222043   0.274   1.028   2.372
 7360TIP3    H122044   0.188   1.030   2.412
 7360TIP3    H222045   0.334   1.053   2.442
 7361TIP3   OH222046   0.373   3.355   1.237
 7361TIP3    H122047   0.460   3.316   1.235
 7361TIP3    H222048   0.367   3.397   1.324
 7362TIP3   OH222049   3.281   1.703   0.715
 7362TIP3    H122050   3.190   1.693   0.687
 7362TIP3    H222051   3.333   1.678   0.638
 7363TIP3   OH222052   1.437   1.713   0.104
 7363TIP3    H122053   1.405   1.697   0.016
 7363TIP3    H222054   1.464   1.805   0.104
 7364TIP3   OH222055   3.872   3.482   0.725
 7364TIP3    H122056   3.856   3.388   0.735
 7364TIP3    H222057   3.911   3.508   0.809
 7365TIP3   OH222058   2.261   4.969   4.007
 7365TIP3    H122059   2.289   4.903   4.071
 7365TIP3    H222060   2.336   5.028   4.000
 7366TIP3   OH222061   5.951   6.337   0.265
 7366TIP3    H122062   5.930   6.282   0.189
 7366TIP3    H222063   5.915   6.423   0.243
 7367TIP3   OH222064   0.968   2.908   2.257
 7367TIP3    H122065   0.990   2.821   2.288
 7367TIP3    H222066   1.047   2.960   2.273
 7368TIP3   OH222067   3.976   5.503   1.676
 7368TIP3    H122068   4.033   5.457   1.737
 7368TIP3    H222069   3.936   5.433   1.624
 7369TIP3   OH222070   2.047   1.484   1.384
 7369TIP3    H122071   2.010   1.553   1.328
 7369TIP3    H222072   2.139   1.481   1.359
 7370TIP3   OH222073   2.181   3.598   1.613
 7370TIP3    H122074   2.164   3.667   1.549
 7370TIP3    H222075   2.142   3.631   1.694
 7371TIP3   OH222076   5.920   2.430   5.863
 7371TIP3    H122077   5.844   2.373   5.870
 7371TIP3    H222078   5.955   2.412   5.775
 7372TIP3   OH222079   1.174   6.813   4.198
 7372TIP3    H122080   1.170   6.780   4.288
 7372TIP3    H222081   1.148   6.738   4.144
 7373TIP3   OH222082   5.320   4.947   4.877
 7373TIP3    H122083   5.388   4.931   4.944
 7373TIP3    H222084   5.248   4.987   4.926
 7374TIP3   OH222085   1.072   2.172   0.304
 7374TIP3    H122086   1.051   2.080   0.315
 7374TIP3    H222087   1.167   2.176   0.308
 7375TIP3   OH222088   5.697   5.318   5.218
 7375TIP3    H122089   5.720   5.292   5.307
 7375TIP3    H222090   5.777   5.353   5.181
 7376TIP3   OH222091   2.882   5.987   5.081
 7376TIP3    H122092   2.950   5.930   5.045
 7376TIP3    H222093   2.922   6.029   5.157
 7377TIP3   OH222094   0.364   0.417   0.640
 7377TIP3    H122095   0.394   0.338   0.684
 7377TIP3    H222096   0.442   0.451   0.597
 7378TIP3   OH222097   7.103   5.828   1.516
 7378TIP3    H122098   7.087   5.898   1.579
 7378TIP3    H222099   7.019   5.783   1.510
 7379TIP3   OH222100   2.944   2.246   0.495
 7379TIP3    H122101   2.910   2.205   0.575
 7379TIP3    H222102   2.866   2.260   0.441
 7380TIP3   OH222103   1.745   2.588   0.098
 7380TIP3    H122104   1.791   2.580   0.182
 7380TIP3    H222105   1.797   2.538   0.037
 7381TIP3   OH222106   5.615   0.200   2.676
 7381TIP3    H122107   5.614   0.226   2.768
 7381TIP3    H222108   5.560   0.122   2.673
 7382TIP3   OH222109   4.754   2.250   1.377
 7382TIP3    H122110   4.789   2.242   1.288
 7382TIP3    H222111   4.663   2.221   1.370
 7383TIP3   OH222112   2.263   6.434   5.760
 7383TIP3    H122113   2.267   6.530   5.763
 7383TIP3    H222114   2.296   6.411   5.673
 7384TIP3   OH222115   7.158   5.530   2.226
 7384TIP3    H122116   7.210   5.560   2.300
 7384TIP3    H222117   7.137   5.610   2.177
 7385TIP3   OH222118   6.272   4.530   5.067
 7385TIP3    H122119   6.281   4.547   4.973
 7385TIP3    H222120   6.318   4.603   5.109
 7386TIP3   OH222121   2.311   3.655   4.742
 7386TIP3    H122122   2.349   3.676   4.828
 7386TIP3    H222123   2.322   3.735   4.691
 7387TIP3   OH222124   6.167   5.841   0.409
 7387TIP3    H122125   6.202   5.900   0.342
 7387TIP3    H222126   6.218   5.860   0.487
 7388TIP3   OH222127   0.121   3.371   5.815
 7388TIP3    H122128   0.064   3.294   5.817
 7388TIP3    H222129   0.199   3.344   5.863
 7389TIP3   OH222130   3.731   4.091   0.646
 7389TIP3    H122131   3.657   4.041   0.610
 7389TIP3    H222132   3.783   4.025   0.693
 7390TIP3   OH222133   2.481   3.471   3.609
 7390TIP3    H122134   2.448   3.390   3.571
 7390TIP3    H222135   2.402   3.520   3.633
 7391TIP3   OH222136   5.640   4.220   5.345
 7391TIP3    H122137   5.646   4.256   5.433
 7391TIP3    H222138   5.685   4.284   5.289
 7392TIP3   OH222139   4.245   4.216   5.438
 7392TIP3    H122140   4.288   4.144   5.391
 7392TIP3    H222141   4.177   4.247   5.377
 7393TIP3   OH222142   3.141   0.725   5.557
 7393TIP3    H122143   3.117   0.746   5.467
 7393TIP3    H222144   3.117   0.633   5.568
 7394TIP3   OH222145   0.348   5.595   3.220
 7394TIP3    H122146   0.299   5.569   3.142
 7394TIP3    H222147   0.291   5.569   3.293
 7395TIP3   OH222148   6.395   3.575   2.378
 7395TIP3    H122149   6.423   3.643   2.438
 7395TIP3    H222150   6.318   3.611   2.334
 7396TIP3   OH222151   1.182   5.770   4.024
 7396TIP3    H122152   1.208   5.716   4.100
 7396TIP3    H222153   1.263   5.782   3.975
 7397TIP3   OH222154   2.088   4.496   4.269
 7397TIP3    H122155   2.181   4.475   4.264
 7397TIP3    H222156   2.056   4.490   4.179
 7398TIP3   OH222157   0.191   2.732   2.209
 7398TIP3    H122158   0.252   2.803   2.230
 7398TIP3    H222159   0.175   2.688   2.292
 7399TIP3   OH222160   6.459   3.354   1.096
 7399TIP3    H122161   6.406   3.429   1.122
 7399TIP3    H222162   6.548   3.376   1.125
 7400TIP3   OH222163   6.709   4.605   3.463
 7400TIP3    H122164   6.773   4.535   3.476
 7400TIP3    H222165   6.722   4.663   3.538
 7401TIP3   OH222166   2.837   5.855   3.500
 7401TIP3    H122167   2.850   5.923   3.567
 7401TIP3    H222168   2.860   5.774   3.544
 7402TIP3   OH222169   4.622   0.928   0.052
 7402TIP3    H122170   4.695   0.879   0.014
 7402TIP3    H222171   4.612   0.892   0.140
 7403TIP3   OH222172   5.779   3.279   4.781
 7403TIP3    H122173   5.820   3.221   4.717
 7403TIP3    H222174   5.727   3.222   4.836
 7404TIP3   OH222175   4.764   6.483   3.370
 7404TIP3    H122176   4.794   6.392   3.368
 7404TIP3    H222177   4.838   6.533   3.336
 7405TIP3   OH222178   1.603   5.224   2.681
 7405TIP3    H122179   1.648   5.195   2.761
 7405TIP3    H222180   1.615   5.152   2.619
 7406TIP3   OH222181   2.067   3.358   2.000
 7406TIP3    H122182   2.118   3.334   2.077
 7406TIP3    H222183   2.130   3.397   1.940
 7407TIP3   OH222184   6.319   3.532   5.527
 7407TIP3    H122185   6.226   3.514   5.512
 7407TIP3    H222186   6.362   3.447   5.513
 7408TIP3   OH222187   5.017   1.224   5.494
 7408TIP3    H122188   5.043   1.293   5.556
 7408TIP3    H222189   5.055   1.144   5.530
 7409TIP3   OH222190   2.741   4.382   5.261
 7409TIP3    H122191   2.722   4.322   5.333
 7409TIP3    H222192   2.789   4.454   5.301
 7410TIP3   OH222193   6.569   3.602   1.615
 7410TIP3    H122194   6.583   3.524   1.669
 7410TIP3    H222195   6.476   3.622   1.624
 7411TIP3   OH222196   2.028   6.637   4.637
 7411TIP3    H122197   2.068   6.724   4.648
 7411TIP3    H222198   2.087   6.578   4.683
 7412TIP3   OH222199   1.805   6.341   1.974
 7412TIP3    H122200   1.811   6.338   2.070
 7412TIP3    H222201   1.866   6.410   1.949
 7413TIP3   OH222202   4.189   6.023   5.316
 7413TIP3    H122203   4.149   6.095   5.365
 7413TIP3    H222204   4.268   6.001   5.365
 7414TIP3   OH222205   3.294   5.631   5.126
 7414TIP3    H122206   3.325   5.560   5.183
 7414TIP3    H222207   3.221   5.669   5.175
 7415TIP3   OH222208   6.965   4.485   5.630
 7415TIP3    H122209   6.966   4.435   5.712
 7415TIP3    H222210   6.962   4.576   5.658
 7416TIP3   OH222211   1.725   5.445   2.995
 7416TIP3    H122212   1.738   5.490   2.911
 7416TIP3    H222213   1.770   5.500   3.059
 7417TIP3   OH222214   1.479   3.188   2.241
 7417TIP3    H122215   1.435   3.241   2.307
 7417TIP3    H222216   1.472   3.098   2.274
 7418TIP3   OH222217   2.590   3.808   0.432
 7418TIP3    H122218   2.614   3.731   0.382
 7418TIP3    H222219   2.535   3.774   0.503
 7419TIP3   OH222220   2.206   6.520   1.233
 7419TIP3    H122221   2.298   6.499   1.216
 7419TIP3    H222222   2.168   6.529   1.146
 7420TIP3   OH222223   0.958   5.814   3.708
 7420TIP3    H122224   1.027   5.751   3.688
 7420TIP3    H222225   0.938   5.855   3.624
 7421TIP3   OH222226   4.493   3.287   3.572
 7421TIP3    H122227   4.399   3.295   3.552
 7421TIP3    H222228   4.522   3.210   3.522
 7422TIP3   OH222229   4.711   4.085   5.142
 7422TIP3    H122230   4.739   4.068   5.052
 7422TIP3    H222231   4.708   4.181   5.148
 7423TIP3   OH222232   1.015   1.853   2.489
 7423TIP3    H122233   0.959   1.911   2.541
 7423TIP3    H222234   0.995   1.875   2.398
 7424TIP3   OH222235   0.549   1.615   3.628
 7424TIP3    H122236   0.614   1.577   3.688
 7424TIP3    H222237   0.579   1.588   3.541
 7425TIP3   OH222238   1.689   4.849   3.003
 7425TIP3    H122239   1.725   4.933   3.033
 7425TIP3    H222240   1.708   4.788   3.075
 7426TIP3   OH222241   4.521   2.579   4.083
 7426TIP3    H122242   4.609   2.592   4.050
 7426TIP3    H222243   4.477   2.663   4.068
 7427TIP3   OH222244   4.841   6.713   0.510
 7427TIP3    H122245   4.829   6.807   0.495
 7427TIP3    H222246   4.754   6.682   0.534
 7428TIP3   OH222247   6.618   0.095   0.894
 7428TIP3    H122248   6.581   0.067   0.810
 7428TIP3    H222249   6.548   0.146   0.935
 7429TIP3   OH222250   3.959   6.729   1.085
 7429TIP3    H122251   3.880   6.782   1.071
 7429TIP3    H222252   4.030   6.793   1.088
 7430TIP3   OH222253   3.772   1.255   3.662
 7430TIP3    H122254   3.757   1.324   3.597
 7430TIP3    H222255   3.792   1.177   3.610
 7431TIP3   OH222256   3.826   1.777   4.438
 7431TIP3    H122257   3.855   1.760   4.348
 7431TIP3    H222258   3.792   1.692   4.468
 7432TIP3   OH222259   2.579   1.943   2.435
 7432TIP3    H122260   2.659   1.960   2.385
 7432TIP3    H222261   2.518   1.905   2.371
 7433TIP3   OH222262   5.146   6.386   4.744
 7433TIP3    H122263   5.089   6.313   4.769
 7433TIP3    H222264   5.117   6.458   4.800
 7434TIP3   OH222265   6.506   0.002   1.832
 7434TIP3    H122266   6.456  -0.079   1.824
 7434TIP3    H222267   6.448   0.070   1.796
 7435TIP3   OH222268   2.331   1.205   4.217
 7435TIP3    H122269   2.359   1.227   4.306
 7435TIP3    H222270   2.248   1.252   4.207
 7436TIP3   OH222271   0.203   2.352   4.004
 7436TIP3    H122272   0.169   2.300   3.931
 7436TIP3    H222273   0.221   2.437   3.966
 7437TIP3   OH222274   2.515   6.754   2.185
 7437TIP3    H122275   2.513   6.658   2.181
 7437TIP3    H222276   2.579   6.780   2.120
 7438TIP3   OH222277   2.020   5.009   0.635
 7438TIP3    H122278   2.037   5.043   0.723
 7438TIP3    H222279   1.990   5.085   0.585
 7439TIP3   OH222280   3.990   1.871   4.726
 7439TIP3    H122281   3.983   1.967   4.718
 7439TIP3    H222282   4.019   1.857   4.816
 7440TIP3   OH222283   1.156   6.371   5.113
 7440TIP3    H122284   1.222   6.314   5.073
 7440TIP3    H222285   1.075   6.352   5.065
 7441TIP3   OH222286   4.982   4.475   4.227
 7441TIP3    H122287   5.056   4.415   4.223
 7441TIP3    H222288   4.965   4.486   4.321
 7442TIP3   OH222289   3.344   3.398   0.728
 7442TIP3    H122290   3.255   3.381   0.697
 7442TIP3    H222291   3.371   3.316   0.770
 7443TIP3   OH222292   2.602   4.804   1.887
 7443TIP3    H122293   2.550   4.729   1.917
 7443TIP3    H222294   2.542   4.854   1.832
 7444TIP3   OH222295   2.009   4.924   3.330
 7444TIP3    H122296   2.041   4.984   3.398
 7444TIP3    H222297   1.987   4.844   3.377
 7445TIP3   OH222298   0.714   1.579   4.855
 7445TIP3    H122299   0.738   1.669   4.877
 7445TIP3    H222300   0.795   1.529   4.865
 7446TIP3   OH222301   0.266   5.184   5.087
 7446TIP3    H122302   0.334   5.169   5.152
 7446TIP3    H222303   0.308   5.169   5.003
 7447TIP3   OH222304   2.308   0.620   2.747
 7447TIP3    H122305   2.233   0.582   2.701
 7447TIP3    H222306   2.365   0.653   2.677
 7448TIP3   OH222307   0.737   3.259   0.353
 7448TIP3    H122308   0.768   3.189   0.411
 7448TIP3    H222309   0.679   3.214   0.291
 7449TIP3   OH222310   5.368   1.702   5.830
 7449TIP3    H122311   5.461   1.725   5.825
 7449TIP3    H222312   5.364   1.632   5.895
 7450TIP3   OH222313   3.048   5.436   5.486
 7450TIP3    H122314   3.097   5.354   5.494
 7450TIP3    H222315   3.072   5.485   5.565
 7451TIP3   OH222316   4.131   4.852   5.213
 7451TIP3    H122317   4.079   4.932   5.216
 7451TIP3    H222318   4.116   4.816   5.126
 7452TIP3   OH222319   5.872   3.261   1.985
 7452TIP3    H122320   5.863   3.208   1.906
 7452TIP3    H222321   5.802   3.326   1.978
 7453TIP3   OH222322   4.661   0.322   3.908
 7453TIP3    H122323   4.677   0.294   3.818
 7453TIP3    H222324   4.630   0.412   3.899
 7454TIP3   OH222325   0.970   4.652   5.735
 7454TIP3    H122326   0.969   4.603   5.653
 7454TIP3    H222327   0.968   4.744   5.709
 7455TIP3   OH222328   0.336   1.827   5.278
 7455TIP3    H122329   0.312   1.891   5.210
 7455TIP3    H222330   0.426   1.849   5.301
 7456TIP3   OH222331   4.797   5.648   0.099
 7456TIP3    H122332   4.870   5.710   0.090
 7456TIP3    H222333   4.808   5.610   0.186
 7457TIP3   OH222334   1.197   1.474   0.995
 7457TIP3    H122335   1.249   1.549   0.964
 7457TIP3    H222336   1.165   1.432   0.915
 7458TIP3   OH222337   5.413   3.812   2.007
 7458TIP3    H122338   5.446   3.737   1.956
 7458TIP3    H222339   5.407   3.883   1.943
 7459TIP3   OH222340   2.823   5.727   2.987
 7459TIP3    H122341   2.754   5.678   2.942
 7459TIP3    H222342   2.793   5.818   2.987
 7460TIP3   OH222343   6.559   4.568   0.982
 7460TIP3    H122344   6.642   4.547   1.026
 7460TIP3    H222345   6.494   4.572   1.052
 7461TIP3   OH222346   4.495   2.146   5.052
 7461TIP3    H122347   4.570   2.106   5.008
 7461TIP3    H222348   4.419   2.114   5.003
 7462TIP3   OH222349   6.801   6.042   2.623
 7462TIP3    H122350   6.873   6.012   2.679
 7462TIP3    H222351   6.814   5.995   2.541
 7463TIP3   OH222352   4.918   2.158   5.063
 7463TIP3    H122353   5.005   2.174   5.099
 7463TIP3    H222354   4.934   2.131   4.973
 7464TIP3   OH222355   6.785   0.595   2.780
 7464TIP3    H122356   6.717   0.551   2.728
 7464TIP3    H222357   6.857   0.532   2.782
 7465TIP3   OH222358   4.894   6.499   0.054
 7465TIP3    H122359   4.888   6.452   0.138
 7465TIP3    H222360   4.978   6.469   0.017
 7466TIP3   OH222361   2.669   3.981   2.385
 7466TIP3    H122362   2.723   3.906   2.360
 7466TIP3    H222363   2.710   4.015   2.464
 7467TIP3   OH222364   0.905   6.774   1.901
 7467TIP3    H122365   0.982   6.828   1.884
 7467TIP3    H222366   0.921   6.737   1.988
 7468TIP3   OH222367   4.546   2.280   1.065
 7468TIP3    H122368   4.494   2.359   1.052
 7468TIP3    H222369   4.635   2.313   1.081
 7469TIP3   OH222370   4.790   5.125   3.648
 7469TIP3    H122371   4.849   5.191   3.611
 7469TIP3    H222372   4.770   5.157   3.736
 7470TIP3   OH222373   0.680   3.993   2.831
 7470TIP3    H122374   0.677   3.985   2.926
 7470TIP3    H222375   0.737   4.068   2.815
 7471TIP3   OH222376   5.579   3.222   5.391
 7471TIP3    H122377   5.568   3.305   5.437
 7471TIP3    H222378   5.610   3.161   5.458
 7472TIP3   OH222379   2.943   6.740   2.178
 7472TIP3    H122380   2.896   6.707   2.255
 7472TIP3    H222381   2.953   6.834   2.195
 7473TIP3   OH222382   4.892   1.148   4.460
 7473TIP3    H122383   4.851   1.219   4.410
 7473TIP3    H222384   4.853   1.068   4.425
 7474TIP3   OH222385   4.558   4.051   4.792
 7474TIP3    H122386   4.565   3.958   4.811
 7474TIP3    H222387   4.545   4.056   4.697
 7475TIP3   OH222388   2.878   6.529   3.208
 7475TIP3    H122389   2.788   6.531   3.174
 7475TIP3    H222390   2.923   6.467   3.151
 7476TIP3   OH222391   6.515   0.318   5.394
 7476TIP3    H122392   6.580   0.386   5.377
 7476TIP3    H222393   6.493   0.329   5.487
 7477TIP3   OH222394   2.506   1.045   5.412
 7477TIP3    H122395   2.552   1.127   5.431
 7477TIP3    H222396   2.483   1.051   5.320
 7478TIP3   OH222397   0.799   5.235   5.278
 7478TIP3    H122398   0.824   5.227   5.186
 7478TIP3    H222399   0.710   5.271   5.276
 7479TIP3   OH222400   2.531   5.324   0.555
 7479TIP3    H122401   2.541   5.399   0.612
 7479TIP3    H222402   2.439   5.299   0.563
 7480TIP3   OH222403   2.033   1.654   1.175
 7480TIP3    H122404   2.100   1.622   1.114
 7480TIP3    H222405   2.042   1.749   1.173
 7481TIP3   OH222406   2.312   1.481   4.719
 7481TIP3    H122407   2.320   1.537   4.796
 7481TIP3    H222408   2.226   1.440   4.728
 7482TIP3   OH222409   2.092   0.870   3.752
 7482TIP3    H122410   2.158   0.877   3.821
 7482TIP3    H222411   2.138   0.831   3.678
 7483TIP3   OH222412   2.114   1.161   1.750
 7483TIP3    H122413   2.071   1.241   1.720
 7483TIP3    H222414   2.138   1.180   1.841
 7484TIP3   OH222415   5.467   1.025   5.409
 7484TIP3    H122416   5.549   1.024   5.361
 7484TIP3    H222417   5.491   1.004   5.499
 7485TIP3   OH222418   5.329   0.493   1.535
 7485TIP3    H122419   5.306   0.463   1.447
 7485TIP3    H222420   5.270   0.567   1.551
 7486TIP3   OH222421   6.310   0.926   5.489
 7486TIP3    H122422   6.320   0.872   5.410
 7486TIP3    H222423   6.220   0.958   5.485
 7487TIP3   OH222424   3.307   0.561   0.295
 7487TIP3    H122425   3.363   0.509   0.237
 7487TIP3    H222426   3.264   0.497   0.351
 7488TIP3   OH222427   0.690   0.449   1.185
 7488TIP3    H122428   0.651   0.383   1.241
 7488TIP3    H222429   0.769   0.476   1.230
 7489TIP3   OH222430   1.704   2.461   2.995
 7489TIP3    H122431   1.672   2.521   3.063
 7489TIP3    H222432   1.699   2.511   2.914
 7490TIP3   OH222433   4.158   2.782   1.641
 7490TIP3    H122434   4.131   2.874   1.645
 7490TIP3    H222435   4.149   2.759   1.549
 7491TIP3   OH222436   5.835   0.843   1.578
 7491TIP3    H122437   5.901   0.897   1.534
 7491TIP3    H222438   5.882   0.802   1.650
 7492TIP3   OH222439   6.966   4.215   4.051
 7492TIP3    H122440   7.040   4.262   4.012
 7492TIP3    H222441   7.001   4.179   4.132
 7493TIP3   OH222442   2.562   3.024   2.186
 7493TIP3    H122443   2.477   2.989   2.213
 7493TIP3    H222444   2.625   2.978   2.241
 7494TIP3   OH222445   3.660   2.934   4.582
 7494TIP3    H122446   3.596   2.954   4.651
 7494TIP3    H222447   3.672   2.839   4.588
 7495TIP3   OH222448   6.311   4.316   5.213
 7495TIP3    H122449   6.283   4.382   5.149
 7495TIP3    H222450   6.321   4.236   5.161
 7496TIP3   OH222451   5.215   6.250   4.344
 7496TIP3    H122452   5.200   6.251   4.249
 7496TIP3    H222453   5.195   6.339   4.372
 7497TIP3   OH222454   2.063   6.767   4.328
 7497TIP3    H122455   2.093   6.677   4.341
 7497TIP3    H222456   1.981   6.772   4.375
 7498TIP3   OH222457   4.065   1.086   5.662
 7498TIP3    H122458   3.986   1.033   5.656
 7498TIP3    H222459   4.137   1.023   5.662
 7499TIP3   OH222460   1.184   3.729   3.153
 7499TIP3    H122461   1.167   3.743   3.060
 7499TIP3    H222462   1.141   3.803   3.197
 7500TIP3   OH222463   5.215   4.742   1.893
 7500TIP3    H122464   5.235   4.710   1.805
 7500TIP3    H222465   5.279   4.812   1.908
 7501TIP3   OH222466   1.305   5.944   1.764
 7501TIP3    H122467   1.264   5.962   1.849
 7501TIP3    H222468   1.235   5.954   1.700
 7502TIP3   OH222469   3.840   6.628   3.206
 7502TIP3    H122470   3.783   6.556   3.234
 7502TIP3    H222471   3.912   6.627   3.269
 7503TIP3   OH222472   0.747   3.930   2.012
 7503TIP3    H122473   0.702   3.858   2.056
 7503TIP3    H222474   0.780   3.891   1.931
 7504TIP3   OH222475   3.040   1.785   4.311
 7504TIP3    H122476   3.054   1.691   4.304
 7504TIP3    H222477   2.946   1.795   4.326
 7505TIP3   OH222478   3.763   4.270   4.747
 7505TIP3    H122479   3.690   4.209   4.757
 7505TIP3    H222480   3.839   4.213   4.731
 7506TIP3   OH222481   0.773   4.296   3.791
 7506TIP3    H122482   0.735   4.228   3.847
 7506TIP3    H222483   0.790   4.369   3.851
 7507TIP3   OH222484   5.299   6.684   4.863
 7507TIP3    H122485   5.296   6.733   4.781
 7507TIP3    H222486   5.336   6.599   4.839
 7508TIP3   OH222487   0.820   0.709   1.027
 7508TIP3    H122488   0.801   0.620   0.996
 7508TIP3    H222489   0.765   0.765   0.972
 7509TIP3   OH222490   4.705   2.362   1.759
 7509TIP3    H122491   4.798   2.366   1.780
 7509TIP3    H222492   4.693   2.279   1.714
 7510TIP3   OH222493   4.065   1.729   5.652
 7510TIP3    H122494   4.075   1.660   5.587
 7510TIP3    H222495   4.154   1.765   5.662
 7511TIP3   OH222496   4.469   0.420   5.270
 7511TIP3    H122497   4.541   0.476   5.302
 7511TIP3    H222498   4.458   0.355   5.339
 7512TIP3   OH222499   3.793   2.487   0.432
 7512TIP3    H122500   3.745   2.570   0.433
 7512TIP3    H222501   3.754   2.437   0.504
 7513TIP3   OH222502   4.948   3.919   1.962
 7513TIP3    H122503   4.968   3.839   1.914
 7513TIP3    H222504   4.947   3.892   2.054
 7514TIP3   OH222505   6.577   6.656   4.637
 7514TIP3    H122506   6.529   6.695   4.564
 7514TIP3    H222507   6.580   6.724   4.703
 7515TIP3   OH222508   6.847   5.402   2.253
 7515TIP3    H122509   6.855   5.409   2.158
 7515TIP3    H222510   6.899   5.324   2.275
 7516TIP3   OH222511   3.357   6.000   1.932
 7516TIP3    H122512   3.343   6.025   1.841
 7516TIP3    H222513   3.305   5.921   1.944
 7517TIP3   OH222514   6.986   5.482   3.189
 7517TIP3    H122515   6.908   5.494   3.135
 7517TIP3    H222516   7.002   5.387   3.187
 7518TIP3   OH222517   4.972   2.288   5.528
 7518TIP3    H122518   5.007   2.359   5.582
 7518TIP3    H222519   4.932   2.332   5.453
 7519TIP3   OH222520   5.600   3.278   2.279
 7519TIP3    H122521   5.532   3.216   2.304
 7519TIP3    H222522   5.682   3.232   2.299
 7520TIP3   OH222523   0.746   6.070   4.322
 7520TIP3    H122524   0.805   6.007   4.364
 7520TIP3    H222525   0.685   6.016   4.272
 7521TIP3   OH222526   0.862   5.033   0.159
 7521TIP3    H122527   0.869   5.116   0.112
 7521TIP3    H222528   0.883   4.967   0.093
 7522TIP3   OH222529   5.524   5.443   1.353
 7522TIP3    H122530   5.473   5.463   1.432
 7522TIP3    H222531   5.592   5.510   1.351
 7523TIP3   OH222532   1.775   6.420   3.144
 7523TIP3    H122533   1.718   6.472   3.200
 7523TIP3    H222534   1.719   6.389   3.073
 7524TIP3   OH222535   5.008   6.453   5.472
 7524TIP3    H122536   5.081   6.450   5.410
 7524TIP3    H222537   4.951   6.522   5.438
 7525TIP3   OH222538   2.685   2.082   4.290
 7525TIP3    H122539   2.685   2.092   4.386
 7525TIP3    H222540   2.777   2.087   4.265
 7526TIP3   OH222541   7.143   0.627   2.540
 7526TIP3    H122542   7.237   0.638   2.547
 7526TIP3    H222543   7.131   0.545   2.493
 7527TIP3   OH222544   6.673   2.759   5.603
 7527TIP3    H122545   6.742   2.813   5.567
 7527TIP3    H222546   6.689   2.758   5.698
 7528TIP3   OH222547   2.886   6.736   5.088
 7528TIP3    H122548   2.953   6.672   5.062
 7528TIP3    H222549   2.919   6.772   5.171
 7529TIP3   OH222550   6.701   5.369   4.529
 7529TIP3    H122551   6.748   5.324   4.458
 7529TIP3    H222552   6.698   5.305   4.600
 7530TIP3   OH222553   1.690   3.711   2.483
 7530TIP3    H122554   1.638   3.737   2.559
 7530TIP3    H222555   1.645   3.751   2.409
 7531TIP3   OH222556   2.421   1.430   4.101
 7531TIP3    H122557   2.471   1.439   4.019
 7531TIP3    H222558   2.400   1.337   4.106
 7532TIP3   OH222559   3.885   4.284   5.493
 7532TIP3    H122560   3.928   4.351   5.545
 7532TIP3    H222561   3.827   4.238   5.554
 7533TIP3   OH222562   3.051   6.337   3.078
 7533TIP3    H122563   3.138   6.311   3.047
 7533TIP3    H222564   3.005   6.255   3.090
 7534TIP3   OH222565   3.150   1.992   0.731
 7534TIP3    H122566   3.132   2.084   0.710
 7534TIP3    H222567   3.157   1.949   0.646
 7535TIP3   OH222568   2.984   4.852   4.095
 7535TIP3    H122569   3.022   4.827   4.011
 7535TIP3    H222570   2.992   4.948   4.098
 7536TIP3   OH222571   2.515   5.694   2.367
 7536TIP3    H122572   2.529   5.653   2.452
 7536TIP3    H222573   2.431   5.659   2.336
 7537TIP3   OH222574   1.330   3.697   0.867
 7537TIP3    H122575   1.403   3.644   0.901
 7537TIP3    H222576   1.254   3.640   0.874
 7538TIP3   OH222577   2.263   5.257   2.028
 7538TIP3    H122578   2.277   5.165   2.005
 7538TIP3    H222579   2.230   5.297   1.948
 7539TIP3   OH222580   4.097   3.504   5.178
 7539TIP3    H122581   4.174   3.510   5.121
 7539TIP3    H222582   4.091   3.590   5.219
 7540TIP3   OH222583   4.666   5.354   2.322
 7540TIP3    H122584   4.676   5.399   2.406
 7540TIP3    H222585   4.745   5.301   2.314
 7541TIP3   OH222586   6.522   5.945   0.509
 7541TIP3    H122587   6.561   6.032   0.515
 7541TIP3    H222588   6.541   5.903   0.592
 7542TIP3   OH222589   2.475   0.980   2.225
 7542TIP3    H122590   2.555   1.031   2.238
 7542TIP3    H222591   2.413   1.018   2.288
 7543TIP3   OH222592   5.918   4.008   4.850
 7543TIP3    H122593   5.834   4.026   4.892
 7543TIP3    H222594   5.976   3.986   4.923
 7544TIP3   OH222595   6.347   3.085   3.940
 7544TIP3    H122596   6.332   3.021   3.870
 7544TIP3    H222597   6.295   3.054   4.014
 7545TIP3   OH222598   4.098   6.226   5.486
 7545TIP3    H122599   4.132   6.275   5.561
 7545TIP3    H222600   4.005   6.249   5.483
 7546TIP3   OH222601   2.461   6.750   0.959
 7546TIP3    H122602   2.541   6.772   1.006
 7546TIP3    H222603   2.448   6.657   0.977
 7547TIP3   OH222604   0.432   5.093   3.113
 7547TIP3    H122605   0.475   5.044   3.044
 7547TIP3    H222606   0.358   5.135   3.070
 7548TIP3   OH222607   2.623   1.319   2.294
 7548TIP3    H122608   2.671   1.362   2.365
 7548TIP3    H222609   2.670   1.238   2.278
 7549TIP3   OH222610   0.511   2.461   2.444
 7549TIP3    H122611   0.458   2.419   2.376
 7549TIP3    H222612   0.601   2.452   2.414
 7550TIP3   OH222613   1.624   4.783   0.359
 7550TIP3    H122614   1.607   4.820   0.272
 7550TIP3    H222615   1.688   4.842   0.398
 7551TIP3   OH222616   2.996   5.721   3.674
 7551TIP3    H122617   2.998   5.724   3.769
 7551TIP3    H222618   3.073   5.771   3.647
 7552TIP3   OH222619   6.736   6.656   5.807
 7552TIP3    H122620   6.796   6.683   5.875
 7552TIP3    H222621   6.663   6.718   5.812
 7553TIP3   OH222622   6.959   1.765   2.984
 7553TIP3    H122623   6.890   1.709   2.947
 7553TIP3    H222624   7.034   1.751   2.926
 7554TIP3   OH222625   1.277   4.136   3.887
 7554TIP3    H122626   1.229   4.218   3.898
 7554TIP3    H222627   1.231   4.074   3.943
 7555TIP3   OH222628   4.145   2.580   3.673
 7555TIP3    H122629   4.068   2.634   3.655
 7555TIP3    H222630   4.129   2.544   3.761
 7556TIP3   OH222631   4.967   0.870   4.240
 7556TIP3    H122632   5.015   0.871   4.323
 7556TIP3    H222633   4.987   0.955   4.200
 7557TIP3   OH222634   1.700   6.175   3.567
 7557TIP3    H122635   1.746   6.092   3.578
 7557TIP3    H222636   1.769   6.242   3.570
 7558TIP3   OH222637   4.389   4.485   5.388
 7558TIP3    H122638   4.308   4.446   5.420
 7558TIP3    H222639   4.362   4.566   5.345
 7559TIP3   OH222640   6.444   3.075   1.099
 7559TIP3    H122641   6.452   3.169   1.111
 7559TIP3    H222642   6.394   3.065   1.017
 7560TIP3   OH222643   5.609   0.990   1.571
 7560TIP3    H122644   5.695   0.947   1.577
 7560TIP3    H222645   5.604   1.021   1.481
 7561TIP3   OH222646   3.772   0.217   2.850
 7561TIP3    H122647   3.799   0.301   2.886
 7561TIP3    H222648   3.847   0.160   2.864
 7562TIP3   OH222649   0.637   0.668   5.739
 7562TIP3    H122650   0.637   0.664   5.644
 7562TIP3    H222651   0.557   0.623   5.765
 7563TIP3   OH222652   3.434   5.686   5.787
 7563TIP3    H122653   3.436   5.661   5.879
 7563TIP3    H222654   3.379   5.764   5.784
 7564TIP3   OH222655   4.008   1.206   2.592
 7564TIP3    H122656   4.042   1.268   2.657
 7564TIP3    H222657   4.079   1.195   2.529
 7565TIP3   OH222658   1.155   5.735   5.511
 7565TIP3    H122659   1.170   5.789   5.433
 7565TIP3    H222660   1.222   5.765   5.573
 7566TIP3   OH222661   5.091   0.798   5.908
 7566TIP3    H122662   5.121   0.773   5.821
 7566TIP3    H222663   5.126   0.887   5.921
 7567TIP3   OH222664   0.268   5.209   0.990
 7567TIP3    H122665   0.302   5.201   1.079
 7567TIP3    H222666   0.347   5.210   0.935
 7568TIP3   OH222667   7.015   0.382   4.679
 7568TIP3    H122668   7.035   0.381   4.585
 7568TIP3    H222669   6.920   0.381   4.683
 7569TIP3   OH222670   3.304   4.959   2.617
 7569TIP3    H122671   3.324   4.970   2.710
 7569TIP3    H222672   3.297   5.049   2.583
 7570TIP3   OH222673   3.536   0.608   5.653
 7570TIP3    H122674   3.457   0.616   5.707
 7570TIP3    H222675   3.559   0.698   5.631
 7571TIP3   OH222676   5.118   1.023   1.054
 7571TIP3    H122677   5.128   1.097   1.114
 7571TIP3    H222678   5.129   0.945   1.109
 7572TIP3   OH222679   4.111   2.082   3.139
 7572TIP3    H122680   4.099   2.154   3.077
 7572TIP3    H222681   4.153   2.123   3.215
 7573TIP3   OH222682   6.552   5.326   1.492
 7573TIP3    H122683   6.597   5.400   1.452
 7573TIP3    H222684   6.605   5.250   1.470
 7574TIP3   OH222685   2.153   2.107   0.750
 7574TIP3    H122686   2.162   2.062   0.835
 7574TIP3    H222687   2.086   2.057   0.704
 7575TIP3   OH222688   6.972   1.358   4.573
 7575TIP3    H122689   7.059   1.349   4.611
 7575TIP3    H222690   6.940   1.442   4.606
 7576TIP3   OH222691   5.947   6.003   0.395
 7576TIP3    H122692   5.993   6.060   0.457
 7576TIP3    H222693   6.007   5.930   0.380
 7577TIP3   OH222694   1.709   4.138   0.285
 7577TIP3    H122695   1.777   4.128   0.352
 7577TIP3    H222696   1.757   4.139   0.203
 7578TIP3   OH222697   4.649   5.453   3.642
 7578TIP3    H122698   4.626   5.511   3.715
 7578TIP3    H222699   4.632   5.365   3.676
 7579TIP3   OH222700   0.833   3.909   2.405
 7579TIP3    H122701   0.873   3.975   2.348
 7579TIP3    H222702   0.848   3.826   2.359
 7580TIP3   OH222703   4.155   1.415   2.648
 7580TIP3    H122704   4.245   1.442   2.630
 7580TIP3    H222705   4.101   1.476   2.597
 7581TIP3   OH222706   1.608   6.031   4.990
 7581TIP3    H122707   1.646   6.001   4.908
 7581TIP3    H222708   1.676   6.015   5.055
 7582TIP3   OH222709   6.565   3.813   1.849
 7582TIP3    H122710   6.649   3.776   1.875
 7582TIP3    H222711   6.506   3.737   1.847
 7583TIP3   OH222712   1.914   6.069  -0.030
 7583TIP3    H122713   1.869   5.985  -0.025
 7583TIP3    H222714   1.998   6.053   0.013
 7584TIP3   OH222715   6.598   0.955   3.659
 7584TIP3    H122716   6.519   0.913   3.624
 7584TIP3    H222717   6.625   0.898   3.731
 7585TIP3   OH222718   4.501   3.749   5.175
 7585TIP3    H122719   4.554   3.810   5.225
 7585TIP3    H222720   4.562   3.705   5.116
 7586TIP3   OH222721   0.853   5.711   5.587
 7586TIP3    H122722   0.896   5.712   5.501
 7586TIP3    H222723   0.919   5.678   5.647
 7587TIP3   OH222724   2.709   1.846   1.782
 7587TIP3    H122725   2.635   1.822   1.839
 7587TIP3    H222726   2.769   1.892   1.839
 7588TIP3   OH222727   4.399   1.231   4.775
 7588TIP3    H122728   4.341   1.171   4.728
 7588TIP3    H222729   4.467   1.254   4.712
 7589TIP3   OH222730   3.591   0.679   1.751
 7589TIP3    H122731   3.549   0.593   1.756
 7589TIP3    H222732   3.664   0.666   1.690
 7590TIP3   OH222733   1.876   0.227   2.310
 7590TIP3    H122734   1.828   0.147   2.330
 7590TIP3    H222735   1.932   0.203   2.236
 7591TIP3   OH222736   1.382   6.353   4.461
 7591TIP3    H122737   1.439   6.429   4.449
 7591TIP3    H222738   1.312   6.365   4.398
 7592TIP3   OH222739   5.541   2.747   4.850
 7592TIP3    H122740   5.553   2.655   4.826
 7592TIP3    H222741   5.629   2.785   4.848
 7593TIP3   OH222742   3.385   5.605   0.225
 7593TIP3    H122743   3.302   5.600   0.272
 7593TIP3    H222744   3.398   5.699   0.210
 7594TIP3   OH222745   3.388   1.298   0.697
 7594TIP3    H122746   3.440   1.378   0.705
 7594TIP3    H222747   3.443   1.230   0.736
 7595TIP3   OH222748   2.233   2.674   3.330
 7595TIP3    H122749   2.238   2.618   3.407
 7595TIP3    H222750   2.139   2.694   3.321
 7596TIP3   OH222751   0.508   3.951   5.704
 7596TIP3    H122752   0.570   4.017   5.732
 7596TIP3    H222753   0.522   3.943   5.609
 7597TIP3   OH222754   6.068   4.750   1.385
 7597TIP3    H122755   6.003   4.806   1.343
 7597TIP3    H222756   6.017   4.692   1.441
 7598TIP3   OH222757   1.185   0.792   1.249
 7598TIP3    H122758   1.096   0.785   1.284
 7598TIP3    H222759   1.191   0.722   1.184
 7599TIP3   OH222760   1.425   4.701   2.413
 7599TIP3    H122761   1.499   4.642   2.398
 7599TIP3    H222762   1.377   4.700   2.331
 7600TIP3   OH222763   3.653   5.684   0.896
 7600TIP3    H122764   3.705   5.761   0.915
 7600TIP3    H222765   3.563   5.716   0.889
 7601TIP3   OH222766   5.980   6.361   2.348
 7601TIP3    H122767   5.972   6.406   2.432
 7601TIP3    H222768   6.016   6.275   2.369
 7602TIP3   OH222769   1.165   0.736   3.174
 7602TIP3    H122770   1.190   0.764   3.087
 7602TIP3    H222771   1.247   0.735   3.224
 7603TIP3   OH222772   3.918   0.566   4.102
 7603TIP3    H122773   3.929   0.519   4.185
 7603TIP3    H222774   3.842   0.524   4.061
 7604TIP3   OH222775   3.672   0.474   0.526
 7604TIP3    H122776   3.751   0.492   0.578
 7604TIP3    H222777   3.644   0.559   0.494
 7605TIP3   OH222778   3.691   0.436   5.399
 7605TIP3    H122779   3.619   0.426   5.461
 7605TIP3    H222780   3.764   0.390   5.439
 7606TIP3   OH222781   6.944   0.084   1.702
 7606TIP3    H122782   6.914   0.150   1.764
 7606TIP3    H222783   6.884   0.011   1.713
 7607TIP3   OH222784   2.050   2.763   5.730
 7607TIP3    H122785   2.029   2.692   5.670
 7607TIP3    H222786   1.967   2.809   5.744
 7608TIP3   OH222787   4.374   6.475   2.253
 7608TIP3    H122788   4.447   6.413   2.256
 7608TIP3    H222789   4.323   6.457   2.331
 7609TIP3   OH222790   5.553   1.015   4.265
 7609TIP3    H122791   5.574   0.928   4.296
 7609TIP3    H222792   5.457   1.019   4.268
 7610TIP3   OH222793   6.400   6.111   2.488
 7610TIP3    H122794   6.435   6.116   2.577
 7610TIP3    H222795   6.315   6.154   2.493
 7611TIP3   OH222796   4.447   5.229   1.249
 7611TIP3    H122797   4.541   5.215   1.241
 7611TIP3    H222798   4.412   5.211   1.162
 7612TIP3   OH222799   5.516   6.246   4.043
 7612TIP3    H122800   5.452   6.311   4.013
 7612TIP3    H222801   5.513   6.252   4.139
 7613TIP3   OH222802   4.547   6.592   5.646
 7613TIP3    H122803   4.621   6.637   5.686
 7613TIP3    H222804   4.531   6.638   5.564
 7614TIP3   OH222805   1.162   6.606   2.515
 7614TIP3    H122806   1.233   6.561   2.561
 7614TIP3    H222807   1.114   6.537   2.470
 7615TIP3   OH222808   4.401   0.915   2.007
 7615TIP3    H122809   4.363   0.975   1.941
 7615TIP3    H222810   4.331   0.904   2.071
 7616TIP3   OH222811   6.032   2.814   5.662
 7616TIP3    H122812   6.093   2.742   5.647
 7616TIP3    H222813   5.995   2.797   5.749
 7617TIP3   OH222814   5.748   5.349   2.311
 7617TIP3    H122815   5.799   5.283   2.263
 7617TIP3    H222816   5.814   5.405   2.352
 7618TIP3   OH222817   4.816   0.326   0.781
 7618TIP3    H122818   4.853   0.292   0.700
 7618TIP3    H222819   4.860   0.277   0.850
 7619TIP3   OH222820   5.756   6.231   0.447
 7619TIP3    H122821   5.833   6.269   0.404
 7619TIP3    H222822   5.762   6.263   0.537
 7620TIP3   OH222823   5.838   3.258   0.029
 7620TIP3    H122824   5.912   3.242  -0.030
 7620TIP3    H222825   5.850   3.194   0.100
 7621TIP3   OH222826   4.962   3.296   2.843
 7621TIP3    H122827   4.951   3.390   2.831
 7621TIP3    H222828   5.052   3.279   2.815
 7622TIP3   OH222829   3.003   4.476   0.557
 7622TIP3    H122830   2.975   4.551   0.610
 7622TIP3    H222831   3.096   4.492   0.540
 7623TIP3   OH222832   4.355   4.433   4.596
 7623TIP3    H122833   4.375   4.358   4.653
 7623TIP3    H222834   4.277   4.472   4.634
 7624TIP3   OH222835   2.699   2.262   0.352
 7624TIP3    H122836   2.684   2.344   0.306
 7624TIP3    H222837   2.650   2.197   0.302
 7625TIP3   OH222838   3.027   3.742   4.553
 7625TIP3    H122839   3.051   3.719   4.643
 7625TIP3    H222840   3.092   3.807   4.527
 7626TIP3   OH222841   6.097   0.822   3.187
 7626TIP3    H122842   6.151   0.900   3.175
 7626TIP3    H222843   6.118   0.791   3.275
 7627TIP3   OH222844   4.884   5.177   1.578
 7627TIP3    H122845   4.925   5.167   1.492
 7627TIP3    H222846   4.958   5.188   1.638
 7628TIP3   OH222847   3.148   0.859   0.358
 7628TIP3    H122848   3.195   0.815   0.287
 7628TIP3    H222849   3.074   0.903   0.314
 7629TIP3   OH222850   6.587   5.129   0.160
 7629TIP3    H122851   6.578   5.072   0.236
 7629TIP3    H222852   6.600   5.216   0.197
 7630TIP3   OH222853   6.995   1.420   0.052
 7630TIP3    H122854   7.011   1.489   0.116
 7630TIP3    H222855   6.934   1.459  -0.010
 7631TIP3   OH222856   6.211   2.614   0.060
 7631TIP3    H122857   6.205   2.573   0.146
 7631TIP3    H222858   6.298   2.653   0.058
 7632TIP3   OH222859   2.137   2.848   2.056
 7632TIP3    H122860   2.093   2.819   1.976
 7632TIP3    H222861   2.066   2.879   2.112
 7633TIP3   OH222862   4.648   6.144   4.051
 7633TIP3    H122863   4.711   6.084   4.011
 7633TIP3    H222864   4.702   6.217   4.083
 7634TIP3   OH222865   0.722   2.222   4.014
 7634TIP3    H122866   0.764   2.208   3.929
 7634TIP3    H222867   0.789   2.201   4.078
 7635TIP3   OH222868   4.608   1.348   0.913
 7635TIP3    H122869   4.643   1.382   0.995
 7635TIP3    H222870   4.621   1.418   0.849
 7636TIP3   OH222871   6.976   2.536   0.934
 7636TIP3    H122872   7.028   2.613   0.959
 7636TIP3    H222873   6.960   2.549   0.840
 7637TIP3   OH222874   2.330   6.420   0.410
 7637TIP3    H122875   2.323   6.341   0.356
 7637TIP3    H222876   2.259   6.412   0.474
 7638TIP3   OH222877   5.706   4.955   3.391
 7638TIP3    H122878   5.648   5.031   3.399
 7638TIP3    H222879   5.653   4.882   3.422
 7639TIP3   OH222880   6.055   6.240   4.209
 7639TIP3    H122881   6.114   6.178   4.251
 7639TIP3    H222882   6.098   6.261   4.125
 7640TIP3   OH222883   2.648   6.145   5.169
 7640TIP3    H122884   2.720   6.101   5.122
 7640TIP3    H222885   2.692   6.202   5.232
 7641TIP3   OH222886   7.105   3.656   0.204
 7641TIP3    H122887   7.032   3.652   0.143
 7641TIP3    H222888   7.070   3.703   0.280
 7642TIP3   OH222889   4.228   2.991   5.684
 7642TIP3    H122890   4.169   3.060   5.714
 7642TIP3    H222891   4.174   2.936   5.627
 7643TIP3   OH222892   4.693   1.767   0.932
 7643TIP3    H122893   4.598   1.752   0.932
 7643TIP3    H222894   4.729   1.690   0.888
 7644TIP3   OH222895   6.409   1.600   1.488
 7644TIP3    H122896   6.421   1.644   1.404
 7644TIP3    H222897   6.362   1.664   1.542
 7645TIP3   OH222898   6.019   6.030   5.014
 7645TIP3    H122899   5.973   6.112   5.028
 7645TIP3    H222900   5.965   5.982   4.951
 7646TIP3   OH222901   3.292   1.219   4.441
 7646TIP3    H122902   3.208   1.261   4.459
 7646TIP3    H222903   3.296   1.212   4.346
 7647TIP3   OH222904   4.193   4.815   1.878
 7647TIP3    H122905   4.174   4.783   1.966
 7647TIP3    H222906   4.166   4.744   1.820
 7648TIP3   OH222907   1.897   1.020   2.813
 7648TIP3    H122908   1.853   0.943   2.847
 7648TIP3    H222909   1.861   1.031   2.725
 7649TIP3   OH222910   7.114   2.115   2.362
 7649TIP3    H122911   7.194   2.084   2.320
 7649TIP3    H222912   7.089   2.044   2.421
 7650TIP3   OH222913   0.972   1.626   5.825
 7650TIP3    H122914   0.906   1.623   5.894
 7650TIP3    H222915   0.995   1.534   5.809
 7651TIP3   OH222916   6.793   4.427   3.105
 7651TIP3    H122917   6.815   4.518   3.084
 7651TIP3    H222918   6.851   4.376   3.047
 7652TIP3   OH222919   2.713   1.059   2.313
 7652TIP3    H122920   2.715   1.027   2.403
 7652TIP3    H222921   2.788   1.018   2.271
 7653TIP3   OH222922   5.100   2.508   5.632
 7653TIP3    H122923   5.138   2.595   5.616
 7653TIP3    H222924   5.160   2.466   5.693
 7654TIP3   OH222925   0.008   0.153   0.237
 7654TIP3    H122926   0.012   0.244   0.208
 7654TIP3    H222927  -0.039   0.156   0.321
 7655TIP3   OH222928   2.508   0.998   2.741
 7655TIP3    H122929   2.465   0.916   2.717
 7655TIP3    H222930   2.515   1.047   2.659
 7656TIP3   OH222931   0.690   4.313   1.559
 7656TIP3    H122932   0.737   4.292   1.479
 7656TIP3    H222933   0.704   4.238   1.616
 7657TIP3   OH222934   3.463   2.138   4.276
 7657TIP3    H122935   3.522   2.118   4.348
 7657TIP3    H222936   3.379   2.099   4.300
 7658TIP3   OH222937   1.893   4.867   2.809
 7658TIP3    H122938   1.872   4.778   2.780
 7658TIP3    H222939   1.831   4.884   2.879
 7659TIP3   OH222940   4.266   3.030   3.701
 7659TIP3    H122941   4.313   2.990   3.628
 7659TIP3    H222942   4.202   2.964   3.727
 7660TIP3   OH222943   5.138   6.708   2.181
 7660TIP3    H122944   5.158   6.798   2.206
 7660TIP3    H222945   5.193   6.655   2.238
 7661TIP3   OH222946   6.448   4.859   4.318
 7661TIP3    H122947   6.424   4.933   4.374
 7661TIP3    H222948   6.540   4.844   4.337
 7662TIP3   OH222949   6.052   4.382   5.091
 7662TIP3    H122950   6.096   4.297   5.086
 7662TIP3    H222951   6.119   4.445   5.063
 7663TIP3   OH222952   3.073   2.488   2.420
 7663TIP3    H122953   3.065   2.447   2.334
 7663TIP3    H222954   2.999   2.454   2.470
 7664TIP3   OH222955   4.301   3.710   5.482
 7664TIP3    H122956   4.323   3.650   5.411
 7664TIP3    H222957   4.382   3.721   5.531
 7665TIP3   OH222958   5.839   1.828   0.074
 7665TIP3    H122959   5.771   1.891   0.050
 7665TIP3    H222960   5.846   1.771  -0.002
 7666TIP3   OH222961   4.388   2.550   4.321
 7666TIP3    H122962   4.412   2.635   4.357
 7666TIP3    H222963   4.451   2.536   4.250
 7667TIP3   OH222964   4.523   0.064   5.087
 7667TIP3    H122965   4.550   0.062   4.995
 7667TIP3    H222966   4.599   0.100   5.133
 7668TIP3   OH222967   3.655   5.037   2.438
 7668TIP3    H122968   3.662   4.965   2.500
 7668TIP3    H222969   3.561   5.049   2.426
 7669TIP3   OH222970   2.705   3.334   3.593
 7669TIP3    H122971   2.631   3.394   3.586
 7669TIP3    H222972   2.682   3.276   3.666
 7670TIP3   OH222973   6.944   4.236   2.943
 7670TIP3    H122974   6.924   4.174   3.014
 7670TIP3    H222975   7.038   4.253   2.953
 7671TIP3   OH222976   2.788   3.701   2.794
 7671TIP3    H122977   2.789   3.793   2.819
 7671TIP3    H222978   2.867   3.689   2.741
 7672TIP3   OH222979   1.841   4.381   2.435
 7672TIP3    H122980   1.825   4.288   2.451
 7672TIP3    H222981   1.933   4.385   2.409
 7673TIP3   OH222982   6.701   1.639   0.878
 7673TIP3    H122983   6.689   1.733   0.894
 7673TIP3    H222984   6.713   1.602   0.966
 7674TIP3   OH222985   1.900   4.997   5.201
 7674TIP3    H122986   1.989   5.029   5.214
 7674TIP3    H222987   1.869   4.975   5.289
 7675TIP3   OH222988   3.216   1.765   1.900
 7675TIP3    H122989   3.159   1.706   1.852
 7675TIP3    H222990   3.163   1.843   1.917
 7676TIP3   OH222991   4.412   5.026   1.554
 7676TIP3    H122992   4.392   4.933   1.548
 7676TIP3    H222993   4.436   5.051   1.464
 7677TIP3   OH222994   5.651   2.845   5.898
 7677TIP3    H122995   5.626   2.761   5.938
 7677TIP3    H222996   5.600   2.848   5.817
 7678TIP3   OH222997   4.050   2.331   3.381
 7678TIP3    H122998   4.104   2.399   3.421
 7678TIP3    H222999   4.106   2.254   3.378
 7679TIP3   OH223000   2.856   6.502   5.541
 7679TIP3    H123001   2.795   6.487   5.613
 7679TIP3    H223002   2.802   6.540   5.471
 7680TIP3   OH223003   7.094   3.720   3.873
 7680TIP3    H123004   7.057   3.786   3.932
 7680TIP3    H223005   7.044   3.641   3.892
 7681TIP3   OH223006   5.961   2.541   3.791
 7681TIP3    H123007   5.933   2.466   3.843
 7681TIP3    H223008   5.885   2.600   3.792
 7682TIP3   OH223009   2.780   1.324   3.716
 7682TIP3    H123010   2.870   1.316   3.747
 7682TIP3    H223011   2.788   1.341   3.623
 7683TIP3   OH223012   5.810   6.449   1.931
 7683TIP3    H123013   5.795   6.354   1.934
 7683TIP3    H223014   5.864   6.462   1.852
 7684TIP3   OH223015   5.216   3.615   4.009
 7684TIP3    H123016   5.201   3.708   3.990
 7684TIP3    H223017   5.257   3.614   4.095
 7685TIP3   OH223018   0.297   0.832   5.832
 7685TIP3    H123019   0.212   0.870   5.852
 7685TIP3    H223020   0.298   0.827   5.736
 7686TIP3   OH223021   3.835   4.765   2.455
 7686TIP3    H123022   3.744   4.779   2.482
 7686TIP3    H223023   3.838   4.675   2.423
 7687TIP3   OH223024   3.167   4.344   1.071
 7687TIP3    H123025   3.085   4.332   1.118
 7687TIP3    H223026   3.171   4.270   1.011
 7688TIP3   OH223027   0.626   5.008   0.370
 7688TIP3    H123028   0.591   4.939   0.427
 7688TIP3    H223029   0.712   5.029   0.406
 7689TIP3   OH223030   1.646   3.196   1.519
 7689TIP3    H123031   1.558   3.227   1.539
 7689TIP3    H223032   1.635   3.103   1.500
 7690TIP3   OH223033   5.965   1.813   5.097
 7690TIP3    H123034   5.903   1.758   5.145
 7690TIP3    H223035   5.980   1.767   5.014
 7691TIP3   OH223036   3.512   2.271   2.216
 7691TIP3    H123037   3.593   2.220   2.223
 7691TIP3    H223038   3.541   2.362   2.227
 7692TIP3   OH223039   3.821   3.551   3.344
 7692TIP3    H123040   3.839   3.503   3.424
 7692TIP3    H223041   3.843   3.642   3.365
 7693TIP3   OH223042   4.374   5.418   4.073
 7693TIP3    H123043   4.357   5.509   4.100
 7693TIP3    H223044   4.438   5.427   4.002
 7694TIP3   OH223045   2.038   5.658   3.630
 7694TIP3    H123046   2.022   5.733   3.573
 7694TIP3    H223047   2.035   5.695   3.719
 7695TIP3   OH223048   3.776   0.709   1.992
 7695TIP3    H123049   3.727   0.686   1.913
 7695TIP3    H223050   3.862   0.669   1.979
 7696TIP3   OH223051   6.151   0.490   0.392
 7696TIP3    H123052   6.100   0.502   0.473
 7696TIP3    H223053   6.100   0.427   0.341
 7697TIP3   OH223054   6.958   3.837   4.540
 7697TIP3    H123055   6.894   3.870   4.477
 7697TIP3    H223056   6.981   3.750   4.506
 7698TIP3   OH223057   5.000   1.531   2.284
 7698TIP3    H123058   5.075   1.473   2.296
 7698TIP3    H223059   4.924   1.472   2.285
 7699TIP3   OH223060   2.438   3.685   1.688
 7699TIP3    H123061   2.391   3.608   1.720
 7699TIP3    H223062   2.444   3.743   1.764
 7700TIP3   OH223063   2.596   6.236   5.655
 7700TIP3    H123064   2.518   6.185   5.632
 7700TIP3    H223065   2.645   6.178   5.714
 7701TIP3   OH223066   3.244   4.586   3.363
 7701TIP3    H123067   3.331   4.584   3.403
 7701TIP3    H223068   3.244   4.512   3.302
 7702TIP3   OH223069   2.263   5.087   5.740
 7702TIP3    H123070   2.253   4.993   5.758
 7702TIP3    H223071   2.232   5.130   5.819
 7703TIP3   OH223072   3.690   4.082   2.830
 7703TIP3    H123073   3.643   4.136   2.766
 7703TIP3    H223074   3.736   4.017   2.777
 7704TIP3   OH223075   3.342   5.726   4.037
 7704TIP3    H123076   3.395   5.673   3.977
 7704TIP3    H223077   3.384   5.714   4.122
 7705TIP3   OH223078   1.493   0.659   4.563
 7705TIP3    H123079   1.574   0.620   4.596
 7705TIP3    H223080   1.432   0.655   4.637
 7706TIP3   OH223081   6.610   5.753   3.065
 7706TIP3    H123082   6.641   5.681   3.121
 7706TIP3    H223083   6.682   5.768   3.004
 7707TIP3   OH223084   6.667   4.601   5.679
 7707TIP3    H123085   6.678   4.573   5.588
 7707TIP3    H223086   6.577   4.577   5.700
 7708TIP3   OH223087   3.797   2.194   1.496
 7708TIP3    H123088   3.737   2.134   1.451
 7708TIP3    H223089   3.815   2.262   1.431
 7709TIP3   OH223090   4.036   0.473   5.602
 7709TIP3    H123091   4.091   0.438   5.530
 7709TIP3    H223092   4.036   0.403   5.667
 7710TIP3   OH223093   5.027   6.077   0.648
 7710TIP3    H123094   4.984   6.161   0.664
 7710TIP3    H223095   5.083   6.064   0.724
 7711TIP3   OH223096   6.725   4.087   1.181
 7711TIP3    H123097   6.676   4.015   1.220
 7711TIP3    H223098   6.718   4.073   1.087
 7712TIP3   OH223099   3.577   3.541   3.194
 7712TIP3    H123100   3.517   3.478   3.234
 7712TIP3    H223101   3.649   3.548   3.256
 7713TIP3   OH223102   2.220   4.752   5.454
 7713TIP3    H123103   2.214   4.847   5.465
 7713TIP3    H223104   2.261   4.739   5.369
 7714TIP3   OH223105   5.586   0.181   3.498
 7714TIP3    H123106   5.659   0.122   3.518
 7714TIP3    H223107   5.618   0.234   3.424
 7715TIP3   OH223108   2.542   2.759   5.752
 7715TIP3    H123109   2.474   2.805   5.703
 7715TIP3    H223110   2.623   2.780   5.706
 7716TIP3   OH223111   1.313   2.914   3.689
 7716TIP3    H123112   1.218   2.928   3.684
 7716TIP3    H223113   1.345   2.983   3.747
 7717TIP3   OH223114   7.176   2.542   0.301
 7717TIP3    H123115   7.230   2.619   0.320
 7717TIP3    H223116   7.148   2.555   0.211
 7718TIP3   OH223117   4.812   2.188   0.302
 7718TIP3    H123118   4.746   2.167   0.368
 7718TIP3    H223119   4.867   2.110   0.298
 7719TIP3   OH223120   6.859   3.586   1.899
 7719TIP3    H123121   6.871   3.662   1.957
 7719TIP3    H223122   6.821   3.519   1.956
 7720TIP3   OH223123   1.199   5.753   0.481
 7720TIP3    H123124   1.149   5.807   0.542
 7720TIP3    H223125   1.234   5.816   0.417
 7721TIP3   OH223126   6.565   3.613   5.823
 7721TIP3    H123127   6.579   3.694   5.773
 7721TIP3    H223128   6.621   3.623   5.900
 7722TIP3   OH223129   5.294   3.890   5.247
 7722TIP3    H123130   5.256   3.958   5.303
 7722TIP3    H223131   5.218   3.844   5.211
 7723TIP3   OH223132   5.451   3.633   2.486
 7723TIP3    H123133   5.472   3.614   2.395
 7723TIP3    H223134   5.472   3.726   2.497
 7724TIP3   OH223135   5.186   5.202   2.709
 7724TIP3    H123136   5.266   5.186   2.759
 7724TIP3    H223137   5.115   5.172   2.767
 7725TIP3   OH223138   3.713   6.006   5.446
 7725TIP3    H123139   3.786   6.003   5.383
 7725TIP3    H223140   3.747   6.058   5.519
 7726TIP3   OH223141   0.440   4.784   2.390
 7726TIP3    H123142   0.455   4.725   2.464
 7726TIP3    H223143   0.346   4.799   2.390
 7727TIP3   OH223144   4.473   0.490   3.292
 7727TIP3    H123145   4.439   0.401   3.281
 7727TIP3    H223146   4.569   0.479   3.291
 7728TIP3   OH223147   0.093   6.638   1.633
 7728TIP3    H123148   0.019   6.672   1.683
 7728TIP3    H223149   0.064   6.641   1.542
 7729TIP3   OH223150   3.394   5.271   3.001
 7729TIP3    H123151   3.411   5.184   3.036
 7729TIP3    H223152   3.299   5.275   2.989
 7730TIP3   OH223153   5.080   4.444   1.436
 7730TIP3    H123154   5.017   4.510   1.407
 7730TIP3    H223155   5.035   4.398   1.508
 7731TIP3   OH223156   2.957   4.757   4.534
 7731TIP3    H123157   3.011   4.710   4.470
 7731TIP3    H223158   2.877   4.779   4.487
 7732TIP3   OH223159   6.146   4.525   3.781
 7732TIP3    H123160   6.119   4.559   3.696
 7732TIP3    H223161   6.231   4.484   3.766
 7733TIP3   OH223162   5.750   2.029   0.609
 7733TIP3    H123163   5.827   1.982   0.641
 7733TIP3    H223164   5.748   2.012   0.515
 7734TIP3   OH223165   6.882   5.213   1.057
 7734TIP3    H123166   6.916   5.284   1.003
 7734TIP3    H223167   6.958   5.157   1.073
 7735TIP3   OH223168   0.603   5.724   1.629
 7735TIP3    H123169   0.688   5.768   1.620
 7735TIP3    H223170   0.539   5.789   1.600
 7736TIP3   OH223171   5.018   6.467   5.746
 7736TIP3    H123172   4.988   6.453   5.656
 7736TIP3    H223173   4.948   6.518   5.787
 7737TIP3   OH223174   6.651   5.366   0.962
 7737TIP3    H123175   6.723   5.306   0.983
 7737TIP3    H223176   6.689   5.428   0.900
 7738TIP3   OH223177   4.536   1.844   5.936
 7738TIP3    H123178   4.577   1.895   6.006
 7738TIP3    H223179   4.588   1.863   5.859
 7739TIP3   OH223180   5.276   4.887   2.633
 7739TIP3    H123181   5.269   4.908   2.726
 7739TIP3    H223182   5.360   4.843   2.624
 7740TIP3   OH223183   4.669   4.742   1.513
 7740TIP3    H123184   4.607   4.701   1.572
 7740TIP3    H223185   4.728   4.791   1.570
 7741TIP3   OH223186   6.019   4.947   0.992
 7741TIP3    H123187   6.071   5.006   0.936
 7741TIP3    H223188   5.973   4.890   0.931
 7742TIP3   OH223189   3.532   1.499   3.950
 7742TIP3    H123190   3.612   1.475   3.997
 7742TIP3    H223191   3.520   1.429   3.886
 7743TIP3   OH223192   5.206   4.353   2.525
 7743TIP3    H123193   5.268   4.360   2.452
 7743TIP3    H223194   5.138   4.417   2.505
 7744TIP3   OH223195   5.361   3.462   2.652
 7744TIP3    H123196   5.434   3.451   2.714
 7744TIP3    H223197   5.391   3.531   2.592
 7745TIP3   OH223198   3.388   3.996   2.459
 7745TIP3    H123199   3.384   4.091   2.471
 7745TIP3    H223200   3.479   3.978   2.437
 7746TIP3   OH223201   0.783   5.126   0.672
 7746TIP3    H123202   0.739   5.203   0.635
 7746TIP3    H223203   0.828   5.086   0.597
 7747TIP3   OH223204   6.362   0.701   2.597
 7747TIP3    H123205   6.288   0.731   2.543
 7747TIP3    H223206   6.351   0.606   2.602
 7748TIP3   OH223207   4.699   2.654   2.991
 7748TIP3    H123208   4.750   2.688   2.917
 7748TIP3    H223209   4.763   2.643   3.061
 7749TIP3   OH223210   4.521   6.517   1.114
 7749TIP3    H123211   4.457   6.562   1.059
 7749TIP3    H223212   4.606   6.537   1.073
 7750TIP3   OH223213   4.341   1.274   1.047
 7750TIP3    H123214   4.415   1.317   1.003
 7750TIP3    H223215   4.284   1.346   1.074
 7751TIP3   OH223216   0.846   3.123   1.423
 7751TIP3    H123217   0.824   3.072   1.344
 7751TIP3    H223218   0.788   3.089   1.491
 7752TIP3   OH223219   5.381   5.996   3.350
 7752TIP3    H123220   5.356   5.907   3.325
 7752TIP3    H223221   5.418   5.987   3.438
 7753TIP3   OH223222   0.551   5.490   0.995
 7753TIP3    H123223   0.466   5.464   0.959
 7753TIP3    H223224   0.567   5.577   0.959
 7754TIP3   OH223225   2.323   5.866   3.251
 7754TIP3    H123226   2.344   5.773   3.249
 7754TIP3    H223227   2.288   5.884   3.164
 7755TIP3   OH223228   6.896   2.146   5.829
 7755TIP3    H123229   6.904   2.141   5.734
 7755TIP3    H223230   6.950   2.073   5.861
 7756TIP3   OH223231   1.750   6.728   1.782
 7756TIP3    H123232   1.830   6.688   1.817
 7756TIP3    H223233   1.714   6.663   1.722
 7757TIP3   OH223234   0.203   4.916   1.997
 7757TIP3    H123235   0.241   4.876   1.919
 7757TIP3    H223236   0.249   4.999   2.007
 7758TIP3   OH223237   5.738   5.386   2.624
 7758TIP3    H123238   5.810   5.434   2.583
 7758TIP3    H223239   5.737   5.416   2.715
 7759TIP3   OH223240   1.562   1.489   4.009
 7759TIP3    H123241   1.606   1.526   3.933
 7759TIP3    H223242   1.628   1.435   4.052
 7760TIP3   OH223243   3.199   5.123   0.954
 7760TIP3    H123244   3.116   5.125   1.001
 7760TIP3    H223245   3.252   5.192   0.994
 7761TIP3   OH223246   7.097   5.142   0.369
 7761TIP3    H123247   7.173   5.118   0.316
 7761TIP3    H223248   7.101   5.083   0.444
 7762TIP3   OH223249   4.168   0.302   1.937
 7762TIP3    H123250   4.121   0.229   1.897
 7762TIP3    H223251   4.259   0.291   1.908
 7763TIP3   OH223252   1.372   1.432   0.180
 7763TIP3    H123253   1.392   1.523   0.154
 7763TIP3    H223254   1.458   1.390   0.186
 7764TIP3   OH223255   7.116   1.521   1.554
 7764TIP3    H123256   7.099   1.432   1.524
 7764TIP3    H223257   7.174   1.558   1.487
 7765TIP3   OH223258   2.999   5.397   0.152
 7765TIP3    H123259   3.026   5.398   0.060
 7765TIP3    H223260   2.951   5.479   0.164
 7766TIP3   OH223261   4.601   1.777   2.715
 7766TIP3    H123262   4.655   1.751   2.641
 7766TIP3    H223263   4.600   1.699   2.771
 7767TIP3   OH223264   4.564   6.004   2.863
 7767TIP3    H123265   4.599   6.051   2.788
 7767TIP3    H223266   4.555   5.914   2.833
 7768TIP3   OH223267   7.173   1.174   2.263
 7768TIP3    H123268   7.187   1.153   2.355
 7768TIP3    H223269   7.103   1.115   2.235
 7769TIP3   OH223270   5.399   2.751   0.243
 7769TIP3    H123271   5.457   2.826   0.230
 7769TIP3    H223272   5.372   2.727   0.155
 7770TIP3   OH223273   3.012   3.884   1.277
 7770TIP3    H123274   3.098   3.880   1.235
 7770TIP3    H223275   3.014   3.965   1.328
 7771TIP3   OH223276   6.536   5.915   2.053
 7771TIP3    H123277   6.607   5.977   2.070
 7771TIP3    H223278   6.457   5.964   2.076
 7772TIP3   OH223279   2.786   6.709   0.072
 7772TIP3    H123280   2.870   6.673   0.043
 7772TIP3    H223281   2.809   6.773   0.139
 7773TIP3   OH223282   2.195   5.951   3.011
 7773TIP3    H123283   2.250   6.025   2.985
 7773TIP3    H223284   2.112   5.965   2.965
 7774TIP3   OH223285   0.440   4.234   4.254
 7774TIP3    H123286   0.494   4.245   4.176
 7774TIP3    H223287   0.352   4.261   4.227
 7775TIP3   OH223288   1.542   5.555   5.075
 7775TIP3    H123289   1.492   5.474   5.080
 7775TIP3    H223290   1.579   5.566   5.162
 7776TIP3   OH223291   3.928   5.994   5.276
 7776TIP3    H123292   4.016   6.018   5.307
 7776TIP3    H223293   3.910   6.057   5.206
 7777TIP3   OH223294   5.969   5.077   3.402
 7777TIP3    H123295   5.899   5.015   3.386
 7777TIP3    H223296   5.960   5.142   3.332
 7778TIP3   OH223297   2.271   4.337   4.607
 7778TIP3    H123298   2.268   4.249   4.643
 7778TIP3    H223299   2.345   4.379   4.650
 7779TIP3   OH223300   1.011   3.146   4.322
 7779TIP3    H123301   0.933   3.178   4.276
 7779TIP3    H223302   1.041   3.073   4.269
 7780TIP3   OH223303   5.785   4.270   5.857
 7780TIP3    H123304   5.872   4.230   5.858
 7780TIP3    H223305   5.750   4.255   5.945
 7781TIP3   OH223306   5.017   3.310   4.853
 7781TIP3    H123307   5.032   3.297   4.760
 7781TIP3    H223308   5.051   3.398   4.870
 7782TIP3   OH223309   2.314   2.935   2.273
 7782TIP3    H123310   2.276   2.903   2.191
 7782TIP3    H223311   2.321   2.857   2.328
 7783TIP3   OH223312   1.720   2.640   2.011
 7783TIP3    H123313   1.640   2.592   2.034
 7783TIP3    H223314   1.723   2.713   2.073
 7784TIP3   OH223315   0.751   3.513   4.490
 7784TIP3    H123316   0.692   3.519   4.415
 7784TIP3    H223317   0.839   3.514   4.451
 7785TIP3   OH223318   0.787   6.341   4.423
 7785TIP3    H123319   0.707   6.377   4.460
 7785TIP3    H223320   0.761   6.255   4.390
 7786TIP3   OH223321   2.732   2.137   4.554
 7786TIP3    H123322   2.784   2.212   4.584
 7786TIP3    H223323   2.647   2.147   4.597
 7787TIP3   OH223324   2.341   2.965   1.885
 7787TIP3    H123325   2.266   2.963   1.944
 7787TIP3    H223326   2.310   2.922   1.805
 7788TIP3   OH223327   6.731   3.160   3.032
 7788TIP3    H123328   6.725   3.144   3.126
 7788TIP3    H223329   6.646   3.198   3.009
 7789TIP3   OH223330   1.324   4.603   2.760
 7789TIP3    H123331   1.381   4.674   2.728
 7789TIP3    H223332   1.335   4.605   2.855
 7790TIP3   OH223333   6.760   2.300   2.451
 7790TIP3    H123334   6.826   2.354   2.407
 7790TIP3    H223335   6.782   2.307   2.544
 7791TIP3   OH223336   4.708   1.548   0.764
 7791TIP3    H123337   4.797   1.576   0.746
 7791TIP3    H223338   4.671   1.526   0.679
 7792TIP3   OH223339   7.137   3.614   0.595
 7792TIP3    H123340   7.193   3.659   0.531
 7792TIP3    H223341   7.155   3.521   0.583
 7793TIP3   OH223342   2.283   5.448   0.664
 7793TIP3    H123343   2.373   5.454   0.695
 7793TIP3    H223344   2.240   5.525   0.700
 7794TIP3   OH223345   5.825   2.910   4.392
 7794TIP3    H123346   5.909   2.864   4.385
 7794TIP3    H223347   5.803   2.932   4.301
 7795TIP3   OH223348   0.345   0.819   0.455
 7795TIP3    H123349   0.289   0.828   0.531
 7795TIP3    H223350   0.433   0.838   0.487
 7796TIP3   OH223351   6.297   1.987   3.158
 7796TIP3    H123352   6.326   2.060   3.212
 7796TIP3    H223353   6.201   1.988   3.166
 7797TIP3   OH223354   1.046   0.092   1.997
 7797TIP3    H123355   1.096   0.096   2.079
 7797TIP3    H223356   0.975   0.031   2.015
 7798TIP3   OH223357   4.350   6.645   0.667
 7798TIP3    H123358   4.434   6.609   0.695
 7798TIP3    H223359   4.373   6.718   0.611
 7799TIP3   OH223360   0.943   3.670   1.955
 7799TIP3    H123361   0.922   3.732   1.885
 7799TIP3    H223362   1.012   3.615   1.918
 7800TIP3   OH223363   2.484   1.986   1.480
 7800TIP3    H123364   2.453   1.959   1.566
 7800TIP3    H223365   2.428   1.939   1.418
 7801TIP3   OH223366   2.919   6.128   3.155
 7801TIP3    H123367   2.874   6.176   3.225
 7801TIP3    H223368   2.947   6.046   3.197
 7802TIP3   OH223369   6.986   0.713   1.669
 7802TIP3    H123370   6.973   0.619   1.671
 7802TIP3    H223371   6.935   0.743   1.594
 7803TIP3   OH223372   3.443   5.236   1.995
 7803TIP3    H123373   3.498   5.305   1.958
 7803TIP3    H223374   3.414   5.269   2.080
 7804TIP3   OH223375   3.452   1.094   5.103
 7804TIP3    H123376   3.498   1.068   5.023
 7804TIP3    H223377   3.390   1.024   5.119
 7805TIP3   OH223378   1.918   2.488   3.620
 7805TIP3    H123379   2.012   2.499   3.606
 7805TIP3    H223380   1.912   2.435   3.700
 7806TIP3   OH223381   6.820   6.283   3.614
 7806TIP3    H123382   6.817   6.254   3.705
 7806TIP3    H223383   6.888   6.351   3.612
 7807TIP3   OH223384   5.602   0.287   4.375
 7807TIP3    H123385   5.636   0.266   4.462
 7807TIP3    H223386   5.561   0.373   4.385
 7808TIP3   OH223387   2.627   1.696   2.580
 7808TIP3    H123388   2.553   1.639   2.599
 7808TIP3    H223389   2.590   1.768   2.529
 7809TIP3   OH223390   5.986   3.649   4.207
 7809TIP3    H123391   6.039   3.598   4.268
 7809TIP3    H223392   6.028   3.637   4.122
 7810TIP3   OH223393   4.325   4.092   0.356
 7810TIP3    H123394   4.327   4.178   0.316
 7810TIP3    H223395   4.414   4.058   0.346
 7811TIP3   OH223396   7.155   0.821   4.494
 7811TIP3    H123397   7.062   0.809   4.510
 7811TIP3    H223398   7.182   0.740   4.450
 7812TIP3   OH223399   1.234   5.497   5.243
 7812TIP3    H123400   1.223   5.430   5.176
 7812TIP3    H223401   1.278   5.452   5.315
 7813TIP3   OH223402   3.331   4.521   1.466
 7813TIP3    H123403   3.259   4.514   1.529
 7813TIP3    H223404   3.405   4.551   1.518
 7814TIP3   OH223405   5.327   6.236   1.132
 7814TIP3    H123406   5.303   6.161   1.187
 7814TIP3    H223407   5.300   6.313   1.183
 7815TIP3   OH223408   4.410   2.387   1.353
 7815TIP3    H123409   4.431   2.294   1.343
 7815TIP3    H223410   4.410   2.402   1.447
 7816TIP3   OH223411   0.504   2.799   1.560
 7816TIP3    H123412   0.530   2.708   1.573
 7816TIP3    H223413   0.444   2.818   1.633
 7817TIP3   OH223414   4.204   0.606   2.281
 7817TIP3    H123415   4.272   0.541   2.298
 7817TIP3    H223416   4.169   0.627   2.368
 7818TIP3   OH223417   1.165   3.275   2.933
 7818TIP3    H123418   1.127   3.357   2.903
 7818TIP3    H223419   1.091   3.214   2.939
 7819TIP3   OH223420   2.267   6.563   2.419
 7819TIP3    H123421   2.240   6.646   2.461
 7819TIP3    H223422   2.307   6.590   2.337
 7820TIP3   OH223423   5.655   4.719   0.075
 7820TIP3    H123424   5.639   4.699   0.167
 7820TIP3    H223425   5.730   4.778   0.076
 7821TIP3   OH223426   2.629   3.231   4.956
 7821TIP3    H123427   2.603   3.205   5.044
 7821TIP3    H223428   2.644   3.148   4.910
 7822TIP3   OH223429   1.741  -0.012   4.901
 7822TIP3    H123430   1.819   0.043   4.894
 7822TIP3    H223431   1.764  -0.078   4.966
 7823TIP3   OH223432   5.785   0.429   5.631
 7823TIP3    H123433   5.721   0.497   5.652
 7823TIP3    H223434   5.749   0.385   5.554
 7824TIP3   OH223435   4.308   4.404   2.049
 7824TIP3    H123436   4.390   4.369   2.014
 7824TIP3    H223437   4.242   4.379   1.984
 7825TIP3   OH223438   3.356   2.465   2.055
 7825TIP3    H123439   3.324   2.549   2.022
 7825TIP3    H223440   3.429   2.489   2.113
 7826TIP3   OH223441   2.621   1.836   0.356
 7826TIP3    H123442   2.623   1.932   0.355
 7826TIP3    H223443   2.656   1.812   0.442
 7827TIP3   OH223444   3.597   2.462   1.456
 7827TIP3    H123445   3.510   2.437   1.487
 7827TIP3    H223446   3.595   2.446   1.362
 7828TIP3   OH223447   3.991   1.905   3.403
 7828TIP3    H123448   3.991   1.973   3.471
 7828TIP3    H223449   3.965   1.951   3.323
 7829TIP3   OH223450   5.797   1.491   0.083
 7829TIP3    H123451   5.848   1.500   0.164
 7829TIP3    H223452   5.821   1.568   0.031
 7830TIP3   OH223453   6.979   4.863   2.699
 7830TIP3    H123454   6.888   4.861   2.671
 7830TIP3    H223455   7.019   4.934   2.649
 7831TIP3   OH223456   4.137   4.726   4.302
 7831TIP3    H123457   4.126   4.670   4.378
 7831TIP3    H223458   4.087   4.805   4.323
 7832TIP3   OH223459   2.330   1.020   0.091
 7832TIP3    H123460   2.237   1.000   0.099
 7832TIP3    H223461   2.355   0.985   0.005
 7833TIP3   OH223462   6.353   5.219   4.575
 7833TIP3    H123463   6.286   5.255   4.633
 7833TIP3    H223464   6.406   5.162   4.632
 7834TIP3   OH223465   5.684   1.943   2.566
 7834TIP3    H123466   5.709   1.892   2.488
 7834TIP3    H223467   5.717   1.891   2.640
 7835TIP3   OH223468  -0.018   0.912   1.353
 7835TIP3    H123469  -0.050   0.929   1.442
 7835TIP3    H223470   0.062   0.861   1.366
 7836TIP3   OH223471   6.224   5.387   5.076
 7836TIP3    H123472   6.133   5.417   5.078
 7836TIP3    H223473   6.256   5.403   5.165
 7837TIP3   OH223474   2.352   2.709   4.306
 7837TIP3    H123475   2.346   2.801   4.332
 7837TIP3    H223476   2.315   2.661   4.381
 7838TIP3   OH223477   2.383   6.069   0.983
 7838TIP3    H123478   2.443   6.092   0.913
 7838TIP3    H223479   2.342   5.987   0.953
 7839TIP3   OH223480   4.199   6.472   0.834
 7839TIP3    H123481   4.205   6.387   0.792
 7839TIP3    H223482   4.272   6.522   0.798
 7840TIP3   OH223483   1.377   5.089   0.531
 7840TIP3    H123484   1.366   5.022   0.598
 7840TIP3    H223485   1.307   5.072   0.468
 7841TIP3   OH223486   4.779   2.161   3.999
 7841TIP3    H123487   4.721   2.232   4.027
 7841TIP3    H223488   4.723   2.104   3.946
 7842TIP3   OH223489   3.888   5.062   4.254
 7842TIP3    H123490   3.905   5.153   4.277
 7842TIP3    H223491   3.935   5.048   4.171
 7843TIP3   OH223492   4.177   5.795   0.538
 7843TIP3    H123493   4.167   5.852   0.615
 7843TIP3    H223494   4.272   5.786   0.528
 7844TIP3   OH223495   0.160   2.429   0.794
 7844TIP3    H123496   0.195   2.405   0.880
 7844TIP3    H223497   0.229   2.482   0.755
 7845TIP3   OH223498   2.903   3.296   2.140
 7845TIP3    H123499   2.989   3.277   2.178
 7845TIP3    H223500   2.908   3.262   2.051
 7846TIP3   OH223501   5.947   0.518   1.072
 7846TIP3    H123502   5.970   0.540   0.982
 7846TIP3    H223503   5.870   0.572   1.092
 7847TIP3   OH223504   4.341   6.489   4.796
 7847TIP3    H123505   4.396   6.411   4.781
 7847TIP3    H223506   4.371   6.551   4.729
 7848TIP3   OH223507   4.699   6.611   1.458
 7848TIP3    H123508   4.702   6.557   1.378
 7848TIP3    H223509   4.699   6.548   1.529
 7849TIP3   OH223510   6.239   4.114   5.046
 7849TIP3    H123511   6.183   4.038   5.059
 7849TIP3    H223512   6.313   4.082   4.994
 7850TIP3   OH223513   2.540   0.268   3.760
 7850TIP3    H123514   2.543   0.208   3.835
 7850TIP3    H223515   2.520   0.211   3.685
 7851TIP3   OH223516   5.389   4.254   4.000
 7851TIP3    H123517   5.431   4.187   3.946
 7851TIP3    H223518   5.457   4.322   4.010
 7852TIP3   OH223519   0.536   6.588   5.187
 7852TIP3    H123520   0.460   6.632   5.148
 7852TIP3    H223521   0.611   6.633   5.149
 7853TIP3   OH223522   3.340   5.435   5.311
 7853TIP3    H123523   3.364   5.345   5.332
 7853TIP3    H223524   3.344   5.482   5.394
 7854TIP3   OH223525   1.931   5.966   1.026
 7854TIP3    H123526   1.952   6.025   1.099
 7854TIP3    H223527   1.980   5.886   1.045
 7855TIP3   OH223528   0.496   1.755   3.137
 7855TIP3    H123529   0.477   1.795   3.052
 7855TIP3    H223530   0.414   1.711   3.161
 7856TIP3   OH223531   4.473   0.698   5.524
 7856TIP3    H123532   4.512   0.762   5.466
 7856TIP3    H223533   4.411   0.650   5.469
 7857TIP3   OH223534   1.775   3.523   0.883
 7857TIP3    H123535   1.828   3.458   0.928
 7857TIP3    H223536   1.839   3.576   0.835
 7858TIP3   OH223537   2.589   0.637   0.690
 7858TIP3    H123538   2.578   0.641   0.595
 7858TIP3    H223539   2.545   0.556   0.716
 7859TIP3   OH223540   2.357   1.446   2.326
 7859TIP3    H123541   2.369   1.496   2.407
 7859TIP3    H223542   2.446   1.423   2.299
 7860TIP3   OH223543   0.947   0.981   0.548
 7860TIP3    H123544   0.855   0.958   0.532
 7860TIP3    H223545   0.968   0.938   0.630
 7861TIP3   OH223546   5.181   5.302   3.823
 7861TIP3    H123547   5.235   5.365   3.870
 7861TIP3    H223548   5.218   5.217   3.848
 7862TIP3   OH223549   1.836   6.336   0.028
 7862TIP3    H123550   1.754   6.351   0.074
 7862TIP3    H223551   1.849   6.241   0.032
 7863TIP3   OH223552   0.424   2.925   3.905
 7863TIP3    H123553   0.391   2.867   3.974
 7863TIP3    H223554   0.364   3.000   3.906
 7864TIP3   OH223555   6.979   2.221   2.086
 7864TIP3    H123556   7.020   2.180   2.162
 7864TIP3    H223557   7.043   2.211   2.016
 7865TIP3   OH223558   4.455   6.333   4.411
 7865TIP3    H123559   4.458   6.428   4.402
 7865TIP3    H223560   4.444   6.318   4.505
 7866TIP3   OH223561   7.188   4.312   1.455
 7866TIP3    H123562   7.253   4.304   1.385
 7866TIP3    H223563   7.185   4.405   1.475
 7867TIP3   OH223564   3.491   1.707   1.108
 7867TIP3    H123565   3.524   1.734   1.193
 7867TIP3    H223566   3.569   1.701   1.052
 7868TIP3   OH223567   2.793   4.503   3.373
 7868TIP3    H123568   2.764   4.534   3.287
 7868TIP3    H223569   2.814   4.582   3.422
 7869TIP3   OH223570   1.638   4.341   0.633
 7869TIP3    H123571   1.552   4.377   0.609
 7869TIP3    H223572   1.623   4.247   0.643
 7870TIP3   OH223573   6.436   2.899   5.572
 7870TIP3    H123574   6.390   2.821   5.541
 7870TIP3    H223575   6.529   2.879   5.560
 7871TIP3   OH223576   5.354   0.354   2.694
 7871TIP3    H123577   5.432   0.339   2.748
 7871TIP3    H223578   5.362   0.446   2.667
 7872TIP3   OH223579   0.402   3.713   2.445
 7872TIP3    H123580   0.388   3.682   2.356
 7872TIP3    H223581   0.484   3.672   2.473
 7873TIP3   OH223582   2.025   1.999   2.503
 7873TIP3    H123583   1.947   1.962   2.544
 7873TIP3    H223584   2.035   2.086   2.543
 7874TIP3   OH223585   4.585   5.154   5.278
 7874TIP3    H123586   4.569   5.247   5.294
 7874TIP3    H223587   4.637   5.151   5.199
 7875TIP3   OH223588   6.064   5.497   3.457
 7875TIP3    H123589   6.088   5.588   3.474
 7875TIP3    H223590   5.970   5.500   3.441
 7876TIP3   OH223591   2.844   3.913   1.029
 7876TIP3    H123592   2.815   3.828   0.995
 7876TIP3    H223593   2.887   3.892   1.112
 7877TIP3   OH223594   5.218   0.843   0.791
 7877TIP3    H123595   5.266   0.766   0.820
 7877TIP3    H223596   5.162   0.812   0.719
 7878TIP3   OH223597   2.149   4.524   1.343
 7878TIP3    H123598   2.068   4.556   1.382
 7878TIP3    H223599   2.126   4.503   1.253
 7879TIP3   OH223600   4.642   2.253   2.249
 7879TIP3    H123601   4.669   2.345   2.251
 7879TIP3    H223602   4.647   2.225   2.340
 7880TIP3   OH223603   0.944   4.679   4.698
 7880TIP3    H123604   0.974   4.746   4.637
 7880TIP3    H223605   0.901   4.728   4.768
 7881TIP3   OH223606   6.041   4.637   5.744
 7881TIP3    H123607   6.111   4.702   5.753
 7881TIP3    H223608   6.068   4.565   5.801
 7882TIP3   OH223609   5.870   4.557   3.827
 7882TIP3    H123610   5.964   4.547   3.842
 7882TIP3    H223611   5.848   4.487   3.765
 7883TIP3   OH223612   6.667   0.189   1.209
 7883TIP3    H123613   6.640   0.150   1.292
 7883TIP3    H223614   6.585   0.217   1.167
 7884TIP3   OH223615   0.633   1.096   2.821
 7884TIP3    H123616   0.638   1.171   2.761
 7884TIP3    H223617   0.667   1.130   2.904
 7885TIP3   OH223618   0.575   4.287   3.092
 7885TIP3    H123619   0.500   4.291   3.151
 7885TIP3    H223620   0.542   4.246   3.013
 7886TIP3   OH223621   7.082   5.323   2.659
 7886TIP3    H123622   7.097   5.378   2.582
 7886TIP3    H223623   6.989   5.303   2.657
 7887TIP3   OH223624   1.593   0.570   5.726
 7887TIP3    H123625   1.521   0.621   5.688
 7887TIP3    H223626   1.641   0.633   5.780
 7888TIP3   OH223627   1.149   1.228   1.259
 7888TIP3    H123628   1.119   1.316   1.237
 7888TIP3    H223629   1.243   1.229   1.238
 7889TIP3   OH223630   2.167   4.738   0.747
 7889TIP3    H123631   2.129   4.813   0.701
 7889TIP3    H223632   2.204   4.775   0.827
 7890TIP3   OH223633   2.160   4.809   1.082
 7890TIP3    H123634   2.224   4.750   1.043
 7890TIP3    H223635   2.177   4.804   1.176
 7891TIP3   OH223636   4.252   4.613   5.843
 7891TIP3    H123637   4.325   4.671   5.819
 7891TIP3    H223638   4.282   4.567   5.920
 7892TIP3   OH223639   7.010   1.286   3.914
 7892TIP3    H123640   6.935   1.278   3.856
 7892TIP3    H223641   6.982   1.348   3.981
 7893TIP3   OH223642   0.091   3.485   2.373
 7893TIP3    H123643   0.119   3.570   2.408
 7893TIP3    H223644   0.040   3.446   2.444
 7894TIP3   OH223645   1.225   0.964   0.065
 7894TIP3    H123646   1.179   0.978   0.148
 7894TIP3    H223647   1.240   1.052   0.031
 7895TIP3   OH223648   3.563   4.694   2.824
 7895TIP3    H123649   3.626   4.624   2.841
 7895TIP3    H223650   3.478   4.655   2.844
 7896TIP3   OH223651   6.814   5.371   5.592
 7896TIP3    H123652   6.879   5.359   5.522
 7896TIP3    H223653   6.850   5.443   5.645
 7897TIP3   OH223654   1.808   5.376   5.646
 7897TIP3    H123655   1.774   5.308   5.587
 7897TIP3    H223656   1.841   5.444   5.587
 7898TIP3   OH223657   2.778   5.108   4.623
 7898TIP3    H123658   2.735   5.042   4.568
 7898TIP3    H223659   2.869   5.079   4.630
 7899TIP3   OH223660   5.815   4.974   0.125
 7899TIP3    H123661   5.900   5.018   0.122
 7899TIP3    H223662   5.755   5.035   0.082
 7900TIP3   OH223663   3.676   6.024   3.999
 7900TIP3    H123664   3.644   6.029   4.089
 7900TIP3    H223665   3.759   5.977   4.005
 7901TIP3   OH223666   0.710   3.737   3.711
 7901TIP3    H123667   0.669   3.665   3.664
 7901TIP3    H223668   0.765   3.781   3.645
 7902TIP3   OH223669   5.455   5.414   2.836
 7902TIP3    H123670   5.428   5.322   2.829
 7902TIP3    H223671   5.432   5.439   2.926
 7903TIP3   OH223672   4.810   1.400   1.328
 7903TIP3    H123673   4.755   1.461   1.279
 7903TIP3    H223674   4.822   1.326   1.269
 7904TIP3   OH223675   3.191   6.205   4.399
 7904TIP3    H123676   3.261   6.215   4.334
 7904TIP3    H223677   3.180   6.110   4.408
 7905TIP3   OH223678   1.370   2.456   5.797
 7905TIP3    H123679   1.373   2.512   5.719
 7905TIP3    H223680   1.440   2.393   5.785
 7906TIP3   OH223681   6.655   0.755   5.939
 7906TIP3    H123682   6.616   0.832   5.899
 7906TIP3    H223683   6.693   0.706   5.866
 7907TIP3   OH223684   4.592   1.619   2.423
 7907TIP3    H123685   4.582   1.667   2.341
 7907TIP3    H223686   4.686   1.626   2.443
 7908TIP3   OH223687   2.744   5.456   5.415
 7908TIP3    H123688   2.767   5.370   5.448
 7908TIP3    H223689   2.826   5.505   5.417
 7909TIP3   OH223690   3.341   2.332   1.490
 7909TIP3    H123691   3.339   2.312   1.396
 7909TIP3    H223692   3.257   2.374   1.507
 7910TIP3   OH223693   6.001   1.226   3.432
 7910TIP3    H123694   6.024   1.273   3.352
 7910TIP3    H223695   6.084   1.198   3.469
 7911TIP3   OH223696   5.974   0.865   1.148
 7911TIP3    H123697   5.966   0.786   1.094
 7911TIP3    H223698   6.012   0.931   1.090
 7912TIP3   OH223699   4.764   1.556   4.675
 7912TIP3    H123700   4.852   1.574   4.641
 7912TIP3    H223701   4.779   1.524   4.764
 7913TIP3   OH223702   4.948   4.330   1.847
 7913TIP3    H123703   4.916   4.419   1.828
 7913TIP3    H223704   4.896   4.274   1.789
 7914TIP3   OH223705   7.151   2.766   2.117
 7914TIP3    H123706   7.228   2.775   2.174
 7914TIP3    H223707   7.077   2.764   2.178
 7915TIP3   OH223708   2.700   1.242   4.088
 7915TIP3    H123709   2.747   1.179   4.034
 7915TIP3    H223710   2.724   1.327   4.051
 7916TIP3   OH223711   3.832   5.394   0.492
 7916TIP3    H123712   3.860   5.349   0.572
 7916TIP3    H223713   3.878   5.349   0.422
 7917TIP3   OH223714   4.692   4.316   4.556
 7917TIP3    H123715   4.660   4.345   4.641
 7917TIP3    H223716   4.628   4.249   4.529
 7918TIP3   OH223717   4.576   5.270   3.351
 7918TIP3    H123718   4.656   5.285   3.402
 7918TIP3    H223719   4.586   5.180   3.317
 7919TIP3   OH223720   5.438   6.765   3.263
 7919TIP3    H123721   5.345   6.768   3.242
 7919TIP3    H223722   5.446   6.820   3.341
 7920TIP3   OH223723  -0.018   3.706   2.831
 7920TIP3    H123724  -0.038   3.615   2.812
 7920TIP3    H223725  -0.097   3.754   2.808
 7921TIP3   OH223726   1.813   3.013   4.833
 7921TIP3    H123727   1.804   2.920   4.858
 7921TIP3    H223728   1.895   3.041   4.874
 7922TIP3   OH223729   1.785   0.178   3.386
 7922TIP3    H123730   1.780   0.192   3.480
 7922TIP3    H223731   1.731   0.248   3.349
 7923TIP3   OH223732   1.563   4.083   0.665
 7923TIP3    H123733   1.530   4.089   0.755
 7923TIP3    H223734   1.579   3.990   0.652
 7924TIP3   OH223735   4.380   0.810   0.957
 7924TIP3    H123736   4.338   0.894   0.940
 7924TIP3    H223737   4.346   0.751   0.890
 7925TIP3   OH223738   1.027   0.520   5.085
 7925TIP3    H123739   1.054   0.565   5.005
 7925TIP3    H223740   0.931   0.519   5.080
 7926TIP3   OH223741   1.634   1.329   5.768
 7926TIP3    H123742   1.680   1.366   5.844
 7926TIP3    H223743   1.602   1.406   5.721
 7927TIP3   OH223744   3.498   0.792   0.304
 7927TIP3    H123745   3.476   0.702   0.326
 7927TIP3    H223746   3.463   0.844   0.377
 7928TIP3   OH223747   3.603   2.841   0.278
 7928TIP3    H123748   3.646   2.763   0.242
 7928TIP3    H223749   3.514   2.837   0.242
 7929TIP3   OH223750   3.729   4.979   0.601
 7929TIP3    H123751   3.789   4.905   0.588
 7929TIP3    H223752   3.783   5.047   0.640
 7930TIP3   OH223753   3.754   2.612   2.738
 7930TIP3    H123754   3.761   2.562   2.819
 7930TIP3    H223755   3.694   2.684   2.760
 7931TIP3   OH223756   4.993   5.526   3.982
 7931TIP3    H123757   5.083   5.528   4.015
 7931TIP3    H223758   4.997   5.472   3.904
 7932TIP3   OH223759   0.656   1.707   0.843
 7932TIP3    H123760   0.749   1.729   0.854
 7932TIP3    H223761   0.655   1.611   0.844
 7933TIP3   OH223762   1.697   0.704   2.301
 7933TIP3    H123763   1.655   0.736   2.381
 7933TIP3    H223764   1.716   0.783   2.250
 7934TIP3   OH223765   1.904   0.456   1.182
 7934TIP3    H123766   1.863   0.515   1.118
 7934TIP3    H223767   1.982   0.423   1.138
 7935TIP3   OH223768   6.220   5.408   5.864
 7935TIP3    H123769   6.285   5.471   5.892
 7935TIP3    H223770   6.143   5.461   5.841
 7936TIP3   OH223771   2.097   0.485   4.296
 7936TIP3    H123772   2.083   0.557   4.234
 7936TIP3    H223773   2.192   0.473   4.297
 7937TIP3   OH223774   6.061   2.386   5.637
 7937TIP3    H123775   6.119   2.460   5.615
 7937TIP3    H223776   6.104   2.310   5.598
 7938TIP3   OH223777   6.604   5.258   5.738
 7938TIP3    H123778   6.635   5.306   5.814
 7938TIP3    H223779   6.675   5.265   5.674
 7939TIP3   OH223780   5.546   3.024   4.324
 7939TIP3    H123781   5.490   3.049   4.250
 7939TIP3    H223782   5.612   3.093   4.329
 7940TIP3   OH223783   2.136   2.981   3.261
 7940TIP3    H123784   2.216   2.974   3.312
 7940TIP3    H223785   2.077   2.916   3.299
 7941TIP3   OH223786   6.665   3.421   3.714
 7941TIP3    H123787   6.618   3.441   3.795
 7941TIP3    H223788   6.658   3.326   3.705
 7942TIP3   OH223789   0.096   6.192   4.362
 7942TIP3    H123790   0.027   6.239   4.408
 7942TIP3    H223791   0.176   6.213   4.409
 7943TIP3   OH223792   6.437   0.597   0.399
 7943TIP3    H123793   6.468   0.679   0.363
 7943TIP3    H223794   6.352   0.583   0.358
 7944TIP3   OH223795   6.716   4.990   4.324
 7944TIP3    H123796   6.717   4.957   4.414
 7944TIP3    H223797   6.747   5.080   4.331
 7945TIP3   OH223798   5.832   3.709   4.775
 7945TIP3    H123799   5.852   3.721   4.681
 7945TIP3    H223800   5.860   3.791   4.815
 7946TIP3   OH223801   0.682   5.478   5.597
 7946TIP3    H123802   0.744   5.549   5.581
 7946TIP3    H223803   0.735   5.407   5.631
 7947TIP3   OH223804   0.112   3.594   5.038
 7947TIP3    H123805   0.190   3.569   4.989
 7947TIP3    H223806   0.092   3.683   5.009
 7948TIP3   OH223807   1.171   0.327   0.400
 7948TIP3    H123808   1.193   0.413   0.436
 7948TIP3    H223809   1.245   0.306   0.342
 7949TIP3   OH223810   0.546   6.430   1.902
 7949TIP3    H123811   0.559   6.348   1.950
 7949TIP3    H223812   0.452   6.432   1.882
 7950TIP3   OH223813   4.552   3.107   1.766
 7950TIP3    H123814   4.621   3.117   1.833
 7950TIP3    H223815   4.472   3.097   1.817
 7951TIP3   OH223816   1.197   6.787   1.552
 7951TIP3    H123817   1.130   6.719   1.553
 7951TIP3    H223818   1.241   6.777   1.468
 7952TIP3   OH223819   1.372   3.375   0.603
 7952TIP3    H123820   1.364   3.306   0.669
 7952TIP3    H223821   1.435   3.340   0.539
 7953TIP3   OH223822   2.494   0.520   1.240
 7953TIP3    H123823   2.400   0.504   1.237
 7953TIP3    H223824   2.534   0.433   1.241
 7954TIP3   OH223825   0.230   0.830   5.536
 7954TIP3    H123826   0.195   0.796   5.454
 7954TIP3    H223827   0.154   0.865   5.582
 7955TIP3   OH223828   4.683   2.736   1.614
 7955TIP3    H123829   4.642   2.747   1.528
 7955TIP3    H223830   4.770   2.703   1.595
 7956TIP3   OH223831   6.247   6.697   2.578
 7956TIP3    H123832   6.170   6.681   2.632
 7956TIP3    H223833   6.256   6.617   2.525
 7957TIP3   OH223834   3.423   2.202   0.359
 7957TIP3    H123835   3.376   2.191   0.442
 7957TIP3    H223836   3.439   2.296   0.354
 7958TIP3   OH223837   2.316   0.251   5.699
 7958TIP3    H123838   2.280   0.170   5.735
 7958TIP3    H223839   2.330   0.307   5.775
 7959TIP3   OH223840   3.447   3.559   0.010
 7959TIP3    H123841   3.486   3.508   0.082
 7959TIP3    H223842   3.518   3.614  -0.021
 7960TIP3   OH223843   6.849   1.178   0.086
 7960TIP3    H123844   6.839   1.119   0.160
 7960TIP3    H223845   6.896   1.254   0.121
 7961TIP3   OH223846   6.422   4.477   5.760
 7961TIP3    H123847   6.348   4.490   5.820
 7961TIP3    H223848   6.386   4.498   5.674
 7962TIP3   OH223849   2.262   2.568   5.462
 7962TIP3    H123850   2.347   2.566   5.418
 7962TIP3    H223851   2.282   2.580   5.554
 7963TIP3   OH223852   5.434   4.515   1.937
 7963TIP3    H123853   5.365   4.578   1.917
 7963TIP3    H223854   5.401   4.431   1.906
 7964TIP3   OH223855   5.078   4.535   2.907
 7964TIP3    H123856   5.054   4.511   2.997
 7964TIP3    H223857   5.137   4.466   2.878
 7965TIP3   OH223858   6.704   6.276   0.817
 7965TIP3    H123859   6.617   6.310   0.836
 7965TIP3    H223860   6.715   6.202   0.877
 7966TIP3   OH223861   4.164   6.595   3.626
 7966TIP3    H123862   4.144   6.513   3.671
 7966TIP3    H223863   4.199   6.568   3.541
 7967TIP3   OH223864   2.575   0.613   4.795
 7967TIP3    H123865   2.670   0.612   4.791
 7967TIP3    H223866   2.549   0.676   4.727
 7968TIP3   OH223867   6.396   6.538   0.278
 7968TIP3    H123868   6.451   6.460   0.268
 7968TIP3    H223869   6.458   6.610   0.284
 7969TIP3   OH223870   0.126   2.498   5.011
 7969TIP3    H123871   0.047   2.551   5.021
 7969TIP3    H223872   0.146   2.467   5.100
 7970TIP3   OH223873   4.114   5.981   1.817
 7970TIP3    H123874   4.136   5.934   1.897
 7970TIP3    H223875   4.156   6.066   1.827
 7971TIP3   OH223876   6.197   2.535   4.810
 7971TIP3    H123877   6.275   2.504   4.764
 7971TIP3    H223878   6.191   2.480   4.888
 7972TIP3   OH223879   1.866   1.551   3.602
 7972TIP3    H123880   1.941   1.491   3.598
 7972TIP3    H223881   1.800   1.511   3.545
 7973TIP3   OH223882   6.535   3.171   3.666
 7973TIP3    H123883   6.576   3.128   3.741
 7973TIP3    H223884   6.528   3.102   3.600
 7974TIP3   OH223885   5.651   0.640   0.839
 7974TIP3    H123886   5.649   0.731   0.809
 7974TIP3    H223887   5.563   0.607   0.820
 7975TIP3   OH223888   6.334   3.891   3.256
 7975TIP3    H123889   6.398   3.863   3.321
 7975TIP3    H223890   6.297   3.810   3.221
 7976TIP3   OH223891   4.858   0.616   4.305
 7976TIP3    H123892   4.911   0.694   4.325
 7976TIP3    H223893   4.773   0.651   4.280
 7977TIP3   OH223894   1.025   0.714   2.039
 7977TIP3    H123895   0.972   0.789   2.067
 7977TIP3    H223896   0.961   0.652   2.003
 7978TIP3   OH223897   2.106   6.100   1.563
 7978TIP3    H123898   2.162   6.171   1.534
 7978TIP3    H223899   2.078   6.126   1.651
 7979TIP3   OH223900   5.965   6.473   3.020
 7979TIP3    H123901   5.885   6.420   3.014
 7979TIP3    H223902   5.933   6.562   3.037
 7980TIP3   OH223903   1.485   5.700   2.854
 7980TIP3    H123904   1.398   5.702   2.893
 7980TIP3    H223905   1.478   5.637   2.782
 7981TIP3   OH223906   4.090   4.672   5.606
 7981TIP3    H123907   4.010   4.626   5.630
 7981TIP3    H223908   4.150   4.655   5.679
 7982TIP3   OH223909   7.159   1.552   3.181
 7982TIP3    H123910   7.130   1.590   3.264
 7982TIP3    H223911   7.085   1.565   3.122
 7983TIP3   OH223912   3.595   5.768   3.384
 7983TIP3    H123913   3.673   5.786   3.438
 7983TIP3    H223914   3.631   5.748   3.298
 7984TIP3   OH223915   3.893   5.336   4.298
 7984TIP3    H123916   3.917   5.428   4.290
 7984TIP3    H223917   3.815   5.336   4.353
 7985TIP3   OH223918   3.496   4.198   2.678
 7985TIP3    H123919   3.554   4.271   2.697
 7985TIP3    H223920   3.408   4.235   2.680
 7986TIP3   OH223921   0.645   0.213   4.301
 7986TIP3    H123922   0.663   0.200   4.394
 7986TIP3    H223923   0.648   0.308   4.289
 7987TIP3   OH223924   2.099   6.350   2.070
 7987TIP3    H123925   2.108   6.436   2.028
 7987TIP3    H223926   2.043   6.367   2.146
 7988TIP3   OH223927   2.832   3.830   5.528
 7988TIP3    H123928   2.848   3.872   5.444
 7988TIP3    H223929   2.917   3.793   5.554
 7989TIP3   OH223930   3.837   1.204   1.435
 7989TIP3    H123931   3.922   1.180   1.399
 7989TIP3    H223932   3.858   1.247   1.518
 7990TIP3   OH223933   3.038   1.925   0.992
 7990TIP3    H123934   3.097   1.935   0.917
 7990TIP3    H223935   3.042   2.008   1.038
 7991TIP3   OH223936   2.945   2.609   4.944
 7991TIP3    H123937   2.918   2.698   4.967
 7991TIP3    H223938   3.026   2.621   4.894
 7992TIP3   OH223939   4.468   4.829   0.955
 7992TIP3    H123940   4.406   4.763   0.924
 7992TIP3    H223941   4.434   4.912   0.923
 7993TIP3   OH223942   4.851   6.196   5.153
 7993TIP3    H123943   4.792   6.204   5.078
 7993TIP3    H223944   4.830   6.272   5.207
 7994TIP3   OH223945   6.935   0.615   3.354
 7994TIP3    H123946   6.868   0.552   3.379
 7994TIP3    H223947   7.015   0.581   3.395
 7995TIP3   OH223948   1.011   2.110   3.463
 7995TIP3    H123949   0.985   2.202   3.460
 7995TIP3    H223950   0.947   2.069   3.522
 7996TIP3   OH223951   5.535   2.501   1.604
 7996TIP3    H123952   5.522   2.443   1.679
 7996TIP3    H223953   5.486   2.580   1.627
 7997TIP3   OH223954   0.071   2.942   1.574
 7997TIP3    H123955   0.098   2.858   1.609
 7997TIP3    H223956   0.144   2.971   1.520
 7998TIP3   OH223957   0.635   5.509   1.808
 7998TIP3    H123958   0.603   5.576   1.748
 7998TIP3    H223959   0.582   5.520   1.886
 7999TIP3   OH223960   5.707   5.910   5.872
 7999TIP3    H123961   5.631   5.866   5.834
 7999TIP3    H223962   5.693   5.903   5.967
 8000TIP3   OH223963   2.763   0.426   1.657
 8000TIP3    H123964   2.829   0.357   1.659
 8000TIP3    H223965   2.735   0.430   1.566
 8001TIP3   OH223966   5.669   1.408   0.757
 8001TIP3    H123967   5.754   1.367   0.738
 8001TIP3    H223968   5.673   1.492   0.711
 8002TIP3   OH223969   5.400   1.108   3.052
 8002TIP3    H123970   5.400   1.082   3.144
 8002TIP3    H223971   5.486   1.082   3.019
 8003TIP3   OH223972   2.320   4.991   1.997
 8003TIP3    H123973   2.337   4.974   1.904
 8003TIP3    H223974   2.306   4.904   2.035
 8004TIP3   OH223975   4.656   4.953   4.629
 8004TIP3    H123976   4.610   5.022   4.676
 8004TIP3    H223977   4.657   4.982   4.537
 8005TIP3   OH223978   1.654   2.390   3.679
 8005TIP3    H123979   1.709   2.391   3.601
 8005TIP3    H223980   1.661   2.479   3.714
 8006TIP3   OH223981   2.855   6.096   4.332
 8006TIP3    H123982   2.891   6.040   4.400
 8006TIP3    H223983   2.785   6.043   4.292
 8007TIP3   OH223984   1.115   6.113   0.006
 8007TIP3    H123985   1.021   6.130   0.015
 8007TIP3    H223986   1.123   6.019   0.024
 8008TIP3   OH223987   1.952   3.456   4.486
 8008TIP3    H123988   1.919   3.542   4.462
 8008TIP3    H223989   1.882   3.396   4.463
 8009TIP3   OH223990   0.803   5.991   0.121
 8009TIP3    H123991   0.755   5.912   0.146
 8009TIP3    H223992   0.886   5.985   0.169
 8010TIP3   OH223993   4.763   3.278   4.968
 8010TIP3    H123994   4.712   3.266   4.888
 8010TIP3    H223995   4.853   3.292   4.938
 8011TIP3   OH223996   0.423   2.319   2.915
 8011TIP3    H123997   0.494   2.292   2.974
 8011TIP3    H223998   0.468   2.353   2.837
 8012TIP3   OH223999   2.705   5.838   0.766
 8012TIP3    H124000   2.640   5.770   0.780
 8012TIP3    H224001   2.779   5.813   0.821
 8013TIP3   OH224002   4.683   3.549   5.479
 8013TIP3    H124003   4.744   3.497   5.533
 8013TIP3    H224004   4.740   3.603   5.425
 8014TIP3   OH224005   5.883   1.877   1.566
 8014TIP3    H124006   5.869   1.873   1.472
 8014TIP3    H224007   5.893   1.970   1.585
 8015TIP3   OH224008   4.451   4.290   2.642
 8015TIP3    H124009   4.469   4.283   2.548
 8015TIP3    H224010   4.495   4.371   2.668
 8016TIP3   OH224011   5.909   3.694   4.485
 8016TIP3    H124012   5.926   3.606   4.517
 8016TIP3    H224013   5.922   3.689   4.391
 8017TIP3   OH224014   3.581   1.333   1.534
 8017TIP3    H124015   3.579   1.275   1.458
 8017TIP3    H224016   3.626   1.283   1.602
 8018TIP3   OH224017   4.824   0.133   1.870
 8018TIP3    H124018   4.889   0.093   1.928
 8018TIP3    H224019   4.743   0.132   1.920
 8019TIP3   OH224020   0.348   5.469   1.213
 8019TIP3    H124021   0.395   5.492   1.133
 8019TIP3    H224022   0.415   5.467   1.281
 8020TIP3   OH224023   7.173   1.757   4.652
 8020TIP3    H124024   7.119   1.685   4.686
 8020TIP3    H224025   7.250   1.757   4.709
 8021TIP3   OH224026   5.780   4.988   2.332
 8021TIP3    H124027   5.871   4.976   2.358
 8021TIP3    H224028   5.783   5.046   2.256
 8022TIP3   OH224029   2.557   4.743   3.950
 8022TIP3    H124030   2.469   4.736   3.912
 8022TIP3    H224031   2.540   4.758   4.044
 8023TIP3   OH224032   4.684   0.781   0.970
 8023TIP3    H124033   4.592   0.801   0.954
 8023TIP3    H224034   4.688   0.686   0.974
 8024TIP3   OH224035   3.932   4.568   4.933
 8024TIP3    H124036   3.861   4.558   4.868
 8024TIP3    H224037   3.917   4.655   4.970
 8025TIP3   OH224038   2.477   3.801   4.215
 8025TIP3    H124039   2.531   3.740   4.165
 8025TIP3    H224040   2.510   3.796   4.304
 8026TIP3   OH224041   3.974   1.554   4.276
 8026TIP3    H124042   3.977   1.591   4.188
 8026TIP3    H224043   4.064   1.525   4.292
 8027TIP3   OH224044   5.281   4.985   0.097
 8027TIP3    H124045   5.252   5.063   0.050
 8027TIP3    H224046   5.298   4.920   0.029
 8028TIP3   OH224047   3.972   3.657   2.296
 8028TIP3    H124048   4.050   3.700   2.260
 8028TIP3    H224049   3.970   3.571   2.253
 8029TIP3   OH224050   3.741   1.573   1.568
 8029TIP3    H124051   3.682   1.505   1.536
 8029TIP3    H224052   3.723   1.579   1.661
 8030TIP3   OH224053   0.411   0.112   5.436
 8030TIP3    H124054   0.338   0.150   5.485
 8030TIP3    H224055   0.483   0.106   5.500
 8031TIP3   OH224056   0.947   6.516   0.577
 8031TIP3    H124057   1.020   6.573   0.602
 8031TIP3    H224058   0.923   6.545   0.489
 8032TIP3   OH224059   1.729   6.079   0.840
 8032TIP3    H124060   1.811   6.033   0.856
 8032TIP3    H224061   1.661   6.013   0.853
 8033TIP3   OH224062   3.078   0.541   5.848
 8033TIP3    H124063   2.999   0.577   5.809
 8033TIP3    H224064   3.149   0.596   5.814
 8034TIP3   OH224065   3.438   1.455   3.649
 8034TIP3    H124066   3.441   1.421   3.560
 8034TIP3    H224067   3.454   1.549   3.639
 8035TIP3   OH224068   4.717   1.235   3.692
 8035TIP3    H124069   4.750   1.201   3.776
 8035TIP3    H224070   4.744   1.170   3.628
 8036TIP3   OH224071   6.678   3.430   1.227
 8036TIP3    H124072   6.768   3.460   1.232
 8036TIP3    H224073   6.664   3.385   1.311
 8037TIP3   OH224074   0.139   4.766   4.633
 8037TIP3    H124075   0.131   4.692   4.574
 8037TIP3    H224076   0.128   4.843   4.577
 8038TIP3   OH224077   0.654   2.518   1.912
 8038TIP3    H124078   0.595   2.565   1.971
 8038TIP3    H224079   0.736   2.512   1.959
 8039TIP3   OH224080   2.330   1.967   3.531
 8039TIP3    H124081   2.418   1.944   3.558
 8039TIP3    H224082   2.318   2.058   3.560
 8040TIP3   OH224083   4.799   0.469   1.239
 8040TIP3    H124084   4.859   0.463   1.164
 8040TIP3    H224085   4.720   0.425   1.210
 8041TIP3   OH224086   4.159   1.400   1.681
 8041TIP3    H124087   4.116   1.448   1.752
 8041TIP3    H224088   4.166   1.311   1.714
 8042TIP3   OH224089   5.143   5.458   2.807
 8042TIP3    H124090   5.198   5.395   2.761
 8042TIP3    H224091   5.183   5.543   2.787
 8043TIP3   OH224092   3.770   3.639   1.277
 8043TIP3    H124093   3.684   3.597   1.282
 8043TIP3    H224094   3.821   3.596   1.346
 8044TIP3   OH224095   4.251   0.822   1.725
 8044TIP3    H124096   4.216   0.734   1.711
 8044TIP3    H224097   4.342   0.816   1.694
 8045TIP3   OH224098   1.234   2.769   3.962
 8045TIP3    H124099   1.242   2.804   3.873
 8045TIP3    H224100   1.139   2.758   3.974
 8046TIP3   OH224101   3.551  -0.002   3.425
 8046TIP3    H124102   3.514  -0.081   3.464
 8046TIP3    H224103   3.480   0.034   3.371
 8047TIP3   OH224104   3.757   2.682   4.160
 8047TIP3    H124105   3.671   2.640   4.160
 8047TIP3    H224106   3.817   2.612   4.184
 8048TIP3   OH224107   1.129   3.291   5.042
 8048TIP3    H124108   1.096   3.378   5.020
 8048TIP3    H224109   1.096   3.234   4.972
 8049TIP3   OH224110   7.191   1.113   1.186
 8049TIP3    H124111   7.193   1.021   1.212
 8049TIP3    H224112   7.223   1.161   1.263
 8050TIP3   OH224113   4.911   0.462   4.568
 8050TIP3    H124114   4.996   0.488   4.603
 8050TIP3    H224115   4.914   0.488   4.476
 8051TIP3   OH224116   1.475   1.645   1.966
 8051TIP3    H124117   1.444   1.732   1.990
 8051TIP3    H224118   1.538   1.622   2.034
 8052TIP3   OH224119   2.377   0.203   1.403
 8052TIP3    H124120   2.424   0.277   1.442
 8052TIP3    H224121   2.445   0.139   1.382
 8053TIP3   OH224122   5.616   0.652   1.396
 8053TIP3    H124123   5.549   0.584   1.405
 8053TIP3    H224124   5.698   0.607   1.414
 8054TIP3   OH224125   1.892   6.461   4.418
 8054TIP3    H124126   1.959   6.491   4.479
 8054TIP3    H224127   1.828   6.532   4.415
 8055TIP3   OH224128   2.556   1.832   4.711
 8055TIP3    H124129   2.576   1.786   4.793
 8055TIP3    H224130   2.520   1.765   4.654
 8056TIP3   OH224131   3.816   3.326   0.033
 8056TIP3    H124132   3.883   3.262   0.007
 8056TIP3    H224133   3.799   3.376  -0.046
 8057TIP3   OH224134   0.413   5.177   4.833
 8057TIP3    H124135   0.480   5.169   4.765
 8057TIP3    H224136   0.351   5.240   4.797
 8058TIP3   OH224137   6.943   0.025   3.660
 8058TIP3    H124138   6.891   0.076   3.599
 8058TIP3    H224139   6.929   0.066   3.745
 8059TIP3   OH224140  -0.023   2.146   0.504
 8059TIP3    H124141   0.064   2.179   0.525
 8059TIP3    H224142  -0.071   2.152   0.587
 8060TIP3   OH224143   4.287   3.229   1.471
 8060TIP3    H124144   4.345   3.298   1.504
 8060TIP3    H224145   4.345   3.158   1.447
 8061TIP3   OH224146   6.766   0.643   4.819
 8061TIP3    H124147   6.791   0.721   4.869
 8061TIP3    H224148   6.696   0.675   4.761
 8062TIP3   OH224149   3.486   1.847   2.822
 8062TIP3    H124150   3.398   1.831   2.856
 8062TIP3    H224151   3.493   1.791   2.745
 8063TIP3   OH224152   3.684   6.661   5.796
 8063TIP3    H124153   3.767   6.687   5.757
 8063TIP3    H224154   3.684   6.701   5.882
 8064TIP3   OH224155   0.424   5.114   4.153
 8064TIP3    H124156   0.392   5.202   4.131
 8064TIP3    H224157   0.379   5.092   4.234
 8065TIP3   OH224158   0.713   4.686   4.403
 8065TIP3    H124159   0.681   4.673   4.314
 8065TIP3    H224160   0.782   4.620   4.414
 8066TIP3   OH224161   6.206   5.074   0.832
 8066TIP3    H124162   6.235   5.066   0.741
 8066TIP3    H224163   6.236   5.161   0.859
 8067TIP3   OH224164   2.711   4.323   0.204
 8067TIP3    H124165   2.740   4.303   0.115
 8067TIP3    H224166   2.720   4.240   0.251
 8068TIP3   OH224167   3.830   5.837   2.371
 8068TIP3    H124168   3.736   5.826   2.386
 8068TIP3    H224169   3.858   5.892   2.444
 8069TIP3   OH224170   1.251   1.821   5.174
 8069TIP3    H124171   1.328   1.776   5.209
 8069TIP3    H224172   1.250   1.905   5.220
 8070TIP3   OH224173   4.660   0.960   2.091
 8070TIP3    H124174   4.689   0.897   2.157
 8070TIP3    H224175   4.596   0.911   2.039
 8071TIP3   OH224176   1.165   0.088   1.227
 8071TIP3    H124177   1.228   0.160   1.239
 8071TIP3    H224178   1.211   0.026   1.171
 8072TIP3   OH224179   3.969   2.810   3.471
 8072TIP3    H124180   4.011   2.841   3.391
 8072TIP3    H224181   3.946   2.891   3.518
 8073TIP3   OH224182   2.044   1.383   4.758
 8073TIP3    H124183   2.056   1.296   4.796
 8073TIP3    H224184   1.959   1.412   4.792
 8074TIP3   OH224185   5.583   1.528   1.154
 8074TIP3    H124186   5.659   1.473   1.138
 8074TIP3    H224187   5.617   1.618   1.152
 8075TIP3   OH224188   2.921   5.352   4.608
 8075TIP3    H124189   2.907   5.390   4.521
 8075TIP3    H224190   2.866   5.274   4.609
 8076TIP3   OH224191   4.895   1.176   2.958
 8076TIP3    H124192   4.887   1.106   3.023
 8076TIP3    H224193   4.976   1.220   2.981
 8077TIP3   OH224194   4.784   6.641   3.701
 8077TIP3    H124195   4.781   6.684   3.786
 8077TIP3    H224196   4.692   6.629   3.676
 8078TIP3   OH224197   0.787   2.319   3.763
 8078TIP3    H124198   0.862   2.342   3.707
 8078TIP3    H224199   0.768   2.399   3.812
 8079TIP3   OH224200   2.953   5.471   3.984
 8079TIP3    H124201   2.893   5.464   3.910
 8079TIP3    H224202   2.994   5.557   3.973
 8080TIP3   OH224203   4.665   1.382   0.457
 8080TIP3    H124204   4.615   1.351   0.381
 8080TIP3    H224205   4.600   1.421   0.515
 8081TIP3   OH224206   1.973   3.347   1.378
 8081TIP3    H124207   1.956   3.351   1.472
 8081TIP3    H224208   1.888   3.359   1.337
 8082TIP3   OH224209   1.517   4.293   1.773
 8082TIP3    H124210   1.440   4.247   1.807
 8082TIP3    H224211   1.581   4.224   1.755
 8083TIP3   OH224212   5.996   5.166   4.948
 8083TIP3    H124213   5.969   5.223   5.021
 8083TIP3    H224214   6.001   5.079   4.987
 8084TIP3   OH224215   0.915   1.725   3.907
 8084TIP3    H124216   0.905   1.692   3.996
 8084TIP3    H224217   1.008   1.713   3.887
 8085TIP3   OH224218   6.823   6.252   0.318
 8085TIP3    H124219   6.898   6.209   0.276
 8085TIP3    H224220   6.857   6.338   0.343
 8086TIP3   OH224221   5.773   6.573   3.280
 8086TIP3    H124222   5.808   6.566   3.369
 8086TIP3    H224223   5.761   6.482   3.252
 8087TIP3   OH224224   5.053   0.168   0.143
 8087TIP3    H124225   5.111   0.239   0.115
 8087TIP3    H224226   5.032   0.122   0.062
 8088TIP3   OH224227   6.338   3.334   3.594
 8088TIP3    H124228   6.298   3.363   3.676
 8088TIP3    H224229   6.417   3.287   3.620
 8089TIP3   OH224230   5.105   6.001   5.079
 8089TIP3    H124231   5.023   6.050   5.085
 8089TIP3    H224232   5.087   5.932   5.015
 8090TIP3   OH224233   0.865   6.583   4.021
 8090TIP3    H124234   0.959   6.592   4.004
 8090TIP3    H224235   0.854   6.614   4.112
 8091TIP3   OH224236   1.250   2.516   0.429
 8091TIP3    H124237   1.321   2.544   0.487
 8091TIP3    H224238   1.195   2.594   0.420
 8092TIP3   OH224239   2.878   4.733   5.855
 8092TIP3    H124240   2.834   4.763   5.776
 8092TIP3    H224241   2.833   4.652   5.878
 8093TIP3   OH224242   6.188   0.301   0.656
 8093TIP3    H124243   6.120   0.325   0.593
 8093TIP3    H224244   6.228   0.222   0.620
 8094TIP3   OH224245   5.796   0.556   0.316
 8094TIP3    H124246   5.815   0.561   0.222
 8094TIP3    H224247   5.743   0.476   0.325
 8095TIP3   OH224248   4.982   1.712   5.263
 8095TIP3    H124249   4.971   1.618   5.251
 8095TIP3    H224250   4.943   1.751   5.185
 8096TIP3   OH224251   7.071   6.065   5.234
 8096TIP3    H124252   7.163   6.085   5.215
 8096TIP3    H224253   7.069   5.970   5.242
 8097TIP3   OH224254   7.037   0.890   5.058
 8097TIP3    H124255   7.131   0.873   5.054
 8097TIP3    H224256   7.005   0.868   4.971
 8098TIP3   OH224257   1.368   0.594   0.286
 8098TIP3    H124258   1.407   0.568   0.203
 8098TIP3    H224259   1.275   0.572   0.278
 8099TIP3   OH224260   5.410   2.870   5.084
 8099TIP3    H124261   5.321   2.896   5.060
 8099TIP3    H224262   5.449   2.841   5.001
 8100TIP3   OH224263   4.346   5.343   5.756
 8100TIP3    H124264   4.267   5.304   5.795
 8100TIP3    H224265   4.369   5.282   5.686
 8101TIP3   OH224266   4.410   5.743   5.075
 8101TIP3    H124267   4.376   5.793   5.001
 8101TIP3    H224268   4.497   5.714   5.046
 8102TIP3   OH224269   4.747   2.017   2.126
 8102TIP3    H124270   4.693   2.062   2.061
 8102TIP3    H224271   4.790   2.088   2.173
 8103TIP3   OH224272   2.813   6.579   2.388
 8103TIP3    H124273   2.773   6.511   2.334
 8103TIP3    H224274   2.823   6.540   2.474
 8104TIP3   OH224275   3.578   4.807   2.571
 8104TIP3    H124276   3.590   4.780   2.662
 8104TIP3    H224277   3.500   4.760   2.543
 8105TIP3   OH224278   2.045   2.451   4.038
 8105TIP3    H124279   2.116   2.434   4.100
 8105TIP3    H224280   2.085   2.440   3.952
 8106TIP3   OH224281   4.110   0.325   5.394
 8106TIP3    H124282   4.095   0.346   5.302
 8106TIP3    H224283   4.151   0.238   5.392
 8107TIP3   OH224284   2.010   5.442   1.395
 8107TIP3    H124285   2.100   5.451   1.363
 8107TIP3    H224286   2.017   5.382   1.469
 8108TIP3   OH224287   1.055   0.666   0.290
 8108TIP3    H124288   1.122   0.666   0.359
 8108TIP3    H224289   0.977   0.699   0.334
 8109TIP3   OH224290   5.840   4.453   0.406
 8109TIP3    H124291   5.846   4.541   0.368
 8109TIP3    H224292   5.931   4.429   0.423
 8110TIP3   OH224293   3.445   5.579   5.547
 8110TIP3    H124294   3.440   5.641   5.620
 8110TIP3    H224295   3.511   5.617   5.488
 8111TIP3   OH224296   3.618   1.160   1.974
 8111TIP3    H124297   3.708   1.185   1.954
 8111TIP3    H224298   3.611   1.167   2.069
 8112TIP3   OH224299   3.807   0.676   3.540
 8112TIP3    H124300   3.879   0.612   3.539
 8112TIP3    H224301   3.775   0.677   3.450
 8113TIP3   OH224302   0.373   4.007   2.462
 8113TIP3    H124303   0.351   3.921   2.426
 8113TIP3    H224304   0.458   3.995   2.504
 8114TIP3   OH224305   6.950   0.533   5.584
 8114TIP3    H124306   6.996   0.450   5.570
 8114TIP3    H224307   7.013   0.600   5.556
 8115TIP3   OH224308   1.857   3.691   0.058
 8115TIP3    H124309   1.878   3.778   0.090
 8115TIP3    H224310   1.931   3.667   0.002
 8116TIP3   OH224311   3.137   2.958   0.925
 8116TIP3    H124312   3.097   2.965   0.838
 8116TIP3    H224313   3.072   2.995   0.984
 8117TIP3   OH224314   2.039   1.041   4.701
 8117TIP3    H124315   1.946   1.063   4.712
 8117TIP3    H224316   2.039   0.947   4.681
 8118TIP3   OH224317   0.206   4.292   0.748
 8118TIP3    H124318   0.114   4.292   0.720
 8118TIP3    H224319   0.243   4.214   0.706
 8119TIP3   OH224320   3.284   2.901   5.082
 8119TIP3    H124321   3.342   2.877   5.154
 8119TIP3    H224322   3.212   2.838   5.086
 8120TIP3   OH224323   4.158   0.317   3.387
 8120TIP3    H124324   4.158   0.263   3.466
 8120TIP3    H224325   4.225   0.278   3.331
 8121TIP3   OH224326   2.661   4.034   5.628
 8121TIP3    H124327   2.680   4.046   5.721
 8121TIP3    H224328   2.721   3.966   5.599
 8122TIP3   OH224329   5.564   2.612   0.636
 8122TIP3    H124330   5.477   2.647   0.619
 8122TIP3    H224331   5.591   2.571   0.553
 8123TIP3   OH224332   6.690   6.230   2.804
 8123TIP3    H124333   6.748   6.186   2.741
 8123TIP3    H224334   6.741   6.304   2.835
 8124TIP3   OH224335   5.038   5.040   0.564
 8124TIP3    H124336   5.040   5.083   0.479
 8124TIP3    H224337   5.123   4.997   0.572
 8125TIP3   OH224338   6.690   0.188   3.565
 8125TIP3    H124339   6.599   0.180   3.534
 8125TIP3    H224340   6.693   0.132   3.643
 8126TIP3   OH224341   6.591   3.230   4.295
 8126TIP3    H124342   6.567   3.210   4.385
 8126TIP3    H224343   6.626   3.319   4.298
 8127TIP3   OH224344   3.538   3.712   1.997
 8127TIP3    H124345   3.486   3.752   2.067
 8127TIP3    H224346   3.535   3.618   2.016
 8128TIP3   OH224347   4.885   3.441   3.167
 8128TIP3    H124348   4.960   3.467   3.220
 8128TIP3    H224349   4.848   3.523   3.134
 8129TIP3   OH224350   1.429   2.788   4.336
 8129TIP3    H124351   1.398   2.834   4.414
 8129TIP3    H224352   1.499   2.732   4.368
 8130TIP3   OH224353   0.977   3.454   2.301
 8130TIP3    H124354   0.922   3.377   2.285
 8130TIP3    H224355   0.969   3.469   2.395
 8131TIP3   OH224356   6.154   4.139   3.942
 8131TIP3    H124357   6.104   4.174   3.868
 8131TIP3    H224358   6.141   4.045   3.938
 8132TIP3   OH224359   0.196   3.819   3.083
 8132TIP3    H124360   0.121   3.867   3.047
 8132TIP3    H224361   0.244   3.789   3.006
 8133TIP3   OH224362   4.778   2.660   4.014
 8133TIP3    H124363   4.740   2.740   3.977
 8133TIP3    H224364   4.873   2.676   4.011
 8134TIP3   OH224365   4.548   5.496   2.574
 8134TIP3    H124366   4.530   5.402   2.566
 8134TIP3    H224367   4.520   5.518   2.663
 8135TIP3   OH224368   0.216   3.964   1.832
 8135TIP3    H124369   0.166   3.885   1.854
 8135TIP3    H224370   0.188   3.985   1.743
 8136TIP3   OH224371   2.641   0.321   1.434
 8136TIP3    H124372   2.710   0.344   1.372
 8136TIP3    H224373   2.665   0.233   1.464
 8137TIP3   OH224374   6.258   1.302   0.407
 8137TIP3    H124375   6.330   1.321   0.468
 8137TIP3    H224376   6.271   1.363   0.335
 8138TIP3   OH224377   6.317   4.762   2.994
 8138TIP3    H124378   6.258   4.832   2.967
 8138TIP3    H224379   6.263   4.683   2.992
 8139TIP3   OH224380   1.540   5.926   2.097
 8139TIP3    H124381   1.562   5.854   2.156
 8139TIP3    H224382   1.624   5.962   2.069
 8140TIP3   OH224383   1.334   5.159   2.865
 8140TIP3    H124384   1.382   5.227   2.913
 8140TIP3    H224385   1.293   5.206   2.793
 8141TIP3   OH224386   2.632   0.880   2.987
 8141TIP3    H124387   2.591   0.873   2.900
 8141TIP3    H224388   2.688   0.803   2.993
 8142TIP3   OH224389   0.581   6.653   1.520
 8142TIP3    H124390   0.498   6.607   1.530
 8142TIP3    H224391   0.609   6.634   1.431
 8143TIP3   OH224392   7.136   5.136   3.619
 8143TIP3    H124393   7.140   5.078   3.543
 8143TIP3    H224394   7.168   5.082   3.691
 8144TIP3   OH224395   2.488   1.892   0.862
 8144TIP3    H124396   2.481   1.917   0.770
 8144TIP3    H224397   2.559   1.947   0.896
 8145TIP3   OH224398   6.213   0.273   4.874
 8145TIP3    H124399   6.256   0.201   4.921
 8145TIP3    H224400   6.285   0.330   4.847
 8146TIP3   OH224401   2.850   1.123   2.639
 8146TIP3    H124402   2.945   1.122   2.650
 8146TIP3    H224403   2.828   1.034   2.611
 8147TIP3   OH224404   3.683   2.077   4.752
 8147TIP3    H124405   3.627   2.022   4.807
 8147TIP3    H224406   3.744   2.118   4.813
 8148TIP3   OH224407   2.790   0.128   3.519
 8148TIP3    H124408   2.829   0.091   3.598
 8148TIP3    H224409   2.863   0.171   3.475
 8149TIP3   OH224410   5.188   4.940   4.640
 8149TIP3    H124411   5.237   4.953   4.722
 8149TIP3    H224412   5.179   4.845   4.633
 8150TIP3   OH224413   2.745   4.472   2.716
 8150TIP3    H124414   2.814   4.525   2.756
 8150TIP3    H224415   2.744   4.391   2.768
 8151TIP3   OH224416   3.038   6.296   1.788
 8151TIP3    H124417   3.011   6.266   1.874
 8151TIP3    H224418   3.123   6.339   1.803
 8152TIP3   OH224419   6.054   5.378   4.006
 8152TIP3    H124420   6.040   5.467   4.039
 8152TIP3    H224421   6.142   5.380   3.969
 8153TIP3   OH224422   3.402   2.560   5.007
 8153TIP3    H124423   3.490   2.595   5.023
 8153TIP3    H224424   3.351   2.589   5.083
 8154TIP3   OH224425   4.987   1.653   5.873
 8154TIP3    H124426   4.966   1.576   5.819
 8154TIP3    H224427   4.952   1.727   5.823
 8155TIP3   OH224428   3.499   3.452   1.710
 8155TIP3    H124429   3.580   3.502   1.701
 8155TIP3    H224430   3.431   3.518   1.725
 8156TIP3   OH224431   4.328   5.058   5.143
 8156TIP3    H124432   4.280   4.992   5.192
 8156TIP3    H224433   4.371   5.111   5.210
 8157TIP3   OH224434   3.276   1.618   0.428
 8157TIP3    H124435   3.259   1.530   0.462
 8157TIP3    H224436   3.220   1.625   0.351
 8158TIP3   OH224437   2.657   0.877   3.327
 8158TIP3    H124438   2.699   0.792   3.312
 8158TIP3    H224439   2.681   0.900   3.417
 8159TIP3   OH224440   5.799   6.505   5.901
 8159TIP3    H124441   5.852   6.425   5.909
 8159TIP3    H224442   5.755   6.495   5.817
 8160TIP3   OH224443   2.094   3.296   2.753
 8160TIP3    H124444   2.139   3.333   2.829
 8160TIP3    H224445   2.159   3.238   2.713
 8161TIP3   OH224446   5.751   3.972   3.028
 8161TIP3    H124447   5.731   3.935   2.941
 8161TIP3    H224448   5.772   3.895   3.081
 8162TIP3   OH224449   4.974   2.681   0.910
 8162TIP3    H124450   4.963   2.773   0.886
 8162TIP3    H224451   4.991   2.636   0.827
 8163TIP3   OH224452   1.468   4.828   2.677
 8163TIP3    H124453   1.447   4.921   2.685
 8163TIP3    H224454   1.441   4.804   2.588
 8164TIP3   OH224455   5.482   1.855   2.181
 8164TIP3    H124456   5.527   1.939   2.168
 8164TIP3    H224457   5.491   1.810   2.098
 8165TIP3   OH224458   4.549   2.915   5.412
 8165TIP3    H124459   4.484   2.906   5.342
 8165TIP3    H224460   4.522   2.992   5.460
 8166TIP3   OH224461   4.603   1.752   2.161
 8166TIP3    H124462   4.660   1.828   2.148
 8166TIP3    H224463   4.651   1.680   2.121
 8167TIP3   OH224464   6.295   0.168   1.692
 8167TIP3    H124465   6.242   0.089   1.694
 8167TIP3    H224466   6.236   0.238   1.721
 8168TIP3   OH224467   2.870   6.403   0.311
 8168TIP3    H124468   2.777   6.393   0.292
 8168TIP3    H224469   2.911   6.413   0.226
 8169TIP3   OH224470   3.059   1.242   1.851
 8169TIP3    H124471   3.104   1.250   1.767
 8169TIP3    H224472   3.087   1.319   1.901
 8170TIP3   OH224473   1.398   3.564   3.969
 8170TIP3    H124474   1.361   3.545   4.055
 8170TIP3    H224475   1.397   3.659   3.963
 8171TIP3   OH224476   1.316   4.230   4.207
 8171TIP3    H124477   1.376   4.161   4.179
 8171TIP3    H224478   1.372   4.292   4.254
 8172TIP3   OH224479   6.213   6.009   4.655
 8172TIP3    H124480   6.270   6.034   4.583
 8172TIP3    H224481   6.149   6.081   4.661
 8173TIP3   OH224482   2.128   5.413   3.715
 8173TIP3    H124483   2.064   5.372   3.773
 8173TIP3    H224484   2.086   5.495   3.688
 8174TIP3   OH224485   2.292   0.588   0.499
 8174TIP3    H124486   2.354   0.579   0.426
 8174TIP3    H224487   2.327   0.531   0.567
 8175TIP3   OH224488   5.007   3.044   1.433
 8175TIP3    H124489   4.993   3.127   1.387
 8175TIP3    H224490   5.009   2.978   1.363
 8176TIP3   OH224491   5.490   5.148   3.950
 8176TIP3    H124492   5.405   5.105   3.941
 8176TIP3    H224493   5.550   5.092   3.901
 8177TIP3   OH224494   0.938   4.586   5.157
 8177TIP3    H124495   0.866   4.642   5.127
 8177TIP3    H224496   1.000   4.646   5.197
 8178TIP3   OH224497   1.403   4.900   4.708
 8178TIP3    H124498   1.318   4.887   4.664
 8178TIP3    H224499   1.445   4.814   4.704
 8179TIP3   OH224500   4.342   0.445   4.048
 8179TIP3    H124501   4.258   0.482   4.020
 8179TIP3    H224502   4.331   0.428   4.142
 8180TIP3   OH224503   3.887   6.151   2.810
 8180TIP3    H124504   3.834   6.193   2.877
 8180TIP3    H224505   3.921   6.223   2.757
 8181TIP3   OH224506   5.273   5.681   3.850
 8181TIP3    H124507   5.362   5.704   3.877
 8181TIP3    H224508   5.238   5.632   3.925
 8182TIP3   OH224509   7.060   3.779   3.594
 8182TIP3    H124510   7.137   3.733   3.561
 8182TIP3    H224511   7.067   3.771   3.689
 8183TIP3   OH224512   1.676   0.055   0.135
 8183TIP3    H124513   1.602   0.115   0.124
 8183TIP3    H224514   1.704   0.035   0.045
 8184TIP3   OH224515   0.263   0.136   3.795
 8184TIP3    H124516   0.173   0.114   3.770
 8184TIP3    H224517   0.292   0.199   3.728
 8185TIP3   OH224518   2.611   4.629   1.516
 8185TIP3    H124519   2.560   4.552   1.540
 8185TIP3    H224520   2.562   4.670   1.445
 8186TIP3   OH224521   5.288   2.955   5.321
 8186TIP3    H124522   5.336   2.936   5.241
 8186TIP3    H224523   5.210   2.899   5.317
 8187TIP3   OH224524   4.434  -0.008   3.697
 8187TIP3    H124525   4.418   0.075   3.741
 8187TIP3    H224526   4.350  -0.053   3.698
 8188TIP3   OH224527   1.085   3.674   0.377
 8188TIP3    H124528   1.086   3.734   0.302
 8188TIP3    H224529   1.038   3.723   0.445
 8189TIP3   OH224530   2.525   2.260   1.115
 8189TIP3    H124531   2.487   2.344   1.088
 8189TIP3    H224532   2.455   2.217   1.165
 8190TIP3   OH224533   2.743   4.812   1.233
 8190TIP3    H124534   2.771   4.768   1.153
 8190TIP3    H224535   2.807   4.883   1.245
 8191TIP3   OH224536   5.233   3.295   4.225
 8191TIP3    H124537   5.208   3.308   4.133
 8191TIP3    H224538   5.329   3.305   4.225
 8192TIP3   OH224539   6.867   3.412   5.446
 8192TIP3    H124540   6.796   3.381   5.503
 8192TIP3    H224541   6.850   3.506   5.437
 8193TIP3   OH224542   2.526   0.973   1.699
 8193TIP3    H124543   2.509   1.010   1.786
 8193TIP3    H224544   2.615   1.002   1.678
 8194TIP3   OH224545   4.558   3.346   2.839
 8194TIP3    H124546   4.553   3.440   2.852
 8194TIP3    H224547   4.631   3.318   2.895
 8195TIP3   OH224548   0.480   5.498   0.508
 8195TIP3    H124549   0.466   5.457   0.423
 8195TIP3    H224550   0.393   5.531   0.533
 8196TIP3   OH224551   4.288   2.585   5.276
 8196TIP3    H124552   4.344   2.638   5.219
 8196TIP3    H224553   4.340   2.506   5.292
 8197TIP3   OH224554   2.554   5.158   4.912
 8197TIP3    H124555   2.505   5.198   4.984
 8197TIP3    H224556   2.524   5.204   4.834
 8198TIP3   OH224557   2.501   1.021   4.109
 8198TIP3    H124558   2.465   1.093   4.161
 8198TIP3    H224559   2.571   1.062   4.058
 8199TIP3   OH224560   6.902   1.121   3.515
 8199TIP3    H124561   6.973   1.148   3.456
 8199TIP3    H224562   6.862   1.045   3.471
 8200TIP3   OH224563   6.114   0.282   0.203
 8200TIP3    H124564   6.198   0.258   0.243
 8200TIP3    H224565   6.106   0.226   0.126
 8201TIP3   OH224566   2.816   0.916   1.070
 8201TIP3    H124567   2.746   0.905   1.135
 8201TIP3    H224568   2.777   0.889   0.987
 8202TIP3   OH224569   0.334   5.860   3.148
 8202TIP3    H124570   0.358   5.772   3.175
 8202TIP3    H224571   0.340   5.913   3.228
 8203TIP3   OH224572   0.144   1.396   1.092
 8203TIP3    H124573   0.065   1.361   1.053
 8203TIP3    H224574   0.214   1.375   1.030
 8204TIP3   OH224575   1.311   5.204   3.474
 8204TIP3    H124576   1.315   5.253   3.392
 8204TIP3    H224577   1.330   5.269   3.541
 8205TIP3   OH224578   1.583   0.742   0.349
 8205TIP3    H124579   1.502   0.697   0.327
 8205TIP3    H224580   1.584   0.746   0.445
 8206TIP3   OH224581   5.171   2.626   3.043
 8206TIP3    H124582   5.207   2.538   3.058
 8206TIP3    H224583   5.126   2.620   2.959
 8207TIP3   OH224584   3.698   3.498   5.462
 8207TIP3    H124585   3.716   3.530   5.550
 8207TIP3    H224586   3.624   3.550   5.431
 8208TIP3   OH224587   3.907   5.611   4.037
 8208TIP3    H124588   3.819   5.637   4.064
 8208TIP3    H224589   3.960   5.622   4.116
 8209TIP3   OH224590   5.003   3.966   5.439
 8209TIP3    H124591   4.984   3.910   5.364
 8209TIP3    H224592   5.036   4.047   5.402
 8210TIP3   OH224593   6.916   6.167   2.211
 8210TIP3    H124594   6.840   6.207   2.169
 8210TIP3    H224595   6.885   6.081   2.239
 8211TIP3   OH224596   1.085   0.178   4.301
 8211TIP3    H124597   1.027   0.243   4.261
 8211TIP3    H224598   1.173   0.209   4.281
 8212TIP3   OH224599   0.845   3.400   3.787
 8212TIP3    H124600   0.845   3.463   3.859
 8212TIP3    H224601   0.752   3.391   3.763
 8213TIP3   OH224602   1.226   5.764   5.242
 8213TIP3    H124603   1.285   5.796   5.173
 8213TIP3    H224604   1.220   5.670   5.227
 8214TIP3   OH224605   0.638   4.413   4.129
 8214TIP3    H124606   0.613   4.425   4.221
 8214TIP3    H224607   0.584   4.477   4.082
 8215TIP3   OH224608   4.741   3.273   1.914
 8215TIP3    H124609   4.826   3.255   1.873
 8215TIP3    H224610   4.760   3.272   2.008
 8216TIP3   OH224611   5.682   6.670   0.807
 8216TIP3    H124612   5.601   6.643   0.850
 8216TIP3    H224613   5.749   6.665   0.875
 8217TIP3   OH224614   1.022   0.668   2.788
 8217TIP3    H124615   1.006   0.695   2.697
 8217TIP3    H224616   0.981   0.582   2.795
 8218TIP3   OH224617   5.581   1.098   0.441
 8218TIP3    H124618   5.622   1.170   0.393
 8218TIP3    H224619   5.636   1.022   0.422
 8219TIP3   OH224620   2.247   6.606   4.905
 8219TIP3    H124621   2.264   6.572   4.817
 8219TIP3    H224622   2.313   6.674   4.917
 8220TIP3   OH224623   1.036   4.521   1.737
 8220TIP3    H124624   0.946   4.554   1.727
 8220TIP3    H224625   1.028   4.427   1.722
 8221TIP3   OH224626   1.689   2.627   3.801
 8221TIP3    H124627   1.748   2.657   3.732
 8221TIP3    H224628   1.637   2.704   3.824
 8222TIP3   OH224629   2.310   5.750   0.459
 8222TIP3    H124630   2.252   5.707   0.396
 8222TIP3    H224631   2.259   5.750   0.541
 8223TIP3   OH224632   1.628   6.710   5.672
 8223TIP3    H124633   1.595   6.694   5.760
 8223TIP3    H224634   1.586   6.643   5.618
 8224TIP3   OH224635   6.787   1.398   1.889
 8224TIP3    H124636   6.778   1.380   1.795
 8224TIP3    H224637   6.730   1.333   1.930
 8225TIP3   OH224638   2.231   1.418   3.757
 8225TIP3    H124639   2.260   1.332   3.788
 8225TIP3    H224640   2.147   1.401   3.714
 8226TIP3   OH224641   2.377   5.726   4.248
 8226TIP3    H124642   2.350   5.676   4.171
 8226TIP3    H224643   2.473   5.725   4.245
 8227TIP3   OH224644   3.285   0.520   1.431
 8227TIP3    H124645   3.259   0.612   1.435
 8227TIP3    H224646   3.313   0.506   1.340
 8228TIP3   OH224647   2.863   6.746   3.839
 8228TIP3    H124648   2.903   6.731   3.925
 8228TIP3    H224649   2.883   6.666   3.789
 8229TIP3   OH224650   1.983   1.420   1.655
 8229TIP3    H124651   1.904   1.463   1.624
 8229TIP3    H224652   2.049   1.438   1.588
 8230TIP3   OH224653   5.455   1.689   0.079
 8230TIP3    H124654   5.502   1.605   0.088
 8230TIP3    H224655   5.469   1.714  -0.012
 8231TIP3   OH224656   2.204   0.788   1.163
 8231TIP3    H124657   2.263   0.804   1.236
 8231TIP3    H224658   2.261   0.774   1.088
 8232TIP3   OH224659   5.851   1.190   1.052
 8232TIP3    H124660   5.853   1.286   1.058
 8232TIP3    H224661   5.943   1.165   1.041
 8233TIP3   OH224662   3.265   4.915   2.928
 8233TIP3    H124663   3.259   4.916   3.024
 8233TIP3    H224664   3.285   4.824   2.906
 8234TIP3   OH224665   6.904   3.712   4.213
 8234TIP3    H124666   6.897   3.645   4.281
 8234TIP3    H224667   6.833   3.691   4.152
 8235TIP3   OH224668   5.025   0.491   5.084
 8235TIP3    H124669   5.080   0.518   5.157
 8235TIP3    H224670   5.076   0.511   5.006
 8236TIP3   OH224671   1.606   3.188   4.906
 8236TIP3    H124672   1.619   3.100   4.872
 8236TIP3    H224673   1.636   3.182   4.997
 8237TIP3   OH224674   5.753   2.359   2.372
 8237TIP3    H124675   5.741   2.300   2.447
 8237TIP3    H224676   5.664   2.373   2.339
 8238TIP3   OH224677   5.488   3.009   0.154
 8238TIP3    H124678   5.398   3.010   0.121
 8238TIP3    H224679   5.542   3.024   0.077
 8239TIP3   OH224680   4.988   4.226   3.781
 8239TIP3    H124681   4.939   4.273   3.849
 8239TIP3    H224682   4.960   4.135   3.790
 8240TIP3   OH224683   5.852   3.971   4.474
 8240TIP3    H124684   5.899   3.888   4.476
 8240TIP3    H224685   5.778   3.955   4.415
 8241TIP3   OH224686   4.205   4.639   4.765
 8241TIP3    H124687   4.232   4.702   4.697
 8241TIP3    H224688   4.271   4.649   4.834
 8242TIP3   OH224689   4.155   6.302   2.298
 8242TIP3    H124690   4.060   6.315   2.301
 8242TIP3    H224691   4.183   6.317   2.389
 8243TIP3   OH224692   3.238   0.166   1.187
 8243TIP3    H124693   3.170   0.185   1.122
 8243TIP3    H224694   3.276   0.252   1.206
 8244TIP3   OH224695   2.926   1.862   1.524
 8244TIP3    H124696   2.841   1.824   1.506
 8244TIP3    H224697   2.913   1.957   1.512
 8245TIP3   OH224698   3.528   2.047   3.080
 8245TIP3    H124699   3.550   1.980   3.015
 8245TIP3    H224700   3.611   2.067   3.123
 8246TIP3   OH224701   2.353   5.105   0.819
 8246TIP3    H124702   2.335   5.123   0.727
 8246TIP3    H224703   2.267   5.101   0.861
 8247TIP3   OH224704   5.746   4.356   1.434
 8247TIP3    H124705   5.735   4.305   1.514
 8247TIP3    H224706   5.702   4.306   1.366
 8248TIP3   OH224707   3.334   4.111   1.685
 8248TIP3    H124708   3.321   4.159   1.766
 8248TIP3    H224709   3.382   4.032   1.710
 8249TIP3   OH224710   6.599   1.696   5.005
 8249TIP3    H124711   6.658   1.627   5.033
 8249TIP3    H224712   6.571   1.669   4.917
 8250TIP3   OH224713   2.787   2.157   2.408
 8250TIP3    H124714   2.773   2.090   2.475
 8250TIP3    H224715   2.874   2.138   2.373
 8251TIP3   OH224716   4.204   6.692   2.117
 8251TIP3    H124717   4.221   6.604   2.150
 8251TIP3    H224718   4.213   6.748   2.194
 8252TIP3   OH224719   7.143   2.313   1.447
 8252TIP3    H124720   7.155   2.371   1.372
 8252TIP3    H224721   7.052   2.324   1.473
 8253TIP3   OH224722   0.012   5.348   2.006
 8253TIP3    H124723   0.102   5.367   1.981
 8253TIP3    H224724  -0.011   5.416   2.069
 8254TIP3   OH224725   1.643   2.902   3.874
 8254TIP3    H124726   1.639   2.903   3.969
 8254TIP3    H224727   1.577   2.965   3.846
 8255TIP3   OH224728   4.723   3.815   3.852
 8255TIP3    H124729   4.764   3.768   3.779
 8255TIP3    H224730   4.660   3.873   3.810
 8256TIP3   OH224731   5.983   6.479   2.616
 8256TIP3    H124732   5.888   6.478   2.629
 8256TIP3    H224733   6.017   6.524   2.693
 8257TIP3   OH224734   2.088   2.392   3.213
 8257TIP3    H124735   2.026   2.452   3.254
 8257TIP3    H224736   2.117   2.336   3.285
 8258TIP3   OH224737   4.116   1.780   3.027
 8258TIP3    H124738   4.104   1.872   3.006
 8258TIP3    H224739   4.088   1.733   2.949
 8259TIP3   OH224740   4.048   5.419   3.881
 8259TIP3    H124741   4.013   5.428   3.792
 8259TIP3    H224742   4.007   5.490   3.930
 8260TIP3   OH224743   1.562   0.630   1.197
 8260TIP3    H124744   1.578   0.547   1.152
 8260TIP3    H224745   1.636   0.641   1.257
 8261TIP3   OH224746   4.657   4.193   0.034
 8261TIP3    H124747   4.714   4.161   0.104
 8261TIP3    H224748   4.716   4.212  -0.039
 8262TIP3   OH224749   5.378   1.452   2.120
 8262TIP3    H124750   5.409   1.398   2.047
 8262TIP3    H224751   5.458   1.482   2.163
 8263TIP3   OH224752   0.570   6.066   5.890
 8263TIP3    H124753   0.531   6.131   5.832
 8263TIP3    H224754   0.563   5.983   5.843
 8264TIP3   OH224755   0.493   3.972   4.500
 8264TIP3    H124756   0.532   4.056   4.521
 8264TIP3    H224757   0.552   3.907   4.538
 8265TIP3   OH224758   1.977   2.727   3.941
 8265TIP3    H124759   1.955   2.651   3.996
 8265TIP3    H224760   1.908   2.728   3.874
 8266TIP3   OH224761   7.013   6.722   1.959
 8266TIP3    H124762   7.090   6.762   1.919
 8266TIP3    H224763   6.998   6.773   2.038
 8267TIP3   OH224764   1.483   4.373   4.391
 8267TIP3    H124765   1.563   4.379   4.442
 8267TIP3    H224766   1.440   4.457   4.402
 8268TIP3   OH224767   2.838   1.565   1.890
 8268TIP3    H124768   2.836   1.634   1.956
 8268TIP3    H224769   2.807   1.487   1.937
 8269TIP3   OH224770   2.521   4.149   1.144
 8269TIP3    H124771   2.584   4.176   1.076
 8269TIP3    H224772   2.435   4.165   1.105
 8270TIP3   OH224773   5.350   0.833   4.049
 8270TIP3    H124774   5.267   0.795   4.076
 8270TIP3    H224775   5.391   0.863   4.130
 8271TIP3   OH224776   0.710   1.643   2.248
 8271TIP3    H124777   0.713   1.629   2.342
 8271TIP3    H224778   0.618   1.666   2.230
 8272TIP3   OH224779   2.905   2.179   4.135
 8272TIP3    H124780   2.962   2.222   4.071
 8272TIP3    H224781   2.960   2.171   4.213
 8273TIP3   OH224782   5.027   3.667   0.727
 8273TIP3    H124783   5.004   3.686   0.818
 8273TIP3    H224784   5.012   3.574   0.716
 8274TIP3   OH224785   3.437   3.306   5.755
 8274TIP3    H124786   3.471   3.218   5.772
 8274TIP3    H224787   3.344   3.301   5.778
 8275TIP3   OH224788   0.055   4.058   0.393
 8275TIP3    H124789  -0.018   4.113   0.366
 8275TIP3    H224790   0.097   4.032   0.311
 8276TIP3   OH224791   2.481   3.685   0.685
 8276TIP3    H124792   2.408   3.735   0.721
 8276TIP3    H224793   2.449   3.595   0.681
 8277TIP3   OH224794   2.212   1.837   0.474
 8277TIP3    H124795   2.287   1.779   0.489
 8277TIP3    H224796   2.151   1.783   0.424
 8278TIP3   OH224797   7.149   6.080   2.102
 8278TIP3    H124798   7.075   6.126   2.139
 8278TIP3    H224799   7.220   6.092   2.166
 8279TIP3   OH224800   1.349   3.359   2.417
 8279TIP3    H124801   1.441   3.381   2.432
 8279TIP3    H224802   1.309   3.363   2.504
 8280TIP3   OH224803   7.032   1.638   0.216
 8280TIP3    H124804   6.992   1.707   0.268
 8280TIP3    H224805   7.121   1.668   0.199
 8281TIP3   OH224806   1.037   0.256   4.979
 8281TIP3    H124807   1.076   0.193   5.040
 8281TIP3    H224808   1.053   0.341   5.020
 8282TIP3   OH224809   0.821   1.938   5.056
 8282TIP3    H124810   0.875   2.016   5.073
 8282TIP3    H224811   0.877   1.865   5.081
 8283TIP3   OH224812   5.737   3.884   4.211
 8283TIP3    H124813   5.723   3.828   4.287
 8283TIP3    H224814   5.721   3.826   4.136
 8284TIP3   OH224815   2.862   4.000   5.823
 8284TIP3    H124816   2.915   4.039   5.753
 8284TIP3    H224817   2.922   3.940   5.868
 8285TIP3   OH224818   1.384   5.876   2.535
 8285TIP3    H124819   1.473   5.842   2.524
 8285TIP3    H224820   1.393   5.944   2.602
 8286TIP3   OH224821   0.711   0.232   4.576
 8286TIP3    H124822   0.749   0.271   4.655
 8286TIP3    H224823   0.756   0.148   4.566
 8287TIP3   OH224824   3.330   4.773   4.736
 8287TIP3    H124825   3.420   4.772   4.705
 8287TIP3    H224826   3.283   4.716   4.675
 8288TIP3   OH224827   3.300   1.063   2.028
 8288TIP3    H124828   3.234   1.014   1.979
 8288TIP3    H224829   3.342   1.119   1.963
 8289TIP3   OH224830   0.251   0.569   0.118
 8289TIP3    H124831   0.319   0.607   0.063
 8289TIP3    H224832   0.295   0.500   0.166
 8290TIP3   OH224833   1.951   2.547   5.582
 8290TIP3    H124834   1.895   2.556   5.504
 8290TIP3    H224835   1.965   2.453   5.591
 8291TIP3   OH224836   2.304   2.495   2.256
 8291TIP3    H124837   2.290   2.444   2.336
 8291TIP3    H224838   2.253   2.574   2.269
 8292TIP3   OH224839   4.477   3.209   0.288
 8292TIP3    H124840   4.524   3.268   0.230
 8292TIP3    H224841   4.404   3.261   0.322
 8293TIP3   OH224842   2.430   0.538   3.040
 8293TIP3    H124843   2.414   0.444   3.050
 8293TIP3    H224844   2.392   0.560   2.954
 8294TIP3   OH224845   6.438   6.597   5.234
 8294TIP3    H124846   6.431   6.519   5.180
 8294TIP3    H224847   6.514   6.644   5.199
 8295TIP3   OH224848   4.322   5.839   5.502
 8295TIP3    H124849   4.279   5.754   5.498
 8295TIP3    H224850   4.258   5.896   5.545
 8296TIP3   OH224851   4.224   0.046   0.160
 8296TIP3    H124852   4.216   0.025   0.253
 8296TIP3    H224853   4.301   0.103   0.154
 8297TIP3   OH224854   3.656   4.154   0.008
 8297TIP3    H124855   3.710   4.076   0.022
 8297TIP3    H224856   3.609   4.166   0.090
 8298TIP3   OH224857   0.127   1.723   2.297
 8298TIP3    H124858   0.114   1.741   2.390
 8298TIP3    H224859   0.097   1.633   2.285
 8299TIP3   OH224860   5.774   3.507   0.105
 8299TIP3    H124861   5.778   3.414   0.082
 8299TIP3    H224862   5.823   3.551   0.035
 8300TIP3   OH224863   2.742   5.268   4.068
 8300TIP3    H124864   2.799   5.193   4.053
 8300TIP3    H224865   2.789   5.343   4.031
 8301TIP3   OH224866   4.322   0.139   4.149
 8301TIP3    H124867   4.361   0.053   4.166
 8301TIP3    H224868   4.326   0.149   4.054
 8302TIP3   OH224869   2.401   4.902   1.724
 8302TIP3    H124870   2.389   4.967   1.655
 8302TIP3    H224871   2.322   4.848   1.721
 8303TIP3   OH224872   6.826   4.018   3.879
 8303TIP3    H124873   6.877   4.047   3.803
 8303TIP3    H224874   6.861   4.070   3.952
 8304TIP3   OH224875   0.957   4.286   5.652
 8304TIP3    H124876   0.947   4.355   5.586
 8304TIP3    H224877   0.926   4.326   5.733
 8305TIP3   OH224878   7.188   0.165   0.503
 8305TIP3    H124879   7.240   0.241   0.528
 8305TIP3    H224880   7.125   0.155   0.574
 8306TIP3   OH224881   0.452   0.203   0.065
 8306TIP3    H124882   0.510   0.279   0.053
 8306TIP3    H224883   0.497   0.131   0.020
 8307TIP3   OH224884   0.798   0.804   4.056
 8307TIP3    H124885   0.757   0.886   4.030
 8307TIP3    H224886   0.885   0.807   4.016
 8308TIP3   OH224887   0.425   6.005   0.814
 8308TIP3    H124888   0.394   6.031   0.727
 8308TIP3    H224889   0.518   6.029   0.814
 8309TIP3   OH224890   1.373   0.044   3.466
 8309TIP3    H124891   1.427   0.034   3.545
 8309TIP3    H224892   1.378   0.138   3.446
 8310TIP3   OH224893   7.103   6.548   5.616
 8310TIP3    H124894   7.050   6.553   5.536
 8310TIP3    H224895   7.082   6.463   5.653
 8311TIP3   OH224896   3.542   2.338   2.924
 8311TIP3    H124897   3.520   2.351   2.831
 8311TIP3    H224898   3.476   2.390   2.971
 8312TIP3   OH224899   2.800   3.608   1.612
 8312TIP3    H124900   2.854   3.599   1.533
 8312TIP3    H224901   2.716   3.569   1.588
 8313TIP3   OH224902   5.052   2.088   0.461
 8313TIP3    H124903   5.115   2.115   0.394
 8313TIP3    H224904   5.007   2.168   0.486
 8314TIP3   OH224905   6.295   6.000   4.935
 8314TIP3    H124906   6.203   6.008   4.961
 8314TIP3    H224907   6.304   6.059   4.860
 8315TIP3   OH224908   4.445   1.554   4.230
 8315TIP3    H124909   4.356   1.585   4.248
 8315TIP3    H224910   4.480   1.530   4.316
 8316TIP3   OH224911   4.986   1.239   1.878
 8316TIP3    H124912   5.060   1.183   1.854
 8316TIP3    H224913   5.026   1.313   1.923
 8317TIP3   OH224914   0.099   4.786   3.299
 8317TIP3    H124915   0.036   4.715   3.287
 8317TIP3    H224916   0.045   4.863   3.318
 8318TIP3   OH224917   3.909   6.552   1.308
 8318TIP3    H124918   3.878   6.613   1.242
 8318TIP3    H224919   4.003   6.541   1.288
 8319TIP3   OH224920   1.492   0.382   2.524
 8319TIP3    H124921   1.412   0.329   2.523
 8319TIP3    H224922   1.510   0.399   2.431
 8320TIP3   OH224923   7.155   0.119   3.350
 8320TIP3    H124924   7.249   0.112   3.335
 8320TIP3    H224925   7.148   0.169   3.431
 8321TIP3   OH224926   5.678   0.784   3.069
 8321TIP3    H124927   5.587   0.797   3.041
 8321TIP3    H224928   5.719   0.870   3.060
 8322TIP3   OH224929   0.558   4.638   2.890
 8322TIP3    H124930   0.520   4.551   2.904
 8322TIP3    H224931   0.512   4.694   2.952
 8323TIP3   OH224932   3.481   5.748   2.209
 8323TIP3    H124933   3.508   5.750   2.301
 8323TIP3    H224934   3.386   5.750   2.212
 8324TIP3   OH224935   3.483   3.077   4.753
 8324TIP3    H124936   3.413   3.049   4.695
 8324TIP3    H224937   3.496   3.002   4.811
 8325TIP3   OH224938   3.991   1.875   3.771
 8325TIP3    H124939   4.011   1.784   3.749
 8325TIP3    H224940   4.057   1.900   3.835
 8326TIP3   OH224941   4.206   0.856   5.316
 8326TIP3    H124942   4.133   0.804   5.282
 8326TIP3    H224943   4.221   0.923   5.249
 8327TIP3   OH224944   2.863   3.291   2.740
 8327TIP3    H124945   2.919   3.355   2.784
 8327TIP3    H224946   2.859   3.321   2.649
 8328TIP3   OH224947   4.888   6.649   2.613
 8328TIP3    H124948   4.882   6.590   2.688
 8328TIP3    H224949   4.900   6.736   2.651
 8329TIP3   OH224950   6.698   0.887   0.846
 8329TIP3    H124951   6.724   0.954   0.783
 8329TIP3    H224952   6.665   0.815   0.792
 8330TIP3   OH224953   1.456   4.269   4.715
 8330TIP3    H124954   1.445   4.187   4.668
 8330TIP3    H224955   1.388   4.327   4.680
 8331TIP3   OH224956   0.703   5.980   0.756
 8331TIP3    H124957   0.753   6.035   0.695
 8331TIP3    H224958   0.706   5.892   0.717
 8332TIP3   OH224959   1.341   5.575   4.238
 8332TIP3    H124960   1.403   5.639   4.202
 8332TIP3    H224961   1.366   5.492   4.198
 8333TIP3   OH224962   0.318   0.553   5.305
 8333TIP3    H124963   0.254   0.623   5.296
 8333TIP3    H224964   0.275   0.488   5.360
 8334TIP3   OH224965   2.301   3.387   1.522
 8334TIP3    H124966   2.262   3.311   1.565
 8334TIP3    H224967   2.244   3.460   1.547
 8335TIP3   OH224968   4.879   0.910   0.467
 8335TIP3    H124969   4.839   0.937   0.550
 8335TIP3    H224970   4.827   0.954   0.400
 8336TIP3   OH224971   4.802   5.867   3.664
 8336TIP3    H124972   4.753   5.930   3.610
 8336TIP3    H224973   4.886   5.857   3.619
 8337TIP3   OH224974   6.141   2.383   3.568
 8337TIP3    H124975   6.051   2.358   3.550
 8337TIP3    H224976   6.136   2.437   3.647
 8338TIP3   OH224977   5.947   0.462   2.264
 8338TIP3    H124978   5.900   0.389   2.305
 8338TIP3    H224979   5.998   0.420   2.194
 8339TIP3   OH224980   4.444   3.796   4.473
 8339TIP3    H124981   4.471   3.888   4.478
 8339TIP3    H224982   4.517   3.752   4.429
 8340TIP3   OH224983   2.527   3.146   0.359
 8340TIP3    H124984   2.539   3.057   0.392
 8340TIP3    H224985   2.446   3.177   0.401
 8341TIP3   OH224986   3.933   2.430   4.223
 8341TIP3    H124987   3.885   2.349   4.234
 8341TIP3    H224988   3.989   2.436   4.301
 8342TIP3   OH224989   4.043   0.116   0.525
 8342TIP3    H124990   4.057   0.032   0.568
 8342TIP3    H224991   4.046   0.180   0.597
 8343TIP3   OH224992   5.388   4.750   1.207
 8343TIP3    H124993   5.325   4.811   1.167
 8343TIP3    H224994   5.370   4.666   1.165
 8344TIP3   OH224995   5.897   5.744   2.133
 8344TIP3    H124996   5.921   5.708   2.219
 8344TIP3    H224997   5.893   5.668   2.076
 8345TIP3   OH224998   5.731   1.250   1.399
 8345TIP3    H124999   5.723   1.167   1.353
 8345TIP3    H225000   5.787   1.304   1.342
 8346TIP3   OH225001   4.900   6.537   4.787
 8346TIP3    H125002   4.885   6.453   4.743
 8346TIP3    H225003   4.879   6.603   4.721
 8347TIP3   OH225004   6.894   1.557   5.646
 8347TIP3    H125005   6.835   1.491   5.609
 8347TIP3    H225006   6.977   1.543   5.601
 8348TIP3   OH225007   4.774   5.860   2.327
 8348TIP3    H125008   4.744   5.823   2.410
 8348TIP3    H225009   4.710   5.830   2.262
 8349TIP3   OH225010   0.691   3.060   3.972
 8349TIP3    H125011   0.708   2.966   3.982
 8349TIP3    H225012   0.606   3.064   3.928
 8350TIP3   OH225013   6.158   2.421   1.993
 8350TIP3    H125014   6.183   2.486   1.927
 8350TIP3    H225015   6.082   2.459   2.037
 8351TIP3   OH225016   5.228   0.343   1.712
 8351TIP3    H125017   5.288   0.375   1.645
 8351TIP3    H225018   5.151   0.400   1.705
 8352TIP3   OH225019   0.749   4.166   0.279
 8352TIP3    H125020   0.683   4.158   0.211
 8352TIP3    H225021   0.709   4.222   0.345
 8353TIP3   OH225022   2.366   2.973   3.420
 8353TIP3    H125023   2.402   2.925   3.495
 8353TIP3    H225024   2.437   3.032   3.393
 8354TIP3   OH225025   5.263   2.177   1.956
 8354TIP3    H125026   5.297   2.128   1.881
 8354TIP3    H225027   5.189   2.124   1.988
 8355TIP3   OH225028   1.046   2.748   2.602
 8355TIP3    H125029   1.129   2.774   2.640
 8355TIP3    H225030   0.990   2.729   2.678
 8356TIP3   OH225031   2.192   1.732   3.619
 8356TIP3    H125032   2.254   1.663   3.642
 8356TIP3    H225033   2.247   1.807   3.596
 8357TIP3   OH225034   5.601   6.744   2.817
 8357TIP3    H125035   5.581   6.837   2.809
 8357TIP3    H225036   5.626   6.733   2.909
 8358TIP3   OH225037   0.557   2.993   1.958
 8358TIP3    H125038   0.555   2.907   1.999
 8358TIP3    H225039   0.634   3.036   1.997
 8359TIP3   OH225040   1.047   6.243   1.177
 8359TIP3    H125041   1.129   6.265   1.133
 8359TIP3    H225042   0.998   6.325   1.179
 8360TIP3   OH225043   3.715   0.595   4.811
 8360TIP3    H125044   3.685   0.605   4.720
 8360TIP3    H225045   3.793   0.540   4.805
 8361TIP3   OH225046   5.874   0.747   0.559
 8361TIP3    H125047   5.854   0.710   0.472
 8361TIP3    H225048   5.824   0.828   0.563
 8362TIP3   OH225049   6.477   2.693   0.012
 8362TIP3    H125050   6.564   2.720  -0.018
 8362TIP3    H225051   6.475   2.718   0.105
 8363TIP3   OH225052   4.196   5.759   0.256
 8363TIP3    H125053   4.172   5.823   0.189
 8363TIP3    H225054   4.149   5.787   0.334
 8364TIP3   OH225055   0.893   2.024   0.014
 8364TIP3    H125056   0.844   1.942   0.017
 8364TIP3    H225057   0.982   2.000   0.040
 8365TIP3   OH225058   4.740   0.828   2.382
 8365TIP3    H125059   4.814   0.767   2.389
 8365TIP3    H225060   4.668   0.783   2.425
 8366TIP3   OH225061   1.971   3.647   0.711
 8366TIP3    H125062   2.061   3.632   0.738
 8366TIP3    H225063   1.977   3.717   0.645
 8367TIP3   OH225064   7.104   4.834   4.842
 8367TIP3    H125065   7.142   4.905   4.790
 8367TIP3    H225066   7.180   4.782   4.869
 8368TIP3   OH225067   2.302   0.407   3.817
 8368TIP3    H125068   2.296   0.427   3.724
 8368TIP3    H225069   2.375   0.344   3.823
 8369TIP3   OH225070   6.052   0.140   2.453
 8369TIP3    H125071   6.019   0.144   2.542
 8369TIP3    H225072   5.974   0.133   2.398
 8370TIP3   OH225073   2.425   6.074   4.535
 8370TIP3    H125074   2.505   6.029   4.510
 8370TIP3    H225075   2.440   6.101   4.626
 8371TIP3   OH225076   2.616   5.984   0.052
 8371TIP3    H125077   2.560   5.945   0.120
 8371TIP3    H225078   2.674   5.913   0.025
 8372TIP3   OH225079   1.255   4.944   3.444
 8372TIP3    H125080   1.265   5.036   3.465
 8372TIP3    H225081   1.307   4.931   3.365
 8373TIP3   OH225082   0.836   4.247   1.925
 8373TIP3    H125083   0.797   4.186   1.862
 8373TIP3    H225084   0.779   4.324   1.922
 8374TIP3   OH225085   3.941   3.664   2.911
 8374TIP3    H125086   4.020   3.626   2.950
 8374TIP3    H225087   3.877   3.594   2.913
 8375TIP3   OH225088   2.334   4.286   0.975
 8375TIP3    H125089   2.292   4.314   0.893
 8375TIP3    H225090   2.403   4.351   0.989
 8376TIP3   OH225091   2.901   1.760   0.076
 8376TIP3    H125092   2.915   1.692   0.010
 8376TIP3    H225093   2.838   1.820   0.035
 8377TIP3   OH225094   0.953   2.582   1.243
 8377TIP3    H125095   1.005   2.596   1.322
 8377TIP3    H225096   0.978   2.495   1.212
 8378TIP3   OH225097   6.483   6.352   5.365
 8378TIP3    H125098   6.440   6.323   5.285
 8378TIP3    H225099   6.460   6.445   5.373
 8379TIP3   OH225100   1.862   5.666   3.159
 8379TIP3    H125101   1.946   5.638   3.123
 8379TIP3    H225102   1.884   5.740   3.215
 8380TIP3   OH225103   3.181   5.439   2.024
 8380TIP3    H125104   3.217   5.486   2.100
 8380TIP3    H225105   3.120   5.376   2.062
 8381TIP3   OH225106   4.956   5.070   1.928
 8381TIP3    H125107   5.009   5.150   1.925
 8381TIP3    H225108   4.952   5.040   1.837
 8382TIP3   OH225109   6.306   6.189   5.902
 8382TIP3    H125110   6.310   6.153   5.813
 8382TIP3    H225111   6.224   6.157   5.938
 8383TIP3   OH225112   4.879   5.194   4.739
 8383TIP3    H125113   4.878   5.103   4.769
 8383TIP3    H225114   4.832   5.242   4.807
 8384TIP3   OH225115   3.083   5.795   1.630
 8384TIP3    H125116   3.063   5.721   1.573
 8384TIP3    H225117   3.040   5.773   1.713
 8385TIP3   OH225118   1.235   1.824   1.720
 8385TIP3    H125119   1.281   1.863   1.794
 8385TIP3    H225120   1.303   1.775   1.672
 8386TIP3   OH225121   3.808   4.113   3.056
 8386TIP3    H125122   3.746   4.094   2.986
 8386TIP3    H225123   3.879   4.161   3.014
 8387TIP3   OH225124   1.370   4.081   1.855
 8387TIP3    H125125   1.275   4.077   1.868
 8387TIP3    H225126   1.384   4.034   1.772
 8388TIP3   OH225127   4.697   4.056   0.723
 8388TIP3    H125128   4.617   4.072   0.774
 8388TIP3    H225129   4.761   4.118   0.758
 8389TIP3   OH225130   5.724   0.686   1.137
 8389TIP3    H125131   5.686   0.694   1.224
 8389TIP3    H225132   5.652   0.704   1.077
 8390TIP3   OH225133   3.311   2.722   2.695
 8390TIP3    H125134   3.395   2.755   2.666
 8390TIP3    H225135   3.329   2.679   2.779
 8391TIP3   OH225136   7.047   5.158   5.803
 8391TIP3    H125137   7.107   5.131   5.733
 8391TIP3    H225138   7.061   5.094   5.873
 8392TIP3   OH225139   0.434   2.007   5.496
 8392TIP3    H125140   0.518   2.044   5.524
 8392TIP3    H225141   0.440   1.914   5.517
 8393TIP3   OH225142   5.279   5.231   2.085
 8393TIP3    H125143   5.322   5.148   2.108
 8393TIP3    H225144   5.323   5.296   2.140
 8394TIP3   OH225145   2.642   5.710   3.972
 8394TIP3    H125146   2.590   5.681   3.897
 8394TIP3    H225147   2.679   5.795   3.944
 8395TIP3   OH225148   3.058   0.445   4.435
 8395TIP3    H125149   2.964   0.440   4.449
 8395TIP3    H225150   3.088   0.513   4.495
 8396TIP3   OH225151   0.031   3.658   1.953
 8396TIP3    H125152  -0.022   3.637   2.031
 8396TIP3    H225153   0.015   3.752   1.939
 8397TIP3   OH225154   6.720   4.764   0.275
 8397TIP3    H125155   6.690   4.700   0.210
 8397TIP3    H225156   6.767   4.829   0.223
 8398TIP3   OH225157   1.851   2.833   3.718
 8398TIP3    H125158   1.796   2.889   3.773
 8398TIP3    H225159   1.810   2.834   3.632
 8399TIP3   OH225160   1.317   1.638   0.808
 8399TIP3    H125161   1.274   1.567   0.760
 8399TIP3    H225162   1.387   1.668   0.749
 8400TIP3   OH225163   5.787   2.898   2.686
 8400TIP3    H125164   5.784   2.803   2.696
 8400TIP3    H225165   5.874   2.916   2.651
 8401TIP3   OH225166   3.062   4.736   1.523
 8401TIP3    H125167   3.084   4.656   1.571
 8401TIP3    H225168   3.119   4.735   1.446
 8402TIP3   OH225169   3.221   4.588   1.933
 8402TIP3    H125170   3.141   4.622   1.975
 8402TIP3    H225171   3.276   4.559   2.006
 8403TIP3   OH225172   3.497   2.716   1.627
 8403TIP3    H125173   3.548   2.734   1.548
 8403TIP3    H225174   3.553   2.656   1.677
 8404TIP3   OH225175   7.000   1.419   2.060
 8404TIP3    H125176   6.956   1.366   2.126
 8404TIP3    H225177   6.932   1.437   1.995
 8405TIP3   OH225178   6.019   1.097   5.394
 8405TIP3    H125179   5.993   1.140   5.313
 8405TIP3    H225180   5.998   1.005   5.380
 8406TIP3   OH225181   3.907   3.297   0.361
 8406TIP3    H125182   3.958   3.350   0.300
 8406TIP3    H225183   3.834   3.265   0.309
 8407TIP3   OH225184   0.076   2.645   5.723
 8407TIP3    H125185   0.108   2.589   5.793
 8407TIP3    H225186  -0.015   2.620   5.711
 8408TIP3   OH225187   6.601   2.576   5.431
 8408TIP3    H125188   6.520   2.556   5.478
 8408TIP3    H225189   6.646   2.640   5.486
 8409TIP3   OH225190   6.161   3.616   1.658
 8409TIP3    H125191   6.078   3.571   1.640
 8409TIP3    H225192   6.221   3.582   1.592
 8410TIP3   OH225193   0.020   3.212   1.272
 8410TIP3    H125194   0.092   3.170   1.226
 8410TIP3    H225195  -0.057   3.192   1.219
 8411TIP3   OH225196   3.261   3.498   2.307
 8411TIP3    H125197   3.176   3.542   2.308
 8411TIP3    H225198   3.243   3.410   2.340
 8412TIP3   OH225199   1.552   2.131   3.708
 8412TIP3    H125200   1.461   2.119   3.679
 8412TIP3    H225201   1.569   2.224   3.698
 8413TIP3   OH225202   6.386   2.325   5.716
 8413TIP3    H125203   6.354   2.415   5.704
 8413TIP3    H225204   6.436   2.329   5.798
 8414TIP3   OH225205   3.767   1.098   0.475
 8414TIP3    H125206   3.817   1.158   0.420
 8414TIP3    H225207   3.793   1.119   0.564
 8415TIP3   OH225208   6.905   0.502   5.148
 8415TIP3    H125209   6.958   0.565   5.199
 8415TIP3    H225210   6.969   0.454   5.095
 8416TIP3   OH225211   2.342   0.674   4.438
 8416TIP3    H125212   2.288   0.750   4.417
 8416TIP3    H225213   2.387   0.653   4.356
 8417TIP3   OH225214   1.583   5.695   3.130
 8417TIP3    H125215   1.678   5.708   3.131
 8417TIP3    H225216   1.562   5.683   3.037
 8418TIP3   OH225217   2.858   2.780   0.598
 8418TIP3    H125218   2.948   2.769   0.570
 8418TIP3    H225219   2.815   2.698   0.573
 8419TIP3   OH225220   4.650   1.135   3.284
 8419TIP3    H125221   4.555   1.149   3.291
 8419TIP3    H225222   4.687   1.222   3.276
 8420TIP3   OH225223   5.763   3.825   2.403
 8420TIP3    H125224   5.760   3.750   2.463
 8420TIP3    H225225   5.852   3.859   2.411
 8421TIP3   OH225226   0.143   0.752   5.261
 8421TIP3    H125227   0.082   0.691   5.219
 8421TIP3    H225228   0.150   0.826   5.200
 8422TIP3   OH225229   0.980   6.417   1.805
 8422TIP3    H125230   0.894   6.447   1.773
 8422TIP3    H225231   0.984   6.325   1.780
 8423TIP3   OH225232   4.775   1.538   2.058
 8423TIP3    H125233   4.777   1.473   2.128
 8423TIP3    H225234   4.867   1.547   2.031
 8424TIP3   OH225235   5.356   3.391   3.141
 8424TIP3    H125236   5.284   3.333   3.165
 8424TIP3    H225237   5.411   3.339   3.083
 8425TIP3   OH225238   6.501   2.338   2.404
 8425TIP3    H125239   6.592   2.310   2.412
 8425TIP3    H225240   6.506   2.433   2.396
 8426TIP3   OH225241   5.800   5.597   0.986
 8426TIP3    H125242   5.878   5.542   0.976
 8426TIP3    H225243   5.831   5.670   1.040
 8427TIP3   OH225244   6.153   1.810   1.598
 8427TIP3    H125245   6.198   1.860   1.666
 8427TIP3    H225246   6.060   1.816   1.621
 8428TIP3   OH225247   7.140   2.284   0.267
 8428TIP3    H125248   7.173   2.242   0.346
 8428TIP3    H225249   7.135   2.377   0.289
 8429TIP3   OH225250   7.022   3.165   4.889
 8429TIP3    H125251   6.947   3.178   4.947
 8429TIP3    H225252   7.093   3.215   4.930
 8430TIP3   OH225253   4.598   6.569   2.520
 8430TIP3    H125254   4.590   6.597   2.611
 8430TIP3    H225255   4.693   6.564   2.505
 8431TIP3   OH225256   5.712   3.013   5.025
 8431TIP3    H125257   5.724   2.949   4.955
 8431TIP3    H225258   5.626   3.052   5.007
 8432TIP3   OH225259   0.208   4.323   4.744
 8432TIP3    H125260   0.114   4.333   4.755
 8432TIP3    H225261   0.217   4.264   4.669
 8433TIP3   OH225262   6.348   3.202   5.126
 8433TIP3    H125263   6.371   3.260   5.199
 8433TIP3    H225264   6.337   3.116   5.166
 8434TIP3   OH225265   6.104   0.690   4.331
 8434TIP3    H125266   6.186   0.642   4.344
 8434TIP3    H225267   6.124   0.753   4.262
 8435TIP3   OH225268   0.729   3.365   0.026
 8435TIP3    H125269   0.801   3.379  -0.036
 8435TIP3    H225270   0.769   3.375   0.112
 8436TIP3   OH225271   3.686   4.949   2.825
 8436TIP3    H125272   3.635   5.010   2.773
 8436TIP3    H225273   3.633   4.869   2.829
 8437TIP3   OH225274   3.084   5.832   1.176
 8437TIP3    H125275   3.070   5.874   1.092
 8437TIP3    H225276   3.156   5.771   1.161
 8438TIP3   OH225277   6.334   5.691   5.883
 8438TIP3    H125278   6.340   5.766   5.942
 8438TIP3    H225279   6.321   5.729   5.796
 8439TIP3   OH225280   1.792   5.706   5.939
 8439TIP3    H125281   1.736   5.729   5.865
 8439TIP3    H225282   1.838   5.627   5.910
 8440TIP3   OH225283   6.398   5.255   0.428
 8440TIP3    H125284   6.464   5.317   0.459
 8440TIP3    H225285   6.315   5.290   0.462
 8441TIP3   OH225286   0.014   3.187   2.791
 8441TIP3    H125287  -0.013   3.278   2.806
 8441TIP3    H225288   0.086   3.174   2.853
 8442TIP3   OH225289   2.746   3.062   2.641
 8442TIP3    H125290   2.781   2.977   2.668
 8442TIP3    H225291   2.783   3.124   2.704
 8443TIP3   OH225292   4.804   3.183   3.960
 8443TIP3    H125293   4.806   3.278   3.968
 8443TIP3    H225294   4.734   3.165   3.898
 8444TIP3   OH225295   0.999   0.489   2.475
 8444TIP3    H125296   1.006   0.441   2.557
 8444TIP3    H225297   1.011   0.581   2.499
 8445TIP3   OH225298   0.030   2.973   5.579
 8445TIP3    H125299  -0.050   2.945   5.535
 8445TIP3    H225300   0.100   2.926   5.533
 8446TIP3   OH225301   4.815   6.664   5.766
 8446TIP3    H125302   4.776   6.690   5.850
 8446TIP3    H225303   4.848   6.745   5.729
 8447TIP3   OH225304   6.078   3.359   4.972
 8447TIP3    H125305   6.049   3.448   4.989
 8447TIP3    H225306   6.158   3.349   5.024
 8448TIP3   OH225307   1.371   5.553   0.392
 8448TIP3    H125308   1.352   5.463   0.419
 8448TIP3    H225309   1.301   5.605   0.432
 8449TIP3   OH225310   5.899   3.287   2.537
 8449TIP3    H125311   5.805   3.290   2.557
 8449TIP3    H225312   5.923   3.195   2.549
 8450TIP3   OH225313   3.687   1.597   4.605
 8450TIP3    H125314   3.596   1.568   4.599
 8450TIP3    H225315   3.699   1.621   4.697
 8451TIP3   OH225316   5.905   2.297   2.111
 8451TIP3    H125317   5.937   2.256   2.191
 8451TIP3    H225318   5.922   2.390   2.124
 8452TIP3   OH225319   1.626   4.062   4.351
 8452TIP3    H125320   1.634   4.108   4.268
 8452TIP3    H225321   1.711   4.074   4.393
 8453TIP3   OH225322   2.966   1.052   3.699
 8453TIP3    H125323   2.916   0.975   3.672
 8453TIP3    H225324   2.946   1.117   3.631
 8454TIP3   OH225325   3.219   3.329   5.095
 8454TIP3    H125326   3.125   3.318   5.081
 8454TIP3    H225327   3.245   3.251   5.145
 8455TIP3   OH225328   2.065   0.914   0.069
 8455TIP3    H125329   1.997   0.869   0.019
 8455TIP3    H225330   2.026   0.930   0.155
 8456TIP3   OH225331   4.695   0.154   5.274
 8456TIP3    H125332   4.779   0.190   5.301
 8456TIP3    H225333   4.676   0.086   5.339
 8457TIP3   OH225334   3.957   4.127   5.296
 8457TIP3    H125335   3.947   4.198   5.232
 8457TIP3    H225336   3.944   4.169   5.381
 8458TIP3   OH225337   4.233   3.115   2.576
 8458TIP3    H125338   4.149   3.072   2.560
 8458TIP3    H225339   4.297   3.063   2.527
 8459TIP3   OH225340   4.627   5.132   0.696
 8459TIP3    H125341   4.537   5.151   0.672
 8459TIP3    H225342   4.639   5.178   0.780
 8460TIP3   OH225343   5.208   0.672   4.256
 8460TIP3    H125344   5.233   0.738   4.321
 8460TIP3    H225345   5.205   0.590   4.305
 8461TIP3   OH225346   6.217   4.665   4.791
 8461TIP3    H125347   6.238   4.578   4.756
 8461TIP3    H225348   6.153   4.700   4.729
 8462TIP3   OH225349   0.668   1.053   0.260
 8462TIP3    H125350   0.697   1.012   0.341
 8462TIP3    H225351   0.612   0.987   0.219
 8463TIP3   OH225352   4.875   3.922   1.390
 8463TIP3    H125353   4.829   3.853   1.437
 8463TIP3    H225354   4.814   3.949   1.321
 8464TIP3   OH225355   3.314   6.740   5.520
 8464TIP3    H125356   3.350   6.736   5.609
 8464TIP3    H225357   3.244   6.806   5.526
 8465TIP3   OH225358   4.976   2.166   2.195
 8465TIP3    H125359   5.051   2.222   2.177
 8465TIP3    H225360   4.984   2.093   2.133
 8466TIP3   OH225361   6.746   4.417   0.730
 8466TIP3    H125362   6.713   4.423   0.820
 8466TIP3    H225363   6.736   4.505   0.694
 8467TIP3   OH225364   0.095   3.908   5.114
 8467TIP3    H125365   0.056   3.984   5.158
 8467TIP3    H225366   0.183   3.902   5.149
 8468TIP3   OH225367   3.049   0.781   1.151
 8468TIP3    H125368   3.010   0.695   1.133
 8468TIP3    H225369   2.980   0.843   1.130
 8469TIP3   OH225370   2.953   1.925   5.087
 8469TIP3    H125371   2.984   1.869   5.016
 8469TIP3    H225372   2.970   2.014   5.057
 8470TIP3   OH225373   3.808   5.311   1.471
 8470TIP3    H125374   3.840   5.278   1.387
 8470TIP3    H225375   3.807   5.234   1.528
 8471TIP3   OH225376   0.364   6.254   5.073
 8471TIP3    H125377   0.453   6.227   5.050
 8471TIP3    H225378   0.371   6.349   5.087
 8472TIP3   OH225379   3.231   0.820   2.162
 8472TIP3    H125380   3.308   0.763   2.166
 8472TIP3    H225381   3.209   0.837   2.254
 8473TIP3   OH225382   1.366   5.400   5.501
 8473TIP3    H125383   1.328   5.427   5.585
 8473TIP3    H225384   1.444   5.455   5.491
 8474TIP3   OH225385   4.325   6.678   1.010
 8474TIP3    H125386   4.264   6.645   1.076
 8474TIP3    H225387   4.274   6.744   0.962
 8475TIP3   OH225388   3.990   2.959   3.768
 8475TIP3    H125389   3.915   2.902   3.752
 8475TIP3    H225390   3.961   3.018   3.837
 8476TIP3   OH225391   3.739   5.710   5.217
 8476TIP3    H125392   3.785   5.754   5.145
 8476TIP3    H225393   3.769   5.620   5.212
 8477TIP3   OH225394   2.659   1.901   1.211
 8477TIP3    H125395   2.699   1.970   1.264
 8477TIP3    H225396   2.575   1.883   1.254
 8478TIP3   OH225397   1.577   5.255   0.918
 8478TIP3    H125398   1.510   5.302   0.868
 8478TIP3    H225399   1.659   5.279   0.875
 8479TIP3   OH225400   3.815   3.308   4.614
 8479TIP3    H125401   3.783   3.264   4.535
 8479TIP3    H225402   3.911   3.302   4.607
 8480TIP3   OH225403   4.103   2.798   4.681
 8480TIP3    H125404   4.179   2.742   4.668
 8480TIP3    H225405   4.036   2.761   4.622
 8481TIP3   OH225406   3.407   3.386   3.357
 8481TIP3    H125407   3.450   3.370   3.441
 8481TIP3    H225408   3.343   3.455   3.375
 8482TIP3   OH225409   1.172   2.365   1.340
 8482TIP3    H125410   1.201   2.453   1.362
 8482TIP3    H225411   1.251   2.312   1.344
 8483TIP3   OH225412   6.715   6.370   4.322
 8483TIP3    H125413   6.772   6.435   4.279
 8483TIP3    H225414   6.769   6.291   4.327
 8484TIP3   OH225415   1.067   0.014   2.890
 8484TIP3    H125416   0.983  -0.013   2.853
 8484TIP3    H225417   1.044   0.071   2.964
 8485TIP3   OH225418   6.820   4.609   1.079
 8485TIP3    H125419   6.858   4.651   1.001
 8485TIP3    H225420   6.838   4.516   1.068
 8486TIP3   OH225421   5.525   2.111   2.431
 8486TIP3    H125422   5.587   2.060   2.482
 8486TIP3    H225423   5.566   2.120   2.345
 8487TIP3   OH225424   2.691   0.308   1.908
 8487TIP3    H125425   2.710   0.354   1.827
 8487TIP3    H225426   2.773   0.262   1.929
 8488TIP3   OH225427   1.613   5.533   3.841
 8488TIP3    H125428   1.659   5.514   3.922
 8488TIP3    H225429   1.676   5.512   3.772
 8489TIP3   OH225430   0.187   6.735   1.937
 8489TIP3    H125431   0.266   6.783   1.913
 8489TIP3    H225432   0.120   6.766   1.877
 8490TIP3   OH225433   5.832   3.125   4.165
 8490TIP3    H125434   5.871   3.076   4.093
 8490TIP3    H225435   5.787   3.198   4.122
 8491TIP3   OH225436   3.550   1.112   3.481
 8491TIP3    H125437   3.629   1.068   3.511
 8491TIP3    H225438   3.577   1.202   3.462
 8492TIP3   OH225439   6.191   1.103   3.851
 8492TIP3    H125440   6.222   1.023   3.809
 8492TIP3    H225441   6.110   1.078   3.895
 8493TIP3   OH225442   0.430   3.040   1.472
 8493TIP3    H125443   0.421   3.060   1.565
 8493TIP3    H225444   0.463   2.950   1.470
 8494TIP3   OH225445   4.590   4.538   3.273
 8494TIP3    H125446   4.635   4.455   3.284
 8494TIP3    H225447   4.515   4.517   3.218
 8495TIP3   OH225448   0.239   1.170   4.678
 8495TIP3    H125449   0.215   1.078   4.667
 8495TIP3    H225450   0.334   1.170   4.685
 8496TIP3   OH225451   1.109   4.342   3.231
 8496TIP3    H125452   1.137   4.301   3.149
 8496TIP3    H225453   1.019   4.370   3.214
 8497TIP3   OH225454   6.798   0.889   1.837
 8497TIP3    H125455   6.723   0.845   1.795
 8497TIP3    H225456   6.871   0.829   1.823
 8498TIP3   OH225457   4.388   4.236   1.739
 8498TIP3    H125458   4.471   4.213   1.697
 8498TIP3    H225459   4.411   4.303   1.803
 8499TIP3   OH225460   4.971   5.433   0.930
 8499TIP3    H125461   5.032   5.500   0.899
 8499TIP3    H225462   4.954   5.456   1.021
 8500TIP3   OH225463   5.982   3.345   2.250
 8500TIP3    H125464   5.954   3.288   2.322
 8500TIP3    H225465   5.922   3.325   2.178
 8501TIP3   OH225466   2.103   6.134   5.630
 8501TIP3    H125467   2.042   6.060   5.631
 8501TIP3    H225468   2.096   6.173   5.717
 8502TIP3   OH225469   2.651   5.714   0.143
 8502TIP3    H125470   2.729   5.665   0.117
 8502TIP3    H225471   2.579   5.667   0.102
 8503TIP3   OH225472   1.956   5.687   2.110
 8503TIP3    H125473   1.883   5.626   2.108
 8503TIP3    H225474   2.029   5.639   2.072
 8504TIP3   OH225475   0.607   0.591   4.021
 8504TIP3    H125476   0.614   0.561   4.112
 8504TIP3    H225477   0.669   0.664   4.015
 8505TIP3   OH225478   6.798   3.686   5.500
 8505TIP3    H125479   6.781   3.724   5.414
 8505TIP3    H225480   6.730   3.723   5.557
 8506TIP3   OH225481   6.437   4.761   5.080
 8506TIP3    H125482   6.529   4.770   5.054
 8506TIP3    H225483   6.388   4.769   4.998
 8507TIP3   OH225484   0.425   0.337   5.100
 8507TIP3    H125485   0.416   0.363   5.008
 8507TIP3    H225486   0.368   0.398   5.147
 8508TIP3   OH225487   2.918   0.157   1.975
 8508TIP3    H125488   2.908   0.096   1.901
 8508TIP3    H225489   2.911   0.101   2.053
 8509TIP3   OH225490   1.174   0.714   5.621
 8509TIP3    H125491   1.146   0.798   5.583
 8509TIP3    H225492   1.183   0.733   5.715
 8510TIP3   OH225493   1.031   3.614   1.615
 8510TIP3    H125494   0.940   3.606   1.586
 8510TIP3    H225495   1.037   3.554   1.690
 8511TIP3   OH225496   1.209   0.960   2.626
 8511TIP3    H125497   1.240   1.049   2.612
 8511TIP3    H225498   1.289   0.909   2.641
 8512TIP3   OH225499   5.664   1.218   0.090
 8512TIP3    H125500   5.704   1.291   0.135
 8512TIP3    H225501   5.674   1.238  -0.003
 8513TIP3   OH225502   3.293   6.146   5.842
 8513TIP3    H125503   3.380   6.126   5.809
 8513TIP3    H225504   3.239   6.155   5.764
 8514TIP3   OH225505   5.583   4.023   1.077
 8514TIP3    H125506   5.627   4.025   0.992
 8514TIP3    H225507   5.490   4.014   1.055
 8515TIP3   OH225508   5.099   1.985   2.044
 8515TIP3    H125509   5.027   1.934   2.008
 8515TIP3    H225510   5.138   1.928   2.111
 8516TIP3   OH225511   4.622   3.382   4.436
 8516TIP3    H125512   4.613   3.319   4.507
 8516TIP3    H225513   4.710   3.418   4.446
 8517TIP3   OH225514   1.365   0.268   1.061
 8517TIP3    H125515   1.307   0.343   1.076
 8517TIP3    H225516   1.452   0.299   1.086
 8518TIP3   OH225517   2.599   1.528   1.347
 8518TIP3    H125518   2.623   1.566   1.431
 8518TIP3    H225519   2.682   1.515   1.301
 8519TIP3   OH225520   4.699   5.726   5.039
 8519TIP3    H125521   4.779   5.748   5.086
 8519TIP3    H225522   4.727   5.664   4.971
 8520TIP3   OH225523   2.192   1.499   5.574
 8520TIP3    H125524   2.173   1.566   5.641
 8520TIP3    H225525   2.234   1.548   5.503
 8521TIP3   OH225526   7.146   5.920   2.368
 8521TIP3    H125527   7.074   5.938   2.307
 8521TIP3    H225528   7.103   5.880   2.444
 8522TIP3   OH225529   2.374   3.221   3.671
 8522TIP3    H125530   2.296   3.209   3.726
 8522TIP3    H225531   2.384   3.138   3.624
 8523TIP3   OH225532   0.393   2.373   3.597
 8523TIP3    H125533   0.381   2.281   3.623
 8523TIP3    H225534   0.480   2.376   3.558
 8524TIP3   OH225535   2.969   3.388   4.428
 8524TIP3    H125536   2.938   3.332   4.357
 8524TIP3    H225537   3.063   3.398   4.411
 8525TIP3   OH225538   2.005   2.657   4.364
 8525TIP3    H125539   1.970   2.676   4.450
 8525TIP3    H225540   2.098   2.677   4.370
 8526TIP3   OH225541   0.235   3.280   5.246
 8526TIP3    H125542   0.189   3.251   5.324
 8526TIP3    H225543   0.278   3.202   5.213
 8527TIP3   OH225544   1.710   6.342   4.690
 8527TIP3    H125545   1.644   6.322   4.757
 8527TIP3    H225546   1.766   6.408   4.731
 8528TIP3   OH225547   1.929   6.271   1.206
 8528TIP3    H125548   1.963   6.332   1.271
 8528TIP3    H225549   1.990   6.198   1.206
 8529TIP3   OH225550   6.559   5.718   3.739
 8529TIP3    H125551   6.597   5.695   3.654
 8529TIP3    H225552   6.508   5.641   3.764
 8530TIP3   OH225553   5.100   5.570   1.650
 8530TIP3    H125554   5.115   5.657   1.688
 8530TIP3    H225555   5.034   5.530   1.707
 8531TIP3   OH225556   0.982   0.879   3.345
 8531TIP3    H125557   0.911   0.816   3.352
 8531TIP3    H225558   1.056   0.829   3.310
 8532TIP3   OH225559   3.610   6.329   5.077
 8532TIP3    H125560   3.659   6.408   5.102
 8532TIP3    H225561   3.556   6.357   5.003
 8533TIP3   OH225562   3.959   2.394   5.422
 8533TIP3    H125563   3.929   2.482   5.397
 8533TIP3    H225564   3.883   2.353   5.462
 8534TIP3   OH225565   6.262   2.658   5.147
 8534TIP3    H125566   6.262   2.578   5.199
 8534TIP3    H225567   6.348   2.697   5.161
 8535TIP3   OH225568   1.752   3.795   3.064
 8535TIP3    H125569   1.778   3.730   2.998
 8535TIP3    H225570   1.793   3.765   3.145
 8536TIP3   OH225571   1.124   3.424   1.326
 8536TIP3    H125572   1.122   3.373   1.407
 8536TIP3    H225573   1.074   3.372   1.264
 8537TIP3   OH225574   6.810   3.753   3.456
 8537TIP3    H125575   6.852   3.677   3.417
 8537TIP3    H225576   6.873   3.786   3.520
 8538TIP3   OH225577   6.678   6.346   5.839
 8538TIP3    H125578   6.727   6.423   5.811
 8538TIP3    H225579   6.640   6.310   5.758
 8539TIP3   OH225580   3.605   4.750   5.560
 8539TIP3    H125581   3.641   4.668   5.525
 8539TIP3    H225582   3.526   4.724   5.607
 8540TIP3   OH225583   1.571   0.218   4.086
 8540TIP3    H125584   1.624   0.147   4.121
 8540TIP3    H225585   1.502   0.231   4.151
 8541TIP3   OH225586   4.990   2.021   3.837
 8541TIP3    H125587   4.944   1.995   3.758
 8541TIP3    H225588   4.923   2.057   3.894
 8542TIP3   OH225589   5.907   2.613   0.450
 8542TIP3    H125590   5.839   2.549   0.427
 8542TIP3    H225591   5.915   2.605   0.545
 8543TIP3   OH225592   4.315   0.217   3.871
 8543TIP3    H125593   4.316   0.244   3.780
 8543TIP3    H225594   4.320   0.299   3.920
 8544TIP3   OH225595   5.335   3.559   3.776
 8544TIP3    H125596   5.285   3.558   3.858
 8544TIP3    H225597   5.352   3.651   3.760
 8545TIP3   OH225598   1.106   1.570   1.489
 8545TIP3    H125599   1.087   1.574   1.395
 8545TIP3    H225600   1.187   1.518   1.495
 8546TIP3   OH225601   0.446   3.987   1.277
 8546TIP3    H125602   0.538   3.989   1.248
 8546TIP3    H225603   0.396   3.981   1.195
 8547TIP3   OH225604   5.758   6.776   3.889
 8547TIP3    H125605   5.718   6.690   3.902
 8547TIP3    H225606   5.687   6.831   3.854
 8548TIP3   OH225607   4.210   0.844   0.252
 8548TIP3    H125608   4.206   0.749   0.242
 8548TIP3    H225609   4.216   0.878   0.163
 8549TIP3   OH225610   1.452   1.767   1.548
 8549TIP3    H125611   1.401   1.796   1.472
 8549TIP3    H225612   1.543   1.770   1.517
 8550TIP3   OH225613   5.232   6.035   2.542
 8550TIP3    H125614   5.307   6.001   2.591
 8550TIP3    H225615   5.270   6.075   2.464
 8551TIP3   OH225616   1.855   4.396   1.553
 8551TIP3    H125617   1.860   4.395   1.457
 8551TIP3    H225618   1.848   4.489   1.575
 8552TIP3   OH225619   0.133   6.639   2.459
 8552TIP3    H125620   0.051   6.669   2.418
 8552TIP3    H225621   0.147   6.699   2.532
 8553TIP3   OH225622   2.006   0.261   2.034
 8553TIP3    H125623   2.059   0.322   1.982
 8553TIP3    H225624   1.916   0.278   2.008
 8554TIP3   OH225625   1.582   5.057   2.284
 8554TIP3    H125626   1.523   5.017   2.347
 8554TIP3    H225627   1.635   4.985   2.251
 8555TIP3   OH225628   2.864   5.107   4.291
 8555TIP3    H125629   2.960   5.111   4.285
 8555TIP3    H225630   2.839   5.189   4.333
 8556TIP3   OH225631   2.173   1.319   5.799
 8556TIP3    H125632   2.229   1.252   5.760
 8556TIP3    H225633   2.165   1.386   5.731
 8557TIP3   OH225634   0.093   5.026   0.243
 8557TIP3    H125635   0.119   5.049   0.153
 8557TIP3    H225636   0.079   4.931   0.240
 8558TIP3   OH225637   5.143   4.793   0.258
 8558TIP3    H125638   5.167   4.743   0.180
 8558TIP3    H225639   5.049   4.778   0.268
 8559TIP3   OH225640   1.447   0.782   2.925
 8559TIP3    H125641   1.360   0.822   2.914
 8559TIP3    H225642   1.438   0.694   2.888
 8560TIP3   OH225643   3.916   5.270   4.793
 8560TIP3    H125644   3.906   5.202   4.860
 8560TIP3    H225645   3.834   5.318   4.795
 8561TIP3   OH225646   6.884   0.436   4.056
 8561TIP3    H125647   6.936   0.469   3.983
 8561TIP3    H225648   6.871   0.513   4.112
 8562TIP3   OH225649   2.894   4.570   0.303
 8562TIP3    H125650   2.930   4.536   0.385
 8562TIP3    H225651   2.906   4.498   0.240
 8563TIP3   OH225652   4.388   4.679   0.118
 8563TIP3    H125653   4.407   4.689   0.024
 8563TIP3    H225654   4.467   4.638   0.153
 8564TIP3   OH225655   1.597   4.565   1.847
 8564TIP3    H125656   1.537   4.501   1.809
 8564TIP3    H225657   1.637   4.519   1.920
 8565TIP3   OH225658   3.250   5.109   5.157
 8565TIP3    H125659   3.247   5.045   5.228
 8565TIP3    H225660   3.235   5.058   5.077
 8566TIP3   OH225661   5.315   4.284   5.047
 8566TIP3    H125662   5.384   4.329   4.998
 8566TIP3    H225663   5.250   4.260   4.980
 8567TIP3   OH225664   5.423   0.940   1.047
 8567TIP3    H125665   5.452   0.879   0.979
 8567TIP3    H225666   5.358   0.891   1.097
 8568TIP3   OH225667   6.569   5.766   5.151
 8568TIP3    H125668   6.484   5.750   5.111
 8568TIP3    H225669   6.586   5.859   5.135
 8569TIP3   OH225670   6.084   3.166   4.314
 8569TIP3    H125671   5.996   3.143   4.282
 8569TIP3    H225672   6.137   3.089   4.295
 8570TIP3   OH225673   2.403   5.531   4.627
 8570TIP3    H125674   2.474   5.468   4.643
 8570TIP3    H225675   2.414   5.597   4.695
 8571TIP3   OH225676   6.769   2.371   5.328
 8571TIP3    H125677   6.724   2.446   5.365
 8571TIP3    H225678   6.742   2.297   5.383
 8572TIP3   OH225679   7.084   2.502   3.827
 8572TIP3    H125680   7.092   2.506   3.922
 8572TIP3    H225681   7.158   2.552   3.794
 8573TIP3   OH225682   2.175   3.151   1.502
 8573TIP3    H125683   2.129   3.191   1.428
 8573TIP3    H225684   2.266   3.145   1.473
 8574TIP3   OH225685   4.919   4.206   4.409
 8574TIP3    H125686   4.855   4.268   4.375
 8574TIP3    H225687   4.877   4.168   4.486
 8575TIP3   OH225688   2.806   0.850   3.603
 8575TIP3    H125689   2.868   0.799   3.551
 8575TIP3    H225690   2.783   0.792   3.676
 8576TIP3   OH225691   1.725   2.328   3.392
 8576TIP3    H125692   1.755   2.257   3.449
 8576TIP3    H225693   1.633   2.309   3.376
 8577TIP3   OH225694   6.259   1.234   2.121
 8577TIP3    H125695   6.232   1.261   2.033
 8577TIP3    H225696   6.178   1.233   2.172
 8578TIP3   OH225697   5.448   2.790   1.635
 8578TIP3    H125698   5.441   2.830   1.722
 8578TIP3    H225699   5.359   2.793   1.601
 8579TIP3   OH225700   3.176   3.337   1.271
 8579TIP3    H125701   3.172   3.242   1.271
 8579TIP3    H225702   3.142   3.363   1.185
 8580TIP3   OH225703   3.002   6.568   2.741
 8580TIP3    H125704   3.031   6.636   2.679
 8580TIP3    H225705   3.082   6.543   2.787
 8581TIP3   OH225706   2.150   6.160   3.210
 8581TIP3    H125707   2.143   6.076   3.166
 8581TIP3    H225708   2.143   6.225   3.140
 8582TIP3   OH225709   3.309   4.621   4.974
 8582TIP3    H125710   3.396   4.632   5.013
 8582TIP3    H225711   3.321   4.645   4.882
 8583TIP3   OH225712   5.955   1.496   5.298
 8583TIP3    H125713   6.018   1.526   5.232
 8583TIP3    H225714   5.953   1.401   5.287
 8584TIP3   OH225715   1.725   0.793   2.889
 8584TIP3    H125716   1.779   0.756   2.958
 8584TIP3    H225717   1.636   0.792   2.925
 8585TIP3   OH225718   5.042   4.815   4.255
 8585TIP3    H125719   5.102   4.747   4.285
 8585TIP3    H225720   5.090   4.897   4.269
 8586TIP3   OH225721   6.204   2.589   3.019
 8586TIP3    H125722   6.113   2.561   3.010
 8586TIP3    H225723   6.212   2.615   3.110
 8587TIP3   OH225724   4.666   3.370   2.177
 8587TIP3    H125725   4.599   3.399   2.115
 8587TIP3    H225726   4.642   3.280   2.198
 8588TIP3   OH225727   0.403   5.027   1.193
 8588TIP3    H125728   0.469   5.057   1.255
 8588TIP3    H225729   0.327   5.006   1.248
 8589TIP3   OH225730   4.383   3.554   1.040
 8589TIP3    H125731   4.474   3.543   1.066
 8589TIP3    H225732   4.344   3.467   1.049
 8590TIP3   OH225733   3.905   0.949   3.291
 8590TIP3    H125734   3.857   0.920   3.213
 8590TIP3    H225735   3.997   0.937   3.268
 8591TIP3   OH225736   4.726   5.033   4.038
 8591TIP3    H125737   4.783   5.052   4.113
 8591TIP3    H225738   4.772   4.965   3.989
 8592TIP3   OH225739   4.296   4.281   2.885
 8592TIP3    H125740   4.334   4.248   2.803
 8592TIP3    H225741   4.203   4.261   2.878
 8593TIP3   OH225742   6.493   5.783   4.495
 8593TIP3    H125743   6.477   5.689   4.495
 8593TIP3    H225744   6.490   5.808   4.587
 8594TIP3   OH225745   3.406   1.910   2.218
 8594TIP3    H125746   3.366   1.872   2.297
 8594TIP3    H225747   3.394   2.005   2.229
 8595TIP3   OH225748   1.764   5.302   2.249
 8595TIP3    H125749   1.765   5.328   2.341
 8595TIP3    H225750   1.750   5.207   2.252
 8596TIP3   OH225751   4.652   4.031   1.613
 8596TIP3    H125752   4.706   4.014   1.536
 8596TIP3    H225753   4.572   4.070   1.578
 8597TIP3   OH225754   1.303   5.976   1.050
 8597TIP3    H125755   1.277   5.948   1.138
 8597TIP3    H225756   1.361   5.907   1.019
 8598TIP3   OH225757   5.603   4.592   2.443
 8598TIP3    H125758   5.571   4.681   2.425
 8598TIP3    H225759   5.544   4.535   2.393
 8599TIP3   OH225760   4.145   4.590   4.073
 8599TIP3    H125761   4.232   4.583   4.034
 8599TIP3    H225762   4.150   4.669   4.128
 8600TIP3   OH225763   4.403   1.161   5.411
 8600TIP3    H125764   4.312   1.162   5.382
 8600TIP3    H225765   4.397   1.152   5.507
 8601TIP3   OH225766   1.576   0.672   3.602
 8601TIP3    H125767   1.651   0.627   3.641
 8601TIP3    H225768   1.609   0.710   3.521
 8602TIP3   OH225769   0.115   6.267   0.759
 8602TIP3    H125770   0.123   6.202   0.829
 8602TIP3    H225771   0.038   6.239   0.709
 8603TIP3   OH225772   2.425   6.457   2.191
 8603TIP3    H125773   2.480   6.382   2.169
 8603TIP3    H225774   2.335   6.424   2.185
 8604TIP3   OH225775   2.301   0.942   4.455
 8604TIP3    H125776   2.230   1.002   4.430
 8604TIP3    H225777   2.369   1.000   4.490
 8605TIP3   OH225778   6.732   0.322   2.426
 8605TIP3    H125779   6.688   0.284   2.350
 8605TIP3    H225780   6.712   0.416   2.422
 8606TIP3   OH225781   4.565   6.515   3.823
 8606TIP3    H125782   4.629   6.505   3.893
 8606TIP3    H225783   4.510   6.588   3.851
 8607TIP3   OH225784   6.031   6.268   0.802
 8607TIP3    H125785   5.963   6.308   0.856
 8607TIP3    H225786   6.012   6.299   0.713
 8608TIP3   OH225787   2.695   4.699   3.641
 8608TIP3    H125788   2.702   4.605   3.657
 8608TIP3    H225789   2.665   4.735   3.724
 8609TIP3   OH225790   0.365   5.819   4.822
 8609TIP3    H125791   0.449   5.822   4.777
 8609TIP3    H225792   0.321   5.900   4.795
 8610TIP3   OH225793   6.450   1.255   5.557
 8610TIP3    H125794   6.358   1.233   5.573
 8610TIP3    H225795   6.496   1.172   5.571
 8611TIP3   OH225796   5.428   0.785   2.922
 8611TIP3    H125797   5.381   0.853   2.874
 8611TIP3    H225798   5.366   0.756   2.989
 8612TIP3   OH225799   4.212   2.088   2.517
 8612TIP3    H125800   4.237   2.142   2.441
 8612TIP3    H225801   4.226   2.146   2.592
 8613TIP3   OH225802   3.387   5.888   0.361
 8613TIP3    H125803   3.476   5.900   0.326
 8613TIP3    H225804   3.401   5.860   0.452
 8614TIP3   OH225805   5.716   1.579   2.855
 8614TIP3    H125806   5.718   1.654   2.796
 8614TIP3    H225807   5.631   1.539   2.841
 8615TIP3   OH225808   0.474   3.500   5.192
 8615TIP3    H125809   0.487   3.438   5.120
 8615TIP3    H225810   0.393   3.471   5.234
 8616TIP3   OH225811   3.749   3.939   5.276
 8616TIP3    H125812   3.822   4.001   5.278
 8616TIP3    H225813   3.785   3.861   5.234
 8617TIP3   OH225814   0.843   2.577   4.469
 8617TIP3    H125815   0.915   2.632   4.500
 8617TIP3    H225816   0.872   2.488   4.483
 8618TIP3   OH225817   4.551   0.396   1.574
 8618TIP3    H125818   4.592   0.438   1.649
 8618TIP3    H225819   4.532   0.468   1.514
 8619TIP3   OH225820   5.065   1.190   1.482
 8619TIP3    H125821   5.053   1.101   1.447
 8619TIP3    H225822   5.121   1.178   1.558
 8620TIP3   OH225823   7.152   4.786   0.228
 8620TIP3    H125824   7.214   4.715   0.210
 8620TIP3    H225825   7.085   4.746   0.283
 8621TIP3   OH225826   2.687   4.226   2.840
 8621TIP3    H125827   2.621   4.180   2.787
 8621TIP3    H225828   2.648   4.229   2.928
 8622TIP3   OH225829   6.876   2.869   5.440
 8622TIP3    H125830   6.932   2.947   5.438
 8622TIP3    H225831   6.819   2.878   5.364
 8623TIP3   OH225832   1.276   4.579   4.042
 8623TIP3    H125833   1.200   4.613   4.090
 8623TIP3    H225834   1.348   4.584   4.104
 8624TIP3   OH225835   7.078   6.377   3.258
 8624TIP3    H125836   7.090   6.291   3.218
 8624TIP3    H225837   7.009   6.419   3.206
 8625TIP3   OH225838   3.874   5.416   0.048
 8625TIP3    H125839   3.959   5.446   0.081
 8625TIP3    H225840   3.894   5.336  -0.001
 8626TIP3   OH225841   0.262   3.096   1.263
 8626TIP3    H125842   0.307   3.063   1.341
 8626TIP3    H225843   0.289   3.187   1.256
 8627TIP3   OH225844   0.904   5.324   5.657
 8627TIP3    H125845   0.953   5.249   5.623
 8627TIP3    H225846   0.964   5.398   5.650
 8628TIP3   OH225847   6.733   1.152   1.675
 8628TIP3    H125848   6.666   1.151   1.607
 8628TIP3    H225849   6.756   1.060   1.688
 8629TIP3   OH225850   1.771   3.239   3.976
 8629TIP3    H125851   1.746   3.167   4.034
 8629TIP3    H225852   1.806   3.195   3.898
 8630TIP3   OH225853   4.453   3.630   3.882
 8630TIP3    H125854   4.472   3.542   3.914
 8630TIP3    H225855   4.538   3.675   3.885
 8631TIP3   OH225856   6.953   5.802   1.048
 8631TIP3    H125857   6.984   5.883   1.089
 8631TIP3    H225858   7.010   5.790   0.972
 8632TIP3   OH225859   3.869   5.468   2.343
 8632TIP3    H125860   3.774   5.478   2.336
 8632TIP3    H225861   3.882   5.392   2.400
 8633TIP3   OH225862   2.270   2.786   3.941
 8633TIP3    H125863   2.251   2.815   3.852
 8633TIP3    H225864   2.185   2.787   3.986
 8634TIP3   OH225865   3.331   4.798   3.200
 8634TIP3    H125866   3.267   4.745   3.246
 8634TIP3    H225867   3.414   4.751   3.211
 8635TIP3   OH225868   1.324   6.281   1.681
 8635TIP3    H125869   1.300   6.258   1.591
 8635TIP3    H225870   1.369   6.204   1.714
 8636TIP3   OH225871   0.032   2.908   4.394
 8636TIP3    H125872  -0.003   2.833   4.345
 8636TIP3    H225873  -0.008   2.900   4.481
 8637TIP3   OH225874   1.252   1.189   0.794
 8637TIP3    H125875   1.229   1.113   0.741
 8637TIP3    H225876   1.333   1.164   0.839
 8638TIP3   OH225877   5.453   0.553   2.259
 8638TIP3    H125878   5.532   0.509   2.292
 8638TIP3    H225879   5.453   0.534   2.165
 8639TIP3   OH225880   1.259   0.444   4.447
 8639TIP3    H125881   1.317   0.417   4.518
 8639TIP3    H225882   1.174   0.457   4.490
 8640TIP3   OH225883   0.303   4.199   5.340
 8640TIP3    H125884   0.291   4.250   5.260
 8640TIP3    H225885   0.279   4.259   5.411
 8641TIP3   OH225886   0.514   2.609   5.501
 8641TIP3    H125887   0.541   2.681   5.558
 8641TIP3    H225888   0.593   2.587   5.452
 8642TIP3   OH225889   3.342   0.081   0.050
 8642TIP3    H125890   3.420   0.127   0.020
 8642TIP3    H225891   3.349  -0.006   0.010
 8643TIP3   OH225892   6.243   0.126   4.201
 8643TIP3    H125893   6.166   0.108   4.256
 8643TIP3    H225894   6.247   0.221   4.195
 8644TIP3   OH225895   2.383   3.656   3.868
 8644TIP3    H125896   2.419   3.567   3.876
 8644TIP3    H225897   2.430   3.695   3.795
 8645TIP3   OH225898   3.800   1.015   3.552
 8645TIP3    H125899   3.814   0.976   3.466
 8645TIP3    H225900   3.888   1.016   3.592
 8646TIP3   OH225901   6.561   4.517   0.409
 8646TIP3    H125902   6.523   4.495   0.324
 8646TIP3    H225903   6.656   4.510   0.395
 8647TIP3   OH225904   4.911   3.850   0.930
 8647TIP3    H125905   4.988   3.816   0.977
 8647TIP3    H225906   4.885   3.928   0.980
 8648TIP3   OH225907   3.822   4.657   1.050
 8648TIP3    H125908   3.891   4.708   1.008
 8648TIP3    H225909   3.753   4.721   1.070
 8649TIP3   OH225910   1.109   4.410   1.424
 8649TIP3    H125911   1.198   4.436   1.449
 8649TIP3    H225912   1.083   4.346   1.491
 8650TIP3   OH225913   0.984   3.491   5.732
 8650TIP3    H125914   0.991   3.494   5.636
 8650TIP3    H225915   0.924   3.562   5.754
 8651TIP3   OH225916   4.307   4.253   4.065
 8651TIP3    H125917   4.331   4.300   3.985
 8651TIP3    H225918   4.335   4.311   4.136
 8652TIP3   OH225919   5.309   2.401   2.931
 8652TIP3    H125920   5.267   2.352   3.003
 8652TIP3    H225921   5.286   2.351   2.853
 8653TIP3   OH225922   1.514   5.371   1.167
 8653TIP3    H125923   1.593   5.399   1.212
 8653TIP3    H225924   1.544   5.346   1.080
 8654TIP3   OH225925   1.866   2.843   3.103
 8654TIP3    H125926   1.940   2.844   3.164
 8654TIP3    H225927   1.852   2.935   3.081
 8655TIP3   OH225928   1.993   4.897   5.777
 8655TIP3    H125929   1.998   4.907   5.682
 8655TIP3    H225930   1.974   4.984   5.810
 8656TIP3   OH225931   2.240   2.531   4.488
 8656TIP3    H125932   2.187   2.548   4.567
 8656TIP3    H225933   2.192   2.462   4.442
 8657TIP3   OH225934   6.763   4.806   5.151
 8657TIP3    H125935   6.756   4.816   5.246
 8657TIP3    H225936   6.850   4.840   5.130
 8658TIP3   OH225937   0.644   0.083   5.576
 8658TIP3    H125938   0.735   0.073   5.547
 8658TIP3    H225939   0.634   0.020   5.647
 8659TIP3   OH225940   6.631   0.717   1.624
 8659TIP3    H125941   6.655   0.625   1.615
 8659TIP3    H225942   6.536   0.719   1.609
 8660TIP3   OH225943   1.866   5.206   4.328
 8660TIP3    H125944   1.915   5.124   4.340
 8660TIP3    H225945   1.933   5.273   4.319
 8661TIP3   OH225946   4.894   1.840   3.315
 8661TIP3    H125947   4.873   1.828   3.223
 8661TIP3    H225948   4.941   1.761   3.340
 8662TIP3   OH225949   2.353   5.060   1.494
 8662TIP3    H125950   2.423   5.021   1.441
 8662TIP3    H225951   2.275   5.054   1.438
 8663TIP3   OH225952   4.800   1.230   1.587
 8663TIP3    H125953   4.805   1.289   1.512
 8663TIP3    H225954   4.892   1.215   1.611
 8664TIP3   OH225955   3.443   5.777   0.606
 8664TIP3    H125956   3.406   5.791   0.693
 8664TIP3    H225957   3.426   5.685   0.587
 8665TIP3   OH225958   4.765   0.936   1.192
 8665TIP3    H125959   4.709   1.014   1.186
 8665TIP3    H225960   4.747   0.887   1.113
 8666TIP3   OH225961   4.438   0.608   1.956
 8666TIP3    H125962   4.362   0.588   1.902
 8666TIP3    H225963   4.427   0.699   1.981
 8667TIP3   OH225964   4.795   1.092   3.933
 8667TIP3    H125965   4.851   1.034   3.882
 8667TIP3    H225966   4.706   1.064   3.910
 8668TIP3   OH225967   4.826   1.996   1.023
 8668TIP3    H125968   4.775   1.923   0.990
 8668TIP3    H225969   4.915   1.978   0.993
 8669TIP3   OH225970   5.737   6.349   3.696
 8669TIP3    H125971   5.681   6.299   3.637
 8669TIP3    H225972   5.799   6.285   3.731
 8670TIP3   OH225973   1.638   5.269   4.480
 8670TIP3    H125974   1.671   5.314   4.558
 8670TIP3    H225975   1.709   5.277   4.417
 8671TIP3   OH225976   0.534   5.079   3.879
 8671TIP3    H125977   0.480   5.071   3.957
 8671TIP3    H225978   0.471   5.098   3.809
 8672TIP3   OH225979   3.296   4.849   0.260
 8672TIP3    H125980   3.239   4.901   0.203
 8672TIP3    H225981   3.240   4.825   0.334
 8673TIP3   OH225982   5.819   4.509   3.417
 8673TIP3    H125983   5.839   4.559   3.337
 8673TIP3    H225984   5.904   4.497   3.459
 8674TIP3   OH225985   5.044   3.250   0.560
 8674TIP3    H125986   4.965   3.287   0.599
 8674TIP3    H225987   5.059   3.303   0.481
 8675TIP3   OH225988   0.923   0.143   5.444
 8675TIP3    H125989   0.884   0.105   5.366
 8675TIP3    H225990   0.905   0.237   5.436
 8676TIP3   OH225991   4.066   5.207   5.625
 8676TIP3    H125992   4.111   5.188   5.707
 8676TIP3    H225993   3.992   5.263   5.650
 8677TIP3   OH225994   0.899   0.773   1.279
 8677TIP3    H125995   0.807   0.786   1.303
 8677TIP3    H225996   0.896   0.745   1.188
 8678TIP3   OH225997   4.056   0.356   3.022
 8678TIP3    H125998   4.150   0.339   3.019
 8678TIP3    H225999   4.049   0.451   3.022
 8679TIP3   OH226000   6.425   0.524   5.895
 8679TIP3    H126001   6.397   0.580   5.967
 8679TIP3    H226002   6.420   0.581   5.818
 8680TIP3   OH226003   5.060   1.103   0.768
 8680TIP3    H126004   5.078   1.188   0.726
 8680TIP3    H226005   4.978   1.074   0.728
 8681TIP3   OH226006   4.732   4.083   2.030
 8681TIP3    H126007   4.687   4.015   2.081
 8681TIP3    H226008   4.819   4.047   2.014
 8682TIP3   OH226009   7.129   4.278   2.310
 8682TIP3    H126010   7.180   4.346   2.355
 8682TIP3    H226011   7.084   4.325   2.239
 8683TIP3   OH226012   1.666   5.784   0.619
 8683TIP3    H126013   1.718   5.786   0.699
 8683TIP3    H226014   1.633   5.694   0.614
 8684TIP3   OH226015   1.692   3.122   2.575
 8684TIP3    H126016   1.613   3.140   2.625
 8684TIP3    H226017   1.687   3.028   2.554
 8685TIP3   OH226018   7.079   5.512   4.201
 8685TIP3    H126019   7.072   5.513   4.297
 8685TIP3    H226020   7.001   5.558   4.170
 8686TIP3   OH226021   4.705   0.231   4.886
 8686TIP3    H126022   4.764   0.257   4.815
 8686TIP3    H226023   4.721   0.295   4.955
 8687TIP3   OH226024   4.382   2.660   0.402
 8687TIP3    H126025   4.395   2.737   0.457
 8687TIP3    H226026   4.393   2.692   0.313
 8688TIP3   OH226027   3.393   0.172   3.839
 8688TIP3    H126028   3.451   0.247   3.855
 8688TIP3    H226029   3.342   0.164   3.920
 8689TIP3   OH226030   4.962   0.697   0.940
 8689TIP3    H126031   4.990   0.755   0.869
 8689TIP3    H226032   4.882   0.736   0.974
 8690TIP3   OH226033   6.361   5.980   3.549
 8690TIP3    H126034   6.453   5.962   3.529
 8690TIP3    H226035   6.323   6.006   3.465
 8691TIP3   OH226036   2.396   2.797   1.352
 8691TIP3    H126037   2.487   2.822   1.368
 8691TIP3    H226038   2.390   2.707   1.386
 8692TIP3   OH226039   4.773   4.778   2.610
 8692TIP3    H126040   4.864   4.761   2.634
 8692TIP3    H226041   4.727   4.697   2.632
 8693TIP3   OH226042   2.061   5.187   0.892
 8693TIP3    H126043   2.022   5.118   0.946
 8693TIP3    H226044   1.988   5.242   0.866
 8694TIP3   OH226045   4.633   2.087   0.498
 8694TIP3    H126046   4.664   2.021   0.561
 8694TIP3    H226047   4.641   2.170   0.545
 8695TIP3   OH226048   6.234   3.046   1.376
 8695TIP3    H126049   6.168   2.979   1.360
 8695TIP3    H226050   6.260   3.035   1.467
 8696TIP3   OH226051   5.553   1.722   1.429
 8696TIP3    H126052   5.562   1.759   1.516
 8696TIP3    H226053   5.626   1.759   1.379
 8697TIP3   OH226054  -0.028   1.635   3.882
 8697TIP3    H126055  -0.006   1.560   3.826
 8697TIP3    H226056   0.050   1.689   3.880
 8698TIP3   OH226057   6.939   3.619   0.922
 8698TIP3    H126058   6.911   3.571   0.844
 8698TIP3    H226059   6.983   3.554   0.976
 8699TIP3   OH226060   5.437   3.518   4.213
 8699TIP3    H126061   5.466   3.597   4.167
 8699TIP3    H226062   5.448   3.538   4.306
 8700TIP3   OH226063   4.333   6.683   2.642
 8700TIP3    H126064   4.368   6.635   2.717
 8700TIP3    H226065   4.345   6.775   2.665
 8701TIP3   OH226066   1.759   5.510   1.297
 8701TIP3    H126067   1.709   5.549   1.368
 8701TIP3    H226068   1.841   5.483   1.337
 8702TIP3   OH226069   4.643   2.785   5.652
 8702TIP3    H126070   4.554   2.768   5.684
 8702TIP3    H226071   4.631   2.828   5.567
 8703TIP3   OH226072   4.810   4.914   1.719
 8703TIP3    H126073   4.790   4.988   1.662
 8703TIP3    H226074   4.905   4.902   1.710
 8704TIP3   OH226075   4.628   5.965   3.441
 8704TIP3    H126076   4.543   5.961   3.397
 8704TIP3    H226077   4.687   6.000   3.374
 8705TIP3   OH226078   0.443   2.753   2.720
 8705TIP3    H126079   0.411   2.830   2.767
 8705TIP3    H226080   0.400   2.758   2.634
 8706TIP3   OH226081   6.916   3.238   2.303
 8706TIP3    H126082   7.006   3.219   2.329
 8706TIP3    H226083   6.897   3.324   2.342
 8707TIP3   OH226084   4.942   5.850   0.498
 8707TIP3    H126085   4.886   5.891   0.433
 8707TIP3    H226086   4.976   5.922   0.551
 8708TIP3   OH226087   0.264   5.644   1.715
 8708TIP3    H126088   0.296   5.668   1.628
 8708TIP3    H226089   0.169   5.634   1.703
 8709TIP3   OH226090   2.981   5.727   4.214
 8709TIP3    H126091   3.001   5.821   4.220
 8709TIP3    H226092   2.885   5.723   4.216
 8710TIP3   OH226093   2.572   5.006   1.350
 8710TIP3    H126094   2.633   5.077   1.336
 8710TIP3    H226095   2.619   4.927   1.324
 8711TIP3   OH226096   0.811   5.495   2.440
 8711TIP3    H126097   0.837   5.403   2.434
 8711TIP3    H226098   0.779   5.517   2.352
 8712TIP3   OH226099   2.005   3.972   0.177
 8712TIP3    H126100   1.951   4.049   0.161
 8712TIP3    H226101   2.046   3.988   0.262
 8713TIP3   OH226102   6.113   5.054   5.770
 8713TIP3    H126103   6.050   5.107   5.816
 8713TIP3    H226104   6.149   4.995   5.837
 8714TIP3   OH226105   1.525   3.222   1.124
 8714TIP3    H126106   1.592   3.156   1.142
 8714TIP3    H226107   1.479   3.189   1.047
 8715TIP3   OH226108   0.035   3.754   4.710
 8715TIP3    H126109   0.127   3.781   4.701
 8715TIP3    H226110  -0.008   3.830   4.751
 8716TIP3   OH226111   2.855   2.890   4.415
 8716TIP3    H126112   2.853   2.955   4.345
 8716TIP3    H226113   2.783   2.831   4.395
 8717TIP3   OH226114   3.602   0.361   3.337
 8717TIP3    H126115   3.595   0.327   3.247
 8717TIP3    H226116   3.693   0.347   3.361
 8718TIP3   OH226117   0.239   1.615   0.732
 8718TIP3    H126118   0.206   1.618   0.642
 8718TIP3    H226119   0.165   1.641   0.786
 8719TIP3   OH226120   5.176   1.696   2.639
 8719TIP3    H126121   5.197   1.709   2.546
 8719TIP3    H226122   5.090   1.736   2.650
 8720TIP3   OH226123   5.043   6.372   2.280
 8720TIP3    H126124   5.086   6.425   2.346
 8720TIP3    H226125   4.949   6.386   2.295
 8721TIP3   OH226126   2.114   0.060   1.273
 8721TIP3    H126127   2.027   0.100   1.268
 8721TIP3    H226128   2.120   0.027   1.362
 8722TIP3   OH226129   0.676   6.695   3.863
 8722TIP3    H126130   0.670   6.772   3.919
 8722TIP3    H226131   0.742   6.640   3.905
 8723TIP3   OH226132   3.284   5.877   2.798
 8723TIP3    H126133   3.306   5.873   2.891
 8723TIP3    H226134   3.239   5.794   2.780
 8724TIP3   OH226135   1.000   4.149   4.118
 8724TIP3    H126136   0.920   4.145   4.065
 8724TIP3    H226137   0.995   4.233   4.163
 8725TIP3   OH226138   0.629   1.809   5.256
 8725TIP3    H126139   0.640   1.867   5.180
 8725TIP3    H226140   0.627   1.721   5.218
 8726TIP3   OH226141   2.582   6.486   4.902
 8726TIP3    H126142   2.585   6.496   4.807
 8726TIP3    H226143   2.578   6.576   4.935
 8727TIP3   OH226144   3.383   5.883   1.120
 8727TIP3    H126145   3.397   5.972   1.087
 8727TIP3    H226146   3.409   5.887   1.211
 8728TIP3   OH226147   5.100   5.842   4.304
 8728TIP3    H126148   5.109   5.937   4.315
 8728TIP3    H226149   5.081   5.809   4.392
 8729TIP3   OH226150   1.330   4.419   4.899
 8729TIP3    H126151   1.314   4.367   4.978
 8729TIP3    H226152   1.364   4.357   4.835
 8730TIP3   OH226153   4.834   1.724   3.064
 8730TIP3    H126154   4.854   1.663   2.994
 8730TIP3    H226155   4.751   1.692   3.100
 8731TIP3   OH226156   2.206   1.863   3.299
 8731TIP3    H126157   2.243   1.897   3.381
 8731TIP3    H226158   2.279   1.865   3.237
 8732TIP3   OH226159   2.040   4.886   2.169
 8732TIP3    H126160   2.130   4.864   2.143
 8732TIP3    H226161   2.043   4.980   2.187
 8733TIP3   OH226162   6.675   6.645   5.106
 8733TIP3    H126163   6.720   6.684   5.181
 8733TIP3    H226164   6.693   6.551   5.113
 8734TIP3   OH226165   5.247   2.195   2.774
 8734TIP3    H126166   5.284   2.125   2.721
 8734TIP3    H226167   5.203   2.151   2.846
 8735TIP3   OH226168   2.287   1.097   4.790
 8735TIP3    H126169   2.196   1.077   4.766
 8735TIP3    H226170   2.323   1.013   4.817
 8736TIP3   OH226171   4.963   0.200   4.387
 8736TIP3    H126172   4.895   0.266   4.402
 8736TIP3    H226173   4.973   0.156   4.471
 8737TIP3   OH226174   0.420   5.396   2.798
 8737TIP3    H126175   0.482   5.365   2.865
 8737TIP3    H226176   0.458   5.367   2.715
 8738TIP3   OH226177   5.646   1.531   3.234
 8738TIP3    H126178   5.585   1.550   3.163
 8738TIP3    H226179   5.608   1.575   3.310
 8739TIP3   OH226180   3.900   2.343   2.583
 8739TIP3    H126181   3.827   2.368   2.526
 8739TIP3    H226182   3.912   2.249   2.568
 8740TIP3   OH226183   4.957   1.557   3.426
 8740TIP3    H126184   5.051   1.566   3.439
 8740TIP3    H226185   4.921   1.548   3.514
 8741TIP3   OH226186   1.798   5.916   3.820
 8741TIP3    H126187   1.705   5.921   3.843
 8741TIP3    H226188   1.843   5.934   3.903
 8742TIP3   OH226189   5.932   2.671   3.453
 8742TIP3    H126190   5.877   2.670   3.374
 8742TIP3    H226191   6.019   2.647   3.421
 8743TIP3   OH226192   5.390   1.993   5.341
 8743TIP3    H126193   5.361   2.000   5.432
 8743TIP3    H226194   5.469   2.047   5.337
 8744TIP3   OH226195   2.136   3.558   4.913
 8744TIP3    H126196   2.086   3.640   4.907
 8744TIP3    H226197   2.209   3.571   4.853
 8745TIP3   OH226198   4.560   4.488   2.235
 8745TIP3    H126199   4.582   4.575   2.267
 8745TIP3    H226200   4.485   4.501   2.177
 8746TIP3   OH226201   6.559   5.451   4.138
 8746TIP3    H126202   6.515   5.375   4.098
 8746TIP3    H226203   6.647   5.450   4.102
 8747TIP3   OH226204   6.781   1.723   2.502
 8747TIP3    H126205   6.754   1.677   2.582
 8747TIP3    H226206   6.740   1.809   2.509
 8748TIP3   OH226207   4.057   1.522   0.672
 8748TIP3    H126208   4.142   1.491   0.704
 8748TIP3    H226209   4.048   1.609   0.710
 8749TIP3   OH226210   6.618   1.218   1.996
 8749TIP3    H126211   6.555   1.197   1.927
 8749TIP3    H226212   6.616   1.142   2.054
 8750TIP3   OH226213   4.360   1.878   2.877
 8750TIP3    H126214   4.374   1.973   2.873
 8750TIP3    H226215   4.396   1.845   2.795
 8751TIP3   OH226216   1.825   0.609   3.044
 8751TIP3    H126217   1.849   0.545   3.110
 8751TIP3    H226218   1.789   0.557   2.972
 8752TIP3   OH226219   5.745   2.619   3.102
 8752TIP3    H126220   5.665   2.641   3.055
 8752TIP3    H226221   5.800   2.697   3.095
 8753TIP3   OH226222   4.521   0.415   2.159
 8753TIP3    H126223   4.474   0.478   2.105
 8753TIP3    H226224   4.453   0.376   2.215
 8754TIP3   OH226225   6.361   2.909   0.168
 8754TIP3    H126226   6.395   2.986   0.213
 8754TIP3    H226227   6.268   2.929   0.153
 8755TIP3   OH226228   2.436   3.723   1.401
 8755TIP3    H126229   2.424   3.744   1.494
 8755TIP3    H226230   2.348   3.717   1.366
 8756TIP3   OH226231   1.349   3.524   3.146
 8756TIP3    H126232   1.306   3.609   3.152
 8756TIP3    H226233   1.314   3.475   3.221
 8757TIP3   OH226234   4.983   5.635   0.352
 8757TIP3    H126235   4.965   5.715   0.401
 8757TIP3    H226236   5.033   5.580   0.413
 8758TIP3   OH226237   3.446   5.174   5.406
 8758TIP3    H126238   3.465   5.223   5.486
 8758TIP3    H226239   3.390   5.102   5.433
 8759TIP3   OH226240   3.268   2.703   1.013
 8759TIP3    H126241   3.318   2.699   1.094
 8759TIP3    H226242   3.227   2.789   1.014
 8760TIP3   OH226243   7.232   0.113   3.693
 8760TIP3    H126244   7.209   0.033   3.645
 8760TIP3    H226245   7.158   0.172   3.679
 8761TIP3   OH226246   3.079   0.304   4.727
 8761TIP3    H126247   3.076   0.392   4.692
 8761TIP3    H226248   3.135   0.311   4.804
 8762TIP3   OH226249   5.995   5.496   2.585
 8762TIP3    H126250   6.046   5.416   2.583
 8762TIP3    H226251   6.006   5.529   2.675
 8763TIP3   OH226252   0.627   2.839   0.312
 8763TIP3    H126253   0.715   2.853   0.277
 8763TIP3    H226254   0.597   2.927   0.336
 8764TIP3   OH226255   3.195   2.805   3.871
 8764TIP3    H126256   3.257   2.777   3.804
 8764TIP3    H226257   3.219   2.754   3.949
 8765TIP3   OH226258   2.006   2.191   4.644
 8765TIP3    H126259   2.043   2.103   4.649
 8765TIP3    H226260   1.919   2.182   4.683
 8766TIP3   OH226261   4.840   1.058   5.902
 8766TIP3    H126262   4.771   1.006   5.944
 8766TIP3    H226263   4.844   1.024   5.813
 8767TIP3   OH226264   4.361   0.409   0.891
 8767TIP3    H126265   4.453   0.432   0.879
 8767TIP3    H226266   4.359   0.314   0.879
 8768TIP3   OH226267   0.546   3.989   5.432
 8768TIP3    H126268   0.525   4.070   5.385
 8768TIP3    H226269   0.480   3.926   5.402
 8769TIP3   OH226270   4.626   3.487   4.735
 8769TIP3    H126271   4.644   3.553   4.802
 8769TIP3    H226272   4.663   3.523   4.655
 8770TIP3   OH226273   3.918   5.569   3.678
 8770TIP3    H126274   3.983   5.588   3.610
 8770TIP3    H226275   3.876   5.653   3.697
 8771TIP3   OH226276   0.097   0.596   4.757
 8771TIP3    H126277   0.074   0.504   4.750
 8771TIP3    H226278   0.166   0.609   4.692
 8772TIP3   OH226279   3.159   0.028   2.735
 8772TIP3    H126280   3.110  -0.054   2.734
 8772TIP3    H226281   3.243   0.007   2.695
 8773TIP3   OH226282   1.743   0.234   4.707
 8773TIP3    H126283   1.649   0.224   4.695
 8773TIP3    H226284   1.780   0.220   4.619
 8774TIP3   OH226285   2.246   4.270   3.927
 8774TIP3    H126286   2.163   4.224   3.913
 8774TIP3    H226287   2.273   4.245   4.015
 8775TIP3   OH226288   6.170   4.788   0.650
 8775TIP3    H126289   6.224   4.718   0.613
 8775TIP3    H226290   6.225   4.866   0.646
 8776TIP3   OH226291   2.483   1.794   1.961
 8776TIP3    H126292   2.441   1.802   2.047
 8776TIP3    H226293   2.424   1.740   1.910
 8777TIP3   OH226294   0.834   3.777   3.140
 8777TIP3    H126295   0.774   3.850   3.128
 8777TIP3    H226296   0.899   3.809   3.203
 8778TIP3   OH226297   3.447   5.045   3.171
 8778TIP3    H126298   3.371   5.049   3.229
 8778TIP3    H226299   3.458   4.952   3.152
 8779TIP3   OH226300   3.201   1.658   3.081
 8779TIP3    H126301   3.126   1.631   3.135
 8779TIP3    H226302   3.266   1.589   3.093
 8780TIP3   OH226303   0.164   4.805   5.867
 8780TIP3    H126304   0.182   4.735   5.929
 8780TIP3    H226305   0.249   4.849   5.855
 8781TIP3   OH226306   2.924   4.292   1.220
 8781TIP3    H126307   2.830   4.287   1.205
 8781TIP3    H226308   2.936   4.251   1.306
 8782TIP3   OH226309   1.767   6.576   4.091
 8782TIP3    H126310   1.724   6.660   4.073
 8782TIP3    H226311   1.860   6.596   4.086
 8783TIP3   OH226312   6.220   4.352   4.785
 8783TIP3    H126313   6.205   4.383   4.696
 8783TIP3    H226314   6.135   4.321   4.815
 8784TIP3   OH226315   6.525   3.158   4.841
 8784TIP3    H126316   6.449   3.107   4.869
 8784TIP3    H226317   6.578   3.098   4.790
 8785TIP3   OH226318   5.688   6.511   3.911
 8785TIP3    H126319   5.705   6.456   3.834
 8785TIP3    H226320   5.594   6.501   3.926
 8786TIP3   OH226321   0.819   6.639   4.604
 8786TIP3    H126322   0.815   6.724   4.649
 8786TIP3    H226323   0.728   6.622   4.577
 8787TIP3   OH226324   2.587   5.768   1.141
 8787TIP3    H126325   2.628   5.732   1.062
 8787TIP3    H226326   2.619   5.858   1.146
 8788TIP3   OH226327   7.194   2.067   5.360
 8788TIP3    H126328   7.112   2.117   5.357
 8788TIP3    H226329   7.173   1.989   5.411
 8789TIP3   OH226330   5.975  -0.002   1.591
 8789TIP3    H126331   6.043  -0.067   1.606
 8789TIP3    H226332   5.907  -0.023   1.654
 8790TIP3   OH226333   0.883   1.095   4.602
 8790TIP3    H126334   0.871   1.189   4.591
 8790TIP3    H226335   0.869   1.058   4.515
 8791TIP3   OH226336   1.287   2.280   2.027
 8791TIP3    H126337   1.284   2.252   1.936
 8791TIP3    H226338   1.214   2.235   2.069
 8792TIP3   OH226339   7.160   2.742   3.950
 8792TIP3    H126340   7.135   2.678   4.017
 8792TIP3    H226341   7.132   2.826   3.986
 8793TIP3   OH226342   7.089   2.525   4.096
 8793TIP3    H126343   7.029   2.557   4.164
 8793TIP3    H226344   7.139   2.456   4.139
 8794TIP3   OH226345   7.175   3.531   5.245
 8794TIP3    H126346   7.099   3.503   5.194
 8794TIP3    H226347   7.244   3.542   5.181
 8795TIP3   OH226348   1.198   1.689   3.853
 8795TIP3    H126349   1.267   1.655   3.797
 8795TIP3    H226350   1.232   1.678   3.942
 8796TIP3   OH226351   4.918   4.751   3.497
 8796TIP3    H126352   4.842   4.798   3.532
 8796TIP3    H226353   4.982   4.820   3.478
 8797TIP3   OH226354   2.668   3.632   3.755
 8797TIP3    H126355   2.747   3.605   3.802
 8797TIP3    H226356   2.617   3.551   3.747
 8798TIP3   OH226357   5.188   2.897   0.686
 8798TIP3    H126358   5.103   2.936   0.707
 8798TIP3    H226359   5.239   2.908   0.766
 8799TIP3   OH226360   1.943   1.950   0.652
 8799TIP3    H126361   1.902   1.867   0.677
 8799TIP3    H226362   1.921   1.960   0.559
 8800TIP3   OH226363   1.055   6.103   2.420
 8800TIP3    H126364   1.090   6.015   2.431
 8800TIP3    H226365   1.125   6.161   2.448
 8801TIP3   OH226366   5.649   4.005   3.576
 8801TIP3    H126367   5.566   3.977   3.537
 8801TIP3    H226368   5.696   3.923   3.593
 8802TIP3   OH226369   1.738   6.360   2.564
 8802TIP3    H126370   1.668   6.364   2.499
 8802TIP3    H226371   1.781   6.276   2.547
 8803TIP3   OH226372   1.217   0.377   5.898
 8803TIP3    H126373   1.258   0.317   5.960
 8803TIP3    H226374   1.280   0.386   5.826
 8804TIP3   OH226375   2.213   4.224   1.430
 8804TIP3    H126376   2.196   4.317   1.410
 8804TIP3    H226377   2.307   4.214   1.416
 8805TIP3   OH226378   4.744   0.276   3.655
 8805TIP3    H126379   4.776   0.365   3.639
 8805TIP3    H226380   4.803   0.220   3.605
 8806TIP3   OH226381   2.673   5.946   2.367
 8806TIP3    H126382   2.729   5.970   2.441
 8806TIP3    H226383   2.627   5.867   2.397
 8807TIP3   OH226384   1.080   3.779   1.285
 8807TIP3    H126385   1.022   3.710   1.317
 8807TIP3    H226386   1.154   3.732   1.246
 8808TIP3   OH226387   3.710   1.739   3.143
 8808TIP3    H126388   3.744   1.824   3.169
 8808TIP3    H226389   3.637   1.722   3.202
 8809TIP3   OH226390   2.220   3.223   5.663
 8809TIP3    H126391   2.228   3.130   5.685
 8809TIP3    H226392   2.139   3.251   5.706
 8810TIP3   OH226393   0.910   6.440   4.759
 8810TIP3    H126394   0.875   6.508   4.701
 8810TIP3    H226395   0.986   6.405   4.712
 8811TIP3   OH226396   4.007   1.739   1.910
 8811TIP3    H126397   3.984   1.795   1.835
 8811TIP3    H226398   3.958   1.658   1.895
 8812TIP3   OH226399   2.933   3.397   3.307
 8812TIP3    H126400   2.872   3.417   3.236
 8812TIP3    H226401   2.917   3.465   3.373
 8813TIP3   OH226402   1.332   0.877   0.544
 8813TIP3    H126403   1.344   0.972   0.539
 8813TIP3    H226404   1.320   0.859   0.637
 8814TIP3   OH226405   6.195   2.166   5.049
 8814TIP3    H126406   6.244   2.210   4.980
 8814TIP3    H226407   6.128   2.115   5.002
 8815TIP3   OH226408   3.866   6.319   5.355
 8815TIP3    H126409   3.780   6.320   5.396
 8815TIP3    H226410   3.850   6.289   5.266
 8816TIP3   OH226411   3.059   0.522   3.099
 8816TIP3    H126412   3.065   0.464   3.175
 8816TIP3    H226413   3.059   0.463   3.023
 8817TIP3   OH226414   0.713   3.287   5.751
 8817TIP3    H126415   0.808   3.290   5.737
 8817TIP3    H226416   0.679   3.364   5.705
 8818TIP3   OH226417   6.866   4.858   2.318
 8818TIP3    H126418   6.888   4.801   2.392
 8818TIP3    H226419   6.908   4.817   2.243
 8819TIP3   OH226420   4.438   4.618   1.271
 8819TIP3    H126421   4.381   4.557   1.225
 8819TIP3    H226422   4.498   4.563   1.321
 8820TIP3   OH226423   0.444   6.298   4.229
 8820TIP3    H126424   0.379   6.290   4.299
 8820TIP3    H226425   0.509   6.359   4.263
 8821TIP3   OH226426   1.819   0.829   3.214
 8821TIP3    H126427   1.804   0.914   3.172
 8821TIP3    H226428   1.833   0.768   3.142
 8822TIP3   OH226429   5.847   0.185   1.860
 8822TIP3    H126430   5.943   0.185   1.855
 8822TIP3    H226431   5.821   0.102   1.819
 8823TIP3   OH226432   2.347   2.577   3.084
 8823TIP3    H126433   2.304   2.593   3.168
 8823TIP3    H226434   2.400   2.655   3.068
 8824TIP3   OH226435   3.135   5.075   4.217
 8824TIP3    H126436   3.170   4.993   4.253
 8824TIP3    H226437   3.207   5.137   4.224
 8825TIP3   OH226438   1.048   5.007   4.541
 8825TIP3    H126439   1.063   5.073   4.609
 8825TIP3    H226440   0.967   5.035   4.498
 8826TIP3   OH226441   5.217   6.319   1.570
 8826TIP3    H126442   5.215   6.247   1.633
 8826TIP3    H226443   5.282   6.380   1.605
 8827TIP3   OH226444   2.150   1.725   1.703
 8827TIP3    H126445   2.168   1.664   1.631
 8827TIP3    H226446   2.169   1.674   1.783
 8828TIP3   OH226447   3.288   6.025   0.132
 8828TIP3    H126448   3.311   5.970   0.208
 8828TIP3    H226449   3.288   5.964   0.058
 8829TIP3   OH226450   5.924   5.440   5.827
 8829TIP3    H126451   5.967   5.357   5.848
 8829TIP3    H226452   5.858   5.451   5.896
 8830TIP3   OH226453   0.222   5.528   2.969
 8830TIP3    H126454   0.292   5.497   2.910
 8830TIP3    H226455   0.166   5.581   2.914
 8831TIP3   OH226456   3.249   6.529   3.653
 8831TIP3    H126457   3.252   6.435   3.636
 8831TIP3    H226458   3.171   6.542   3.706
 8832TIP3   OH226459   4.163   2.136   0.900
 8832TIP3    H126460   4.123   2.215   0.938
 8832TIP3    H226461   4.127   2.132   0.812
 8833TIP3   OH226462   6.395   3.975   3.655
 8833TIP3    H126463   6.436   4.048   3.609
 8833TIP3    H226464   6.438   3.897   3.620
 8834TIP3   OH226465   3.466   5.697   4.279
 8834TIP3    H126466   3.373   5.705   4.299
 8834TIP3    H226467   3.483   5.602   4.281
 8835TIP3   OH226468   1.395   3.637   5.416
 8835TIP3    H126469   1.410   3.654   5.509
 8835TIP3    H226470   1.369   3.722   5.380
 8836TIP3   OH226471   5.019   5.433   5.295
 8836TIP3    H126472   4.972   5.513   5.272
 8836TIP3    H226473   4.982   5.406   5.379
 8837TIP3   OH226474   3.104   3.825   4.840
 8837TIP3    H126475   3.041   3.894   4.860
 8837TIP3    H226476   3.189   3.865   4.857
 8838TIP3   OH226477   1.868   4.505   4.094
 8838TIP3    H126478   1.793   4.449   4.116
 8838TIP3    H226479   1.880   4.561   4.171
 8839TIP3   OH226480   3.911   0.831   4.094
 8839TIP3    H126481   3.910   0.856   4.001
 8839TIP3    H226482   3.914   0.736   4.093
 8840TIP3   OH226483   2.835   0.870   5.664
 8840TIP3    H126484   2.777   0.860   5.588
 8840TIP3    H226485   2.788   0.928   5.723
 8841TIP3   OH226486   2.791   6.708   1.392
 8841TIP3    H126487   2.825   6.694   1.480
 8841TIP3    H226488   2.845   6.653   1.335
 8842TIP3   OH226489   4.934   4.805   4.018
 8842TIP3    H126490   4.983   4.810   4.100
 8842TIP3    H226491   5.000   4.796   3.950
 8843TIP3   OH226492   4.425   6.474   5.242
 8843TIP3    H126493   4.346   6.421   5.250
 8843TIP3    H226494   4.393   6.564   5.235
 8844TIP3   OH226495   5.357   2.594   2.564
 8844TIP3    H126496   5.285   2.533   2.579
 8844TIP3    H226497   5.427   2.563   2.622
 8845TIP3   OH226498   3.840   6.248   4.302
 8845TIP3    H126499   3.835   6.339   4.272
 8845TIP3    H226500   3.770   6.240   4.368
 8846TIP3   OH226501   5.982   3.027   2.082
 8846TIP3    H126502   6.068   3.030   2.040
 8846TIP3    H226503   5.948   3.116   2.074
 8847TIP3   OH226504   2.316   5.064   3.602
 8847TIP3    H126505   2.227   5.093   3.621
 8847TIP3    H226506   2.305   4.990   3.543
 8848TIP3   OH226507   3.393   2.995   3.121
 8848TIP3    H126508   3.327   3.015   3.188
 8848TIP3    H226509   3.441   3.077   3.110
 8849TIP3   OH226510   3.670   0.644   4.531
 8849TIP3    H126511   3.613   0.595   4.472
 8849TIP3    H226512   3.732   0.689   4.474
 8850TIP3   OH226513   2.696   1.209   5.928
 8850TIP3    H126514   2.664   1.251   5.848
 8850TIP3    H226515   2.622   1.159   5.961
 8851TIP3   OH226516   0.462   3.878   5.013
 8851TIP3    H126517   0.533   3.822   4.980
 8851TIP3    H226518   0.506   3.945   5.064
 8852TIP3   OH226519   0.798   1.863   4.490
 8852TIP3    H126520   0.714   1.838   4.528
 8852TIP3    H226521   0.802   1.958   4.500
 8853TIP3   OH226522   2.286   0.826   1.585
 8853TIP3    H126523   2.271   0.886   1.511
 8853TIP3    H226524   2.350   0.871   1.640
 8854TIP3   OH226525   0.471   4.448   1.530
 8854TIP3    H126526   0.428   4.423   1.448
 8854TIP3    H226527   0.554   4.400   1.529
 8855TIP3   OH226528   5.730   1.287   5.405
 8855TIP3    H126529   5.777   1.291   5.488
 8855TIP3    H226530   5.746   1.199   5.371
 8856TIP3   OH226531   4.902   0.505   0.075
 8856TIP3    H126532   4.922   0.596   0.095
 8856TIP3    H226533   4.832   0.481   0.136
 8857TIP3   OH226534   6.231   3.410   0.770
 8857TIP3    H126535   6.217   3.365   0.853
 8857TIP3    H226536   6.158   3.382   0.715
 8858TIP3   OH226537   1.549   4.843   1.908
 8858TIP3    H126538   1.557   4.888   1.823
 8858TIP3    H226539   1.569   4.751   1.888
 8859TIP3   OH226540   2.078   1.835   4.078
 8859TIP3    H126541   2.111   1.748   4.058
 8859TIP3    H226542   2.108   1.889   4.005
 8860TIP3   OH226543   2.767   0.648   3.216
 8860TIP3    H126544   2.771   0.631   3.121
 8860TIP3    H226545   2.799   0.567   3.256
 8861TIP3   OH226546   2.198   1.551   4.294
 8861TIP3    H126547   2.150   1.496   4.356
 8861TIP3    H226548   2.290   1.528   4.308
 8862TIP3   OH226549   5.175   2.422   2.646
 8862TIP3    H126550   5.132   2.469   2.717
 8862TIP3    H226551   5.191   2.335   2.681
 8863TIP3   OH226552   6.882   2.590   3.680
 8863TIP3    H126553   6.914   2.561   3.595
 8863TIP3    H226554   6.944   2.553   3.743
 8864TIP3   OH226555   6.988   4.926   5.096
 8864TIP3    H126556   7.009   4.872   5.020
 8864TIP3    H226557   7.007   5.016   5.067
 8865TIP3   OH226558   1.765   5.443   1.675
 8865TIP3    H126559   1.850   5.446   1.631
 8865TIP3    H226560   1.785   5.439   1.768
 8866TIP3   OH226561   6.120   0.678   0.168
 8866TIP3    H126562   6.033   0.682   0.129
 8866TIP3    H226563   6.113   0.611   0.235
 8867TIP3   OH226564   4.316   1.509   3.982
 8867TIP3    H126565   4.358   1.545   4.061
 8867TIP3    H226566   4.320   1.580   3.918
 8868TIP3   OH226567   1.632   4.407   4.157
 8868TIP3    H126568   1.565   4.465   4.192
 8868TIP3    H226569   1.583   4.335   4.117
 8869TIP3   OH226570   5.327   1.970   3.503
 8869TIP3    H126571   5.352   2.062   3.494
 8869TIP3    H226572   5.406   1.921   3.480
 8870TIP3   OH226573   4.893   2.957   2.271
 8870TIP3    H126574   4.840   2.923   2.344
 8870TIP3    H226575   4.893   2.887   2.206
 8871TIP3   OH226576   3.157   3.387   3.177
 8871TIP3    H126577   3.075   3.361   3.219
 8871TIP3    H226578   3.225   3.337   3.222
 8872TIP3   OH226579   5.209   4.792   3.936
 8872TIP3    H126580   5.246   4.715   3.979
 8872TIP3    H226581   5.184   4.762   3.849
 8873TIP3   OH226582   2.454   4.238   5.276
 8873TIP3    H126583   2.470   4.146   5.298
 8873TIP3    H226584   2.485   4.286   5.353
 8874TIP3   OH226585   2.574   2.274   3.352
 8874TIP3    H126586   2.632   2.214   3.398
 8874TIP3    H226587   2.499   2.285   3.411
 8875TIP3   OH226588   1.577   2.715   4.726
 8875TIP3    H126589   1.591   2.794   4.779
 8875TIP3    H226590   1.507   2.738   4.666
 8876TIP3   OH226591   2.695   4.368   4.653
 8876TIP3    H126592   2.651   4.290   4.617
 8876TIP3    H226593   2.623   4.422   4.686
 8877TIP3   OH226594   5.238   0.758   0.354
 8877TIP3    H126595   5.147   0.790   0.356
 8877TIP3    H226596   5.291   0.837   0.367
 8878TIP3   OH226597   3.686   5.575   0.338
 8878TIP3    H126598   3.748   5.523   0.388
 8878TIP3    H226599   3.715   5.666   0.350
 8879TIP3   OH226600   5.580   5.424   1.064
 8879TIP3    H126601   5.584   5.409   1.158
 8879TIP3    H226602   5.647   5.490   1.048
 8880TIP3   OH226603   5.253   1.947   5.767
 8880TIP3    H126604   5.300   1.864   5.775
 8880TIP3    H226605   5.311   2.004   5.716
 8881TIP3   OH226606   4.250   5.366   3.563
 8881TIP3    H126607   4.285   5.445   3.603
 8881TIP3    H226608   4.171   5.347   3.612
 8882TIP3   OH226609   5.492   0.657   4.712
 8882TIP3    H126610   5.556   0.722   4.683
 8882TIP3    H226611   5.521   0.631   4.799
 8883TIP3   OH226612   5.346   3.923   1.032
 8883TIP3    H126613   5.280   3.955   1.094
 8883TIP3    H226614   5.296   3.903   0.953
 8884TIP3   OH226615   3.667   4.626   5.858
 8884TIP3    H126616   3.584   4.617   5.811
 8884TIP3    H226617   3.675   4.719   5.877
 8885TIP3   OH226618   6.050   6.629   1.503
 8885TIP3    H126619   6.021   6.700   1.561
 8885TIP3    H226620   6.133   6.599   1.541
 8886TIP3   OH226621   2.099   5.551   5.588
 8886TIP3    H126622   2.145   5.514   5.512
 8886TIP3    H226623   2.087   5.643   5.567
 8887TIP3   OH226624   0.095   6.006   0.142
 8887TIP3    H126625   0.097   6.018   0.047
 8887TIP3    H226626   0.010   5.966   0.160
 8888TIP3   OH226627   5.411   3.157   3.517
 8888TIP3    H126628   5.431   3.133   3.427
 8888TIP3    H226629   5.426   3.251   3.521
 8889TIP3   OH226630   1.518   5.761   4.449
 8889TIP3    H126631   1.587   5.827   4.447
 8889TIP3    H226632   1.455   5.791   4.383
 8890TIP3   OH226633   2.786   5.477   3.288
 8890TIP3    H126634   2.740   5.562   3.287
 8890TIP3    H226635   2.832   5.475   3.372
 8891TIP3   OH226636   4.386   5.385   1.463
 8891TIP3    H126637   4.462   5.389   1.520
 8891TIP3    H226638   4.416   5.336   1.386
 8892TIP3   OH226639   7.045   6.421   0.572
 8892TIP3    H126640   6.966   6.462   0.536
 8892TIP3    H226641   7.029   6.417   0.666
 8893TIP3   OH226642   2.749   1.470   0.595
 8893TIP3    H126643   2.752   1.419   0.676
 8893TIP3    H226644   2.723   1.558   0.623
 8894TIP3   OH226645   2.573   4.032   3.309
 8894TIP3    H126646   2.569   4.015   3.403
 8894TIP3    H226647   2.663   4.011   3.285
 8895TIP3   OH226648   7.140   1.193   5.556
 8895TIP3    H126649   7.175   1.225   5.639
 8895TIP3    H226650   7.056   1.238   5.546
 8896TIP3   OH226651   6.801   6.200   3.888
 8896TIP3    H126652   6.760   6.127   3.934
 8896TIP3    H226653   6.884   6.213   3.933
 8897TIP3   OH226654   0.052   0.514   3.163
 8897TIP3    H126655   0.146   0.522   3.145
 8897TIP3    H226656   0.022   0.604   3.173
 8898TIP3   OH226657   3.762   4.678   4.265
 8898TIP3    H126658   3.833   4.614   4.272
 8898TIP3    H226659   3.697   4.636   4.208
 8899TIP3   OH226660   6.812   4.243   1.398
 8899TIP3    H126661   6.816   4.182   1.324
 8899TIP3    H226662   6.736   4.215   1.449
 8900TIP3   OH226663   2.144   6.128   3.732
 8900TIP3    H126664   2.073   6.159   3.787
 8900TIP3    H226665   2.161   6.199   3.671
 8901TIP3   OH226666   6.807   0.290   0.910
 8901TIP3    H126667   6.854   0.241   0.977
 8901TIP3    H226668   6.734   0.233   0.885
 8902TIP3   OH226669   5.642   6.142   2.219
 8902TIP3    H126670   5.667   6.148   2.127
 8902TIP3    H226671   5.723   6.158   2.267
 8903TIP3   OH226672   0.836   1.939   1.566
 8903TIP3    H126673   0.841   2.003   1.495
 8903TIP3    H226674   0.844   1.854   1.522
 8904TIP3   OH226675   4.508   1.262   4.470
 8904TIP3    H126676   4.430   1.219   4.434
 8904TIP3    H226677   4.573   1.257   4.401
 8905TIP3   OH226678   7.001   0.151   0.046
 8905TIP3    H126679   7.091   0.124   0.067
 8905TIP3    H226680   6.998   0.151  -0.049
 8906TIP3   OH226681   6.105   2.229   1.287
 8906TIP3    H126682   6.083   2.264   1.373
 8906TIP3    H226683   6.189   2.185   1.300
 8907TIP3   OH226684   2.812   1.800   4.584
 8907TIP3    H126685   2.730   1.814   4.633
 8907TIP3    H226686   2.783   1.782   4.494
 8908TIP3   OH226687   6.326   4.783   1.866
 8908TIP3    H126688   6.240   4.740   1.860
 8908TIP3    H226689   6.387   4.712   1.881
 8909TIP3   OH226690   4.623   0.899   3.113
 8909TIP3    H126691   4.601   0.967   3.176
 8909TIP3    H226692   4.664   0.830   3.165
 8910TIP3   OH226693   0.483   6.149   3.539
 8910TIP3    H126694   0.525   6.189   3.615
 8910TIP3    H226695   0.542   6.167   3.466
 8911TIP3   OH226696   5.847   5.271   4.178
 8911TIP3    H126697   5.903   5.318   4.117
 8911TIP3    H226698   5.777   5.332   4.199
 8912TIP3   OH226699   2.354   4.956   2.298
 8912TIP3    H126700   2.388   5.043   2.275
 8912TIP3    H226701   2.294   4.972   2.370
 8913TIP3   OH226702   1.279   6.565   4.741
 8913TIP3    H126703   1.265   6.474   4.715
 8913TIP3    H226704   1.370   6.583   4.718
 8914TIP3   OH226705   6.353   2.196   2.780
 8914TIP3    H126706   6.419   2.210   2.848
 8914TIP3    H226707   6.351   2.278   2.731
 8915TIP3   OH226708   6.310   5.315   4.275
 8915TIP3    H126709   6.374   5.258   4.232
 8915TIP3    H226710   6.268   5.260   4.340
 8916TIP3   OH226711   0.651   4.308   3.533
 8916TIP3    H126712   0.703   4.271   3.604
 8916TIP3    H226713   0.560   4.298   3.562
 8917TIP3   OH226714   6.636   3.280   2.514
 8917TIP3    H126715   6.705   3.262   2.578
 8917TIP3    H226716   6.576   3.339   2.559
 8918TIP3   OH226717   5.154   6.225   2.753
 8918TIP3    H126718   5.146   6.200   2.845
 8918TIP3    H226719   5.148   6.142   2.705
 8919TIP3   OH226720   5.178   6.041   2.132
 8919TIP3    H126721   5.115   5.973   2.153
 8919TIP3    H226722   5.124   6.119   2.118
 8920TIP3   OH226723   7.186   4.941   1.676
 8920TIP3    H126724   7.259   4.880   1.690
 8920TIP3    H226725   7.116   4.907   1.731
 8921TIP3   OH226726   6.718   5.544   1.620
 8921TIP3    H126727   6.782   5.473   1.623
 8921TIP3    H226728   6.637   5.505   1.652
 8922TIP3   OH226729   5.192   0.424   5.508
 8922TIP3    H126730   5.268   0.471   5.473
 8922TIP3    H226731   5.230   0.352   5.558
 8923TIP3   OH226732   1.898   4.150   1.315
 8923TIP3    H126733   1.838   4.081   1.286
 8923TIP3    H226734   1.933   4.118   1.399
 8924TIP3   OH226735   6.245   0.362   4.558
 8924TIP3    H126736   6.304   0.428   4.522
 8924TIP3    H226737   6.287   0.334   4.640
 8925TIP3   OH226738   4.350   5.462   5.374
 8925TIP3    H126739   4.303   5.426   5.299
 8925TIP3    H226740   4.283   5.509   5.424
 8926TIP3   OH226741   4.724   3.412   1.399
 8926TIP3    H126742   4.637   3.380   1.420
 8926TIP3    H226743   4.737   3.488   1.456
 8927TIP3   OH226744   4.053   1.638   3.429
 8927TIP3    H126745   4.031   1.611   3.340
 8927TIP3    H226746   4.025   1.730   3.435
 8928TIP3   OH226747   3.362   6.762   4.641
 8928TIP3    H126748   3.431   6.697   4.628
 8928TIP3    H226749   3.403   6.827   4.699
 8929TIP3   OH226750   1.252   5.169   4.344
 8929TIP3    H126751   1.245   5.242   4.405
 8929TIP3    H226752   1.337   5.129   4.363
 8930TIP3   OH226753   0.438   1.019   5.464
 8930TIP3    H126754   0.494   1.013   5.541
 8930TIP3    H226755   0.353   0.986   5.493
 8931TIP3   OH226756   5.676   3.794   0.169
 8931TIP3    H126757   5.615   3.737   0.120
 8931TIP3    H226758   5.685   3.872   0.114
 8932TIP3   OH226759   1.539   0.469   2.240
 8932TIP3    H126760   1.513   0.468   2.148
 8932TIP3    H226761   1.615   0.528   2.243
 8933TIP3   OH226762   5.611   5.139   4.742
 8933TIP3    H126763   5.605   5.232   4.763
 8933TIP3    H226764   5.538   5.122   4.683
 8934TIP3   OH226765   7.064   4.066   1.314
 8934TIP3    H126766   7.050   4.137   1.377
 8934TIP3    H226767   7.031   3.988   1.359
 8935TIP3   OH226768   4.694   3.027   5.793
 8935TIP3    H126769   4.684   2.936   5.763
 8935TIP3    H226770   4.670   3.080   5.717
 8936TIP3   OH226771   1.900   3.431   4.126
 8936TIP3    H126772   1.841   3.418   4.052
 8936TIP3    H226773   1.985   3.449   4.087
 8937TIP3   OH226774   1.620   0.085   0.894
 8937TIP3    H126775   1.587   0.005   0.854
 8937TIP3    H226776   1.670   0.128   0.825
 8938TIP3   OH226777   2.963   4.496   3.682
 8938TIP3    H126778   2.984   4.474   3.772
 8938TIP3    H226779   2.875   4.460   3.668
 8939TIP3   OH226780   4.957   2.007   0.746
 8939TIP3    H126781   4.978   2.094   0.712
 8939TIP3    H226782   5.025   1.990   0.811
 8940TIP3   OH226783   3.313   1.173   1.412
 8940TIP3    H126784   3.365   1.241   1.370
 8940TIP3    H226785   3.276   1.122   1.340
 8941TIP3   OH226786   3.548   2.830   2.658
 8941TIP3    H126787   3.608   2.846   2.584
 8941TIP3    H226788   3.534   2.917   2.696
 8942TIP3   OH226789   5.136   1.354   5.694
 8942TIP3    H126790   5.170   1.443   5.682
 8942TIP3    H226791   5.215   1.300   5.704
 8943TIP3   OH226792   2.542   2.219   5.048
 8943TIP3    H126793   2.574   2.218   5.138
 8943TIP3    H226794   2.613   2.257   4.997
 8944TIP3   OH226795   6.640   2.657   2.186
 8944TIP3    H126796   6.658   2.711   2.108
 8944TIP3    H226797   6.656   2.717   2.259
 8945TIP3   OH226798   5.081   4.577   2.343
 8945TIP3    H126799   5.128   4.654   2.376
 8945TIP3    H226800   4.996   4.611   2.316
 8946TIP3   OH226801   2.785   2.793   3.223
 8946TIP3    H126802   2.867   2.757   3.256
 8946TIP3    H226803   2.718   2.759   3.283
 8947TIP3   OH226804   0.321   1.166   0.110
 8947TIP3    H126805   0.234   1.202   0.127
 8947TIP3    H226806   0.323   1.084   0.159
 8948TIP3   OH226807   3.300   5.360   1.180
 8948TIP3    H126808   3.363   5.320   1.239
 8948TIP3    H226809   3.271   5.439   1.224
 8949TIP3   OH226810   4.900   0.920   3.092
 8949TIP3    H126811   4.944   0.837   3.111
 8949TIP3    H226812   4.810   0.896   3.071
 8950TIP3   OH226813   2.674   3.554   0.535
 8950TIP3    H126814   2.675   3.474   0.588
 8950TIP3    H226815   2.632   3.620   0.591
 8951TIP3   OH226816   1.580   1.830   0.812
 8951TIP3    H126817   1.654   1.856   0.867
 8951TIP3    H226818   1.518   1.902   0.818
 8952TIP3   OH226819   0.793   0.359   4.813
 8952TIP3    H126820   0.823   0.281   4.860
 8952TIP3    H226821   0.788   0.427   4.880
 8953TIP3   OH226822   0.843   5.767   5.296
 8953TIP3    H126823   0.877   5.677   5.294
 8953TIP3    H226824   0.750   5.758   5.277
 8954TIP3   OH226825   3.742   4.765   3.657
 8954TIP3    H126826   3.667   4.774   3.598
 8954TIP3    H226827   3.817   4.761   3.598
 8955TIP3   OH226828   4.115   1.907   1.491
 8955TIP3    H126829   4.190   1.849   1.502
 8955TIP3    H226830   4.147   1.977   1.433
 8956TIP3   OH226831   0.233   0.139   4.629
 8956TIP3    H126832   0.166   0.151   4.696
 8956TIP3    H226833   0.188   0.096   4.557
 8957TIP3   OH226834   4.617   2.033   3.580
 8957TIP3    H126835   4.570   1.973   3.522
 8957TIP3    H226836   4.613   2.118   3.535
 8958TIP3   OH226837   1.960   1.628   0.618
 8958TIP3    H126838   1.879   1.634   0.668
 8958TIP3    H226839   1.932   1.610   0.529
 8959TIP3   OH226840   5.421   0.521   3.161
 8959TIP3    H126841   5.441   0.566   3.243
 8959TIP3    H226842   5.506   0.511   3.117
 8960TIP3   OH226843   6.433   3.214   3.257
 8960TIP3    H126844   6.498   3.225   3.326
 8960TIP3    H226845   6.420   3.119   3.250
 8961TIP3   OH226846   1.130   5.879   4.591
 8961TIP3    H126847   1.139   5.800   4.537
 8961TIP3    H226848   1.037   5.886   4.609
 8962TIP3   OH226849   5.120   4.622   3.337
 8962TIP3    H126850   5.156   4.598   3.422
 8962TIP3    H226851   5.027   4.639   3.354
 8963TIP3   OH226852   4.068   0.710   0.994
 8963TIP3    H126853   4.093   0.657   1.069
 8963TIP3    H226854   4.126   0.682   0.923
 8964TIP3   OH226855   3.344   0.131   3.225
 8964TIP3    H126856   3.292   0.147   3.146
 8964TIP3    H226857   3.286   0.082   3.283
 8965TIP3   OH226858   2.943   0.823   4.738
 8965TIP3    H126859   2.904   0.890   4.794
 8965TIP3    H226860   2.914   0.740   4.776
 8966TIP3   OH226861   4.613   2.458   5.507
 8966TIP3    H126862   4.602   2.483   5.415
 8966TIP3    H226863   4.541   2.500   5.553
 8967TIP3   OH226864   3.796   6.374   2.604
 8967TIP3    H126865   3.767   6.314   2.536
 8967TIP3    H226866   3.726   6.440   2.609
 8968TIP3   OH226867   6.333   3.355   4.277
 8968TIP3    H126868   6.415   3.307   4.270
 8968TIP3    H226869   6.265   3.289   4.266
 8969TIP3   OH226870   3.578   5.011   1.284
 8969TIP3    H126871   3.672   5.023   1.278
 8969TIP3    H226872   3.549   4.997   1.194
 8970TIP3   OH226873   3.582   3.206   3.210
 8970TIP3    H126874   3.530   3.238   3.284
 8970TIP3    H226875   3.656   3.160   3.251
 8971TIP3   OH226876   4.596   6.212   1.472
 8971TIP3    H126877   4.545   6.251   1.401
 8971TIP3    H226878   4.530   6.183   1.535
 8972TIP3   OH226879   4.722   0.529   5.350
 8972TIP3    H126880   4.742   0.618   5.320
 8972TIP3    H226881   4.790   0.509   5.414
 8973TIP3   OH226882   2.922   0.105   0.161
 8973TIP3    H126883   3.008   0.148   0.157
 8973TIP3    H226884   2.931   0.039   0.229
 8974TIP3   OH226885   2.500   3.070   3.070
 8974TIP3    H126886   2.454   3.107   3.146
 8974TIP3    H226887   2.588   3.107   3.076
 8975TIP3   OH226888   1.017   5.725   5.042
 8975TIP3    H126889   1.014   5.748   5.135
 8975TIP3    H226890   1.020   5.629   5.041
 8976TIP3   OH226891   0.955   3.426   0.492
 8976TIP3    H126892   0.968   3.493   0.424
 8976TIP3    H226893   0.926   3.348   0.443
 8977TIP3   OH226894   3.461   2.115   3.344
 8977TIP3    H126895   3.539   2.062   3.358
 8977TIP3    H226896   3.440   2.103   3.251
 8978TIP3   OH226897   5.037   5.148   4.523
 8978TIP3    H126898   5.099   5.089   4.564
 8978TIP3    H226899   4.977   5.174   4.593
 8979TIP3   OH226900   1.164   0.701   5.280
 8979TIP3    H126901   1.098   0.659   5.226
 8979TIP3    H226902   1.243   0.650   5.266
 8980TIP3   OH226903   1.704   3.730   3.762
 8980TIP3    H126904   1.635   3.785   3.798
 8980TIP3    H226905   1.669   3.641   3.767
 8981TIP3   OH226906   0.194   2.991   4.123
 8981TIP3    H126907   0.201   2.896   4.108
 8981TIP3    H226908   0.205   3.029   4.036
 8982TIP3   OH226909   6.873   0.808   5.252
 8982TIP3    H126910   6.818   0.886   5.255
 8982TIP3    H226911   6.941   0.829   5.187
 8983TIP3   OH226912   1.212   6.273   4.258
 8983TIP3    H126913   1.248   6.260   4.170
 8983TIP3    H226914   1.233   6.193   4.305
 8984TIP3   OH226915   0.623   1.383   0.856
 8984TIP3    H126916   0.651   1.292   0.849
 8984TIP3    H226917   0.618   1.414   0.765
 8985TIP3   OH226918   1.492   3.564   1.791
 8985TIP3    H126919   1.553   3.637   1.784
 8985TIP3    H226920   1.499   3.518   1.707
 8986TIP3   OH226921   7.171   3.314   3.112
 8986TIP3    H126922   7.247   3.362   3.079
 8986TIP3    H226923   7.159   3.346   3.202
 8987TIP3   OH226924   5.975   5.877   4.782
 8987TIP3    H126925   6.034   5.886   4.707
 8987TIP3    H226926   5.942   5.788   4.776
 8988TIP3   OH226927   5.360   4.844   3.666
 8988TIP3    H126928   5.326   4.763   3.626
 8988TIP3    H226929   5.455   4.836   3.659
 8989TIP3   OH226930   5.030   2.390   4.676
 8989TIP3    H126931   5.075   2.416   4.756
 8989TIP3    H226932   4.979   2.466   4.650
 8990TIP3   OH226933   4.717   4.868   3.636
 8990TIP3    H126934   4.743   4.960   3.643
 8990TIP3    H226935   4.666   4.852   3.715
 8991TIP3   OH226936   6.707   5.676   5.784
 8991TIP3    H126937   6.778   5.613   5.773
 8991TIP3    H226938   6.634   5.624   5.817
 8992TIP3   OH226939   4.116   5.700   2.810
 8992TIP3    H126940   4.158   5.640   2.749
 8992TIP3    H226941   4.135   5.787   2.775
 8993TIP3   OH226942   2.754   1.289   1.558
 8993TIP3    H126943   2.822   1.338   1.512
 8993TIP3    H226944   2.800   1.212   1.593
 8994TIP3   OH226945   3.740   0.883   3.070
 8994TIP3    H126946   3.780   0.896   2.984
 8994TIP3    H226947   3.697   0.798   3.063
 8995TIP3   OH226948   2.142   2.473   1.460
 8995TIP3    H126949   2.083   2.398   1.457
 8995TIP3    H226950   2.136   2.505   1.550
 8996TIP3   OH226951   4.601   5.707   3.771
 8996TIP3    H126952   4.561   5.783   3.812
 8996TIP3    H226953   4.637   5.740   3.688
 8997TIP3   OH226954   2.489   2.564   1.736
 8997TIP3    H126955   2.556   2.561   1.805
 8997TIP3    H226956   2.432   2.636   1.761
 8998TIP3   OH226957   1.414   0.757   2.556
 8998TIP3    H126958   1.391   0.696   2.626
 8998TIP3    H226959   1.383   0.714   2.476
 8999TIP3   OH226960   1.999   0.441   0.173
 8999TIP3    H126961   2.045   0.497   0.111
 8999TIP3    H226962   2.032   0.353   0.156
 9000TIP3   OH226963   2.343   0.262   4.860
 9000TIP3    H126964   2.362   0.184   4.808
 9000TIP3    H226965   2.307   0.229   4.942
 9001TIP3   OH226966   4.872   6.391   4.548
 9001TIP3    H126967   4.873   6.295   4.550
 9001TIP3    H226968   4.946   6.414   4.493
 9002TIP3   OH226969   4.848   0.043   5.903
 9002TIP3    H126970   4.832   0.082   5.817
 9002TIP3    H226971   4.920  -0.018   5.888
 9003TIP3   OH226972   6.650   2.150   4.953
 9003TIP3    H126973   6.635   2.089   5.025
 9003TIP3    H226974   6.745   2.152   4.943
 9004TIP3   OH226975   2.042   3.837   4.587
 9004TIP3    H126976   2.132   3.865   4.573
 9004TIP3    H226977   2.043   3.794   4.672
 9005TIP3   OH226978   3.817   0.074   0.784
 9005TIP3    H126979   3.806   0.122   0.867
 9005TIP3    H226980   3.888   0.121   0.740
 9006TIP3   OH226981   1.677   1.449   0.532
 9006TIP3    H126982   1.620   1.381   0.570
 9006TIP3    H226983   1.696   1.507   0.605
 9007TIP3   OH226984   0.124   1.669   4.865
 9007TIP3    H126985   0.196   1.672   4.927
 9007TIP3    H226986   0.046   1.692   4.916
 9008TIP3   OH226987   2.160   0.777   2.127
 9008TIP3    H126988   2.121   0.865   2.131
 9008TIP3    H226989   2.144   0.748   2.038
 9009TIP3   OH226990   3.235   6.654   4.395
 9009TIP3    H126991   3.278   6.699   4.468
 9009TIP3    H226992   3.247   6.713   4.321
 9010TIP3   OH226993   7.097   3.527   4.775
 9010TIP3    H126994   7.152   3.454   4.744
 9010TIP3    H226995   7.154   3.604   4.768
 9011TIP3   OH226996   6.995   3.460   5.040
 9011TIP3    H126997   6.996   3.457   4.945
 9011TIP3    H226998   6.920   3.517   5.062
 9012TIP3   OH226999   5.966   0.177   2.709
 9012TIP3    H127000   5.935   0.090   2.737
 9012TIP3    H227001   5.944   0.235   2.782
 9013TIP3   OH227002   7.189   3.131   5.796
 9013TIP3    H127003   7.125   3.074   5.840
 9013TIP3    H227004   7.229   3.075   5.730
 9014TIP3   OH227005   0.172   0.783   4.290
 9014TIP3    H127006   0.134   0.708   4.243
 9014TIP3    H227007   0.113   0.856   4.271
 9015TIP3   OH227008   1.344   0.316   1.630
 9015TIP3    H127009   1.350   0.241   1.689
 9015TIP3    H227010   1.265   0.300   1.579
 9016TIP3   OH227011   2.585   3.490   1.500
 9016TIP3    H127012   2.518   3.428   1.528
 9016TIP3    H227013   2.536   3.570   1.480
 9017TIP3   OH227014   0.170   0.455   3.584
 9017TIP3    H127015   0.255   0.415   3.567
 9017TIP3    H227016   0.117   0.384   3.622
 9018TIP3   OH227017   2.734   2.605   4.627
 9018TIP3    H127018   2.816   2.651   4.647
 9018TIP3    H227019   2.714   2.630   4.537
 9019TIP3   OH227020   4.854   3.357   5.522
 9019TIP3    H127021   4.918   3.312   5.577
 9019TIP3    H227022   4.886   3.345   5.433
 9020TIP3   OH227023   1.658   2.752   5.714
 9020TIP3    H127024   1.701   2.686   5.660
 9020TIP3    H227025   1.730   2.805   5.749
 9021TIP3   OH227026   1.406   4.296   0.832
 9021TIP3    H127027   1.354   4.216   0.828
 9021TIP3    H227028   1.379   4.347   0.756
 9022TIP3   OH227029   1.529   4.252   3.116
 9022TIP3    H127030   1.459   4.252   3.181
 9022TIP3    H227031   1.557   4.160   3.112
 9023TIP3   OH227032   3.728   0.899   2.800
 9023TIP3    H127033   3.648   0.867   2.758
 9023TIP3    H227034   3.718   0.995   2.801
 9024TIP3   OH227035   4.562   1.865   3.366
 9024TIP3    H127036   4.574   1.770   3.355
 9024TIP3    H227037   4.587   1.902   3.281
 9025TIP3   OH227038   0.098   6.804   5.159
 9025TIP3    H127039   0.025   6.743   5.154
 9025TIP3    H227040   0.172   6.756   5.120
 9026TIP3   OH227041   5.135   4.795   5.245
 9026TIP3    H127042   5.221   4.760   5.221
 9026TIP3    H227043   5.109   4.744   5.321
 9027TIP3   OH227044   6.067   5.357   1.584
 9027TIP3    H127045   6.136   5.422   1.600
 9027TIP3    H227046   6.115   5.276   1.566
 9028TIP3   OH227047   6.480   6.766   5.770
 9028TIP3    H127048   6.464   6.854   5.736
 9028TIP3    H227049   6.482   6.711   5.692
 9029TIP3   OH227050   2.918   2.272   0.069
 9029TIP3    H127051   2.829   2.250   0.097
 9029TIP3    H227052   2.975   2.235   0.138
 9030TIP3   OH227053   5.937   5.555   1.380
 9030TIP3    H127054   5.870   5.623   1.386
 9030TIP3    H227055   6.010   5.597   1.334
 9031TIP3   OH227056   6.349   3.725   0.811
 9031TIP3    H127057   6.321   3.751   0.899
 9031TIP3    H227058   6.348   3.807   0.761
 9032TIP3   OH227059   1.301   6.081   3.892
 9032TIP3    H127060   1.224   6.047   3.937
 9032TIP3    H227061   1.325   6.159   3.942
 9033TIP3   OH227062   2.885   4.233   3.226
 9033TIP3    H127063   2.832   4.304   3.261
 9033TIP3    H227064   2.921   4.190   3.303
 9034TIP3   OH227065   0.321   2.933   0.347
 9034TIP3    H127066   0.347   3.025   0.351
 9034TIP3    H227067   0.326   2.903   0.438
 9035TIP3   OH227068   4.140   5.500   0.165
 9035TIP3    H127069   4.149   5.436   0.236
 9035TIP3    H227070   4.156   5.584   0.206
 9036TIP3   OH227071   2.422   5.058   3.258
 9036TIP3    H127072   2.383   5.105   3.332
 9036TIP3    H227073   2.474   4.989   3.299
 9037TIP3   OH227074   3.939   1.326   0.509
 9037TIP3    H127075   3.861   1.369   0.472
 9037TIP3    H227076   3.980   1.394   0.563
 9038TIP3   OH227077   3.286   3.909   1.201
 9038TIP3    H127078   3.362   3.966   1.207
 9038TIP3    H227079   3.304   3.837   1.261
 9039TIP3   OH227080   4.892   0.745   0.212
 9039TIP3    H127081   4.818   0.761   0.271
 9039TIP3    H227082   4.922   0.832   0.187
 9040TIP3   OH227083   3.964   2.463   4.712
 9040TIP3    H127084   4.042   2.417   4.743
 9040TIP3    H227085   3.893   2.401   4.727
 9041TIP3   OH227086   6.033   1.840   4.324
 9041TIP3    H127087   6.042   1.905   4.394
 9041TIP3    H227088   5.968   1.778   4.356
 9042TIP3   OH227089   0.558   3.120   1.043
 9042TIP3    H127090   0.585   3.132   1.134
 9042TIP3    H227091   0.639   3.126   0.993
 9043TIP3   OH227092   2.884   4.963   0.544
 9043TIP3    H127093   2.811   4.979   0.485
 9043TIP3    H227094   2.846   4.964   0.632
 9044TIP3   OH227095   2.020   3.043   0.125
 9044TIP3    H127096   2.012   2.958   0.167
 9044TIP3    H227097   2.101   3.080   0.160
 9045TIP3   OH227098   4.545   4.882   1.293
 9045TIP3    H127099   4.502   4.815   1.238
 9045TIP3    H227100   4.585   4.832   1.364
 9046TIP3   OH227101   3.807   1.866   4.136
 9046TIP3    H127102   3.727   1.872   4.084
 9046TIP3    H227103   3.878   1.869   4.072
 9047TIP3   OH227104   6.732   2.765   1.175
 9047TIP3    H127105   6.804   2.720   1.220
 9047TIP3    H227106   6.696   2.824   1.241
 9048TIP3   OH227107   3.706   3.669   2.309
 9048TIP3    H127108   3.664   3.602   2.364
 9048TIP3    H227109   3.796   3.638   2.299
 9049TIP3   OH227110   2.399   4.021   1.779
 9049TIP3    H127111   2.354   4.030   1.863
 9049TIP3    H227112   2.439   4.107   1.764
 9050TIP3   OH227113   6.203   4.476   3.287
 9050TIP3    H127114   6.140   4.414   3.323
 9050TIP3    H227115   6.174   4.492   3.197
 9051TIP3   OH227116   0.273   2.807   0.881
 9051TIP3    H127117   0.232   2.838   0.962
 9051TIP3    H227118   0.354   2.765   0.910
 9052TIP3   OH227119   0.666   4.676   0.104
 9052TIP3    H127120   0.620   4.647   0.025
 9052TIP3    H227121   0.718   4.601   0.131
 9053TIP3   OH227122   7.115   4.495   2.957
 9053TIP3    H127123   7.205   4.476   2.932
 9053TIP3    H227124   7.062   4.440   2.899
 9054TIP3   OH227125   4.229   1.813   2.434
 9054TIP3    H127126   4.240   1.900   2.472
 9054TIP3    H227127   4.270   1.819   2.348
 9055TIP3   OH227128   1.438   1.257   4.133
 9055TIP3    H127129   1.402   1.189   4.075
 9055TIP3    H227130   1.464   1.328   4.074
 9056TIP3   OH227131   1.720   0.333   4.954
 9056TIP3    H127132   1.737   0.278   5.030
 9056TIP3    H227133   1.756   0.283   4.880
 9057TIP3   OH227134   2.576   0.238   2.469
 9057TIP3    H127135   2.513   0.303   2.437
 9057TIP3    H227136   2.585   0.176   2.397
 9058TIP3   OH227137   5.124   5.282   5.111
 9058TIP3    H127138   5.086   5.361   5.150
 9058TIP3    H227139   5.208   5.271   5.157
 9059TIP3   OH227140   5.130   1.768   2.225
 9059TIP3    H127141   5.190   1.754   2.298
 9059TIP3    H227142   5.073   1.691   2.226
 9060TIP3   OH227143   0.438   0.861   3.975
 9060TIP3    H127144   0.425   0.784   3.920
 9060TIP3    H227145   0.529   0.886   3.962
 9061TIP3   OH227146   5.152   5.897   0.845
 9061TIP3    H127147   5.182   5.806   0.850
 9061TIP3    H227148   5.214   5.945   0.900
 9062TIP3   OH227149   2.600   2.748   0.902
 9062TIP3    H127150   2.603   2.752   0.806
 9062TIP3    H227151   2.517   2.790   0.925
 9063TIP3   OH227152   0.207   3.433   4.189
 9063TIP3    H127153   0.173   3.346   4.208
 9063TIP3    H227154   0.299   3.418   4.165
 9064TIP3   OH227155   6.794   4.956   0.100
 9064TIP3    H127156   6.752   5.038   0.125
 9064TIP3    H227157   6.786   4.954   0.004
 9065TIP3   OH227158   1.483   3.689   4.230
 9065TIP3    H127159   1.469   3.770   4.281
 9065TIP3    H227160   1.542   3.715   4.160
 9066TIP3   OH227161   1.127   1.027   0.336
 9066TIP3    H127162   1.075   0.974   0.395
 9066TIP3    H227163   1.209   1.044   0.383
 9067TIP3   OH227164   4.049   3.959   0.343
 9067TIP3    H127165   4.136   3.951   0.303
 9067TIP3    H227166   4.057   4.032   0.404
 9068TIP3   OH227167   5.526   4.856   2.380
 9068TIP3    H127168   5.458   4.912   2.416
 9068TIP3    H227169   5.569   4.910   2.314
 9069TIP3   OH227170   1.913   3.406   2.533
 9069TIP3    H127171   1.955   3.359   2.605
 9069TIP3    H227172   1.976   3.402   2.462
 9070TIP3   OH227173   1.475   2.068   2.767
 9070TIP3    H127174   1.557   2.048   2.722
 9070TIP3    H227175   1.409   2.068   2.698
 9071TIP3   OH227176   6.730   3.791   0.886
 9071TIP3    H127177   6.809   3.737   0.894
 9071TIP3    H227178   6.676   3.767   0.961
 9072TIP3   OH227179   1.065   5.390   0.705
 9072TIP3    H127180   1.030   5.458   0.648
 9072TIP3    H227181   0.989   5.338   0.731
 9073TIP3   OH227182   5.920   0.513   5.261
 9073TIP3    H127183   5.942   0.498   5.353
 9073TIP3    H227184   5.960   0.439   5.215
 9074TIP3   OH227185   2.988   5.526   1.032
 9074TIP3    H127186   3.034   5.477   0.964
 9074TIP3    H227187   2.967   5.610   0.991
 9075TIP3   OH227188   4.107   2.622   0.112
 9075TIP3    H127189   4.078   2.531   0.120
 9075TIP3    H227190   4.030   2.669   0.081
 9076TIP3   OH227191   6.239   4.179   3.218
 9076TIP3    H127192   6.225   4.098   3.267
 9076TIP3    H227193   6.208   4.248   3.277
 9077TIP3   OH227194   6.591   5.095   2.750
 9077TIP3    H127195   6.560   5.022   2.804
 9077TIP3    H227196   6.516   5.154   2.744
 9078TIP3   OH227197   3.960   4.501   1.236
 9078TIP3    H127198   3.921   4.565   1.175
 9078TIP3    H227199   3.937   4.416   1.199
 9079TIP3   OH227200   2.133   1.654   5.789
 9079TIP3    H127201   2.091   1.728   5.832
 9079TIP3    H227202   2.206   1.632   5.847
 9080TIP3   OH227203   5.296   4.968   5.480
 9080TIP3    H127204   5.233   4.990   5.411
 9080TIP3    H227205   5.278   4.876   5.500
 9081TIP3   OH227206   4.884   2.613   5.758
 9081TIP3    H127207   4.926   2.537   5.717
 9081TIP3    H227208   4.816   2.640   5.697
 9082TIP3   OH227209   3.904   2.824   1.240
 9082TIP3    H127210   3.875   2.866   1.159
 9082TIP3    H227211   3.894   2.730   1.223
 9083TIP3   OH227212   5.879   2.226   4.506
 9083TIP3    H127213   5.840   2.312   4.489
 9083TIP3    H227214   5.954   2.221   4.446
 9084TIP3   OH227215   6.852   5.765   4.873
 9084TIP3    H127216   6.924   5.712   4.839
 9084TIP3    H227217   6.773   5.719   4.846
 9085TIP3   OH227218   1.692   1.578   2.148
 9085TIP3    H127219   1.732   1.503   2.104
 9085TIP3    H227220   1.762   1.613   2.204
 9086TIP3   OH227221   6.158   0.543   3.660
 9086TIP3    H127222   6.238   0.525   3.708
 9086TIP3    H227223   6.092   0.559   3.728
 9087TIP3   OH227224   2.600   5.408   4.278
 9087TIP3    H127225   2.533   5.361   4.328
 9087TIP3    H227226   2.652   5.338   4.237
 9088TIP3   OH227227   4.831   1.684   2.507
 9088TIP3    H127228   4.905   1.667   2.447
 9088TIP3    H227229   4.854   1.765   2.551
 9089TIP3   OH227230   5.182   3.938   2.949
 9089TIP3    H127231   5.212   4.017   2.903
 9089TIP3    H227232   5.236   3.868   2.912
 9090TIP3   OH227233   2.562   4.750   0.462
 9090TIP3    H127234   2.621   4.821   0.437
 9090TIP3    H227235   2.550   4.699   0.381
 9091TIP3   OH227236   4.907   1.457   5.305
 9091TIP3    H127237   4.816   1.443   5.332
 9091TIP3    H227238   4.958   1.397   5.360
 9092TIP3   OH227239   1.159   5.858   2.372
 9092TIP3    H127240   1.213   5.841   2.295
 9092TIP3    H227241   1.212   5.827   2.445
 9093TIP3   OH227242   0.287   2.683   1.319
 9093TIP3    H127243   0.292   2.614   1.252
 9093TIP3    H227244   0.249   2.758   1.273
 9094TIP3   OH227245   5.566   0.431   0.100
 9094TIP3    H127246   5.600   0.376   0.170
 9094TIP3    H227247   5.478   0.398   0.083
 9095TIP3   OH227248   6.608   6.378   4.610
 9095TIP3    H127249   6.565   6.356   4.527
 9095TIP3    H227250   6.582   6.469   4.626
 9096TIP3   OH227251   4.801   3.533   5.901
 9096TIP3    H127252   4.869   3.475   5.936
 9096TIP3    H227253   4.836   3.563   5.817
 9097TIP3   OH227254   0.249   2.483   1.137
 9097TIP3    H127255   0.319   2.456   1.077
 9097TIP3    H227256   0.249   2.417   1.206
 9098TIP3   OH227257   0.170   6.655   1.081
 9098TIP3    H127258   0.232   6.623   1.016
 9098TIP3    H227259   0.093   6.599   1.070
 9099TIP3   OH227260   5.846   5.825   1.238
 9099TIP3    H127261   5.794   5.902   1.217
 9099TIP3    H227262   5.934   5.846   1.207
 9100TIP3   OH227263   4.882   0.785   3.797
 9100TIP3    H127264   4.959   0.797   3.743
 9100TIP3    H227265   4.899   0.704   3.846
 9101TIP3   OH227266   3.015   4.452   2.132
 9101TIP3    H127267   2.925   4.484   2.125
 9101TIP3    H227268   3.011   4.361   2.102
 9102TIP3   OH227269   4.335   2.420   3.067
 9102TIP3    H127270   4.350   2.492   3.127
 9102TIP3    H227271   4.411   2.420   3.009
 9103TIP3   OH227272   3.047   3.211   5.504
 9103TIP3    H127273   3.092   3.197   5.420
 9103TIP3    H227274   3.025   3.304   5.503
 9104TIP3   OH227275   0.820   3.996   5.086
 9104TIP3    H127276   0.883   3.952   5.029
 9104TIP3    H227277   0.811   3.938   5.161
 9105TIP3   OH227278   3.267   3.151   1.976
 9105TIP3    H127279   3.330   3.167   1.905
 9105TIP3    H227280   3.199   3.218   1.963
 9106TIP3   OH227281   6.051   0.985   1.803
 9106TIP3    H127282   6.115   0.914   1.813
 9106TIP3    H227283   6.020   1.002   1.892
 9107TIP3   OH227284   7.086   2.266   5.172
 9107TIP3    H127285   7.023   2.212   5.220
 9107TIP3    H227286   7.065   2.355   5.199
 9108TIP3   OH227287   0.296   0.106   0.277
 9108TIP3    H127288   0.206   0.125   0.252
 9108TIP3    H227289   0.349   0.161   0.219
 9109TIP3   OH227290   1.732   1.621   0.737
 9109TIP3    H127291   1.764   1.600   0.825
 9109TIP3    H227292   1.671   1.694   0.750
 9110TIP3   OH227293   2.054   5.325   0.571
 9110TIP3    H127294   2.138   5.360   0.600
 9110TIP3    H227295   2.044   5.359   0.482
 9111TIP3   OH227296   2.417   0.412   4.503
 9111TIP3    H127297   2.392   0.425   4.412
 9111TIP3    H227298   2.405   0.498   4.544
 9112TIP3   OH227299   4.154   4.107   3.777
 9112TIP3    H127300   4.178   4.105   3.684
 9112TIP3    H227301   4.231   4.074   3.822
 9113TIP3   OH227302   4.046   4.854   1.216
 9113TIP3    H127303   4.064   4.801   1.139
 9113TIP3    H227304   4.129   4.899   1.234
 9114TIP3   OH227305   6.044   1.536   1.796
 9114TIP3    H127306   6.116   1.544   1.858
 9114TIP3    H227307   6.052   1.448   1.761
 9115TIP3   OH227308   6.203   0.783   5.147
 9115TIP3    H127309   6.161   0.719   5.089
 9115TIP3    H227310   6.284   0.741   5.174
 9116TIP3   OH227311   0.510   0.294   5.671
 9116TIP3    H127312   0.547   0.226   5.615
 9116TIP3    H227313   0.583   0.353   5.690
 9117TIP3   OH227314   3.190   0.762   4.901
 9117TIP3    H127315   3.135   0.687   4.924
 9117TIP3    H227316   3.226   0.792   4.985
 9118TIP3   OH227317   6.000   5.332   2.150
 9118TIP3    H127318   6.054   5.280   2.210
 9118TIP3    H227319   6.008   5.422   2.183
 9119TIP3   OH227320   6.964   1.627   5.283
 9119TIP3    H127321   6.899   1.561   5.257
 9119TIP3    H227322   7.026   1.579   5.339
 9120TIP3   OH227323   2.983   0.658   3.485
 9120TIP3    H127324   3.020   0.627   3.567
 9120TIP3    H227325   3.059   0.684   3.433
 9121TIP3   OH227326   3.876   0.350   3.297
 9121TIP3    H127327   3.838   0.278   3.246
 9121TIP3    H227328   3.965   0.320   3.317
 9122TIP3   OH227329   0.778   4.068   5.641
 9122TIP3    H127330   0.712   4.113   5.588
 9122TIP3    H227331   0.861   4.108   5.614
 9123TIP3   OH227332   1.327   2.044   5.315
 9123TIP3    H127333   1.413   2.060   5.276
 9123TIP3    H227334   1.347   2.021   5.406
 9124TIP3   OH227335   0.925   5.865   2.841
 9124TIP3    H127336   0.880   5.794   2.796
 9124TIP3    H227337   0.994   5.893   2.781
 9125TIP3   OH227338   6.478   0.432   3.676
 9125TIP3    H127339   6.444   0.361   3.731
 9125TIP3    H227340   6.571   0.412   3.667
 9126TIP3   OH227341   5.546   5.947   4.386
 9126TIP3    H127342   5.625   5.917   4.431
 9126TIP3    H227343   5.527   6.032   4.426
 9127TIP3   OH227344   4.349   3.032   3.402
 9127TIP3    H127345   4.276   3.093   3.411
 9127TIP3    H227346   4.352   3.012   3.309
 9128TIP3   OH227347   1.342   1.405   3.052
 9128TIP3    H127348   1.261   1.380   3.097
 9128TIP3    H227349   1.346   1.347   2.976
 9129TIP3   OH227350   3.883   1.225   1.999
 9129TIP3    H127351   3.966   1.184   2.023
 9129TIP3    H227352   3.870   1.293   2.064
 9130TIP3   OH227353   3.366   5.904   4.793
 9130TIP3    H127354   3.459   5.920   4.808
 9130TIP3    H227355   3.355   5.810   4.810
 9131TIP3   OH227356   6.513   0.965   5.851
 9131TIP3    H127357   6.419   0.954   5.838
 9131TIP3    H227358   6.521   1.047   5.901
 9132TIP3   OH227359   3.378   6.817   3.530
 9132TIP3    H127360   3.392   6.742   3.472
 9132TIP3    H227361   3.384   6.781   3.619
 9133TIP3   OH227362   0.760   5.335   1.093
 9133TIP3    H127363   0.830   5.368   1.037
 9133TIP3    H227364   0.681   5.376   1.057
 9134TIP3   OH227365   5.371   2.059   1.741
 9134TIP3    H127366   5.460   2.086   1.717
 9134TIP3    H227367   5.375   1.963   1.742
 9135TIP3   OH227368   0.883   0.414   5.357
 9135TIP3    H127369   0.918   0.468   5.428
 9135TIP3    H227370   0.797   0.451   5.338
 9136TIP3   OH227371   2.457   0.419   5.523
 9136TIP3    H127372   2.422   0.403   5.435
 9136TIP3    H227373   2.400   0.367   5.580
 9137TIP3   OH227374   3.066   5.069   3.714
 9137TIP3    H127375   3.129   5.137   3.692
 9137TIP3    H227376   3.060   5.015   3.635
 9138TIP3   OH227377   0.731   6.453   4.983
 9138TIP3    H127378   0.764   6.494   5.063
 9138TIP3    H227379   0.808   6.444   4.927
 9139TIP3   OH227380   3.633   4.766   1.392
 9139TIP3    H127381   3.597   4.839   1.341
 9139TIP3    H227382   3.615   4.689   1.338
 9140TIP3   OH227383   6.918   0.230   5.848
 9140TIP3    H127384   6.947   0.212   5.937
 9140TIP3    H227385   6.990   0.279   5.808
 9141TIP3   OH227386   3.234   1.625  -0.012
 9141TIP3    H127387   3.286   1.596   0.063
 9141TIP3    H227388   3.144   1.631   0.021
 9142TIP3   OH227389   4.028   3.556   0.975
 9142TIP3    H127390   4.084   3.576   0.900
 9142TIP3    H227391   4.077   3.588   1.051
 9143TIP3   OH227392   2.291   3.828   3.294
 9143TIP3    H127393   2.304   3.921   3.313
 9143TIP3    H227394   2.287   3.824   3.198
 9144TIP3   OH227395   0.326   0.060   1.182
 9144TIP3    H127396   0.318   0.036   1.275
 9144TIP3    H227397   0.289   0.148   1.177
 9145TIP3   OH227398   1.148   5.029   3.692
 9145TIP3    H127399   1.198   5.005   3.614
 9145TIP3    H227400   1.209   5.015   3.765
 9146TIP3   OH227401   0.490   1.977   0.081
 9146TIP3    H127402   0.503   1.936  -0.004
 9146TIP3    H227403   0.455   2.064   0.061
 9147TIP3   OH227404   2.565   0.492   2.696
 9147TIP3    H127405   2.552   0.465   2.605
 9147TIP3    H227406   2.498   0.444   2.745
 9148TIP3   OH227407   4.503   3.785   4.814
 9148TIP3    H127408   4.430   3.725   4.806
 9148TIP3    H227409   4.546   3.760   4.896
 9149TIP3   OH227410   5.780   4.584   0.679
 9149TIP3    H127411   5.844   4.517   0.657
 9149TIP3    H227412   5.701   4.558   0.632
 9150TIP3   OH227413   4.551   0.055   1.975
 9150TIP3    H127414   4.513  -0.030   1.951
 9150TIP3    H227415   4.478   0.116   1.966
 9151TIP3   OH227416   3.778   0.223   2.016
 9151TIP3    H127417   3.855   0.168   2.000
 9151TIP3    H227418   3.710   0.186   1.960
 9152TIP3   OH227419   6.495   6.600   2.515
 9152TIP3    H127420   6.466   6.509   2.511
 9152TIP3    H227421   6.419   6.648   2.549
 9153TIP3   OH227422   0.778   2.786   1.356
 9153TIP3    H127423   0.790   2.704   1.308
 9153TIP3    H227424   0.685   2.806   1.348
 9154TIP3   OH227425   1.594   2.046   5.205
 9154TIP3    H127426   1.650   1.971   5.226
 9154TIP3    H227427   1.599   2.053   5.110
 9155TIP3   OH227428   4.103   1.869   5.256
 9155TIP3    H127429   4.191   1.880   5.220
 9155TIP3    H227430   4.113   1.801   5.322
 9156TIP3   OH227431   1.421   5.301   5.133
 9156TIP3    H127432   1.394   5.251   5.055
 9156TIP3    H227433   1.424   5.236   5.203
 9157TIP3   OH227434   2.822   0.865   4.348
 9157TIP3    H127435   2.901   0.900   4.389
 9157TIP3    H227436   2.759   0.937   4.352
 9158TIP3   OH227437   2.281   3.854   1.042
 9158TIP3    H127438   2.368   3.885   1.016
 9158TIP3    H227439   2.241   3.930   1.084
 9159TIP3   OH227440   4.264   2.290   0.455
 9159TIP3    H127441   4.341   2.304   0.400
 9159TIP3    H227442   4.267   2.363   0.518
 9160TIP3   OH227443   6.664   1.824   1.094
 9160TIP3    H127444   6.756   1.802   1.108
 9160TIP3    H227445   6.623   1.809   1.179
 9161TIP3   OH227446   4.885   2.619   4.607
 9161TIP3    H127447   4.915   2.710   4.610
 9161TIP3    H227448   4.834   2.612   4.526
 9162TIP3   OH227449   0.592   3.109   3.708
 9162TIP3    H127450   0.686   3.092   3.705
 9162TIP3    H227451   0.554   3.043   3.650
 9163TIP3   OH227452   0.574   5.760   5.256
 9163TIP3    H127453   0.538   5.671   5.252
 9163TIP3    H227454   0.500   5.815   5.279
 9164TIP3   OH227455   7.062   1.258   1.441
 9164TIP3    H127456   7.152   1.227   1.439
 9164TIP3    H227457   7.034   1.245   1.532
 9165TIP3   OH227458   2.542   0.316   3.436
 9165TIP3    H127459   2.558   0.362   3.518
 9165TIP3    H227460   2.627   0.282   3.410
 9166TIP3   OH227461   3.529   1.627   0.319
 9166TIP3    H127462   3.546   1.550   0.265
 9166TIP3    H227463   3.451   1.604   0.369
 9167TIP3   OH227464   4.269   6.449   2.517
 9167TIP3    H127465   4.339   6.394   2.552
 9167TIP3    H227466   4.284   6.535   2.555
 9168TIP3   OH227467   3.508   6.371   4.831
 9168TIP3    H127468   3.415   6.350   4.838
 9168TIP3    H227469   3.539   6.317   4.758
 9169TIP3   OH227470   4.544   2.585   3.256
 9169TIP3    H127471   4.476   2.604   3.321
 9169TIP3    H227472   4.598   2.664   3.253
 9170TIP3   OH227473   3.194   1.433   4.012
 9170TIP3    H127474   3.239   1.513   4.039
 9170TIP3    H227475   3.142   1.459   3.936
 9171TIP3   OH227476   0.664   3.111   5.540
 9171TIP3    H127477   0.652   3.183   5.601
 9171TIP3    H227478   0.597   3.047   5.565
 9172TIP3   OH227479   6.648   2.567   1.706
 9172TIP3    H127480   6.703   2.553   1.629
 9172TIP3    H227481   6.657   2.487   1.757
 9173TIP3   OH227482   0.174   1.772   5.504
 9173TIP3    H127483   0.190   1.755   5.411
 9173TIP3    H227484   0.260   1.759   5.545
 9174TIP3   OH227485   6.704   0.787   1.164
 9174TIP3    H127486   6.682   0.878   1.146
 9174TIP3    H227487   6.619   0.744   1.178
 9175TIP3   OH227488   3.918   1.305   4.404
 9175TIP3    H127489   3.984   1.251   4.446
 9175TIP3    H227490   3.967   1.374   4.359
 9176TIP3   OH227491   4.046   5.579   0.710
 9176TIP3    H127492   3.971   5.610   0.659
 9176TIP3    H227493   4.021   5.595   0.801
 9177TIP3   OH227494   6.881   5.456   2.896
 9177TIP3    H127495   6.825   5.513   2.843
 9177TIP3    H227496   6.949   5.426   2.836
 9178TIP3   OH227497   3.634   4.826   3.417
 9178TIP3    H127498   3.592   4.761   3.360
 9178TIP3    H227499   3.686   4.880   3.357
 9179TIP3   OH227500   1.271   0.602   1.002
 9179TIP3    H127501   1.345   0.586   0.943
 9179TIP3    H227502   1.305   0.580   1.089
 9180TIP3   OH227503   4.278   2.063   3.674
 9180TIP3    H127504   4.198   2.098   3.635
 9180TIP3    H227505   4.312   2.001   3.609
 9181TIP3   OH227506   1.001   3.105   2.522
 9181TIP3    H127507   1.052   3.105   2.441
 9181TIP3    H227508   0.991   3.013   2.545
 9182TIP3   OH227509   3.636   1.837   0.757
 9182TIP3    H127510   3.719   1.835   0.710
 9182TIP3    H227511   3.661   1.850   0.849
 9183TIP3   OH227512   4.043   3.864   5.463
 9183TIP3    H127513   4.040   3.942   5.407
 9183TIP3    H227514   4.131   3.828   5.449
 9184TIP3   OH227515   0.905   4.206   0.549
 9184TIP3    H127516   0.892   4.199   0.454
 9184TIP3    H227517   0.847   4.277   0.576
 9185TIP3   OH227518   4.003   3.823   1.418
 9185TIP3    H127519   4.046   3.819   1.503
 9185TIP3    H227520   3.944   3.747   1.417
 9186TIP3   OH227521   3.765   3.826   2.742
 9186TIP3    H127522   3.813   3.752   2.779
 9186TIP3    H227523   3.804   3.839   2.656
 9187TIP3   OH227524   2.152   0.214   2.661
 9187TIP3    H127525   2.150   0.124   2.628
 9187TIP3    H227526   2.074   0.221   2.715
 9188TIP3   OH227527   6.402   6.320   3.425
 9188TIP3    H127528   6.427   6.259   3.356
 9188TIP3    H227529   6.484   6.362   3.452
 9189TIP3   OH227530   1.874   4.066   4.227
 9189TIP3    H127531   1.953   4.060   4.174
 9189TIP3    H227532   1.894   4.131   4.294
 9190TIP3   OH227533   6.384   1.600   4.688
 9190TIP3    H127534   6.417   1.521   4.729
 9190TIP3    H227535   6.316   1.570   4.627
 9191TIP3   OH227536   0.047   3.669   0.865
 9191TIP3    H127537   0.013   3.642   0.780
 9191TIP3    H227538   0.122   3.612   0.880
 9192TIP3   OH227539   7.107   0.151   2.870
 9192TIP3    H127540   7.067   0.195   2.794
 9192TIP3    H227541   7.097   0.214   2.941
 9193TIP3   OH227542   3.924   5.604   4.305
 9193TIP3    H127543   3.996   5.628   4.364
 9193TIP3    H227544   3.851   5.660   4.334
 9194TIP3   OH227545   4.023   0.033   2.660
 9194TIP3    H127546   4.039   0.117   2.617
 9194TIP3    H227547   4.013   0.055   2.753
 9195TIP3   OH227548   4.669   6.080   1.753
 9195TIP3    H127549   4.751   6.085   1.704
 9195TIP3    H227550   4.627   6.000   1.721
 9196TIP3   OH227551   4.180   2.080   0.035
 9196TIP3    H127552   4.187   2.133   0.114
 9196TIP3    H227553   4.121   2.008   0.059
 9197TIP3   OH227554   4.661   0.489   0.926
 9197TIP3    H127555   4.648   0.422   0.993
 9197TIP3    H227556   4.724   0.451   0.865
 9198TIP3   OH227557   0.401   4.952   3.342
 9198TIP3    H127558   0.403   4.966   3.248
 9198TIP3    H227559   0.418   4.858   3.353
 9199TIP3   OH227560   5.047   3.241   5.685
 9199TIP3    H127561   5.113   3.300   5.722
 9199TIP3    H227562   5.098   3.178   5.633
 9200TIP3   OH227563   6.600   5.359   0.614
 9200TIP3    H127564   6.670   5.425   0.612
 9200TIP3    H227565   6.640   5.284   0.659
 9201TIP3   OH227566   3.232   3.146   3.550
 9201TIP3    H127567   3.169   3.219   3.552
 9201TIP3    H227568   3.204   3.092   3.476
 9202TIP3   OH227569   7.055   6.165   1.448
 9202TIP3    H127570   7.119   6.141   1.515
 9202TIP3    H227571   6.971   6.135   1.483
 9203TIP3   OH227572   3.560   3.668   3.496
 9203TIP3    H127573   3.590   3.583   3.527
 9203TIP3    H227574   3.472   3.652   3.461
 9204TIP3   OH227575   6.446   1.672   1.239
 9204TIP3    H127576   6.411   1.758   1.265
 9204TIP3    H227577   6.407   1.657   1.152
 9205TIP3   OH227578   1.242   0.346   2.399
 9205TIP3    H127579   1.157   0.390   2.392
 9205TIP3    H227580   1.277   0.348   2.310
 9206TIP3   OH227581   2.548   1.478   4.346
 9206TIP3    H127582   2.622   1.418   4.340
 9206TIP3    H227583   2.521   1.492   4.255
 9207TIP3   OH227584   1.098   4.176   4.786
 9207TIP3    H127585   1.023   4.120   4.807
 9207TIP3    H227586   1.103   4.238   4.859
 9208TIP3   OH227587   6.309   5.393   3.538
 9208TIP3    H127588   6.219   5.424   3.524
 9208TIP3    H227589   6.361   5.439   3.473
 9209TIP3   OH227590   2.011   4.799   4.831
 9209TIP3    H127591   1.937   4.749   4.866
 9209TIP3    H227592   2.008   4.882   4.879
 9210TIP3   OH227593   1.457   0.008   1.698
 9210TIP3    H127594   1.544   0.029   1.733
 9210TIP3    H227595   1.472  -0.011   1.606
 9211TIP3   OH227596   2.565   3.993   4.906
 9211TIP3    H127597   2.479   4.017   4.872
 9211TIP3    H227598   2.593   3.920   4.850
 9212TIP3   OH227599   5.821   6.206   4.364
 9212TIP3    H127600   5.752   6.249   4.314
 9212TIP3    H227601   5.900   6.220   4.311
 9213TIP3   OH227602   1.167   2.380   1.646
 9213TIP3    H127603   1.101   2.423   1.700
 9213TIP3    H227604   1.134   2.389   1.556
 9214TIP3   OH227605   1.563   4.292   3.752
 9214TIP3    H127606   1.506   4.349   3.805
 9214TIP3    H227607   1.604   4.352   3.689
 9215TIP3   OH227608   1.259   2.121   3.226
 9215TIP3    H127609   1.270   2.091   3.135
 9215TIP3    H227610   1.307   2.204   3.229
 9216TIP3   OH227611   0.229   4.003   1.464
 9216TIP3    H127612   0.307   3.998   1.408
 9216TIP3    H227613   0.190   3.916   1.456
 9217TIP3   OH227614   6.635   0.185   2.762
 9217TIP3    H127615   6.729   0.193   2.752
 9217TIP3    H227616   6.618   0.200   2.855
 9218TIP3   OH227617   5.912   2.018   1.291
 9218TIP3    H127618   5.946   2.108   1.293
 9218TIP3    H227619   5.960   1.976   1.219
 9219TIP3   OH227620   0.770   5.294   1.927
 9219TIP3    H127621   0.742   5.350   1.854
 9219TIP3    H227622   0.704   5.225   1.930
 9220TIP3   OH227623   6.120   5.319   0.499
 9220TIP3    H127624   6.045   5.262   0.516
 9220TIP3    H227625   6.110   5.391   0.562
 9221TIP3   OH227626   1.996   3.976   2.751
 9221TIP3    H127627   2.038   3.894   2.727
 9221TIP3    H227628   2.044   4.006   2.829
 9222TIP3   OH227629   4.913   1.671   4.252
 9222TIP3    H127630   4.897   1.655   4.159
 9222TIP3    H227631   4.976   1.743   4.253
 9223TIP3   OH227632   4.208   2.329   2.705
 9223TIP3    H127633   4.143   2.399   2.694
 9223TIP3    H227634   4.186   2.288   2.788
 9224TIP3   OH227635   2.350   6.766   4.614
 9224TIP3    H127636   2.413   6.749   4.684
 9224TIP3    H227637   2.378   6.710   4.542
 9225TIP3   OH227638   6.945   1.718   1.356
 9225TIP3    H127639   6.916   1.697   1.445
 9225TIP3    H227640   6.972   1.810   1.361
 9226TIP3   OH227641   2.576   0.786   5.475
 9226TIP3    H127642   2.568   0.875   5.441
 9226TIP3    H227643   2.574   0.731   5.396
 9227TIP3   OH227644   0.004   0.590   5.080
 9227TIP3    H127645   0.004   0.494   5.087
 9227TIP3    H227646   0.005   0.606   4.986
 9228TIP3   OH227647   6.600   1.024   1.053
 9228TIP3    H127648   6.636   0.976   0.978
 9228TIP3    H227649   6.659   1.097   1.066
 9229TIP3   OH227650   1.049   6.369   2.626
 9229TIP3    H127651   1.118   6.307   2.604
 9229TIP3    H227652   1.011   6.393   2.541
 9230TIP3   OH227653   2.205   6.398   3.753
 9230TIP3    H127654   2.178   6.346   3.828
 9230TIP3    H227655   2.195   6.489   3.780
 9231TIP3   OH227656   5.752   3.875   2.747
 9231TIP3    H127657   5.803   3.938   2.698
 9231TIP3    H227658   5.739   3.802   2.687
 9232TIP3   OH227659   0.456   5.760   3.446
 9232TIP3    H127660   0.419   5.713   3.372
 9232TIP3    H227661   0.413   5.722   3.523
 9233TIP3   OH227662   4.746   4.323   4.233
 9233TIP3    H127663   4.795   4.387   4.183
 9233TIP3    H227664   4.678   4.375   4.277
 9234TIP3   OH227665   3.528   5.693   3.840
 9234TIP3    H127666   3.559   5.639   3.768
 9234TIP3    H227667   3.505   5.777   3.799
 9235TIP3   OH227668   3.703   5.967   0.873
 9235TIP3    H127669   3.678   5.991   0.784
 9235TIP3    H227670   3.684   6.045   0.925
 9236TIP3   OH227671   4.573   3.991   0.402
 9236TIP3    H127672   4.548   3.907   0.442
 9236TIP3    H227673   4.653   4.016   0.446
 9237TIP3   OH227674   1.441   3.800   3.818
 9237TIP3    H127675   1.399   3.859   3.881
 9237TIP3    H227676   1.413   3.832   3.732
 9238TIP3   OH227677   5.060   5.897   3.231
 9238TIP3    H127678   5.146   5.898   3.188
 9238TIP3    H227679   5.007   5.958   3.179
 9239TIP3   OH227680   5.561   3.445   3.867
 9239TIP3    H127681   5.487   3.503   3.849
 9239TIP3    H227682   5.541   3.364   3.820
 9240TIP3   OH227683   0.093   4.484   5.356
 9240TIP3    H127684   0.077   4.458   5.447
 9240TIP3    H227685   0.187   4.502   5.353
 9241TIP3   OH227686   3.182   1.979   3.631
 9241TIP3    H127687   3.237   1.938   3.697
 9241TIP3    H227688   3.128   2.042   3.680
 9242TIP3   OH227689   1.238   4.195   0.399
 9242TIP3    H127690   1.264   4.117   0.449
 9242TIP3    H227691   1.301   4.199   0.327
 9243TIP3   OH227692   4.669   3.050   0.640
 9243TIP3    H127693   4.651   3.142   0.617
 9243TIP3    H227694   4.642   3.000   0.564
 9244TIP3   OH227695   4.271   3.953   0.090
 9244TIP3    H127696   4.231   4.032   0.053
 9244TIP3    H227697   4.364   3.961   0.068
 9245TIP3   OH227698   5.657   5.063   5.590
 9245TIP3    H127699   5.660   5.158   5.601
 9245TIP3    H227700   5.627   5.030   5.674
 9246TIP3   OH227701   7.088   2.613   4.994
 9246TIP3    H127702   7.082   2.666   4.915
 9246TIP3    H227703   6.997   2.599   5.020
 9247TIP3   OH227704   6.266   4.383   1.411
 9247TIP3    H127705   6.312   4.318   1.359
 9247TIP3    H227706   6.174   4.357   1.407
 9248TIP3   OH227707   7.074   3.282   0.804
 9248TIP3    H127708   7.037   3.250   0.721
 9248TIP3    H227709   7.022   3.239   0.871
 9249TIP3   OH227710   0.393   2.895   5.048
 9249TIP3    H127711   0.344   2.967   5.007
 9249TIP3    H227712   0.483   2.928   5.055
 9250TIP3   OH227713   3.296   0.099   4.744
 9250TIP3    H127714   3.220   0.052   4.777
 9250TIP3    H227715   3.260   0.178   4.703
 9251TIP3   OH227716   2.506   2.854   4.055
 9251TIP3    H127717   2.425   2.825   4.014
 9251TIP3    H227718   2.558   2.774   4.065
 9252TIP3   OH227719   2.339   1.870   0.123
 9252TIP3    H127720   2.331   1.775   0.110
 9252TIP3    H227721   2.272   1.892   0.187
 9253TIP3   OH227722   6.793   2.443   1.501
 9253TIP3    H127723   6.793   2.427   1.407
 9253TIP3    H227724   6.841   2.370   1.538
 9254TIP3   OH227725   4.054   6.431   5.691
 9254TIP3    H127726   4.041   6.358   5.752
 9254TIP3    H227727   4.146   6.456   5.703
 9255TIP3   OH227728   1.588   5.492   0.272
 9255TIP3    H127729   1.512   5.526   0.319
 9255TIP3    H227730   1.564   5.498   0.179
 9256TIP3   OH227731   2.986   4.127   2.245
 9256TIP3    H127732   3.072   4.167   2.247
 9256TIP3    H227733   2.955   4.130   2.335
 9257TIP3   OH227734   2.621   3.365   4.182
 9257TIP3    H127735   2.696   3.307   4.195
 9257TIP3    H227736   2.562   3.344   4.255
 9258TIP3   OH227737   6.760   2.290   4.053
 9258TIP3    H127738   6.839   2.281   3.999
 9258TIP3    H227739   6.715   2.366   4.017
 9259TIP3   OH227740   3.911   5.798   5.765
 9259TIP3    H127741   3.976   5.851   5.719
 9259TIP3    H227742   3.947   5.709   5.763
 9260TIP3   OH227743   2.789   6.074   1.662
 9260TIP3    H127744   2.767   5.982   1.643
 9260TIP3    H227745   2.859   6.095   1.601
 9261TIP3   OH227746   1.545   1.108   5.649
 9261TIP3    H127747   1.574   1.188   5.692
 9261TIP3    H227748   1.480   1.070   5.708
 9262TIP3   OH227749   6.489   5.870   0.765
 9262TIP3    H127750   6.551   5.912   0.825
 9262TIP3    H227751   6.503   5.776   0.778
 9263TIP3   OH227752   0.383   4.547   5.235
 9263TIP3    H127753   0.322   4.609   5.196
 9263TIP3    H227754   0.378   4.469   5.180
 9264TIP3   OH227755   4.741   5.637   5.443
 9264TIP3    H127756   4.792   5.639   5.524
 9264TIP3    H227757   4.682   5.562   5.454
 9265TIP3   OH227758   1.651   6.116   1.228
 9265TIP3    H127759   1.664   6.022   1.220
 9265TIP3    H227760   1.702   6.142   1.304
 9266TIP3   OH227761   0.913   6.151   3.187
 9266TIP3    H127762   0.948   6.203   3.259
 9266TIP3    H227763   0.981   6.087   3.167
 9267TIP3   OH227764   1.165   3.978   4.268
 9267TIP3    H127765   1.223   4.019   4.204
 9267TIP3    H227766   1.077   4.005   4.242
 9268TIP3   OH227767   2.474   1.292   1.451
 9268TIP3    H127768   2.528   1.367   1.424
 9268TIP3    H227769   2.517   1.258   1.529
 9269TIP3   OH227770   5.773   4.398   5.182
 9269TIP3    H127771   5.866   4.384   5.162
 9269TIP3    H227772   5.771   4.481   5.229
 9270TIP3   OH227773   0.113   2.566   2.937
 9270TIP3    H127774   0.115   2.479   2.898
 9270TIP3    H227775   0.037   2.565   2.995
 9271TIP3   OH227776   3.569   2.633   3.144
 9271TIP3    H127777   3.574   2.623   3.239
 9271TIP3    H227778   3.589   2.546   3.110
 9272TIP3   OH227779   5.867   1.673   0.696
 9272TIP3    H127780   5.927   1.678   0.622
 9272TIP3    H227781   5.782   1.649   0.657
 9273TIP3   OH227782   5.702   0.996   5.268
 9273TIP3    H127783   5.753   0.960   5.195
 9273TIP3    H227784   5.737   0.952   5.345
 9274TIP3   OH227785   6.958   5.216   3.221
 9274TIP3    H127786   6.958   5.139   3.279
 9274TIP3    H227787   6.940   5.180   3.134
 9275TIP3   OH227788   0.247   3.144   3.869
 9275TIP3    H127789   0.183   3.212   3.849
 9275TIP3    H227790   0.242   3.083   3.796
 9276TIP3   OH227791   5.459   0.924   4.533
 9276TIP3    H127792   5.453   1.017   4.555
 9276TIP3    H227793   5.553   0.908   4.521
 9277TIP3   OH227794   3.190   2.193   3.419
 9277TIP3    H127795   3.207   2.129   3.350
 9277TIP3    H227796   3.245   2.166   3.492
 9278TIP3   OH227797   3.109   4.379   4.407
 9278TIP3    H127798   3.177   4.437   4.439
 9278TIP3    H227799   3.155   4.317   4.349
 9279TIP3   OH227800   4.794   4.190   3.550
 9279TIP3    H127801   4.857   4.118   3.553
 9279TIP3    H227802   4.795   4.226   3.639
 9280TIP3   OH227803   2.620   4.880   3.295
 9280TIP3    H127804   2.569   4.816   3.345
 9280TIP3    H227805   2.709   4.874   3.331
 9281TIP3   OH227806   6.989   0.915   0.663
 9281TIP3    H127807   6.900   0.950   0.676
 9281TIP3    H227808   6.978   0.820   0.664
 9282TIP3   OH227809   2.582   6.594   0.430
 9282TIP3    H127810   2.595   6.536   0.354
 9282TIP3    H227811   2.497   6.567   0.465
 9283TIP3   OH227812   7.201   2.047   5.012
 9283TIP3    H127813   7.186   2.120   5.073
 9283TIP3    H227814   7.224   1.973   5.068
 9284TIP3   OH227815   2.619   4.913   4.459
 9284TIP3    H127816   2.636   4.824   4.426
 9284TIP3    H227817   2.549   4.902   4.523
 9285TIP3   OH227818   0.728   2.128   3.574
 9285TIP3    H127819   0.740   2.181   3.653
 9285TIP3    H227820   0.671   2.057   3.602
 9286TIP3   OH227821   1.642   5.017   1.408
 9286TIP3    H127822   1.734   5.033   1.384
 9286TIP3    H227823   1.611   4.953   1.344
 9287TIP3   OH227824   2.928   0.319   5.410
 9287TIP3    H127825   2.850   0.352   5.453
 9287TIP3    H227826   2.895   0.266   5.337
 9288TIP3   OH227827   6.604   2.344   1.880
 9288TIP3    H127828   6.576   2.397   1.954
 9288TIP3    H227829   6.562   2.259   1.894
 9289TIP3   OH227830   5.887   5.136   4.666
 9289TIP3    H127831   5.792   5.147   4.663
 9289TIP3    H227832   5.907   5.128   4.760
 9290TIP3   OH227833   7.147   4.134   4.544
 9290TIP3    H127834   7.242   4.140   4.540
 9290TIP3    H227835   7.130   4.050   4.587
 9291TIP3   OH227836   2.404   3.711   4.980
 9291TIP3    H127837   2.416   3.618   4.995
 9291TIP3    H227838   2.350   3.740   5.054
 9292TIP3   OH227839   5.467   2.993   3.299
 9292TIP3    H127840   5.431   2.947   3.223
 9292TIP3    H227841   5.561   2.997   3.283
 9293TIP3   OH227842   3.015   0.480   4.156
 9293TIP3    H127843   3.046   0.448   4.240
 9293TIP3    H227844   3.039   0.573   4.156
 9294TIP3   OH227845   6.696   1.962   4.597
 9294TIP3    H127846   6.611   1.997   4.622
 9294TIP3    H227847   6.679   1.913   4.516
 9295TIP3   OH227848   4.100   4.285   1.849
 9295TIP3    H127849   4.181   4.253   1.809
 9295TIP3    H227850   4.033   4.224   1.821
 9296TIP3   OH227851   3.159   0.433   3.806
 9296TIP3    H127852   3.092   0.370   3.778
 9296TIP3    H227853   3.155   0.431   3.902
 9297TIP3   OH227854   2.026   2.288   5.153
 9297TIP3    H127855   1.969   2.263   5.080
 9297TIP3    H227856   2.113   2.294   5.114
 9298TIP3   OH227857   3.728   1.637   2.817
 9298TIP3    H127858   3.733   1.699   2.744
 9298TIP3    H227859   3.746   1.691   2.895
 9299TIP3   OH227860   5.035   5.363   3.039
 9299TIP3    H127861   4.943   5.389   3.027
 9299TIP3    H227862   5.082   5.409   2.970
 9300TIP3   OH227863   3.803   6.510   4.659
 9300TIP3    H127864   3.858   6.513   4.737
 9300TIP3    H227865   3.853   6.557   4.592
 9301TIP3   OH227866   3.425   4.586   5.731
 9301TIP3    H127867   3.384   4.653   5.785
 9301TIP3    H227868   3.389   4.503   5.763
 9302TIP3   OH227869   2.065   4.051   0.822
 9302TIP3    H127870   2.107   4.107   0.756
 9302TIP3    H227871   2.029   4.113   0.886
 9303TIP3   OH227872   2.735   2.467   0.739
 9303TIP3    H127873   2.761   2.496   0.652
 9303TIP3    H227874   2.762   2.537   0.798
 9304TIP3   OH227875   1.722   0.283   2.597
 9304TIP3    H127876   1.765   0.270   2.512
 9304TIP3    H227877   1.637   0.319   2.576
 9305TIP3   OH227878   0.436   6.675   2.714
 9305TIP3    H127879   0.524   6.659   2.679
 9305TIP3    H227880   0.409   6.590   2.749
 9306TIP3   OH227881   2.612   1.306   5.417
 9306TIP3    H127882   2.623   1.392   5.376
 9306TIP3    H227883   2.531   1.314   5.468
 9307TIP3   OH227884   3.856   2.970   4.802
 9307TIP3    H127885   3.908   3.050   4.800
 9307TIP3    H227886   3.790   2.983   4.733
 9308TIP3   OH227887   2.287   6.402   0.763
 9308TIP3    H127888   2.279   6.420   0.669
 9308TIP3    H227889   2.220   6.335   0.780
 9309TIP3   OH227890   4.088   5.971   0.721
 9309TIP3    H127891   4.046   5.948   0.804
 9309TIP3    H227892   4.016   5.984   0.660
 9310TIP3   OH227893   1.603   0.970   2.403
 9310TIP3    H127894   1.559   0.943   2.484
 9310TIP3    H227895   1.668   1.034   2.432
 9311TIP3   OH227896   2.704   0.699   1.332
 9311TIP3    H127897   2.642   0.628   1.314
 9311TIP3    H227898   2.665   0.776   1.292
 9312TIP3   OH227899   3.546   6.734   1.203
 9312TIP3    H127900   3.510   6.772   1.123
 9312TIP3    H227901   3.554   6.807   1.264
 9313TIP3   OH227902   3.225   2.000   5.785
 9313TIP3    H127903   3.133   1.974   5.782
 9313TIP3    H227904   3.244   2.029   5.695
 9314TIP3   OH227905   5.091   4.725   3.721
 9314TIP3    H127906   5.093   4.784   3.646
 9314TIP3    H227907   5.043   4.648   3.690
 9315TIP3   OH227908   4.659   5.289   4.441
 9315TIP3    H127909   4.595   5.281   4.371
 9315TIP3    H227910   4.716   5.213   4.430
 9316TIP3   OH227911   3.922   0.164   4.819
 9316TIP3    H127912   3.929   0.118   4.736
 9316TIP3    H227913   3.859   0.112   4.870
 9317TIP3   OH227914   3.704   6.281   4.548
 9317TIP3    H127915   3.756   6.339   4.602
 9317TIP3    H227916   3.705   6.197   4.594
 9318TIP3   OH227917   3.196   6.021   3.739
 9318TIP3    H127918   3.181   6.108   3.703
 9318TIP3    H227919   3.245   5.975   3.670
 9319TIP3   OH227920   2.186   5.014   5.472
 9319TIP3    H127921   2.092   5.022   5.486
 9319TIP3    H227922   2.225   5.067   5.541
 9320TIP3   OH227923   5.760   3.522   0.653
 9320TIP3    H127924   5.711   3.546   0.574
 9320TIP3    H227925   5.706   3.454   0.694
 9321TIP3   OH227926   0.616   1.831   3.366
 9321TIP3    H127927   0.572   1.807   3.285
 9321TIP3    H227928   0.650   1.748   3.400
 9322TIP3   OH227929   5.511   5.929   1.208
 9322TIP3    H127930   5.541   5.983   1.281
 9322TIP3    H227931   5.473   5.851   1.250
 9323TIP3   OH227932   4.276   3.391   2.622
 9323TIP3    H127933   4.265   3.302   2.589
 9323TIP3    H227934   4.266   3.382   2.717
 9324TIP3   OH227935   2.052   0.163   5.535
 9324TIP3    H127936   2.019   0.234   5.590
 9324TIP3    H227937   2.099   0.106   5.596
 9325TIP3   OH227938   6.121   1.849   3.420
 9325TIP3    H127939   6.064   1.867   3.345
 9325TIP3    H227940   6.160   1.934   3.441
 9326TIP3   OH227941   6.801   5.223   1.878
 9326TIP3    H127942   6.867   5.265   1.933
 9326TIP3    H227943   6.852   5.170   1.816
 9327TIP3   OH227944   0.363   2.526   4.232
 9327TIP3    H127945   0.429   2.504   4.167
 9327TIP3    H227946   0.331   2.442   4.264
 9328TIP3   OH227947   0.705   5.418   0.644
 9328TIP3    H127948   0.612   5.431   0.625
 9328TIP3    H227949   0.730   5.497   0.691
 9329TIP3   OH227950   1.836   5.340   0.763
 9329TIP3    H127951   1.779   5.410   0.730
 9329TIP3    H227952   1.914   5.345   0.707
 9330TIP3   OH227953   3.369   2.461   0.279
 9330TIP3    H127954   3.299   2.396   0.272
 9330TIP3    H227955   3.355   2.502   0.364
 9331TIP3   OH227956   2.240   2.931   5.680
 9331TIP3    H127957   2.267   2.896   5.595
 9331TIP3    H227958   2.162   2.881   5.704
 9332TIP3   OH227959   2.469   5.729   4.796
 9332TIP3    H127960   2.387   5.777   4.791
 9332TIP3    H227961   2.494   5.732   4.888
 9333TIP3   OH227962   4.225   5.345   0.371
 9333TIP3    H127963   4.314   5.319   0.348
 9333TIP3    H227964   4.225   5.350   0.466
 9334TIP3   OH227965   3.044   0.818   5.332
 9334TIP3    H127966   2.964   0.809   5.281
 9334TIP3    H227967   3.058   0.913   5.339
 9335TIP3   OH227968   0.834   6.150   4.722
 9335TIP3    H127969   0.843   6.241   4.694
 9335TIP3    H227970   0.881   6.145   4.805
 9336TIP3   OH227971   0.152   3.463   1.061
 9336TIP3    H127972   0.222   3.426   1.114
 9336TIP3    H227973   0.114   3.389   1.015
 9337TIP3   OH227974   1.351   1.078   5.852
 9337TIP3    H127975   1.260   1.071   5.881
 9337TIP3    H227976   1.390   1.143   5.910
 9338TIP3   OH227977   0.582   4.338   1.084
 9338TIP3    H127978   0.528   4.407   1.045
 9338TIP3    H227979   0.540   4.320   1.169
 9339TIP3   OH227980   0.253   4.697   3.941
 9339TIP3    H127981   0.332   4.649   3.966
 9339TIP3    H227982   0.227   4.659   3.858
 9340TIP3   OH227983   4.366   1.049   5.923
 9340TIP3    H127984   4.411   1.092   5.850
 9340TIP3    H227985   4.285   1.098   5.933
 9341TIP3   OH227986   2.691   5.093   2.588
 9341TIP3    H127987   2.607   5.117   2.626
 9341TIP3    H227988   2.671   5.021   2.527
 9342TIP3   OH227989   2.206   5.471   5.357
 9342TIP3    H127990   2.205   5.521   5.276
 9342TIP3    H227991   2.294   5.433   5.361
 9343TIP3   OH227992   1.053   5.326   3.667
 9343TIP3    H127993   1.078   5.234   3.653
 9343TIP3    H227994   1.027   5.329   3.759
 9344TIP3   OH227995   6.145   2.896   3.816
 9344TIP3    H127996   6.171   2.804   3.809
 9344TIP3    H227997   6.110   2.919   3.730
 9345TIP3   OH227998   7.039   0.899   2.954
 9345TIP3    H127999   6.954   0.880   2.916
 9345TIP3    H228000   7.040   0.994   2.965
 9346TIP3   OH228001   0.888   3.925   4.332
 9346TIP3    H128002   0.843   3.916   4.416
 9346TIP3    H228003   0.971   3.879   4.343
 9347TIP3   OH228004   2.748   3.893   4.635
 9347TIP3    H128005   2.840   3.872   4.618
 9347TIP3    H228006   2.728   3.849   4.717
 9348TIP3   OH228007   1.398   6.481   2.681
 9348TIP3    H128008   1.348   6.524   2.750
 9348TIP3    H228009   1.489   6.505   2.698
 9349TIP3   OH228010   6.386   1.831   5.058
 9349TIP3    H128011   6.472   1.790   5.049
 9349TIP3    H228012   6.399   1.921   5.029
 9350TIP3   OH228013   1.821   0.603   3.779
 9350TIP3    H128014   1.837   0.664   3.851
 9350TIP3    H228015   1.816   0.517   3.821
 9351TIP3   OH228016   1.771   3.630   2.846
 9351TIP3    H128017   1.685   3.649   2.810
 9351TIP3    H228018   1.830   3.633   2.770
 9352TIP3   OH228019   4.942   5.813   1.236
 9352TIP3    H128020   5.027   5.853   1.254
 9352TIP3    H228021   4.905   5.865   1.164
 9353TIP3   OH228022   1.828   5.231   3.755
 9353TIP3    H128023   1.828   5.309   3.700
 9353TIP3    H228024   1.903   5.242   3.813
 9354TIP3   OH228025   2.513   3.697   0.079
 9354TIP3    H128026   2.527   3.625   0.141
 9354TIP3    H228027   2.601   3.731   0.062
 9355TIP3   OH228028   5.533   4.350   2.583
 9355TIP3    H128029   5.610   4.383   2.629
 9355TIP3    H228030   5.563   4.269   2.541
 9356TIP3   OH228031   7.201   1.586   2.007
 9356TIP3    H128032   7.166   1.671   2.034
 9356TIP3    H228033   7.139   1.523   2.042
 9357TIP3   OH228034   3.810   2.177   4.231
 9357TIP3    H128035   3.843   2.107   4.288
 9357TIP3    H228036   3.844   2.155   4.144
 9358TIP3   OH228037   1.759   2.182   2.722
 9358TIP3    H128038   1.745   2.092   2.694
 9358TIP3    H228039   1.760   2.178   2.818
 9359TIP3   OH228040   1.483   2.889   5.188
 9359TIP3    H128041   1.445   2.956   5.245
 9359TIP3    H228042   1.532   2.832   5.246
 9360TIP3   OH228043   3.602   5.966   3.731
 9360TIP3    H128044   3.598   5.995   3.822
 9360TIP3    H228045   3.664   6.026   3.690
 9361TIP3   OH228046   1.021   0.197   2.523
 9361TIP3    H128047   1.106   0.212   2.482
 9361TIP3    H228048   1.029   0.111   2.563
 9362TIP3   OH228049   4.169   4.561   1.747
 9362TIP3    H128050   4.122   4.480   1.766
 9362TIP3    H228051   4.180   4.561   1.652
 9363TIP3   OH228052   6.072   2.195   1.891
 9363TIP3    H128053   6.085   2.276   1.941
 9363TIP3    H228054   5.979   2.175   1.903
 9364TIP3   OH228055   4.115   2.484   4.414
 9364TIP3    H128056   4.202   2.510   4.384
 9364TIP3    H228057   4.126   2.471   4.508
 9365TIP3   OH228058   3.503   5.668   1.957
 9365TIP3    H128059   3.522   5.670   2.051
 9365TIP3    H228060   3.587   5.688   1.916
 9366TIP3   OH228061   4.498   3.767   5.656
 9366TIP3    H128062   4.590   3.772   5.630
 9366TIP3    H228063   4.485   3.841   5.716
 9367TIP3   OH228064   2.007   2.262   0.394
 9367TIP3    H128065   1.962   2.187   0.434
 9367TIP3    H228066   1.975   2.338   0.443
 9368TIP3   OH228067   4.931   6.099   1.634
 9368TIP3    H128068   5.009   6.074   1.684
 9368TIP3    H228069   4.933   6.195   1.633
 9369TIP3   OH228070   4.089   0.406   2.683
 9369TIP3    H128071   4.181   0.415   2.662
 9369TIP3    H228072   4.052   0.359   2.608
 9370TIP3   OH228073   5.662   2.441   3.680
 9370TIP3    H128074   5.702   2.508   3.736
 9370TIP3    H228075   5.624   2.378   3.741
 9371TIP3   OH228076   5.245   2.452   0.136
 9371TIP3    H128077   5.258   2.546   0.144
 9371TIP3    H228078   5.150   2.440   0.135
 9372TIP3   OH228079   5.167   2.520   4.876
 9372TIP3    H128080   5.258   2.516   4.903
 9372TIP3    H228081   5.158   2.604   4.831
 9373TIP3   OH228082   4.862   4.481   2.594
 9373TIP3    H128083   4.945   4.528   2.587
 9373TIP3    H228084   4.849   4.442   2.507
 9374TIP3   OH228085   3.153   1.879   4.058
 9374TIP3    H128086   3.198   1.800   4.088
 9374TIP3    H228087   3.140   1.931   4.138
 9375TIP3   OH228088   6.761   5.618   3.475
 9375TIP3    H128089   6.770   5.529   3.441
 9375TIP3    H228090   6.774   5.674   3.399
 9376TIP3   OH228091   0.800   5.182   2.582
 9376TIP3    H128092   0.849   5.220   2.510
 9376TIP3    H228093   0.856   5.194   2.659
 9377TIP3   OH228094   4.918   6.072   3.076
 9377TIP3    H128095   4.825   6.082   3.055
 9377TIP3    H228096   4.954   6.160   3.068
 9378TIP3   OH228097   3.578   2.984   5.549
 9378TIP3    H128098   3.648   2.949   5.493
 9378TIP3    H228099   3.563   3.072   5.516
 9379TIP3   OH228100   6.365   5.850   4.275
 9379TIP3    H128101   6.362   5.785   4.204
 9379TIP3    H228102   6.422   5.810   4.341
 9380TIP3   OH228103   0.900   6.250   1.503
 9380TIP3    H128104   0.950   6.209   1.573
 9380TIP3    H228105   0.868   6.332   1.541
 9381TIP3   OH228106   5.194   6.452   0.334
 9381TIP3    H128107   5.261   6.511   0.369
 9381TIP3    H228108   5.225   6.431   0.245
 9382TIP3   OH228109   5.216   1.599   5.617
 9382TIP3    H128110   5.184   1.680   5.577
 9382TIP3    H228111   5.284   1.628   5.678
 9383TIP3   OH228112   1.021   4.506   0.773
 9383TIP3    H128113   1.049   4.597   0.787
 9383TIP3    H228114   1.101   4.459   0.750
 9384TIP3   OH228115   6.949   0.927   4.100
 9384TIP3    H128116   7.016   0.992   4.121
 9384TIP3    H228117   6.989   0.871   4.034
 9385TIP3   OH228118   5.436   1.553   2.720
 9385TIP3    H128119   5.453   1.553   2.626
 9385TIP3    H228120   5.365   1.616   2.731
 9386TIP3   OH228121   3.037   0.453   0.077
 9386TIP3    H128122   3.104   0.498   0.025
 9386TIP3    H228123   3.083   0.378   0.115
 9387TIP3   OH228124   3.198   3.517   4.209
 9387TIP3    H128125   3.220   3.480   4.294
 9387TIP3    H228126   3.225   3.608   4.215
 9388TIP3   OH228127   4.217   6.757   5.710
 9388TIP3    H128128   4.274   6.717   5.776
 9388TIP3    H228129   4.263   6.838   5.685
 9389TIP3   OH228130   0.460   1.889   0.345
 9389TIP3    H128131   0.433   1.914   0.256
 9389TIP3    H228132   0.510   1.964   0.377
 9390TIP3   OH228133   4.558   3.613   2.919
 9390TIP3    H128134   4.564   3.692   2.866
 9390TIP3    H228135   4.607   3.634   2.999
 9391TIP3   OH228136   4.685   5.192   5.735
 9391TIP3    H128137   4.749   5.121   5.728
 9391TIP3    H228138   4.604   5.154   5.701
 9392TIP3   OH228139   6.656   3.202   3.416
 9392TIP3    H128140   6.680   3.111   3.398
 9392TIP3    H228141   6.648   3.206   3.512
 9393TIP3   OH228142   0.856   3.030   0.449
 9393TIP3    H128143   0.863   2.935   0.454
 9393TIP3    H228144   0.945   3.062   0.462
 9394TIP3   OH228145   0.096   1.895   0.783
 9394TIP3    H128146   0.126   1.827   0.843
 9394TIP3    H228147   0.003   1.904   0.801
 9395TIP3   OH228148   3.254   2.361   3.027
 9395TIP3    H128149   3.245   2.287   3.087
 9395TIP3    H228150   3.258   2.322   2.940
 9396TIP3   OH228151   1.397   1.208   4.387
 9396TIP3    H128152   1.419   1.228   4.296
 9396TIP3    H228153   1.306   1.179   4.384
 9397TIP3   OH228154   1.496   4.618   4.998
 9397TIP3    H128155   1.526   4.651   4.913
 9397TIP3    H228156   1.444   4.541   4.976
 9398TIP3   OH228157   5.195   0.254   5.205
 9398TIP3    H128158   5.257   0.303   5.150
 9398TIP3    H228159   5.125   0.228   5.145
 9399TIP3   OH228160   0.326   5.961   5.266
 9399TIP3    H128161   0.277   5.939   5.345
 9399TIP3    H228162   0.291   6.045   5.238
 9400TIP3   OH228163   0.797   0.478   0.536
 9400TIP3    H128164   0.812   0.390   0.569
 9400TIP3    H228165   0.864   0.532   0.579
 9401TIP3   OH228166   1.467   5.662   1.106
 9401TIP3    H128167   1.485   5.575   1.144
 9401TIP3    H228168   1.377   5.681   1.131
 9402TIP3   OH228169   5.772   3.999   1.798
 9402TIP3    H128170   5.830   4.056   1.848
 9402TIP3    H228171   5.823   3.919   1.784
 9403TIP3   OH228172   2.331   5.748   2.619
 9403TIP3    H128173   2.240   5.725   2.603
 9403TIP3    H228174   2.368   5.672   2.662
 9404TIP3   OH228175   1.704   0.718   2.597
 9404TIP3    H128176   1.733   0.732   2.686
 9404TIP3    H228177   1.608   0.716   2.603
 9405TIP3   OH228178   3.042   0.199   3.753
 9405TIP3    H128179   3.097   0.142   3.698
 9405TIP3    H228180   2.966   0.145   3.774
 9406TIP3   OH228181   5.568   6.101   1.408
 9406TIP3    H128182   5.625   6.121   1.482
 9406TIP3    H228183   5.583   6.172   1.346
 9407TIP3   OH228184   4.564   0.681   4.667
 9407TIP3    H128185   4.653   0.662   4.695
 9407TIP3    H228186   4.520   0.596   4.668
 9408TIP3   OH228187   6.011   5.138   3.689
 9408TIP3    H128188   6.093   5.089   3.684
 9408TIP3    H228189   5.982   5.146   3.599
 9409TIP3   OH228190   5.643   0.926   4.900
 9409TIP3    H128191   5.689   0.843   4.914
 9409TIP3    H228192   5.711   0.992   4.904
 9410TIP3   OH228193   3.339   4.900   2.098
 9410TIP3    H128194   3.294   4.820   2.072
 9410TIP3    H228195   3.268   4.962   2.116
 9411TIP3   OH228196   2.750   3.941   1.468
 9411TIP3    H128197   2.716   3.898   1.547
 9411TIP3    H228198   2.747   3.872   1.401
 9412TIP3   OH228199   4.921   4.463   4.539
 9412TIP3    H128200   4.888   4.552   4.534
 9412TIP3    H228201   4.843   4.410   4.556
 9413TIP3   OH228202   2.066   1.894   5.890
 9413TIP3    H128203   1.982   1.885   5.844
 9413TIP3    H228204   2.116   1.956   5.837
 9414TIP3   OH228205   3.979   6.485   3.968
 9414TIP3    H128206   4.026   6.439   4.037
 9414TIP3    H228207   3.889   6.491   4.000
 9415TIP3   OH228208   5.722   3.753   3.196
 9415TIP3    H128209   5.704   3.721   3.284
 9415TIP3    H228210   5.817   3.749   3.188
 9416TIP3   OH228211   4.814   3.587   0.948
 9416TIP3    H128212   4.844   3.677   0.945
 9416TIP3    H228213   4.822   3.562   1.041
 9417TIP3   OH228214   4.993   0.485   3.454
 9417TIP3    H128215   5.084   0.515   3.451
 9417TIP3    H228216   4.990   0.413   3.391
 9418TIP3   OH228217   2.389   4.012   2.315
 9418TIP3    H128218   2.357   4.056   2.395
 9418TIP3    H228219   2.477   3.984   2.337
 9419TIP3   OH228220   1.680   3.827   5.272
 9419TIP3    H128221   1.733   3.868   5.341
 9419TIP3    H228222   1.590   3.846   5.297
 9420TIP3   OH228223   3.624   1.461   4.947
 9420TIP3    H128224   3.669   1.522   4.887
 9420TIP3    H228225   3.694   1.429   5.004
 9421TIP3   OH228226   0.736   2.514   4.887
 9421TIP3    H128227   0.788   2.589   4.916
 9421TIP3    H228228   0.756   2.445   4.951
 9422TIP3   OH228229   4.550   1.097   0.820
 9422TIP3    H128230   4.456   1.096   0.836
 9422TIP3    H228231   4.580   1.180   0.859
 9423TIP3   OH228232   0.448   2.886   2.240
 9423TIP3    H128233   0.484   2.974   2.238
 9423TIP3    H228234   0.472   2.852   2.326
 9424TIP3   OH228235   5.447   1.563   3.483
 9424TIP3    H128236   5.367   1.615   3.472
 9424TIP3    H228237   5.445   1.537   3.575
 9425TIP3   OH228238   4.990   3.771   2.463
 9425TIP3    H128239   5.074   3.742   2.499
 9425TIP3    H228240   4.943   3.809   2.537
 9426TIP3   OH228241   0.388   0.415   1.535
 9426TIP3    H128242   0.329   0.424   1.609
 9426TIP3    H228243   0.431   0.330   1.549
 9427TIP3   OH228244   4.137   4.504   0.065
 9427TIP3    H128245   4.160   4.467  -0.020
 9427TIP3    H228246   4.179   4.590   0.067
 9428TIP3   OH228247   0.849   4.341   2.981
 9428TIP3    H128248   0.869   4.429   2.947
 9428TIP3    H228249   0.782   4.356   3.047
 9429TIP3   OH228250   6.576   1.079   0.058
 9429TIP3    H128251   6.561   1.082   0.152
 9429TIP3    H228252   6.667   1.106   0.047
 9430TIP3   OH228253   6.138   1.638   3.030
 9430TIP3    H128254   6.057   1.673   3.068
 9430TIP3    H228255   6.116   1.623   2.938
 9431TIP3   OH228256   3.869   5.344   0.948
 9431TIP3    H128257   3.959   5.356   0.979
 9431TIP3    H228258   3.815   5.358   1.026
 9432TIP3   OH228259   5.599   5.981   4.110
 9432TIP3    H128260   5.574   6.067   4.078
 9432TIP3    H228261   5.556   5.974   4.196
 9433TIP3   OH228262   3.197   1.762   1.534
 9433TIP3    H128263   3.114   1.786   1.494
 9433TIP3    H228264   3.174   1.698   1.601
 9434TIP3   OH228265   4.384   4.016   5.311
 9434TIP3    H128266   4.336   3.935   5.293
 9434TIP3    H228267   4.476   3.991   5.311
 9435TIP3   OH228268   2.425   1.648   4.539
 9435TIP3    H128269   2.457   1.585   4.474
 9435TIP3    H228270   2.367   1.597   4.595
 9436TIP3   OH228271   7.177   6.368   4.485
 9436TIP3    H128272   7.127   6.438   4.442
 9436TIP3    H228273   7.124   6.345   4.561
 9437TIP3   OH228274   6.387   5.491   3.777
 9437TIP3    H128275   6.363   5.484   3.684
 9437TIP3    H228276   6.364   5.406   3.814
 9438TIP3   OH228277   0.929   1.156   2.655
 9438TIP3    H128278   0.956   1.155   2.747
 9438TIP3    H228279   0.991   1.097   2.612
 9439TIP3   OH228280   4.291   1.171   4.271
 9439TIP3    H128281   4.291   1.214   4.186
 9439TIP3    H228282   4.272   1.079   4.252
 9440TIP3   OH228283   4.219   4.387   0.332
 9440TIP3    H128284   4.302   4.415   0.295
 9440TIP3    H228285   4.156   4.396   0.260
 9441TIP3   OH228286   5.070   2.063   1.650
 9441TIP3    H128287   5.084   2.033   1.740
 9441TIP3    H228288   5.122   2.003   1.596
 9442TIP3   OH228289   3.458   1.082   5.423
 9442TIP3    H128290   3.406   1.034   5.487
 9442TIP3    H228291   3.531   1.023   5.402
 9443TIP3   OH228292   3.076   6.730   0.671
 9443TIP3    H128293   3.065   6.802   0.609
 9443TIP3    H228294   3.067   6.651   0.619
 9444TIP3   OH228295   4.069   2.832   3.206
 9444TIP3    H128296   4.000   2.806   3.146
 9444TIP3    H228297   4.097   2.918   3.175
 9445TIP3   OH228298   4.640   0.166   2.901
 9445TIP3    H128299   4.717   0.210   2.938
 9445TIP3    H228300   4.636   0.197   2.811
 9446TIP3   OH228301   2.916   1.985   3.503
 9446TIP3    H128302   2.998   2.034   3.508
 9446TIP3    H228303   2.850   2.046   3.538
 9447TIP3   OH228304   5.741   6.108   4.750
 9447TIP3    H128305   5.763   6.015   4.743
 9447TIP3    H228306   5.713   6.133   4.662
 9448TIP3   OH228307   0.616   4.412   1.896
 9448TIP3    H128308   0.555   4.451   1.959
 9448TIP3    H228309   0.666   4.486   1.862
 9449TIP3   OH228310   3.682   2.995   3.500
 9449TIP3    H128311   3.678   2.962   3.590
 9449TIP3    H228312   3.758   3.053   3.499
 9450TIP3   OH228313   1.529   3.063   4.314
 9450TIP3    H128314   1.511   3.078   4.407
 9450TIP3    H228315   1.466   2.996   4.287
 9451TIP3   OH228316   3.721   1.927   2.908
 9451TIP3    H128317   3.642   1.890   2.869
 9451TIP3    H228318   3.735   2.008   2.860
 9452TIP3   OH228319   4.683   1.032   4.314
 9452TIP3    H128320   4.706   0.970   4.245
 9452TIP3    H228321   4.622   0.985   4.371
 9453TIP3   OH228322   5.609   1.291   2.779
 9453TIP3    H128323   5.641   1.301   2.690
 9453TIP3    H228324   5.682   1.253   2.827
 9454TIP3   OH228325   5.328   4.887   3.348
 9454TIP3    H128326   5.323   4.808   3.401
 9454TIP3    H228327   5.331   4.855   3.258
 9455TIP3   OH228328   5.930   4.675   2.978
 9455TIP3    H128329   5.877   4.745   3.015
 9455TIP3    H228330   5.987   4.718   2.915
 9456TIP3   OH228331   3.103   0.133   0.933
 9456TIP3    H128332   3.022   0.084   0.923
 9456TIP3    H228333   3.110   0.184   0.852
 9457TIP3   OH228334   6.928   2.220   1.614
 9457TIP3    H128335   6.948   2.280   1.686
 9457TIP3    H228336   6.969   2.137   1.639
 9458TIP3   OH228337   4.221   1.169   2.402
 9458TIP3    H128338   4.287   1.117   2.356
 9458TIP3    H228339   4.235   1.259   2.371
 9459TIP3   OH228340   2.813   5.383   4.868
 9459TIP3    H128341   2.792   5.290   4.881
 9459TIP3    H228342   2.857   5.386   4.783
 9460TIP3   OH228343   5.160   2.413   5.316
 9460TIP3    H128344   5.069   2.428   5.341
 9460TIP3    H228345   5.159   2.331   5.267
 9461TIP3   OH228346   6.431   6.109   1.001
 9461TIP3    H128347   6.412   6.148   1.087
 9461TIP3    H228348   6.350   6.119   0.952
 9462TIP3   OH228349   1.623   1.232   0.698
 9462TIP3    H128350   1.566   1.225   0.774
 9462TIP3    H228351   1.663   1.146   0.690
 9463TIP3   OH228352   0.546   0.569   0.506
 9463TIP3    H128353   0.560   0.664   0.516
 9463TIP3    H228354   0.634   0.532   0.503
 9464TIP3   OH228355   0.867   3.590   5.405
 9464TIP3    H128356   0.928   3.600   5.332
 9464TIP3    H228357   0.907   3.639   5.477
 9465TIP3   OH228358   6.752   1.098   0.662
 9465TIP3    H128359   6.776   1.112   0.571
 9465TIP3    H228360   6.745   1.186   0.699
 9466TIP3   OH228361   3.683   2.715   0.971
 9466TIP3    H128362   3.739   2.651   0.927
 9466TIP3    H228363   3.614   2.662   1.011
 9467TIP3   OH228364   3.258   2.114   3.950
 9467TIP3    H128365   3.200   2.144   3.879
 9467TIP3    H228366   3.215   2.037   3.986
 9468TIP3   OH228367   1.614   1.893   0.371
 9468TIP3    H128368   1.625   1.802   0.345
 9468TIP3    H228369   1.544   1.925   0.314
 9469TIP3   OH228370   5.792   6.114   1.219
 9469TIP3    H128371   5.858   6.141   1.284
 9469TIP3    H228372   5.741   6.193   1.204
 9470TIP3   OH228373   1.437   2.847   0.252
 9470TIP3    H128374   1.462   2.757   0.274
 9470TIP3    H228375   1.485   2.901   0.315
 9471TIP3   OH228376   0.164   6.580   5.677
 9471TIP3    H128377   0.069   6.568   5.679
 9471TIP3    H228378   0.176   6.669   5.644
 9472TIP3   OH228379   6.639   0.429   1.701
 9472TIP3    H128380   6.581   0.405   1.629
 9472TIP3    H228381   6.610   0.376   1.775
 9473TIP3   OH228382   6.083   2.877   2.432
 9473TIP3    H128383   6.072   2.805   2.494
 9473TIP3    H228384   6.077   2.956   2.486
 9474TIP3   OH228385   5.806   1.687   4.382
 9474TIP3    H128386   5.743   1.657   4.447
 9474TIP3    H228387   5.757   1.692   4.300
 9475TIP3   OH228388   2.815   3.274   4.646
 9475TIP3    H128389   2.831   3.181   4.632
 9475TIP3    H228390   2.866   3.317   4.577
 9476TIP3   OH228391   4.100   2.831   4.952
 9476TIP3    H128392   4.131   2.743   4.970
 9476TIP3    H228393   4.075   2.830   4.859
 9477TIP3   OH228394   1.612   4.232   5.381
 9477TIP3    H128395   1.603   4.271   5.294
 9477TIP3    H228396   1.539   4.268   5.431
 9478TIP3   OH228397   4.598   3.307   0.889
 9478TIP3    H128398   4.507   3.282   0.873
 9478TIP3    H228399   4.617   3.275   0.977
 9479TIP3   OH228400   6.774   5.875   2.876
 9479TIP3    H128401   6.859   5.865   2.832
 9479TIP3    H228402   6.790   5.938   2.946
 9480TIP3   OH228403   2.106   5.620   5.142
 9480TIP3    H128404   2.059   5.698   5.172
 9480TIP3    H228405   2.127   5.638   5.050
 9481TIP3   OH228406   4.554   4.708   4.658
 9481TIP3    H128407   4.461   4.731   4.649
 9481TIP3    H228408   4.601   4.790   4.645
 9482TIP3   OH228409   2.648   5.377   2.806
 9482TIP3    H128410   2.738   5.410   2.797
 9482TIP3    H228411   2.616   5.420   2.886
 9483TIP3   OH228412   2.741   6.343   2.273
 9483TIP3    H128413   2.661   6.307   2.311
 9483TIP3    H228414   2.807   6.335   2.341
 9484TIP3   OH228415   0.249   2.120   1.241
 9484TIP3    H128416   0.204   2.100   1.324
 9484TIP3    H228417   0.300   2.199   1.260
 9485TIP3   OH228418   2.360   3.453   0.671
 9485TIP3    H128419   2.371   3.375   0.726
 9485TIP3    H228420   2.367   3.420   0.582
 9486TIP3   OH228421   5.314   4.697   3.147
 9486TIP3    H128422   5.391   4.647   3.121
 9486TIP3    H228423   5.274   4.645   3.216
 9487TIP3   OH228424   5.776   3.330   1.551
 9487TIP3    H128425   5.725   3.306   1.474
 9487TIP3    H228426   5.756   3.423   1.565
 9488TIP3   OH228427   5.737   0.348   1.338
 9488TIP3    H128428   5.677   0.321   1.407
 9488TIP3    H228429   5.785   0.422   1.376
 9489TIP3   OH228430   1.684   3.351   0.468
 9489TIP3    H128431   1.726   3.272   0.502
 9489TIP3    H228432   1.700   3.347   0.374
 9490TIP3   OH228433   5.546   4.669   0.941
 9490TIP3    H128434   5.625   4.666   0.887
 9490TIP3    H228435   5.480   4.711   0.886
 9491TIP3   OH228436   6.750   0.439   3.484
 9491TIP3    H128437   6.738   0.345   3.477
 9491TIP3    H228438   6.689   0.477   3.421
 9492TIP3   OH228439   4.805   5.694   2.036
 9492TIP3    H128440   4.732   5.632   2.034
 9492TIP3    H228441   4.763   5.779   2.053
 9493TIP3   OH228442   3.984   2.521   1.751
 9493TIP3    H128443   4.039   2.488   1.679
 9493TIP3    H228444   3.994   2.457   1.821
 9494TIP3   OH228445   3.506   3.355   3.616
 9494TIP3    H128446   3.456   3.344   3.697
 9494TIP3    H228447   3.575   3.289   3.622
 9495TIP3   OH228448   5.031   6.488   0.609
 9495TIP3    H128449   4.993   6.557   0.554
 9495TIP3    H228450   5.122   6.482   0.579
 9496TIP3   OH228451   3.517   4.088   0.962
 9496TIP3    H128452   3.476   4.168   0.927
 9496TIP3    H228453   3.523   4.103   1.056
 9497TIP3   OH228454   6.380   1.116   2.332
 9497TIP3    H128455   6.474   1.101   2.333
 9497TIP3    H228456   6.366   1.178   2.261
 9498TIP3   OH228457   4.344   3.179   0.850
 9498TIP3    H128458   4.250   3.169   0.868
 9498TIP3    H228459   4.352   3.163   0.756
 9499TIP3   OH228460   4.818   3.120   0.167
 9499TIP3    H128461   4.781   3.191   0.115
 9499TIP3    H228462   4.912   3.129   0.156
 9500TIP3   OH228463   2.653   6.540   3.768
 9500TIP3    H128464   2.680   6.617   3.818
 9500TIP3    H228465   2.559   6.532   3.784
 9501TIP3   OH228466   1.524   0.508   4.866
 9501TIP3    H128467   1.448   0.460   4.834
 9501TIP3    H228468   1.579   0.442   4.907
 9502TIP3   OH228469   2.469   1.895   3.171
 9502TIP3    H128470   2.559   1.919   3.192
 9502TIP3    H228471   2.453   1.934   3.085
 9503TIP3   OH228472   3.768   1.043   0.031
 9503TIP3    H128473   3.709   0.968   0.044
 9503TIP3    H228474   3.820   1.047   0.111
 9504TIP3   OH228475   1.601   2.871   0.990
 9504TIP3    H128476   1.575   2.807   1.057
 9504TIP3    H228477   1.524   2.926   0.978
 9505TIP3   OH228478   0.650   6.217   3.318
 9505TIP3    H128479   0.668   6.310   3.320
 9505TIP3    H228480   0.724   6.178   3.271
 9506TIP3   OH228481   0.978   0.404   4.521
 9506TIP3    H128482   0.959   0.313   4.499
 9506TIP3    H228483   0.953   0.453   4.443
 9507TIP3   OH228484   1.366   0.541   4.195
 9507TIP3    H128485   1.329   0.508   4.278
 9507TIP3    H228486   1.301   0.518   4.129
 9508TIP3   OH228487   4.826   3.697   0.356
 9508TIP3    H128488   4.916   3.667   0.370
 9508TIP3    H228489   4.804   3.747   0.435
 9509TIP3   OH228490   4.898   6.383   1.608
 9509TIP3    H128491   4.870   6.391   1.517
 9509TIP3    H228492   4.823   6.415   1.659
 9510TIP3   OH228493   1.379   6.534   5.059
 9510TIP3    H128494   1.294   6.495   5.080
 9510TIP3    H228495   1.433   6.459   5.033
 9511TIP3   OH228496   3.886   5.786   4.745
 9511TIP3    H128497   3.850   5.709   4.789
 9511TIP3    H228498   3.978   5.788   4.770
 9512TIP3   OH228499   1.943   5.981   4.046
 9512TIP3    H128500   1.913   5.953   4.132
 9512TIP3    H228501   2.018   6.037   4.063
 9513TIP3   OH228502   5.943   2.793   3.148
 9513TIP3    H128503   6.018   2.852   3.144
 9513TIP3    H228504   5.875   2.836   3.096
 9514TIP3   OH228505   6.157   4.109   1.603
 9514TIP3    H128506   6.131   4.182   1.659
 9514TIP3    H228507   6.081   4.095   1.545
 9515TIP3   OH228508   5.284   0.530   0.601
 9515TIP3    H128509   5.200   0.576   0.603
 9515TIP3    H228510   5.277   0.470   0.527
 9516TIP3   OH228511   4.254   1.332   0.752
 9516TIP3    H128512   4.247   1.244   0.717
 9516TIP3    H228513   4.216   1.327   0.840
 9517TIP3   OH228514   4.267   5.646   3.718
 9517TIP3    H128515   4.345   5.640   3.773
 9517TIP3    H228516   4.199   5.680   3.776
 9518TIP3   OH228517   5.088   6.595   3.370
 9518TIP3    H128518   5.161   6.574   3.430
 9518TIP3    H228519   5.051   6.510   3.347
 9519TIP3   OH228520   5.227   0.671   5.697
 9519TIP3    H128521   5.189   0.600   5.644
 9519TIP3    H228522   5.320   0.670   5.676
 9520TIP3   OH228523   5.246   5.340   4.838
 9520TIP3    H128524   5.201   5.319   4.919
 9520TIP3    H228525   5.337   5.318   4.854
 9521TIP3   OH228526   1.249   6.217   3.406
 9521TIP3    H128527   1.280   6.188   3.492
 9521TIP3    H228528   1.269   6.311   3.405
 9522TIP3   OH228529   2.729   4.893   0.766
 9522TIP3    H128530   2.690   4.912   0.852
 9522TIP3    H228531   2.661   4.844   0.720
 9523TIP3   OH228532   1.793   1.993   1.777
 9523TIP3    H128533   1.705   2.029   1.788
 9523TIP3    H228534   1.792   1.911   1.827
 9524TIP3   OH228535   4.272   3.908   2.067
 9524TIP3    H128536   4.260   3.971   2.138
 9524TIP3    H228537   4.189   3.911   2.018
 9525TIP3   OH228538   0.971   5.111   0.882
 9525TIP3    H128539   0.928   5.057   0.949
 9525TIP3    H228540   0.904   5.123   0.814
 9526TIP3   OH228541   5.906   0.896   5.090
 9526TIP3    H128542   5.943   0.826   5.035
 9526TIP3    H228543   5.954   0.975   5.064
 9527TIP3   OH228544   2.948   0.891   0.661
 9527TIP3    H128545   3.005   0.814   0.661
 9527TIP3    H228546   3.002   0.960   0.622
 9528TIP3   OH228547   5.289   3.561   1.704
 9528TIP3    H128548   5.312   3.516   1.623
 9528TIP3    H228549   5.251   3.644   1.676
 9529TIP3   OH228550   0.864   1.531   0.430
 9529TIP3    H128551   0.898   1.441   0.429
 9529TIP3    H228552   0.929   1.581   0.478
 9530TIP3   OH228553   1.400   4.529   3.014
 9530TIP3    H128554   1.491   4.505   2.996
 9530TIP3    H228555   1.400   4.555   3.106
 9531TIP3   OH228556   2.423   6.546   4.075
 9531TIP3    H128557   2.481   6.615   4.043
 9531TIP3    H228558   2.338   6.589   4.083
 9532TIP3   OH228559   4.265   2.570   4.636
 9532TIP3    H128560   4.355   2.600   4.624
 9532TIP3    H228561   4.273   2.485   4.679
 9533TIP3   OH228562   3.607   1.203   4.115
 9533TIP3    H128563   3.518   1.238   4.120
 9533TIP3    H228564   3.603   1.122   4.166
 9534TIP3   OH228565   3.767   5.639   0.642
 9534TIP3    H128566   3.707   5.620   0.714
 9534TIP3    H228567   3.784   5.554   0.602
 9535TIP3   OH228568   3.975   2.109   3.586
 9535TIP3    H128569   3.938   2.195   3.606
 9535TIP3    H228570   3.966   2.059   3.666
 9536TIP3   OH228571   6.319   1.879   5.386
 9536TIP3    H128572   6.319   1.788   5.355
 9536TIP3    H228573   6.233   1.913   5.361
 9537TIP3   OH228574   4.450   0.375   0.474
 9537TIP3    H128575   4.525   0.433   0.486
 9537TIP3    H228576   4.475   0.294   0.518
 9538TIP3   OH228577   3.883   4.754   0.726
 9538TIP3    H128578   3.941   4.693   0.680
 9538TIP3    H228579   3.939   4.792   0.794
 9539TIP3   OH228580   0.679   5.948   2.505
 9539TIP3    H128581   0.674   5.878   2.570
 9539TIP3    H228582   0.604   6.004   2.525
 9540TIP3   OH228583   1.597   5.876   3.561
 9540TIP3    H128584   1.593   5.910   3.650
 9540TIP3    H228585   1.674   5.819   3.561
 9541TIP3   OH228586   3.004   3.745   1.734
 9541TIP3    H128587   2.966   3.741   1.822
 9541TIP3    H228588   2.949   3.686   1.682
 9542TIP3   OH228589   0.283   1.387   3.966
 9542TIP3    H128590   0.294   1.470   3.919
 9542TIP3    H228591   0.210   1.344   3.921
 9543TIP3   OH228592   4.232   3.624   4.501
 9543TIP3    H128593   4.164   3.688   4.481
 9543TIP3    H228594   4.313   3.673   4.497
 9544TIP3   OH228595   6.809   0.568   1.928
 9544TIP3    H128596   6.737   0.592   1.988
 9544TIP3    H228597   6.765   0.547   1.845
 9545TIP3   OH228598   4.772   1.036   3.523
 9545TIP3    H128599   4.714   0.966   3.554
 9545TIP3    H228600   4.756   1.040   3.429
 9546TIP3   OH228601   6.047   3.104   5.870
 9546TIP3    H128602   6.131   3.059   5.870
 9546TIP3    H228603   6.019   3.103   5.779
 9547TIP3   OH228604   6.989   6.458   1.313
 9547TIP3    H128605   6.899   6.486   1.330
 9547TIP3    H228606   6.996   6.372   1.355
 9548TIP3   OH228607   4.512   4.795   5.860
 9548TIP3    H128608   4.565   4.794   5.781
 9548TIP3    H228609   4.566   4.752   5.926
 9549TIP3   OH228610   6.216   5.032   4.444
 9549TIP3    H128611   6.130   5.072   4.442
 9549TIP3    H228612   6.270   5.091   4.497
 9550TIP3   OH228613   4.543   0.911   5.373
 9550TIP3    H128614   4.497   0.995   5.367
 9550TIP3    H228615   4.633   0.934   5.396
 9551TIP3   OH228616   1.944   2.258   3.808
 9551TIP3    H128617   1.902   2.262   3.894
 9551TIP3    H228618   1.883   2.208   3.754
 9552TIP3   OH228619   2.478   1.574   3.227
 9552TIP3    H128620   2.490   1.624   3.146
 9552TIP3    H228621   2.564   1.538   3.246
 9553TIP3   OH228622   1.602   2.812   0.001
 9553TIP3    H128623   1.563   2.829   0.087
 9553TIP3    H228624   1.672   2.750   0.018
 9554TIP3   OH228625   1.113   1.669   3.479
 9554TIP3    H128626   1.120   1.739   3.414
 9554TIP3    H228627   1.203   1.655   3.509
 9555TIP3   OH228628   2.477   2.998   2.633
 9555TIP3    H128629   2.568   3.028   2.635
 9555TIP3    H228630   2.476   2.920   2.688
 9556TIP3   OH228631   5.906   2.148   0.014
 9556TIP3    H128632   5.842   2.103   0.069
 9556TIP3    H228633   5.906   2.238   0.047
 9557TIP3   OH228634   7.118   3.705   3.087
 9557TIP3    H128635   7.031   3.681   3.055
 9557TIP3    H228636   7.172   3.709   3.008
 9558TIP3   OH228637   4.632   0.124   0.277
 9558TIP3    H128638   4.694   0.069   0.325
 9558TIP3    H228639   4.618   0.077   0.194
 9559TIP3   OH228640   1.985   5.961   2.090
 9559TIP3    H128641   2.063   5.986   2.139
 9559TIP3    H228642   1.974   5.867   2.108
 9560TIP3   OH228643   6.700   6.544   2.099
 9560TIP3    H128644   6.615   6.565   2.138
 9560TIP3    H228645   6.697   6.449   2.085
 9561TIP3   OH228646   5.052   2.938   1.187
 9561TIP3    H128647   5.047   3.014   1.129
 9561TIP3    H228648   5.144   2.914   1.187
 9562TIP3   OH228649   5.867   4.066   3.806
 9562TIP3    H128650   5.859   4.103   3.894
 9562TIP3    H228651   5.866   3.972   3.819
 9563TIP3   OH228652   3.477   2.825   3.944
 9563TIP3    H128653   3.465   2.847   4.036
 9563TIP3    H228654   3.430   2.894   3.896
 9564TIP3   OH228655   3.407  -0.030   2.635
 9564TIP3    H128656   3.482  -0.029   2.694
 9564TIP3    H228657   3.442  -0.062   2.552
 9565TIP3   OH228658   3.232   0.183   4.067
 9565TIP3    H128659   3.258   0.200   4.157
 9565TIP3    H228660   3.152   0.129   4.074
 9566TIP3   OH228661   2.379   5.269   5.134
 9566TIP3    H128662   2.392   5.330   5.207
 9566TIP3    H228663   2.318   5.313   5.076
 9567TIP3   OH228664   1.215   0.978   5.258
 9567TIP3    H128665   1.216   0.887   5.289
 9567TIP3    H228666   1.237   0.971   5.165
 9568TIP3   OH228667   0.063   0.958   5.753
 9568TIP3    H128668   0.054   1.052   5.737
 9568TIP3    H228669  -0.018   0.934   5.799
 9569TIP3   OH228670   6.560   2.789   1.579
 9569TIP3    H128671   6.624   2.858   1.562
 9569TIP3    H228672   6.611   2.719   1.620
 9570TIP3   OH228673   0.591   6.309   3.788
 9570TIP3    H128674   0.499   6.331   3.803
 9570TIP3    H228675   0.610   6.243   3.855
 9571TIP3   OH228676   3.129   5.909   5.347
 9571TIP3    H128677   3.078   5.987   5.370
 9571TIP3    H228678   3.160   5.927   5.258
 9572TIP3   OH228679   4.928   6.190   2.023
 9572TIP3    H128680   4.961   6.248   1.954
 9572TIP3    H228681   4.892   6.248   2.089
 9573TIP3   OH228682   2.796   3.368   1.366
 9573TIP3    H128683   2.727   3.424   1.403
 9573TIP3    H228684   2.868   3.428   1.348
 9574TIP3   OH228685   6.775   3.047   2.148
 9574TIP3    H128686   6.813   3.058   2.061
 9574TIP3    H228687   6.804   3.125   2.197
 9575TIP3   OH228688   2.183   5.954   4.684
 9575TIP3    H128689   2.252   5.948   4.750
 9575TIP3    H228690   2.219   5.911   4.607
 9576TIP3   OH228691   3.584   6.486   1.070
 9576TIP3    H128692   3.623   6.443   1.146
 9576TIP3    H228693   3.544   6.565   1.105
 9577TIP3   OH228694   0.812   5.070   4.406
 9577TIP3    H128695   0.826   5.033   4.318
 9577TIP3    H228696   0.769   5.154   4.390
 9578TIP3   OH228697   2.513   4.422   5.063
 9578TIP3    H128698   2.604   4.450   5.071
 9578TIP3    H228699   2.506   4.347   5.122
 9579TIP3   OH228700   1.341   4.331   3.370
 9579TIP3    H128701   1.264   4.311   3.316
 9579TIP3    H228702   1.308   4.330   3.460
 9580TIP3   OH228703   3.705   2.070   5.831
 9580TIP3    H128704   3.718   2.092   5.923
 9580TIP3    H228705   3.757   1.992   5.817
 9581TIP3   OH228706   2.548   0.861   0.404
 9581TIP3    H128707   2.550   0.765   0.402
 9581TIP3    H228708   2.588   0.888   0.322
 9582TIP3   OH228709   7.206   0.173   1.832
 9582TIP3    H128710   7.179   0.093   1.876
 9582TIP3    H228711   7.162   0.170   1.747
 9583TIP3   OH228712   3.336   1.170   2.686
 9583TIP3    H128713   3.403   1.170   2.755
 9583TIP3    H228714   3.382   1.197   2.607
 9584TIP3   OH228715   7.171   2.216   1.877
 9584TIP3    H128716   7.106   2.266   1.829
 9584TIP3    H228717   7.253   2.263   1.862
 9585TIP3   OH228718   3.271   3.616   3.469
 9585TIP3    H128719   3.221   3.631   3.389
 9585TIP3    H228720   3.208   3.578   3.530
 9586TIP3   OH228721   5.915   3.071   4.646
 9586TIP3    H128722   5.894   3.010   4.576
 9586TIP3    H228723   6.011   3.071   4.649
 9587TIP3   OH228724   5.961   1.835   0.327
 9587TIP3    H128725   5.938   1.928   0.324
 9587TIP3    H228726   5.945   1.803   0.238
 9588TIP3   OH228727   5.782   2.881   4.808
 9588TIP3    H128728   5.844   2.809   4.800
 9588TIP3    H228729   5.813   2.947   4.746
 9589TIP3   OH228730   6.549   5.084   3.112
 9589TIP3    H128731   6.557   5.005   3.059
 9589TIP3    H228732   6.615   5.075   3.180
 9590TIP3   OH228733   4.417   4.710   4.976
 9590TIP3    H128734   4.377   4.784   5.022
 9590TIP3    H228735   4.386   4.633   5.022
 9591TIP3   OH228736   6.293   5.174   0.176
 9591TIP3    H128737   6.351   5.097   0.172
 9591TIP3    H228738   6.311   5.213   0.261
 9592TIP3   OH228739   3.966   3.816   2.548
 9592TIP3    H128740   4.056   3.784   2.559
 9592TIP3    H228741   3.936   3.772   2.468
 9593TIP3   OH228742   2.857   2.200   3.123
 9593TIP3    H128743   2.875   2.257   3.198
 9593TIP3    H228744   2.925   2.132   3.128
 9594TIP3   OH228745   1.776   4.765   3.928
 9594TIP3    H128746   1.870   4.784   3.924
 9594TIP3    H228747   1.770   4.689   3.985
 9595TIP3   OH228748   0.815   4.456   0.100
 9595TIP3    H128749   0.825   4.393   0.029
 9595TIP3    H228750   0.894   4.443   0.154
 9596TIP3   OH228751   6.747   0.564   0.897
 9596TIP3    H128752   6.655   0.587   0.884
 9596TIP3    H228753   6.751   0.470   0.884
 9597TIP3   OH228754   1.428   6.406   0.682
 9597TIP3    H128755   1.378   6.424   0.762
 9597TIP3    H228756   1.363   6.368   0.622
 9598TIP3   OH228757   6.684   1.254   2.824
 9598TIP3    H128758   6.654   1.336   2.785
 9598TIP3    H228759   6.777   1.249   2.803
 9599TIP3   OH228760   5.494   1.671   3.980
 9599TIP3    H128761   5.503   1.601   3.915
 9599TIP3    H228762   5.413   1.716   3.957
 9600TIP3   OH228763   7.120   5.702   2.594
 9600TIP3    H128764   7.051   5.649   2.552
 9600TIP3    H228765   7.201   5.673   2.552
 9601TIP3   OH228766   1.807   0.718   0.202
 9601TIP3    H128767   1.867   0.657   0.244
 9601TIP3    H228768   1.726   0.710   0.253
 9602TIP3   OH228769   2.984   1.522   5.606
 9602TIP3    H128770   3.026   1.478   5.533
 9602TIP3    H228771   3.021   1.481   5.684
 9603TIP3   OH228772   7.027   6.447   1.906
 9603TIP3    H128773   7.013   6.486   1.820
 9603TIP3    H228774   7.008   6.518   1.967
 9604TIP3   OH228775   4.119   5.586   2.307
 9604TIP3    H128776   4.026   5.568   2.324
 9604TIP3    H228777   4.159   5.499   2.296
 9605TIP3   OH228778   3.681   2.749   2.124
 9605TIP3    H128779   3.724   2.683   2.071
 9605TIP3    H228780   3.591   2.752   2.093
 9606TIP3   OH228781   4.178   6.452   1.111
 9606TIP3    H128782   4.182   6.479   1.019
 9606TIP3    H228783   4.251   6.391   1.121
 9607TIP3   OH228784   6.158   6.057   0.929
 9607TIP3    H128785   6.114   6.115   0.867
 9607TIP3    H228786   6.127   6.087   1.015
 9608TIP3   OH228787   3.866   2.938   4.191
 9608TIP3    H128788   3.892   2.996   4.120
 9608TIP3    H228789   3.819   2.867   4.147
 9609TIP3   OH228790   4.482   0.068   5.621
 9609TIP3    H128791   4.390   0.085   5.638
 9609TIP3    H228792   4.525   0.153   5.634
 9610TIP3   OH228793   2.824   2.207   0.717
 9610TIP3    H128794   2.743   2.182   0.673
 9610TIP3    H228795   2.813   2.300   0.737
 9611TIP3   OH228796   4.598   0.576   1.387
 9611TIP3    H128797   4.572   0.648   1.330
 9611TIP3    H228798   4.678   0.540   1.347
 9612TIP3   OH228799   3.717   2.848   3.729
 9612TIP3    H128800   3.712   2.761   3.689
 9612TIP3    H228801   3.642   2.851   3.789
 9613TIP3   OH228802   5.336   3.946   2.707
 9613TIP3    H128803   5.305   4.033   2.733
 9613TIP3    H228804   5.363   3.957   2.616
 9614TIP3   OH228805   1.315   1.115   4.762
 9614TIP3    H128806   1.400   1.142   4.728
 9614TIP3    H228807   1.256   1.187   4.740
 9615TIP3   OH228808   0.406   5.624   3.980
 9615TIP3    H128809   0.334   5.681   3.951
 9615TIP3    H228810   0.474   5.636   3.915
 9616TIP3   OH228811   6.492   0.272   4.048
 9616TIP3    H128812   6.453   0.250   3.963
 9616TIP3    H228813   6.435   0.340   4.084
 9617TIP3   OH228814   5.830   0.900   2.773
 9617TIP3    H128815   5.872   0.916   2.689
 9617TIP3    H228816   5.896   0.856   2.825
 9618TIP3   OH228817   1.776   5.652   4.943
 9618TIP3    H128818   1.732   5.682   4.863
 9618TIP3    H228819   1.705   5.629   5.003
 9619TIP3   OH228820   6.334   1.681  -0.059
 9619TIP3    H128821   6.386   1.602  -0.046
 9619TIP3    H228822   6.333   1.724   0.027
 9620TIP3   OH228823   0.902   1.778   1.215
 9620TIP3    H128824   0.811   1.772   1.187
 9620TIP3    H228825   0.900   1.752   1.308
 9621TIP3   OH228826   2.582   1.743   0.058
 9621TIP3    H128827   2.499   1.782   0.086
 9621TIP3    H228828   2.641   1.755   0.133
 9622TIP3   OH228829   1.718   2.408   0.857
 9622TIP3    H128830   1.809   2.436   0.866
 9622TIP3    H228831   1.718   2.316   0.884
 9623TIP3   OH228832   0.159   3.210   5.526
 9623TIP3    H128833   0.087   3.270   5.542
 9623TIP3    H228834   0.122   3.123   5.540
 9624TIP3   OH228835   5.856   1.659   3.080
 9624TIP3    H128836   5.821   1.601   3.013
 9624TIP3    H228837   5.801   1.643   3.157
 9625TIP3   OH228838   0.600   2.421   5.198
 9625TIP3    H128839   0.541   2.368   5.251
 9625TIP3    H228840   0.547   2.498   5.174
 9626TIP3   OH228841   4.902   0.799   5.588
 9626TIP3    H128842   4.858   0.718   5.611
 9626TIP3    H228843   4.904   0.799   5.492
 9627TIP3   OH228844   1.676   2.362   5.752
 9627TIP3    H128845   1.677   2.403   5.839
 9627TIP3    H228846   1.724   2.280   5.764
 9628TIP3   OH228847   0.337   2.767   3.593
 9628TIP3    H128848   0.332   2.685   3.543
 9628TIP3    H228849   0.259   2.768   3.647
 9629TIP3   OH228850   1.596   1.547   5.603
 9629TIP3    H128851   1.637   1.539   5.517
 9629TIP3    H228852   1.635   1.626   5.642
 9630TIP3   OH228853   2.627   2.018   5.729
 9630TIP3    H128854   2.696   2.053   5.672
 9630TIP3    H228855   2.654   2.045   5.817
 9631TIP3   OH228856   1.058   5.867   1.947
 9631TIP3    H128857   1.030   5.777   1.964
 9631TIP3    H228858   1.017   5.918   2.017
 9632TIP3   OH228859   5.362   4.556   2.673
 9632TIP3    H128860   5.430   4.505   2.630
 9632TIP3    H228861   5.281   4.509   2.652
 9633TIP3   OH228862   6.523   3.465   0.824
 9633TIP3    H128863   6.531   3.422   0.909
 9633TIP3    H228864   6.613   3.469   0.792
 9634TIP3   OH228865   5.937   5.238   1.291
 9634TIP3    H128866   5.871   5.193   1.239
 9634TIP3    H228867   6.020   5.219   1.246
 9635TIP3   OH228868   6.010   1.586   5.795
 9635TIP3    H128869   6.008   1.672   5.754
 9635TIP3    H228870   6.087   1.543   5.758
 9636TIP3   OH228871   6.319   3.283   0.518
 9636TIP3    H128872   6.266   3.299   0.440
 9636TIP3    H228873   6.289   3.198   0.550
 9637TIP3   OH228874   0.058   0.904   4.837
 9637TIP3    H128875  -0.012   0.842   4.817
 9637TIP3    H228876   0.119   0.895   4.764
 9638TIP3   OH228877   0.300   5.454   5.751
 9638TIP3    H128878   0.212   5.465   5.715
 9638TIP3    H228879   0.319   5.361   5.740
 9639TIP3   OH228880   1.579   2.629   1.524
 9639TIP3    H128881   1.570   2.570   1.449
 9639TIP3    H228882   1.520   2.593   1.590
 9640TIP3   OH228883   3.240   1.603   5.064
 9640TIP3    H128884   3.251   1.508   5.065
 9640TIP3    H228885   3.325   1.638   5.088
 9641TIP3   OH228886   2.949   3.456   5.570
 9641TIP3    H128887   2.970   3.550   5.572
 9641TIP3    H228888   2.855   3.453   5.555
 9642TIP3   OH228889   1.846   5.029   3.126
 9642TIP3    H128890   1.763   5.042   3.171
 9642TIP3    H228891   1.904   4.993   3.193
 9643TIP3   OH228892   4.071   3.053   5.138
 9643TIP3    H128893   4.016   3.112   5.086
 9643TIP3    H228894   4.082   2.975   5.084
 9644TIP3   OH228895   0.581   6.715   4.339
 9644TIP3    H128896   0.584   6.788   4.400
 9644TIP3    H228897   0.561   6.639   4.393
 9645TIP3   OH228898   3.154   4.581   0.952
 9645TIP3    H128899   3.167   4.509   1.014
 9645TIP3    H228900   3.193   4.549   0.870
 9646TIP3   OH228901   3.897   5.007   5.151
 9646TIP3    H128902   3.834   5.063   5.196
 9646TIP3    H228903   3.876   5.018   5.058
 9647TIP3   OH228904   5.467   6.409   3.398
 9647TIP3    H128905   5.467   6.505   3.399
 9647TIP3    H228906   5.560   6.385   3.398
 9648TIP3   OH228907   3.364   2.360   1.015
 9648TIP3    H128908   3.314   2.438   1.040
 9648TIP3    H228909   3.343   2.347   0.922
 9649TIP3   OH228910   2.596   3.013   1.890
 9649TIP3    H128911   2.502   2.994   1.893
 9649TIP3    H228912   2.620   3.027   1.982
 9650TIP3   OH228913   0.458   1.658   4.774
 9650TIP3    H128914   0.540   1.608   4.780
 9650TIP3    H228915   0.406   1.628   4.848
 9651TIP3   OH228916   5.945   2.685   0.121
 9651TIP3    H128917   5.939   2.688   0.217
 9651TIP3    H228918   6.031   2.648   0.103
 9652TIP3   OH228919   0.119   1.217   1.399
 9652TIP3    H128920   0.170   1.292   1.430
 9652TIP3    H228921   0.164   1.141   1.435
 9653TIP3   OH228922   6.345   0.196   3.807
 9653TIP3    H128923   6.257   0.212   3.774
 9653TIP3    H228924   6.351   0.100   3.812
 9654TIP3   OH228925   2.097   4.589   5.160
 9654TIP3    H128926   2.104   4.565   5.068
 9654TIP3    H228927   2.181   4.630   5.181
 9655TIP3   OH228928   3.080   3.903   3.782
 9655TIP3    H128929   3.153   3.887   3.841
 9655TIP3    H228930   3.121   3.922   3.698
 9656TIP3   OH228931   0.830   0.049   5.204
 9656TIP3    H128932   0.738   0.077   5.213
 9656TIP3    H228933   0.856   0.080   5.117
 9657TIP3   OH228934   0.732   0.485   2.283
 9657TIP3    H128935   0.785   0.559   2.313
 9657TIP3    H228936   0.694   0.448   2.363
 9658TIP3   OH228937   5.333   5.835   0.587
 9658TIP3    H128938   5.248   5.878   0.581
 9658TIP3    H228939   5.392   5.904   0.618
 9659TIP3   OH228940   6.761   1.483   5.139
 9659TIP3    H128941   6.689   1.443   5.187
 9659TIP3    H228942   6.806   1.409   5.097
 9660TIP3   OH228943   4.275   2.432   3.497
 9660TIP3    H128944   4.264   2.478   3.413
 9660TIP3    H228945   4.228   2.486   3.560
 9661TIP3   OH228946   6.448   1.843   1.696
 9661TIP3    H128947   6.543   1.836   1.685
 9661TIP3    H228948   6.414   1.852   1.607
 9662TIP3   OH228949   4.651  -0.009   2.249
 9662TIP3    H128950   4.744  -0.022   2.232
 9662TIP3    H228951   4.615   0.022   2.166
 9663TIP3   OH228952   2.213   0.371   3.563
 9663TIP3    H128953   2.225   0.286   3.523
 9663TIP3    H228954   2.141   0.358   3.625
 9664TIP3   OH228955   5.215   0.607   2.794
 9664TIP3    H128956   5.266   0.657   2.730
 9664TIP3    H228957   5.128   0.646   2.791
 9665TIP3   OH228958   3.874   6.197   5.100
 9665TIP3    H128959   3.892   6.179   5.008
 9665TIP3    H228960   3.778   6.192   5.106
 9666TIP3   OH228961   6.551   3.924   0.672
 9666TIP3    H128962   6.606   3.912   0.594
 9666TIP3    H228963   6.598   3.879   0.742
 9667TIP3   OH228964   5.688   2.784   4.144
 9667TIP3    H128965   5.608   2.756   4.100
 9667TIP3    H228966   5.669   2.774   4.237
 9668TIP3   OH228967   6.015   3.331   0.975
 9668TIP3    H128968   5.997   3.314   0.883
 9668TIP3    H228969   6.006   3.426   0.985
 9669TIP3   OH228970   1.364   2.888   1.377
 9669TIP3    H128971   1.298   2.957   1.366
 9669TIP3    H228972   1.378   2.854   1.289
 9670TIP3   OH228973   3.405   0.779   4.072
 9670TIP3    H128974   3.370   0.843   4.011
 9670TIP3    H228975   3.389   0.694   4.030
 9671TIP3   OH228976   6.903   5.732   4.393
 9671TIP3    H128977   6.860   5.811   4.424
 9671TIP3    H228978   6.833   5.666   4.389
 9672TIP3   OH228979   6.146   0.722   3.457
 9672TIP3    H128980   6.151   0.655   3.525
 9672TIP3    H228981   6.066   0.771   3.478
 9673TIP3   OH228982   1.621   2.480   2.258
 9673TIP3    H128983   1.558   2.409   2.246
 9673TIP3    H228984   1.622   2.496   2.353
 9674TIP3   OH228985   1.450   2.441   4.536
 9674TIP3    H128986   1.468   2.411   4.447
 9674TIP3    H228987   1.526   2.493   4.560
 9675TIP3   OH228988   4.969   5.812   4.050
 9675TIP3    H128989   5.013   5.817   4.135
 9675TIP3    H228990   4.943   5.721   4.041
 9676TIP3   OH228991   3.996   0.265   5.767
 9676TIP3    H128992   3.952   0.321   5.831
 9676TIP3    H228993   3.941   0.187   5.762
 9677TIP3   OH228994   6.031   2.751   4.841
 9677TIP3    H128995   6.110   2.697   4.840
 9677TIP3    H228996   5.997   2.740   4.930
 9678TIP3   OH228997   1.818   3.317   1.943
 9678TIP3    H128998   1.901   3.338   1.987
 9678TIP3    H228999   1.834   3.338   1.851
 9679TIP3   OH229000   0.331   6.065   1.104
 9679TIP3    H129001   0.270   5.993   1.118
 9679TIP3    H229002   0.343   6.068   1.009
 9680TIP3   OH229003   6.520   2.245   4.265
 9680TIP3    H129004   6.560   2.300   4.332
 9680TIP3    H229005   6.570   2.164   4.267
 9681TIP3   OH229006   4.987   2.115   4.811
 9681TIP3    H129007   5.057   2.175   4.786
 9681TIP3    H229008   5.018   2.029   4.781
 9682TIP3   OH229009   5.567   5.658   4.733
 9682TIP3    H129010   5.551   5.565   4.719
 9682TIP3    H229011   5.519   5.701   4.662
 9683TIP3   OH229012   2.799   5.794   5.561
 9683TIP3    H129013   2.862   5.861   5.586
 9683TIP3    H229014   2.807   5.786   5.466
 9684TIP3   OH229015   5.594   2.592   0.343
 9684TIP3    H129016   5.653   2.615   0.271
 9684TIP3    H229017   5.516   2.645   0.327
 9685TIP3   OH229018   1.779   0.626   1.354
 9685TIP3    H129019   1.768   0.622   1.449
 9685TIP3    H229020   1.848   0.562   1.336
 9686TIP3   OH229021   2.379   0.670   3.923
 9686TIP3    H129022   2.361   0.582   3.892
 9686TIP3    H229023   2.396   0.721   3.843
 9687TIP3   OH229024   4.393   2.477   4.991
 9687TIP3    H129025   4.392   2.442   4.902
 9687TIP3    H229026   4.453   2.419   5.038
 9688TIP3   OH229027   0.392   0.581   5.806
 9688TIP3    H129028   0.348   0.655   5.847
 9688TIP3    H229029   0.375   0.507   5.864
 9689TIP3   OH229030   2.633   6.250   2.844
 9689TIP3    H129031   2.713   6.284   2.802
 9689TIP3    H229032   2.615   6.311   2.915
 9690TIP3   OH229033   0.071   1.074   4.366
 9690TIP3    H129034   0.012   1.024   4.421
 9690TIP3    H229035   0.016   1.108   4.295
 9691TIP3   OH229036   3.299   6.565   3.396
 9691TIP3    H129037   3.278   6.474   3.375
 9691TIP3    H229038   3.271   6.575   3.487
 9692TIP3   OH229039   6.270   3.955   5.508
 9692TIP3    H129040   6.240   3.981   5.595
 9692TIP3    H229041   6.332   4.023   5.483
 9693TIP3   OH229042   4.558   5.246   0.269
 9693TIP3    H129043   4.494   5.175   0.278
 9693TIP3    H229044   4.542   5.282   0.182
 9694TIP3   OH229045   2.308   4.042   3.085
 9694TIP3    H129046   2.391   4.087   3.102
 9694TIP3    H229047   2.327   3.984   3.011
 9695TIP3   OH229048   2.762   1.252   0.816
 9695TIP3    H129049   2.739   1.198   0.740
 9695TIP3    H229050   2.682   1.300   0.836
 9696TIP3   OH229051   4.477   2.077   0.267
 9696TIP3    H129052   4.467   2.168   0.295
 9696TIP3    H229053   4.562   2.050   0.304
 9697TIP3   OH229054   6.525   5.981   2.721
 9697TIP3    H129055   6.542   5.986   2.815
 9697TIP3    H229056   6.612   5.984   2.681
 9698TIP3   OH229057   3.228   0.797   1.889
 9698TIP3    H129058   3.227   0.790   1.984
 9698TIP3    H229059   3.170   0.727   1.859
 9699TIP3   OH229060   6.423   6.592   4.316
 9699TIP3    H129061   6.428   6.497   4.317
 9699TIP3    H229062   6.353   6.612   4.255
 9700TIP3   OH229063   6.433   6.489   5.652
 9700TIP3    H129064   6.342   6.475   5.675
 9700TIP3    H229065   6.470   6.401   5.644
 9701TIP3   OH229066   2.352   2.820   5.001
 9701TIP3    H129067   2.363   2.726   4.989
 9701TIP3    H229068   2.296   2.828   5.078
 9702TIP3   OH229069   0.587   0.751   4.478
 9702TIP3    H129070   0.680   0.756   4.457
 9702TIP3    H229071   0.543   0.789   4.402
 9703TIP3   OH229072   5.793   6.705   2.516
 9703TIP3    H129073   5.725   6.679   2.453
 9703TIP3    H229074   5.832   6.622   2.544
 9704TIP3   OH229075   6.486   4.573   1.931
 9704TIP3    H129076   6.541   4.573   2.010
 9704TIP3    H229077   6.548   4.582   1.859
 9705TIP3   OH229078   0.184   2.850   1.147
 9705TIP3    H129079   0.091   2.830   1.152
 9705TIP3    H229080   0.192   2.940   1.178
 9706TIP3   OH229081   0.940   5.928   2.177
 9706TIP3    H129082   0.900   5.988   2.240
 9706TIP3    H229083   1.018   5.896   2.221
 9707TIP3   OH229084   3.506   4.119   2.147
 9707TIP3    H129085   3.475   4.102   2.236
 9707TIP3    H229086   3.426   4.119   2.094
 9708TIP3   OH229087   6.322   6.336   5.126
 9708TIP3    H129088   6.227   6.329   5.139
 9708TIP3    H229089   6.336   6.299   5.038
 9709TIP3   OH229090   5.733   6.354   3.038
 9709TIP3    H129091   5.718   6.300   3.116
 9709TIP3    H229092   5.646   6.386   3.015
 9710TIP3   OH229093   1.018   4.329   0.998
 9710TIP3    H129094   0.988   4.407   0.952
 9710TIP3    H229095   1.067   4.279   0.932
 9711TIP3   OH229096   4.546   3.024   0.917
 9711TIP3    H129097   4.474   3.087   0.923
 9711TIP3    H229098   4.591   3.046   0.836
 9712TIP3   OH229099   6.905   4.322   4.733
 9712TIP3    H129100   6.851   4.245   4.752
 9712TIP3    H229101   6.895   4.378   4.810
 9713TIP3   OH229102   1.608   3.785   0.945
 9713TIP3    H129103   1.619   3.692   0.965
 9713TIP3    H229104   1.689   3.810   0.902
 9714TIP3   OH229105   0.165   4.300   1.263
 9714TIP3    H129106   0.136   4.215   1.228
 9714TIP3    H229107   0.120   4.364   1.209
 9715TIP3   OH229108   6.539   1.420   0.836
 9715TIP3    H129109   6.577   1.497   0.879
 9715TIP3    H229110   6.613   1.376   0.795
 9716TIP3   OH229111   3.839   0.758   4.371
 9716TIP3    H129112   3.928   0.736   4.399
 9716TIP3    H229113   3.851   0.810   4.292
 9717TIP3   OH229114   6.322   3.171   2.505
 9717TIP3    H129115   6.360   3.246   2.551
 9717TIP3    H229116   6.338   3.189   2.412
 9718TIP3   OH229117   1.567   3.168   0.127
 9718TIP3    H129118   1.574   3.263   0.134
 9718TIP3    H229119   1.496   3.155   0.063
 9719TIP3   OH229120   5.393   3.533   5.675
 9719TIP3    H129121   5.355   3.538   5.763
 9719TIP3    H229122   5.331   3.479   5.626
 9720TIP3   OH229123   5.614   4.428   3.996
 9720TIP3    H129124   5.613   4.522   4.014
 9720TIP3    H229125   5.639   4.421   3.904
 9721TIP3   OH229126   5.018   3.068   3.855
 9721TIP3    H129127   4.941   3.117   3.886
 9721TIP3    H229128   4.982   3.003   3.796
 9722TIP3   OH229129   5.921   5.644   5.412
 9722TIP3    H129130   5.939   5.697   5.335
 9722TIP3    H229131   5.833   5.668   5.438
 9723TIP3   OH229132   0.936   2.128   4.184
 9723TIP3    H129133   0.988   2.062   4.138
 9723TIP3    H229134   0.995   2.163   4.251
 9724TIP3   OH229135   2.210   4.993   0.241
 9724TIP3    H129136   2.220   4.991   0.146
 9724TIP3    H229137   2.122   4.958   0.256
 9725TIP3   OH229138   0.732   2.938   2.801
 9725TIP3    H129139   0.641   2.943   2.774
 9725TIP3    H229140   0.761   2.851   2.772
 9726TIP3   OH229141   3.127   5.854   0.622
 9726TIP3    H129142   3.170   5.938   0.603
 9726TIP3    H229143   3.038   5.865   0.587
 9727TIP3   OH229144   2.123   3.168   3.499
 9727TIP3    H129145   2.110   3.261   3.517
 9727TIP3    H229146   2.203   3.165   3.446
 9728TIP3   OH229147   2.733   0.062   4.601
 9728TIP3    H129148   2.686   0.044   4.683
 9728TIP3    H229149   2.716   0.154   4.583
 9729TIP3   OH229150   0.305   1.583   0.188
 9729TIP3    H129151   0.263   1.515   0.135
 9729TIP3    H229152   0.322   1.654   0.126
 9730TIP3   OH229153   5.713   2.635   3.861
 9730TIP3    H129154   5.667   2.593   3.934
 9730TIP3    H229155   5.657   2.709   3.837
 9731TIP3   OH229156   5.420   0.554   5.399
 9731TIP3    H129157   5.469   0.588   5.474
 9731TIP3    H229158   5.470   0.478   5.370
 9732TIP3   OH229159   3.605   2.921  -0.011
 9732TIP3    H129160   3.684   2.907   0.041
 9732TIP3    H229161   3.543   2.856   0.022
 9733TIP3   OH229162   6.779   4.839   5.419
 9733TIP3    H129163   6.822   4.816   5.501
 9733TIP3    H229164   6.749   4.929   5.432
 9734TIP3   OH229165   6.437   1.803   1.989
 9734TIP3    H129166   6.445   1.796   1.893
 9734TIP3    H229167   6.517   1.848   2.016
 9735TIP3   OH229168   2.477   1.352   3.552
 9735TIP3    H129169   2.396   1.380   3.511
 9735TIP3    H229170   2.449   1.296   3.625
 9736TIP3   OH229171   1.719   3.608   4.448
 9736TIP3    H129172   1.652   3.628   4.514
 9736TIP3    H229173   1.760   3.692   4.428
 9737TIP3   OH229174   6.532   3.914   2.906
 9737TIP3    H129175   6.569   3.889   2.991
 9737TIP3    H229176   6.440   3.887   2.912
 9738TIP3   OH229177   7.155   4.179   0.678
 9738TIP3    H129178   7.193   4.106   0.727
 9738TIP3    H229179   7.128   4.141   0.594
 9739TIP3   OH229180   6.361   5.098   5.222
 9739TIP3    H129181   6.316   5.129   5.143
 9739TIP3    H229182   6.291   5.076   5.283
 9740TIP3   OH229183   1.678   5.914   2.827
 9740TIP3    H129184   1.600   5.859   2.821
 9740TIP3    H229185   1.673   5.953   2.915
 9741TIP3   OH229186   1.809   1.769   1.918
 9741TIP3    H129187   1.777   1.741   2.004
 9741TIP3    H229188   1.904   1.774   1.929
 9742TIP3   OH229189   2.084   1.939   2.229
 9742TIP3    H129190   2.072   2.032   2.206
 9742TIP3    H229191   2.071   1.936   2.324
 9743TIP3   OH229192   0.590   6.407   0.506
 9743TIP3    H129193   0.667   6.361   0.474
 9743TIP3    H229194   0.516   6.362   0.466
 9744TIP3   OH229195   3.200   5.520   3.715
 9744TIP3    H129196   3.225   5.477   3.797
 9744TIP3    H229197   3.117   5.564   3.735
 9745TIP3   OH229198   6.564   2.708   0.313
 9745TIP3    H129199   6.635   2.689   0.252
 9745TIP3    H229200   6.513   2.627   0.317
 9746TIP3   OH229201   1.357   1.157   0.501
 9746TIP3    H129202   1.322   1.245   0.484
 9746TIP3    H229203   1.445   1.172   0.534
 9747TIP3   OH229204   5.153   0.710   1.570
 9747TIP3    H129205   5.080   0.723   1.510
 9747TIP3    H229206   5.220   0.771   1.539
 9748TIP3   OH229207   0.795   2.846   4.795
 9748TIP3    H129208   0.805   2.926   4.743
 9748TIP3    H229209   0.717   2.803   4.759
 9749TIP3   OH229210   4.118   3.082   1.628
 9749TIP3    H129211   4.157   3.131   1.556
 9749TIP3    H229212   4.054   3.141   1.667
   7.21793   6.80513   5.89340   0.00000   0.00000  -2.40598   0.00000  -2.40598  -3.40256
