* GENERATED BY CHARMM-GUI (HTTP://WWW.CHARMM-GUI.ORG) V3.7 ON JUN, 13. 2026. JOB
* READ PDB, MANIPULATE STRUCTURE IF NEEDED, AND GENERATE TOPOLOGY FILE
*  DATE:     6/13/26      7:55:32      CREATED BY USER: charmm-gui
*
       133  EXT
         1         1  GLY       N               3.8380000000        6.8660000000       15.5520000000  PROA      1              96.2000000000
         2         1  GLY       HT1             3.7872297532        7.8672853525       15.8284959764  PROA      1               0.0000000000
         3         1  GLY       HT2             4.7522448760        6.6790756233       15.0928538138  PROA      1               0.0000000000
         4         1  GLY       HT3             3.7466534362        6.2677432785       16.3977803122  PROA      1               0.0000000000
         5         1  GLY       CA              2.7590000000        6.5630000000       14.6250000000  PROA      1              96.7700000000
         6         1  GLY       HA1             2.7766308690        7.3135507724       13.8486851135  PROA      1               0.0000000000
         7         1  GLY       HA2             1.8320781539        6.6137490286       15.1768537305  PROA      1               0.0000000000
         8         1  GLY       C               2.8840000000        5.1910000000       13.9910000000  PROA      1              97.1100000000
         9         1  GLY       O               3.9360000000        4.5540000000       14.0790000000  PROA      1              96.2900000000
        10         2  SER       N               2.0080000000        4.6920000000       13.4970000000  PROA      2              97.9900000000
        11         2  SER       HN              1.1017462318        5.1063753439       13.5086833109  PROA      2               0.0000000000
        12         2  SER       CA              2.1000000000        3.4130000000       12.8010000000  PROA      2              98.0300000000
        13         2  SER       HA              2.7324710914        2.7594413636       13.3832438261  PROA      2               0.0000000000
        14         2  SER       CB              0.7120000000        2.7950000000       12.6290000000  PROA      2              97.6300000000
        15         2  SER       HB1             0.7970426997        1.8354668912       12.0755622361  PROA      2               0.0000000000
        16         2  SER       HB2             0.0607867015        3.4931463953       12.0608959102  PROA      2               0.0000000000
        17         2  SER       OG              0.1150000000        2.5410000000       13.8900000000  PROA      2              91.8800000000
        18         2  SER       HG1            -0.6685511778        2.0160572885       13.7108835533  PROA      2               0.0000000000
        19         2  SER       C               2.7660000000        3.5720000000       11.4380000000  PROA      2              98.2600000000
        20         2  SER       O               2.7250000000        4.6510000000       10.8430000000  PROA      2              98.0700000000
        21         3  GLY       N               3.5090000000        2.6010000000       11.1100000000  PROA      3              98.0300000000
        22         3  GLY       HN              3.7168733819        1.8432541849       11.7236911366  PROA      3               0.0000000000
        23         3  GLY       CA              4.1020000000        2.5600000000        9.7830000000  PROA      3              97.9100000000
        24         3  GLY       HA1             4.6220072014        1.6188251029        9.6826242671  PROA      3               0.0000000000
        25         3  GLY       HA2             4.7996481972        3.3809076966        9.7075645265  PROA      3               0.0000000000
        26         3  GLY       C               3.0780000000        2.6790000000        8.6690000000  PROA      3              98.1100000000
        27         3  GLY       O               1.8740000000        2.5820000000        8.9130000000  PROA      3              97.8600000000
        28         4  ASP       N               3.6740000000        2.9210000000        7.5540000000  PROA      4              98.0100000000
        29         4  ASP       HN              4.6474227799        3.0959752631        7.4385427601  PROA      4               0.0000000000
        30         4  ASP       CA              2.7910000000        2.9260000000        6.3910000000  PROA      4              98.0100000000
        31         4  ASP       HA              1.9610270637        3.5834736426        6.6032274320  PROA      4               0.0000000000
        32         4  ASP       CB              3.5440000000        3.4040000000        5.1480000000  PROA      4              97.7200000000
        33         4  ASP       HB1             2.9130669557        3.2201116844        4.2525765969  PROA      4               0.0000000000
        34         4  ASP       HB2             4.4875409364        2.8254795692        5.0546238668  PROA      4               0.0000000000
        35         4  ASP       CG              3.8900000000        4.8820000000        5.1960000000  PROA      4              95.4700000000
        36         4  ASP       OD1             3.2470000000        5.6340000000        5.9590000000  PROA      4              94.4400000000
        37         4  ASP       OD2             4.8130000000        5.2980000000        4.4620000000  PROA      4              93.9500000000
        38         4  ASP       C               2.1990000000        1.5400000000        6.1460000000  PROA      4              98.2700000000
        39         4  ASP       O               2.8580000000        0.5260000000        6.3860000000  PROA      4              98.1300000000
        40         5  PRO       N               1.1460000000        1.4190000000        5.6850000000  PROA      5              98.2800000000
        41         5  PRO       CD              0.4040000000        2.4870000000        5.4030000000  PROA      5              96.7500000000
        42         5  PRO       HD1             0.8890613521        3.0760937715        4.5961919671  PROA      5               0.0000000000
        43         5  PRO       HD2             0.2901630834        3.1133099218        6.3129627613  PROA      5               0.0000000000
        44         5  PRO       CA              0.6130000000        0.1220000000        5.2640000000  PROA      5              98.2400000000
        45         5  PRO       HA              0.5980825857       -0.5657263750        6.0942624433  PROA      5               0.0000000000
        46         5  PRO       CB             -0.7660000000        0.4740000000        4.7000000000  PROA      5              98.1400000000
        47         5  PRO       HB1            -1.5624827750       -0.1014212766        5.2182481202  PROA      5               0.0000000000
        48         5  PRO       HB2            -0.8147092442        0.2545618829        3.6120892073  PROA      5               0.0000000000
        49         5  PRO       CG             -0.9200000000        1.9390000000        4.9530000000  PROA      5              97.3000000000
        50         5  PRO       HG1            -1.2437908816        2.4510535732        4.0217347016  PROA      5               0.0000000000
        51         5  PRO       HG2            -1.6857518171        2.1078527048        5.7400243780  PROA      5               0.0000000000
        52         5  PRO       C               1.4780000000       -0.5560000000        4.2040000000  PROA      5              98.4300000000
        53         5  PRO       O               2.2290000000        0.1160000000        3.4930000000  PROA      5              98.3600000000
        54         6  GLY       N               1.3410000000       -1.8760000000        4.3090000000  PROA      6              98.2000000000
        55         6  GLY       HN              0.8041728356       -2.3664891387        4.9879785531  PROA      6               0.0000000000
        56         6  GLY       CA              2.0850000000       -2.5960000000        3.2880000000  PROA      6              98.1300000000
        57         6  GLY       HA1             1.9437271967       -3.6527091053        3.4603251953  PROA      6               0.0000000000
        58         6  GLY       HA2             3.1279479588       -2.3372079853        3.3955841969  PROA      6               0.0000000000
        59         6  GLY       C               1.6380000000       -2.2630000000        1.8780000000  PROA      6              98.3900000000
        60         6  GLY       O               0.5760000000       -1.6680000000        1.6820000000  PROA      6              98.3000000000
        61         7  ASN       N               2.5190000000       -2.8690000000        0.9870000000  PROA      7              98.1100000000
        62         7  ASN       HN              3.3799550322       -3.3122915040        1.2165628588  PROA      7               0.0000000000
        63         7  ASN       CA              2.0660000000       -2.8070000000       -0.3990000000  PROA      7              98.0400000000
        64         7  ASN       HA              1.7094914420       -1.8057745721       -0.5903470773  PROA      7               0.0000000000
        65         7  ASN       CB              3.2090000000       -3.1560000000       -1.3540000000  PROA      7              97.5000000000
        66         7  ASN       HB1             2.7854448804       -3.3899290900       -2.3538206642  PROA      7               0.0000000000
        67         7  ASN       HB2             3.7435641412       -4.0490928615       -0.9661992282  PROA      7               0.0000000000
        68         7  ASN       CG              4.2080000000       -2.0260000000       -1.5070000000  PROA      7              92.7200000000
        69         7  ASN       OD1             3.9980000000       -0.9220000000       -0.9980000000  PROA      7              91.1900000000
        70         7  ASN       ND2             5.3030000000       -2.2940000000       -2.2090000000  PROA      7              91.4700000000
        71         7  ASN       HD21            5.9968795190       -1.5864264109       -2.3426818203  PROA      7               0.0000000000
        72         7  ASN       HD22            5.4336525440       -3.2033768703       -2.6039222969  PROA      7               0.0000000000
        73         7  ASN       C               0.8740000000       -3.7290000000       -0.6400000000  PROA      7              98.3500000000
        74         7  ASN       O               0.6790000000       -4.7020000000        0.0900000000  PROA      7              98.2200000000
        75         8  GLY       N               0.0700000000       -3.3900000000       -1.6290000000  PROA      8              97.6100000000
        76         8  GLY       HN              0.1692329851       -2.5529991762       -2.1613730089  PROA      8               0.0000000000
        77         8  GLY       CA             -1.0270000000       -4.2830000000       -1.9690000000  PROA      8              97.5300000000
        78         8  GLY       HA1            -1.6341367177       -3.7912606767       -2.7145671549  PROA      8               0.0000000000
        79         8  GLY       HA2            -1.6039596142       -4.4536529441       -1.0721788837  PROA      8               0.0000000000
        80         8  GLY       C              -0.5600000000       -5.6180000000       -2.5160000000  PROA      8              98.0400000000
        81         8  GLY       O               0.6220000000       -5.7930000000       -2.8180000000  PROA      8              97.9400000000
        82         9  ASP       N              -1.4220000000       -6.5000000000       -2.6960000000  PROA      9              97.5600000000
        83         9  ASP       HN             -2.3668799838       -6.3440220027       -2.4225080935  PROA      9               0.0000000000
        84         9  ASP       CA             -1.1770000000       -7.8070000000       -3.2980000000  PROA      9              97.6800000000
        85         9  ASP       HA             -0.3350427855       -8.2561935207       -2.7925301446  PROA      9               0.0000000000
        86         9  ASP       CB             -2.4130000000       -8.6980000000       -3.1670000000  PROA      9              97.2700000000
        87         9  ASP       HB1            -2.2857929975       -9.5872501430       -3.8202348714  PROA      9               0.0000000000
        88         9  ASP       HB2            -3.3052209173       -8.1258768615       -3.4990846047  PROA      9               0.0000000000
        89         9  ASP       CG             -2.6520000000       -9.1770000000       -1.7460000000  PROA      9              95.0300000000
        90         9  ASP       OD1            -1.7060000000       -9.1590000000       -0.9290000000  PROA      9              94.6300000000
        91         9  ASP       OD2            -3.7960000000       -9.5780000000       -1.4410000000  PROA      9              93.7800000000
        92         9  ASP       C              -0.7810000000       -7.6700000000       -4.7660000000  PROA      9              98.1800000000
        93         9  ASP       O              -1.2010000000       -6.7280000000       -5.4430000000  PROA      9              98.1400000000
        94        10  PRO       N              -0.1090000000       -8.5560000000       -5.2430000000  PROA      10             98.1300000000
        95        10  PRO       CD              0.5020000000       -9.5610000000       -4.5390000000  PROA      10             95.9300000000
        96        10  PRO       HD1            -0.2385541773      -10.3463767484       -4.2791923437  PROA      10              0.0000000000
        97        10  PRO       HD2             0.9606551224       -9.1516500999       -3.6144431965  PROA      10              0.0000000000
        98        10  PRO       CA              0.1860000000       -8.5060000000       -6.6770000000  PROA      10             98.1600000000
        99        10  PRO       HA              0.5538830141       -7.5302900306       -6.9511496627  PROA      10              0.0000000000
       100        10  PRO       CB              1.1890000000       -9.6450000000       -6.8710000000  PROA      10             97.9400000000
       101        10  PRO       HB1             2.0892478200       -9.2890203690       -7.4158918222  PROA      10              0.0000000000
       102        10  PRO       HB2             0.7309755394      -10.4806813031       -7.4418984903  PROA      10              0.0000000000
       103        10  PRO       CG              1.5450000000      -10.0810000000       -5.4860000000  PROA      10             96.2100000000
       104        10  PRO       HG1             1.5802075246      -11.1903367929       -5.4367495416  PROA      10              0.0000000000
       105        10  PRO       HG2             2.5421558804       -9.6777580437       -5.2078464947  PROA      10              0.0000000000
       106        10  PRO       C              -1.0540000000       -8.7180000000       -7.5420000000  PROA      10             98.4700000000
       107        10  PRO       O              -2.0340000000       -9.3150000000       -7.0880000000  PROA      10             98.4500000000
       108        11  GLY       N              -1.1460000000       -8.1590000000       -8.8190000000  PROA      11             97.6800000000
       109        11  GLY       HN             -0.4264238165       -7.5544737411       -9.1470697985  PROA      11              0.0000000000
       110        11  GLY       CA             -2.2210000000       -8.3640000000       -9.7760000000  PROA      11             97.6900000000
       111        11  GLY       HA1            -1.9715885129       -7.8188596763      -10.6742791069  PROA      11              0.0000000000
       112        11  GLY       HA2            -3.1286016241       -7.9714073734       -9.3419265757  PROA      11              0.0000000000
       113        11  GLY       C              -2.4350000000       -9.8240000000      -10.1290000000  PROA      11             98.1800000000
       114        11  GLY       O              -1.5530000000      -10.6560000000       -9.9110000000  PROA      11             98.1700000000
       115        12  SER       N              -3.4350000000      -10.2250000000      -10.5530000000  PROA      12             98.1300000000
       116        12  SER       HN             -4.2128002227       -9.6079915448      -10.6048377090  PROA      12              0.0000000000
       117        12  SER       CA             -3.7440000000      -11.5620000000      -11.0470000000  PROA      12             98.0400000000
       118        12  SER       HA             -3.4126871328      -12.2769227960      -10.3085665864  PROA      12              0.0000000000
       119        12  SER       CB             -5.2470000000      -11.7090000000      -11.2930000000  PROA      12             97.4600000000
       120        12  SER       HB1            -5.4774321666      -12.7577240601      -11.5781487820  PROA      12              0.0000000000
       121        12  SER       HB2            -5.5594952696      -11.0259891870      -12.1115804184  PROA      12              0.0000000000
       122        12  SER       OG             -5.9810000000      -11.3840000000      -10.1250000000  PROA      12             87.9800000000
       123        12  SER       HG1            -5.6877353289      -11.9988239923       -9.4485480127  PROA      12              0.0000000000
       124        12  SER       C              -2.9790000000      -11.8690000000      -12.3300000000  PROA      12             98.3200000000
       125        12  SER       O              -2.7250000000      -10.9720000000      -13.1370000000  PROA      12             98.1700000000
       126        13  GLY       N              -2.1870000000      -12.9310000000      -12.5770000000  PROA      13             97.0000000000
       127        13  GLY       HN             -2.0976945236      -13.5939653602      -11.8465578101  PROA      13              0.0000000000
       128        13  GLY       CA             -1.3990000000      -13.3370000000      -13.7310000000  PROA      13             96.4500000000
       129        13  GLY       HA1            -0.9582826133      -14.2974432956      -13.5082762862  PROA      13              0.0000000000
       130        13  GLY       HA2            -0.6258110017      -12.5977479761      -13.8792370052  PROA      13              0.0000000000
       131        13  GLY       C              -2.2190000000      -13.4540000000      -15.0020000000  PROA      13             96.6500000000
       132        13  GLY       OT1            -3.4511361312      -13.1987199447      -14.9366345079  PROA      13              0.0000000000
       133        13  GLY       OT2            -1.6263267852      -13.8005204958      -16.0585330125  PROA      13              0.0000000000
