Title
29212
    1ASP      N    1   3.814   4.729   1.868 -0.3042 -0.4695 -0.1453
    1ASP    HT1    2   3.877   4.751   1.789 -0.1087  0.9655  0.3824
    1ASP    HT2    3   3.731   4.790   1.854  0.9834  1.8778  1.6829
    1ASP    HT3    4   3.780   4.632   1.847 -1.8916  0.0389 -0.1091
    1ASP     CA    5   3.884   4.751   1.996  0.5013 -0.2978  0.7532
    1ASP     HA    6   3.946   4.839   1.989 -0.0106  0.2000  2.0607
    1ASP     CB    7   3.773   4.766   2.105  1.0061  0.7840 -0.2771
    1ASP    HB1    8   3.826   4.785   2.201  0.1308  0.9005  0.1869
    1ASP    HB2    9   3.707   4.676   2.103  0.8199  0.9221 -1.4134
    1ASP     CG   10   3.687   4.887   2.095  0.3877  0.2266 -0.4842
    1ASP    OD1   11   3.586   4.896   2.167 -0.2661 -0.3021  0.5802
    1ASP    OD2   12   3.738   4.981   2.032  0.9728  0.9642 -0.1257
    1ASP      C   13   3.975   4.638   2.029 -0.1485  0.5046 -0.8783
    1ASP      O   14   4.045   4.585   1.947  0.3210 -0.3104 -0.3340
    2GLY      N   15   3.978   4.589   2.155  0.0523 -0.1197 -0.4399
    2GLY     HN   16   3.942   4.649   2.225  0.5023  0.1808 -0.4562
    2GLY     CA   17   4.027   4.462   2.190 -0.9568  0.9049 -0.6312
    2GLY    HA1   18   4.014   4.444   2.296  1.8195 -0.8153 -0.4996
    2GLY    HA2   19   4.117   4.464   2.131  0.5309 -1.6558  1.3384
    2GLY      C   20   3.957   4.338   2.127  0.1753  0.0923 -0.4357
    2GLY      O   21   3.850   4.358   2.066  0.0400  0.3640  0.0391
    3ASP      N   22   4.019   4.218   2.133 -0.2290  0.1661 -0.3863
    3ASP     HN   23   4.107   4.211   2.179 -0.7613 -1.2306  0.4621
    3ASP     CA   24   3.974   4.086   2.087  0.1334 -0.0400 -0.8640
    3ASP     HA   25   3.948   4.109   1.985  0.5469  1.4054 -0.6626
    3ASP     CB   26   4.086   3.980   2.094 -0.0871 -0.6455  0.0827
    3ASP    HB1   27   4.053   3.885   2.048  0.3473  0.2956 -2.3088
    3ASP    HB2   28   4.112   3.969   2.201 -0.2094 -0.1814  0.1632
    3ASP     CG   29   4.212   4.017   2.019 -0.1119  0.6008  0.5067
    3ASP    OD1   30   4.323   4.001   2.070  0.4369  0.6545  0.1224
    3ASP    OD2   31   4.192   4.077   1.909 -0.0093 -0.0959 -0.1137
    3ASP      C   32   3.835   4.041   2.152 -0.6542  0.0908  0.2195
    3ASP      O   33   3.805   4.053   2.270  0.6807 -0.1757  0.1380
    4GLY      N   34   3.763   3.974   2.063 -0.6173 -0.5840 -0.0288
    4GLY     HN   35   3.796   3.963   1.969 -2.1087  1.8019 -0.9199
    4GLY     CA   36   3.637   3.906   2.094 -0.7539  0.6817 -0.0835
    4GLY    HA1   37   3.603   3.868   1.998  0.0737  0.8324 -0.4445
    4GLY    HA2   38   3.573   3.980   2.139 -0.5001  0.6889  0.2704
    4GLY      C   39   3.646   3.783   2.186 -0.0451  0.2505  0.1422
    4GLY      O   40   3.749   3.736   2.225  0.3927  0.5898  0.2233
    5PRO      N   41   3.533   3.725   2.225  0.2678  0.4025 -0.4820
    5PRO     CD   42   3.400   3.785   2.212 -0.6056 -0.3585  0.2817
    5PRO    HD1   43   3.370   3.782   2.106  1.2368 -1.4832 -0.2659
    5PRO    HD2   44   3.390   3.891   2.243 -0.3770 -0.1065 -0.5074
    5PRO     CA   45   3.530   3.585   2.264 -0.3800 -0.9465 -0.0946
    5PRO     HA   46   3.576   3.583   2.361  0.5568 -0.0823 -0.5035
    5PRO     CB   47   3.380   3.555   2.259  0.7790  0.1889 -0.8126
    5PRO    HB1   48   3.344   3.471   2.321 -0.7221  1.7369  0.5096
    5PRO    HB2   49   3.359   3.535   2.152 -2.1334  0.4343 -0.3513
    5PRO     CG   50   3.307   3.687   2.284 -0.4053 -0.1415 -0.4336
    5PRO    HG1   51   3.203   3.688   2.243 -1.4152 -0.2317  1.9478
    5PRO    HG2   52   3.290   3.713   2.390 -2.6413  0.8711 -0.9749
    5PRO      C   53   3.604   3.468   2.192 -0.6966 -0.5379 -0.4025
    5PRO      O   54   3.658   3.482   2.083 -0.2013 -0.7843  0.7595
    6GLY      N   55   3.625   3.354   2.266  0.3174  0.1496  0.1423
    6GLY     HN   56   3.582   3.355   2.356 -0.4293 -2.6264 -0.0875
    6GLY     CA   57   3.691   3.225   2.222 -0.3430 -0.0994  0.8808
    6GLY    HA1   58   3.676   3.155   2.303  0.6149 -1.6470 -0.2340
    6GLY    HA2   59   3.793   3.249   2.199 -0.4891  1.8795  2.0554
    6GLY      C   60   3.628   3.164   2.099  0.1541 -0.1501 -0.2930
    6GLY      O   61   3.513   3.193   2.070  0.1507 -0.6263 -0.1322
    7ASP      N   62   3.696   3.071   2.037 -0.2671  0.1768  0.1923
    7ASP     HN   63   3.786   3.048   2.073 -1.0410 -0.3317  1.8961
    7ASP     CA   64   3.645   3.011   1.915 -0.3596 -0.0603  0.3522
    7ASP     HA   65   3.604   3.090   1.852  0.4995 -0.4296 -0.7045
    7ASP     CB   66   3.769   2.963   1.838 -0.3505 -1.3571 -0.3095
    7ASP    HB1   67   3.743   2.884   1.764 -0.0233 -1.9522  0.2003
    7ASP    HB2   68   3.831   2.918   1.919 -0.5660 -0.7276  0.2145
    7ASP     CG   69   3.855   3.071   1.769 -0.3574  0.8356 -0.2259
    7ASP    OD1   70   3.940   3.027   1.687  0.5769  0.1750 -0.3504
    7ASP    OD2   71   3.859   3.191   1.803 -0.0449 -0.5708 -0.2599
    7ASP      C   72   3.535   2.902   1.928 -0.3448  0.7469  0.0516
    7ASP      O   73   3.554   2.819   2.020  0.2481  0.2658  0.5376
    8PRO      N   74   3.429   2.901   1.850  0.3563  0.0177  0.4300
    8PRO     CD   75   3.415   2.990   1.732  0.7061  0.0991  0.4501
    8PRO    HD1   76   3.505   2.991   1.666 -0.3044 -2.1617 -1.1086
    8PRO    HD2   77   3.400   3.091   1.774 -0.2831  0.5009 -0.8155
    8PRO     CA   78   3.298   2.836   1.881 -0.3914  1.5599  0.0118
    8PRO     HA   79   3.267   2.855   1.982 -0.6779  1.7871 -0.1149
    8PRO     CB   80   3.194   2.896   1.779  0.3117  0.2041 -0.0731
    8PRO    HB1   81   3.137   2.980   1.824  1.1055 -0.1103  1.5805
    8PRO    HB2   82   3.112   2.828   1.745  0.3811  0.3688 -0.5679
    8PRO     CG   83   3.285   2.943   1.662 -0.5629 -0.2238 -0.9695
    8PRO    HG1   84   3.306   2.861   1.590 -1.2648 -1.4619  0.1826
    8PRO    HG2   85   3.236   3.025   1.604 -1.0203  1.2787  1.4257
    8PRO      C   86   3.314   2.692   1.865 -0.3996 -0.5110  0.6034
    8PRO      O   87   3.361   2.652   1.761  0.2137  0.1711  0.3016
    9GLY      N   88   3.269   2.608   1.960  0.1856 -0.1339 -0.2538
    9GLY     HN   89   3.237   2.647   2.046 -0.9436 -0.8438 -0.3332
    9GLY     CA   90   3.256   2.465   1.959 -0.0738  0.5946  0.3447
    9GLY    HA1   91   3.201   2.447   2.051 -1.2179  1.5793 -0.1179
    9GLY    HA2   92   3.353   2.418   1.949  0.6129  2.3062 -1.7781
    9GLY      C   93   3.174   2.408   1.847  0.3334  0.4027  0.9805
    9GLY      O   94   3.091   2.471   1.787  0.8790 -0.1004  0.6265
   10ASP      N   95   3.193   2.277   1.811  0.0866 -0.5236  0.0323
   10ASP     HN   96   3.265   2.231   1.862  0.4094  1.0715  1.0830
   10ASP     CA   97   3.105   2.199   1.724 -0.5853 -0.0175  1.2854
   10ASP     HA   98   3.038   2.252   1.658  0.4033 -1.9001 -1.4279
   10ASP     CB   99   3.201   2.108   1.632 -0.5640 -0.6225 -0.4939
   10ASP    HB1  100   3.154   2.016   1.590  1.2416 -2.2293  0.7842
   10ASP    HB2  101   3.280   2.071   1.702  0.4295 -1.4662 -1.9878
   10ASP     CG  102   3.258   2.172   1.505 -0.4529  0.3153 -0.2246
   10ASP    OD1  103   3.306   2.100   1.416  0.1281  0.3100  0.1785
   10ASP    OD2  104   3.249   2.297   1.501  0.4186  0.0415 -0.3159
   10ASP      C  105   3.024   2.101   1.801 -0.0262  0.4521 -0.1226
   10ASP      O  106   3.078   2.013   1.865 -0.2578  0.2536  0.3139
   11GLY      N  107   2.892   2.106   1.786 -0.0314  0.4741 -0.2789
   11GLY     HN  108   2.857   2.171   1.718  0.9107 -1.2557 -2.5532
   11GLY     CA  109   2.805   1.987   1.821 -0.7088  0.0595 -0.3665
   11GLY    HA1  110   2.845   1.945   1.912  1.2616  0.7297 -0.8598
   11GLY    HA2  111   2.810   1.922   1.735 -1.7302  2.9222 -2.7731
   11GLY      C  112   2.660   2.019   1.859 -0.9397  0.3817 -0.0871
   11GLY    OT1  113   2.631   2.130   1.900  0.4225 -0.0684  0.1700
   11GLY    OT2  114   2.577   1.923   1.842  0.0686 -0.2425 -0.0193
   12SOD    SOD  115   0.181   1.333   5.674 -0.1110 -0.1664  0.2948
   13SOD    SOD  116   0.722   4.385   4.296  0.4817 -0.1056 -0.1076
   14SOD    SOD  117   5.972   6.510   4.279 -0.1282  0.1536  0.0544
   15SOD    SOD  118   5.532   1.242   4.488 -0.0188 -0.1820  0.3010
   16SOD    SOD  119   2.319   4.583   5.352  0.3026  0.2068 -0.4816
   17SOD    SOD  120   1.845   5.012   3.044  0.1639  0.6555 -0.1734
   18SOD    SOD  121   5.782   3.469   0.696 -0.0175  0.2032 -0.0217
   19SOD    SOD  122   6.704   2.453   0.154  0.2000  0.1581  0.3785
   20SOD    SOD  123   4.029   4.891   2.620  0.4781 -0.2814  0.4391
   21SOD    SOD  124   2.531   4.544   4.703 -0.0226 -0.5652  0.2443
   22SOD    SOD  125   5.935   0.622   3.370 -0.2693 -0.4790  0.0456
   23SOD    SOD  126   2.881   4.636   0.818  0.3252 -0.0869  0.1832
   24SOD    SOD  127   4.237   1.058   2.184  0.4369 -0.4277 -0.3778
   25SOD    SOD  128   3.360   6.444   2.322  0.0239 -0.7287 -0.0169
   26SOD    SOD  129   6.576   1.960   0.963  0.2991 -0.1031 -0.7180
   27SOD    SOD  130   5.966   3.626   1.946 -0.1052  0.2238  0.2761
   28SOD    SOD  131   4.871   4.275   3.381  0.0311 -0.0874  0.1439
   29SOD    SOD  132   4.288   1.129   3.921 -0.1116 -0.0161  0.3847
   30SOD    SOD  133   4.959   3.016   0.502 -0.3570  0.0137  0.0355
   31SOD    SOD  134   2.859   5.246   5.660 -0.0336 -0.3767 -0.5880
   32SOD    SOD  135   6.066   0.694   0.974  0.3146  0.1506 -0.3316
   33SOD    SOD  136   0.668   2.799   2.782 -0.2184 -0.2592  0.2066
   34SOD    SOD  137   2.232   2.465   4.838  0.0177  0.0014  0.2738
   35SOD    SOD  138   3.064   3.188   2.118  0.0576  0.1487 -0.3974
   36SOD    SOD  139   0.635   5.940   1.434  0.0248 -0.0515 -0.2100
   37SOD    SOD  140   5.120   4.033   1.071 -0.0729 -0.2646  0.3035
   38SOD    SOD  141   3.474   2.293   0.007  0.1967  0.1037 -0.3413
   39SOD    SOD  142   6.963   4.231   1.733  0.0174  0.4314  0.0869
   40SOD    SOD  143   5.890   3.478   5.297 -0.1764 -0.0901 -0.2808
   41SOD    SOD  144   3.624   5.471   2.205 -0.9190 -0.4437 -0.1001
   42SOD    SOD  145   2.308   2.331   2.576 -0.2389  0.9171  0.0246
   43CLA    CLA  146   0.842   5.871   1.920 -0.3819 -0.2898 -0.0842
   44CLA    CLA  147   1.573   1.570   3.683 -0.3026 -0.0570 -0.3437
   45CLA    CLA  148   5.011   6.327   0.069 -0.0068  0.1209 -0.1822
   46CLA    CLA  149   2.564   5.002   3.115 -0.0381 -0.5083  0.0409
   47CLA    CLA  150   2.847   5.613   0.692  0.0590 -0.4153 -0.0676
   48CLA    CLA  151   4.007   4.806   1.633  0.0595 -0.3678  0.0348
   49CLA    CLA  152   4.672   2.307   3.678  0.1786 -0.1660  0.0659
   50CLA    CLA  153   7.189   6.498   5.222  0.4809 -0.2077 -0.1487
   51CLA    CLA  154   5.517   2.852   0.088  0.5735 -0.2583  0.0644
   52CLA    CLA  155   3.023   4.896   5.346 -0.1500 -0.0304 -0.1007
   53CLA    CLA  156   4.618   6.768   4.030  0.0506  0.0895  0.1273
   54CLA    CLA  157   1.411   2.922   5.822  0.4380  0.0305  0.0294
   55CLA    CLA  158   1.173   0.234   2.928 -0.3728  0.1675 -0.5221
   56CLA    CLA  159   4.860   5.707   2.743 -0.0943  0.0235  0.0437
   57CLA    CLA  160   3.450   0.197   0.042 -0.3982  0.4704 -0.0544
   58CLA    CLA  161   4.843   5.448   4.746  0.0360 -0.1229  0.7178
   59CLA    CLA  162   6.113   3.691   4.603 -0.1098  0.1422  0.3104
   60CLA    CLA  163   2.484   0.053   3.455 -0.1234  0.0471 -0.0460
   61CLA    CLA  164   2.527   5.730   1.357  0.0891 -0.5129  0.0787
   62CLA    CLA  165   0.594   5.774   3.987 -0.5240  0.2864 -0.1046
   63CLA    CLA  166   6.335   2.628   2.903  0.0494 -0.3576 -0.4925
   64CLA    CLA  167   5.319   2.525   1.849 -0.2996 -0.1219  0.0805
   65CLA    CLA  168   0.868   2.755   2.979 -0.1374 -0.1211 -0.2703
   66CLA    CLA  169   4.384   1.831   3.331  0.4351 -0.1751  0.0130
   67CLA    CLA  170   1.426   0.438   0.131 -0.2287  0.1461 -0.1157
   68CLA    CLA  171   6.675   6.743   3.802  0.2319 -0.1930  0.1797
   69CLA    CLA  172   5.037   3.037   0.922 -0.2187  0.1748  0.0485
   70TIP3   OH2  173   5.213   6.356   1.992 -0.4863 -0.0031  0.4452
   70TIP3    H1  174   5.243   6.267   2.008 -0.9290 -0.3468 -0.5127
   70TIP3    H2  175   5.211   6.364   1.896 -0.9778  0.8498  0.5091
   71TIP3   OH2  176   6.926   1.543   1.413 -0.3314  0.6187  0.0308
   71TIP3    H1  177   7.021   1.550   1.417 -0.0534 -0.8256 -2.0661
   71TIP3    H2  178   6.894   1.625   1.451  1.7191  1.1542  0.7508
   72TIP3   OH2  179   3.911   6.649   0.094 -0.5071  0.1707  0.0719
   72TIP3    H1  180   3.874   6.677   0.010 -0.1094  0.1619 -0.1071
   72TIP3    H2  181   3.952   6.565   0.076  1.3105  1.0622 -0.2043
   73TIP3   OH2  182   2.462   4.027   2.845  0.0366  0.1759 -0.1218
   73TIP3    H1  183   2.469   4.085   2.920  0.9309 -0.6661  0.4692
   73TIP3    H2  184   2.381   3.978   2.861  0.2383 -0.0206  0.3143
   74TIP3   OH2  185   2.118   6.228   0.861  0.3495 -0.1094  0.0430
   74TIP3    H1  186   2.171   6.300   0.894 -0.3111  0.6365 -0.4806
   74TIP3    H2  187   2.172   6.187   0.793  1.3424 -1.0903  1.3808
   75TIP3   OH2  188   4.708   0.712   1.845  0.1409  0.2601  0.2112
   75TIP3    H1  189   4.665   0.686   1.927  1.5613  0.6570  1.1112
   75TIP3    H2  190   4.765   0.784   1.870 -0.0091  0.9355 -1.3028
   76TIP3   OH2  191   6.863   2.200   1.799 -0.4028 -0.2728  0.3348
   76TIP3    H1  192   6.940   2.144   1.800 -0.3516 -0.1968  0.5257
   76TIP3    H2  193   6.843   2.216   1.891 -0.1560  0.3793  0.2794
   77TIP3   OH2  194   1.974   1.763   4.083  1.0505  0.2002  0.0889
   77TIP3    H1  195   2.016   1.849   4.082  0.1460  0.6406 -0.5803
   77TIP3    H2  196   1.916   1.763   4.007  0.5816 -0.7736  0.4321
   78TIP3   OH2  197   1.544   6.117   4.201  1.1065  0.2764 -0.0343
   78TIP3    H1  198   1.602   6.155   4.268  0.8043 -0.6160  0.7613
   78TIP3    H2  199   1.467   6.174   4.203  0.7304 -0.2316  1.0237
   79TIP3   OH2  200   2.944   6.379   3.786 -0.3529 -0.0801  0.5189
   79TIP3    H1  201   2.998   6.305   3.756  0.3949 -0.2669  2.1782
   79TIP3    H2  202   2.869   6.379   3.728  0.4606 -1.1001 -0.5883
   80TIP3   OH2  203   6.575   0.900   3.495 -0.4335  0.1330  0.3375
   80TIP3    H1  204   6.659   0.914   3.540  0.0772 -0.3871 -0.4237
   80TIP3    H2  205   6.523   0.978   3.516  0.3523  0.6111  0.5570
   81TIP3   OH2  206   3.742   6.545   1.447 -0.5852 -0.2121  0.3353
   81TIP3    H1  207   3.758   6.457   1.413 -3.5028 -0.8492  0.3875
   81TIP3    H2  208   3.820   6.565   1.500  0.0606 -2.8080  0.4822
   82TIP3   OH2  209   6.722   4.921   0.630 -0.0085 -0.3245 -0.1709
   82TIP3    H1  210   6.633   4.911   0.665  0.1720 -1.5949 -0.0337
   82TIP3    H2  211   6.714   4.897   0.538 -0.0420  0.8508 -0.4977
   83TIP3   OH2  212   0.699   2.598   3.940  0.3110 -0.7564  0.5562
   83TIP3    H1  213   0.687   2.555   3.855 -2.0121  1.4202 -0.3300
   83TIP3    H2  214   0.775   2.655   3.927 -2.7843  3.3461 -1.9599
   84TIP3   OH2  215   5.940   6.786   0.157  0.1038 -0.0201 -0.9045
   84TIP3    H1  216   5.902   6.717   0.211 -0.3278  0.0479 -1.1154
   84TIP3    H2  217   6.021   6.810   0.201  0.6714 -1.2275 -1.2559
   85TIP3   OH2  218   0.740   1.175   4.483  0.2632  0.6572  0.4612
   85TIP3    H1  219   0.671   1.125   4.527  0.8708 -0.9540 -0.2968
   85TIP3    H2  220   0.706   1.190   4.395  0.7989 -0.0306  0.1260
   86TIP3   OH2  221   6.840   6.137   3.280 -0.1614  0.1102  0.0859
   86TIP3    H1  222   6.865   6.138   3.372 -1.1089  0.4042  0.3564
   86TIP3    H2  223   6.778   6.210   3.271  0.6249  0.6756 -0.9941
   87TIP3   OH2  224   3.684   2.446   4.174 -0.0750  0.1185 -0.0110
   87TIP3    H1  225   3.617   2.512   4.191 -1.4920 -1.1140 -0.5595
   87TIP3    H2  226   3.697   2.448   4.080  0.4436  0.1467  0.0583
   88TIP3   OH2  227   0.228   6.206   5.156  0.1124  0.8745 -0.2938
   88TIP3    H1  228   0.192   6.261   5.225 -2.1983 -1.5808  0.6426
   88TIP3    H2  229   0.150   6.170   5.112  1.4670 -1.6918 -0.7576
   89TIP3   OH2  230   3.346   3.092   0.751  0.1835 -0.1528 -0.0544
   89TIP3    H1  231   3.353   3.147   0.829 -0.5578 -0.1345  0.0072
   89TIP3    H2  232   3.406   3.019   0.768  1.5848  0.8717 -0.3623
   90TIP3   OH2  233   1.766   1.963   2.055  0.0807 -0.2079  0.1807
   90TIP3    H1  234   1.686   1.988   2.101  0.9842  1.5842  0.8615
   90TIP3    H2  235   1.791   1.879   2.093  0.7151  1.1294  2.9123
   91TIP3   OH2  236   3.817   5.009   2.984  0.6994 -0.2468 -0.2865
   91TIP3    H1  237   3.797   4.918   3.006  2.2709 -0.3019  1.1539
   91TIP3    H2  238   3.745   5.036   2.927 -0.8245 -1.7887  0.7937
   92TIP3   OH2  239   6.404   0.298   0.136  0.0555  0.1479  0.0981
   92TIP3    H1  240   6.321   0.338   0.160 -0.6240 -0.2493 -1.4436
   92TIP3    H2  241   6.389   0.261   0.049  1.2926 -1.5790  0.5493
   93TIP3   OH2  242   3.605   2.096   2.797  0.0458  0.4512 -0.1351
   93TIP3    H1  243   3.676   2.115   2.736 -0.1272 -0.5802 -0.6732
   93TIP3    H2  244   3.562   2.181   2.811 -0.2992  0.6270 -1.9439
   94TIP3   OH2  245   6.969   5.832   3.634 -0.6148 -0.2277 -0.2393
   94TIP3    H1  246   6.964   5.846   3.728 -2.3481  0.1993 -0.3616
   94TIP3    H2  247   6.880   5.844   3.603 -0.5054 -2.5226 -1.6580
   95TIP3   OH2  248   1.819   1.643   4.412  0.2372 -0.1876 -0.3897
   95TIP3    H1  249   1.851   1.629   4.501 -0.3437 -2.3582 -0.4713
   95TIP3    H2  250   1.882   1.705   4.374  0.2425  1.1311  1.6222
   96TIP3   OH2  251   1.020   3.834   5.238  0.3074  0.0786  0.3356
   96TIP3    H1  252   0.973   3.762   5.281 -0.0501 -0.3957 -0.8182
   96TIP3    H2  253   0.951   3.886   5.196  0.3387  2.2770  2.7480
   97TIP3   OH2  254   2.844   1.563   1.199  0.3107 -0.6045 -0.0205
   97TIP3    H1  255   2.819   1.637   1.254  0.4744 -1.4839  1.2943
   97TIP3    H2  256   2.937   1.576   1.182  0.0457  0.1930 -0.9600
   98TIP3   OH2  257   5.505   2.278   4.614 -0.0668  0.2772  0.1581
   98TIP3    H1  258   5.491   2.207   4.677 -1.5178  0.5819  0.2231
   98TIP3    H2  259   5.424   2.328   4.617  0.2964  0.9775 -1.1043
   99TIP3   OH2  260   4.565   0.862   2.803  0.4578 -1.0809  1.1033
   99TIP3    H1  261   4.515   0.782   2.790 -0.8544 -0.6002  2.8346
   99TIP3    H2  262   4.536   0.921   2.733 -2.2769 -0.4569  2.6402
  100TIP3   OH2  263   1.604   4.218   0.573  0.1785 -0.5268 -0.1416
  100TIP3    H1  264   1.598   4.311   0.596  0.8600  0.2506 -2.7305
  100TIP3    H2  265   1.535   4.206   0.507  0.3816 -1.7606 -0.1382
  101TIP3   OH2  266   1.876   2.351   1.240 -0.2905  0.1907 -0.1246
  101TIP3    H1  267   1.851   2.431   1.286 -2.6836 -0.0913 -0.7873
  101TIP3    H2  268   1.907   2.380   1.155 -0.5377  0.4588 -0.1244
  102TIP3   OH2  269   3.933   4.302   5.760 -0.0356  0.2264 -0.5616
  102TIP3    H1  270   3.952   4.271   5.672 -1.8268 -2.2634 -0.1960
  102TIP3    H2  271   3.960   4.229   5.817 -1.8361  0.4456  0.6445
  103TIP3   OH2  272   5.573   4.519   5.378  0.0454 -0.0596 -0.4310
  103TIP3    H1  273   5.668   4.523   5.362  0.1416 -0.6637 -0.0720
  103TIP3    H2  274   5.539   4.461   5.310 -0.1899  0.7565 -1.0243
  104TIP3   OH2  275   0.322   2.630   2.169  0.2590  0.2098  0.1643
  104TIP3    H1  276   0.303   2.550   2.218 -2.3755  0.7281  0.1392
  104TIP3    H2  277   0.368   2.686   2.231 -1.1205  0.0412  1.4050
  105TIP3   OH2  278   4.640   2.974   4.992  0.1041 -0.3442 -0.3790
  105TIP3    H1  279   4.717   3.026   4.969 -0.0116 -0.0513 -0.1052
  105TIP3    H2  280   4.585   3.033   5.043 -0.4655 -0.4468 -0.8667
  106TIP3   OH2  281   0.307   0.673   5.429  0.0153  0.0127  0.3784
  106TIP3    H1  282   0.212   0.669   5.423  0.1378 -0.5267 -1.8487
  106TIP3    H2  283   0.325   0.757   5.473 -1.4565  0.9881 -0.7814
  107TIP3   OH2  284   5.054   2.831   1.929  0.9130  0.0404  0.0072
  107TIP3    H1  285   5.055   2.925   1.950  0.6254 -0.3500  1.9989
  107TIP3    H2  286   5.146   2.805   1.937  0.8671 -0.0130  0.4311
  108TIP3   OH2  287   1.392   0.742   5.801  0.1671 -0.4954  0.2443
  108TIP3    H1  288   1.300   0.715   5.807 -0.0207 -0.0036 -0.3490
  108TIP3    H2  289   1.426   0.729   5.890 -0.9024  0.7974  0.8903
  109TIP3   OH2  290   3.093   1.306   2.163  0.5967 -0.4026  0.1505
  109TIP3    H1  291   3.047   1.358   2.229  0.5309 -0.0069 -0.2005
  109TIP3    H2  292   3.044   1.320   2.083  0.3438 -1.3356  0.1276
  110TIP3   OH2  293   2.024   6.105   2.059 -0.3630 -0.0341  0.8316
  110TIP3    H1  294   2.009   6.081   2.150  1.9453 -1.1194  0.9931
  110TIP3    H2  295   2.101   6.161   2.061 -1.6031  1.8561 -0.2874
  111TIP3   OH2  296   3.956   6.639   2.264  0.7444 -0.0395  0.0465
  111TIP3    H1  297   3.950   6.719   2.316  0.4872 -0.5786  0.8659
  111TIP3    H2  298   4.024   6.657   2.200  1.0373  0.6538  0.5381
  112TIP3   OH2  299   2.198   3.042   3.787  0.5430  0.2668 -0.1685
  112TIP3    H1  300   2.118   2.992   3.768  0.6363 -0.0785  0.3061
  112TIP3    H2  301   2.244   3.046   3.703  1.0430 -1.3845 -0.0113
  113TIP3   OH2  302   1.433   6.106   5.505 -0.3096  0.4524 -0.0691
  113TIP3    H1  303   1.352   6.099   5.455 -0.7970 -1.9604  0.8966
  113TIP3    H2  304   1.416   6.057   5.586  1.2639  2.0935  1.3793
  114TIP3   OH2  305   2.352   3.472   3.074  0.3002  0.3259 -0.2654
  114TIP3    H1  306   2.266   3.453   3.111  1.6251 -1.7026  2.1160
  114TIP3    H2  307   2.341   3.459   2.979 -1.9740  0.1317 -0.0276
  115TIP3   OH2  308   1.665   1.969   5.592 -0.6875  0.2218 -0.4978
  115TIP3    H1  309   1.667   2.022   5.671  1.5839 -1.0099  0.3834
  115TIP3    H2  310   1.669   2.032   5.520 -0.7483  1.3139  0.4339
  116TIP3   OH2  311   2.431   3.041   2.337 -0.4462 -0.3218 -0.1105
  116TIP3    H1  312   2.417   2.995   2.255 -0.7664 -0.5074  0.0459
  116TIP3    H2  313   2.426   3.134   2.314  0.9374 -0.3330 -0.5596
  117TIP3   OH2  314   0.823   6.700   2.115 -0.1926  0.2030  0.3441
  117TIP3    H1  315   0.812   6.791   2.089 -1.3524 -0.4577 -1.6819
  117TIP3    H2  316   0.853   6.656   2.036  1.1574 -1.0738  1.4938
  118TIP3   OH2  317   4.393   5.234   2.533 -0.2176  0.2234 -0.1841
  118TIP3    H1  318   4.393   5.236   2.438  1.8762  0.4909 -0.2152
  118TIP3    H2  319   4.486   5.234   2.558 -0.6969  2.1055  1.8982
  119TIP3   OH2  320   4.231   1.958   3.563  0.7258  0.2832 -0.3711
  119TIP3    H1  321   4.288   1.898   3.514  1.5651 -0.9099  1.9456
  119TIP3    H2  322   4.182   2.004   3.495  2.6986 -0.3749 -2.3829
  120TIP3   OH2  323   3.164   2.327   2.868  0.0820  0.5448 -0.5374
  120TIP3    H1  324   3.112   2.248   2.879 -1.5774  1.5898 -0.5207
  120TIP3    H2  325   3.146   2.356   2.779  0.9186  0.7434 -0.6515
  121TIP3   OH2  326   4.346   1.923   1.104 -0.0406 -0.7762 -0.3238
  121TIP3    H1  327   4.436   1.893   1.093  0.6634  1.3287 -0.7733
  121TIP3    H2  328   4.315   1.940   1.015 -0.5094 -0.4832 -0.1112
  122TIP3   OH2  329   5.239   0.988   5.434  0.3526 -0.0300 -0.0504
  122TIP3    H1  330   5.317   1.043   5.431  0.7793 -0.5568  0.8505
  122TIP3    H2  331   5.258   0.916   5.373  1.1886 -0.9055  1.1903
  123TIP3   OH2  332   0.821   5.751   2.269 -0.2386 -0.0701 -0.1515
  123TIP3    H1  333   0.827   5.846   2.278 -1.6819 -0.1113  2.2555
  123TIP3    H2  334   0.911   5.721   2.263  0.2878  1.3895  0.1773
  124TIP3   OH2  335   0.822   0.038   4.822  0.0064  0.0677 -0.0590
  124TIP3    H1  336   0.826   0.059   4.728 -1.2194  1.0711  0.0857
  124TIP3    H2  337   0.913   0.020   4.847  0.3596 -0.1361 -1.4117
  125TIP3   OH2  338   2.392   3.674   5.428 -0.4175 -0.7257 -0.3978
  125TIP3    H1  339   2.314   3.687   5.481 -0.8876  1.0595 -1.4617
  125TIP3    H2  340   2.377   3.590   5.384 -2.1854 -0.0199 -1.2586
  126TIP3   OH2  341   6.673   5.349   5.882 -0.6950 -0.1329  0.2884
  126TIP3    H1  342   6.669   5.280   5.816 -0.2391 -1.0597  1.1979
  126TIP3    H2  343   6.645   5.307   5.963 -1.2070  0.9688  0.7067
  127TIP3   OH2  344   1.880   3.631   0.224  0.0268 -0.1426 -0.5034
  127TIP3    H1  345   1.856   3.543   0.255 -1.1404  0.4668  0.3792
  127TIP3    H2  346   1.921   3.673   0.300  0.5304  0.1095 -0.9072
  128TIP3   OH2  347   0.530   3.241   4.585 -0.3992  0.2316  0.2812
  128TIP3    H1  348   0.607   3.280   4.544 -1.1911  1.7927  0.2158
  128TIP3    H2  349   0.499   3.177   4.521  0.2101  0.3717 -0.1641
  129TIP3   OH2  350   6.343   1.384   4.130  0.0337  0.1786  0.2036
  129TIP3    H1  351   6.356   1.466   4.083 -1.1584  1.3887  1.8776
  129TIP3    H2  352   6.431   1.348   4.141  0.7141  1.8222  0.4454
  130TIP3   OH2  353   5.116   4.246   0.134  0.0818  0.4289  0.0153
  130TIP3    H1  354   5.170   4.287   0.066 -0.4173 -0.2453 -0.8043
  130TIP3    H2  355   5.105   4.315   0.200  2.0099  0.5683  0.2733
  131TIP3   OH2  356   3.283   3.620   0.521  0.2755  0.0169  0.0456
  131TIP3    H1  357   3.250   3.636   0.433 -1.6419 -0.9886  0.5371
  131TIP3    H2  358   3.342   3.694   0.538 -0.4619  1.0144 -1.5106
  132TIP3   OH2  359   2.442   2.843   5.316  0.7772  0.4617 -0.2983
  132TIP3    H1  360   2.420   2.934   5.337  2.8620  0.7921  0.6614
  132TIP3    H2  361   2.381   2.791   5.367  1.3258  1.3365  1.3133
  133TIP3   OH2  362   0.985   5.439   1.079  0.5672 -0.5765 -0.0462
  133TIP3    H1  363   1.045   5.388   1.133  0.1179 -0.2932  0.7453
  133TIP3    H2  364   1.015   5.530   1.089  0.3382 -0.4961 -0.0739
  134TIP3   OH2  365   6.671   0.178   3.446  0.5210 -0.2174  0.1306
  134TIP3    H1  366   6.728   0.195   3.371  0.4868 -0.3166  0.0817
  134TIP3    H2  367   6.594   0.136   3.408  0.4534 -0.1633  0.2074
  135TIP3   OH2  368   7.160   2.780   5.843  0.5543  0.1085  0.6957
  135TIP3    H1  369   7.198   2.695   5.865  0.5173  0.1213  0.8047
  135TIP3    H2  370   7.201   2.842   5.903  0.1750  0.0863  0.9782
  136TIP3   OH2  371   1.430   1.352   3.511 -1.0191  0.2784  0.3821
  136TIP3    H1  372   1.454   1.443   3.527  0.2049 -0.0283  0.3664
  136TIP3    H2  373   1.452   1.306   3.592 -0.5814 -0.1922  0.0050
  137TIP3   OH2  374   0.114   2.695   5.642  0.0750  0.0985  0.1507
  137TIP3    H1  375   0.078   2.764   5.698  1.9157  1.1140  0.1370
  137TIP3    H2  376   0.108   2.730   5.554  0.2577 -0.1236  0.0506
  138TIP3   OH2  377   0.332   6.408   0.384 -0.0250  0.2852 -0.4218
  138TIP3    H1  378   0.264   6.401   0.318  0.4945  0.0876 -0.9401
  138TIP3    H2  379   0.307   6.345   0.452  0.4406 -0.8947 -1.3243
  139TIP3   OH2  380   4.811   6.416   4.488  0.2683  0.6735 -0.2237
  139TIP3    H1  381   4.886   6.466   4.456 -0.4501  2.2021  0.3718
  139TIP3    H2  382   4.848   6.350   4.546  1.0406  3.0910  2.2304
  140TIP3   OH2  383   3.605   5.692   3.235 -0.2940 -0.4649 -0.0243
  140TIP3    H1  384   3.642   5.714   3.150 -1.0735  1.7189  0.1367
  140TIP3    H2  385   3.675   5.708   3.298 -0.4323  0.2643 -0.0478
  141TIP3   OH2  386   1.085   5.376   5.692 -0.2344 -0.0318 -0.6704
  141TIP3    H1  387   0.993   5.355   5.709 -0.2888  0.8832  0.2745
  141TIP3    H2  388   1.117   5.413   5.775  0.7757  0.3813 -1.2246
  142TIP3   OH2  389   0.003   2.911   5.483  0.1515  0.0360  0.2533
  142TIP3    H1  390   0.037   2.970   5.416  0.2760 -0.4556 -0.1262
  142TIP3    H2  391   0.057   2.926   5.560  0.0234  0.5884  0.2375
  143TIP3   OH2  392   5.967   4.476   2.601 -0.2056 -0.2708  0.1558
  143TIP3    H1  393   6.024   4.409   2.637 -1.1902 -1.1742  0.0799
  143TIP3    H2  394   6.027   4.544   2.568  0.7509 -0.2065  1.9225
  144TIP3   OH2  395   1.537   3.642   1.255 -0.0894  0.1148  0.2404
  144TIP3    H1  396   1.513   3.687   1.336 -0.3366  0.1475  0.1522
  144TIP3    H2  397   1.489   3.559   1.258  1.2604 -0.6775  0.9434
  145TIP3   OH2  398   0.880   3.421   3.859  0.3358 -0.2766  0.2584
  145TIP3    H1  399   0.818   3.487   3.887  1.8422  2.3185 -2.0488
  145TIP3    H2  400   0.827   3.343   3.843 -2.1296  1.3959 -0.3199
  146TIP3   OH2  401   4.282   5.386   3.529 -0.1226 -0.2566 -0.0387
  146TIP3    H1  402   4.308   5.471   3.564  0.9754 -1.1560  1.4041
  146TIP3    H2  403   4.264   5.332   3.606 -1.6480 -1.1164 -0.9325
  147TIP3   OH2  404   6.351   1.678   1.614  0.0666 -0.1091 -0.0455
  147TIP3    H1  405   6.264   1.664   1.576 -0.0048 -2.1940  0.7349
  147TIP3    H2  406   6.333   1.705   1.704  0.2035 -0.3541  0.0575
  148TIP3   OH2  407   2.180   0.615   0.660  0.3963  0.4056  0.5410
  148TIP3    H1  408   2.248   0.649   0.719  1.0227 -0.6478  0.4647
  148TIP3    H2  409   2.226   0.602   0.576  0.5981 -1.9633  0.9536
  149TIP3   OH2  410   3.727   3.479   1.035 -0.9075 -0.4925  0.0312
  149TIP3    H1  411   3.786   3.485   1.110 -0.2218  0.9229 -0.5830
  149TIP3    H2  412   3.642   3.504   1.069 -0.4769  0.7632  0.2346
  150TIP3   OH2  413   4.058   5.042   4.626  0.5099  0.1957  0.0202
  150TIP3    H1  414   4.036   5.033   4.533 -0.1514 -3.4034  0.3814
  150TIP3    H2  415   4.137   4.990   4.638 -0.6488 -1.3054  1.7817
  151TIP3   OH2  416   2.737   5.161   0.390 -0.1917 -0.5939 -0.4161
  151TIP3    H1  417   2.825   5.187   0.362  0.0112 -1.3813 -0.5469
  151TIP3    H2  418   2.685   5.162   0.310  0.0549 -1.5133 -0.6012
  152TIP3   OH2  419   0.038   6.528   3.490  0.0746  0.3027  0.2933
  152TIP3    H1  420  -0.022   6.520   3.564 -1.5684  0.3351 -0.9777
  152TIP3    H2  421   0.068   6.619   3.492  0.6349  0.1056  1.3306
  153TIP3   OH2  422   4.389   3.261   0.769 -0.2272 -0.0670  0.0713
  153TIP3    H1  423   4.346   3.338   0.806  0.1976  0.3933 -0.3760
  153TIP3    H2  424   4.453   3.235   0.836 -1.3890 -0.9481  0.8808
  154TIP3   OH2  425   2.018   0.018   4.505 -0.2239 -0.0796 -0.1049
  154TIP3    H1  426   2.106   0.057   4.509 -0.2105 -0.0827 -0.3407
  154TIP3    H2  427   2.028  -0.057   4.446 -0.5775  0.4350 -0.8275
  155TIP3   OH2  428   1.294   3.073   5.109 -0.2176 -0.4049  0.4220
  155TIP3    H1  429   1.255   3.136   5.170 -1.0660 -1.4713  1.0026
  155TIP3    H2  430   1.240   3.078   5.031 -0.3858 -0.5293  0.5300
  156TIP3   OH2  431   1.172   5.479   4.437  0.1201  0.4172 -0.0070
  156TIP3    H1  432   1.237   5.452   4.501  0.7485  0.6423 -0.5389
  156TIP3    H2  433   1.102   5.519   4.490  1.8398  3.1019  0.4209
  157TIP3   OH2  434   4.894   4.695   5.312  0.7310 -0.3145  0.5841
  157TIP3    H1  435   4.931   4.628   5.254  1.0087  1.2602 -1.1517
  157TIP3    H2  436   4.812   4.721   5.269  0.8959  0.8213  0.9369
  158TIP3   OH2  437   3.227   0.805   4.114  0.5192  0.4206 -0.5194
  158TIP3    H1  438   3.280   0.757   4.178  1.7195  1.4355 -0.7061
  158TIP3    H2  439   3.291   0.847   4.057 -0.5092  1.2035 -1.1348
  159TIP3   OH2  440   6.403   3.811   0.078  0.0191 -0.4670 -0.1017
  159TIP3    H1  441   6.321   3.842   0.115  0.2561 -0.8152  0.7520
  159TIP3    H2  442   6.462   3.805   0.153  0.5329 -1.1481 -0.5476
  160TIP3   OH2  443   3.195   6.212   4.716 -0.4137 -0.3148 -0.4218
  160TIP3    H1  444   3.276   6.240   4.759  0.3008 -1.0007 -1.2764
  160TIP3    H2  445   3.203   6.245   4.627 -2.2010  1.7236  0.1049
  161TIP3   OH2  446   0.224   4.175   2.253  0.1999 -0.3675  0.5819
  161TIP3    H1  447   0.202   4.186   2.346  1.1465 -0.4897  0.8290
  161TIP3    H2  448   0.284   4.100   2.252  0.0491 -0.4842 -0.1571
  162TIP3   OH2  449   5.529   5.801   2.517 -0.0635  0.1135  0.6251
  162TIP3    H1  450   5.545   5.711   2.547  2.4137  0.0616 -0.5848
  162TIP3    H2  451   5.556   5.856   2.591  0.5473 -0.1215  0.5859
  163TIP3   OH2  452   0.585   0.209   0.160 -0.0398 -0.5654  0.9807
  163TIP3    H1  453   0.621   0.297   0.167 -0.9830 -0.0161 -0.4788
  163TIP3    H2  454   0.516   0.217   0.094  0.1334 -2.4950  0.5106
  164TIP3   OH2  455   4.108   2.709   1.519  0.3495 -0.2430  0.2233
  164TIP3    H1  456   4.020   2.746   1.527  0.7047  1.0700 -1.3481
  164TIP3    H2  457   4.098   2.635   1.460  0.2552 -0.2635  0.2660
  165TIP3   OH2  458   2.995   6.459   4.799  0.3358  0.0165  0.4106
  165TIP3    H1  459   2.975   6.413   4.717 -0.5676  1.1943 -0.0719
  165TIP3    H2  460   3.086   6.486   4.791 -0.0047  0.9375 -0.6573
  166TIP3   OH2  461   2.084   3.527   1.814 -0.0061  0.0462 -0.0138
  166TIP3    H1  462   2.162   3.556   1.766  1.0668 -2.7962 -0.1783
  166TIP3    H2  463   2.021   3.506   1.745  0.5330 -1.3566 -0.1168
  167TIP3   OH2  464   1.245   2.491   3.787  0.6015  0.2830  0.7808
  167TIP3    H1  465   1.174   2.518   3.728  0.7672  1.0864  0.9320
  167TIP3    H2  466   1.300   2.569   3.796  0.7353  0.0917  1.7781
  168TIP3   OH2  467   4.460   6.090   0.812  0.1033  0.0700 -0.4533
  168TIP3    H1  468   4.491   6.037   0.738  1.4151  0.6539 -0.3515
  168TIP3    H2  469   4.527   6.158   0.822  0.4814 -0.5458  1.8538
  169TIP3   OH2  470   0.256   6.628   3.857  0.1182  0.5994 -0.2077
  169TIP3    H1  471   0.202   6.672   3.791  0.1928 -1.9459 -2.1431
  169TIP3    H2  472   0.208   6.547   3.876  1.1620  0.3097  1.3193
  170TIP3   OH2  473   2.949   1.802   0.489  0.6067  0.3290 -0.0572
  170TIP3    H1  474   2.966   1.745   0.565 -1.3035  0.1152  0.2564
  170TIP3    H2  475   2.990   1.757   0.415 -0.3619 -1.1586  0.2913
  171TIP3   OH2  476   6.922   4.495   5.666  0.3660  0.0744 -0.0872
  171TIP3    H1  477   6.966   4.580   5.667  0.0712  0.2288 -0.2831
  171TIP3    H2  478   6.957   4.450   5.589  1.2784 -0.3841  0.5748
  172TIP3   OH2  479   6.889   3.455   0.286  0.0943  0.1064  0.4619
  172TIP3    H1  480   6.859   3.523   0.226 -2.3619  0.1085  1.5841
  172TIP3    H2  481   6.926   3.388   0.230  0.9038  1.5417 -0.7911
  173TIP3   OH2  482   1.294   6.530   0.047 -0.0054  0.7711  0.1686
  173TIP3    H1  483   1.245   6.450   0.030  0.8971  0.0624  0.8406
  173TIP3    H2  484   1.234   6.583   0.100  0.1422 -0.3183  1.4742
  174TIP3   OH2  485   3.961   0.554   3.645 -0.6243 -0.1010 -0.0464
  174TIP3    H1  486   3.899   0.561   3.573  0.2830  0.6928 -0.7816
  174TIP3    H2  487   4.047   0.548   3.603 -0.2036 -1.6118  0.9366
  175TIP3   OH2  488   6.545   2.450   2.023 -0.1932  0.2233 -0.0392
  175TIP3    H1  489   6.464   2.463   1.973  0.0079  0.9114 -0.1976
  175TIP3    H2  490   6.515   2.439   2.113 -0.4909  0.0937 -0.1517
  176TIP3   OH2  491   4.276   0.104   4.496 -0.0174  0.0697  0.0659
  176TIP3    H1  492   4.214   0.043   4.535 -0.1767  0.2857  0.1569
  176TIP3    H2  493   4.238   0.190   4.513 -0.0038  0.1724 -0.4246
  177TIP3   OH2  494   6.886   4.400   3.330 -0.2342  0.9421 -0.3391
  177TIP3    H1  495   6.821   4.351   3.279  1.0459 -1.1862 -0.0239
  177TIP3    H2  496   6.970   4.375   3.292  0.4820  3.7098 -0.7970
  178TIP3   OH2  497   0.162   5.605   3.244 -0.3294  0.2728  0.0953
  178TIP3    H1  498   0.234   5.557   3.284 -0.6314 -0.4153 -0.1685
  178TIP3    H2  499   0.112   5.539   3.196  0.2690  1.1236 -1.7992
  179TIP3   OH2  500   0.888   6.027   2.211 -0.1661  0.2326  0.0867
  179TIP3    H1  501   0.905   5.963   2.142 -0.3356  0.8909 -0.5902
  179TIP3    H2  502   0.842   6.098   2.166  0.4309  1.0399  0.7192
  180TIP3   OH2  503   4.971   1.109   5.123 -0.4478 -0.0899 -0.0019
  180TIP3    H1  504   5.030   1.034   5.122 -0.5168 -0.2372  2.2018
  180TIP3    H2  505   4.969   1.139   5.032  1.5145 -1.2359 -0.4895
  181TIP3   OH2  506   1.779   5.078   0.051 -0.2654 -0.8715 -0.2946
  181TIP3    H1  507   1.831   5.015   0.101  0.4611  0.1994  0.3161
  181TIP3    H2  508   1.775   5.156   0.106 -1.4823 -0.4994 -0.8718
  182TIP3   OH2  509   2.216   3.139   0.263 -0.2139  0.4235 -0.1621
  182TIP3    H1  510   2.236   3.232   0.265  1.8650  0.0308 -0.5154
  182TIP3    H2  511   2.122   3.135   0.246 -0.9427  2.4497  2.7671
  183TIP3   OH2  512   3.009   2.748   1.248  0.1423  0.4767  0.0310
  183TIP3    H1  513   3.011   2.740   1.152 -0.0995 -2.0273  0.1655
  183TIP3    H2  514   3.098   2.775   1.271  0.4851  0.1754 -0.8692
  184TIP3   OH2  515   4.886   6.488   1.502 -0.3164  0.0105  0.2980
  184TIP3    H1  516   4.892   6.538   1.583 -2.0820  0.0012  0.4866
  184TIP3    H2  517   4.805   6.518   1.461 -0.4310 -1.3102 -0.5303
  185TIP3   OH2  518   6.024   2.487   0.451 -0.1321 -0.1164 -0.0052
  185TIP3    H1  519   6.091   2.523   0.509  0.0096  1.5937 -1.1678
  185TIP3    H2  520   6.055   2.399   0.430  0.5280 -0.2301  1.3483
  186TIP3   OH2  521   0.904   2.357   2.808  0.5849 -0.2486 -0.1074
  186TIP3    H1  522   0.929   2.433   2.755  0.3223  0.6519  1.0440
  186TIP3    H2  523   0.809   2.354   2.802  0.3489  1.1426  1.9758
  187TIP3   OH2  524   7.018   3.806   4.449 -0.3575  0.1558 -0.3975
  187TIP3    H1  525   7.002   3.805   4.355  0.9310 -1.4172 -0.6581
  187TIP3    H2  526   7.000   3.716   4.477  2.3194 -0.2777  0.2314
  188TIP3   OH2  527   6.705   3.934   1.862  0.0008  0.2635 -0.2090
  188TIP3    H1  528   6.771   3.874   1.828  1.0881  0.6732  1.1119
  188TIP3    H2  529   6.645   3.878   1.911 -0.0607  0.0191 -0.5630
  189TIP3   OH2  530   1.456   1.991   1.260 -0.0333 -0.2554 -0.1055
  189TIP3    H1  531   1.393   2.061   1.242 -0.8170 -0.2806  2.2222
  189TIP3    H2  532   1.540   2.036   1.269 -0.4599  0.3558  0.9537
  190TIP3   OH2  533   1.757   5.055   1.498 -0.1545  0.1796 -0.6237
  190TIP3    H1  534   1.666   5.031   1.514  0.3480 -1.3769  0.0749
  190TIP3    H2  535   1.782   5.005   1.420 -0.0376  0.9855 -1.1101
  191TIP3   OH2  536   6.750   1.185   0.415  0.0088 -0.3758 -0.3256
  191TIP3    H1  537   6.787   1.163   0.501  0.4149  0.8676 -0.1485
  191TIP3    H2  538   6.790   1.122   0.355  0.7170 -0.4633  0.2103
  192TIP3   OH2  539   0.601   5.237   3.343  0.4998 -0.2128  0.1715
  192TIP3    H1  540   0.593   5.282   3.259 -1.4810 -0.7331  0.0373
  192TIP3    H2  541   0.521   5.258   3.390  0.7469 -1.4223  1.2016
  193TIP3   OH2  542   4.337   1.221   2.971  0.1816  0.0786  0.5262
  193TIP3    H1  543   4.367   1.264   2.891  0.1212 -0.5073  0.1875
  193TIP3    H2  544   4.294   1.291   3.020  0.4108  0.4919  0.1471
  194TIP3   OH2  545   3.988   2.837   0.731  0.0930  0.2327 -0.0149
  194TIP3    H1  546   3.939   2.896   0.789 -0.6745 -1.3740  1.0368
  194TIP3    H2  547   4.042   2.896   0.679 -0.6493  1.8787  0.9620
  195TIP3   OH2  548   0.510   0.718   4.842  0.1757 -0.3179 -0.1652
  195TIP3    H1  549   0.450   0.783   4.805  0.0362 -0.3107  0.0747
  195TIP3    H2  550   0.489   0.717   4.936 -0.4654 -1.3780 -0.3064
  196TIP3   OH2  551   0.489   4.956   2.970 -0.3599 -0.5097 -0.0790
  196TIP3    H1  552   0.506   4.872   2.926 -0.0976 -0.0396 -0.8914
  196TIP3    H2  553   0.499   4.936   3.063  2.7729 -0.7534 -0.3492
  197TIP3   OH2  554   7.056   5.822   0.150 -0.1953  0.3264 -0.4947
  197TIP3    H1  555   7.091   5.824   0.061 -1.5243  0.5880 -1.0395
  197TIP3    H2  556   7.133   5.818   0.206  0.6707  0.1881 -1.6532
  198TIP3   OH2  557   2.193   2.986   5.502 -0.0587  0.4172  0.2449
  198TIP3    H1  558   2.277   3.011   5.540  0.5465  0.4033 -1.0243
  198TIP3    H2  559   2.159   3.068   5.465  0.4434  0.0197 -1.1566
  199TIP3   OH2  560   4.027   3.094   5.815 -0.7255 -0.1948 -0.2547
  199TIP3    H1  561   4.099   3.096   5.752 -0.9506  0.6019 -0.5012
  199TIP3    H2  562   3.950   3.118   5.764 -0.7172  1.7022  0.5503
  200TIP3   OH2  563   5.045   5.388   2.299 -0.0075 -0.0106  0.4607
  200TIP3    H1  564   4.991   5.311   2.287 -0.4651  0.1561  1.3495
  200TIP3    H2  565   5.120   5.358   2.351 -0.0629  0.0915  0.6012
  201TIP3   OH2  566   1.877   6.655   0.631 -0.5178 -0.3604 -0.1901
  201TIP3    H1  567   1.926   6.582   0.593 -0.1205  0.4619 -1.3227
  201TIP3    H2  568   1.944   6.719   0.657 -0.8881 -0.1330  0.2237
  202TIP3   OH2  569   2.895   2.728   5.000  0.4220 -0.1115  0.0367
  202TIP3    H1  570   2.827   2.788   5.030  0.9296  0.1812  0.6355
  202TIP3    H2  571   2.891   2.655   5.061  0.5885 -0.1270  0.0310
  203TIP3   OH2  572   0.707   0.215   3.509  0.0615  0.0169  0.0610
  203TIP3    H1  573   0.738   0.263   3.586 -0.0092 -0.9600  0.7124
  203TIP3    H2  574   0.614   0.238   3.503  0.3603  1.1628 -0.5582
  204TIP3   OH2  575   2.288   3.173   4.763 -0.9379  0.6781  0.4696
  204TIP3    H1  576   2.326   3.168   4.851  0.9353 -0.3228 -0.3476
  204TIP3    H2  577   2.225   3.245   4.769  0.9927  2.3823  1.9772
  205TIP3   OH2  578   0.438   4.368   4.770  0.3140  0.0682 -0.9349
  205TIP3    H1  579   0.390   4.287   4.790 -0.3360  0.4626 -0.8680
  205TIP3    H2  580   0.372   4.437   4.776  0.7649  0.5532 -1.4502
  206TIP3   OH2  581   1.989   4.022   4.433  0.0783  0.2291 -0.2726
  206TIP3    H1  582   1.914   4.075   4.407  0.1029 -0.1845 -1.2323
  206TIP3    H2  583   2.045   4.020   4.355 -0.1615 -1.6178 -0.4318
  207TIP3   OH2  584   4.871   1.889   2.797 -0.6691 -0.0289  0.3490
  207TIP3    H1  585   4.884   1.801   2.832 -1.9221  0.3554  1.8717
  207TIP3    H2  586   4.783   1.914   2.824 -1.3647  0.7085 -2.2991
  208TIP3   OH2  587   6.575   6.739   3.494  0.2831 -0.0042  0.4793
  208TIP3    H1  588   6.482   6.751   3.512  0.4187  0.0529  1.1720
  208TIP3    H2  589   6.615   6.726   3.580  0.8437 -0.5403  0.1469
  209TIP3   OH2  590   4.283   1.533   0.119  0.0674 -0.2880 -0.3546
  209TIP3    H1  591   4.348   1.498   0.057  0.5390  0.5621 -0.3560
  209TIP3    H2  592   4.201   1.532   0.070  0.5083  0.7532 -1.1632
  210TIP3   OH2  593   0.995   3.364   3.200  0.0678 -0.0672 -0.5762
  210TIP3    H1  594   0.921   3.362   3.260 -1.9384  1.9156 -2.7767
  210TIP3    H2  595   1.011   3.272   3.179  0.3937 -0.7689  2.3292
  211TIP3   OH2  596   4.551   5.546   0.027 -0.0563 -0.1614  0.0536
  211TIP3    H1  597   4.633   5.512   0.063 -0.6169  0.5226  2.1148
  211TIP3    H2  598   4.577   5.620  -0.028  0.7279 -0.0752  0.5352
  212TIP3   OH2  599   0.412   0.987   1.639 -0.1791 -0.4848  0.3210
  212TIP3    H1  600   0.460   0.906   1.626  0.9244  0.1837  0.1147
  212TIP3    H2  601   0.377   0.980   1.728 -0.5521 -1.4046  0.1129
  213TIP3   OH2  602   2.098   2.161   3.437  0.2164  0.5684  0.4321
  213TIP3    H1  603   2.155   2.140   3.363 -1.3092 -0.6036 -0.4823
  213TIP3    H2  604   2.020   2.108   3.423 -0.3089  0.6218  2.6841
  214TIP3   OH2  605   3.570   0.519   4.527 -0.2105 -0.4959 -0.5421
  214TIP3    H1  606   3.612   0.518   4.613 -0.2095 -1.6008 -0.5342
  214TIP3    H2  607   3.634   0.559   4.469 -0.3225  0.5113  0.0169
  215TIP3   OH2  608   5.774   6.272   2.180 -0.2267  0.2712  0.1664
  215TIP3    H1  609   5.813   6.189   2.154 -1.4667 -0.5757  0.8655
  215TIP3    H2  610   5.680   6.261   2.162 -0.3785  1.6472 -0.0295
  216TIP3   OH2  611   3.382   4.935   1.279  0.1166  0.6331 -0.3157
  216TIP3    H1  612   3.450   4.869   1.266  0.7804  1.5750 -1.9306
  216TIP3    H2  613   3.419   4.994   1.345  0.9281  1.1725 -1.2283
  217TIP3   OH2  614   5.407   6.679   2.028  0.3003  0.0118 -0.0007
  217TIP3    H1  615   5.323   6.640   2.004 -0.0104 -0.5568  1.8614
  217TIP3    H2  616   5.467   6.652   1.959 -0.6041 -1.2459 -0.3264
  218TIP3   OH2  617   0.452   1.455   3.234 -0.0139  0.4923  0.1454
  218TIP3    H1  618   0.446   1.551   3.235  1.1627  0.5833 -0.1479
  218TIP3    H2  619   0.545   1.437   3.220 -0.1931 -0.6988  0.3973
  219TIP3   OH2  620   0.693   2.444   4.159  0.3953  0.0700  0.4680
  219TIP3    H1  621   0.676   2.353   4.133 -2.2478  0.1284  1.6386
  219TIP3    H2  622   0.676   2.495   4.080  2.6494 -0.4432 -0.4122
  220TIP3   OH2  623   2.865   1.233   3.973 -0.3814  0.0732  0.4838
  220TIP3    H1  624   2.922   1.213   3.899  0.2604 -0.9179  1.2071
  220TIP3    H2  625   2.911   1.198   4.049 -1.0890  0.9342  1.3415
  221TIP3   OH2  626   6.442   6.257   4.254  0.0906  0.2307 -0.2420
  221TIP3    H1  627   6.406   6.185   4.202 -0.1744  0.2164 -0.0450
  221TIP3    H2  628   6.384   6.331   4.235 -0.1410  0.1646  0.2055
  222TIP3   OH2  629   2.528   1.441   2.539  0.0212 -0.6818  0.0262
  222TIP3    H1  630   2.479   1.360   2.550 -0.6648 -0.2364  0.3130
  222TIP3    H2  631   2.468   1.500   2.493  1.2748 -1.0286 -2.1997
  223TIP3   OH2  632   6.384   5.535   4.503  0.1832  0.2660 -0.9677
  223TIP3    H1  633   6.475   5.509   4.513 -0.0023 -0.4738 -1.1219
  223TIP3    H2  634   6.334   5.463   4.542 -0.3118  1.1851  0.1755
  224TIP3   OH2  635   4.432   5.812   3.306  0.5483 -0.2998 -0.0753
  224TIP3    H1  636   4.423   5.905   3.288 -0.5033  0.5595  3.8428
  224TIP3    H2  637   4.526   5.798   3.316  0.7065  0.3560 -0.5872
  225TIP3   OH2  638   4.571   2.196   2.039 -0.0959  0.1694 -0.1053
  225TIP3    H1  639   4.636   2.126   2.027 -0.6057 -0.2028 -0.7892
  225TIP3    H2  640   4.566   2.209   2.134  1.6468  0.8520 -0.0591
  226TIP3   OH2  641   5.936   2.218   5.354  0.1072  0.2560 -0.0006
  226TIP3    H1  642   5.941   2.309   5.324 -0.5942  1.0715  2.1026
  226TIP3    H2  643   5.889   2.171   5.285  0.1056  1.5866 -0.9335
  227TIP3   OH2  644   6.205   3.617   2.603 -0.1471 -0.0466  0.6079
  227TIP3    H1  645   6.209   3.710   2.585  0.6080 -0.5457 -2.3188
  227TIP3    H2  646   6.229   3.609   2.695  1.0085  2.5344  0.6080
  228TIP3   OH2  647   4.382   6.511   2.850 -0.0394  0.6362  0.0645
  228TIP3    H1  648   4.450   6.504   2.918  1.2435  1.1615 -1.1168
  228TIP3    H2  649   4.425   6.482   2.770 -0.8983  1.9200 -0.9084
  229TIP3   OH2  650   1.822   0.347   4.016  0.6292  0.4407 -0.2173
  229TIP3    H1  651   1.879   0.316   4.087  0.5062  0.8499  0.0612
  229TIP3    H2  652   1.784   0.428   4.049 -0.7694 -0.2418 -0.0568
  230TIP3   OH2  653   6.571   4.132   3.050  0.3357  0.2699 -0.8206
  230TIP3    H1  654   6.595   4.060   3.108  0.3347 -0.0200 -1.1819
  230TIP3    H2  655   6.591   4.211   3.101  1.8040  0.0432 -1.0216
  231TIP3   OH2  656   4.483   3.952   0.663 -0.3805 -0.0606 -0.2213
  231TIP3    H1  657   4.493   3.875   0.606 -1.7604 -0.6692  0.3254
  231TIP3    H2  658   4.449   4.020   0.605 -0.4299 -0.2616 -0.4308
  232TIP3   OH2  659   6.936   4.540   4.949  0.3939 -0.0099 -0.3049
  232TIP3    H1  660   6.851   4.558   4.989  1.1772  0.8400  1.0498
  232TIP3    H2  661   6.961   4.621   4.905  1.3690  0.4038  0.9682
  233TIP3   OH2  662   6.704   2.974   4.739  0.5973 -0.5060  0.3626
  233TIP3    H1  663   6.698   3.047   4.677  0.1814 -1.4047 -0.6928
  233TIP3    H2  664   6.777   2.997   4.796 -0.0142  1.0879  0.5465
  234TIP3   OH2  665   4.438   2.476   0.007 -0.2086 -0.4860 -0.4574
  234TIP3    H1  666   4.389   2.487   0.088 -0.3929  1.0811 -0.7631
  234TIP3    H2  667   4.523   2.441   0.036 -0.0657  0.5762  0.4781
  235TIP3   OH2  668   7.083   6.347   0.542  0.1679 -0.5079 -0.0353
  235TIP3    H1  669   7.041   6.431   0.522  0.5828 -0.4117 -0.5505
  235TIP3    H2  670   7.121   6.320   0.458  3.2710  0.6281  0.8574
  236TIP3   OH2  671   6.817   1.783   2.944 -0.2196  0.0364  0.3823
  236TIP3    H1  672   6.781   1.745   3.024  0.7511 -3.5004 -0.6849
  236TIP3    H2  673   6.898   1.735   2.928  0.1659  1.3207 -2.2019
  237TIP3   OH2  674   3.058   5.102   3.625 -0.1943  0.2269 -0.3518
  237TIP3    H1  675   3.148   5.098   3.592 -0.2282  0.8939 -0.5513
  237TIP3    H2  676   3.019   5.177   3.579 -1.1492 -0.6288 -0.9667
  238TIP3   OH2  677   2.092   5.624   0.598 -0.3945 -0.2902 -0.2235
  238TIP3    H1  678   2.175   5.576   0.588  0.3618  1.2643 -1.8796
  238TIP3    H2  679   2.104   5.674   0.679  0.8719  0.9443 -1.1293
  239TIP3   OH2  680   5.811   1.085   2.541 -0.2527 -0.1697 -0.1197
  239TIP3    H1  681   5.788   1.046   2.457  0.5255 -0.9518  0.0216
  239TIP3    H2  682   5.839   1.012   2.596 -1.3012  0.2459  1.0318
  240TIP3   OH2  683   4.004   6.196   0.177 -0.2433 -0.4588 -0.3957
  240TIP3    H1  684   3.952   6.125   0.214  1.9002 -2.1195 -0.3982
  240TIP3    H2  685   3.944   6.239   0.115 -2.3996 -0.5570  1.4721
  241TIP3   OH2  686   6.236   2.956   3.837 -0.0317  0.6810  0.0088
  241TIP3    H1  687   6.303   3.000   3.889 -0.0320 -0.0525  0.6431
  241TIP3    H2  688   6.180   2.913   3.902 -0.1158 -0.1310 -0.5858
  242TIP3   OH2  689   3.113   0.243   0.498 -0.8422  0.1207  0.0402
  242TIP3    H1  690   3.116   0.339   0.503  2.0212  0.1793 -1.0367
  242TIP3    H2  691   3.120   0.214   0.589 -1.3994  0.8993  0.3462
  243TIP3   OH2  692   4.831   5.769   2.092  0.0090 -0.3365  0.6831
  243TIP3    H1  693   4.812   5.790   2.183  0.6432  0.0407  0.7357
  243TIP3    H2  694   4.767   5.820   2.042  0.1928  0.1102  0.8917
  244TIP3   OH2  695   5.579   6.735   1.291 -0.4611  0.0122 -0.0113
  244TIP3    H1  696   5.532   6.762   1.212 -0.4030  0.8909  0.2462
  244TIP3    H2  697   5.548   6.646   1.308 -0.0611 -0.4043 -1.3344
  245TIP3   OH2  698   0.363   2.413   5.586  0.3768 -0.6459 -0.1279
  245TIP3    H1  699   0.384   2.319   5.593  1.1164 -0.6791 -2.0922
  245TIP3    H2  700   0.338   2.425   5.495 -2.1477  0.6509  0.6464
  246TIP3   OH2  701   1.451   3.964   3.757  0.1342  0.2814 -0.3556
  246TIP3    H1  702   1.378   3.943   3.815  1.0426  0.8584  1.0618
  246TIP3    H2  703   1.490   3.880   3.734 -1.0995 -0.0505 -1.3431
  247TIP3   OH2  704  -0.016   1.546   1.177  0.2546 -0.2982 -0.1778
  247TIP3    H1  705   0.062   1.572   1.226 -1.4429 -1.7815  3.7258
  247TIP3    H2  706  -0.040   1.625   1.128  3.3498  0.6203 -0.4632
  248TIP3   OH2  707   0.470   4.689   0.439  0.7648 -0.1494  0.1320
  248TIP3    H1  708   0.510   4.775   0.452 -1.3981  1.3788 -2.3558
  248TIP3    H2  709   0.406   4.682   0.510 -0.8428  1.5558 -1.0552
  249TIP3   OH2  710   0.722   0.190   5.796  0.1782  0.5276  0.4419
  249TIP3    H1  711   0.661   0.152   5.732  2.2185  0.9693 -1.9335
  249TIP3    H2  712   0.684   0.168   5.881 -1.6066 -1.9895 -0.8608
  250TIP3   OH2  713   4.627   1.458   0.230 -0.1133  0.2866  0.6465
  250TIP3    H1  714   4.626   1.370   0.266 -0.1296  0.0744  0.1353
  250TIP3    H2  715   4.564   1.507   0.282 -0.6461 -0.1922  0.4607
  251TIP3   OH2  716   3.764   3.014   0.180 -0.1176 -0.2347  0.6130
  251TIP3    H1  717   3.860   3.018   0.174 -0.1794  1.6755  0.4019
  251TIP3    H2  718   3.747   2.991   0.272  0.5447 -0.0207  0.7976
  252TIP3   OH2  719   0.922   0.849   3.218  0.9411 -0.2853  0.6088
  252TIP3    H1  720   0.947   0.937   3.247  1.1367 -0.2466  0.3197
  252TIP3    H2  721   0.899   0.804   3.299  0.7913  0.0451  0.7548
  253TIP3   OH2  722   5.366   4.939   4.956  0.7924  0.3944 -0.2958
  253TIP3    H1  723   5.359   4.864   4.898 -0.4289 -1.0849  1.6226
  253TIP3    H2  724   5.286   4.989   4.941 -0.9887 -1.5145  1.9375
  254TIP3   OH2  725   1.909   0.911   2.332  0.3859  0.3590 -0.4036
  254TIP3    H1  726   1.909   0.973   2.406  0.4967  0.7458 -0.7227
  254TIP3    H2  727   1.895   0.966   2.255 -2.1005 -0.2876 -0.4861
  255TIP3   OH2  728   1.458   6.337   4.571  0.4929 -0.0493 -0.1714
  255TIP3    H1  729   1.513   6.337   4.494 -0.7027  0.5253 -1.0517
  255TIP3    H2  730   1.426   6.247   4.578 -0.8731  0.2995 -1.4687
  256TIP3   OH2  731   0.860   2.512   0.548 -0.0205  0.1945  0.2092
  256TIP3    H1  732   0.831   2.440   0.492  1.4473 -0.5591  0.3740
  256TIP3    H2  733   0.835   2.591   0.500  1.1778 -0.4262 -1.5513
  257TIP3   OH2  734   6.696   4.096   0.316 -0.0543 -0.2149 -0.8344
  257TIP3    H1  735   6.715   4.054   0.399 -0.1529  2.8890  0.8910
  257TIP3    H2  736   6.781   4.111   0.275  0.3955  1.8524  0.6977
  258TIP3   OH2  737   6.410   6.174   3.648  0.0582  0.3848 -0.0886
  258TIP3    H1  738   6.409   6.183   3.552  0.4073 -1.2392 -0.2725
  258TIP3    H2  739   6.479   6.111   3.666 -1.0379 -0.5402  1.1042
  259TIP3   OH2  740   0.242   5.002   0.815  0.7170  0.1960  0.5988
  259TIP3    H1  741   0.230   5.031   0.725 -0.4753 -1.1029  0.3066
  259TIP3    H2  742   0.166   5.038   0.862  1.5629  1.2457  1.2097
  260TIP3   OH2  743   1.638   2.362   2.700 -0.0044  0.1511 -0.1809
  260TIP3    H1  744   1.560   2.353   2.645 -0.9327  0.7864  0.9914
  260TIP3    H2  745   1.684   2.438   2.664 -0.1540  0.0480 -0.5982
  261TIP3   OH2  746   5.542   2.945   5.004  0.1223 -0.3449 -0.4985
  261TIP3    H1  747   5.604   3.017   4.991  1.3752 -1.7077 -2.7528
  261TIP3    H2  748   5.466   2.969   4.952 -0.1165  0.0477  0.0231
  262TIP3   OH2  749   2.854   1.462   5.647  0.0635 -0.5155  0.4143
  262TIP3    H1  750   2.815   1.384   5.608  0.2233 -0.4553  0.1300
  262TIP3    H2  751   2.782   1.525   5.653 -0.3870 -1.1456  1.9093
  263TIP3   OH2  752   4.707   2.957   4.414 -0.1422  0.6711  0.3698
  263TIP3    H1  753   4.795   2.960   4.376 -1.1508  1.9582 -2.0719
  263TIP3    H2  754   4.664   2.885   4.368 -0.4407  0.1373  1.4566
  264TIP3   OH2  755   2.582   0.416   0.883  0.1217 -0.3848  0.1947
  264TIP3    H1  756   2.512   0.392   0.943  0.5185  0.2496  0.9165
  264TIP3    H2  757   2.538   0.428   0.799 -0.5272 -0.6761  0.4851
  265TIP3   OH2  758   6.014   0.756   3.186 -0.0149 -0.1328  0.2976
  265TIP3    H1  759   6.074   0.710   3.128  1.4610  0.8732  0.9627
  265TIP3    H2  760   5.995   0.838   3.140  0.3388  0.2126  0.7569
  266TIP3   OH2  761   1.574   5.953   3.355 -0.1855 -0.4549  0.0477
  266TIP3    H1  762   1.482   5.969   3.336 -0.8282  0.3078  3.1740
  266TIP3    H2  763   1.592   5.866   3.319 -1.6359  0.0018 -1.9563
  267TIP3   OH2  764   6.502   2.001   4.748  0.4166 -0.0408  0.2996
  267TIP3    H1  765   6.505   1.919   4.698  1.6495  0.8711 -1.2200
  267TIP3    H2  766   6.440   1.984   4.818 -0.1225 -1.9447 -0.5710
  268TIP3   OH2  767   5.772   4.498   1.506 -0.5372 -0.2186 -0.4820
  268TIP3    H1  768   5.839   4.450   1.554  0.8637  1.0783 -1.0326
  268TIP3    H2  769   5.761   4.579   1.555 -0.6636  0.1877 -1.1721
  269TIP3   OH2  770   4.878   0.851   0.751 -0.0954 -0.0701  0.3609
  269TIP3    H1  771   4.902   0.760   0.731  0.7322  0.3547 -0.6491
  269TIP3    H2  772   4.863   0.891   0.666  0.8050  1.0751  0.7159
  270TIP3   OH2  773   6.233   2.350   1.101  0.2900  0.3000  0.0412
  270TIP3    H1  774   6.255   2.441   1.119 -0.4227  0.8252 -1.5338
  270TIP3    H2  775   6.172   2.354   1.027  2.3216 -1.5480 -1.9113
  271TIP3   OH2  776   5.853   3.109   3.951  0.0590 -0.3418  0.2540
  271TIP3    H1  777   5.778   3.114   4.010 -0.8751  0.4502 -0.9268
  271TIP3    H2  778   5.911   3.179   3.980 -2.2245  2.8380 -2.0202
  272TIP3   OH2  779   6.439   5.803   3.125 -0.2818  0.2457 -0.1956
  272TIP3    H1  780   6.533   5.809   3.111 -0.0776  0.1888  1.0228
  272TIP3    H2  781   6.401   5.818   3.038  0.8036  1.1846 -0.5418
  273TIP3   OH2  782   5.306   3.455   5.294  0.6244 -0.1196  0.0016
  273TIP3    H1  783   5.232   3.479   5.350  0.1205 -1.7496  0.0724
  273TIP3    H2  784   5.290   3.504   5.213  0.4593  0.9445  0.6512
  274TIP3   OH2  785   4.129   0.617   1.493  0.1784 -0.6235  0.4000
  274TIP3    H1  786   4.132   0.681   1.422  2.0307 -0.0611  0.9386
  274TIP3    H2  787   4.090   0.539   1.454 -0.3596  0.2107 -0.7760
  275TIP3   OH2  788   3.503   6.171   1.884 -0.1444  0.2582 -0.4254
  275TIP3    H1  789   3.467   6.203   1.801 -0.5489 -2.0043 -1.1800
  275TIP3    H2  790   3.588   6.133   1.860 -0.3569 -0.6033  0.1377
  276TIP3   OH2  791   2.888   3.976   1.005  0.6473 -0.5965  0.3454
  276TIP3    H1  792   2.841   3.916   1.063  0.5515  0.1583  1.0594
  276TIP3    H2  793   2.870   3.942   0.917  3.0634 -3.4207  0.7935
  277TIP3   OH2  794   1.732   5.154   2.396  0.1863 -0.0633  0.6766
  277TIP3    H1  795   1.788   5.188   2.466  1.5018 -0.1408 -0.2900
  277TIP3    H2  796   1.693   5.232   2.356  0.6384  0.0963  0.5361
  278TIP3   OH2  797   0.633   1.140   2.566 -0.7816  0.4136  0.5206
  278TIP3    H1  798   0.693   1.072   2.596 -2.8083 -1.4797  0.5862
  278TIP3    H2  799   0.643   1.211   2.630  1.6335  0.3939  0.2622
  279TIP3   OH2  800   2.367   4.096   1.885 -0.0789  0.1121  0.0421
  279TIP3    H1  801   2.422   4.055   1.818  0.5000 -1.8627  1.6493
  279TIP3    H2  802   2.404   4.184   1.895  1.0996 -0.2616 -0.7832
  280TIP3   OH2  803   6.608   1.603   1.185 -0.1909  0.1404  0.3755
  280TIP3    H1  804   6.575   1.569   1.101  3.0982 -2.1988 -0.1808
  280TIP3    H2  805   6.561   1.552   1.251  0.3190 -1.2172 -0.2702
  281TIP3   OH2  806   6.649  -0.010   0.889 -0.0180  0.2792 -0.0881
  281TIP3    H1  807   6.647   0.067   0.833  0.4620  0.3695  0.0151
  281TIP3    H2  808   6.651   0.024   0.978  1.7917  0.2062 -0.0514
  282TIP3   OH2  809   5.438   1.296   0.060  0.4419 -0.5305  0.6837
  282TIP3    H1  810   5.520   1.312   0.107  0.2194 -0.6880  1.1263
  282TIP3    H2  811   5.462   1.232  -0.007  1.1684  1.0093 -0.5996
  283TIP3   OH2  812   2.350   2.721   0.828  0.0309 -0.1430  0.2881
  283TIP3    H1  813   2.437   2.741   0.863  0.0445  1.3076 -0.5347
  283TIP3    H2  814   2.364   2.704   0.735 -0.7735  1.9626 -0.2682
  284TIP3   OH2  815   3.107   1.176   3.842  0.4273  0.4346  0.9858
  284TIP3    H1  816   3.171   1.204   3.908  2.0446  2.0699 -1.1195
  284TIP3    H2  817   3.158   1.121   3.782 -0.7290 -0.0950  0.4661
  285TIP3   OH2  818   3.812   2.278   3.878  0.3537  0.0113  0.2342
  285TIP3    H1  819   3.758   2.354   3.899  0.1957 -0.4393  1.5493
  285TIP3    H2  820   3.901   2.304   3.902  0.1953 -0.4488  1.4099
  286TIP3   OH2  821   1.400   3.955   5.340  0.3953 -0.0729 -0.4257
  286TIP3    H1  822   1.417   4.025   5.277  0.8306 -0.2337 -0.4849
  286TIP3    H2  823   1.317   3.981   5.382  1.3028  1.2521  0.6306
  287TIP3   OH2  824   0.061   5.351   4.402 -0.2152  0.8906  0.0765
  287TIP3    H1  825   0.017   5.409   4.339 -0.4681  0.9254  0.2805
  287TIP3    H2  826  -0.009   5.327   4.463  0.0310  0.8626  0.3444
  288TIP3   OH2  827   1.555   6.483   2.837  0.6375 -0.2186 -0.0487
  288TIP3    H1  828   1.469   6.483   2.879 -0.0956  0.2692 -1.4659
  288TIP3    H2  829   1.551   6.556   2.775  1.1552 -1.6581 -1.8635
  289TIP3   OH2  830   5.235   2.421   4.619  0.1625 -0.1491  0.6083
  289TIP3    H1  831   5.255   2.456   4.533  0.5972  0.8958  1.1222
  289TIP3    H2  832   5.159   2.364   4.605 -0.5698  1.0065 -0.2527
  290TIP3   OH2  833   1.115   3.943   2.771  0.4738 -0.3578 -0.2014
  290TIP3    H1  834   1.208   3.926   2.785  0.5084 -0.1369 -0.1615
  290TIP3    H2  835   1.110   4.036   2.748  0.3919 -0.6513 -1.4145
  291TIP3   OH2  836   3.264   5.237  -0.005 -0.0207 -1.0778 -0.1769
  291TIP3    H1  837   3.339   5.249   0.054  0.2676 -1.8972 -0.3608
  291TIP3    H2  838   3.189   5.267   0.046  0.4610  0.0367 -0.0944
  292TIP3   OH2  839   0.352   1.777   5.507  0.2946 -0.6426 -0.0772
  292TIP3    H1  840   0.322   1.832   5.434  1.9345  1.5626  0.7832
  292TIP3    H2  841   0.415   1.717   5.467  0.0279 -0.5014 -0.7177
  293TIP3   OH2  842   0.870   1.628   0.753 -0.2816 -0.3614 -0.6301
  293TIP3    H1  843   0.916   1.575   0.818  0.6873  0.2205 -0.8287
  293TIP3    H2  844   0.935   1.645   0.686 -0.3685  1.6023 -0.2714
  294TIP3   OH2  845   0.963   0.653   2.735  0.4176  0.3858  0.2886
  294TIP3    H1  846   0.974   0.567   2.694  0.0554 -0.1562  1.2928
  294TIP3    H2  847   0.991   0.641   2.826  1.2771  1.5806  0.2089
  295TIP3   OH2  848   1.970   1.640   1.234  0.1651 -0.3760 -0.3402
  295TIP3    H1  849   1.959   1.679   1.148  0.1335  0.2915 -0.0419
  295TIP3    H2  850   2.051   1.590   1.228  0.3583 -0.0271 -0.6461
  296TIP3   OH2  851   4.339   0.487   5.364 -0.1575 -0.1518  0.1242
  296TIP3    H1  852   4.296   0.521   5.442  0.4113 -1.3081  0.9831
  296TIP3    H2  853   4.424   0.455   5.395 -0.1652 -1.2075 -0.8328
  297TIP3   OH2  854   5.069   0.101   2.457 -0.4550 -0.1402 -0.3185
  297TIP3    H1  855   5.087   0.013   2.425 -1.1683 -0.0662 -0.9371
  297TIP3    H2  856   5.039   0.150   2.380  0.8148  0.9108 -0.1908
  298TIP3   OH2  857   1.003   4.307   0.900  0.2226 -0.0256  0.4482
  298TIP3    H1  858   0.919   4.294   0.855 -0.4018  0.9847  1.2693
  298TIP3    H2  859   1.057   4.355   0.837 -0.3422  0.6178  0.4367
  299TIP3   OH2  860   4.961   2.318   4.318 -0.3846 -0.3158  0.0677
  299TIP3    H1  861   4.873   2.317   4.279 -0.3059 -0.1450 -0.1127
  299TIP3    H2  862   5.018   2.288   4.248 -0.5231 -2.3581  0.7406
  300TIP3   OH2  863   0.480   1.165   3.407 -0.6770 -0.6487 -0.4124
  300TIP3    H1  864   0.553   1.103   3.405 -0.5329 -0.4975  0.2447
  300TIP3    H2  865   0.487   1.212   3.323 -0.5922 -1.2879 -0.7690
  301TIP3   OH2  866   0.843   3.624   5.243  0.4849 -0.0334 -0.2011
  301TIP3    H1  867   0.900   3.586   5.310  0.1875  0.6055  0.4295
  301TIP3    H2  868   0.866   3.578   5.162  1.4165 -0.2508  0.1798
  302TIP3   OH2  869   4.860   5.385   1.863  0.2568 -0.4739 -0.0795
  302TIP3    H1  870   4.872   5.412   1.954  0.4992  1.3187 -0.6134
  302TIP3    H2  871   4.851   5.289   1.868 -0.4921 -0.3619  1.8904
  303TIP3   OH2  872   3.740   3.070   5.002 -0.2074 -0.1957  0.5657
  303TIP3    H1  873   3.770   3.141   4.946  0.4867  0.1758  1.3785
  303TIP3    H2  874   3.646   3.082   5.009  0.0823  1.6150  1.9648
  304TIP3   OH2  875   0.152   3.438   1.803  0.3648  1.0372  0.2017
  304TIP3    H1  876   0.099   3.358   1.794  0.6034  0.6158  2.0853
  304TIP3    H2  877   0.172   3.464   1.713 -0.0667 -0.8013 -0.4699
  305TIP3   OH2  878   4.055   6.540   0.533  0.2095  0.1369  0.4019
  305TIP3    H1  879   4.039   6.629   0.564 -2.0324 -0.2174  0.3820
  305TIP3    H2  880   4.101   6.498   0.606 -0.8697  0.6446  1.4209
  306TIP3   OH2  881   6.617   0.975   5.095 -0.0336  0.2595  0.0216
  306TIP3    H1  882   6.598   0.957   5.187  5.1215 -0.0209  1.3283
  306TIP3    H2  883   6.632   1.070   5.092 -0.5522  0.3316 -0.6693
  307TIP3   OH2  884   7.001   3.033   0.385  0.0940 -0.2470  0.9316
  307TIP3    H1  885   6.965   3.106   0.435 -0.2442 -0.8007  1.5118
  307TIP3    H2  886   6.986   2.956   0.440 -0.4268 -0.9004 -0.0915
  308TIP3   OH2  887   1.485   2.927   3.293  0.4170  0.6163 -0.3998
  308TIP3    H1  888   1.440   2.846   3.319  0.5688  1.1912  1.9107
  308TIP3    H2  889   1.447   2.949   3.208 -0.2224 -1.4340 -0.7026
  309TIP3   OH2  890   5.676   2.606   0.188  0.4063  0.1788 -0.5562
  309TIP3    H1  891   5.618   2.682   0.178  0.3470  0.1567 -0.3805
  309TIP3    H2  892   5.696   2.579   0.098 -0.7395 -0.4887 -0.6388
  310TIP3   OH2  893   5.692   0.936   1.025  0.0195 -0.1666  0.1188
  310TIP3    H1  894   5.644   1.014   0.998 -1.4278 -1.8506 -2.7925
  310TIP3    H2  895   5.623   0.871   1.044  1.1634 -1.0764  1.3341
  311TIP3   OH2  896   0.651   2.264   5.809  0.9392  0.3307  0.0116
  311TIP3    H1  897   0.679   2.355   5.820  0.2291  0.6375 -0.6244
  311TIP3    H2  898   0.557   2.265   5.828  0.4240  0.2019 -2.1814
  312TIP3   OH2  899   5.097   4.343   2.007 -0.2713  0.1440 -0.2406
  312TIP3    H1  900   5.160   4.411   2.032 -0.9250  0.5363  0.4028
  312TIP3    H2  901   5.123   4.316   1.919  1.1699 -0.1660  0.2662
  313TIP3   OH2  902   5.046   4.349   0.390  0.9658  0.6449 -0.5494
  313TIP3    H1  903   5.051   4.434   0.347  1.7918  1.2602  0.6964
  313TIP3    H2  904   5.074   4.366   0.480 -1.1067 -0.4740  0.3929
  314TIP3   OH2  905   2.385   6.303   5.641  0.2996 -0.1995 -0.3180
  314TIP3    H1  906   2.340   6.387   5.648  1.7413  0.6000 -0.0900
  314TIP3    H2  907   2.392   6.286   5.547  0.5545  0.2605 -0.3828
  315TIP3   OH2  908   2.538   2.814   1.875 -0.7929 -0.5218 -0.5184
  315TIP3    H1  909   2.534   2.879   1.804 -0.1214  0.6981  0.5120
  315TIP3    H2  910   2.601   2.749   1.844 -0.2657  0.1623 -0.9197
  316TIP3   OH2  911   1.177   4.777   2.277  0.2936 -0.0259  0.5139
  316TIP3    H1  912   1.183   4.778   2.181  0.0113  0.1073  0.4981
  316TIP3    H2  913   1.091   4.812   2.296 -0.6637 -2.3396  0.7301
  317TIP3   OH2  914   6.259   1.150   5.280 -0.1407  0.0084 -0.2183
  317TIP3    H1  915   6.280   1.112   5.194  1.6074 -0.6432  0.4500
  317TIP3    H2  916   6.335   1.203   5.302 -0.7139  0.4330  0.8009
  318TIP3   OH2  917   1.065   2.880   4.200  0.7677  0.0054 -0.5825
  318TIP3    H1  918   1.026   2.862   4.286 -0.8857  1.7840 -0.8863
  318TIP3    H2  919   1.112   2.962   4.212  0.3681  0.3633 -1.3956
  319TIP3   OH2  920   1.009   4.759   5.527 -0.2223 -0.3248 -0.0814
  319TIP3    H1  921   1.073   4.761   5.456 -1.0719 -1.7396 -0.9453
  319TIP3    H2  922   0.940   4.820   5.500 -0.0251 -0.0408  0.0565
  320TIP3   OH2  923   5.564   0.351   3.888  0.5746  0.2662  0.1776
  320TIP3    H1  924   5.572   0.315   3.976 -0.4402  0.1669  0.2349
  320TIP3    H2  925   5.505   0.426   3.897 -0.6360 -0.5416 -0.6138
  321TIP3   OH2  926   5.537   1.429   0.847  0.2996 -0.4403  0.4391
  321TIP3    H1  927   5.591   1.502   0.876  0.1819  0.3598 -1.2617
  321TIP3    H2  928   5.447   1.462   0.851  0.2308 -0.5435 -0.1581
  322TIP3   OH2  929   6.033   2.830   5.616  0.2569  0.6818  0.3118
  322TIP3    H1  930   6.123   2.822   5.648  0.4367 -1.1136 -0.5084
  322TIP3    H2  931   6.038   2.803   5.524 -1.1635  0.1780  0.3598
  323TIP3   OH2  932   3.133   6.730   3.164  0.9570 -0.2236 -0.0307
  323TIP3    H1  933   3.049   6.770   3.142  0.6971 -0.3015  0.7804
  323TIP3    H2  934   3.190   6.752   3.091  1.0251  2.1924  0.6445
  324TIP3   OH2  935   5.208   1.484   1.207  0.2499 -0.2996 -0.2483
  324TIP3    H1  936   5.226   1.390   1.213 -1.8651 -0.8047 -0.9394
  324TIP3    H2  937   5.173   1.497   1.119  1.0466  1.2764 -0.3813
  325TIP3   OH2  938   6.440   6.230   1.075  0.0036  0.3326 -0.2935
  325TIP3    H1  939   6.455   6.189   1.161  0.0019  1.0264  0.0470
  325TIP3    H2  940   6.365   6.183   1.039  0.4713 -0.4693 -0.2457
  326TIP3   OH2  941   0.335   1.993   5.347 -0.9083 -0.2174  0.8356
  326TIP3    H1  942   0.419   2.004   5.301 -1.0651 -0.6006  0.4552
  326TIP3    H2  943   0.283   2.069   5.321  0.1899  1.4267  3.0460
  327TIP3   OH2  944   2.133   5.723   2.023  0.0508 -0.2163  0.1619
  327TIP3    H1  945   2.205   5.761   1.972 -0.6551  0.0317 -0.6764
  327TIP3    H2  946   2.085   5.669   1.960 -0.9638  0.2584  0.5159
  328TIP3   OH2  947   1.036   4.158   0.346  0.2424 -0.0016  0.2041
  328TIP3    H1  948   0.988   4.096   0.292  1.0252 -0.9347  0.5641
  328TIP3    H2  949   1.062   4.227   0.284 -1.0463  0.2448 -0.0985
  329TIP3   OH2  950   4.936   0.473   5.046 -0.7321  0.3515  0.2140
  329TIP3    H1  951   4.845   0.444   5.043 -0.5456 -0.1880 -0.5688
  329TIP3    H2  952   4.980   0.412   5.104 -0.6683  0.0063 -0.1923
  330TIP3   OH2  953   1.983   2.677   4.012  0.1722 -0.0352  0.6354
  330TIP3    H1  954   1.957   2.608   4.074 -0.3841 -0.0138  0.4298
  330TIP3    H2  955   2.067   2.647   3.977 -1.1728 -1.8811 -1.3068
  331TIP3   OH2  956   1.638   3.555   2.594  0.2956 -0.4744 -0.1137
  331TIP3    H1  957   1.678   3.548   2.507  1.8516  1.4130  0.3619
  331TIP3    H2  958   1.688   3.625   2.637 -0.9598 -0.8070  2.0170
  332TIP3   OH2  959   7.036   4.580   4.341 -0.7822  0.5408 -0.0713
  332TIP3    H1  960   7.052   4.496   4.384  0.5718 -0.0285 -1.5884
  332TIP3    H2  961   6.993   4.558   4.259 -2.0874  1.5114  0.3071
  333TIP3   OH2  962   1.683   5.804   4.857  0.3005 -1.0202 -0.0021
  333TIP3    H1  963   1.688   5.858   4.778  1.0914 -0.4061  0.4617
  333TIP3    H2  964   1.621   5.735   4.834  0.2187 -0.6254 -1.0272
  334TIP3   OH2  965   7.201   2.349   5.143 -0.1573  0.3585 -0.0791
  334TIP3    H1  966   7.209   2.274   5.085 -1.2160 -0.4844  0.8349
  334TIP3    H2  967   7.109   2.349   5.171  0.4479  0.3262  2.1088
  335TIP3   OH2  968   1.161   0.973   0.784  0.2476 -0.3120  0.6359
  335TIP3    H1  969   1.069   0.993   0.797  0.5666  0.7696  1.3520
  335TIP3    H2  970   1.200   0.979   0.871  1.2602  0.7555  0.1289
  336TIP3   OH2  971   5.420   5.595   3.866  0.0529 -0.1320 -0.1115
  336TIP3    H1  972   5.327   5.614   3.848 -0.0406 -0.7255 -0.2852
  336TIP3    H2  973   5.422   5.570   3.959 -0.3923 -2.5658 -0.6805
  337TIP3   OH2  974   0.465   3.942   0.822  0.5063 -0.0405 -0.2421
  337TIP3    H1  975   0.431   3.866   0.776  0.5242 -0.2018  0.0127
  337TIP3    H2  976   0.539   3.909   0.873 -0.7981 -0.2893  1.5638
  338TIP3   OH2  977   1.029   5.830   5.892 -0.1786 -0.1733 -0.5630
  338TIP3    H1  978   0.937   5.808   5.908 -0.3313  0.1192 -1.0016
  338TIP3    H2  979   1.036   5.833   5.796  0.0978  0.5793 -0.5250
  339TIP3   OH2  980   4.068   2.407   5.033  0.1548  0.3912  0.1175
  339TIP3    H1  981   4.053   2.329   5.086 -1.8854  1.4660  1.2605
  339TIP3    H2  982   4.071   2.374   4.943 -2.3780 -0.8784  0.4106
  340TIP3   OH2  983   5.717   1.343   0.125 -0.0600  0.5802 -0.9695
  340TIP3    H1  984   5.742   1.320   0.035 -0.8094  0.9403 -1.2812
  340TIP3    H2  985   5.794   1.388   0.160 -0.2921  1.8253 -1.9752
  341TIP3   OH2  986   3.839   2.588   3.678  0.2828 -0.3350  0.0720
  341TIP3    H1  987   3.839   2.684   3.682  1.2175 -0.3624  0.9822
  341TIP3    H2  988   3.868   2.568   3.589 -0.6897  0.2200 -0.3820
  342TIP3   OH2  989   5.075   0.587   3.103 -0.0926 -0.3457  0.2378
  342TIP3    H1  990   5.012   0.623   3.165  0.9507  1.5209  0.2821
  342TIP3    H2  991   5.060   0.635   3.022  0.3288 -0.8903 -0.1687
  343TIP3   OH2  992   6.716   3.179   2.410  0.1758 -0.1974  0.8627
  343TIP3    H1  993   6.626   3.149   2.398 -0.0712  0.8484  0.0593
  343TIP3    H2  994   6.758   3.107   2.458 -1.1028 -0.6458  1.3584
  344TIP3   OH2  995   1.677   3.599   3.818  0.5388 -0.3998  0.0880
  344TIP3    H1  996   1.668   3.515   3.863  0.1361  0.0787  0.9272
  344TIP3    H2  997   1.770   3.620   3.824  0.3800 -0.0035  1.3458
  345TIP3   OH2  998   4.531   0.012   2.735 -0.0310  0.5753 -0.3321
  345TIP3    H1  999   4.555   0.060   2.814 -0.9743  3.1234 -1.4811
  345TIP3    H2 1000   4.580  -0.070   2.741 -0.1121  0.6389  2.8746
  346TIP3   OH2 1001   2.737   5.965   4.273  0.1162 -0.0627  0.0908
  346TIP3    H1 1002   2.654   5.959   4.226 -0.2482 -0.0664  0.7178
  346TIP3    H2 1003   2.712   5.993   4.361  0.7588 -0.2997  0.3531
  347TIP3   OH2 1004   0.813   5.950   0.335  0.4686 -0.2710  0.5339
  347TIP3    H1 1005   0.874   5.877   0.340  2.4657  1.3551  1.2345
  347TIP3    H2 1006   0.766   5.947   0.418  1.0455 -0.3546  0.8638
  348TIP3   OH2 1007   4.375   6.705   4.590  0.0490 -0.2888 -0.6525
  348TIP3    H1 1008   4.355   6.710   4.683 -1.3769 -1.8275 -0.8374
  348TIP3    H2 1009   4.458   6.657   4.586  0.4192  0.2942 -0.1708
  349TIP3   OH2 1010   1.843   1.585   0.473  0.5713  0.0029  0.3094
  349TIP3    H1 1011   1.878   1.673   0.464  1.5965 -0.0796  2.8445
  349TIP3    H2 1012   1.917   1.527   0.452  0.1766 -0.2734 -0.3754
  350TIP3   OH2 1013   3.895   4.017   3.504 -0.2200 -0.1235 -0.3983
  350TIP3    H1 1014   3.981   4.054   3.484 -0.5526  1.2540  0.5610
  350TIP3    H2 1015   3.837   4.092   3.510 -0.8793 -0.7293  1.9289
  351TIP3   OH2 1016   4.033   2.998   5.081 -0.1327 -0.1082  0.1386
  351TIP3    H1 1017   3.938   2.982   5.078 -0.2312 -0.0324  1.8073
  351TIP3    H2 1018   4.071   2.922   5.036 -0.9610 -0.4818  0.0371
  352TIP3   OH2 1019   4.880   4.165   0.242  0.0933 -0.3822  0.0883
  352TIP3    H1 1020   4.906   4.225   0.312 -1.7077  0.3215  0.2155
  352TIP3    H2 1021   4.953   4.165   0.181  0.4950  1.2898  0.5326
  353TIP3   OH2 1022   4.496   3.511   4.075  0.2661  0.1852  0.3135
  353TIP3    H1 1023   4.475   3.421   4.049 -3.1768  0.7903  0.4756
  353TIP3    H2 1024   4.514   3.505   4.169 -0.5051 -0.3074  0.4422
  354TIP3   OH2 1025   3.650   0.621   3.019  0.1365 -0.2540 -0.4558
  354TIP3    H1 1026   3.598   0.696   3.047  0.3299 -0.4065  0.3198
  354TIP3    H2 1027   3.626   0.550   3.079  1.7315 -0.1413  0.3625
  355TIP3   OH2 1028   1.309   1.690   1.721 -0.4346 -0.1343  0.3103
  355TIP3    H1 1029   1.346   1.636   1.651 -1.4463  0.3982 -0.6714
  355TIP3    H2 1030   1.310   1.779   1.685  0.2988  0.3801  1.5200
  356TIP3   OH2 1031   6.635   4.920   5.490 -0.2804 -0.6806  0.3438
  356TIP3    H1 1032   6.555   4.938   5.440 -1.5722 -0.9009  2.2131
  356TIP3    H2 1033   6.631   4.825   5.507  1.4902 -1.1051 -1.2873
  357TIP3   OH2 1034   6.980   0.395   0.817 -0.2378  0.2223 -0.5987
  357TIP3    H1 1035   6.924   0.468   0.843 -0.3806  0.4667 -1.5699
  357TIP3    H2 1036   7.067   0.433   0.808 -0.1444  0.0908 -0.3005
  358TIP3   OH2 1037   1.804   6.018   0.284  0.3708  0.5752 -0.1340
  358TIP3    H1 1038   1.853   5.954   0.336 -1.0720 -0.8008 -0.3751
  358TIP3    H2 1039   1.862   6.040   0.212  1.4208  0.5901  0.6820
  359TIP3   OH2 1040   5.987   5.041   2.276 -0.0480  0.0823  0.4067
  359TIP3    H1 1041   5.987   5.131   2.242  0.3177 -0.2054 -0.3789
  359TIP3    H2 1042   5.899   5.030   2.312 -0.5104  0.3629 -0.5828
  360TIP3   OH2 1043   1.454   4.356   1.629 -0.0017 -0.6906  0.0033
  360TIP3    H1 1044   1.461   4.451   1.637  0.0599 -0.4591 -2.1427
  360TIP3    H2 1045   1.417   4.327   1.712 -0.1439  1.2204  0.6480
  361TIP3   OH2 1046   2.648   0.774   4.083 -0.1235 -0.0785  0.9080
  361TIP3    H1 1047   2.719   0.809   4.030 -1.8134 -0.9387 -2.1633
  361TIP3    H2 1048   2.672   0.683   4.100 -0.1230 -0.1391  0.5769
  362TIP3   OH2 1049   3.173   2.083   2.136  0.0773  0.3808  0.3809
  362TIP3    H1 1050   3.134   2.062   2.051 -1.1045  1.8699  0.5011
  362TIP3    H2 1051   3.253   2.131   2.115 -0.5766  1.3651  0.0758
  363TIP3   OH2 1052   6.212   4.076   5.076  0.1295 -0.7204  0.1180
  363TIP3    H1 1053   6.137   4.039   5.122  0.4161 -2.4885 -0.7471
  363TIP3    H2 1054   6.195   4.056   4.984  1.2163 -0.3413 -0.1721
  364TIP3   OH2 1055   7.021   0.661   5.805  0.1867  0.6659 -0.0567
  364TIP3    H1 1056   6.959   0.711   5.752 -1.2119 -0.3756  0.5154
  364TIP3    H2 1057   7.107   0.698   5.785 -0.4285  1.0766 -2.1225
  365TIP3   OH2 1058   6.523   3.106   0.544 -0.4581  0.5033  0.5153
  365TIP3    H1 1059   6.471   3.161   0.486  0.0957  1.9228  1.3104
  365TIP3    H2 1060   6.458   3.063   0.600 -0.8452  2.5565  1.7605
  366TIP3   OH2 1061   1.785   1.613   2.019  0.1965 -0.5334 -0.1203
  366TIP3    H1 1062   1.880   1.602   2.021  0.0092 -2.3610 -0.3274
  366TIP3    H2 1063   1.752   1.538   1.969 -1.2228  1.1765 -1.9568
  367TIP3   OH2 1064   3.450   0.019   3.649  0.4993 -0.1344 -0.0149
  367TIP3    H1 1065   3.422  -0.024   3.568 -2.0689  0.1890  0.6346
  367TIP3    H2 1066   3.401   0.101   3.651 -0.9264 -0.9459  2.7314
  368TIP3   OH2 1067   1.789   3.721   2.758 -0.4462 -0.0131 -0.0944
  368TIP3    H1 1068   1.796   3.777   2.835  0.6431 -0.1616 -0.0787
  368TIP3    H2 1069   1.865   3.743   2.704 -0.4030 -0.9368 -0.4427
  369TIP3   OH2 1070   5.649   3.943   3.651 -0.1974  0.3463  0.3211
  369TIP3    H1 1071   5.720   3.990   3.695 -1.1415  2.8939 -0.6509
  369TIP3    H2 1072   5.644   3.984   3.564 -2.2386 -0.3857  0.0446
  370TIP3   OH2 1073   3.888   5.450   3.634  0.2958 -0.3546 -0.2751
  370TIP3    H1 1074   3.887   5.432   3.728 -0.8141 -1.3747 -0.4575
  370TIP3    H2 1075   3.953   5.519   3.624  2.5094 -2.1229  0.8876
  371TIP3   OH2 1076   0.048   5.854   5.208  0.5137 -0.6159  0.4642
  371TIP3    H1 1077  -0.006   5.789   5.251  2.3391 -2.2257  0.4654
  371TIP3    H2 1078   0.138   5.824   5.221  1.5047  2.2126  0.9442
  372TIP3   OH2 1079   2.122   5.310   1.317 -0.3780 -0.4072  0.5023
  372TIP3    H1 1080   2.035   5.333   1.350 -0.4654 -0.3385  0.2258
  372TIP3    H2 1081   2.159   5.255   1.386 -0.2113  0.4533  1.1273
  373TIP3   OH2 1082   1.176   1.416   1.138 -0.0304  0.4895 -0.4770
  373TIP3    H1 1083   1.248   1.472   1.168 -0.8587  0.9049  0.8159
  373TIP3    H2 1084   1.192   1.332   1.180 -0.6119  0.7609  0.3114
  374TIP3   OH2 1085   5.024   1.743   0.597  0.1444 -0.2566 -0.0491
  374TIP3    H1 1086   5.022   1.764   0.504 -0.7300 -0.0506  0.0016
  374TIP3    H2 1087   5.110   1.771   0.627  0.7169 -1.0249 -0.9468
  375TIP3   OH2 1088   4.638   1.818   2.284 -0.1048  0.3916  0.1075
  375TIP3    H1 1089   4.733   1.823   2.297  0.1748  1.7925 -1.8694
  375TIP3    H2 1090   4.627   1.753   2.215 -0.3932  1.3565 -0.7910
  376TIP3   OH2 1091   1.629   4.036   0.157 -0.2747 -0.6926 -0.1000
  376TIP3    H1 1092   1.630   3.952   0.110  1.3745 -1.4857  1.2312
  376TIP3    H2 1093   1.715   4.073   0.141 -0.0559 -0.4960  1.4059
  377TIP3   OH2 1094   5.272   1.839   5.062 -0.0893  0.0540 -0.5868
  377TIP3    H1 1095   5.206   1.793   5.114 -2.0945  0.8218 -2.3057
  377TIP3    H2 1096   5.279   1.925   5.103 -1.1315  0.4126 -1.1415
  378TIP3   OH2 1097   6.726   0.221   4.407  0.5215 -0.0566 -0.0506
  378TIP3    H1 1098   6.677   0.144   4.437  0.7273 -0.6778 -1.2630
  378TIP3    H2 1099   6.818   0.197   4.419  0.5857  0.7157  1.2539
  379TIP3   OH2 1100   1.043   1.648   5.118 -0.1421  0.3426  0.1460
  379TIP3    H1 1101   1.041   1.560   5.156 -1.1823  0.4661  0.4008
  379TIP3    H2 1102   1.043   1.706   5.193  0.2490  0.5757 -0.0293
  380TIP3   OH2 1103   4.046   0.585   4.704  0.6632  0.2098  0.5264
  380TIP3    H1 1104   4.015   0.519   4.642  0.5151  1.3407 -0.6596
  380TIP3    H2 1105   4.107   0.539   4.760  3.1867 -0.2998 -2.3563
  381TIP3   OH2 1106   4.374   0.328   0.118 -0.4877 -0.1746  0.3481
  381TIP3    H1 1107   4.340   0.370   0.197  0.3509  1.3922 -0.0713
  381TIP3    H2 1108   4.300   0.278   0.084 -1.6709  1.2593  0.7022
  382TIP3   OH2 1109   7.056   0.823   4.550 -0.6126 -0.0858  0.6204
  382TIP3    H1 1110   7.000   0.767   4.496 -0.4453 -2.2810  2.5806
  382TIP3    H2 1111   7.144   0.809   4.516 -0.7696  0.4477 -0.0427
  383TIP3   OH2 1112   5.884   5.822   1.586  0.1100 -0.5090 -0.4427
  383TIP3    H1 1113   5.882   5.869   1.670  0.1263 -1.0456 -0.1359
  383TIP3    H2 1114   5.818   5.866   1.532 -0.2680 -0.4857  0.0303
  384TIP3   OH2 1115   3.102   4.307   3.834 -0.8060  0.3216  0.0314
  384TIP3    H1 1116   3.041   4.235   3.849 -0.8542  0.2453 -0.5080
  384TIP3    H2 1117   3.052   4.370   3.782 -0.1803 -0.1140 -1.1292
  385TIP3   OH2 1118   3.364   0.345   1.935 -0.0140  0.6330 -0.1088
  385TIP3    H1 1119   3.416   0.403   1.880  1.8456 -1.9611 -1.3228
  385TIP3    H2 1120   3.404   0.353   2.022  1.3148  0.0242 -0.6303
  386TIP3   OH2 1121   0.531   5.684   5.829 -0.3635 -0.1187  0.1170
  386TIP3    H1 1122   0.540   5.774   5.860 -0.5566 -0.0430 -0.0438
  386TIP3    H2 1123   0.611   5.669   5.777 -0.0292 -0.2556  0.6689
  387TIP3   OH2 1124   5.631   3.194   2.546  0.4140 -0.4720  0.1643
  387TIP3    H1 1125   5.714   3.227   2.512  0.3598  0.7912  1.1850
  387TIP3    H2 1126   5.567   3.214   2.477  0.8832 -1.1431 -0.4806
  388TIP3   OH2 1127   4.847   5.911   1.263  0.2608 -0.4995 -0.1080
  388TIP3    H1 1128   4.901   5.983   1.294 -1.1444  0.6372 -0.2268
  388TIP3    H2 1129   4.801   5.946   1.187 -1.0048 -1.2764  0.2685
  389TIP3   OH2 1130   2.596   1.894   3.474  0.0339  0.6513  0.3977
  389TIP3    H1 1131   2.691   1.884   3.464 -0.1359 -0.1209 -0.5933
  389TIP3    H2 1132   2.570   1.820   3.529 -0.0823  0.4277  0.0497
  390TIP3   OH2 1133   3.260   1.145   2.018  0.0575  0.0112  0.5407
  390TIP3    H1 1134   3.302   1.201   1.954  2.1157 -0.6818  1.1875
  390TIP3    H2 1135   3.217   1.205   2.079 -0.5860  0.7141 -0.5762
  391TIP3   OH2 1136   5.346   0.091   4.376  0.0272  0.5787 -0.1857
  391TIP3    H1 1137   5.320   0.164   4.320  0.6636  1.5331  0.7178
  391TIP3    H2 1138   5.265   0.062   4.418 -0.0895  1.3969  0.1662
  392TIP3   OH2 1139   1.447   4.907   3.225 -0.1456 -0.3600 -0.1323
  392TIP3    H1 1140   1.386   4.881   3.156 -0.1775  1.4452 -0.8368
  392TIP3    H2 1141   1.409   4.986   3.262  0.4546 -0.6768  1.2257
  393TIP3   OH2 1142   3.216   2.831   5.253 -0.1090  0.5362  0.2292
  393TIP3    H1 1143   3.142   2.885   5.281 -0.2098 -0.3460  1.8074
  393TIP3    H2 1144   3.275   2.831   5.329  1.3904  0.9885 -0.8850
  394TIP3   OH2 1145   1.434   1.646   2.861 -0.1826  1.0879  0.2502
  394TIP3    H1 1146   1.471   1.623   2.946  0.8780  1.7873  0.0143
  394TIP3    H2 1147   1.452   1.740   2.852  0.4152  0.8810 -1.0558
  395TIP3   OH2 1148   3.181   3.967   4.791 -0.2516 -0.1637 -0.1020
  395TIP3    H1 1149   3.254   3.924   4.747 -1.2027 -2.1904  0.2011
  395TIP3    H2 1150   3.187   3.938   4.882 -0.0695  1.5967  0.4972
  396TIP3   OH2 1151   0.017   4.536   4.586 -0.7842  0.2938  0.4266
  396TIP3    H1 1152   0.025   4.522   4.491  1.3365  1.4395  0.3889
  396TIP3    H2 1153  -0.038   4.464   4.616  0.2809 -1.3433 -1.3638
  397TIP3   OH2 1154   7.140   4.447   4.058 -0.2005 -0.6831  0.2844
  397TIP3    H1 1155   7.234   4.435   4.071 -0.3076 -0.3530  1.4552
  397TIP3    H2 1156   7.100   4.419   4.140 -1.0891 -0.3768 -0.0264
  398TIP3   OH2 1157   0.999   5.738   0.375 -0.6378  0.4581  0.4273
  398TIP3    H1 1158   1.001   5.665   0.437 -0.0440 -0.0280 -0.1440
  398TIP3    H2 1159   1.061   5.801   0.409  1.4354 -0.7890 -0.7977
  399TIP3   OH2 1160   1.327   3.465   1.293 -0.2069 -0.5410 -0.5894
  399TIP3    H1 1161   1.231   3.469   1.293 -0.1836  1.7748  1.1291
  399TIP3    H2 1162   1.348   3.395   1.354 -0.8345  0.5593  0.9346
  400TIP3   OH2 1163   2.241   0.910   1.584 -0.1090  0.1874  0.0988
  400TIP3    H1 1164   2.284   0.824   1.592 -1.3693 -0.3444  1.6681
  400TIP3    H2 1165   2.255   0.935   1.493  1.2868 -1.1451 -0.0979
  401TIP3   OH2 1166   5.131   5.689   0.581 -0.0186 -0.0491  0.1324
  401TIP3    H1 1167   5.083   5.629   0.638 -2.4611  0.0847 -1.6113
  401TIP3    H2 1168   5.073   5.702   0.506  0.3810  4.4079  0.3261
  402TIP3   OH2 1169   2.491   1.732   1.140  0.3680 -0.3008  0.3451
  402TIP3    H1 1170   2.496   1.765   1.229  0.3258  1.0437 -0.1192
  402TIP3    H2 1171   2.504   1.810   1.085 -0.2514 -0.9893 -0.8223
  403TIP3   OH2 1172   0.406   0.911   5.504  0.0536 -0.6471  0.1312
  403TIP3    H1 1173   0.468   0.872   5.566  0.1232 -0.4117  0.2086
  403TIP3    H2 1174   0.450   0.906   5.419  0.0101 -0.8520  0.1183
  404TIP3   OH2 1175   5.586   1.908   2.674  0.0593 -0.2199 -0.1474
  404TIP3    H1 1176   5.525   1.966   2.719  0.9960  0.1274  0.7158
  404TIP3    H2 1177   5.650   1.967   2.632  1.0809 -0.5893  0.8295
  405TIP3   OH2 1178   1.935   1.995   3.151  0.0757  0.6255  0.3632
  405TIP3    H1 1179   1.933   1.901   3.134  1.6832  0.9084 -1.8936
  405TIP3    H2 1180   2.018   2.024   3.113 -0.3008  2.9507  1.1492
  406TIP3   OH2 1181   6.973   1.885   0.648 -0.3557  0.3076 -0.5059
  406TIP3    H1 1182   7.059   1.891   0.607 -0.4379  1.1222 -0.5861
  406TIP3    H2 1183   6.971   1.799   0.690  0.6705  0.4545 -0.1315
  407TIP3   OH2 1184   4.306   2.848   3.683  0.5142  0.2858  0.2147
  407TIP3    H1 1185   4.262   2.765   3.700  0.8849  0.3500  1.5947
  407TIP3    H2 1186   4.280   2.904   3.756  0.0686  1.4801 -0.8203
  408TIP3   OH2 1187   3.460   2.533   3.489  0.6878  0.2316 -0.3859
  408TIP3    H1 1188   3.408   2.455   3.471  1.4771 -0.1429 -1.0431
  408TIP3    H2 1189   3.533   2.529   3.428  0.8206  1.4086 -0.3309
  409TIP3   OH2 1190   6.914   2.168   0.860  0.1330  0.1869 -0.5262
  409TIP3    H1 1191   6.823   2.156   0.831 -0.4380  1.8908  0.4382
  409TIP3    H2 1192   6.925   2.104   0.931 -0.8155  0.9734  0.3565
  410TIP3   OH2 1193   2.752   4.031   2.462 -0.1001 -0.2990 -0.1764
  410TIP3    H1 1194   2.726   4.088   2.390 -1.0734 -0.0964  0.3164
  410TIP3    H2 1195   2.669   3.997   2.497  0.4025 -1.0556  0.3070
  411TIP3   OH2 1196   6.909   3.798   0.302  0.4661  0.0897  0.3204
  411TIP3    H1 1197   6.993   3.752   0.314  0.6011  0.5406  1.1576
  411TIP3    H2 1198   6.928   3.866   0.239  0.7676  0.2657  0.5962
  412TIP3   OH2 1199   0.114   2.201   0.486 -0.7017 -0.1806 -0.6499
  412TIP3    H1 1200   0.103   2.292   0.460 -0.2074  0.8339  2.2537
  412TIP3    H2 1201   0.036   2.181   0.538  0.5000 -0.3925  1.1792
  413TIP3   OH2 1202   2.950   4.274   4.203  0.1827  0.5396  0.1649
  413TIP3    H1 1203   2.919   4.198   4.254  1.6299 -0.5146 -0.4749
  413TIP3    H2 1204   2.944   4.245   4.112  0.9408  1.1279 -0.0720
  414TIP3   OH2 1205   1.882   3.290   4.214 -0.4810  0.5541 -0.2493
  414TIP3    H1 1206   1.949   3.337   4.264  1.0436 -1.3485 -0.4106
  414TIP3    H2 1207   1.851   3.222   4.274  0.5307 -1.0176 -1.4372
  415TIP3   OH2 1208   6.305   4.008   4.210 -0.0488  0.0370  0.2828
  415TIP3    H1 1209   6.303   3.915   4.189  0.0372  0.4931 -2.0210
  415TIP3    H2 1210   6.331   4.011   4.302 -0.3718 -2.2039  0.5063
  416TIP3   OH2 1211   3.705   3.620   5.114  0.2675  0.3739 -0.1974
  416TIP3    H1 1212   3.720   3.576   5.198 -1.5527  2.6780  1.4662
  416TIP3    H2 1213   3.792   3.621   5.073  1.1702 -1.0886  1.4836
  417TIP3   OH2 1214   3.793   3.644   2.524  0.3152 -0.4127  0.4300
  417TIP3    H1 1215   3.825   3.729   2.553  0.2001 -1.0122  2.4527
  417TIP3    H2 1216   3.816   3.640   2.431  1.8201  1.1181  0.6950
  418TIP3   OH2 1217   4.775   4.927   4.490  0.7187 -0.2759  0.7329
  418TIP3    H1 1218   4.854   4.963   4.450  0.3868  0.0052  0.3152
  418TIP3    H2 1219   4.731   4.881   4.418 -1.1263  2.2772  0.0881
  419TIP3   OH2 1220   3.944   6.290   3.075 -0.0388  0.3773  0.1280
  419TIP3    H1 1221   3.990   6.368   3.106  1.2974 -0.1531 -0.4893
  419TIP3    H2 1222   3.995   6.259   3.000 -0.6836 -0.9494  0.2086
  420TIP3   OH2 1223   4.765   5.720   3.784  0.0170  0.0883  0.1074
  420TIP3    H1 1224   4.838   5.668   3.816  0.9112  0.5138 -1.1391
  420TIP3    H2 1225   4.696   5.657   3.765  0.1750 -0.3557  0.9672
  421TIP3   OH2 1226   2.554   3.905   3.411 -0.2553  0.3627  0.1424
  421TIP3    H1 1227   2.555   3.812   3.435 -0.2162  0.4134  0.3348
  421TIP3    H2 1228   2.574   3.951   3.492 -1.3642  0.5943  0.3008
  422TIP3   OH2 1229   3.062   6.725   1.947 -0.1295 -0.4575  0.1834
  422TIP3    H1 1230   3.060   6.786   2.021 -0.2573 -1.6777  1.2311
  422TIP3    H2 1231   3.146   6.680   1.956 -0.7026 -1.5359  0.3897
  423TIP3   OH2 1232   5.023   2.523   4.817 -0.1774  0.3765  0.2107
  423TIP3    H1 1233   4.980   2.513   4.902 -1.2947  0.0222 -0.3755
  423TIP3    H2 1234   5.085   2.449   4.812  2.0999  2.0204  1.9242
  424TIP3   OH2 1235   1.837   4.792   3.053 -0.3180 -0.3559  0.2483
  424TIP3    H1 1236   1.753   4.747   3.044  0.4365 -1.9930  0.8779
  424TIP3    H2 1237   1.902   4.721   3.053  0.7320  0.2897  4.6901
  425TIP3   OH2 1238   3.171   4.445   1.064 -0.1051  0.2762  0.6691
  425TIP3    H1 1239   3.080   4.419   1.056 -0.0594 -0.1958  1.5082
  425TIP3    H2 1240   3.206   4.388   1.132  1.0775 -0.2188 -0.3147
  426TIP3   OH2 1241   2.936   6.116   4.035 -0.6809 -0.5266  0.4903
  426TIP3    H1 1242   3.015   6.073   4.003 -0.3105  0.2109  0.3887
  426TIP3    H2 1243   2.866   6.081   3.980 -0.5391 -1.7128  1.0460
  427TIP3   OH2 1244   0.856   4.404   0.451  0.3675  0.2046 -0.4928
  427TIP3    H1 1245   0.946   4.421   0.478  0.2083 -0.6951  0.6962
  427TIP3    H2 1246   0.864   4.352   0.371  0.9382 -0.8644  0.2348
  428TIP3   OH2 1247   1.606   3.351   0.901 -0.1814  0.8246 -0.1616
  428TIP3    H1 1248   1.620   3.274   0.846  0.3511 -0.8925  2.2277
  428TIP3    H2 1249   1.689   3.364   0.947 -1.0619  1.1876  1.4024
  429TIP3   OH2 1250   4.660   6.640   1.014  0.5010 -0.1299  0.0990
  429TIP3    H1 1251   4.747   6.620   0.980  0.5908  0.5431 -0.0714
  429TIP3    H2 1252   4.669   6.725   1.056 -0.1124  0.0174 -0.0529
  430TIP3   OH2 1253   6.844   4.962   3.492 -0.0864  0.0600 -0.4632
  430TIP3    H1 1254   6.903   4.982   3.419  0.3626 -0.2174 -0.1790
  430TIP3    H2 1255   6.790   5.041   3.501 -0.4195 -0.0545 -1.3560
  431TIP3   OH2 1256   6.781   3.518   4.197  0.3253  0.2851 -0.4953
  431TIP3    H1 1257   6.705   3.575   4.196  0.5956  0.6454 -2.0783
  431TIP3    H2 1258   6.840   3.554   4.131  1.3023 -0.7504 -0.2258
  432TIP3   OH2 1259   7.009   1.822   1.087  0.2817 -0.1556 -0.0506
  432TIP3    H1 1260   6.961   1.905   1.087  0.8263  0.1835  1.0522
  432TIP3    H2 1261   6.941   1.756   1.098 -0.1885  0.1081 -1.2458
  433TIP3   OH2 1262   2.691   3.450   2.173 -0.4724 -0.4966 -0.2243
  433TIP3    H1 1263   2.661   3.527   2.221 -2.2417 -0.3445 -1.4787
  433TIP3    H2 1264   2.642   3.452   2.091  2.5369 -0.6742 -2.1549
  434TIP3   OH2 1265   3.236   0.191   0.740  0.0182  0.0096  0.3432
  434TIP3    H1 1266   3.278   0.252   0.802  2.2293 -1.0890  0.0399
  434TIP3    H2 1267   3.193   0.127   0.796  0.7039 -0.1100  0.7539
  435TIP3   OH2 1268   5.136   1.889   3.780 -0.3825 -0.7655 -0.6261
  435TIP3    H1 1269   5.152   1.906   3.873 -0.1402 -0.8470 -0.6514
  435TIP3    H2 1270   5.041   1.894   3.770 -0.4340 -1.1127 -0.3053
  436TIP3   OH2 1271   4.663   0.170   1.044  0.5858 -0.1791  0.0055
  436TIP3    H1 1272   4.686   0.222   1.121  1.5717 -0.4884 -0.0697
  436TIP3    H2 1273   4.699   0.084   1.061 -1.5853 -1.0887  0.4131
  437TIP3   OH2 1274   1.239   2.056   5.619  0.0268 -0.2643  0.4450
  437TIP3    H1 1275   1.295   2.015   5.686  0.0115  0.2809  0.8009
  437TIP3    H2 1276   1.296   2.120   5.576  0.0982 -0.7644 -0.2240
  438TIP3   OH2 1277   1.862   5.398   2.257  0.0349 -0.1004 -0.0528
  438TIP3    H1 1278   1.902   5.312   2.258  0.9078  0.2683 -1.0703
  438TIP3    H2 1279   1.826   5.409   2.345  0.6327 -1.1617  0.3446
  439TIP3   OH2 1280   1.284   5.708   3.768 -0.1759  0.2879  0.8281
  439TIP3    H1 1281   1.364   5.661   3.791  1.4614  2.4622 -0.1430
  439TIP3    H2 1282   1.310   5.800   3.760 -2.2837  0.8117 -1.6605
  440TIP3   OH2 1283   0.278   0.375   2.906 -0.0842  0.0309  0.3962
  440TIP3    H1 1284   0.274   0.279   2.904  0.6622  0.0021 -0.5828
  440TIP3    H2 1285   0.251   0.402   2.818  0.2084  0.6932  0.5024
  441TIP3   OH2 1286   1.464   4.426   5.116  0.0413  0.1893 -0.5271
  441TIP3    H1 1287   1.409   4.503   5.104 -1.6050 -1.1374 -2.1037
  441TIP3    H2 1288   1.446   4.371   5.040  0.0229 -2.4066  1.1914
  442TIP3   OH2 1289   6.348   4.872   1.865  0.5600 -0.3606 -0.2200
  442TIP3    H1 1290   6.306   4.952   1.833  0.7115 -0.1790  0.0243
  442TIP3    H2 1291   6.305   4.855   1.949  0.9283 -0.2059  0.0055
  443TIP3   OH2 1292   1.203   3.107   3.830 -0.2875 -0.1586 -0.6408
  443TIP3    H1 1293   1.224   3.109   3.737  2.2665  0.0165 -0.1226
  443TIP3    H2 1294   1.137   3.038   3.838 -3.0143  1.9089 -2.9244
  444TIP3   OH2 1295   3.870   2.827   1.249 -1.0778  0.1104  0.5067
  444TIP3    H1 1296   3.838   2.819   1.339  0.4431  0.2053  1.0896
  444TIP3    H2 1297   3.923   2.749   1.235 -2.4813 -0.6616 -0.8705
  445TIP3   OH2 1298   3.098   2.007   0.696  0.5712 -0.0231 -0.5281
  445TIP3    H1 1299   3.068   1.973   0.612  0.5343  1.2645 -1.0608
  445TIP3    H2 1300   3.134   2.094   0.676  2.0263 -0.3440  0.5459
  446TIP3   OH2 1301   1.781   2.119   4.391  0.0014 -0.2831 -0.1263
  446TIP3    H1 1302   1.694   2.100   4.354  0.3713 -3.3599  0.3085
  446TIP3    H2 1303   1.776   2.086   4.480  1.6357 -0.5313 -0.1094
  447TIP3   OH2 1304   0.824   1.039   5.690 -0.4024 -0.5547 -0.0128
  447TIP3    H1 1305   0.874   1.051   5.609 -0.9637  0.3537 -0.2373
  447TIP3    H2 1306   0.769   1.117   5.696 -1.3174 -1.2206  0.5638
  448TIP3   OH2 1307   5.186   4.624   1.999  0.2331  0.7143  0.1479
  448TIP3    H1 1308   5.186   4.639   1.905  0.1389  1.8091  0.3061
  448TIP3    H2 1309   5.109   4.671   2.031 -1.0291 -1.4679  0.5254
  449TIP3   OH2 1310   6.337   2.528   1.421 -0.4188  0.0253  0.0179
  449TIP3    H1 1311   6.319   2.524   1.327 -1.2306 -0.5611  0.1956
  449TIP3    H2 1312   6.414   2.472   1.432 -0.3275  0.0841 -0.2923
  450TIP3   OH2 1313   4.955   2.219   3.857  0.4788 -1.0213 -0.2023
  450TIP3    H1 1314   4.921   2.243   3.772 -1.4739  0.1435  0.8361
  450TIP3    H2 1315   4.880   2.222   3.916  2.2726  2.0278  2.3120
  451TIP3   OH2 1316   2.838   1.799   2.559  0.1505  0.4041 -0.5591
  451TIP3    H1 1317   2.830   1.867   2.626 -0.6240  0.4865 -0.7231
  451TIP3    H2 1318   2.752   1.757   2.557  1.2888 -2.2508  1.2627
  452TIP3   OH2 1319   1.164   5.347   3.807 -0.3359 -0.6830  0.4705
  452TIP3    H1 1320   1.239   5.336   3.866  0.4659 -0.9108 -0.5576
  452TIP3    H2 1321   1.197   5.322   3.721 -0.8109  1.7633 -0.5161
  453TIP3   OH2 1322   2.330   3.829   4.826 -0.2719 -0.0428 -0.2666
  453TIP3    H1 1323   2.418   3.791   4.831 -0.2602 -0.1544 -1.1355
  453TIP3    H2 1324   2.335   3.891   4.754 -0.7262  0.4521  0.1211
  454TIP3   OH2 1325   6.791   1.085   5.498 -0.2716  0.1602  0.4697
  454TIP3    H1 1326   6.732   1.036   5.440  0.3910  0.0957 -0.1798
  454TIP3    H2 1327   6.737   1.153   5.536 -0.3737  1.3311 -1.6112
  455TIP3   OH2 1328   2.279   2.394   3.159 -1.3372  0.2142  0.0768
  455TIP3    H1 1329   2.255   2.466   3.101 -2.1726  1.0732  1.4286
  455TIP3    H2 1330   2.345   2.431   3.218 -0.1138 -0.7939 -0.6163
  456TIP3   OH2 1331   0.167   5.985   2.662 -0.2372  0.0105 -0.5610
  456TIP3    H1 1332   0.182   6.064   2.715 -0.8290 -0.4985  0.3947
  456TIP3    H2 1333   0.135   6.018   2.578  1.1128  0.8592 -0.7879
  457TIP3   OH2 1334   6.333   5.064   3.241 -0.3261  0.2246  0.0821
  457TIP3    H1 1335   6.243   5.094   3.230 -0.5623 -0.9906 -2.0357
  457TIP3    H2 1336   6.325   4.979   3.284 -0.2518 -0.0507 -0.4320
  458TIP3   OH2 1337   5.202   4.982   3.601 -0.2623 -0.0854  0.3768
  458TIP3    H1 1338   5.216   5.043   3.673  1.9652 -1.0641  0.8519
  458TIP3    H2 1339   5.194   5.038   3.524  0.1997  0.8698  1.0041
  459TIP3   OH2 1340   1.635   4.416   4.687  0.5628  0.7671  0.7579
  459TIP3    H1 1341   1.695   4.417   4.613 -1.0275  0.6034 -0.5778
  459TIP3    H2 1342   1.572   4.486   4.669 -0.7187 -0.2331  1.1900
  460TIP3   OH2 1343   2.563   0.289   1.557 -0.0732  0.1465  0.5927
  460TIP3    H1 1344   2.635   0.334   1.602 -0.5298  3.7722 -1.8818
  460TIP3    H2 1345   2.492   0.287   1.621  1.3263 -1.2756  2.2438
  461TIP3   OH2 1346   2.886   4.945   2.392  0.3797 -0.6007  0.1662
  461TIP3    H1 1347   2.827   4.887   2.440  0.1584 -0.2317  0.3404
  461TIP3    H2 1348   2.916   5.008   2.456  3.4660 -2.6035  0.8855
  462TIP3   OH2 1349   6.716   0.972   0.187 -0.6324  0.4418 -0.0242
  462TIP3    H1 1350   6.758   0.900   0.140  0.0729  0.3898  0.6671
  462TIP3    H2 1351   6.634   0.986   0.140 -0.6087 -0.5603 -0.3991
  463TIP3   OH2 1352   7.130   5.377   3.432 -0.2553 -0.0506  0.2662
  463TIP3    H1 1353   7.139   5.406   3.341  0.5790 -0.7736  0.0928
  463TIP3    H2 1354   7.120   5.457   3.482 -1.8362  0.3138 -0.5602
  464TIP3   OH2 1355   0.593   2.258   2.817 -0.0731  0.3917 -0.0190
  464TIP3    H1 1356   0.554   2.290   2.899 -1.1194 -0.8239 -0.0266
  464TIP3    H2 1357   0.584   2.163   2.821 -1.6779  0.3594 -2.2727
  465TIP3   OH2 1358   4.994   0.005   4.551  0.7861  0.3951  0.4296
  465TIP3    H1 1359   5.024   0.086   4.590  0.8151 -0.0300  1.3062
  465TIP3    H2 1360   5.003   0.019   4.457 -0.5437  1.9238  0.4830
  466TIP3   OH2 1361   0.755   6.451   3.146  0.1373  0.0069 -0.8740
  466TIP3    H1 1362   0.693   6.524   3.150  0.1623  0.1472  4.7692
  466TIP3    H2 1363   0.720   6.387   3.207  3.1827 -2.0457 -1.0778
  467TIP3   OH2 1364   4.066   5.727   2.218  0.0186 -0.3541  0.0541
  467TIP3    H1 1365   4.015   5.650   2.193 -1.3834  0.3257  0.6603
  467TIP3    H2 1366   4.104   5.705   2.303  0.4093 -0.7238 -0.2156
  468TIP3   OH2 1367   1.566   1.024   2.130  0.4051  0.6570 -0.1183
  468TIP3    H1 1368   1.645   0.979   2.161  0.7666  0.1913 -1.6093
  468TIP3    H2 1369   1.519   0.957   2.081  0.6838  1.7098 -1.9334
  469TIP3   OH2 1370   3.825   0.411   4.052  0.1829 -0.1127 -0.4256
  469TIP3    H1 1371   3.838   0.486   3.994  2.0778  0.8234  1.1366
  469TIP3    H2 1372   3.846   0.443   4.139  0.4651 -2.3096  0.3769
  470TIP3   OH2 1373   4.498   6.121   1.514 -0.0479 -0.2577  0.1281
  470TIP3    H1 1374   4.504   6.059   1.442 -4.2075 -0.8990  0.0874
  470TIP3    H2 1375   4.473   6.067   1.590  0.5630  0.8499  1.1518
  471TIP3   OH2 1376   0.276   0.606   3.624  0.3433 -0.2151 -0.0056
  471TIP3    H1 1377   0.355   0.644   3.665  1.3486 -1.4018 -0.7774
  471TIP3    H2 1378   0.253   0.669   3.556  1.5438 -0.5691 -0.7751
  472TIP3   OH2 1379   5.266   4.032   0.225 -0.2867  0.1531  0.0520
  472TIP3    H1 1380   5.258   3.953   0.173  0.1852  0.1033  0.0544
  472TIP3    H2 1381   5.176   4.061   0.239 -0.5041 -0.7276  0.5760
  473TIP3   OH2 1382   3.600   4.365   2.006 -0.4090  0.8919 -0.1339
  473TIP3    H1 1383   3.590   4.307   1.930 -0.9829  0.9917 -0.1387
  473TIP3    H2 1384   3.694   4.363   2.025 -0.6134 -1.4595  0.9837
  474TIP3   OH2 1385   0.449   0.204   4.546  0.1121  0.0904 -0.9294
  474TIP3    H1 1386   0.503   0.230   4.620 -0.2576  1.0285 -0.9701
  474TIP3    H2 1387   0.360   0.229   4.572 -0.3270 -1.5159 -0.8170
  475TIP3   OH2 1388   1.863   3.644   4.535 -0.4458  0.3012  0.0491
  475TIP3    H1 1389   1.889   3.683   4.452 -1.1576 -0.1528 -0.3959
  475TIP3    H2 1390   1.797   3.704   4.571 -1.5734 -0.4906 -0.6567
  476TIP3   OH2 1391   4.224   5.972   1.419  0.0882  0.9447  0.5079
  476TIP3    H1 1392   4.190   6.045   1.471  0.7424  1.2343  0.5440
  476TIP3    H2 1393   4.193   5.989   1.330 -0.7904  0.6039  0.7329
  477TIP3   OH2 1394   6.446   0.934   4.213  0.5414  0.1171 -0.2596
  477TIP3    H1 1395   6.491   0.962   4.292  0.6438 -0.5381 -0.0821
  477TIP3    H2 1396   6.434   0.839   4.224 -1.1919  0.3162 -0.1300
  478TIP3   OH2 1397   4.170   6.244   5.397 -0.1894 -0.0136  0.4111
  478TIP3    H1 1398   4.139   6.323   5.352 -0.5563 -0.8830 -0.9226
  478TIP3    H2 1399   4.105   6.228   5.465 -1.5789 -0.5911 -0.9821
  479TIP3   OH2 1400   3.160   0.808   5.310 -0.1687 -0.3269  0.1648
  479TIP3    H1 1401   3.113   0.857   5.377 -1.5272 -0.4400 -0.6746
  479TIP3    H2 1402   3.092   0.766   5.257  0.8938 -1.1487 -0.6140
  480TIP3   OH2 1403   1.719   5.826   5.898  0.0201 -0.1030 -0.6910
  480TIP3    H1 1404   1.754   5.779   5.823 -0.2604 -1.7604  0.1852
  480TIP3    H2 1405   1.629   5.846   5.873  0.0854 -0.1866 -1.0002
  481TIP3   OH2 1406   2.017   0.816   1.335  0.3939 -0.1936  0.7872
  481TIP3    H1 1407   2.109   0.839   1.326 -0.1646  1.7596 -0.6373
  481TIP3    H2 1408   1.975   0.895   1.369 -0.8993 -0.6867  0.4176
  482TIP3   OH2 1409   1.630   1.383   4.699 -0.0820 -0.6960  0.4277
  482TIP3    H1 1410   1.565   1.322   4.734 -0.0706 -2.0078 -1.6565
  482TIP3    H2 1411   1.714   1.338   4.709  0.0766 -0.5081 -0.0092
  483TIP3   OH2 1412   1.385   4.401   2.692 -0.0767 -0.9786 -0.2726
  483TIP3    H1 1413   1.409   4.492   2.709  0.9147 -0.9678 -1.5904
  483TIP3    H2 1414   1.296   4.406   2.657 -0.3623 -0.6091  0.4756
  484TIP3   OH2 1415   2.787   6.440   0.157 -0.1970 -0.0420  0.7314
  484TIP3    H1 1416   2.835   6.518   0.187 -0.3563 -0.2780  1.6239
  484TIP3    H2 1417   2.818   6.426   0.067 -0.1276  1.0201  0.5750
  485TIP3   OH2 1418   3.679   0.823   0.918 -0.3812  0.1589 -0.1201
  485TIP3    H1 1419   3.659   0.730   0.904  0.7748 -0.6100  2.6905
  485TIP3    H2 1420   3.602   0.858   0.962 -0.5860  0.4140 -0.6699
  486TIP3   OH2 1421   0.240   5.985   0.706 -0.0243  0.1613  0.0924
  486TIP3    H1 1422   0.296   5.946   0.639  1.0760 -0.2202  1.2004
  486TIP3    H2 1423   0.259   6.079   0.701  1.2107 -0.0299  0.8748
  487TIP3   OH2 1424   5.862   3.033   1.575  0.0655  0.1105 -0.0934
  487TIP3    H1 1425   5.871   3.031   1.479 -1.8498  0.4004 -0.3171
  487TIP3    H2 1426   5.805   2.959   1.595  2.2761 -1.3896  1.1204
  488TIP3   OH2 1427   0.447   6.070   4.362  0.3070 -0.2587  0.0738
  488TIP3    H1 1428   0.428   6.133   4.432 -1.0525 -0.8318  0.2418
  488TIP3    H2 1429   0.459   5.987   4.407  1.1475 -0.3153 -0.2365
  489TIP3   OH2 1430   2.144   0.702   3.298 -0.2487  0.1725  0.1637
  489TIP3    H1 1431   2.070   0.699   3.358 -0.1264 -1.9824  0.2782
  489TIP3    H2 1432   2.125   0.635   3.232  1.8946 -1.0052  0.6276
  490TIP3   OH2 1433   4.130   1.751   5.771  0.6415 -0.1572  0.0380
  490TIP3    H1 1434   4.086   1.692   5.709  0.9045 -1.0916  0.7227
  490TIP3    H2 1435   4.069   1.758   5.845  0.1053  1.3490 -0.5104
  491TIP3   OH2 1436   6.420   3.226   5.744 -0.1543  0.0495  0.2507
  491TIP3    H1 1437   6.420   3.194   5.835  1.6812  0.2648  0.3710
  491TIP3    H2 1438   6.343   3.282   5.739  0.2717  0.8867  2.0178
  492TIP3   OH2 1439   6.055   5.402   0.363  0.1284  0.2528  0.1808
  492TIP3    H1 1440   5.976   5.453   0.382 -0.1362  0.0080 -0.2453
  492TIP3    H2 1441   6.096   5.388   0.448  0.9969  2.4182  0.1659
  493TIP3   OH2 1442   5.083   6.704   4.120  0.2929  0.2927  0.0040
  493TIP3    H1 1443   5.079   6.682   4.027 -0.1178  0.4222 -0.0103
  493TIP3    H2 1444   5.085   6.800   4.122  0.2764  0.2913  0.1299
  494TIP3   OH2 1445   2.601   5.157   1.048 -0.0066  0.5897  0.3512
  494TIP3    H1 1446   2.696   5.149   1.054  0.0637  0.5279 -0.6026
  494TIP3    H2 1447   2.568   5.072   1.078  0.3936 -0.5465 -2.1681
  495TIP3   OH2 1448   1.467  -0.003   1.905  0.5920 -0.3132  0.0701
  495TIP3    H1 1449   1.382   0.009   1.947  0.7727 -1.1304  0.6856
  495TIP3    H2 1450   1.488   0.083   1.869 -1.2315 -0.4343 -1.4874
  496TIP3   OH2 1451   4.341   3.550   0.576 -0.1947  0.0101 -0.0160
  496TIP3    H1 1452   4.348   3.616   0.645 -0.8129  0.8630 -0.7461
  496TIP3    H2 1453   4.294   3.594   0.505 -0.8307 -1.2879 -0.4366
  497TIP3   OH2 1454   1.362   3.984   2.839 -0.6764 -0.6927  0.2285
  497TIP3    H1 1455   1.382   4.076   2.856 -1.1593 -0.6321  0.4766
  497TIP3    H2 1456   1.417   3.936   2.901 -1.6169 -0.5065  1.2433
  498TIP3   OH2 1457   5.052   5.637   2.991  0.3168 -0.2669  0.0742
  498TIP3    H1 1458   5.044   5.720   3.040 -0.3610 -0.3776  0.1529
  498TIP3    H2 1459   5.005   5.653   2.909  0.2873 -0.5364  0.0395
  499TIP3   OH2 1460   0.449   0.572   3.289 -0.2817  0.2964 -0.3715
  499TIP3    H1 1461   0.472   0.559   3.381 -0.3255  3.5815  0.2451
  499TIP3    H2 1462   0.500   0.649   3.262 -1.3254  0.2814 -2.6559
  500TIP3   OH2 1463   3.594   6.107   0.804  0.2529  0.0294  0.8397
  500TIP3    H1 1464   3.527   6.051   0.843  0.4799  0.1715  1.4581
  500TIP3    H2 1465   3.674   6.054   0.808  0.1124 -0.2765 -0.2267
  501TIP3   OH2 1466   5.190   6.605   5.164  0.3825  0.0360  0.5305
  501TIP3    H1 1467   5.279   6.572   5.155  0.9733  1.8179 -0.7237
  501TIP3    H2 1468   5.151   6.593   5.078 -1.1101 -1.9547  1.3975
  502TIP3   OH2 1469   3.633   6.029   5.171  0.0312 -0.9633 -0.5999
  502TIP3    H1 1470   3.579   5.957   5.206  1.7973 -1.5018  1.2255
  502TIP3    H2 1471   3.701   5.984   5.120 -0.4253 -0.3668 -1.7792
  503TIP3   OH2 1472   5.355   5.017   4.240  0.2542 -0.0494  0.0851
  503TIP3    H1 1473   5.311   5.098   4.266  0.7570  0.0633  0.6105
  503TIP3    H2 1474   5.339   5.011   4.146 -1.0069 -0.0996  0.2838
  504TIP3   OH2 1475   6.657   4.653   0.048  0.0405 -0.2195  0.5196
  504TIP3    H1 1476   6.642   4.724   0.110  0.7412 -0.4949  1.0218
  504TIP3    H2 1477   6.713   4.692  -0.019  1.4466 -0.5761  1.4217
  505TIP3   OH2 1478   1.345   0.601   2.085  0.1709 -0.4058  0.3955
  505TIP3    H1 1479   1.381   0.521   2.123  1.5306  0.9720  2.1659
  505TIP3    H2 1480   1.301   0.572   2.005  1.2322 -2.8027  0.6099
  506TIP3   OH2 1481   3.724   2.531   3.913 -0.0450 -0.7609 -0.2636
  506TIP3    H1 1482   3.786   2.534   3.840  0.5448  1.9242  0.2558
  506TIP3    H2 1483   3.640   2.553   3.873  0.6124  2.8989  0.0283
  507TIP3   OH2 1484   4.670   6.767   3.290 -0.1830 -0.2037  0.4078
  507TIP3    H1 1485   4.638   6.815   3.366  0.0292 -0.3127  0.5672
  507TIP3    H2 1486   4.748   6.815   3.261 -1.5916  1.2582 -1.2207
  508TIP3   OH2 1487   2.776   4.097   2.944 -0.1296  0.2596  0.0512
  508TIP3    H1 1488   2.729   4.029   2.896  0.3291  0.3366 -0.5078
  508TIP3    H2 1489   2.707   4.145   2.991 -0.6859  0.7309 -1.2111
  509TIP3   OH2 1490   6.763   6.070   5.689 -0.2754  0.0887  0.0687
  509TIP3    H1 1491   6.777   5.988   5.737  2.7524  0.3696 -0.0953
  509TIP3    H2 1492   6.804   6.054   5.603  0.1371  1.6533 -0.0518
  510TIP3   OH2 1493   6.117   6.196   0.439  0.3586  0.2174  0.7934
  510TIP3    H1 1494   6.176   6.253   0.390  0.7312 -1.0026 -0.2263
  510TIP3    H2 1495   6.071   6.255   0.500 -0.9220  2.0195 -1.7396
  511TIP3   OH2 1496   5.915   1.216   2.782  0.4379  0.8803  0.2328
  511TIP3    H1 1497   5.887   1.185   2.696  0.5150 -0.8780  0.8031
  511TIP3    H2 1498   5.843   1.192   2.840 -0.0376  2.9046  0.5457
  512TIP3   OH2 1499   6.136   3.092   3.630  0.2091  0.6169  0.5977
  512TIP3    H1 1500   6.136   3.187   3.630  1.5800  0.6619 -0.7315
  512TIP3    H2 1501   6.157   3.067   3.720 -0.0238  1.5584  0.9228
  513TIP3   OH2 1502   6.681   6.536   1.902 -0.0963 -0.5961  0.5122
  513TIP3    H1 1503   6.595   6.577   1.901 -0.6870 -1.7653  1.3539
  513TIP3    H2 1504   6.673   6.464   1.965  1.4159 -0.8863  0.4107
  514TIP3   OH2 1505   2.344   6.714   5.013 -0.1030  0.3027 -0.4859
  514TIP3    H1 1506   2.319   6.710   4.921 -0.9637 -0.6098 -0.2345
  514TIP3    H2 1507   2.391   6.632   5.028 -0.5287  0.1533  0.0384
  515TIP3   OH2 1508   0.518   6.691   5.680  0.1238  0.5516  0.0036
  515TIP3    H1 1509   0.443   6.738   5.644 -0.7029 -2.0145 -1.9944
  515TIP3    H2 1510   0.582   6.691   5.609  0.4648 -0.4608  0.2972
  516TIP3   OH2 1511   0.363   1.270   2.031  0.3469  0.4720  0.5843
  516TIP3    H1 1512   0.441   1.291   1.980 -0.1495  1.6287  0.2817
  516TIP3    H2 1513   0.379   1.181   2.062  1.2083  0.1935 -0.5654
  517TIP3   OH2 1514   7.196   4.318   2.682  0.1729 -0.2186  0.1217
  517TIP3    H1 1515   7.147   4.241   2.709 -1.1289  0.5444  0.0162
  517TIP3    H2 1516   7.210   4.367   2.763 -2.1421  1.1661 -0.2215
  518TIP3   OH2 1517   0.075   6.096   1.167  0.1112 -0.1199  0.0628
  518TIP3    H1 1518   0.013   6.028   1.143  1.5248 -1.4410 -0.0182
  518TIP3    H2 1519   0.078   6.154   1.090  0.0316 -0.8463 -0.5009
  519TIP3   OH2 1520   4.264   6.302   1.624  0.3821  0.1758  0.3359
  519TIP3    H1 1521   4.297   6.232   1.680  0.1398  0.5224  0.9156
  519TIP3    H2 1522   4.169   6.291   1.626  0.3425  0.5209  0.4271
  520TIP3   OH2 1523   1.172   6.601   1.057  0.4222 -0.1333  0.9640
  520TIP3    H1 1524   1.188   6.640   0.971 -0.7313 -2.9462 -0.6340
  520TIP3    H2 1525   1.241   6.638   1.113  1.4948  1.4313 -1.2299
  521TIP3   OH2 1526   6.294   1.964   4.134  0.0647  0.0952  0.3117
  521TIP3    H1 1527   6.233   1.897   4.105 -1.0769  0.2108  2.2847
  521TIP3    H2 1528   6.336   1.927   4.212  0.7298  0.9841  0.4029
  522TIP3   OH2 1529   7.239   4.869   4.230 -0.7278  0.2633 -0.3274
  522TIP3    H1 1530   7.248   4.857   4.325 -0.4054  2.0222 -0.0984
  522TIP3    H2 1531   7.145   4.886   4.217 -0.8415 -0.3923 -0.3867
  523TIP3   OH2 1532   5.769   5.354   5.417 -0.3064  0.4455 -0.3515
  523TIP3    H1 1533   5.768   5.344   5.513 -0.8699 -0.7362 -0.4575
  523TIP3    H2 1534   5.852   5.397   5.399  1.0351 -1.5766  0.5135
  524TIP3   OH2 1535   6.946   2.674   3.041 -0.3836 -0.4129 -0.1291
  524TIP3    H1 1536   6.891   2.750   3.064 -0.3320 -1.1015  2.6714
  524TIP3    H2 1537   6.888   2.599   3.051  0.3617 -0.9514  0.2603
  525TIP3   OH2 1538   4.289   4.500   4.517 -0.0506  0.1729  0.0744
  525TIP3    H1 1539   4.200   4.531   4.505 -0.9900  0.0417  4.8240
  525TIP3    H2 1540   4.281   4.405   4.521  0.4534  0.1116 -0.2827
  526TIP3   OH2 1541   5.963   6.065   2.098  0.3865 -0.2188  0.1497
  526TIP3    H1 1542   5.940   5.976   2.074  0.8084 -0.9518  2.2223
  526TIP3    H2 1543   6.050   6.058   2.137  0.7273  1.2158 -0.2766
  527TIP3   OH2 1544   2.063   5.047   3.159  0.4564 -0.2489  0.4443
  527TIP3    H1 1545   2.146   5.065   3.113  1.0152  1.3704  1.9742
  527TIP3    H2 1546   2.086   4.982   3.225  0.4789  0.0746  0.7577
  528TIP3   OH2 1547   5.149   6.097   0.905  0.3525 -0.0379 -0.4931
  528TIP3    H1 1548   5.240   6.106   0.933 -0.3450  0.4980  1.8761
  528TIP3    H2 1549   5.145   6.011   0.864  1.7392 -0.4452  0.1647
  529TIP3   OH2 1550   0.888   5.209   3.645 -0.1463 -0.1568 -0.0193
  529TIP3    H1 1551   0.830   5.279   3.615 -0.5787 -0.4613  0.0920
  529TIP3    H2 1552   0.968   5.221   3.594 -0.5795 -0.1804 -0.7183
  530TIP3   OH2 1553   5.758   6.550   0.868 -0.0926 -0.4903  0.3628
  530TIP3    H1 1554   5.817   6.578   0.798  1.6045 -0.7825  1.5913
  530TIP3    H2 1555   5.761   6.622   0.931  0.5930 -1.3807  1.3777
  531TIP3   OH2 1556   5.182   6.823   3.788 -0.3752 -0.3296 -0.2026
  531TIP3    H1 1557   5.168   6.808   3.695  0.8800 -2.5035 -0.1199
  531TIP3    H2 1558   5.221   6.741   3.820  0.3721  0.7837  1.9813
  532TIP3   OH2 1559   3.223   0.198   1.436  0.1785  0.1516  0.4243
  532TIP3    H1 1560   3.156   0.184   1.503 -2.0740  0.4159 -1.6085
  532TIP3    H2 1561   3.203   0.132   1.369  1.6495  0.5896 -0.4964
  533TIP3   OH2 1562   3.697   0.486   3.783 -0.2526 -0.3711  0.7763
  533TIP3    H1 1563   3.653   0.566   3.812  0.4321  0.5906 -0.7104
  533TIP3    H2 1564   3.750   0.513   3.708 -1.6335 -2.5949 -1.1843
  534TIP3   OH2 1565   4.573   1.243   4.523 -0.5846  0.0091  0.0171
  534TIP3    H1 1566   4.554   1.161   4.569  0.7616 -1.0141 -1.1324
  534TIP3    H2 1567   4.657   1.226   4.478  0.2643  2.3814  0.5758
  535TIP3   OH2 1568   5.037   0.930   2.429 -0.5743 -0.1449  0.5791
  535TIP3    H1 1569   4.983   0.960   2.356 -0.1223  1.9774  1.0282
  535TIP3    H2 1570   5.031   1.001   2.494  0.3555 -1.2129  1.8952
  536TIP3   OH2 1571   1.990   4.353   0.765 -0.1112  0.1350 -0.1840
  536TIP3    H1 1572   1.947   4.400   0.693 -0.8302 -1.1182 -0.6070
  536TIP3    H2 1573   1.922   4.346   0.832  0.3338  0.6472  0.3273
  537TIP3   OH2 1574   0.319   1.140   5.726  0.0003  0.6291 -0.5557
  537TIP3    H1 1575   0.264   1.071   5.763 -1.4160  1.0999 -1.6842
  537TIP3    H2 1576   0.342   1.107   5.639  0.3785  1.0202 -0.6022
  538TIP3   OH2 1577   0.244   2.370   4.324 -0.0477 -0.0469 -0.1418
  538TIP3    H1 1578   0.336   2.373   4.351 -0.0845  0.7475 -0.0703
  538TIP3    H2 1579   0.196   2.354   4.405 -0.0052  0.0384 -0.0994
  539TIP3   OH2 1580   3.538   3.118   5.477 -0.1267 -0.0586 -0.2399
  539TIP3    H1 1581   3.525   3.197   5.424  4.5569  1.3055  0.1388
  539TIP3    H2 1582   3.578   3.056   5.416  0.4152 -0.4224  0.4811
  540TIP3   OH2 1583   1.622   3.027   2.404 -0.3465 -0.0069  0.3608
  540TIP3    H1 1584   1.626   2.944   2.451 -0.8749 -0.5873 -0.5824
  540TIP3    H2 1585   1.609   3.092   2.472  0.9213 -0.5858  1.2060
  541TIP3   OH2 1586   4.043   1.439   5.763  0.1801  0.0297 -0.1793
  541TIP3    H1 1587   4.065   1.364   5.708 -0.8471  0.2558 -0.9360
  541TIP3    H2 1588   4.015   1.400   5.846 -1.2604 -0.5096 -0.8786
  542TIP3   OH2 1589   1.264   3.420   3.180 -0.0029 -0.3798  0.1003
  542TIP3    H1 1590   1.177   3.379   3.182 -0.5792  0.7877  0.1104
  542TIP3    H2 1591   1.303   3.390   3.098 -1.0013  0.1959 -0.6055
  543TIP3   OH2 1592   6.757   2.241   2.035 -0.2500  0.1753 -0.0642
  543TIP3    H1 1593   6.673   2.287   2.041 -1.0636 -1.3363  0.4473
  543TIP3    H2 1594   6.807   2.274   2.110 -0.5283  0.7691 -0.1294
  544TIP3   OH2 1595   4.588   1.756   2.541  0.1805 -0.2255  0.3633
  544TIP3    H1 1596   4.581   1.847   2.570  0.8149 -0.2018  0.4508
  544TIP3    H2 1597   4.636   1.760   2.458  2.0764 -0.6373  1.3860
  545TIP3   OH2 1598   6.628   6.000   5.076  0.4481 -0.2034  0.3591
  545TIP3    H1 1599   6.588   6.064   5.017  0.0670 -1.8716 -1.2898
  545TIP3    H2 1600   6.722   6.022   5.074  0.4159 -0.1053 -0.7352
  546TIP3   OH2 1601   1.484   6.223   0.673 -0.1500 -0.5032 -0.9265
  546TIP3    H1 1602   1.565   6.203   0.627  0.0201 -1.8065 -0.1326
  546TIP3    H2 1603   1.511   6.266   0.754 -0.2865 -0.3773 -0.9469
  547TIP3   OH2 1604   0.072   1.803   1.087 -0.1084  0.0803  0.3257
  547TIP3    H1 1605   0.118   1.865   1.031  0.0635  0.1572  0.5546
  547TIP3    H2 1606  -0.020   1.812   1.062  0.1445 -1.2142 -1.2713
  548TIP3   OH2 1607   4.980   4.727   1.604 -0.0457 -0.4576 -0.4309
  548TIP3    H1 1608   4.927   4.731   1.524 -0.7540  1.3383  0.0907
  548TIP3    H2 1609   5.040   4.802   1.596  0.0749 -0.4404  0.5840
  549TIP3   OH2 1610   7.140   5.648   2.981  0.3313 -0.2685 -0.1649
  549TIP3    H1 1611   7.151   5.738   2.953 -0.4494  0.1726  0.8596
  549TIP3    H2 1612   7.050   5.626   2.955  0.6050 -0.8461 -0.6454
  550TIP3   OH2 1613   3.249   4.863   3.326 -0.1975 -0.3918 -0.2155
  550TIP3    H1 1614   3.228   4.891   3.237  0.8735 -0.5569 -0.5299
  550TIP3    H2 1615   3.328   4.810   3.316 -0.1607 -0.5422  0.8187
  551TIP3   OH2 1616   1.612   6.629   2.386  0.4592  0.0484 -0.0394
  551TIP3    H1 1617   1.700   6.661   2.409  0.1384  0.4574  0.6451
  551TIP3    H2 1618   1.621   6.534   2.386  1.1462  0.0987 -0.9614
  552TIP3   OH2 1619   2.812   6.366   5.426 -0.2046  0.5003 -0.1958
  552TIP3    H1 1620   2.802   6.452   5.386  0.8156  0.4989 -0.4886
  552TIP3    H2 1621   2.863   6.316   5.362 -2.1766 -0.8653 -0.7857
  553TIP3   OH2 1622   6.832   5.031   4.604  0.2531  0.0554  0.1609
  553TIP3    H1 1623   6.801   5.091   4.536  0.7427  0.1124 -0.0085
  553TIP3    H2 1624   6.878   4.962   4.557 -1.8154 -1.4508  0.1789
  554TIP3   OH2 1625   0.864   5.223   4.338  1.1013 -0.3063 -0.2237
  554TIP3    H1 1626   0.882   5.306   4.294  1.2731 -0.7141 -0.9349
  554TIP3    H2 1627   0.948   5.178   4.342  0.8744 -0.7676 -0.5104
  555TIP3   OH2 1628   3.898   3.932   5.013  0.6197 -0.6268  0.4362
  555TIP3    H1 1629   3.805   3.927   5.034  0.2750 -0.9251 -1.0804
  555TIP3    H2 1630   3.901   3.943   4.918  2.1445 -1.6022  0.3403
  556TIP3   OH2 1631   3.137   6.280   4.158  0.0863  0.2802  0.1992
  556TIP3    H1 1632   3.064   6.234   4.116 -0.6890  1.6758 -0.0360
  556TIP3    H2 1633   3.201   6.292   4.087 -0.3374  0.8374 -0.0935
  557TIP3   OH2 1634   1.982   4.509   1.623 -0.0845  0.1786 -0.4605
  557TIP3    H1 1635   1.973   4.601   1.647 -1.4849 -0.0285 -0.1125
  557TIP3    H2 1636   1.906   4.491   1.567 -0.0938 -0.8837 -0.1276
  558TIP3   OH2 1637   5.113   1.466   0.063  0.7545  0.1078  0.5350
  558TIP3    H1 1638   5.036   1.506   0.104  1.8214  0.4949  2.2871
  558TIP3    H2 1639   5.155   1.537   0.015  1.2508  0.4973  1.5119
  559TIP3   OH2 1640   5.094   0.182   4.777 -0.0784  0.1639  0.3269
  559TIP3    H1 1641   5.184   0.205   4.752  0.1610 -0.1415  0.8807
  559TIP3    H2 1642   5.105   0.108   4.836 -0.8554 -2.0061 -2.0713
  560TIP3   OH2 1643   4.365   4.660   5.192 -0.0469  0.2849  0.1232
  560TIP3    H1 1644   4.285   4.609   5.178  0.3648 -0.1800 -0.5262
  560TIP3    H2 1645   4.333   4.750   5.205 -0.6600  0.1579 -0.4517
  561TIP3   OH2 1646   4.053   1.918   1.807  0.6515  0.0367 -0.2224
  561TIP3    H1 1647   4.135   1.966   1.795  0.4470 -0.0270 -2.1782
  561TIP3    H2 1648   3.987   1.987   1.821  0.6559  0.2497 -1.1780
  562TIP3   OH2 1649   3.299   4.378   5.509  0.0814  0.2958 -0.0524
  562TIP3    H1 1650   3.244   4.330   5.571 -0.4452  1.6643  0.5695
  562TIP3    H2 1651   3.381   4.392   5.555  0.1659  0.1821 -0.1655
  563TIP3   OH2 1652   2.305   0.930   3.049  0.1409 -0.2767  0.0018
  563TIP3    H1 1653   2.272   1.011   3.007 -0.2670  0.0481  0.9196
  563TIP3    H2 1654   2.250   0.861   3.012  0.4522 -0.1404 -0.7477
  564TIP3   OH2 1655   4.286   4.502   0.925  0.4674  0.0039 -0.2192
  564TIP3    H1 1656   4.380   4.512   0.941  0.5447 -1.2656  0.2949
  564TIP3    H2 1657   4.245   4.564   0.986  0.9632  0.5976 -0.4760
  565TIP3   OH2 1658   6.222   3.218   1.986  0.0462 -0.0604  0.0376
  565TIP3    H1 1659   6.133   3.199   2.015  0.1902  0.9943  1.2452
  565TIP3    H2 1660   6.278   3.165   2.043  0.2047 -0.8763 -0.8498
  566TIP3   OH2 1661   2.588   0.151   0.510 -0.4351  0.7558 -0.1510
  566TIP3    H1 1662   2.507   0.170   0.556 -2.2549 -1.0910 -2.3522
  566TIP3    H2 1663   2.612   0.063   0.539  0.7301  1.2187  0.3476
  567TIP3   OH2 1664   5.021   5.324   5.744  0.1299 -0.2419 -0.1684
  567TIP3    H1 1665   5.069   5.241   5.745  1.0752  0.3051  1.0255
  567TIP3    H2 1666   5.052   5.372   5.821 -1.6231  0.5450  0.0991
  568TIP3   OH2 1667   7.243   6.776   5.085  0.0217  0.4735 -0.1906
  568TIP3    H1 1668   7.151   6.802   5.084 -0.2480 -0.4508  0.4293
  568TIP3    H2 1669   7.243   6.687   5.120  1.0758  0.1659 -0.9225
  569TIP3   OH2 1670   1.871   4.119   3.577  0.2082  0.4524 -0.5047
  569TIP3    H1 1671   1.856   4.025   3.567 -0.8455  0.4757  0.6530
  569TIP3    H2 1672   1.792   4.159   3.542  0.4847  0.9041 -0.6197
  570TIP3   OH2 1673   5.209   1.612   2.415  0.1570 -0.4066  0.3968
  570TIP3    H1 1674   5.235   1.546   2.479 -0.1325 -1.0024 -0.0997
  570TIP3    H2 1675   5.284   1.618   2.355 -0.6046 -1.7504 -0.7321
  571TIP3   OH2 1676   5.247   6.017   2.832  0.0095  0.3253 -0.4006
  571TIP3    H1 1677   5.292   6.032   2.915 -0.4280 -0.8636  0.0781
  571TIP3    H2 1678   5.304   5.957   2.784 -1.1441 -1.4444  0.3412
  572TIP3   OH2 1679   1.226   0.437   1.629 -0.3314  0.4031  0.2496
  572TIP3    H1 1680   1.195   0.347   1.621  0.5637 -0.2609  3.1395
  572TIP3    H2 1681   1.160   0.489   1.583 -0.2443 -1.7397 -2.5643
  573TIP3   OH2 1682   0.217   4.522   4.783 -0.0903  0.0254  0.5990
  573TIP3    H1 1683   0.184   4.557   4.866 -1.5587  0.4316 -0.1235
  573TIP3    H2 1684   0.156   4.555   4.717  0.8325 -0.5982 -0.6067
  574TIP3   OH2 1685   0.793   2.596   5.183 -0.1599 -0.2076  0.0258
  574TIP3    H1 1686   0.768   2.556   5.266 -0.6828 -1.0076 -0.5085
  574TIP3    H2 1687   0.880   2.632   5.200  0.0369 -0.9774  0.7215
  575TIP3   OH2 1688   2.195   6.085   3.783 -0.2432 -0.0841  0.5859
  575TIP3    H1 1689   2.252   6.157   3.756 -0.3025 -0.7727 -1.5558
  575TIP3    H2 1690   2.108   6.125   3.792 -0.0504  0.3279  0.6476
  576TIP3   OH2 1691   1.459   3.618   0.109  0.7312 -0.0895 -0.6932
  576TIP3    H1 1692   1.476   3.703   0.149 -1.1454  0.5861 -1.2323
  576TIP3    H2 1693   1.404   3.571   0.172  1.1012 -0.5963 -0.7375
  577TIP3   OH2 1694   2.655   6.744   0.423  0.2857  0.6398 -0.0008
  577TIP3    H1 1695   2.564   6.750   0.391 -0.1906 -0.5581  1.0804
  577TIP3    H2 1696   2.683   6.656   0.398  1.1318  0.9689 -0.2311
  578TIP3   OH2 1697   0.583   2.087   5.255  0.4855  0.0519 -0.1202
  578TIP3    H1 1698   0.667   2.049   5.228  0.0722 -0.2694 -0.9814
  578TIP3    H2 1699   0.538   2.106   5.173  0.3335  1.6438  0.2872
  579TIP3   OH2 1700   3.630   2.197   4.506 -0.2154 -0.3621  0.1409
  579TIP3    H1 1701   3.537   2.218   4.494 -0.3478 -1.6236 -1.2360
  579TIP3    H2 1702   3.636   2.103   4.491  1.4759 -0.1189 -1.0472
  580TIP3   OH2 1703   0.942   4.035   0.590  0.1103  0.1903 -0.2823
  580TIP3    H1 1704   0.985   4.057   0.507 -0.7396 -1.7075 -1.2906
  580TIP3    H2 1705   0.849   4.048   0.573 -0.0068  0.7881  0.7389
  581TIP3   OH2 1706   2.513   5.478   3.311  0.0691  0.2977  0.5014
  581TIP3    H1 1707   2.494   5.547   3.246 -0.1567 -0.3149 -0.0998
  581TIP3    H2 1708   2.512   5.397   3.260 -1.6739 -0.3873  1.5261
  582TIP3   OH2 1709   5.130   6.398   1.394  0.1948  0.2060 -0.0841
  582TIP3    H1 1710   5.157   6.453   1.321  0.4604 -0.2197 -0.3031
  582TIP3    H2 1711   5.048   6.438   1.424 -1.5685 -1.3132 -2.5002
  583TIP3   OH2 1712   6.552   4.244   2.698 -0.1605 -0.4708  0.4269
  583TIP3    H1 1713   6.641   4.278   2.709 -0.5893  1.0941 -0.6048
  583TIP3    H2 1714   6.564   4.161   2.652  0.7509  0.0678 -0.3509
  584TIP3   OH2 1715   1.551   4.517   4.096 -0.5361 -0.3358  0.0567
  584TIP3    H1 1716   1.538   4.575   4.020  3.0824  1.3780  0.5624
  584TIP3    H2 1717   1.526   4.430   4.064  1.3123  0.2093 -3.3614
  585TIP3   OH2 1718   3.478   4.070   1.395  0.4672  0.8564  0.5430
  585TIP3    H1 1719   3.423   3.995   1.415  0.5557  1.3857  3.1505
  585TIP3    H2 1720   3.500   4.060   1.302  1.7346 -3.1749  1.0701
  586TIP3   OH2 1721   5.606   0.436   2.918 -0.0657  0.7832  0.0320
  586TIP3    H1 1722   5.556   0.515   2.896 -0.5794  0.3363 -0.4583
  586TIP3    H2 1723   5.554   0.394   2.987 -0.0419  0.6296 -0.0439
  587TIP3   OH2 1724   3.109   3.871   1.848  0.1388 -0.4621 -0.4710
  587TIP3    H1 1725   3.055   3.885   1.770 -1.5407 -0.5176  0.6377
  587TIP3    H2 1726   3.154   3.954   1.862  0.0932 -0.3036 -1.2247
  588TIP3   OH2 1727   3.123   4.696   5.732  0.0089  0.5046  0.2818
  588TIP3    H1 1728   3.089   4.643   5.661  0.7805 -0.3111  0.5143
  588TIP3    H2 1729   3.068   4.673   5.807 -0.8389  1.4039 -0.0338
  589TIP3   OH2 1730   6.378   3.551   4.026 -0.0620  0.1982  0.2296
  589TIP3    H1 1731   6.379   3.577   3.933  0.9866 -0.9145 -0.0958
  589TIP3    H2 1732   6.446   3.605   4.066 -0.4374  0.5987  0.3273
  590TIP3   OH2 1733   5.484   1.555   2.747 -0.3612 -0.3540 -0.8620
  590TIP3    H1 1734   5.558   1.532   2.691 -0.0226 -0.3710 -0.4183
  590TIP3    H2 1735   5.520   1.554   2.836 -0.8094 -0.0216 -0.6693
  591TIP3   OH2 1736   2.709   6.166   2.557  0.1351  0.0235 -0.2702
  591TIP3    H1 1737   2.641   6.103   2.581  0.5110 -0.3894 -0.2588
  591TIP3    H2 1738   2.689   6.189   2.466  0.8673 -1.2980 -0.7962
  592TIP3   OH2 1739   6.272   4.469   5.242 -0.6307  0.0542  0.1822
  592TIP3    H1 1740   6.284   4.468   5.147  0.4209 -0.8129  0.2965
  592TIP3    H2 1741   6.181   4.443   5.255 -0.7461  0.0529 -0.5901
  593TIP3   OH2 1742   3.179   1.375   5.234 -0.4209 -0.4790 -0.1435
  593TIP3    H1 1743   3.125   1.437   5.186 -0.9403 -1.4148 -0.7824
  593TIP3    H2 1744   3.261   1.370   5.184  0.8613  1.8968  1.4911
  594TIP3   OH2 1745   1.848   4.187   3.186  0.5537  0.1642  0.3755
  594TIP3    H1 1746   1.826   4.263   3.133  0.7332 -1.2373 -1.8637
  594TIP3    H2 1747   1.763   4.145   3.202  0.7459 -1.4932 -2.2877
  595TIP3   OH2 1748   5.844   5.278   1.502  0.3176  0.2492 -0.0798
  595TIP3    H1 1749   5.791   5.297   1.579  1.1540 -0.8291  0.7938
  595TIP3    H2 1750   5.928   5.320   1.521  0.4786  0.1092 -0.4821
  596TIP3   OH2 1751   3.575   1.971   4.779  0.2505 -0.6967 -0.0689
  596TIP3    H1 1752   3.509   1.979   4.848  1.8860 -0.5643  1.5488
  596TIP3    H2 1753   3.586   1.877   4.768  0.7316 -0.7302  0.6279
  597TIP3   OH2 1754   4.283   5.127   3.120  0.0760  0.3865  0.0021
  597TIP3    H1 1755   4.282   5.207   3.174 -0.1981  1.4695 -1.5415
  597TIP3    H2 1756   4.197   5.088   3.134  0.5263 -0.1470  1.4546
  598TIP3   OH2 1757   0.818   5.451   3.241 -1.0603  0.2551 -0.1220
  598TIP3    H1 1758   0.885   5.492   3.295 -0.4358  0.6545 -1.1746
  598TIP3    H2 1759   0.866   5.406   3.172 -1.7477 -1.7456  0.5964
  599TIP3   OH2 1760   5.326   3.280   0.565 -0.0505  1.0364 -0.0515
  599TIP3    H1 1761   5.347   3.323   0.483  1.4320  1.7267  0.6718
  599TIP3    H2 1762   5.373   3.197   0.562 -0.1138  0.9952  0.0486
  600TIP3   OH2 1763   1.346   4.659   4.319  0.4909  0.1506 -0.0527
  600TIP3    H1 1764   1.403   4.699   4.385  0.2937  0.0694  0.1672
  600TIP3    H2 1765   1.365   4.707   4.239 -0.5403  1.4220  0.4452
  601TIP3   OH2 1766   7.178   0.420   2.181  0.1703  0.3994 -0.0006
  601TIP3    H1 1767   7.172   0.329   2.211  0.6303  0.2148 -0.4624
  601TIP3    H2 1768   7.094   0.458   2.206 -0.3414 -0.3638 -0.4818
  602TIP3   OH2 1769   1.350   5.788   4.509 -0.3458  0.6210 -0.4953
  602TIP3    H1 1770   1.389   5.706   4.476 -1.9915 -1.0521  1.4550
  602TIP3    H2 1771   1.262   5.789   4.472 -2.1975 -1.2238  3.2522
  603TIP3   OH2 1772   2.416   0.057   0.836 -0.1398 -0.2950  0.0495
  603TIP3    H1 1773   2.338   0.096   0.797 -0.5476  0.3831  1.4492
  603TIP3    H2 1774   2.405  -0.038   0.824 -0.0016 -0.1077 -1.8317
  604TIP3   OH2 1775   5.692   4.550   3.261  0.4245  0.7459 -0.1258
  604TIP3    H1 1776   5.724   4.636   3.235  2.2528  0.4563  0.9389
  604TIP3    H2 1777   5.753   4.489   3.219  0.7330  0.1160  1.1690
  605TIP3   OH2 1778   0.386   1.838   0.480  0.2878  0.2812 -0.2261
  605TIP3    H1 1779   0.443   1.770   0.445  0.0524 -0.3028  0.4850
  605TIP3    H2 1780   0.423   1.920   0.448  1.5224 -0.0834  0.1989
  606TIP3   OH2 1781   0.160   0.067   0.896  0.1502  0.2804 -0.0312
  606TIP3    H1 1782   0.198   0.103   0.976 -0.1204  0.5827 -0.0411
  606TIP3    H2 1783   0.081   0.118   0.881 -0.4457 -0.5650  0.1738
  607TIP3   OH2 1784   1.623   2.769   0.345 -0.2686  0.0790 -0.3362
  607TIP3    H1 1785   1.643   2.780   0.252  2.6652  3.7293  0.4764
  607TIP3    H2 1786   1.539   2.814   0.356 -0.6415 -0.3808 -1.2060
  608TIP3   OH2 1787   2.371   2.101   3.531 -0.1987  0.1846  0.2427
  608TIP3    H1 1788   2.296   2.044   3.547  1.5598 -2.3153  0.0151
  608TIP3    H2 1789   2.445   2.042   3.521  1.2712  2.2887 -3.1332
  609TIP3   OH2 1790   6.821   4.979   1.892  0.3097  0.5839  0.2515
  609TIP3    H1 1791   6.798   5.072   1.888 -2.3930 -0.0349 -1.8303
  609TIP3    H2 1792   6.888   4.968   1.825  1.1502  1.1173  0.9891
  610TIP3   OH2 1793   2.052   2.221   1.438 -0.6261  0.0971  1.1775
  610TIP3    H1 1794   2.022   2.280   1.369  2.9047  1.0081  0.2112
  610TIP3    H2 1795   2.019   2.135   1.412 -1.0915  0.7505 -0.5237
  611TIP3   OH2 1796   5.981   6.419   0.596 -0.2796  0.2404  0.2824
  611TIP3    H1 1797   5.934   6.496   0.630 -0.7976  0.3942 -0.7502
  611TIP3    H2 1798   6.010   6.372   0.675  1.0444  2.0734  0.9553
  612TIP3   OH2 1799   1.022   0.661   3.033 -0.5483  0.0039 -0.3052
  612TIP3    H1 1800   1.003   0.594   3.099 -0.2461 -0.3405 -0.5651
  612TIP3    H2 1801   0.979   0.740   3.066 -1.2275 -0.4100 -0.1864
  613TIP3   OH2 1802   1.607   4.999   4.245  0.2959  0.0169  0.0663
  613TIP3    H1 1803   1.646   4.915   4.270  1.5520  0.5852  0.1033
  613TIP3    H2 1804   1.651   5.021   4.163 -0.9251  0.0633 -0.5899
  614TIP3   OH2 1805   1.581   6.442   0.076  0.1373  0.0322 -0.5992
  614TIP3    H1 1806   1.503   6.498   0.081 -0.2195 -0.3441 -1.5152
  614TIP3    H2 1807   1.566   6.374   0.142 -0.4406 -0.1725 -0.9290
  615TIP3   OH2 1808   6.120   4.204   2.441 -0.2012 -0.0301 -0.1651
  615TIP3    H1 1809   6.113   4.196   2.536 -0.3917  1.1358 -0.0701
  615TIP3    H2 1810   6.107   4.115   2.408  0.1014 -0.4849  0.9090
  616TIP3   OH2 1811   7.037   0.294   4.042  0.2240  0.5097 -0.0021
  616TIP3    H1 1812   7.041   0.202   4.015  1.1777  0.2205  1.0909
  616TIP3    H2 1813   7.074   0.343   3.968  1.8037 -0.1828  0.3045
  617TIP3   OH2 1814   6.345   2.271   4.962  0.5915 -0.6476  0.1387
  617TIP3    H1 1815   6.294   2.308   5.034  2.0449  0.6356  0.5607
  617TIP3    H2 1816   6.387   2.347   4.921  1.7457 -1.6033 -0.5081
  618TIP3   OH2 1817   3.153   4.242   5.681 -0.3961 -0.6105 -0.3450
  618TIP3    H1 1818   3.110   4.256   5.765  0.4305  0.6527 -0.1184
  618TIP3    H2 1819   3.240   4.208   5.703  0.6364  1.7510 -0.5584
  619TIP3   OH2 1820   5.109   3.683   2.612 -0.4339  0.5496  0.4963
  619TIP3    H1 1821   5.097   3.589   2.598 -0.4621  0.7490 -0.9545
  619TIP3    H2 1822   5.199   3.700   2.585 -0.0114  0.7613  1.9254
  620TIP3   OH2 1823   4.783   5.356   0.592 -0.4110  0.0009  0.1178
  620TIP3    H1 1824   4.840   5.390   0.661 -1.1894 -0.5579  1.0738
  620TIP3    H2 1825   4.720   5.302   0.639 -2.8549  2.0008 -0.6245
  621TIP3   OH2 1826   1.736   3.052   0.165 -0.2066  0.2407  0.1877
  621TIP3    H1 1827   1.742   3.133   0.114 -1.1781  0.9682  1.1553
  621TIP3    H2 1828   1.739   2.982   0.101  2.2600  0.9513 -0.5752
  622TIP3   OH2 1829   0.436   5.121   1.653 -0.2199 -0.1930 -0.0634
  622TIP3    H1 1830   0.530   5.123   1.669 -0.1509 -0.0869 -0.4789
  622TIP3    H2 1831   0.399   5.080   1.731 -0.2297  3.4575  2.1173
  623TIP3   OH2 1832   4.795   4.779   2.733  0.4438 -0.5472  0.3224
  623TIP3    H1 1833   4.736   4.731   2.791  0.3370 -0.3133  0.4088
  623TIP3    H2 1834   4.776   4.745   2.646 -2.1529  1.7390 -0.1584
  624TIP3   OH2 1835   3.039   1.311   3.379  0.0138 -0.4558  0.1667
  624TIP3    H1 1836   3.032   1.218   3.357  0.3932 -0.1736 -1.2012
  624TIP3    H2 1837   3.083   1.351   3.304 -0.7185  0.9454  0.4536
  625TIP3   OH2 1838   6.359   3.891   1.233  0.0900 -0.0861  0.3459
  625TIP3    H1 1839   6.444   3.908   1.273  0.1073  0.7218 -0.0137
  625TIP3    H2 1840   6.304   3.863   1.306  0.4237  0.2982  0.7532
  626TIP3   OH2 1841   1.872   1.917   0.677  0.5477  0.2022  0.1670
  626TIP3    H1 1842   1.800   1.869   0.718  0.4539 -0.0086 -0.2353
  626TIP3    H2 1843   1.862   1.899   0.584  2.2478 -1.3788  0.2516
  627TIP3   OH2 1844   2.652   0.674   4.924 -0.0607  0.0545 -0.2927
  627TIP3    H1 1845   2.693   0.618   4.858 -0.7419  0.1702 -0.8254
  627TIP3    H2 1846   2.630   0.754   4.876 -1.8117 -0.3797 -0.2642
  628TIP3   OH2 1847   5.245   5.830   4.210  0.1221 -0.3562 -0.0808
  628TIP3    H1 1848   5.179   5.899   4.209 -0.7234 -1.0766  1.6618
  628TIP3    H2 1849   5.214   5.767   4.275  2.6348 -0.6291  0.9952
  629TIP3   OH2 1850   1.194   0.794   2.796 -0.2525 -0.4234  0.3420
  629TIP3    H1 1851   1.267   0.750   2.754 -0.3791 -1.2993  1.0048
  629TIP3    H2 1852   1.117   0.769   2.745  0.0567  1.9079 -1.4423
  630TIP3   OH2 1853   6.346   3.877   3.885 -0.3636 -0.0011  0.1034
  630TIP3    H1 1854   6.300   3.905   3.806  0.1912 -0.9692 -0.5935
  630TIP3    H2 1855   6.281   3.825   3.933 -1.0724  1.5548  0.9007
  631TIP3   OH2 1856   3.419   5.242   2.678  0.1390  0.0737 -0.0845
  631TIP3    H1 1857   3.334   5.242   2.723 -0.0750 -0.7907 -0.4574
  631TIP3    H2 1858   3.401   5.199   2.594  0.7912  0.5595 -0.4753
  632TIP3   OH2 1859   4.519   6.261   4.117  0.7394  0.3185  0.0826
  632TIP3    H1 1860   4.483   6.348   4.132  0.0355  0.6104 -2.8330
  632TIP3    H2 1861   4.613   6.275   4.106  0.9073  0.4018  1.3681
  633TIP3   OH2 1862   3.418   3.386   2.684 -0.0874 -0.6348 -0.5536
  633TIP3    H1 1863   3.328   3.415   2.702 -0.5308 -0.9306 -2.1770
  633TIP3    H2 1864   3.466   3.466   2.664  0.2442 -0.3817  1.0568
  634TIP3   OH2 1865   6.098   0.838   5.538  0.3707  0.9164  0.2800
  634TIP3    H1 1866   6.101   0.858   5.631 -0.1194 -1.9942  1.0172
  634TIP3    H2 1867   6.081   0.744   5.534 -0.9880  1.1608 -2.7590
  635TIP3   OH2 1868   1.739   3.877   1.479 -0.0982  0.7422 -0.1759
  635TIP3    H1 1869   1.699   3.919   1.403  0.6395  0.1133 -0.9217
  635TIP3    H2 1870   1.832   3.875   1.460 -0.0643 -0.7624  0.0682
  636TIP3   OH2 1871   0.840   5.288   5.812 -0.1564  0.4052 -0.7167
  636TIP3    H1 1872   0.790   5.212   5.842  1.8197 -0.9362 -0.5672
  636TIP3    H2 1873   0.775   5.350   5.781 -1.8642 -1.3193 -0.7558
  637TIP3   OH2 1874   7.158   1.206   1.378 -0.3059 -0.2220 -0.2459
  637TIP3    H1 1875   7.105   1.190   1.456 -1.0464  1.8854 -0.2772
  637TIP3    H2 1876   7.114   1.278   1.333  1.4012  0.1450 -1.4000
  638TIP3   OH2 1877   4.252   3.607   2.914 -0.7069  0.2561  0.3087
  638TIP3    H1 1878   4.269   3.517   2.942 -1.2725 -0.4622 -1.5051
  638TIP3    H2 1879   4.338   3.647   2.909 -0.2662 -0.7386 -0.5360
  639TIP3   OH2 1880   5.681   3.166   4.967 -0.4304 -0.4990 -0.0648
  639TIP3    H1 1881   5.635   3.248   4.949 -0.9548 -1.0751 -1.5170
  639TIP3    H2 1882   5.772   3.183   4.941 -0.2435 -0.0199  0.8256
  640TIP3   OH2 1883   1.746   0.820   3.816  0.1322  0.2758 -0.0689
  640TIP3    H1 1884   1.796   0.885   3.767  0.7409 -1.2069 -1.4929
  640TIP3    H2 1885   1.655   0.832   3.788  0.1603  0.8558  0.0882
  641TIP3   OH2 1886   1.224   4.626   3.626  0.2253 -0.2502  0.0388
  641TIP3    H1 1887   1.174   4.615   3.707  3.0133 -2.9592  1.6081
  641TIP3    H2 1888   1.280   4.702   3.642 -1.5373  1.3307 -0.8187
  642TIP3   OH2 1889   5.501   3.392   0.753 -0.5129  0.1103  0.0875
  642TIP3    H1 1890   5.515   3.299   0.771  0.8043  0.0762 -0.9648
  642TIP3    H2 1891   5.509   3.399   0.658  1.4591  1.5806  0.3093
  643TIP3   OH2 1892   0.282   2.379   4.999 -0.4853  0.4905  0.0712
  643TIP3    H1 1893   0.226   2.432   5.056  0.3806  1.3342  0.1576
  643TIP3    H2 1894   0.257   2.406   4.910 -0.2815  0.8044  0.1073
  644TIP3   OH2 1895   0.524   5.973   4.918  0.0810  0.6271 -0.6339
  644TIP3    H1 1896   0.583   5.994   4.990 -0.1726 -0.9512  0.0666
  644TIP3    H2 1897   0.581   5.938   4.849 -0.0790 -2.6726  0.7165
  645TIP3   OH2 1898   6.996   2.108   2.475 -0.1623  0.1064  0.4902
  645TIP3    H1 1899   6.971   2.136   2.563  1.2090  2.3334  0.2460
  645TIP3    H2 1900   7.072   2.052   2.489 -2.1767 -2.7553  0.8933
  646TIP3   OH2 1901   5.943   1.641   1.735  0.1799 -0.1515  0.2794
  646TIP3    H1 1902   5.958   1.735   1.733 -0.7480  0.0098 -1.4781
  646TIP3    H2 1903   5.850   1.631   1.752  0.5049 -0.8205  1.7997
  647TIP3   OH2 1904   7.151   5.885   2.276 -0.0020 -0.0743 -0.1878
  647TIP3    H1 1905   7.209   5.809   2.274  0.0038 -0.0632 -0.8642
  647TIP3    H2 1906   7.093   5.872   2.201 -1.0968 -0.2488  0.6627
  648TIP3   OH2 1907   1.052   3.020   2.146 -0.0431 -0.6229 -0.4884
  648TIP3    H1 1908   1.119   3.088   2.142 -0.3512 -0.3186 -0.5389
  648TIP3    H2 1909   1.051   2.982   2.058  0.0801 -0.6477 -0.4799
  649TIP3   OH2 1910   6.641   3.357   3.751  0.6342 -0.6825 -0.7498
  649TIP3    H1 1911   6.663   3.432   3.697  1.4698  0.1940  0.7454
  649TIP3    H2 1912   6.550   3.338   3.729  0.4128  0.7621 -1.1852
  650TIP3   OH2 1913   7.155   2.960   0.110 -0.2121  0.1323 -0.4854
  650TIP3    H1 1914   7.102   2.996   0.039 -1.3717 -1.3428 -0.4108
  650TIP3    H2 1915   7.106   2.884   0.141  0.8725  0.0176  1.0901
  651TIP3   OH2 1916   3.337   2.746   4.711 -0.2275  0.0558  0.0563
  651TIP3    H1 1917   3.257   2.797   4.698 -1.4634 -1.0661  2.5664
  651TIP3    H2 1918   3.306   2.656   4.726  1.6146 -0.6595 -0.1124
  652TIP3   OH2 1919   5.650   5.620   2.894 -0.0036  0.0783  0.8977
  652TIP3    H1 1920   5.695   5.646   2.814 -0.3750 -0.8582  0.3679
  652TIP3    H2 1921   5.720   5.594   2.955  0.2136 -2.1007 -0.1736
  653TIP3   OH2 1922   4.327   5.416   2.790  0.4010  0.5414 -0.3145
  653TIP3    H1 1923   4.345   5.435   2.698  0.2804 -0.7477 -0.6268
  653TIP3    H2 1924   4.351   5.324   2.801 -0.9574  0.2502  0.5608
  654TIP3   OH2 1925   5.404   1.263   0.658 -0.1402  0.1689  0.1255
  654TIP3    H1 1926   5.375   1.181   0.699 -1.2914  0.6200  0.2708
  654TIP3    H2 1927   5.425   1.320   0.732 -2.1364  0.9553  0.1564
  655TIP3   OH2 1928   2.855   2.924   1.818 -0.4601  0.6363  1.0661
  655TIP3    H1 1929   2.831   2.924   1.725 -0.1946 -2.2908  0.8882
  655TIP3    H2 1930   2.817   3.004   1.853 -1.8451  1.0939 -1.2504
  656TIP3   OH2 1931   5.932   1.830   4.244 -0.2705 -0.5481 -0.7815
  656TIP3    H1 1932   5.915   1.924   4.240 -1.6588 -0.7396 -0.1152
  656TIP3    H2 1933   5.970   1.817   4.331  0.7609 -0.4991 -1.2134
  657TIP3   OH2 1934   1.961   4.416   2.497 -0.0947  0.1244  0.2721
  657TIP3    H1 1935   1.980   4.401   2.589 -1.4572 -3.4361  0.1354
  657TIP3    H2 1936   1.866   4.409   2.490  0.0150 -0.1767 -1.4307
  658TIP3   OH2 1937   5.158   1.984   4.399 -0.2862  0.0390 -0.6989
  658TIP3    H1 1938   5.238   1.936   4.421 -1.1101 -1.3412 -0.6300
  658TIP3    H2 1939   5.186   2.076   4.396  1.2894 -0.4044 -0.6532
  659TIP3   OH2 1940   1.725   6.259   1.218 -0.1399 -0.2737 -0.8147
  659TIP3    H1 1941   1.679   6.340   1.238  2.1629  1.3204 -1.4831
  659TIP3    H2 1942   1.757   6.271   1.128  2.2920 -0.8152 -0.1024
  660TIP3   OH2 1943   7.075   1.335   4.779 -0.0199  0.4523 -0.0604
  660TIP3    H1 1944   7.088   1.241   4.784  0.2808  0.4174 -1.2109
  660TIP3    H2 1945   7.157   1.372   4.813  0.6157  0.2728 -1.3451
  661TIP3   OH2 1946   3.455   5.695   1.966  0.1987 -0.2881  0.3318
  661TIP3    H1 1947   3.469   5.747   2.045  1.6592  0.6563 -0.5005
  661TIP3    H2 1948   3.429   5.759   1.899  0.6542 -0.8168 -0.3680
  662TIP3   OH2 1949   6.979   4.477   2.553 -0.0883 -0.0800 -0.3590
  662TIP3    H1 1950   6.942   4.536   2.619 -1.8362 -0.2682 -1.1274
  662TIP3    H2 1951   7.037   4.420   2.603 -0.5055  0.4979  0.8367
  663TIP3   OH2 1952   4.923   3.389   3.615 -0.3260 -0.2739  0.1118
  663TIP3    H1 1953   4.999   3.357   3.663 -0.7876  0.4068  1.3577
  663TIP3    H2 1954   4.916   3.332   3.539  0.7086 -1.1059  0.6203
  664TIP3   OH2 1955   6.402   4.944   3.860 -0.1345  0.2842  0.1566
  664TIP3    H1 1956   6.439   5.003   3.926  1.1113  0.0880 -0.3221
  664TIP3    H2 1957   6.309   4.938   3.882 -0.4045  2.7388 -0.0189
  665TIP3   OH2 1958   1.364   2.735   2.408 -0.0844  0.3442 -0.1152
  665TIP3    H1 1959   1.340   2.822   2.440  0.8942  0.7346 -0.4177
  665TIP3    H2 1960   1.322   2.727   2.323 -0.9593  0.1345  0.3243
  666TIP3   OH2 1961   2.099   1.292   0.804 -0.2918 -0.1408  0.2194
  666TIP3    H1 1962   2.072   1.219   0.748  0.8110  0.6828 -1.4740
  666TIP3    H2 1963   2.194   1.290   0.801 -0.1825 -0.1948  2.3068
  667TIP3   OH2 1964   6.831   0.676   0.227 -0.0635 -0.0840  0.5008
  667TIP3    H1 1965   6.744   0.640   0.242 -0.4359  0.3354 -0.6278
  667TIP3    H2 1966   6.889   0.600   0.232 -0.7084 -0.6615 -0.6189
  668TIP3   OH2 1967   6.711   3.728   5.519  0.2246 -0.2851 -0.3098
  668TIP3    H1 1968   6.789   3.737   5.574 -0.3841 -0.7337  0.6571
  668TIP3    H2 1969   6.701   3.814   5.478  0.8843 -0.0466  0.0159
  669TIP3   OH2 1970   1.150   5.522   0.687 -0.9703 -0.2064  1.1248
  669TIP3    H1 1971   1.222   5.558   0.634 -1.8250 -0.1169 -0.0243
  669TIP3    H2 1972   1.193   5.484   0.763  0.5127 -1.9223 -0.4659
  670TIP3   OH2 1973   3.608   2.692   0.652  0.2660 -0.1200  0.5466
  670TIP3    H1 1974   3.635   2.630   0.719 -1.0252 -0.6580  0.5996
  670TIP3    H2 1975   3.561   2.760   0.700 -0.7164 -0.5364  0.1968
  671TIP3   OH2 1976   3.034   2.285   2.321 -0.1824 -0.0379 -0.1399
  671TIP3    H1 1977   3.029   2.207   2.266  0.5146 -0.8948  0.9687
  671TIP3    H2 1978   3.115   2.328   2.295 -0.9352  0.7647 -1.2771
  672TIP3   OH2 1979   0.105   6.606   3.208 -0.0765 -0.1668 -0.0127
  672TIP3    H1 1980   0.088   6.699   3.192 -2.7749 -0.9181 -2.3518
  672TIP3    H2 1981   0.054   6.585   3.286 -0.5329  0.0786 -0.2392
  673TIP3   OH2 1982   7.066   2.340   2.329  0.2904  0.2314  0.0192
  673TIP3    H1 1983   6.989   2.384   2.294 -0.3975 -1.2060 -0.3488
  673TIP3    H2 1984   7.034   2.254   2.357  1.3516  0.3729  1.8126
  674TIP3   OH2 1985   5.224   4.408   5.328 -0.3534  0.2402 -0.5925
  674TIP3    H1 1986   5.143   4.419   5.377 -0.2242 -0.5424 -0.1849
  674TIP3    H2 1987   5.255   4.321   5.352  0.4669  0.4216 -0.9560
  675TIP3   OH2 1988   2.622   5.157   3.412 -0.2152 -0.0527 -0.4837
  675TIP3    H1 1989   2.603   5.122   3.326  1.2101 -2.3336  0.0426
  675TIP3    H2 1990   2.716   5.175   3.411 -0.7134  3.0701 -0.4121
  676TIP3   OH2 1991   1.887   6.623   2.443  0.2182  0.4448 -0.5160
  676TIP3    H1 1992   1.963   6.681   2.450 -0.0551  0.6525  1.1896
  676TIP3    H2 1993   1.908   6.549   2.500 -0.9289  0.6038  0.1331
  677TIP3   OH2 1994   0.036   6.696   1.781  0.0683 -0.0453 -0.7299
  677TIP3    H1 1995   0.037   6.776   1.833 -1.6079 -0.8841  0.6938
  677TIP3    H2 1996   0.125   6.661   1.789  0.0230  0.1887  1.0459
  678TIP3   OH2 1997   2.816   1.370   3.705  0.1162 -0.1941 -0.0018
  678TIP3    H1 1998   2.749   1.399   3.766  3.0580  0.2270  3.3981
  678TIP3    H2 1999   2.810   1.274   3.706 -0.2411 -0.1692  0.5143
  679TIP3   OH2 2000   5.202   2.980   1.659  0.0633 -0.5055 -0.0574
  679TIP3    H1 2001   5.288   2.937   1.657  0.2275 -0.1703 -1.8476
  679TIP3    H2 2002   5.221   3.071   1.639 -0.6598 -0.2847  0.2349
  680TIP3   OH2 2003   0.937   6.649   4.901 -0.5154  0.0081 -1.3207
  680TIP3    H1 2004   0.872   6.641   4.971 -1.9147 -0.0615 -2.5930
  680TIP3    H2 2005   0.953   6.559   4.873 -0.8910  0.1287 -1.9261
  681TIP3   OH2 2006   4.633   6.266   1.934 -0.0650 -0.1190 -0.3262
  681TIP3    H1 2007   4.710   6.276   1.990  0.2564 -3.7454  0.1509
  681TIP3    H2 2008   4.654   6.316   1.855  3.1123 -1.3445 -0.4240
  682TIP3   OH2 2009   3.507   5.104   1.451 -1.0441  0.4662  0.0700
  682TIP3    H1 2010   3.459   5.165   1.508  0.7525  0.7536  1.3642
  682TIP3    H2 2011   3.595   5.100   1.489 -0.7646 -2.0469 -0.6768
  683TIP3   OH2 2012   6.757   4.607   3.425 -0.1391  0.0614  0.2475
  683TIP3    H1 2013   6.825   4.674   3.418  0.8560 -1.0738 -1.6561
  683TIP3    H2 2014   6.798   4.528   3.390 -2.1071 -0.9217  0.0530
  684TIP3   OH2 2015   2.747   2.596   1.772  0.1073  0.0383 -0.3966
  684TIP3    H1 2016   2.763   2.590   1.678 -0.8455  0.8192 -0.6262
  684TIP3    H2 2017   2.686   2.524   1.790  0.7051 -0.4479 -0.2591
  685TIP3   OH2 2018   4.767   5.459   0.862  0.5433 -0.2505 -0.6491
  685TIP3    H1 2019   4.781   5.551   0.884  0.5898 -0.1000 -1.3038
  685TIP3    H2 2020   4.740   5.419   0.945  2.9989 -0.1956  0.2628
  686TIP3   OH2 2021   0.071   1.495   2.828 -0.1537  0.0293  0.2392
  686TIP3    H1 2022   0.085   1.409   2.867  0.4115  0.2657  0.5741
  686TIP3    H2 2023   0.101   1.557   2.894  0.9505  0.4396 -0.6006
  687TIP3   OH2 2024   2.844   3.451   0.843 -0.2262  0.1174 -1.0939
  687TIP3    H1 2025   2.862   3.358   0.825  0.1733  0.0939 -0.6192
  687TIP3    H2 2026   2.823   3.488   0.758 -3.0845 -0.9620 -0.9565
  688TIP3   OH2 2027   0.527   6.509   5.884  0.2464 -0.1735  0.2245
  688TIP3    H1 2028   0.542   6.582   5.824 -0.6911  0.9891  1.3436
  688TIP3    H2 2029   0.603   6.453   5.874  2.1019  2.0817  0.9353
  689TIP3   OH2 2030   4.764   6.241   2.850 -0.1440  0.1321  0.0947
  689TIP3    H1 2031   4.826   6.170   2.834  1.1144  1.3387 -0.6678
  689TIP3    H2 2032   4.797   6.284   2.929 -1.0688 -0.2727  0.7255
  690TIP3   OH2 2033   5.230   4.878   1.843 -0.0302  0.5598 -0.3390
  690TIP3    H1 2034   5.194   4.938   1.777  2.3291  2.9145  0.3255
  690TIP3    H2 2035   5.255   4.800   1.794  0.8333  1.8867 -2.1048
  691TIP3   OH2 2036   1.497   1.440   1.826  0.3946 -0.2549  0.1661
  691TIP3    H1 2037   1.538   1.498   1.762 -0.0157 -3.1771 -2.9966
  691TIP3    H2 2038   1.569   1.407   1.879  1.0916  0.3681 -0.3868
  692TIP3   OH2 2039   1.466   3.667   2.914 -0.1078 -0.1623 -0.0270
  692TIP3    H1 2040   1.506   3.754   2.913 -0.7026  0.1115 -0.5496
  692TIP3    H2 2041   1.384   3.679   2.961 -0.5289 -0.2807 -0.7164
  693TIP3   OH2 2042   5.481   6.255   2.475  0.2465  0.0344  0.2239
  693TIP3    H1 2043   5.438   6.255   2.390  1.9661  0.1129 -0.6872
  693TIP3    H2 2044   5.447   6.177   2.520 -0.8135  0.0970 -0.4449
  694TIP3   OH2 2045   6.731   3.082   3.600 -0.2825  0.4197 -0.2409
  694TIP3    H1 2046   6.637   3.100   3.594 -0.3372  0.0325 -0.6335
  694TIP3    H2 2047   6.771   3.166   3.619 -0.8613  0.3041  1.6103
  695TIP3   OH2 2048   0.842   3.914   2.807 -0.3184  0.2784 -0.2650
  695TIP3    H1 2049   0.823   3.975   2.879 -1.1172 -0.7877  0.4546
  695TIP3    H2 2050   0.936   3.927   2.790 -0.1657  0.7395  0.7946
  696TIP3   OH2 2051   5.176   1.193   0.487 -0.3543 -0.2145  0.4636
  696TIP3    H1 2052   5.195   1.224   0.399 -0.6424  0.0754  0.4992
  696TIP3    H2 2053   5.253   1.215   0.538  0.0999 -1.0054  0.1365
  697TIP3   OH2 2054   0.457   1.962   3.635 -0.1014  0.4085 -0.0445
  697TIP3    H1 2055   0.443   2.032   3.699 -0.7599  0.0896  0.1669
  697TIP3    H2 2056   0.370   1.925   3.619  0.1342  0.1168 -0.7092
  698TIP3   OH2 2057   4.421   3.799   4.478  0.1679  0.0666 -0.5483
  698TIP3    H1 2058   4.428   3.767   4.568  0.5590  0.9511 -0.2614
  698TIP3    H2 2059   4.505   3.777   4.438 -0.3663 -1.2334 -1.0116
  699TIP3   OH2 2060   1.579   1.844   3.792 -0.0726 -0.2334  0.5312
  699TIP3    H1 2061   1.563   1.752   3.768 -0.2261 -0.8082  2.6341
  699TIP3    H2 2062   1.526   1.894   3.730 -3.8764 -1.7857  2.1750
  700TIP3   OH2 2063   1.096   6.220   2.248  0.5885 -0.0499  0.0919
  700TIP3    H1 2064   1.025   6.156   2.249  0.3080  0.2542 -0.0842
  700TIP3    H2 2065   1.171   6.173   2.212  0.7900 -0.6986  1.2959
  701TIP3   OH2 2066   6.964   2.505   3.796  0.0006 -0.2197  0.7243
  701TIP3    H1 2067   7.033   2.448   3.829  0.2902 -0.1952  0.1884
  701TIP3    H2 2068   7.011   2.577   3.753 -0.3604  0.1891  1.0030
  702TIP3   OH2 2069   4.481   2.600   4.715  0.1256 -0.3249  0.1307
  702TIP3    H1 2070   4.410   2.589   4.779 -0.2890 -0.0238 -0.2774
  702TIP3    H2 2071   4.509   2.691   4.725  0.5930 -0.4916  0.4231
  703TIP3   OH2 2072   3.499   5.583   4.212 -0.9120 -0.3659 -0.2128
  703TIP3    H1 2073   3.431   5.643   4.243 -0.6734 -0.4280  0.4549
  703TIP3    H2 2074   3.564   5.583   4.282  0.1654  0.2870 -1.1884
  704TIP3   OH2 2075   5.672   3.306   1.082  0.0073 -0.1865  0.4103
  704TIP3    H1 2076   5.645   3.398   1.090  0.1005 -0.2205  1.1559
  704TIP3    H2 2077   5.725   3.304   1.002  0.0741  0.4295  0.4329
  705TIP3   OH2 2078   5.685   4.778   1.926 -0.3425  0.1041 -0.3216
  705TIP3    H1 2079   5.662   4.869   1.906 -0.7959  0.2211  0.6937
  705TIP3    H2 2080   5.769   4.784   1.972  0.8240 -0.1839 -2.2998
  706TIP3   OH2 2081   5.350   4.145   1.491 -0.0114 -0.1301 -0.1798
  706TIP3    H1 2082   5.319   4.235   1.488 -1.2035 -0.4974  0.2923
  706TIP3    H2 2083   5.444   4.151   1.477 -0.0271  1.2113  0.1632
  707TIP3   OH2 2084   3.451   0.352   2.196 -0.2805 -0.0799  0.0423
  707TIP3    H1 2085   3.402   0.389   2.270  1.8835 -0.1601  1.6039
  707TIP3    H2 2086   3.476   0.265   2.225 -1.5146 -1.1258 -1.8475
  708TIP3   OH2 2087   5.202   3.392   1.137  0.0226  0.1279  0.0027
  708TIP3    H1 2088   5.108   3.389   1.123 -0.0227  1.1264 -0.0098
  708TIP3    H2 2089   5.239   3.328   1.076 -0.6122  0.0159 -0.2646
  709TIP3   OH2 2090   1.748   2.951   3.290 -0.0224  0.6286 -0.1432
  709TIP3    H1 2091   1.782   2.997   3.367 -2.4394 -0.2658  1.6227
  709TIP3    H2 2092   1.654   2.946   3.306 -0.4330 -0.7967 -2.5513
  710TIP3   OH2 2093   1.559   1.857   4.578 -0.3048  0.2743  0.0006
  710TIP3    H1 2094   1.635   1.913   4.592  0.2590 -0.3523 -0.4794
  710TIP3    H2 2095   1.563   1.793   4.649 -0.9066  0.7762  0.5059
  711TIP3   OH2 2096   2.739   3.083   4.218 -0.4214 -0.3109 -0.3717
  711TIP3    H1 2097   2.734   3.125   4.304  2.1782 -3.5902  1.6256
  711TIP3    H2 2098   2.818   3.119   4.178 -1.1550  0.5700 -1.0715
  712TIP3   OH2 2099   2.775   6.779   3.408 -0.2326  0.1987  0.5437
  712TIP3    H1 2100   2.713   6.754   3.477  1.2955  0.0346  1.9028
  712TIP3    H2 2101   2.856   6.733   3.430  0.6265  1.0351 -0.7429
  713TIP3   OH2 2102   2.145   1.416   1.737 -0.3846 -0.7461 -0.0157
  713TIP3    H1 2103   2.178   1.395   1.650 -0.4247 -0.8094 -0.0156
  713TIP3    H2 2104   2.223   1.443   1.786 -0.2700 -1.2538  0.0917
  714TIP3   OH2 2105   0.710   1.828   1.123  0.1153  0.5589  0.2103
  714TIP3    H1 2106   0.776   1.884   1.083  1.2921 -0.2199  1.0287
  714TIP3    H2 2107   0.643   1.818   1.054  1.0200  1.0425 -0.7655
  715TIP3   OH2 2108   6.879   5.579   5.116  0.0201 -0.0954  0.8255
  715TIP3    H1 2109   6.886   5.487   5.093  1.0689  0.1671  0.0332
  715TIP3    H2 2110   6.960   5.618   5.084 -0.8169  1.2819  0.2959
  716TIP3   OH2 2111   1.237   0.724   4.127 -0.1674  0.1805 -0.0706
  716TIP3    H1 2112   1.329   0.709   4.106  0.3497  1.0666  1.4009
  716TIP3    H2 2113   1.196   0.639   4.114  1.0504 -0.4712  0.1809
  717TIP3   OH2 2114   5.204   1.867   2.148  0.0901  0.0665  0.2343
  717TIP3    H1 2115   5.218   1.959   2.127  0.9799 -0.1289 -0.0888
  717TIP3    H2 2116   5.248   1.855   2.232 -0.2811  0.0016  0.4213
  718TIP3   OH2 2117   5.468   2.993   2.111  0.1158 -0.0852 -0.4170
  718TIP3    H1 2118   5.391   3.044   2.134  0.4182 -0.0965  0.7330
  718TIP3    H2 2119   5.436   2.924   2.054 -0.4503  0.8317 -1.2218
  719TIP3   OH2 2120   5.053   6.595   1.761  0.0914 -0.0992  0.2450
  719TIP3    H1 2121   5.104   6.676   1.773  1.4429 -0.9080  0.1865
  719TIP3    H2 2122   5.015   6.578   1.847  0.9915 -0.1613  0.6447
  720TIP3   OH2 2123   3.580   1.716   4.819  0.1171  0.8037  0.2798
  720TIP3    H1 2124   3.644   1.645   4.819  0.7091  1.2019 -2.5780
  720TIP3    H2 2125   3.507   1.682   4.871  0.1641 -2.1773 -1.3393
  721TIP3   OH2 2126   2.437   5.394   1.374 -0.0512  0.5555 -0.0342
  721TIP3    H1 2127   2.366   5.362   1.430  1.4145  0.1950  1.7183
  721TIP3    H2 2128   2.444   5.487   1.395 -0.1755  0.6515 -0.4129
  722TIP3   OH2 2129   2.287   0.910   1.316  0.8807 -0.0679  0.5153
  722TIP3    H1 2130   2.315   0.982   1.259 -1.5921  1.3872  0.9759
  722TIP3    H2 2131   2.350   0.840   1.299  1.1562  0.8049 -2.8952
  723TIP3   OH2 2132   2.412   1.922   5.705 -0.2462  0.1200 -0.4958
  723TIP3    H1 2133   2.419   2.015   5.684  2.3086  1.0167  3.3131
  723TIP3    H2 2134   2.481   1.880   5.654  1.6975  1.1815  1.1195
  724TIP3   OH2 2135   2.232   5.825   4.991 -0.3425 -0.1114  0.0997
  724TIP3    H1 2136   2.140   5.812   5.012  0.1263 -2.9319  0.8680
  724TIP3    H2 2137   2.247   5.773   4.912  0.7226 -0.4056  0.4618
  725TIP3   OH2 2138   0.202   2.449   1.026 -0.5432  0.5163 -0.4631
  725TIP3    H1 2139   0.200   2.377   1.088 -0.9809 -1.3607 -2.5222
  725TIP3    H2 2140   0.286   2.492   1.040 -0.3455 -0.2819  0.9136
  726TIP3   OH2 2141   4.027   5.556   0.867  0.3007 -0.1130  0.0598
  726TIP3    H1 2142   3.992   5.574   0.780  3.3243  0.5004 -1.1773
  726TIP3    H2 2143   3.969   5.490   0.904 -1.1501 -0.2946 -2.3681
  727TIP3   OH2 2144   6.306   0.762   5.106  0.4521  0.2356  0.1023
  727TIP3    H1 2145   6.240   0.749   5.175 -1.4947  0.0485 -1.6908
  727TIP3    H2 2146   6.358   0.682   5.108  1.6555  0.9746  2.5121
  728TIP3   OH2 2147   5.673   2.267   1.052 -0.9202  0.2032  0.0124
  728TIP3    H1 2148   5.594   2.288   1.102 -1.2476  0.0392 -0.4340
  728TIP3    H2 2149   5.663   2.316   0.970 -0.1867  0.8156  0.2659
  729TIP3   OH2 2150   3.388   4.591   0.338 -0.5613 -0.1455  0.1620
  729TIP3    H1 2151   3.326   4.577   0.410  0.4636  1.5811  1.4574
  729TIP3    H2 2152   3.405   4.685   0.339  0.8119 -0.3416 -1.2526
  730TIP3   OH2 2153   5.570   5.988   0.289  0.2751 -0.3471 -0.0419
  730TIP3    H1 2154   5.552   5.916   0.350 -2.4377  1.2117  1.1893
  730TIP3    H2 2155   5.626   6.048   0.338 -0.1807 -0.0920  0.1775
  731TIP3   OH2 2156   0.747   1.964   0.159  0.6623 -0.4175  0.0168
  731TIP3    H1 2157   0.825   2.018   0.147  0.3409  0.6843  2.4157
  731TIP3    H2 2158   0.775   1.897   0.222 -0.2375 -0.1357  0.7367
  732TIP3   OH2 2159   2.811   4.889   2.951 -0.8229  0.1167  0.5238
  732TIP3    H1 2160   2.814   4.938   2.869 -2.3076 -0.9020 -0.1834
  732TIP3    H2 2161   2.765   4.947   3.012  0.4767  0.9654  0.7540
  733TIP3   OH2 2162   2.857   3.383   5.815  0.0225 -0.7391 -0.1123
  733TIP3    H1 2163   2.837   3.290   5.826  0.8872 -0.7296  1.9774
  733TIP3    H2 2164   2.946   3.393   5.850 -0.3707  1.0006  0.4981
  734TIP3   OH2 2165   1.838   6.535   5.082  0.3286  0.7274 -0.9515
  734TIP3    H1 2166   1.826   6.440   5.077  1.1242  0.6592 -1.9635
  734TIP3    H2 2167   1.862   6.551   5.173 -1.1391  0.1401 -0.4361
  735TIP3   OH2 2168   3.239   2.393   5.018  1.0125 -0.1093 -0.2986
  735TIP3    H1 2169   3.277   2.481   5.017  0.4031  0.1663 -1.7630
  735TIP3    H2 2170   3.302   2.339   4.972  0.7722 -0.1650 -0.5626
  736TIP3   OH2 2171   1.038   5.083   4.955 -0.1423  0.1653 -0.0183
  736TIP3    H1 2172   0.996   5.117   4.877 -2.1319  0.2786  1.0300
  736TIP3    H2 2173   1.132   5.099   4.942 -0.5752  1.5665 -1.6661
  737TIP3   OH2 2174   4.178   2.826   3.444  0.0390  0.3389 -0.1598
  737TIP3    H1 2175   4.222   2.746   3.417 -0.9906 -1.0127  1.9610
  737TIP3    H2 2176   4.233   2.862   3.513 -1.4450 -0.7083  1.6474
  738TIP3   OH2 2177   5.550   5.057   0.629 -0.0627  0.1234  0.5081
  738TIP3    H1 2178   5.642   5.075   0.610  0.5964 -1.7833  1.6267
  738TIP3    H2 2179   5.522   4.999   0.557 -0.1899  0.1776  0.5143
  739TIP3   OH2 2180   5.481   4.536   3.799  0.6205 -0.4367  0.5098
  739TIP3    H1 2181   5.437   4.555   3.882 -1.1846 -2.1836  0.0230
  739TIP3    H2 2182   5.486   4.620   3.755 -0.2775  0.1752  1.5156
  740TIP3   OH2 2183   4.664   3.996   1.849  0.0993  0.1733 -0.6341
  740TIP3    H1 2184   4.587   3.957   1.808 -0.2941  0.5391 -0.2576
  740TIP3    H2 2185   4.629   4.067   1.903  0.6818  0.2191 -0.3067
  741TIP3   OH2 2186   5.099   0.958   2.007  0.4343  0.3680  0.0958
  741TIP3    H1 2187   5.147   0.883   2.042  0.0985  0.1093  0.0045
  741TIP3    H2 2188   5.043   0.922   1.938  1.1043  0.8780 -0.7337
  742TIP3   OH2 2189   0.253   4.204   0.545 -0.6447 -0.6218 -0.3223
  742TIP3    H1 2190   0.233   4.164   0.460 -0.5195  0.0024 -0.6537
  742TIP3    H2 2191   0.242   4.298   0.530  1.1625 -0.3525 -0.1383
  743TIP3   OH2 2192   1.362   0.964   1.560  0.0914 -0.1723 -0.6146
  743TIP3    H1 2193   1.407   1.048   1.559 -1.5434  0.8051 -3.1916
  743TIP3    H2 2194   1.270   0.985   1.576 -0.3586 -1.4260 -1.3297
  744TIP3   OH2 2195   1.213   4.465   5.474 -0.0018  0.1881 -0.7021
  744TIP3    H1 2196   1.260   4.544   5.501  0.7143 -1.0091  1.9045
  744TIP3    H2 2197   1.272   4.393   5.496 -0.8680 -1.1377 -2.4542
  745TIP3   OH2 2198   5.088   4.454   0.648  0.2450 -0.4928 -0.6885
  745TIP3    H1 2199   5.017   4.403   0.687  0.0011  0.6206  0.4027
  745TIP3    H2 2200   5.166   4.399   0.657  0.3984  0.0388  2.3057
  746TIP3   OH2 2201   5.137   1.659   3.551  0.5937  0.3337  0.3943
  746TIP3    H1 2202   5.050   1.698   3.556 -0.3086 -1.3022 -1.2358
  746TIP3    H2 2203   5.185   1.714   3.489  2.1391  3.4866  3.9682
  747TIP3   OH2 2204   6.120   0.308   1.252  0.2929  0.8067  0.6126
  747TIP3    H1 2205   6.060   0.234   1.248  1.2917 -0.0048  0.4983
  747TIP3    H2 2206   6.064   0.385   1.236 -0.7793  0.1072  0.9448
  748TIP3   OH2 2207   1.611   0.488   2.174  0.1289  0.0451 -0.1374
  748TIP3    H1 2208   1.642   0.434   2.247 -1.3168 -0.2541  0.2910
  748TIP3    H2 2209   1.658   0.570   2.182 -0.1901  0.1022  1.2906
  749TIP3   OH2 2210   4.057   4.143   5.113  0.2560  0.3355 -0.6067
  749TIP3    H1 2211   4.000   4.078   5.072 -1.5225 -0.4544  2.7128
  749TIP3    H2 2212   4.057   4.217   5.052  0.8294 -1.9768 -3.6341
  750TIP3   OH2 2213   0.846   3.044   0.404  0.2339 -0.2224  0.2970
  750TIP3    H1 2214   0.755   3.073   0.410  0.4675  0.2435  1.9912
  750TIP3    H2 2215   0.877   3.080   0.320 -1.4971 -1.5476 -1.0008
  751TIP3   OH2 2216   1.574   1.199   3.731  0.2949 -0.7358  0.5146
  751TIP3    H1 2217   1.573   1.141   3.655 -0.3749  0.9638 -0.8381
  751TIP3    H2 2218   1.665   1.228   3.738 -0.1803  1.6490 -1.7549
  752TIP3   OH2 2219   3.237   0.600   4.661 -0.4166  0.0769 -0.4083
  752TIP3    H1 2220   3.210   0.675   4.715 -1.0289 -0.5752  0.1962
  752TIP3    H2 2221   3.314   0.565   4.705 -1.2721 -0.8233  0.3871
  753TIP3   OH2 2222   4.321   1.608   1.073  0.2620 -0.3064  0.3411
  753TIP3    H1 2223   4.288   1.558   1.148 -0.1178 -0.2985  0.1787
  753TIP3    H2 2224   4.381   1.672   1.113  1.0165 -1.1057  0.5112
  754TIP3   OH2 2225   5.191   1.005   0.117 -0.2007  0.1732 -0.1416
  754TIP3    H1 2226   5.177   0.921   0.162  0.9997  0.3878  0.6892
  754TIP3    H2 2227   5.143   1.069   0.171  0.8649  0.3621  0.6113
  755TIP3   OH2 2228   3.851   1.845   0.039 -0.0459 -0.5015 -0.4167
  755TIP3    H1 2229   3.786   1.778   0.018 -0.8268  0.1071  0.0108
  755TIP3    H2 2230   3.826   1.920  -0.014 -0.5206  0.1928  0.7407
  756TIP3   OH2 2231   3.583   6.261   3.861 -0.3192 -0.3344  0.2732
  756TIP3    H1 2232   3.565   6.316   3.786  0.9881 -0.7242 -0.3516
  756TIP3    H2 2233   3.628   6.184   3.825  2.3056  0.4452  1.6385
  757TIP3   OH2 2234   1.399   1.237   5.335 -0.3870  0.1624 -0.0513
  757TIP3    H1 2235   1.485   1.278   5.333  0.0671 -0.7302  0.5340
  757TIP3    H2 2236   1.339   1.309   5.356  0.3015  0.6459  0.3078
  758TIP3   OH2 2237   5.911   4.848   0.819  0.1387 -0.6211 -0.2664
  758TIP3    H1 2238   5.909   4.865   0.913 -1.5418 -0.2893 -0.3213
  758TIP3    H2 2239   5.878   4.929   0.779  1.5156 -0.4910 -1.2055
  759TIP3   OH2 2240   5.842   6.054   0.681 -0.3275  0.4414 -0.8071
  759TIP3    H1 2241   5.915   6.106   0.715  0.2986  0.6251 -2.3602
  759TIP3    H2 2242   5.881   5.969   0.660 -0.6331  0.4261 -1.3169
  760TIP3   OH2 2243   3.201   2.248   0.587 -0.1736 -0.4152 -0.1720
  760TIP3    H1 2244   3.176   2.281   0.501 -0.7883 -0.8965 -0.1797
  760TIP3    H2 2245   3.297   2.248   0.585 -0.1822 -0.7240 -0.9702
  761TIP3   OH2 2246   4.411   3.555   1.820  0.2705  0.5828  0.2104
  761TIP3    H1 2247   4.435   3.465   1.843 -0.1444  0.1497 -0.9762
  761TIP3    H2 2248   4.492   3.604   1.827  0.8702 -0.2382 -0.7728
  762TIP3   OH2 2249   3.012   2.304   1.386  0.3652 -0.6699  1.2048
  762TIP3    H1 2250   3.092   2.291   1.436  1.4675 -0.5101 -0.4451
  762TIP3    H2 2251   3.041   2.319   1.297 -1.5097 -0.4652  0.5729
  763TIP3   OH2 2252   5.290   2.102   2.042  0.0619  0.1086  0.3146
  763TIP3    H1 2253   5.284   2.117   1.948 -0.3706 -1.6571  0.0189
  763TIP3    H2 2254   5.276   2.188   2.082 -0.3778  0.7704 -1.2161
  764TIP3   OH2 2255   4.534   3.755   3.930 -0.2594  0.2383  0.3709
  764TIP3    H1 2256   4.577   3.784   4.011 -1.4910 -1.1823  1.5963
  764TIP3    H2 2257   4.489   3.675   3.954  0.6555 -1.1504 -2.1518
  765TIP3   OH2 2258   5.328   3.152   2.836 -0.4772  0.3386 -0.8587
  765TIP3    H1 2259   5.235   3.156   2.816 -0.5556 -1.2663 -0.9501
  765TIP3    H2 2260   5.367   3.105   2.762  0.2505  0.1883 -0.3915
  766TIP3   OH2 2261   2.316   4.356   5.418  0.3918  0.0126  0.6001
  766TIP3    H1 2262   2.222   4.345   5.400 -0.0315  1.9082  1.3936
  766TIP3    H2 2263   2.344   4.271   5.452 -0.6014 -1.1306 -1.3003
  767TIP3   OH2 2264   7.016   4.599   1.224  0.1711 -0.2114 -0.4621
  767TIP3    H1 2265   6.922   4.602   1.204 -0.1412 -0.4194  0.9228
  767TIP3    H2 2266   7.020   4.585   1.318  1.6014  1.2433 -0.2770
  768TIP3   OH2 2267   6.094   4.695   5.298 -0.0365  0.0473  0.4426
  768TIP3    H1 2268   6.117   4.714   5.207 -0.9410 -2.0794 -0.3104
  768TIP3    H2 2269   6.163   4.636   5.328  0.6559  1.3140  1.4132
  769TIP3   OH2 2270   1.240   3.679   1.098  0.1324 -0.1965  0.0871
  769TIP3    H1 2271   1.301   3.631   1.154  0.4011 -0.4082 -0.3854
  769TIP3    H2 2272   1.293   3.710   1.025 -0.4982 -1.1803 -0.8188
  770TIP3   OH2 2273   5.493   0.373   4.464 -0.1898  0.0051  0.2167
  770TIP3    H1 2274   5.445   0.368   4.546  0.2649  0.4276  0.5122
  770TIP3    H2 2275   5.448   0.311   4.406 -1.7837  1.1643  0.1366
  771TIP3   OH2 2276   5.506   4.680   1.720 -0.2309 -0.7083 -0.2540
  771TIP3    H1 2277   5.566   4.713   1.787 -0.9396 -0.1306  0.1234
  771TIP3    H2 2278   5.460   4.608   1.763 -0.7576 -0.2726 -0.0792
  772TIP3   OH2 2279   2.568   4.624   3.538  0.0412  0.0596 -0.4831
  772TIP3    H1 2280   2.495   4.579   3.580  0.7220  0.0206  0.7061
  772TIP3    H2 2281   2.527   4.690   3.482 -0.9119  0.6907  0.9120
  773TIP3   OH2 2282   2.491   3.878   0.577  0.2679 -0.5647  0.0378
  773TIP3    H1 2283   2.487   3.791   0.618  2.4606 -0.4061  0.6868
  773TIP3    H2 2284   2.487   3.860   0.483 -0.6118 -1.2497  0.1910
  774TIP3   OH2 2285   7.098   3.170   3.775  0.2229  0.2597 -0.6445
  774TIP3    H1 2286   7.115   3.232   3.846  2.4004 -1.4126  0.4193
  774TIP3    H2 2287   7.028   3.115   3.808  0.6302  0.0341 -0.1481
  775TIP3   OH2 2288   2.108   3.215   2.858 -0.6664  0.5755 -0.3366
  775TIP3    H1 2289   2.129   3.129   2.820 -1.6653  0.5841 -0.9644
  775TIP3    H2 2290   2.180   3.271   2.831 -0.6491  0.2332 -1.0497
  776TIP3   OH2 2291   1.061   1.561   0.936 -0.0717  0.5268 -0.1572
  776TIP3    H1 2292   1.071   1.647   0.976  2.1073  0.1964  0.1534
  776TIP3    H2 2293   1.087   1.499   1.005 -0.8711 -0.3451 -0.6097
  777TIP3   OH2 2294   4.452   0.053   0.220 -0.2506 -0.7013 -0.0670
  777TIP3    H1 2295   4.384  -0.006   0.253 -1.1960 -0.5887 -1.6904
  777TIP3    H2 2296   4.414   0.091   0.141  1.8883 -0.9585 -1.2812
  778TIP3   OH2 2297   1.227   1.577   0.383  0.4235  0.2432 -0.2994
  778TIP3    H1 2298   1.162   1.515   0.350 -0.3696  0.4723  0.7847
  778TIP3    H2 2299   1.279   1.525   0.445  1.0809  0.1406 -0.9330
  779TIP3   OH2 2300   4.194   4.488   0.162  0.0702  0.0516  0.4839
  779TIP3    H1 2301   4.177   4.407   0.113  1.2382  0.4160 -0.5702
  779TIP3    H2 2302   4.107   4.518   0.190 -0.6504 -0.1038 -1.4837
  780TIP3   OH2 2303   1.812   1.740   1.463  0.2520  0.4255  0.3190
  780TIP3    H1 2304   1.856   1.741   1.548  0.5035  0.9457  0.1831
  780TIP3    H2 2305   1.856   1.669   1.415  0.7348  0.7321  0.2987
  781TIP3   OH2 2306   6.135   3.936   0.141 -0.4654 -0.2357 -0.2359
  781TIP3    H1 2307   6.049   3.897   0.127 -0.1022 -0.8794 -0.7269
  781TIP3    H2 2308   6.119   4.011   0.198 -1.2391 -0.8646  0.3976
  782TIP3   OH2 2309   6.039   0.348   5.726  0.0458  0.4617 -0.3990
  782TIP3    H1 2310   5.990   0.388   5.798  1.9843 -0.2106  1.3723
  782TIP3    H2 2311   5.998   0.262   5.715  0.2461  0.2469  0.4762
  783TIP3   OH2 2312   5.621   0.612   4.553 -0.4520  0.0926  0.0010
  783TIP3    H1 2313   5.575   0.536   4.516  0.8491 -1.0468  0.6095
  783TIP3    H2 2314   5.552   0.669   4.586 -1.5908  0.4155 -2.7210
  784TIP3   OH2 2315   2.866   6.368   3.256  0.2121 -0.4667  0.0444
  784TIP3    H1 2316   2.919   6.446   3.271 -0.2328 -0.0358 -0.5412
  784TIP3    H2 2317   2.908   6.299   3.307  0.5467  0.1872  0.6605
  785TIP3   OH2 2318   2.651   5.209   2.168 -0.5410  0.1998  0.2312
  785TIP3    H1 2319   2.635   5.278   2.233 -0.0074  1.2506 -0.7209
  785TIP3    H2 2320   2.687   5.255   2.093  0.7056 -1.2323 -0.1048
  786TIP3   OH2 2321   2.053   5.738   4.411 -0.6626  0.4183  0.4774
  786TIP3    H1 2322   2.051   5.644   4.393 -1.6783  0.2843  1.1842
  786TIP3    H2 2323   2.003   5.747   4.492  0.7615  1.3945  1.2725
  787TIP3   OH2 2324   3.086   0.496   0.606  0.0391  0.2597  0.1315
  787TIP3    H1 2325   3.030   0.573   0.592 -0.9586 -0.4730 -0.0863
  787TIP3    H2 2326   3.051   0.456   0.686  0.6529  0.1107  0.3305
  788TIP3   OH2 2327   0.274   3.547   4.490  0.3875  0.8310  0.3535
  788TIP3    H1 2328   0.198   3.576   4.440  0.2716  0.7822  0.5015
  788TIP3    H2 2329   0.344   3.541   4.425  0.3050  1.0287  0.2451
  789TIP3   OH2 2330   5.492   3.221   1.545  0.2887  0.7176  0.4282
  789TIP3    H1 2331   5.564   3.284   1.546  0.3219  0.6748  1.8106
  789TIP3    H2 2332   5.436   3.250   1.473  1.2435  1.2400 -0.1302
  790TIP3   OH2 2333   0.320   3.070   5.356 -0.0440  0.2368  0.2089
  790TIP3    H1 2334   0.321   3.162   5.385  1.3396  1.1143 -2.3374
  790TIP3    H2 2335   0.412   3.046   5.350 -0.3453 -0.7257 -0.8847
  791TIP3   OH2 2336   4.829   3.197   4.993  0.1648  0.4395 -0.8724
  791TIP3    H1 2337   4.793   3.280   4.963  0.8250  0.7868 -0.7137
  791TIP3    H2 2338   4.897   3.176   4.929  0.9755  0.7452 -0.1352
  792TIP3   OH2 2339   3.230   1.997   2.389 -0.1198 -0.3005  0.7033
  792TIP3    H1 2340   3.196   2.039   2.310 -0.6598  0.4580  1.3257
  792TIP3    H2 2341   3.152   1.966   2.435  0.2488 -1.6496  0.4523
  793TIP3   OH2 2342   0.592   5.166   0.503  0.0561 -0.1296  0.1547
  793TIP3    H1 2343   0.567   5.146   0.413  0.5603  0.0988 -0.0390
  793TIP3    H2 2344   0.577   5.084   0.550 -1.2261  0.0431  0.0961
  794TIP3   OH2 2345   2.075   4.656   3.831 -0.1772  0.1868  0.1620
  794TIP3    H1 2346   2.021   4.679   3.755 -1.2350  0.3952  0.9606
  794TIP3    H2 2347   2.013   4.630   3.898  0.7186  0.4111  1.1052
  795TIP3   OH2 2348   2.429   5.933   5.526 -0.0729  0.6079  0.0240
  795TIP3    H1 2349   2.481   5.854   5.541 -0.0903  0.7944  1.1314
  795TIP3    H2 2350   2.491   6.005   5.537  0.1259  0.7513 -1.7694
  796TIP3   OH2 2351   0.430   3.186   2.192 -0.5254  0.8958 -0.2912
  796TIP3    H1 2352   0.482   3.172   2.112  0.9179 -0.2027  0.7826
  796TIP3    H2 2353   0.420   3.281   2.197 -0.5055  0.9926 -1.6933
  797TIP3   OH2 2354   5.585   2.292   3.026 -0.6399  0.2077 -0.2498
  797TIP3    H1 2355   5.627   2.375   3.002  0.0307 -0.7893 -2.8486
  797TIP3    H2 2356   5.652   2.243   3.073 -0.2479  0.2377 -0.7733
  798TIP3   OH2 2357   5.241   4.412   1.505  0.0564  0.0195  0.1828
  798TIP3    H1 2358   5.302   4.480   1.477 -0.2860  0.0233 -0.5632
  798TIP3    H2 2359   5.157   4.437   1.466 -0.0479 -0.8945 -0.2085
  799TIP3   OH2 2360   6.095   0.931   0.987 -0.4389 -0.4888  0.2527
  799TIP3    H1 2361   6.107   0.994   1.058 -0.3653  0.6902 -0.7714
  799TIP3    H2 2362   6.160   0.955   0.922 -2.6126  0.5654 -1.6542
  800TIP3   OH2 2363   5.162   0.591   1.232 -0.4489 -0.3321  0.2766
  800TIP3    H1 2364   5.227   0.521   1.227  0.6053  0.7022 -1.0374
  800TIP3    H2 2365   5.085   0.556   1.187  0.6451 -0.0960 -1.9104
  801TIP3   OH2 2366   0.906   4.998   5.363  0.3004 -0.1195  0.2118
  801TIP3    H1 2367   0.827   5.036   5.401  0.6612  1.5498 -0.6008
  801TIP3    H2 2368   0.875   4.948   5.288 -0.0066  0.2822  0.0705
  802TIP3   OH2 2369   2.855   6.688   2.566  0.1861  0.0018 -0.6139
  802TIP3    H1 2370   2.893   6.611   2.609 -0.6646  0.0117  0.1909
  802TIP3    H2 2371   2.800   6.652   2.496  0.0667 -0.1158 -0.4621
  803TIP3   OH2 2372   3.594   5.818   5.765  0.0279 -0.0722  0.6469
  803TIP3    H1 2373   3.575   5.744   5.707 -0.3996 -0.0412  0.7461
  803TIP3    H2 2374   3.514   5.870   5.765  0.4648  0.6112  0.2653
  804TIP3   OH2 2375   4.373   6.737   3.496  0.4311  0.2464  0.5287
  804TIP3    H1 2376   4.331   6.818   3.525  0.1445  0.2949 -0.0174
  804TIP3    H2 2377   4.311   6.668   3.521  0.8561  0.1495  1.3575
  805TIP3   OH2 2378   6.576   1.024   4.443 -0.1231 -0.0345  0.5730
  805TIP3    H1 2379   6.573   1.018   4.538 -1.9120  1.3482  0.6560
  805TIP3    H2 2380   6.661   1.064   4.424 -0.6241  1.7399  1.7864
  806TIP3   OH2 2381   0.229   0.424   2.347 -0.2702 -0.0280  0.4948
  806TIP3    H1 2382   0.243   0.518   2.347 -0.4846  0.0097 -0.1691
  806TIP3    H2 2383   0.216   0.402   2.255 -0.6002 -0.6502  0.6869
  807TIP3   OH2 2384   0.643   1.340   0.121 -0.1359 -0.6384  0.4778
  807TIP3    H1 2385   0.613   1.426   0.150 -0.2616 -0.4236 -0.2956
  807TIP3    H2 2386   0.738   1.350   0.112  0.4638 -1.6418  4.0963
  808TIP3   OH2 2387   6.453   5.094   1.413 -0.0350  0.1851  0.2716
  808TIP3    H1 2388   6.439   5.117   1.322  0.4938 -0.5080  0.0022
  808TIP3    H2 2389   6.369   5.060   1.443  0.4585 -2.1489 -0.7665
  809TIP3   OH2 2390   2.043   5.842   5.876  0.1117  0.4881  0.1377
  809TIP3    H1 2391   2.080   5.891   5.802  1.6095  0.1253  0.6356
  809TIP3    H2 2392   2.104   5.770   5.891  0.6455  1.3860  2.6815
  810TIP3   OH2 2393   1.713   0.502   5.325 -0.4858  0.1799 -0.4308
  810TIP3    H1 2394   1.792   0.516   5.377 -0.3244 -0.4858 -0.4870
  810TIP3    H2 2395   1.651   0.569   5.356  0.1671  0.8410 -0.5333
  811TIP3   OH2 2396   4.132   5.779   3.955 -1.0567  0.1315  0.7146
  811TIP3    H1 2397   4.209   5.731   3.986 -0.2253  0.1669 -1.1419
  811TIP3    H2 2398   4.154   5.871   3.968 -0.0899  0.2220 -1.1278
  812TIP3   OH2 2399   2.300   4.982   4.668  0.0912  0.4480  0.4622
  812TIP3    H1 2400   2.266   5.063   4.706 -0.4826 -0.1498  1.2672
  812TIP3    H2 2401   2.344   4.938   4.741 -0.2169 -0.2929  0.2164
  813TIP3   OH2 2402   1.308   3.004   4.673  0.5614  0.3249 -0.1113
  813TIP3    H1 2403   1.225   3.044   4.649  0.8480  0.2778 -1.2445
  813TIP3    H2 2404   1.286   2.946   4.746 -0.2484  0.8851  0.1100
  814TIP3   OH2 2405   2.864   1.294   0.158  0.5967  0.1789 -0.1546
  814TIP3    H1 2406   2.896   1.248   0.080  3.4291  1.6303  0.0049
  814TIP3    H2 2407   2.798   1.354   0.125  2.0770  1.1039 -1.6268
  815TIP3   OH2 2408   1.438   3.553   0.913 -0.0779 -0.2853 -0.2650
  815TIP3    H1 2409   1.509   3.489   0.918  2.2151  1.9665 -1.5294
  815TIP3    H2 2410   1.483   3.638   0.906 -2.9397  1.4134  0.4199
  816TIP3   OH2 2411   0.502   5.925   4.586  0.3941  0.1910 -0.1301
  816TIP3    H1 2412   0.595   5.919   4.610  0.5206  1.9195 -0.0858
  816TIP3    H2 2413   0.469   5.998   4.637 -0.7695  0.2094 -0.8775
  817TIP3   OH2 2414   1.819   6.381   2.832 -0.1303 -0.0683 -0.2337
  817TIP3    H1 2415   1.880   6.439   2.879 -0.0398  0.7046 -1.2651
  817TIP3    H2 2416   1.735   6.427   2.836 -0.4082 -0.6117  0.2504
  818TIP3   OH2 2417   2.226   5.449   4.555  0.1522  0.4167  0.0468
  818TIP3    H1 2418   2.271   5.371   4.523 -0.5695 -0.1916  0.4902
  818TIP3    H2 2419   2.143   5.451   4.507 -0.0456  0.6348  0.3939
  819TIP3   OH2 2420   5.545   6.005   0.747 -0.1964  0.4518 -0.1626
  819TIP3    H1 2421   5.483   6.016   0.675 -0.1305  0.2185 -0.2558
  819TIP3    H2 2422   5.630   5.994   0.704 -0.3995 -1.4663 -0.1176
  820TIP3   OH2 2423   5.548   2.804   0.592 -0.2942 -0.3676 -0.5968
  820TIP3    H1 2424   5.527   2.805   0.686 -1.5747 -0.8922 -0.8484
  820TIP3    H2 2425   5.480   2.748   0.554  1.4655 -1.9485 -1.5625
  821TIP3   OH2 2426   0.662   3.839   2.593  0.0648 -0.5555 -0.2890
  821TIP3    H1 2427   0.708   3.824   2.510 -0.4771 -0.3613 -0.6333
  821TIP3    H2 2428   0.730   3.866   2.654  0.1475  1.7852 -1.3072
  822TIP3   OH2 2429   3.993   5.227   0.644 -0.0341 -0.0482  0.5820
  822TIP3    H1 2430   4.070   5.276   0.673  0.4079 -0.3993  0.0398
  822TIP3    H2 2431   4.008   5.138   0.674  1.9430 -1.1938 -3.1482
  823TIP3   OH2 2432   5.528   2.084   2.385 -0.2242  0.6776 -0.1170
  823TIP3    H1 2433   5.466   2.143   2.426 -1.8385 -0.1840 -1.2110
  823TIP3    H2 2434   5.574   2.137   2.321 -2.4106  0.6206 -1.8631
  824TIP3   OH2 2435   4.059   6.093   1.619 -0.5066  0.7117 -0.4271
  824TIP3    H1 2436   3.967   6.117   1.608 -0.6788 -0.4312 -1.9163
  824TIP3    H2 2437   4.071   6.083   1.713 -1.5003  2.3561 -0.0922
  825TIP3   OH2 2438   5.639   1.265   5.097 -0.0356 -0.1899  0.3196
  825TIP3    H1 2439   5.598   1.338   5.051 -0.0480 -0.2252  0.2737
  825TIP3    H2 2440   5.679   1.304   5.174  1.9028  0.2533 -0.8352
  826TIP3   OH2 2441   1.811   1.739   5.564 -0.5668 -0.3008  0.1407
  826TIP3    H1 2442   1.801   1.833   5.554 -0.7318 -0.1356  1.6490
  826TIP3    H2 2443   1.728   1.702   5.533 -0.6089  0.0525 -0.1830
  827TIP3   OH2 2444   5.066   3.388   2.539  0.3775  0.3545 -0.8540
  827TIP3    H1 2445   5.079   3.400   2.633  1.1193  1.5009 -1.0837
  827TIP3    H2 2446   4.981   3.346   2.532 -0.4449  1.7363  0.2531
  828TIP3   OH2 2447   3.161   6.449   1.501  0.4659  0.3213  0.2421
  828TIP3    H1 2448   3.152   6.538   1.467  0.7474  0.5251  0.6979
  828TIP3    H2 2449   3.179   6.395   1.423 -1.7150  0.3325 -0.3300
  829TIP3   OH2 2450   5.601   4.905   3.437  0.4885 -0.0265 -0.1274
  829TIP3    H1 2451   5.630   4.948   3.356  0.9054  1.1607  0.6298
  829TIP3    H2 2452   5.513   4.874   3.417  1.6223 -2.4408 -2.0060
  830TIP3   OH2 2453   5.290   0.735   1.990  0.6477 -0.0091 -0.4145
  830TIP3    H1 2454   5.347   0.661   1.967  1.1467 -0.2943  1.6149
  830TIP3    H2 2455   5.220   0.696   2.042  0.5409  0.8490  0.0954
  831TIP3   OH2 2456   4.417   4.653   0.044  0.2152 -0.3183  0.0978
  831TIP3    H1 2457   4.379   4.624  -0.040  0.6047 -2.2922  0.5510
  831TIP3    H2 2458   4.358   4.616   0.110  2.7017 -3.4359  0.8221
  832TIP3   OH2 2459   1.046   5.684   1.522 -0.3090 -0.7207 -0.1842
  832TIP3    H1 2460   1.130   5.643   1.502 -0.0821 -0.9294  1.0979
  832TIP3    H2 2461   0.985   5.647   1.459  0.6158 -0.3107 -1.3654
  833TIP3   OH2 2462   5.421   0.358   0.447 -0.6214  0.6779 -0.7269
  833TIP3    H1 2463   5.361   0.429   0.471  0.7356  1.3396  0.9147
  833TIP3    H2 2464   5.382   0.279   0.485  0.0613  1.2796  1.3304
  834TIP3   OH2 2465   6.757   5.602   3.714 -0.3342  0.5646 -0.5774
  834TIP3    H1 2466   6.815   5.528   3.730 -2.1399 -0.5206  1.5659
  834TIP3    H2 2467   6.753   5.610   3.619 -0.2797 -2.2869 -0.8810
  835TIP3   OH2 2468   1.988   1.536   0.843  0.3633 -0.1114  0.3644
  835TIP3    H1 2469   2.030   1.451   0.831 -0.0790 -0.4180  0.9119
  835TIP3    H2 2470   1.894   1.516   0.846  0.2412  0.4300  0.2316
  836TIP3   OH2 2471   2.062   6.307   5.517 -0.3493  0.4767  0.0587
  836TIP3    H1 2472   2.118   6.269   5.450  1.8783 -1.0467  2.5933
  836TIP3    H2 2473   1.993   6.242   5.531  0.4684 -0.2839  0.7227
  837TIP3   OH2 2474   2.287   3.484   2.511 -0.1365 -0.5322  0.2217
  837TIP3    H1 2475   2.349   3.420   2.475 -1.9087 -0.1106 -4.0979
  837TIP3    H2 2476   2.206   3.435   2.524 -0.1436 -0.1639  1.8498
  838TIP3   OH2 2477   4.662   1.928   3.967  0.5621  0.1070 -0.1552
  838TIP3    H1 2478   4.569   1.926   3.945 -0.3647 -0.6566  3.1862
  838TIP3    H2 2479   4.686   2.020   3.965 -0.2762  0.3111 -1.0098
  839TIP3   OH2 2480   6.312   4.742   0.113  0.5355  0.1012  0.4536
  839TIP3    H1 2481   6.338   4.669   0.169 -0.7360 -1.5549 -0.9833
  839TIP3    H2 2482   6.226   4.768   0.147 -1.3320 -2.4000 -1.8462
  840TIP3   OH2 2483   6.528   0.136   0.413  0.1619  0.4757  0.1499
  840TIP3    H1 2484   6.555   0.044   0.407  1.4283  0.9184 -2.9458
  840TIP3    H2 2485   6.439   0.137   0.378 -0.5631  0.2378  1.9006
  841TIP3   OH2 2486   7.147   4.310   3.242  0.0904 -0.2570 -0.0322
  841TIP3    H1 2487   7.163   4.229   3.194 -1.4098 -0.6311  0.0205
  841TIP3    H2 2488   7.223   4.320   3.299  0.1283 -1.8710  0.2707
  842TIP3   OH2 2489   3.467   2.276   1.676  0.6629 -0.5649  0.3593
  842TIP3    H1 2490   3.478   2.340   1.606  1.8505  1.9033  2.5992
  842TIP3    H2 2491   3.372   2.262   1.682  0.2150  2.0786  0.5970
  843TIP3   OH2 2492   4.042   3.012   0.220 -0.6280  0.1418  1.0858
  843TIP3    H1 2493   4.099   2.938   0.240 -0.2862  0.2991  0.7010
  843TIP3    H2 2494   4.068   3.081   0.281  0.5352  0.6832  0.0325
  844TIP3   OH2 2495   4.078   0.308   4.064 -0.3000 -0.3355  0.2363
  844TIP3    H1 2496   4.073   0.216   4.040  0.3101  0.0339 -1.4214
  844TIP3    H2 2497   3.988   0.340   4.053 -0.0546 -0.1869 -1.6524
  845TIP3   OH2 2498   5.227   3.166   3.280 -0.2309  0.0256  0.0222
  845TIP3    H1 2499   5.269   3.234   3.227  0.6242 -1.0991 -0.7832
  845TIP3    H2 2500   5.299   3.114   3.314 -0.8049  0.2564  1.7004
  846TIP3   OH2 2501   5.743   1.361   3.004 -0.5154 -0.0658 -0.2920
  846TIP3    H1 2502   5.793   1.385   3.082 -0.6762 -1.5606  0.2927
  846TIP3    H2 2503   5.762   1.431   2.941 -0.9708  1.5895  1.3134
  847TIP3   OH2 2504   5.511   3.237   4.480 -0.0206  0.5093 -0.7496
  847TIP3    H1 2505   5.574   3.309   4.476  0.6565 -0.0045  0.3015
  847TIP3    H2 2506   5.537   3.177   4.410  1.0288  0.0277  0.0297
  848TIP3   OH2 2507   4.922   4.884   4.149  0.4158  0.6284  0.5445
  848TIP3    H1 2508   4.904   4.973   4.118 -0.1712 -0.0485 -1.1982
  848TIP3    H2 2509   4.836   4.847   4.166  0.4331 -0.5113 -1.5521
  849TIP3   OH2 2510   6.109   1.658   1.488  0.1064 -0.2906  0.0755
  849TIP3    H1 2511   6.022   1.698   1.490 -0.5434 -1.2565 -3.0672
  849TIP3    H2 2512   6.092   1.565   1.475  1.5625 -0.3873 -1.5131
  850TIP3   OH2 2513   2.111   2.517   4.439 -0.6086  0.5409  0.1604
  850TIP3    H1 2514   2.027   2.548   4.473 -0.3651  1.3538  0.0473
  850TIP3    H2 2515   2.149   2.593   4.396  0.4049  0.3151  0.6243
  851TIP3   OH2 2516   2.224   2.335   5.710  0.4071  0.3754  0.1770
  851TIP3    H1 2517   2.311   2.295   5.700  1.0139  1.3688  1.1556
  851TIP3    H2 2518   2.196   2.356   5.621  0.3510 -1.5919 -0.3119
  852TIP3   OH2 2519   6.001   4.751   3.370 -0.2550 -0.0880  0.7339
  852TIP3    H1 2520   5.992   4.845   3.351  2.6966  0.4347  1.4133
  852TIP3    H2 2521   5.968   4.707   3.291 -0.0262  1.5876 -0.3507
  853TIP3   OH2 2522   6.594   0.375   3.053  0.1512  0.0668 -0.0286
  853TIP3    H1 2523   6.668   0.402   2.999 -0.6903  1.6200 -0.4705
  853TIP3    H2 2524   6.573   0.452   3.106 -1.4799 -0.1297 -0.3259
  854TIP3   OH2 2525   1.004   6.251   5.319 -0.2670 -0.4352  0.4836
  854TIP3    H1 2526   1.084   6.202   5.304  0.2085  0.7166 -0.9423
  854TIP3    H2 2527   1.010   6.326   5.260 -0.7320  1.6302  2.8820
  855TIP3   OH2 2528   2.808   0.719   0.271 -0.1608 -0.7448 -0.3768
  855TIP3    H1 2529   2.810   0.709   0.366 -1.3801 -0.2570 -0.2794
  855TIP3    H2 2530   2.866   0.651   0.238 -0.0178 -1.1597  0.7008
  856TIP3   OH2 2531   6.600   6.600   4.518  0.9021 -0.1432 -0.5596
  856TIP3    H1 2532   6.629   6.690   4.534  0.0670 -0.1515  1.3035
  856TIP3    H2 2533   6.566   6.601   4.429  0.1013  1.6219 -0.2738
  857TIP3   OH2 2534   4.613   2.028   2.611 -0.4997 -0.4052 -0.3709
  857TIP3    H1 2535   4.627   2.071   2.695  1.4401 -0.5701 -0.5810
  857TIP3    H2 2536   4.698   2.030   2.568 -1.4106 -0.4680 -2.2838
  858TIP3   OH2 2537   1.860   5.839   0.527  0.2458  0.1815  0.2402
  858TIP3    H1 2538   1.804   5.782   0.579  0.6219  1.0758  1.6814
  858TIP3    H2 2539   1.946   5.797   0.528  0.2905  0.2767  0.4860
  859TIP3   OH2 2540   4.904   3.315   2.206 -0.0967 -0.0457  0.4663
  859TIP3    H1 2541   4.850   3.286   2.279 -3.5517 -0.8946 -2.1893
  859TIP3    H2 2542   4.859   3.391   2.171  0.5928 -0.5375 -1.6621
  860TIP3   OH2 2543   2.410   0.078   0.018  0.7626 -0.0531  0.4662
  860TIP3    H1 2544   2.379   0.149  -0.038  2.2058 -0.2032 -0.5793
  860TIP3    H2 2545   2.356   0.084   0.097  0.3394  1.7135  0.0758
  861TIP3   OH2 2546   6.123   0.053   3.384 -0.4021 -0.0145  0.2748
  861TIP3    H1 2547   6.151   0.128   3.437 -0.0561  0.0159  0.0570
  861TIP3    H2 2548   6.028   0.048   3.397 -0.2156 -0.4940  1.5125
  862TIP3   OH2 2549   0.718   4.566   1.192  0.0756  0.1737  0.0108
  862TIP3    H1 2550   0.628   4.592   1.209  0.0215 -0.3677  0.5801
  862TIP3    H2 2551   0.726   4.569   1.097 -0.9175 -0.9845 -0.1230
  863TIP3   OH2 2552   0.183   2.372   3.155 -0.5467 -0.3511  0.4685
  863TIP3    H1 2553   0.088   2.361   3.149 -0.6509 -0.2125  1.5742
  863TIP3    H2 2554   0.200   2.459   3.119 -0.5856 -1.1337 -1.5534
  864TIP3   OH2 2555   7.074   1.623   2.730 -0.1653 -0.5330 -0.1989
  864TIP3    H1 2556   7.155   1.573   2.739  0.2181  0.0296 -0.4209
  864TIP3    H2 2557   7.018   1.570   2.673  0.2136 -0.7387 -0.3796
  865TIP3   OH2 2558   5.216   6.646   0.315  0.0038 -0.2329  0.2080
  865TIP3    H1 2559   5.133   6.693   0.325  0.0602  0.0730 -0.6507
  865TIP3    H2 2560   5.198   6.559   0.350 -0.5636 -0.0491  0.3945
  866TIP3   OH2 2561   5.691   4.018   0.291 -1.1274 -0.0156  0.3202
  866TIP3    H1 2562   5.777   4.020   0.250 -0.5557 -1.2154  1.4041
  866TIP3    H2 2563   5.638   4.079   0.239  0.4265  0.9396 -0.2092
  867TIP3   OH2 2564   2.227   5.809   4.200 -0.3490  0.8615 -0.6077
  867TIP3    H1 2565   2.157   5.816   4.135 -0.7570 -0.8979 -0.4031
  867TIP3    H2 2566   2.181   5.789   4.282  0.3541 -0.0234 -0.4127
  868TIP3   OH2 2567   3.178   5.758   3.479  0.4026 -0.1271 -0.0923
  868TIP3    H1 2568   3.226   5.813   3.418 -0.4425  2.3643  1.3607
  868TIP3    H2 2569   3.244   5.726   3.540  0.8326 -0.2897 -0.6440
  869TIP3   OH2 2570   6.161   0.732   1.516  0.4905 -0.0769 -0.2623
  869TIP3    H1 2571   6.092   0.797   1.531  0.3642  0.0702 -1.3727
  869TIP3    H2 2572   6.243   0.779   1.530  0.4162 -0.5364  2.2172
  870TIP3   OH2 2573   2.006   2.212   4.208 -0.2055  0.2563 -0.4414
  870TIP3    H1 2574   2.093   2.193   4.243  0.2991 -0.0063 -1.7902
  870TIP3    H2 2575   1.946   2.186   4.278  0.7843  0.3474  0.4724
  871TIP3   OH2 2576   5.377   1.285   2.373  0.5346  0.1636  0.1663
  871TIP3    H1 2577   5.303   1.278   2.313  0.5918 -0.7987  0.1814
  871TIP3    H2 2578   5.352   1.231   2.448  0.9488  0.4092  0.4849
  872TIP3   OH2 2579   3.834   5.722   1.957 -0.1820  0.1806 -0.3384
  872TIP3    H1 2580   3.844   5.797   2.016 -0.3076 -0.0905  0.0299
  872TIP3    H2 2581   3.822   5.647   2.015  0.2442 -0.1724 -0.6951
  873TIP3   OH2 2582   1.872   2.473   4.145  0.2362  0.4335 -0.0633
  873TIP3    H1 2583   1.829   2.472   4.230 -1.5626  0.7679 -0.9188
  873TIP3    H2 2584   1.914   2.387   4.138 -1.6066 -0.5478  0.2196
  874TIP3   OH2 2585   6.100   1.506   0.892  0.2214 -0.3604  0.2863
  874TIP3    H1 2586   6.093   1.494   0.798 -1.3863 -1.3503  0.4924
  874TIP3    H2 2587   6.014   1.481   0.926  0.7764 -0.0666  2.0202
  875TIP3   OH2 2588   6.273   3.672   5.155  0.0853 -0.7985  0.1496
  875TIP3    H1 2589   6.346   3.732   5.170 -1.0730  1.1307 -1.4391
  875TIP3    H2 2590   6.281   3.647   5.063 -0.4370 -1.7113  0.3451
  876TIP3   OH2 2591   1.868   6.644   2.949  0.0366  0.4122 -0.7615
  876TIP3    H1 2592   1.813   6.667   3.023 -1.7573  0.0553 -1.9157
  876TIP3    H2 2593   1.954   6.628   2.987 -0.5137  1.4656  1.0539
  877TIP3   OH2 2594   1.840   6.438   5.836  0.2221 -0.1298  0.5114
  877TIP3    H1 2595   1.844   6.533   5.848 -1.3017 -0.0759  0.8546
  877TIP3    H2 2596   1.812   6.404   5.921 -1.2751 -0.6680 -0.1544
  878TIP3   OH2 2597   0.656   0.106   2.271 -0.5524  0.5922  0.2482
  878TIP3    H1 2598   0.697   0.026   2.304 -0.8514 -0.3745 -1.5810
  878TIP3    H2 2599   0.622   0.150   2.349  2.9623  0.9478  1.8059
  879TIP3   OH2 2600   6.723   1.793   3.259 -0.2727  0.0933 -0.2497
  879TIP3    H1 2601   6.653   1.858   3.254 -0.9967 -0.6073  0.4597
  879TIP3    H2 2602   6.790   1.833   3.314 -0.9196  0.0694  0.5679
  880TIP3   OH2 2603   3.866   0.278   0.905  0.2040 -1.0799 -0.1848
  880TIP3    H1 2604   3.794   0.250   0.962  0.4705  0.0198  0.7540
  880TIP3    H2 2605   3.850   0.371   0.891  0.8937 -1.0445 -0.7950
  881TIP3   OH2 2606   0.838   3.312   3.437 -0.4738 -0.3557  0.4443
  881TIP3    H1 2607   0.858   3.222   3.410 -0.2909 -0.5448  1.1786
  881TIP3    H2 2608   0.747   3.309   3.465 -0.6967 -0.1353 -0.2511
  882TIP3   OH2 2609   3.767   2.187   2.404  0.5694  0.1213 -0.6617
  882TIP3    H1 2610   3.733   2.099   2.414 -0.3602  0.5406 -0.0531
  882TIP3    H2 2611   3.780   2.219   2.493 -0.7306  1.2033 -0.8230
  883TIP3   OH2 2612   4.893   4.458   3.914  0.5232 -0.5234 -0.1862
  883TIP3    H1 2613   4.810   4.488   3.952 -0.1546 -1.1088 -1.1795
  883TIP3    H2 2614   4.936   4.538   3.885  0.1028 -0.2564 -0.0869
  884TIP3   OH2 2615   3.589   6.091   4.276  0.5225  0.0425  0.3801
  884TIP3    H1 2616   3.650   6.143   4.223  2.7472 -0.7695  2.0037
  884TIP3    H2 2617   3.555   6.153   4.340 -0.7886  0.6067 -0.8122
  885TIP3   OH2 2618   1.331   2.370   1.757  0.0008  0.0088  0.5966
  885TIP3    H1 2619   1.289   2.400   1.837  0.0955 -1.0986  1.0887
  885TIP3    H2 2620   1.302   2.279   1.747  1.0608 -0.3060  0.1187
  886TIP3   OH2 2621   7.242   0.909   4.871  0.6472  0.8451 -0.3025
  886TIP3    H1 2622   7.210   0.820   4.884  1.1262  0.6273 -0.5684
  886TIP3    H2 2623   7.192   0.942   4.796 -0.5952  1.3464  0.7066
  887TIP3   OH2 2624   5.713   0.877   0.536 -0.6783 -0.2963  0.3764
  887TIP3    H1 2625   5.775   0.878   0.609  0.0472  0.0437 -0.2336
  887TIP3    H2 2626   5.689   0.969   0.524  1.2036  0.0259 -1.4575
  888TIP3   OH2 2627   1.913   2.581   4.657 -0.0734 -0.1917 -0.4256
  888TIP3    H1 2628   1.920   2.581   4.753 -0.7045 -1.0827 -0.3707
  888TIP3    H2 2629   1.826   2.546   4.639  0.6521 -1.5723 -1.3650
  889TIP3   OH2 2630   5.836   5.132   0.776 -0.3800  0.1600 -0.3413
  889TIP3    H1 2631   5.870   5.161   0.692 -0.1423  0.6056 -0.0911
  889TIP3    H2 2632   5.842   5.208   0.833 -1.4468  0.1515 -0.1838
  890TIP3   OH2 2633   4.177   3.830   3.286  0.4655  0.4186  0.2231
  890TIP3    H1 2634   4.132   3.756   3.327  0.9789 -0.0890 -0.0999
  890TIP3    H2 2635   4.223   3.873   3.358  0.2228  0.3740  0.4033
  891TIP3   OH2 2636   6.382   0.896   1.560 -0.0184 -0.3299 -0.1298
  891TIP3    H1 2637   6.431   0.841   1.621  0.4974  0.2918  0.0290
  891TIP3    H2 2638   6.425   0.982   1.564 -1.6055  0.4917  0.6399
  892TIP3   OH2 2639   1.323   2.327   5.231  0.2344 -0.8123  0.6432
  892TIP3    H1 2640   1.230   2.318   5.207  0.1696 -0.3129  0.6849
  892TIP3    H2 2641   1.370   2.311   5.149  0.1000 -0.8340  0.5695
  893TIP3   OH2 2642   6.117   5.109   2.582 -0.2460  0.1798 -0.0989
  893TIP3    H1 2643   6.040   5.055   2.599  0.1153 -0.0696  0.8044
  893TIP3    H2 2644   6.083   5.189   2.541 -0.8138 -0.5971 -1.1910
  894TIP3   OH2 2645   0.240   2.951   0.179 -0.1261 -0.8882 -0.0435
  894TIP3    H1 2646   0.293   2.890   0.228  0.8687 -1.8154 -2.1468
  894TIP3    H2 2647   0.152   2.914   0.181 -0.1748 -0.7480  1.2179
  895TIP3   OH2 2648   4.156   0.476   1.744 -0.3324 -0.0814  0.3458
  895TIP3    H1 2649   4.080   0.431   1.781 -0.4961 -0.4645 -0.4284
  895TIP3    H2 2650   4.134   0.487   1.651  0.3205  0.3118  0.2318
  896TIP3   OH2 2651   1.162   5.954   1.482 -0.0874  0.4001 -0.1441
  896TIP3    H1 2652   1.102   5.886   1.513  0.4881  0.8033  2.0089
  896TIP3    H2 2653   1.106   6.027   1.457 -0.6433 -0.4186 -1.4316
  897TIP3   OH2 2654   6.384   2.951   3.024 -0.2238 -0.4726  0.0093
  897TIP3    H1 2655   6.310   2.992   3.069  0.9769 -0.2013  1.8261
  897TIP3    H2 2656   6.348   2.871   2.988 -1.5794  0.0130  0.2173
  898TIP3   OH2 2657   2.383   4.610   4.528  0.2220 -0.7446 -0.0171
  898TIP3    H1 2658   2.292   4.600   4.500  0.4727  0.0634 -1.1878
  898TIP3    H2 2659   2.419   4.675   4.468  0.8903  0.8497  2.0035
  899TIP3   OH2 2660   6.209   6.139   5.618 -0.0272  0.0370 -0.6012
  899TIP3    H1 2661   6.302   6.161   5.605 -0.3077  1.5863 -0.1433
  899TIP3    H2 2662   6.191   6.161   5.709 -0.6748 -0.9925 -0.4616
  900TIP3   OH2 2663   7.098   3.320   5.459  0.1922 -0.5133  0.0136
  900TIP3    H1 2664   7.170   3.361   5.508  0.8878  1.6394 -2.5690
  900TIP3    H2 2665   7.136   3.293   5.376 -1.8213  0.2708 -1.2631
  901TIP3   OH2 2666   0.071   1.922   2.378  0.7972 -0.2102  0.0458
  901TIP3    H1 2667   0.007   1.888   2.441  1.8723 -0.7647  0.8777
  901TIP3    H2 2668   0.104   1.845   2.333  2.5834 -0.2555  1.3037
  902TIP3   OH2 2669   0.489   4.548   5.601  0.5968 -0.0009  0.3652
  902TIP3    H1 2670   0.441   4.471   5.572 -0.4149  0.2576  1.2811
  902TIP3    H2 2671   0.427   4.596   5.656  0.7100  2.1989 -1.2867
  903TIP3   OH2 2672   1.650   2.662   4.993  0.0124 -0.2210 -0.1075
  903TIP3    H1 2673   1.666   2.716   4.916  0.3163  0.8720  0.7033
  903TIP3    H2 2674   1.728   2.674   5.048  0.6236 -2.3765 -0.3938
  904TIP3   OH2 2675   5.592   0.750   1.756 -0.0820 -0.5494  0.1307
  904TIP3    H1 2676   5.652   0.725   1.686 -0.6035 -3.2893  0.5380
  904TIP3    H2 2677   5.510   0.772   1.711  0.6294  1.4038 -0.2990
  905TIP3   OH2 2678   2.054   4.896   1.610  0.5146 -0.0760 -0.1808
  905TIP3    H1 2679   1.962   4.875   1.593  0.3006  1.1749 -0.7167
  905TIP3    H2 2680   2.102   4.824   1.570 -0.1425  0.9171 -3.0351
  906TIP3   OH2 2681   3.461   6.752   0.718  0.0359 -0.6229  0.2335
  906TIP3    H1 2682   3.418   6.688   0.775 -1.1398  0.6922  0.8995
  906TIP3    H2 2683   3.403   6.758   0.642 -0.4704  0.4149  0.6751
  907TIP3   OH2 2684   4.440   3.183   5.435 -0.0019  0.1120  0.2106
  907TIP3    H1 2685   4.376   3.114   5.419  1.1542 -1.1172  0.6416
  907TIP3    H2 2686   4.394   3.247   5.488 -0.9699 -0.5930  0.2475
  908TIP3   OH2 2687   4.411   2.443   3.601 -0.0963  0.2472  0.4579
  908TIP3    H1 2688   4.472   2.471   3.532  0.3373  0.7783  1.0465
  908TIP3    H2 2689   4.465   2.395   3.663 -0.6810 -1.1761 -0.0888
  909TIP3   OH2 2690   2.586   3.323   1.332  0.0385 -0.0187  0.0981
  909TIP3    H1 2691   2.545   3.404   1.363  0.1127  0.4047 -0.8959
  909TIP3    H2 2692   2.520   3.256   1.349  0.3292  0.0647  1.8062
  910TIP3   OH2 2693   6.811   4.099   1.201 -0.0418  0.2569 -0.4326
  910TIP3    H1 2694   6.890   4.049   1.179 -0.4854 -0.2977 -0.7827
  910TIP3    H2 2695   6.748   4.076   1.132  0.2378  2.4963 -1.5339
  911TIP3   OH2 2696   5.348   6.296   0.479  0.0950 -0.1331 -0.2115
  911TIP3    H1 2697   5.379   6.342   0.401  0.4086 -2.5731 -1.6118
  911TIP3    H2 2698   5.256   6.277   0.460  1.0238 -3.9212 -1.7757
  912TIP3   OH2 2699   0.030   0.516   0.725 -0.2131 -0.1998 -0.3387
  912TIP3    H1 2700   0.085   0.453   0.773  1.6940  0.0094 -2.1135
  912TIP3    H2 2701   0.065   0.602   0.750 -0.2392 -0.0279 -0.8775
  913TIP3   OH2 2702   4.127   2.864   4.301  0.0266  0.3582  0.5848
  913TIP3    H1 2703   4.077   2.932   4.256  2.0666  1.2880 -0.4393
  913TIP3    H2 2704   4.072   2.787   4.297 -0.8220  0.9950 -1.6127
  914TIP3   OH2 2705   1.974   6.108   0.595 -0.4994 -0.0767 -0.8336
  914TIP3    H1 2706   1.936   6.020   0.592  3.7767 -2.2619  0.5302
  914TIP3    H2 2707   2.018   6.117   0.510 -1.0859  0.8668 -1.0446
  915TIP3   OH2 2708   4.867   4.061   2.651 -0.1485  0.0214  0.5860
  915TIP3    H1 2709   4.962   4.059   2.639  0.1486  0.2518  2.4834
  915TIP3    H2 2710   4.850   4.141   2.701 -0.9626 -1.2788  2.5646
  916TIP3   OH2 2711   1.243   6.257   1.699  0.3372 -0.8578  0.0666
  916TIP3    H1 2712   1.332   6.251   1.735  0.2993  2.6957  1.1529
  916TIP3    H2 2713   1.187   6.220   1.767  0.6997  1.2351  1.6191
  917TIP3   OH2 2714   1.233   4.245   3.556 -0.3526  0.2204 -0.5792
  917TIP3    H1 2715   1.240   4.253   3.461  1.1593  0.1011 -0.5027
  917TIP3    H2 2716   1.254   4.154   3.574  0.1446  0.4238 -0.0822
  918TIP3   OH2 2717   0.736   4.405   5.377  0.1686  0.2394 -0.7992
  918TIP3    H1 2718   0.706   4.494   5.361  0.1191  0.3848  0.0474
  918TIP3    H2 2719   0.656   4.353   5.381 -0.1330  0.7187  2.0345
  919TIP3   OH2 2720   3.842   1.363   2.643  0.3585  0.2758  0.5157
  919TIP3    H1 2721   3.887   1.339   2.724 -0.5246 -1.1677  0.6319
  919TIP3    H2 2722   3.752   1.332   2.656  0.1341  0.2648 -0.8978
  920TIP3   OH2 2723   0.240   2.650   4.951  0.2197  0.1360  0.2016
  920TIP3    H1 2724   0.169   2.616   4.896 -0.0802 -2.4607  1.9960
  920TIP3    H2 2725   0.198   2.711   5.011  0.1874  1.3563 -1.0155
  921TIP3   OH2 2726   3.586   0.805   5.587 -0.7852 -0.2068 -0.0461
  921TIP3    H1 2727   3.655   0.803   5.655 -1.4459 -0.7130  0.6302
  921TIP3    H2 2728   3.539   0.722   5.599 -0.7111 -0.4521 -1.3539
  922TIP3   OH2 2729   7.182   5.129   5.857  0.1624 -0.1777 -0.6993
  922TIP3    H1 2730   7.119   5.162   5.793  0.3407 -1.5588 -1.6445
  922TIP3    H2 2731   7.161   5.175   5.938 -1.5951 -0.0849 -1.1697
  923TIP3   OH2 2732   4.066   0.942   5.133 -0.1672  0.2630  0.4072
  923TIP3    H1 2733   4.096   0.875   5.195 -2.4771 -0.9254  0.3680
  923TIP3    H2 2734   4.081   1.025   5.178  1.9608 -0.2944  0.8308
  924TIP3   OH2 2735   5.602   1.060   1.338 -0.0038  0.2195  0.3566
  924TIP3    H1 2736   5.605   1.065   1.434 -1.4994  1.5492  0.3881
  924TIP3    H2 2737   5.523   1.008   1.320 -1.2780  2.1828 -0.0960
  925TIP3   OH2 2738   5.536   4.509   4.918  0.2345 -0.1199 -0.1838
  925TIP3    H1 2739   5.574   4.588   4.880 -1.0421  1.1032  0.9470
  925TIP3    H2 2740   5.442   4.519   4.905 -0.1788 -0.1077  2.3333
  926TIP3   OH2 2741   6.765   6.356   1.101 -0.3320  0.0145 -0.3156
  926TIP3    H1 2742   6.700   6.419   1.070  1.7534  4.0212  2.6066
  926TIP3    H2 2743   6.751   6.350   1.195  3.2049  0.8279  0.3964
  927TIP3   OH2 2744   3.143   3.339   5.813  0.3919 -0.1177  0.0404
  927TIP3    H1 2745   3.180   3.409   5.866  0.1602 -0.3592  0.5285
  927TIP3    H2 2746   3.217   3.306   5.762  0.3691  0.9098 -0.6902
  928TIP3   OH2 2747   2.849   6.418   1.987 -0.2022 -0.2428 -0.0884
  928TIP3    H1 2748   2.903   6.409   1.909 -1.5807 -2.5568 -0.8718
  928TIP3    H2 2749   2.903   6.382   2.058  0.4576  0.4407 -0.2230
  929TIP3   OH2 2750   6.596   5.074   2.176 -0.1656 -1.1574  0.2369
  929TIP3    H1 2751   6.596   4.999   2.116  0.0680 -0.6350 -0.4382
  929TIP3    H2 2752   6.667   5.056   2.237 -0.3877 -1.6874  0.3419
  930TIP3   OH2 2753   3.020   6.201   3.401 -0.2597  0.1200  0.2838
  930TIP3    H1 2754   3.113   6.179   3.407 -0.0873  0.5642 -0.5418
  930TIP3    H2 2755   2.984   6.178   3.486  0.6002 -0.1034  0.5956
  931TIP3   OH2 2756   4.151   4.418   2.543  0.3788  0.6968 -0.3816
  931TIP3    H1 2757   4.091   4.351   2.574  0.9363  0.8261  1.0637
  931TIP3    H2 2758   4.200   4.376   2.473 -0.6991  0.2842 -0.9181
  932TIP3   OH2 2759   2.510   3.949   2.578 -0.3406  0.0368 -0.0235
  932TIP3    H1 2760   2.435   3.890   2.570 -0.2088 -0.2943  1.0021
  932TIP3    H2 2761   2.518   3.964   2.672 -1.6894  3.4324 -0.3276
  933TIP3   OH2 2762   0.292   6.373   4.475 -0.2024 -0.7587  0.1234
  933TIP3    H1 2763   0.321   6.453   4.431 -1.2282 -1.1511 -1.3617
  933TIP3    H2 2764   0.197   6.380   4.476 -0.2138 -0.6534  2.5936
  934TIP3   OH2 2765   3.486   1.729   2.899  0.2000 -0.0176 -0.9220
  934TIP3    H1 2766   3.552   1.687   2.955 -0.8176  0.4998  0.7615
  934TIP3    H2 2767   3.474   1.816   2.938 -0.8980  0.1836 -1.6725
  935TIP3   OH2 2768   5.640   5.618   2.176 -0.0388 -0.3921 -0.2937
  935TIP3    H1 2769   5.575   5.633   2.245  0.7002  1.0412  0.1170
  935TIP3    H2 2770   5.599   5.655   2.097  0.2962  0.5798 -0.0200
  936TIP3   OH2 2771   6.650   1.675   2.519 -0.8907  0.2434  0.1553
  936TIP3    H1 2772   6.643   1.703   2.610 -0.3119  0.3194  0.1759
  936TIP3    H2 2773   6.692   1.748   2.474 -1.5315  0.3717 -0.2592
  937TIP3   OH2 2774   5.691   5.113   0.211 -0.4281 -0.4484  0.1304
  937TIP3    H1 2775   5.682   5.185   0.149  1.0001 -0.6730 -0.3774
  937TIP3    H2 2776   5.617   5.056   0.192 -0.7882  0.1766 -0.4190
  938TIP3   OH2 2777   2.555   2.072   4.194 -0.4876  0.6889  0.2673
  938TIP3    H1 2778   2.550   1.978   4.212 -2.0577  0.7931  0.5350
  938TIP3    H2 2779   2.602   2.109   4.268  0.7078  0.0547 -0.1454
  939TIP3   OH2 2780   0.168   3.499   2.686 -0.2262  0.3875  0.4187
  939TIP3    H1 2781   0.233   3.486   2.755  1.7235  0.6958 -1.2686
  939TIP3    H2 2782   0.157   3.593   2.680  1.8850  0.6142 -1.5528
  940TIP3   OH2 2783   7.033   3.215   2.456  0.1439  0.1198 -0.3480
  940TIP3    H1 2784   7.085   3.134   2.458  0.4857  0.3605  0.9916
  940TIP3    H2 2785   7.063   3.265   2.531 -2.0459  0.2690  0.4915
  941TIP3   OH2 2786   3.727   0.059   2.714 -0.5990  0.1510 -0.0515
  941TIP3    H1 2787   3.805   0.005   2.710 -0.7000 -0.1508  1.4213
  941TIP3    H2 2788   3.686   0.049   2.628  0.9715  0.3451 -0.8666
  942TIP3   OH2 2789   2.526   6.626   5.504 -0.0678 -0.2182  0.2660
  942TIP3    H1 2790   2.503   6.669   5.422 -0.7102 -1.1841 -0.0758
  942TIP3    H2 2791   2.563   6.542   5.478 -1.0895 -0.9084  0.9761
  943TIP3   OH2 2792   1.009   0.825   4.752 -0.0193 -0.0438  0.1060
  943TIP3    H1 2793   0.973   0.837   4.664 -0.8208 -2.8310 -0.0540
  943TIP3    H2 2794   1.100   0.799   4.738 -0.6399 -2.3304 -0.1019
  944TIP3   OH2 2795   0.116   1.380   1.535  0.8666  0.1131 -0.0628
  944TIP3    H1 2796   0.126   1.348   1.624  0.2518  0.4350  0.1278
  944TIP3    H2 2797   0.083   1.304   1.486  0.4986  0.1322  0.1474
  945TIP3   OH2 2798   3.646   6.353   0.409  0.4004 -0.3788  0.3352
  945TIP3    H1 2799   3.663   6.372   0.316 -1.2199  1.3587  0.3270
  945TIP3    H2 2800   3.571   6.294   0.407 -1.0670  1.3796  0.5011
  946TIP3   OH2 2801   1.685   5.408   2.877  0.0864 -0.6702 -0.6996
  946TIP3    H1 2802   1.645   5.351   2.812 -0.0276  1.3422 -2.5249
  946TIP3    H2 2803   1.644   5.493   2.863 -0.5206 -0.2747  2.5899
  947TIP3   OH2 2804   1.911   6.521   1.697  0.5158  0.6291  0.1239
  947TIP3    H1 2805   1.909   6.441   1.750 -0.2282  0.7615  0.3028
  947TIP3    H2 2806   1.845   6.577   1.736  0.8037  1.2074 -0.2102
  948TIP3   OH2 2807   6.367   4.317   2.913 -0.3250 -0.0420 -0.9015
  948TIP3    H1 2808   6.409   4.382   2.970 -0.5202  0.7349 -1.6215
  948TIP3    H2 2809   6.439   4.275   2.867 -0.2427  0.2168 -1.0106
  949TIP3   OH2 2810   4.364   5.528   2.503  0.1095  0.0662  0.0953
  949TIP3    H1 2811   4.450   5.561   2.529  0.6228 -0.9925 -0.2095
  949TIP3    H2 2812   4.380   5.438   2.473 -1.0934 -0.1349 -0.0161
  950TIP3   OH2 2813   2.284   2.716   2.735 -0.0288 -0.2429  0.1344
  950TIP3    H1 2814   2.265   2.738   2.644 -0.2257  1.0706  0.4612
  950TIP3    H2 2815   2.312   2.800   2.773  1.6018 -1.0919  0.8841
  951TIP3   OH2 2816   1.001   3.263   2.673  0.2807  0.1461 -0.0897
  951TIP3    H1 2817   1.061   3.237   2.603  0.5072 -0.6786  0.4012
  951TIP3    H2 2818   0.952   3.337   2.636  2.1051  1.3370 -0.2188
  952TIP3   OH2 2819   1.126   5.278   3.517  0.1576  0.0617  0.6075
  952TIP3    H1 2820   1.213   5.314   3.536  0.7115 -0.5359 -0.7155
  952TIP3    H2 2821   1.077   5.352   3.483  1.2996 -0.3313 -2.1279
  953TIP3   OH2 2822   1.452   6.824   1.603 -0.1205  0.1606  0.0421
  953TIP3    H1 2823   1.488   6.736   1.597  0.3061  0.4201 -1.6911
  953TIP3    H2 2824   1.368   6.819   1.557  0.0107  0.6944 -0.2731
  954TIP3   OH2 2825   5.733   4.671   0.123 -0.3095  0.2232  0.0023
  954TIP3    H1 2826   5.763   4.582   0.105 -0.1542  0.0919  0.8496
  954TIP3    H2 2827   5.714   4.708   0.037  2.3510  0.3473 -0.6189
  955TIP3   OH2 2828   5.377   1.390   3.404 -0.1989  0.3354 -0.3115
  955TIP3    H1 2829   5.303   1.429   3.357  0.4531  1.9223 -0.0742
  955TIP3    H2 2830   5.372   1.296   3.383 -0.4679  0.8494 -2.8005
  956TIP3   OH2 2831   7.102   1.203   5.750 -0.0395 -0.1210 -0.3006
  956TIP3    H1 2832   7.145   1.146   5.686 -0.5148  1.5407 -2.1908
  956TIP3    H2 2833   7.047   1.261   5.698  0.3854  2.0594  1.5104
  957TIP3   OH2 2834   2.489   4.399   2.387 -0.4008  0.3832  0.0866
  957TIP3    H1 2835   2.569   4.452   2.388  0.1907 -0.4626 -0.4861
  957TIP3    H2 2836   2.418   4.462   2.397  0.2801  1.2783 -0.5627
  958TIP3   OH2 2837   4.889   5.010   2.841  0.0406 -0.0014 -0.2108
  958TIP3    H1 2838   4.939   5.042   2.766  0.7551 -1.8256 -0.5537
  958TIP3    H2 2839   4.831   4.943   2.804  0.9223 -1.4519  0.9492
  959TIP3   OH2 2840   6.271   1.317   0.998  0.0097  0.2575  0.4540
  959TIP3    H1 2841   6.206   1.373   0.957 -1.3253 -2.3035 -1.1783
  959TIP3    H2 2842   6.252   1.324   1.092 -1.9953  0.3596  0.0877
  960TIP3   OH2 2843   3.904   0.809   0.111  0.5811  0.2722 -0.2613
  960TIP3    H1 2844   3.860   0.892   0.090 -0.1533  0.0314  0.2803
  960TIP3    H2 2845   3.986   0.812   0.061  0.2004  0.9746 -0.8657
  961TIP3   OH2 2846   1.470   6.721   0.808 -0.4526 -0.1661  0.4657
  961TIP3    H1 2847   1.426   6.685   0.730  0.0421  0.9625 -0.3709
  961TIP3    H2 2848   1.468   6.816   0.794  1.8041 -0.0485  0.6313
  962TIP3   OH2 2849   3.948   5.236   3.451  0.1410  0.5670 -0.3132
  962TIP3    H1 2850   4.034   5.198   3.433 -0.4851 -1.5449  0.8817
  962TIP3    H2 2851   3.962   5.290   3.529  0.3003 -0.2284  0.2246
  963TIP3   OH2 2852   0.355   6.559   1.157  0.3192  0.2034  0.1964
  963TIP3    H1 2853   0.405   6.588   1.233  1.5228  0.8505 -0.7968
  963TIP3    H2 2854   0.414   6.500   1.111 -0.2017  0.1966 -0.4787
  964TIP3   OH2 2855   6.274   1.513   2.524  0.2962  0.3436  0.4261
  964TIP3    H1 2856   6.348   1.539   2.470 -0.5436  1.6602 -0.1466
  964TIP3    H2 2857   6.218   1.591   2.527 -1.8859 -1.0858 -0.5871
  965TIP3   OH2 2858   6.512   4.207   2.103 -0.2697  0.8505  0.1746
  965TIP3    H1 2859   6.549   4.284   2.060  0.6477  1.0965  1.3315
  965TIP3    H2 2860   6.540   4.215   2.194  0.0322 -0.9673  0.2821
  966TIP3   OH2 2861   0.545   6.325   4.071  0.6120  0.0124  0.0453
  966TIP3    H1 2862   0.469   6.266   4.068  1.5105 -1.1394 -1.6670
  966TIP3    H2 2863   0.592   6.308   3.989  1.1144  2.8784 -0.3807
  967TIP3   OH2 2864   5.186   6.362   1.687 -0.0042 -0.2799  0.0542
  967TIP3    H1 2865   5.230   6.367   1.602  2.0577 -0.1128  1.0973
  967TIP3    H2 2866   5.147   6.449   1.698 -1.7089 -0.7820 -1.3860
  968TIP3   OH2 2867   6.051   2.775   2.727  0.3044  0.3350  0.3255
  968TIP3    H1 2868   6.127   2.723   2.753 -2.0160 -3.2777  0.5974
  968TIP3    H2 2869   6.069   2.800   2.637  1.1706 -1.9862 -0.2344
  969TIP3   OH2 2870   1.184   4.900   1.639 -0.8977  0.2687 -0.3444
  969TIP3    H1 2871   1.111   4.958   1.658 -1.6037 -0.1556 -1.6611
  969TIP3    H2 2872   1.145   4.813   1.631 -0.0661 -0.1673  0.1233
  970TIP3   OH2 2873   4.397   5.864   1.047  0.3826  0.3160  0.6772
  970TIP3    H1 2874   4.401   5.819   0.963 -0.5066 -0.4866  1.0438
  970TIP3    H2 2875   4.372   5.953   1.026  0.2543  0.1408  0.0772
  971TIP3   OH2 2876   0.832   3.331   2.876  0.7533  0.1739 -0.1611
  971TIP3    H1 2877   0.877   3.281   2.808  1.8184  2.6498 -1.3845
  971TIP3    H2 2878   0.895   3.399   2.901 -0.8913  1.3792  0.8793
  972TIP3   OH2 2879   5.341   4.221   4.325  0.2528  0.4450  0.1696
  972TIP3    H1 2880   5.428   4.183   4.311  0.7543  1.7017 -0.2162
  972TIP3    H2 2881   5.356   4.315   4.328 -1.2158  0.7356 -0.7600
  973TIP3   OH2 2882   1.842   3.384   2.781 -0.6211  1.0150  0.1711
  973TIP3    H1 2883   1.849   3.476   2.806 -2.5400  0.7552  1.9852
  973TIP3    H2 2884   1.751   3.374   2.752 -0.7670 -0.4862  1.0288
  974TIP3   OH2 2885   5.735   5.126   1.306  0.3298  0.7483  0.0747
  974TIP3    H1 2886   5.779   5.170   1.378  0.6922 -1.3572  1.2220
  974TIP3    H2 2887   5.659   5.084   1.346  1.1722 -1.4209 -0.4960
  975TIP3   OH2 2888   3.490   3.697   5.824 -0.1064 -0.0744 -0.5766
  975TIP3    H1 2889   3.505   3.790   5.842 -0.8563  0.3428 -1.9514
  975TIP3    H2 2890   3.568   3.668   5.777 -0.9093  0.5474 -2.3909
  976TIP3   OH2 2891   0.910   1.505   4.393  0.4139  0.5086  0.0322
  976TIP3    H1 2892   0.946   1.440   4.453 -0.8429  1.1268  1.5366
  976TIP3    H2 2893   0.957   1.491   4.311  0.7098 -1.7792  0.5234
  977TIP3   OH2 2894   1.341   5.687   3.379  0.3920 -0.4373 -1.1420
  977TIP3    H1 2895   1.427   5.655   3.407  0.4678 -1.1730 -2.1616
  977TIP3    H2 2896   1.332   5.656   3.289 -0.5422  0.4513 -1.3751
  978TIP3   OH2 2897   5.446   4.763   2.087  0.1915 -0.3651  0.0407
  978TIP3    H1 2898   5.533   4.751   2.048  0.8447 -1.0107  1.6213
  978TIP3    H2 2899   5.386   4.751   2.014  1.4201  0.2225 -1.1186
  979TIP3   OH2 2900   0.160   4.069   1.273  0.6233 -0.2904  0.6581
  979TIP3    H1 2901   0.188   4.069   1.182  0.1453 -0.8458  0.5071
  979TIP3    H2 2902   0.178   4.158   1.304  2.0711 -0.4853  0.4246
  980TIP3   OH2 2903   2.569   3.060   3.789  0.1070 -0.1303 -0.1787
  980TIP3    H1 2904   2.507   3.132   3.784 -1.2323 -1.2356 -0.1162
  980TIP3    H2 2905   2.612   3.058   3.703  0.3978  0.9187 -0.0662
  981TIP3   OH2 2906   3.443   4.702   4.054 -0.0280  0.2308 -0.1736
  981TIP3    H1 2907   3.383   4.776   4.050  0.1276  0.5494  1.8566
  981TIP3    H2 2908   3.419   4.657   4.136  0.3991 -1.5213 -0.9549
  982TIP3   OH2 2909   6.318   0.396   5.469  0.2305 -0.2479 -0.4572
  982TIP3    H1 2910   6.293   0.393   5.376 -0.5235  1.1916 -0.3261
  982TIP3    H2 2911   6.410   0.422   5.468  0.1556  0.0129 -0.8011
  983TIP3   OH2 2912   2.742   2.940   5.517 -0.5643 -0.1645 -0.5646
  983TIP3    H1 2913   2.816   2.974   5.466  0.4024  0.2245  1.0387
  983TIP3    H2 2914   2.782   2.891   5.588 -1.8702 -0.3098  0.0978
  984TIP3   OH2 2915   5.540   0.968   3.234 -0.0744  0.3131  0.5136
  984TIP3    H1 2916   5.629   0.993   3.210  0.5615 -2.5384 -0.6383
  984TIP3    H2 2917   5.549   0.926   3.320 -0.2559 -0.1016  0.3350
  985TIP3   OH2 2918   2.142   2.498   2.674 -0.6126  0.0107  0.1614
  985TIP3    H1 2919   2.206   2.552   2.720 -0.4810  0.7783 -0.8874
  985TIP3    H2 2920   2.098   2.559   2.615  0.1568 -1.1866 -1.7279
  986TIP3   OH2 2921   0.711   4.073   1.766 -1.4430  0.0328  0.9542
  986TIP3    H1 2922   0.632   4.111   1.728 -1.8068 -1.6472 -0.0927
  986TIP3    H2 2923   0.688   4.054   1.857 -1.6027  1.2325  1.1814
  987TIP3   OH2 2924   5.327   3.755   2.393  0.1149  0.0029 -0.5086
  987TIP3    H1 2925   5.339   3.670   2.352  3.4703 -0.3194  0.7968
  987TIP3    H2 2926   5.401   3.807   2.362  0.9249  0.7881  2.4222
  988TIP3   OH2 2927   0.996   0.366   2.400  0.1103  0.3378  0.4655
  988TIP3    H1 2928   0.968   0.354   2.491 -1.6393  2.2646  0.2640
  988TIP3    H2 2929   1.034   0.454   2.398  0.6131  0.1133 -0.5747
  989TIP3   OH2 2930   1.956   3.001   0.304 -0.5463 -0.1762 -0.2221
  989TIP3    H1 2931   1.971   2.910   0.278  0.1947 -0.4596  1.1086
  989TIP3    H2 2932   1.875   3.026   0.260 -1.3460 -1.8324  0.2438
  990TIP3   OH2 2933   4.583   0.696   1.365  0.0885  0.0649 -0.4445
  990TIP3    H1 2934   4.537   0.648   1.433  1.2871  0.3259  0.5776
  990TIP3    H2 2935   4.548   0.785   1.370 -0.9025 -0.2594 -1.2046
  991TIP3   OH2 2936   1.875   5.229   3.010  0.0719 -0.2352  0.0634
  991TIP3    H1 2937   1.802   5.290   3.004 -0.7881 -1.2569 -0.2455
  991TIP3    H2 2938   1.950   5.283   3.035 -1.1217  0.6129  2.0682
  992TIP3   OH2 2939   4.575   0.906   4.208  0.1825 -0.0944 -0.5004
  992TIP3    H1 2940   4.593   0.812   4.209  2.8217  0.3537  0.4533
  992TIP3    H2 2941   4.644   0.945   4.261 -1.2185  2.3546 -0.3118
  993TIP3   OH2 2942   5.675   4.055   1.646 -0.7957  0.2561  0.3361
  993TIP3    H1 2943   5.609   4.008   1.697 -0.3174 -3.5240 -2.1914
  993TIP3    H2 2944   5.747   3.993   1.635  1.1877  2.5967 -0.9185
  994TIP3   OH2 2945   7.169   2.340   3.864 -0.0797 -0.3035 -0.5925
  994TIP3    H1 2946   7.178   2.338   3.959 -0.8471 -2.2586 -0.5107
  994TIP3    H2 2947   7.258   2.347   3.831  0.3574 -1.6140  0.2692
  995TIP3   OH2 2948   4.158   2.556   5.289 -0.2110 -0.9058  0.0809
  995TIP3    H1 2949   4.251   2.577   5.297 -0.3046 -0.5242  0.1537
  995TIP3    H2 2950   4.150   2.518   5.201  0.0165 -0.9578  0.0819
  996TIP3   OH2 2951   5.545   5.973   4.942  0.2862  0.2563  0.0902
  996TIP3    H1 2952   5.609   5.990   5.011  0.8319 -0.6645 -0.1719
  996TIP3    H2 2953   5.594   5.985   4.860 -0.0676  0.2622 -0.1235
  997TIP3   OH2 2954   2.851   1.176   1.631 -0.5220 -0.0925  0.3880
  997TIP3    H1 2955   2.806   1.099   1.597  0.0522 -0.3717  0.2505
  997TIP3    H2 2956   2.835   1.244   1.565 -0.5009 -0.2700  0.1976
  998TIP3   OH2 2957   6.756   3.440   2.477  0.0729  0.0704  0.1085
  998TIP3    H1 2958   6.799   3.467   2.396  0.2917  0.9244  0.5010
  998TIP3    H2 2959   6.752   3.344   2.471  2.5619 -0.1035  0.3263
  999TIP3   OH2 2960   5.456   3.245   2.328  1.1262 -0.1826  0.1000
  999TIP3    H1 2961   5.412   3.324   2.295  1.1261  0.6175  1.9010
  999TIP3    H2 2962   5.386   3.184   2.346  0.7337  0.8313  2.2893
 1000TIP3   OH2 2963   6.291   2.555   5.776  0.1530  0.7276  0.7547
 1000TIP3    H1 2964   6.293   2.596   5.863 -0.1342 -0.1060  1.1645
 1000TIP3    H2 2965   6.355   2.485   5.781  1.4250  1.7569 -0.2900
 1001TIP3   OH2 2966   1.777   6.300   0.682 -0.8927 -0.0046 -0.4501
 1001TIP3    H1 2967   1.842   6.232   0.663  1.6459  2.2772 -0.4968
 1001TIP3    H2 2968   1.777   6.356   0.605 -2.3558  0.5172 -0.1061
 1002TIP3   OH2 2969   4.316   6.244   1.342 -0.1900 -0.3219  0.2144
 1002TIP3    H1 2970   4.346   6.184   1.411 -1.6682 -0.8178  0.4578
 1002TIP3    H2 2971   4.278   6.318   1.389 -0.2581 -0.1658 -0.0837
 1003TIP3   OH2 2972   2.955   4.947   4.848 -0.2346 -0.0311  0.3231
 1003TIP3    H1 2973   3.005   5.025   4.824  0.4050 -0.0718  1.4835
 1003TIP3    H2 2974   2.920   4.915   4.764  0.3565  0.8951 -0.3014
 1004TIP3   OH2 2975   1.166   1.262   3.516  0.1913  0.1284  0.1466
 1004TIP3    H1 2976   1.106   1.337   3.526  1.6144  1.2245  0.8174
 1004TIP3    H2 2977   1.253   1.302   3.511  1.2338 -1.5572  2.7729
 1005TIP3   OH2 2978   6.604   3.984   3.853  0.8950 -0.0936 -0.0209
 1005TIP3    H1 2979   6.623   4.011   3.943  2.1777 -0.5523 -0.1300
 1005TIP3    H2 2980   6.515   3.949   3.857 -0.3834  2.9375  0.3529
 1006TIP3   OH2 2981   4.730   0.898   2.154 -0.3962 -0.1293  0.3681
 1006TIP3    H1 2982   4.730   0.876   2.247 -1.5330 -1.8280  0.0182
 1006TIP3    H2 2983   4.809   0.857   2.120 -0.4813 -0.3448  0.4257
 1007TIP3   OH2 2984   5.123   5.072   0.747 -0.2712 -0.1134  0.3300
 1007TIP3    H1 2985   5.141   5.107   0.660  0.6328 -0.7133  0.2681
 1007TIP3    H2 2986   5.208   5.045   0.781 -0.9045 -2.3904  0.3090
 1008TIP3   OH2 2987   2.223   0.543   3.966 -0.5296  0.3476  0.1093
 1008TIP3    H1 2988   2.149   0.586   4.008 -1.9863 -0.6109 -1.3618
 1008TIP3    H2 2989   2.298   0.600   3.983 -1.7559  1.7521  0.9516
 1009TIP3   OH2 2990   1.031   0.711   5.316  0.2489 -0.2377  0.5250
 1009TIP3    H1 2991   1.105   0.763   5.347  0.6037 -0.1879 -0.3826
 1009TIP3    H2 2992   0.954   0.755   5.352  0.4326  1.8095 -1.3647
 1010TIP3   OH2 2993   3.980   1.890   2.324  0.1941  0.0530 -0.0731
 1010TIP3    H1 2994   3.898   1.923   2.359  0.5514  0.2256  0.6292
 1010TIP3    H2 2995   3.957   1.851   2.240 -0.6172 -0.0009  0.1681
 1011TIP3   OH2 2996   1.600   4.422   0.003 -0.4641 -0.8637  0.4766
 1011TIP3    H1 2997   1.533   4.359  -0.023 -0.4181 -0.0083 -1.8988
 1011TIP3    H2 2998   1.550   4.501   0.025 -0.3625 -0.9156  0.8947
 1012TIP3   OH2 2999   0.594   0.380   1.187 -0.4377  0.1427  0.7449
 1012TIP3    H1 3000   0.637   0.465   1.182 -1.6000  0.8473  1.9654
 1012TIP3    H2 3001   0.663   0.317   1.165  0.0265  1.4330 -2.0661
 1013TIP3   OH2 3002   5.435   1.012   2.979 -0.0479 -0.9373 -0.5203
 1013TIP3    H1 3003   5.444   1.103   3.005 -1.5983 -0.6715 -0.8201
 1013TIP3    H2 3004   5.450   0.962   3.059 -2.0082 -0.2541  0.3372
 1014TIP3   OH2 3005   6.136   0.418   0.225  0.0141 -0.3691  0.0075
 1014TIP3    H1 3006   6.166   0.509   0.227  0.6254 -0.5795  0.7114
 1014TIP3    H2 3007   6.078   0.411   0.301  0.1924 -0.6389  0.1193
 1015TIP3   OH2 3008   6.763   1.458   1.668  0.1637  0.4210 -0.0791
 1015TIP3    H1 3009   6.682   1.491   1.707 -0.0500  0.3991 -0.4917
 1015TIP3    H2 3010   6.807   1.535   1.634  2.2127  1.0008  3.4489
 1016TIP3   OH2 3011   0.130   4.114   2.518 -0.0858 -0.2111  0.2278
 1016TIP3    H1 3012   0.081   4.163   2.584 -0.1589 -0.3441  0.2734
 1016TIP3    H2 3013   0.171   4.042   2.567  1.4985  0.8266  0.4911
 1017TIP3   OH2 3014   3.845   4.801   0.579 -0.3148  0.6192 -0.1245
 1017TIP3    H1 3015   3.818   4.879   0.627  0.2273  1.4020 -1.0517
 1017TIP3    H2 3016   3.782   4.793   0.507  1.0314  1.6736 -1.4943
 1018TIP3   OH2 3017   4.159   5.974   4.431  0.2726  0.0463 -0.0227
 1018TIP3    H1 3018   4.150   5.914   4.506  1.4866 -1.0702 -0.7269
 1018TIP3    H2 3019   4.083   5.954   4.376  0.0433 -0.0037  0.3043
 1019TIP3   OH2 3020   1.681   2.716   1.074 -0.2536 -0.3921  0.1956
 1019TIP3    H1 3021   1.600   2.759   1.049 -0.1105  0.5985  1.3459
 1019TIP3    H2 3022   1.750   2.780   1.054  0.1646 -0.8710  0.0642
 1020TIP3   OH2 3023   5.258   6.056   3.341  0.1944  0.3287 -0.5899
 1020TIP3    H1 3024   5.353   6.066   3.351  0.1052  1.2373 -0.5970
 1020TIP3    H2 3025   5.231   6.131   3.287 -0.3638 -0.5715 -1.6121
 1021TIP3   OH2 3026   2.531   2.845   1.059  0.1457 -0.5198  0.8885
 1021TIP3    H1 3027   2.617   2.834   1.019 -0.1370 -1.8075  0.5997
 1021TIP3    H2 3028   2.538   2.798   1.142 -0.4674 -1.2088  0.5626
 1022TIP3   OH2 3029   3.567   2.464   1.488  0.1497 -0.0529  0.3871
 1022TIP3    H1 3030   3.491   2.493   1.437  0.8151 -0.9725 -1.2007
 1022TIP3    H2 3031   3.632   2.440   1.422  1.4846 -0.1995  1.7052
 1023TIP3   OH2 3032   6.839   5.339   0.922  0.0400 -0.1628 -0.5058
 1023TIP3    H1 3033   6.874   5.428   0.914  2.0658 -0.7364  1.0347
 1023TIP3    H2 3034   6.869   5.295   0.843  1.4514 -0.1716 -0.0044
 1024TIP3   OH2 3035   6.782   1.548   2.046 -0.4740  0.4807  0.1449
 1024TIP3    H1 3036   6.779   1.531   2.140 -1.4709 -0.6501 -0.0778
 1024TIP3    H2 3037   6.692   1.572   2.023 -0.1897  0.9810 -0.4946
 1025TIP3   OH2 3038   3.104   4.752   2.408  0.3236 -0.7002  0.1065
 1025TIP3    H1 3039   3.062   4.698   2.340 -1.7549  1.7659 -0.7410
 1025TIP3    H2 3040   3.138   4.828   2.360  1.1978 -0.1736  1.5050
 1026TIP3   OH2 3041   1.646   6.154   2.800  0.1456  0.6842  0.0462
 1026TIP3    H1 3042   1.693   6.237   2.809  1.2913  0.1773 -0.9208
 1026TIP3    H2 3043   1.584   6.170   2.729 -1.2720  1.3863  1.3926
 1027TIP3   OH2 3044   4.565   6.613   4.355  0.5361  0.5283  0.6783
 1027TIP3    H1 3045   4.477   6.649   4.366  0.0616 -0.6671  1.0309
 1027TIP3    H2 3046   4.596   6.649   4.272 -1.6833 -1.6747 -1.3000
 1028TIP3   OH2 3047   0.994   4.237   3.690  0.4183  0.0809 -0.0195
 1028TIP3    H1 3048   1.041   4.245   3.773  1.1180  1.5852 -0.5161
 1028TIP3    H2 3049   1.059   4.260   3.624 -0.6927  1.0712 -0.8130
 1029TIP3   OH2 3050   4.681   4.563   2.890 -0.3118  0.1102  0.3028
 1029TIP3    H1 3051   4.764   4.517   2.897  0.8369  2.1562  1.0554
 1029TIP3    H2 3052   4.631   4.536   2.968  0.3650  0.2104  0.7756
 1030TIP3   OH2 3053   1.256   4.149   2.411  0.1337  0.2298 -0.5853
 1030TIP3    H1 3054   1.287   4.157   2.320  0.7652  1.8027 -0.2641
 1030TIP3    H2 3055   1.326   4.101   2.455 -1.0103 -2.2405 -1.2751
 1031TIP3   OH2 3056   0.763   0.530   3.767 -0.2802 -0.2062 -0.7120
 1031TIP3    H1 3057   0.673   0.554   3.743 -0.6307 -1.0251 -0.2786
 1031TIP3    H2 3058   0.789   0.596   3.831 -0.7984 -0.3004 -0.3951
 1032TIP3   OH2 3059   3.216   4.775   4.777 -0.7296  0.2573 -0.4205
 1032TIP3    H1 3060   3.146   4.776   4.843  0.9301  1.2092  1.4366
 1032TIP3    H2 3061   3.259   4.691   4.790  0.8361  1.2408  1.1823
 1033TIP3   OH2 3062   2.136   3.146   5.813 -0.3425  0.3479 -0.2216
 1033TIP3    H1 3063   2.124   3.211   5.744  0.1297 -1.7859 -2.4609
 1033TIP3    H2 3064   2.230   3.125   5.811 -0.4270 -0.2060  0.6618
 1034TIP3   OH2 3065   3.069   1.858   3.211  0.0596 -0.7421  0.4253
 1034TIP3    H1 3066   2.996   1.797   3.210  0.7900 -1.6647 -1.3786
 1034TIP3    H2 3067   3.144   1.806   3.181  0.8651  0.8492 -0.4451
 1035TIP3   OH2 3068   0.225   0.128   2.811  0.3608  0.5483 -0.1405
 1035TIP3    H1 3069   0.203   0.085   2.729 -2.5611  0.6118  0.5314
 1035TIP3    H2 3070   0.235   0.057   2.874  1.5126  0.5676 -0.2769
 1036TIP3   OH2 3071   3.867   2.221   0.032  0.0469  0.1702  0.2033
 1036TIP3    H1 3072   3.802   2.196   0.097 -1.2675  1.6558 -0.4739
 1036TIP3    H2 3073   3.872   2.145  -0.027 -0.7414 -0.1328  0.5165
 1037TIP3   OH2 3074   0.161   3.407   0.289 -0.3171  0.7398  0.0619
 1037TIP3    H1 3075   0.081   3.450   0.256 -0.7982 -0.3797 -0.2713
 1037TIP3    H2 3076   0.130   3.323   0.324  0.4448  1.1224  1.7476
 1038TIP3   OH2 3077   7.020   1.808   5.239 -0.5487 -0.3902 -0.4062
 1038TIP3    H1 3078   6.942   1.862   5.223  0.7113  1.2660 -1.3007
 1038TIP3    H2 3079   7.092   1.871   5.244  0.9106 -1.9530 -0.6988
 1039TIP3   OH2 3080   4.713   3.692   5.116  0.2821 -0.1329  0.3968
 1039TIP3    H1 3081   4.703   3.674   5.209 -0.1239  1.5732  0.7326
 1039TIP3    H2 3082   4.632   3.660   5.076 -0.2691  0.5919  0.9041
 1040TIP3   OH2 3083   7.073   3.064   0.927 -0.0679 -0.7601  0.0449
 1040TIP3    H1 3084   7.168   3.074   0.927 -0.0492 -0.9202  0.5927
 1040TIP3    H2 3085   7.056   2.996   0.993 -0.5070 -1.2548 -0.5647
 1041TIP3   OH2 3086   4.654   3.209   4.497  0.5230  0.8843 -0.3631
 1041TIP3    H1 3087   4.654   3.127   4.448  0.7809  1.1487 -0.8215
 1041TIP3    H2 3088   4.583   3.200   4.560  0.0465  0.6141 -0.9260
 1042TIP3   OH2 3089   1.398   6.191   1.358 -0.4295  0.0825  0.3074
 1042TIP3    H1 3090   1.330   6.254   1.383 -1.5278 -0.9002 -0.1206
 1042TIP3    H2 3091   1.442   6.232   1.283 -0.6598  0.6420  0.4707
 1043TIP3   OH2 3092   0.997   0.587   2.185 -0.2493  0.5699  0.2922
 1043TIP3    H1 3093   1.073   0.560   2.133 -0.3257 -0.0457  0.4904
 1043TIP3    H2 3094   0.923   0.544   2.144 -0.4485  0.9052  0.2997
 1044TIP3   OH2 3095   6.825   5.422   1.193 -0.4207 -0.0379  0.0837
 1044TIP3    H1 3096   6.838   5.388   1.104 -2.1204 -0.3663 -0.0802
 1044TIP3    H2 3097   6.828   5.517   1.183  1.5978 -0.0573  0.0811
 1045TIP3   OH2 3098   4.607   2.365   1.169 -0.3016  0.1801  0.6118
 1045TIP3    H1 3099   4.620   2.447   1.216  0.9983  0.0895  0.4463
 1045TIP3    H2 3100   4.512   2.356   1.162 -0.4653  1.8553  0.2806
 1046TIP3   OH2 3101   0.527   1.973   5.836  0.0681 -0.0149 -0.0213
 1046TIP3    H1 3102   0.559   2.008   5.919 -0.5888  0.2830  0.1144
 1046TIP3    H2 3103   0.594   1.911   5.808  0.3551 -0.0170  0.6629
 1047TIP3   OH2 3104   0.283   6.525   2.454  0.2888  0.4196 -0.0908
 1047TIP3    H1 3105   0.243   6.521   2.541  0.3226  0.7313 -0.0618
 1047TIP3    H2 3106   0.214   6.558   2.397  0.3667  0.5319 -0.1213
 1048TIP3   OH2 3107   3.732   4.568   1.467 -0.3466 -0.0544  0.2807
 1048TIP3    H1 3108   3.770   4.609   1.544 -0.7264  0.6874  0.0820
 1048TIP3    H2 3109   3.781   4.486   1.457 -2.3606 -1.7627  3.1205
 1049TIP3   OH2 3110   4.913   0.306   3.852  0.3950  0.2271  0.7582
 1049TIP3    H1 3111   4.880   0.327   3.764  0.3934 -0.3165  0.6231
 1049TIP3    H2 3112   4.981   0.240   3.837 -0.0219 -0.3229  1.2053
 1050TIP3   OH2 3113   1.242   5.605   4.143 -0.8940 -0.5090  0.0368
 1050TIP3    H1 3114   1.210   5.584   4.231 -0.6157 -0.9421  0.0380
 1050TIP3    H2 3115   1.173   5.572   4.085  0.6475 -3.9000 -0.1044
 1051TIP3   OH2 3116   6.982   6.417   0.862 -0.1868 -0.3106  0.5121
 1051TIP3    H1 3117   6.917   6.456   0.804  0.3942 -1.2769 -0.8458
 1051TIP3    H2 3118   6.931   6.377   0.932 -1.0018 -0.3330 -0.0853
 1052TIP3   OH2 3119   1.674   5.882   0.777  0.4732  0.5573  0.2270
 1052TIP3    H1 3120   1.756   5.832   0.784  0.0052 -0.6400 -1.9541
 1052TIP3    H2 3121   1.663   5.922   0.863  1.0358 -2.8773  2.0801
 1053TIP3   OH2 3122   6.632   6.190   2.994 -0.6717  0.3352  0.3865
 1053TIP3    H1 3123   6.591   6.230   2.919 -0.6656  0.9069  0.6833
 1053TIP3    H2 3124   6.723   6.221   2.991  0.0013 -1.5646 -0.7341
 1054TIP3   OH2 3125   5.645   0.711   2.622 -0.1548  0.0275 -0.0305
 1054TIP3    H1 3126   5.583   0.783   2.640  0.9905  1.4749 -1.5367
 1054TIP3    H2 3127   5.676   0.684   2.708 -0.8927  1.1199  0.6046
 1055TIP3   OH2 3128   6.838   1.320   1.907 -0.6689  0.0761 -0.6906
 1055TIP3    H1 3129   6.842   1.394   1.969 -0.4034 -0.3720 -0.1588
 1055TIP3    H2 3130   6.851   1.360   1.821  1.1313  0.4891 -0.2786
 1056TIP3   OH2 3131   4.232   4.723   4.325 -0.2116  0.0292 -0.3878
 1056TIP3    H1 3132   4.270   4.787   4.385  1.1642 -2.1174  1.1638
 1056TIP3    H2 3133   4.169   4.675   4.378  0.2091 -1.1655 -0.9304
 1057TIP3   OH2 3134   6.876   6.608   1.471 -0.2645 -0.5839 -0.5307
 1057TIP3    H1 3135   6.969   6.624   1.488 -0.4485 -0.5418  0.5246
 1057TIP3    H2 3136   6.849   6.549   1.541 -1.2297  0.0985 -0.3056
 1058TIP3   OH2 3137   3.358   4.211   3.850 -0.1636 -0.1505  0.0342
 1058TIP3    H1 3138   3.280   4.266   3.843 -0.4071 -0.7218 -2.7121
 1058TIP3    H2 3139   3.432   4.271   3.842 -0.2881  0.2712  1.6893
 1059TIP3   OH2 3140   2.858   3.361   1.709  0.5991  0.1637 -0.4619
 1059TIP3    H1 3141   2.790   3.327   1.651  1.4517  0.6341 -1.7601
 1059TIP3    H2 3142   2.938   3.315   1.682  0.6920 -1.0187  1.5983
 1060TIP3   OH2 3143   0.522   2.428   5.100  0.2611 -0.6576 -0.1775
 1060TIP3    H1 3144   0.564   2.498   5.050 -1.4947  0.3314 -0.3483
 1060TIP3    H2 3145   0.442   2.408   5.050 -0.0712 -1.6569  0.7280
 1061TIP3   OH2 3146   3.779   2.303   0.778 -0.3872  0.6694 -0.2555
 1061TIP3    H1 3147   3.802   2.214   0.749  0.0037  0.9636 -0.8544
 1061TIP3    H2 3148   3.684   2.301   0.786 -0.2329 -0.6847  2.6438
 1062TIP3   OH2 3149   7.096   1.030   5.523 -0.6817  0.1857 -0.3493
 1062TIP3    H1 3150   7.015   1.038   5.573 -0.2172 -1.3420  0.7401
 1062TIP3    H2 3151   7.070   1.042   5.432 -1.8763  1.0943  0.0949
 1063TIP3   OH2 3152   3.200   6.142   1.690  0.0910 -0.4671  0.1343
 1063TIP3    H1 3153   3.118   6.174   1.652 -0.6850 -0.3057  1.8687
 1063TIP3    H2 3154   3.254   6.120   1.614 -0.0907  2.9782 -1.1951
 1064TIP3   OH2 3155   5.699   4.259   5.713 -0.2917  0.3541  0.6170
 1064TIP3    H1 3156   5.720   4.232   5.623 -2.0050  2.2857 -0.4379
 1064TIP3    H2 3157   5.663   4.180   5.754 -0.6516 -0.2444 -0.7954
 1065TIP3   OH2 3158   6.476   1.554   4.477 -0.0174 -0.2833  0.0295
 1065TIP3    H1 3159   6.399   1.502   4.505  1.1296 -2.3404 -0.4099
 1065TIP3    H2 3160   6.547   1.490   4.472  1.5739  1.4311 -0.3202
 1066TIP3   OH2 3161   5.389   1.357   4.949  0.5437 -0.2050  0.0223
 1066TIP3    H1 3162   5.318   1.397   5.000 -1.0410 -2.2948 -0.4317
 1066TIP3    H2 3163   5.409   1.276   4.995  0.9403 -0.8263 -1.2057
 1067TIP3   OH2 3164   6.917   4.957   5.854 -0.8055 -0.4068 -0.2211
 1067TIP3    H1 3165   6.896   4.870   5.820  1.5614 -1.2000  0.1284
 1067TIP3    H2 3166   6.983   4.941   5.922 -0.6744  1.6396  0.2036
 1068TIP3   OH2 3167   0.540   5.128   0.235 -0.0135 -0.0978 -0.0351
 1068TIP3    H1 3168   0.506   5.041   0.213 -0.0677 -0.0696 -0.0601
 1068TIP3    H2 3169   0.619   5.136   0.181 -0.0960 -0.0666 -0.1521
 1069TIP3   OH2 3170   1.786   6.739   3.443 -0.2340  0.1615  0.5058
 1069TIP3    H1 3171   1.789   6.773   3.354 -2.0575  1.7268  0.9781
 1069TIP3    H2 3172   1.724   6.666   3.439 -0.0073 -0.0274  0.4224
 1070TIP3   OH2 3173   6.960   0.699   0.873  0.0637  0.6819 -0.9617
 1070TIP3    H1 3174   6.949   0.765   0.805 -0.0286  1.3493 -0.3209
 1070TIP3    H2 3175   7.052   0.709   0.900 -0.3885  1.7336  0.2975
 1071TIP3   OH2 3176   6.413   2.207   3.331 -0.7768  0.2574 -0.0598
 1071TIP3    H1 3177   6.333   2.253   3.306 -1.4508 -0.1792  1.1827
 1071TIP3    H2 3178   6.393   2.171   3.418  0.0291 -1.6228 -0.5996
 1072TIP3   OH2 3179   0.571   4.922   5.808  0.5491 -0.1175 -0.1231
 1072TIP3    H1 3180   0.554   4.839   5.853 -0.9842  0.4904  0.5185
 1072TIP3    H2 3181   0.645   4.960   5.855  0.1684 -0.3511  0.6962
 1073TIP3   OH2 3182   3.529   4.642   4.961  0.0948 -0.3430 -0.9942
 1073TIP3    H1 3183   3.454   4.626   4.904  1.0311 -1.3067 -2.0058
 1073TIP3    H2 3184   3.561   4.729   4.935  0.0578 -0.4546 -1.4176
 1074TIP3   OH2 3185   5.331   3.574   0.874 -0.0787  0.0940 -0.7277
 1074TIP3    H1 3186   5.248   3.547   0.835 -0.5415 -0.2160  0.4172
 1074TIP3    H2 3187   5.395   3.512   0.838 -0.8163 -1.4159  0.4004
 1075TIP3   OH2 3188   3.378   1.230   2.527 -0.7049  0.0289 -0.0349
 1075TIP3    H1 3189   3.364   1.313   2.574 -2.4997 -0.5242  0.4977
 1075TIP3    H2 3190   3.295   1.183   2.537 -0.0205 -1.4697 -1.0782
 1076TIP3   OH2 3191   5.341   1.707   4.825  0.5005  0.0024 -0.2198
 1076TIP3    H1 3192   5.349   1.760   4.904 -1.0958  1.3038 -0.8913
 1076TIP3    H2 3193   5.430   1.706   4.788  0.6604  1.8760  0.0334
 1077TIP3   OH2 3194   0.254   5.957   1.398 -0.3828  0.0249 -0.4224
 1077TIP3    H1 3195   0.256   5.954   1.302  0.8244  0.8307 -0.4445
 1077TIP3    H2 3196   0.234   6.049   1.418  1.1916  0.2785  0.0824
 1078TIP3   OH2 3197   6.130   3.902   2.246 -0.0538 -0.5433  0.1957
 1078TIP3    H1 3198   6.222   3.924   2.234  0.0303 -0.6573  0.6251
 1078TIP3    H2 3199   6.110   3.841   2.175  0.4730 -1.3103  0.6864
 1079TIP3   OH2 3200   1.116   4.193   1.804  0.1765  0.1338 -0.0377
 1079TIP3    H1 3201   1.102   4.129   1.874  1.6410  0.6462  0.7626
 1079TIP3    H2 3202   1.117   4.140   1.724  0.2294 -0.7082  0.4985
 1080TIP3   OH2 3203   3.885   5.129   4.818 -0.2460 -0.0500 -0.2982
 1080TIP3    H1 3204   3.959   5.121   4.759  1.6915 -2.8041  2.2252
 1080TIP3    H2 3205   3.821   5.066   4.785 -0.6567  0.8607 -1.3038
 1081TIP3   OH2 3206   1.535   3.033   3.970  0.0221  0.6910  0.4545
 1081TIP3    H1 3207   1.626   3.057   3.985 -0.3967  1.5160  1.8721
 1081TIP3    H2 3208   1.507   2.991   4.051 -0.3962 -1.1294 -0.5806
 1082TIP3   OH2 3209   4.178   6.121   0.771 -0.2811 -0.1140 -0.1220
 1082TIP3    H1 3210   4.261   6.146   0.812  0.3644 -0.5299 -1.1398
 1082TIP3    H2 3211   4.115   6.121   0.843  0.3928  1.1197  0.4982
 1083TIP3   OH2 3212   2.685   6.300   4.363 -0.5355  0.1283 -0.2583
 1083TIP3    H1 3213   2.622   6.298   4.435 -0.4871 -2.7062 -0.1674
 1083TIP3    H2 3214   2.634   6.272   4.286  0.2781 -0.8506 -0.4596
 1084TIP3   OH2 3215   4.167   5.756   2.540 -0.0438 -0.1078 -0.3265
 1084TIP3    H1 3216   4.218   5.835   2.526 -0.0246  0.4902  2.5943
 1084TIP3    H2 3217   4.232   5.685   2.536  0.3609  0.2635 -0.4369
 1085TIP3   OH2 3218   1.288   0.891   0.308 -0.3756  0.0721  0.4833
 1085TIP3    H1 3219   1.382   0.900   0.290 -0.5267  4.5798  0.8326
 1085TIP3    H2 3220   1.285   0.843   0.391  1.6328  0.2709  0.7317
 1086TIP3   OH2 3221   2.665   1.098   5.210  0.9160 -0.0260 -0.0605
 1086TIP3    H1 3222   2.761   1.097   5.210  0.9251  0.5713  0.2106
 1086TIP3    H2 3223   2.641   1.189   5.225  0.3037 -0.2598  0.4614
 1087TIP3   OH2 3224   0.029   3.252   2.096 -0.2492 -0.1316 -0.7666
 1087TIP3    H1 3225   0.063   3.185   2.036  1.3076 -0.3901  0.3504
 1087TIP3    H2 3226   0.045   3.216   2.183  2.3675  2.4283 -0.0594
 1088TIP3   OH2 3227   5.615   2.857   5.617 -0.0357  0.5009 -0.2856
 1088TIP3    H1 3228   5.546   2.880   5.679  1.4551 -0.4169  1.8113
 1088TIP3    H2 3229   5.611   2.926   5.550 -1.2087  1.9486  1.2030
 1089TIP3   OH2 3230   1.788   0.796   5.542 -0.4581  0.1591  0.4513
 1089TIP3    H1 3231   1.803   0.702   5.554  0.0604 -0.3553 -3.0991
 1089TIP3    H2 3232   1.863   0.837   5.585 -0.2286 -1.0712  1.3052
 1090TIP3   OH2 3233   5.812   0.669   0.107 -0.4659 -0.2411 -0.0023
 1090TIP3    H1 3234   5.825   0.576   0.085  1.2330  0.1383 -0.7999
 1090TIP3    H2 3235   5.822   0.672   0.202 -3.5347 -1.2585  0.4791
 1091TIP3   OH2 3236   6.574   1.980   0.092  0.6709 -0.0457 -0.0884
 1091TIP3    H1 3237   6.576   2.054   0.031 -0.1873 -0.1780 -0.2820
 1091TIP3    H2 3238   6.482   1.963   0.107  0.8433  0.5039  1.9139
 1092TIP3   OH2 3239   4.324   6.663   4.145  0.2134  0.3150  0.1650
 1092TIP3    H1 3240   4.334   6.599   4.215 -0.0168 -0.3119 -0.3654
 1092TIP3    H2 3241   4.414   6.689   4.123  0.9370 -4.2005 -3.5859
 1093TIP3   OH2 3242   0.383   3.683   4.263 -0.4158 -0.0502  0.1666
 1093TIP3    H1 3243   0.374   3.701   4.169 -0.8683  0.8799  0.3809
 1093TIP3    H2 3244   0.473   3.651   4.272 -0.5444 -0.6897 -0.6579
 1094TIP3   OH2 3245   3.256   3.838   0.750 -0.2791 -0.0452  0.6361
 1094TIP3    H1 3246   3.246   3.772   0.818  2.4121 -1.4932 -0.2375
 1094TIP3    H2 3247   3.346   3.869   0.760 -1.1965  2.9678  0.4872
 1095TIP3   OH2 3248   1.929   3.793   3.879  0.0642  0.5023  0.2893
 1095TIP3    H1 3249   1.864   3.855   3.845  0.0089  0.9569  1.1912
 1095TIP3    H2 3250   1.902   3.777   3.969  2.4470  2.5099  1.4900
 1096TIP3   OH2 3251   1.052   3.266   5.514 -0.2914 -0.1175 -0.2550
 1096TIP3    H1 3252   1.095   3.270   5.599 -0.0997 -1.2809 -0.2838
 1096TIP3    H2 3253   1.024   3.175   5.505  1.3947 -0.5144 -2.2412
 1097TIP3   OH2 3254   6.334   4.052   3.217  0.0883  0.0023  0.3675
 1097TIP3    H1 3255   6.410   3.995   3.224  1.4765  1.3167 -2.4921
 1097TIP3    H2 3256   6.340   4.111   3.293  1.5912 -0.2917  0.5005
 1098TIP3   OH2 3257   3.412   3.260   4.078 -0.2476  0.3225  0.2717
 1098TIP3    H1 3258   3.382   3.233   3.991  0.5877  2.8812 -0.9100
 1098TIP3    H2 3259   3.496   3.303   4.062  1.1356 -1.2584  2.7038
 1099TIP3   OH2 3260   4.717   5.181   3.836 -0.1671  0.2227  0.1238
 1099TIP3    H1 3261   4.716   5.226   3.921 -3.0334 -0.3498  0.4979
 1099TIP3    H2 3262   4.649   5.225   3.785  0.5952 -0.3216 -1.4273
 1100TIP3   OH2 3263   3.804   0.882   4.188  0.2920 -0.0996  0.2989
 1100TIP3    H1 3264   3.756   0.962   4.212 -0.4702 -0.5641  0.3483
 1100TIP3    H2 3265   3.833   0.846   4.272 -1.7302 -1.3233  0.5310
 1101TIP3   OH2 3266   1.308   5.458   3.579  0.5148  0.3770  0.0946
 1101TIP3    H1 3267   1.403   5.451   3.585  0.5756  0.1220 -1.0063
 1101TIP3    H2 3268   1.289   5.549   3.604  0.8120 -0.1761  2.5758
 1102TIP3   OH2 3269   2.962   1.357   4.268  0.1785  0.3035 -0.0779
 1102TIP3    H1 3270   2.900   1.421   4.302  0.5382  0.4281  0.3507
 1102TIP3    H2 3271   2.971   1.379   4.175  0.3365  0.9122  0.0729
 1103TIP3   OH2 3272   1.248   3.414   2.876 -0.0429 -0.3194  0.0303
 1103TIP3    H1 3273   1.342   3.407   2.861  0.5020 -0.5657  2.9499
 1103TIP3    H2 3274   1.213   3.328   2.852 -0.1663  0.7145 -4.1482
 1104TIP3   OH2 3275   4.577   0.251   4.836 -0.7706  0.4241 -0.2165
 1104TIP3    H1 3276   4.489   0.218   4.816 -0.5099  1.0937 -2.9122
 1104TIP3    H2 3277   4.634   0.204   4.776  0.8081 -0.1378  1.6367
 1105TIP3   OH2 3278   0.907   4.151   5.390  0.0166  0.7257 -0.5991
 1105TIP3    H1 3279   0.906   4.222   5.454  0.2777  0.7150 -0.5853
 1105TIP3    H2 3280   0.974   4.091   5.421  0.8719  1.2237 -1.4338
 1106TIP3   OH2 3281   6.030   1.414   2.145  0.1452  0.1744  0.3186
 1106TIP3    H1 3282   6.060   1.419   2.236  0.7594  0.5114  0.1074
 1106TIP3    H2 3283   6.011   1.321   2.131 -0.1439  0.1522  0.8486
 1107TIP3   OH2 3284   2.959   0.640   5.809  0.0579 -0.1238  0.1685
 1107TIP3    H1 3285   2.959   0.602   5.721 -0.7093  0.1163  0.0640
 1107TIP3    H2 3286   2.868   0.636   5.837  0.2707 -0.0482  0.8927
 1108TIP3   OH2 3287   0.179   0.805   0.830  0.6412 -0.3201  0.3199
 1108TIP3    H1 3288   0.251   0.778   0.773 -1.1148 -2.3145 -1.0727
 1108TIP3    H2 3289   0.142   0.882   0.787  1.0680 -0.1099  0.3163
 1109TIP3   OH2 3290   1.454   6.762   5.718 -0.0213  0.2011  0.1404
 1109TIP3    H1 3291   1.508   6.745   5.641 -0.5900 -2.2273  0.1829
 1109TIP3    H2 3292   1.452   6.679   5.765 -0.1217  1.4676  2.5448
 1110TIP3   OH2 3293   4.489   2.141   4.562 -0.1170 -0.1509  0.6995
 1110TIP3    H1 3294   4.569   2.089   4.555  0.6485  1.0460 -0.0953
 1110TIP3    H2 3295   4.426   2.084   4.605  0.6339 -1.7503 -0.2132
 1111TIP3   OH2 3296   3.873   6.461   1.791  0.8143  0.5105 -0.3294
 1111TIP3    H1 3297   3.916   6.469   1.705 -1.1086 -1.1023 -1.5337
 1111TIP3    H2 3298   3.787   6.503   1.778 -1.7885 -4.3402 -1.0725
 1112TIP3   OH2 3299   6.120   1.040   2.706  0.2671  0.6220 -0.2303
 1112TIP3    H1 3300   6.079   1.111   2.756  0.4161  0.3735  0.2526
 1112TIP3    H2 3301   6.051   0.973   2.700  0.2060  0.7055 -0.4777
 1113TIP3   OH2 3302   3.795   1.790   1.744 -0.0585 -0.2723  0.6026
 1113TIP3    H1 3303   3.882   1.830   1.746  0.1341 -0.6421  0.0364
 1113TIP3    H2 3304   3.811   1.701   1.711 -0.7489 -0.0476 -0.3907
 1114TIP3   OH2 3305   4.486   4.152   0.050  0.1485  0.4057 -0.5948
 1114TIP3    H1 3306   4.520   4.207   0.120 -0.4305 -0.3667  0.3240
 1114TIP3    H2 3307   4.523   4.188  -0.031  0.7129  1.3933  0.0985
 1115TIP3   OH2 3308   2.250   0.864   0.169 -0.7637  0.3951  0.4472
 1115TIP3    H1 3309   2.328   0.913   0.144  0.2291 -2.4027 -2.7500
 1115TIP3    H2 3310   2.273   0.823   0.252  1.1694 -0.1406 -0.2934
 1116TIP3   OH2 3311   6.244   4.260   1.579 -0.0616  0.4756  0.3367
 1116TIP3    H1 3312   6.311   4.254   1.648  1.4612  2.0111 -0.9262
 1116TIP3    H2 3313   6.294   4.270   1.498 -1.8325  0.2831 -0.8273
 1117TIP3   OH2 3314   1.086   2.612   4.932 -0.5247  0.0083 -0.1274
 1117TIP3    H1 3315   1.180   2.623   4.943 -0.4607 -0.6112  0.0147
 1117TIP3    H2 3316   1.070   2.635   4.840 -0.1779 -0.1990 -0.2433
 1118TIP3   OH2 3317   4.172   4.601   1.426 -0.4732 -1.0854 -0.1151
 1118TIP3    H1 3318   4.114   4.673   1.449  0.6760  0.0852 -0.7431
 1118TIP3    H2 3319   4.237   4.598   1.497 -0.3193 -1.2950 -0.2608
 1119TIP3   OH2 3320   0.489   4.058   3.906 -0.3141 -0.1159 -0.5116
 1119TIP3    H1 3321   0.525   4.056   3.817 -0.9024 -3.2789 -0.7719
 1119TIP3    H2 3322   0.561   4.030   3.962 -0.0138  1.6539  0.0533
 1120TIP3   OH2 3323   1.156   3.384   5.752 -0.3459 -0.2551  0.1800
 1120TIP3    H1 3324   1.221   3.315   5.762 -0.5785 -0.6707 -1.0432
 1120TIP3    H2 3325   1.182   3.451   5.815  1.2269 -0.4316 -0.2430
 1121TIP3   OH2 3326   3.431   0.335   1.583  0.0658  0.1722 -0.1014
 1121TIP3    H1 3327   3.422   0.406   1.519  0.5490 -0.1878 -0.5756
 1121TIP3    H2 3328   3.378   0.264   1.548  1.7625 -0.6737 -1.0608
 1122TIP3   OH2 3329   0.435   2.896   2.735  0.3817  0.3730 -0.5926
 1122TIP3    H1 3330   0.382   2.848   2.671  0.5470  0.2727 -0.6556
 1122TIP3    H2 3331   0.398   2.984   2.737 -1.0433 -0.2122  0.7894
 1123TIP3   OH2 3332   1.304   6.282   4.119 -0.1159  0.0667 -0.1010
 1123TIP3    H1 3333   1.230   6.342   4.125  0.3464  0.5445  1.4180
 1123TIP3    H2 3334   1.375   6.335   4.083 -0.1450 -0.0363 -0.3153
 1124TIP3   OH2 3335   4.132   2.212   5.813  0.4868 -0.1658 -0.2653
 1124TIP3    H1 3336   4.040   2.212   5.839  0.1466 -0.4799 -1.3788
 1124TIP3    H2 3337   4.133   2.159   5.733  1.4815  0.6033 -0.7827
 1125TIP3   OH2 3338   5.374   2.281   2.521  0.1690  0.2087  0.1292
 1125TIP3    H1 3339   5.365   2.326   2.605  0.3487  0.7354 -0.1298
 1125TIP3    H2 3340   5.353   2.348   2.455 -1.0909 -0.4847 -0.2210
 1126TIP3   OH2 3341   0.128   2.587   1.406  0.2576 -0.1241  0.0250
 1126TIP3    H1 3342   0.042   2.555   1.380  0.5014  0.5511 -1.7607
 1126TIP3    H2 3343   0.110   2.654   1.471 -0.7323  1.2803 -1.6180
 1127TIP3   OH2 3344   6.486   5.195   3.773 -0.2253 -0.6408  0.0865
 1127TIP3    H1 3345   6.399   5.198   3.812 -0.2283 -0.4850  0.0711
 1127TIP3    H2 3346   6.512   5.103   3.777  0.8917 -0.3057  2.9238
 1128TIP3   OH2 3347   3.977   0.642   5.810  0.1871 -0.1030 -0.0584
 1128TIP3    H1 3348   3.905   0.613   5.753  1.0669 -0.5931 -0.9463
 1128TIP3    H2 3349   3.995   0.567   5.867 -0.8356  0.4598  1.0545
 1129TIP3   OH2 3350   0.500   1.683   1.241 -0.4772  0.0406 -0.0835
 1129TIP3    H1 3351   0.575   1.697   1.182 -0.2110 -0.7384  0.0562
 1129TIP3    H2 3352   0.532   1.707   1.327 -0.9209  1.3496 -0.2674
 1130TIP3   OH2 3353   6.205   2.855   0.980 -0.3524  0.1292  0.3503
 1130TIP3    H1 3354   6.269   2.913   0.937 -1.0896  0.8431  0.1891
 1130TIP3    H2 3355   6.141   2.836   0.911 -0.6989  0.0074  0.7024
 1131TIP3   OH2 3356   6.851   5.949   0.541  0.1690  0.2202 -0.4962
 1131TIP3    H1 3357   6.848   5.863   0.500  0.4899  0.6522 -1.4483
 1131TIP3    H2 3358   6.773   5.994   0.508  0.5717  0.6636 -0.8486
 1132TIP3   OH2 3359   5.270   2.834   1.002 -0.1467 -1.1157 -0.4684
 1132TIP3    H1 3360   5.181   2.860   0.977 -0.0471 -0.4759 -0.1721
 1132TIP3    H2 3361   5.274   2.852   1.096  1.1851  1.5115 -0.9627
 1133TIP3   OH2 3362   0.257   5.569   0.420  0.3725  0.5289  0.0297
 1133TIP3    H1 3363   0.267   5.504   0.349 -0.2635  0.1848  0.2431
 1133TIP3    H2 3364   0.324   5.545   0.484 -0.8177 -0.8954  0.8176
 1134TIP3   OH2 3365   3.651   1.220   1.259  0.3256 -0.1435 -0.0218
 1134TIP3    H1 3366   3.561   1.202   1.287 -0.3151  2.2652 -0.3368
 1134TIP3    H2 3367   3.651   1.203   1.165  0.6137 -1.4573  0.1881
 1135TIP3   OH2 3368   0.642   1.687   2.500  0.3257 -0.3571  0.0532
 1135TIP3    H1 3369   0.567   1.649   2.546 -0.0179 -0.8710 -0.9090
 1135TIP3    H2 3370   0.713   1.625   2.514  0.2412 -0.4763 -0.0437
 1136TIP3   OH2 3371   1.266   0.314   1.924  0.1319 -0.3994  0.0746
 1136TIP3    H1 3372   1.201   0.259   1.880 -2.6877 -0.1086  3.3788
 1136TIP3    H2 3373   1.273   0.392   1.869 -1.6712 -0.8499 -0.8946
 1137TIP3   OH2 3374   2.052   2.755   3.445  0.0790 -0.3064 -0.2254
 1137TIP3    H1 3375   1.993   2.746   3.520  2.2997  1.8062  1.9304
 1137TIP3    H2 3376   2.084   2.666   3.428 -0.7909 -0.8834  1.0318
 1138TIP3   OH2 3377   5.169   3.303   0.139  0.2147 -0.3217 -0.0433
 1138TIP3    H1 3378   5.212   3.256   0.068  1.7042 -0.3805  0.8353
 1138TIP3    H2 3379   5.134   3.382   0.098  1.6877  0.0087 -0.7307
 1139TIP3   OH2 3380   1.625   5.545   5.242  0.1678  0.5685  0.1579
 1139TIP3    H1 3381   1.536   5.526   5.214  0.9856 -0.7341 -1.7570
 1139TIP3    H2 3382   1.645   5.630   5.202 -0.7683  1.7735  2.0988
 1140TIP3   OH2 3383   3.412   3.429   1.884  0.0065  0.1997 -0.5313
 1140TIP3    H1 3384   3.392   3.523   1.883 -1.0228  0.0796  2.2126
 1140TIP3    H2 3385   3.481   3.420   1.950 -0.5742 -1.0739 -0.0790
 1141TIP3   OH2 3386   6.937   5.702   1.809 -0.1157  0.2423 -0.0922
 1141TIP3    H1 3387   7.012   5.704   1.749 -1.5423  2.0772 -1.9454
 1141TIP3    H2 3388   6.905   5.612   1.803  1.9269 -0.6121  0.8173
 1142TIP3   OH2 3389   3.999   3.274   3.338 -0.2006 -0.1031 -0.1003
 1142TIP3    H1 3390   4.010   3.292   3.431  1.9057  0.2253 -0.3632
 1142TIP3    H2 3391   4.084   3.241   3.309 -1.0012 -0.8501 -1.7802
 1143TIP3   OH2 3392   5.094   5.491   2.055 -0.8136  0.0310 -0.3673
 1143TIP3    H1 3393   5.054   5.459   2.136 -1.1478  1.9668  0.2830
 1143TIP3    H2 3394   5.187   5.471   2.065 -0.9174 -0.1751  0.2786
 1144TIP3   OH2 3395   6.603   2.106   2.258  0.0092  0.7507  0.2317
 1144TIP3    H1 3396   6.654   2.140   2.331  1.1076 -0.5866  0.1167
 1144TIP3    H2 3397   6.513   2.134   2.277  0.5256  1.8138  1.2318
 1145TIP3   OH2 3398   4.414   2.454   2.599 -0.0715 -0.3471  0.3539
 1145TIP3    H1 3399   4.382   2.543   2.614 -0.5126  0.1064 -2.7114
 1145TIP3    H2 3400   4.336   2.399   2.610  0.5115 -0.6952  3.8963
 1146TIP3   OH2 3401   3.733   4.538   2.392 -0.3355 -0.0263  0.2699
 1146TIP3    H1 3402   3.685   4.581   2.463 -0.7730  1.3839 -0.8352
 1146TIP3    H2 3403   3.781   4.468   2.435 -1.5523  0.0021  1.7703
 1147TIP3   OH2 3404   4.622   5.865   5.128  0.0143 -0.1616  0.1571
 1147TIP3    H1 3405   4.631   5.837   5.219 -0.4505  0.4725  0.4101
 1147TIP3    H2 3406   4.621   5.961   5.133  0.8268 -0.0997 -0.6057
 1148TIP3   OH2 3407   3.506   3.981   4.339 -0.0594  0.3921 -0.1267
 1148TIP3    H1 3408   3.598   3.955   4.327  0.0740  0.9995 -0.4987
 1148TIP3    H2 3409   3.456   3.910   4.299  0.2176 -0.3017  0.7330
 1149TIP3   OH2 3410   6.119   2.051   1.235  0.3900  0.3866 -0.4146
 1149TIP3    H1 3411   6.046   2.024   1.290  0.0496  1.3081 -0.3912
 1149TIP3    H2 3412   6.104   2.145   1.220  1.0055  0.3577 -1.2712
 1150TIP3   OH2 3413   2.627   6.035   4.520  0.4381  0.6911 -0.1059
 1150TIP3    H1 3414   2.671   6.011   4.601 -1.3329 -1.1550  0.3851
 1150TIP3    H2 3415   2.608   6.128   4.530 -0.8168  0.2526  2.1731
 1151TIP3   OH2 3416   2.951   6.225   5.231  0.7772  0.3388  0.2621
 1151TIP3    H1 3417   2.996   6.171   5.297 -2.4494 -2.0029  0.8218
 1151TIP3    H2 3418   3.003   6.214   5.152  1.2578 -2.2204  0.8425
 1152TIP3   OH2 3419   0.259   5.529   5.086  0.0381  0.0712 -0.4986
 1152TIP3    H1 3420   0.318   5.494   5.019  2.0391  1.6379  0.3428
 1152TIP3    H2 3421   0.272   5.624   5.082 -2.0724  0.4496  0.1072
 1153TIP3   OH2 3422   5.248   0.783   4.146  0.0106  0.0510 -0.1475
 1153TIP3    H1 3423   5.302   0.859   4.121 -0.2423  0.2244 -0.1736
 1153TIP3    H2 3424   5.159   0.809   4.123 -0.2166  0.1800  0.8558
 1154TIP3   OH2 3425   2.171   5.924   1.538  0.3811 -0.5620 -0.2488
 1154TIP3    H1 3426   2.092   5.895   1.583  0.7293  0.4875  1.1036
 1154TIP3    H2 3427   2.237   5.858   1.559  0.3955 -0.3647  0.3344
 1155TIP3   OH2 3428   3.628   5.782   3.855 -0.2075  0.1487 -0.2295
 1155TIP3    H1 3429   3.683   5.766   3.932 -0.7120 -2.5517 -0.3186
 1155TIP3    H2 3430   3.688   5.770   3.781 -0.4476 -0.7166 -0.2912
 1156TIP3   OH2 3431   5.189   0.378   2.332  0.2050  0.0567  0.2112
 1156TIP3    H1 3432   5.172   0.460   2.377  0.3500  0.7649 -0.9696
 1156TIP3    H2 3433   5.276   0.390   2.292  0.6868 -1.0651  0.8546
 1157TIP3   OH2 3434   4.665   3.805   4.174  0.2143 -0.3520 -0.2521
 1157TIP3    H1 3435   4.678   3.872   4.241 -0.9712 -1.3594  1.0421
 1157TIP3    H2 3436   4.665   3.723   4.222 -2.6470 -0.9888 -1.1341
 1158TIP3   OH2 3437   4.370   2.976   5.682 -0.1716 -0.1074  0.1688
 1158TIP3    H1 3438   4.335   3.065   5.691 -1.5366 -0.7216  1.5252
 1158TIP3    H2 3439   4.293   2.922   5.665  0.5435 -1.1136  0.0612
 1159TIP3   OH2 3440   3.221   4.805   3.903 -0.3639  0.0387  0.2058
 1159TIP3    H1 3441   3.208   4.713   3.926  2.8310 -0.6961 -0.4908
 1159TIP3    H2 3442   3.152   4.823   3.839 -2.4670 -1.1100  2.0044
 1160TIP3   OH2 3443   7.221   2.674   3.425  0.6755 -0.1537  0.4850
 1160TIP3    H1 3444   7.226   2.670   3.330  1.0878 -0.3499  0.5107
 1160TIP3    H2 3445   7.177   2.757   3.444 -0.5364 -0.6878  0.1025
 1161TIP3   OH2 3446   7.060   2.502   0.550  0.0389 -0.1141  0.0679
 1161TIP3    H1 3447   7.018   2.504   0.637  2.0242  0.5326  1.0732
 1161TIP3    H2 3448   7.032   2.419   0.512 -0.7428 -0.5018  1.4135
 1162TIP3   OH2 3449   0.500   3.173   1.405  0.2171  0.0033 -0.7340
 1162TIP3    H1 3450   0.579   3.207   1.448  1.7479 -2.5633 -1.2933
 1162TIP3    H2 3451   0.431   3.236   1.428  2.3201  2.1889  0.0573
 1163TIP3   OH2 3452   0.890   2.384   3.803  0.1096 -0.3515 -0.0959
 1163TIP3    H1 3453   0.941   2.434   3.740  0.1308  0.0217  0.2140
 1163TIP3    H2 3454   0.870   2.302   3.758  0.8858 -0.4606 -0.2582
 1164TIP3   OH2 3455   5.489   4.979   1.666 -0.3435 -0.1378 -0.2328
 1164TIP3    H1 3456   5.418   4.996   1.605 -0.2614  0.3517 -0.2008
 1164TIP3    H2 3457   5.496   4.884   1.671  0.1238 -0.1884 -1.5337
 1165TIP3   OH2 3458   3.546   6.229   2.590 -0.6289  0.0478  0.2316
 1165TIP3    H1 3459   3.520   6.248   2.680  1.2859 -4.1830  1.9135
 1165TIP3    H2 3460   3.502   6.147   2.568  2.2500 -1.3439 -0.9631
 1166TIP3   OH2 3461   0.418   5.697   3.729  0.3434  0.0386  0.0582
 1166TIP3    H1 3462   0.360   5.771   3.749 -0.4440 -0.2410 -1.0658
 1166TIP3    H2 3463   0.471   5.686   3.808 -0.6251  0.7825  0.8414
 1167TIP3   OH2 3464   0.022   1.491   5.075  0.3938 -0.2328 -0.2553
 1167TIP3    H1 3465   0.101   1.532   5.109 -0.3608 -0.0470  1.3918
 1167TIP3    H2 3466   0.052   1.409   5.037  1.2800 -0.7134  1.3508
 1168TIP3   OH2 3467   6.800   4.705   5.864 -0.5265 -0.6020  0.2566
 1168TIP3    H1 3468   6.713   4.672   5.845 -1.1861 -0.0220  2.0198
 1168TIP3    H2 3469   6.831   4.649   5.936 -0.9718  1.4055  2.1188
 1169TIP3   OH2 3470   2.117   4.993   5.271  0.4537 -0.3564  0.2499
 1169TIP3    H1 3471   2.057   4.963   5.339  1.2554 -1.1949  0.6135
 1169TIP3    H2 3472   2.157   5.072   5.308 -0.1636  0.0040  0.1511
 1170TIP3   OH2 3473   7.035   5.805   2.568 -0.1350  0.0982 -0.3078
 1170TIP3    H1 3474   7.083   5.821   2.487 -0.6304 -0.4130 -0.7185
 1170TIP3    H2 3475   7.008   5.891   2.598  0.6787  0.3499 -0.3009
 1171TIP3   OH2 3476   6.620   4.888   1.655  0.2205 -0.2599  0.1657
 1171TIP3    H1 3477   6.531   4.875   1.622  0.4636  0.9384 -1.0457
 1171TIP3    H2 3478   6.633   4.983   1.655  0.8750 -0.3092  2.0955
 1172TIP3   OH2 3479   6.818   4.682   1.674  0.1216 -0.4106 -0.1996
 1172TIP3    H1 3480   6.886   4.748   1.680  0.5590 -0.8303 -0.4790
 1172TIP3    H2 3481   6.736   4.731   1.684  0.4631  0.0782  0.2351
 1173TIP3   OH2 3482   4.782   1.676   5.692  0.1182 -0.1103 -0.2451
 1173TIP3    H1 3483   4.840   1.606   5.723 -0.1461 -0.4865 -0.5859
 1173TIP3    H2 3484   4.733   1.702   5.770 -1.7898 -2.2543 -0.6148
 1174TIP3   OH2 3485   1.373   4.823   3.716  0.2422 -0.2411 -0.2165
 1174TIP3    H1 3486   1.321   4.874   3.778 -1.0151  0.6426 -1.9106
 1174TIP3    H2 3487   1.446   4.880   3.694  0.6954 -0.5600  0.4329
 1175TIP3   OH2 3488   1.708   3.129   5.853 -0.7110 -0.0284  0.4197
 1175TIP3    H1 3489   1.728   3.116   5.945  1.2823 -1.2014 -0.1173
 1175TIP3    H2 3490   1.736   3.048   5.811  0.5576  1.3415 -1.5143
 1176TIP3   OH2 3491   0.947   5.975   5.406  0.1229 -0.5667 -0.0311
 1176TIP3    H1 3492   1.032   5.939   5.381  0.2653 -0.0460 -0.2911
 1176TIP3    H2 3493   0.960   6.070   5.411  0.0121 -0.5956  1.6223
 1177TIP3   OH2 3494   2.243   2.037   2.905 -0.5149 -0.4467  0.1517
 1177TIP3    H1 3495   2.292   2.077   2.834 -0.4155 -0.2315  0.3423
 1177TIP3    H2 3496   2.159   2.012   2.864 -0.5955 -0.0089  0.0416
 1178TIP3   OH2 3497   2.640   1.657   4.521 -0.0977 -0.2882 -0.1595
 1178TIP3    H1 3498   2.625   1.606   4.601 -1.1546 -0.4279 -0.4350
 1178TIP3    H2 3499   2.555   1.658   4.477  0.4730 -0.2016 -1.2849
 1179TIP3   OH2 3500   2.716   2.555   0.243 -0.2246  0.2205  0.5466
 1179TIP3    H1 3501   2.701   2.644   0.276  0.5438 -0.1240  1.9040
 1179TIP3    H2 3502   2.792   2.564   0.186 -0.4182  0.5058  0.3281
 1180TIP3   OH2 3503   2.236   2.172   0.458  0.4596  0.1202  0.0029
 1180TIP3    H1 3504   2.196   2.175   0.545  0.6776 -1.0676  0.1576
 1180TIP3    H2 3505   2.326   2.203   0.473  0.0766  1.3333 -0.0805
 1181TIP3   OH2 3506   5.890   5.852   2.498 -0.0631  0.2748 -0.2798
 1181TIP3    H1 3507   5.978   5.844   2.462 -0.7583 -0.3220 -2.0068
 1181TIP3    H2 3508   5.840   5.895   2.428 -1.0226  1.0687  0.8638
 1182TIP3   OH2 3509   4.389   3.452   5.882 -0.0877  0.1088 -0.3464
 1182TIP3    H1 3510   4.405   3.544   5.902  1.8641 -0.2445 -0.0892
 1182TIP3    H2 3511   4.451   3.430   5.813  0.6948 -1.4308  0.7777
 1183TIP3   OH2 3512   3.030   0.592   3.028  0.8103  0.3773 -0.0095
 1183TIP3    H1 3513   3.069   0.660   2.973  0.3376 -1.3620 -2.6635
 1183TIP3    H2 3514   2.999   0.526   2.967 -0.2825 -1.4705  2.3621
 1184TIP3   OH2 3515   5.444   2.556   3.125  0.1191 -0.1374  0.0485
 1184TIP3    H1 3516   5.381   2.598   3.184 -0.0043 -0.3109  0.0422
 1184TIP3    H2 3517   5.415   2.584   3.037  1.4723  1.7313  0.1417
 1185TIP3   OH2 3518   7.132   0.178   0.839 -0.2260  0.3894 -0.0127
 1185TIP3    H1 3519   7.132   0.166   0.744 -0.5241  0.2668  0.0006
 1185TIP3    H2 3520   7.071   0.251   0.853  0.0927  0.6422  0.0569
 1186TIP3   OH2 3521   2.318   5.315   1.922  0.1275  0.0033 -0.5491
 1186TIP3    H1 3522   2.392   5.373   1.902  0.6614 -0.7666 -0.8793
 1186TIP3    H2 3523   2.248   5.374   1.951  0.9544  0.7289  0.0368
 1187TIP3   OH2 3524   6.374   1.297   3.110 -0.0537  0.3160  0.1278
 1187TIP3    H1 3525   6.288   1.297   3.066 -0.6727 -0.1764  1.3005
 1187TIP3    H2 3526   6.355   1.271   3.200  1.1725  1.3934  0.7313
 1188TIP3   OH2 3527   0.949   6.675   4.129 -0.4379  0.0925 -0.1652
 1188TIP3    H1 3528   0.943   6.744   4.195  0.3100 -0.7373  0.8191
 1188TIP3    H2 3529   0.895   6.604   4.164 -1.0984  0.1216 -1.1039
 1189TIP3   OH2 3530   5.236   0.618   3.779  0.2340  0.5438 -0.3087
 1189TIP3    H1 3531   5.320   0.618   3.824  0.4277 -2.1062 -0.4763
 1189TIP3    H2 3532   5.259   0.626   3.686  0.2749  0.1885 -0.3293
 1190TIP3   OH2 3533   3.393   0.765   1.979 -0.0248  0.0353 -0.0130
 1190TIP3    H1 3534   3.420   0.693   1.921 -0.6048  1.3197 -1.9958
 1190TIP3    H2 3535   3.364   0.834   1.919 -0.3836  1.5795  1.8419
 1191TIP3   OH2 3536   1.725   1.479   0.723  0.0718 -0.0974 -0.0161
 1191TIP3    H1 3537   1.799   1.473   0.663  0.0123 -2.1037  0.0289
 1191TIP3    H2 3538   1.671   1.549   0.687  1.8723  1.3036 -0.1430
 1192TIP3   OH2 3539   1.073   4.975   2.606 -0.0976  0.2303  0.6168
 1192TIP3    H1 3540   1.010   5.027   2.557 -0.0143  1.5495  1.8372
 1192TIP3    H2 3541   1.159   5.008   2.578  0.0183 -0.3290  0.2800
 1193TIP3   OH2 3542   4.269   2.160   3.990  0.0305 -0.0737 -0.1825
 1193TIP3    H1 3543   4.294   2.181   3.900  0.2392  2.6611  0.4140
 1193TIP3    H2 3544   4.348   2.178   4.041 -1.0664  1.9268  0.9202
 1194TIP3   OH2 3545   3.224   6.786   3.786  1.0154  0.4714  0.2368
 1194TIP3    H1 3546   3.305   6.753   3.746  0.3297 -0.1747 -0.6467
 1194TIP3    H2 3547   3.243   6.786   3.880  2.5859  1.8383 -0.0323
 1195TIP3   OH2 3548   5.790   4.796   3.611  0.1807 -0.1803  0.5647
 1195TIP3    H1 3549   5.862   4.854   3.586 -0.3546  0.8287  1.2725
 1195TIP3    H2 3550   5.712   4.843   3.582 -0.3064 -0.1598  1.8515
 1196TIP3   OH2 3551   5.927   3.040   4.365 -0.4747 -0.4339  0.1928
 1196TIP3    H1 3552   5.998   3.016   4.424  0.6274 -0.7992 -1.2389
 1196TIP3    H2 3553   5.893   2.957   4.332  0.5261 -0.2195 -1.5016
 1197TIP3   OH2 3554   4.151   4.959   4.037 -0.1328 -0.7172  0.3934
 1197TIP3    H1 3555   4.109   5.045   4.042 -3.1487 -1.8482 -2.1635
 1197TIP3    H2 3556   4.183   4.953   3.947  1.1195 -1.8189  0.8897
 1198TIP3   OH2 3557   4.781   1.156   2.031 -0.2145  0.1153 -0.1739
 1198TIP3    H1 3558   4.787   1.069   2.071 -0.5509 -0.0017 -0.3643
 1198TIP3    H2 3559   4.810   1.216   2.099 -1.2951 -0.0322  0.4532
 1199TIP3   OH2 3560   2.383   0.257   1.762  0.2638 -0.5600 -0.2217
 1199TIP3    H1 3561   2.329   0.325   1.802  2.0446  0.2648  0.9261
 1199TIP3    H2 3562   2.410   0.201   1.835  1.9532 -0.1896 -0.5166
 1200TIP3   OH2 3563   1.835   3.657   1.777  0.3194 -0.0776 -0.3722
 1200TIP3    H1 3564   1.907   3.627   1.832 -0.7506  1.7657  2.1986
 1200TIP3    H2 3565   1.848   3.751   1.768  0.0867 -0.2127 -2.8267
 1201TIP3   OH2 3566   1.926   2.853   5.548  0.2900  0.4613 -0.3009
 1201TIP3    H1 3567   1.911   2.905   5.469 -0.6404 -0.4896 -0.7841
 1201TIP3    H2 3568   1.851   2.872   5.604  0.0345 -0.2000 -0.4089
 1202TIP3   OH2 3569   0.052   5.852   3.779  0.2033 -0.4794 -0.5955
 1202TIP3    H1 3570   0.132   5.855   3.830 -0.1967  1.7209  0.0217
 1202TIP3    H2 3571   0.078   5.817   3.694  1.5875 -0.7881 -0.0616
 1203TIP3   OH2 3572   4.479   2.353   0.631  0.0630  0.0180  0.0187
 1203TIP3    H1 3573   4.430   2.311   0.561  0.8288  0.8873 -1.0676
 1203TIP3    H2 3574   4.504   2.281   0.689 -1.4300 -0.5794 -0.0436
 1204TIP3   OH2 3575   4.958   4.482   4.841 -0.5734  0.2672 -0.2206
 1204TIP3    H1 3576   4.997   4.567   4.821  1.2964  0.1816  2.4618
 1204TIP3    H2 3577   4.864   4.497   4.836 -0.2838  1.8489 -2.0686
 1205TIP3   OH2 3578   0.560   1.217   1.332  0.0921 -0.2124  0.7149
 1205TIP3    H1 3579   0.557   1.158   1.257 -0.4959 -0.2940  0.7976
 1205TIP3    H2 3580   0.652   1.216   1.360  0.1039 -1.0201  0.6644
 1206TIP3   OH2 3581   0.576   6.024   1.237  0.2119 -0.6043  0.7397
 1206TIP3    H1 3582   0.545   5.970   1.165  1.5058  0.4958 -0.6908
 1206TIP3    H2 3583   0.513   6.096   1.242  0.3083 -0.5011  0.4797
 1207TIP3   OH2 3584   1.383   6.300   5.768 -0.4232 -0.0659  0.5431
 1207TIP3    H1 3585   1.396   6.354   5.691  1.0114  1.4787  1.8037
 1207TIP3    H2 3586   1.307   6.246   5.747  0.7136 -0.6636 -2.4341
 1208TIP3   OH2 3587   5.136   3.115   2.513 -0.1362  0.3269 -0.4974
 1208TIP3    H1 3588   5.104   3.080   2.596 -2.1784  1.0674 -0.9240
 1208TIP3    H2 3589   5.133   3.210   2.524  3.0236  0.5280 -0.2164
 1209TIP3   OH2 3590   4.683   4.570   4.042  0.1528 -0.2041  0.1626
 1209TIP3    H1 3591   4.634   4.488   4.048 -0.4398  0.1728  0.5705
 1209TIP3    H2 3592   4.616   4.639   4.047  0.6607  0.3090  0.0479
 1210TIP3   OH2 3593   2.113   6.044   4.423 -0.5927 -0.1328 -0.3592
 1210TIP3    H1 3594   2.192   5.997   4.449 -0.9354  0.2324  1.4480
 1210TIP3    H2 3595   2.042   5.998   4.467 -0.9736  1.7585  1.1499
 1211TIP3   OH2 3596   0.938   4.068   4.731  1.2063 -0.0784 -0.5767
 1211TIP3    H1 3597   0.943   4.051   4.637  2.5486 -1.8588 -0.2353
 1211TIP3    H2 3598   0.845   4.081   4.748  0.2078 -4.3292 -1.5072
 1212TIP3   OH2 3599   6.348   4.774   3.034  0.9972  0.2282  0.1644
 1212TIP3    H1 3600   6.347   4.678   3.043  2.4805  0.0777 -0.9048
 1212TIP3    H2 3601   6.399   4.790   2.955  1.1898  1.9306  0.6002
 1213TIP3   OH2 3602   5.399   1.825   3.199 -0.0846 -0.0546 -0.7237
 1213TIP3    H1 3603   5.378   1.732   3.202 -1.2116  0.1748 -1.0516
 1213TIP3    H2 3604   5.417   1.843   3.107  0.2127  0.0354 -0.6483
 1214TIP3   OH2 3605   1.477   0.049   4.255  0.3784  0.0252  0.3088
 1214TIP3    H1 3606   1.512   0.071   4.169 -0.0450 -0.0229  0.1234
 1214TIP3    H2 3607   1.485   0.130   4.305  3.9258 -0.8281  1.3738
 1215TIP3   OH2 3608   1.357   0.196   0.721 -0.0979 -0.3804 -0.1142
 1215TIP3    H1 3609   1.282   0.172   0.667 -1.0319 -1.2003  1.4722
 1215TIP3    H2 3610   1.323   0.195   0.811  1.7500 -0.5502  0.6287
 1216TIP3   OH2 3611   2.719   5.720   3.711  0.2744 -0.1956 -0.0132
 1216TIP3    H1 3612   2.808   5.753   3.720 -0.5192  2.0542  0.1331
 1216TIP3    H2 3613   2.730   5.632   3.675  2.4949  0.7225 -1.8552
 1217TIP3   OH2 3614   0.705   5.331   2.578  0.0374  0.6758  0.3547
 1217TIP3    H1 3615   0.772   5.396   2.559 -0.4767  1.0773 -0.1235
 1217TIP3    H2 3616   0.623   5.382   2.582 -0.1847  0.2655  1.3455
 1218TIP3   OH2 3617   4.568   0.501   4.421 -0.5160 -0.0117 -0.1193
 1218TIP3    H1 3618   4.566   0.530   4.330 -1.4100 -1.6726 -0.6698
 1218TIP3    H2 3619   4.620   0.421   4.419 -0.4361  0.0069  0.8676
 1219TIP3   OH2 3620   0.054   3.947   4.171 -1.0426 -0.1165  0.0120
 1219TIP3    H1 3621   0.086   3.973   4.084 -1.8075  0.0831 -0.2169
 1219TIP3    H2 3622   0.130   3.956   4.228 -0.2807 -1.0973 -0.7928
 1220TIP3   OH2 3623   3.571   1.801   3.566  0.1286 -0.1101 -0.2493
 1220TIP3    H1 3624   3.522   1.726   3.599  0.4182 -0.1709  0.0495
 1220TIP3    H2 3625   3.507   1.872   3.563 -0.3328 -0.5548 -1.2608
 1221TIP3   OH2 3626   0.742   4.603   4.213  0.3728 -0.1283 -0.4981
 1221TIP3    H1 3627   0.824   4.635   4.175  1.1536 -1.3560  0.1146
 1221TIP3    H2 3628   0.680   4.675   4.199  1.9949  1.5669  0.6641
 1222TIP3   OH2 3629   4.735   1.037   5.576 -0.0341  0.3856 -0.0588
 1222TIP3    H1 3630   4.735   1.130   5.600  0.5275  0.3054  0.2748
 1222TIP3    H2 3631   4.806   1.028   5.513  1.6036 -0.2519  1.7644
 1223TIP3   OH2 3632   0.085   4.447   1.701  0.8626 -0.2740  0.0385
 1223TIP3    H1 3633   0.171   4.406   1.714  0.3983 -1.5172 -0.6878
 1223TIP3    H2 3634   0.034   4.381   1.654  0.1672  1.2309 -1.4126
 1224TIP3   OH2 3635   1.442   4.735   3.450  0.4838 -0.1960 -0.0828
 1224TIP3    H1 3636   1.432   4.788   3.371  1.2010  0.3159  0.1610
 1224TIP3    H2 3637   1.398   4.785   3.519 -0.7962 -0.9930 -0.2873
 1225TIP3   OH2 3638   1.001   5.416   2.624 -0.4019 -0.3432 -0.7751
 1225TIP3    H1 3639   0.932   5.473   2.589  1.0413  2.6306  0.8536
 1225TIP3    H2 3640   0.964   5.380   2.705 -0.9409 -0.9527 -1.2763
 1226TIP3   OH2 3641   6.347   3.896   4.481 -0.3536  0.7934 -0.4079
 1226TIP3    H1 3642   6.257   3.870   4.499 -0.4243  0.8034 -0.7357
 1226TIP3    H2 3643   6.397   3.866   4.556 -0.1357 -1.8825 -1.5148
 1227TIP3   OH2 3644   4.354   2.714   5.468  0.0728 -0.1556 -0.0952
 1227TIP3    H1 3645   4.289   2.719   5.538  0.2377  0.6533  0.0104
 1227TIP3    H2 3646   4.403   2.634   5.487  1.4578  1.0655  1.9220
 1228TIP3   OH2 3647   0.539   0.869   2.668  0.1687  0.2694 -0.1385
 1228TIP3    H1 3648   0.560   0.790   2.716 -0.2027 -0.0096 -0.4304
 1228TIP3    H2 3649   0.565   0.850   2.577 -0.9778  0.0448 -0.4411
 1229TIP3   OH2 3650   2.872   0.411   5.347  0.0584 -0.0311 -0.2930
 1229TIP3    H1 3651   2.810   0.460   5.293  0.4862 -0.0175 -0.7812
 1229TIP3    H2 3652   2.818   0.348   5.394 -0.0745 -1.9278 -2.7786
 1230TIP3   OH2 3653   1.433   6.558   0.409 -0.0619  0.3137  0.2749
 1230TIP3    H1 3654   1.363   6.497   0.431 -1.1911  0.5695 -2.2667
 1230TIP3    H2 3655   1.408   6.640   0.451 -1.1218  0.2912 -0.2762
 1231TIP3   OH2 3656   2.218   6.193   4.697  0.1408  0.5452  0.2867
 1231TIP3    H1 3657   2.218   6.225   4.787  0.4419  0.9515  0.1440
 1231TIP3    H2 3658   2.299   6.142   4.690  1.5014  2.7083 -0.5136
 1232TIP3   OH2 3659   1.067   4.712   1.888  0.0438 -0.0956  0.5600
 1232TIP3    H1 3660   0.984   4.699   1.933  0.1764 -1.4064  0.4874
 1232TIP3    H2 3661   1.045   4.705   1.795 -0.2142  2.5016  0.3610
 1233TIP3   OH2 3662   6.050   1.486   3.827  0.2737  0.9334 -0.8883
 1233TIP3    H1 3663   6.076   1.409   3.878 -0.1370 -0.1449 -2.2414
 1233TIP3    H2 3664   5.959   1.501   3.850 -0.1778 -0.0949 -1.9057
 1234TIP3   OH2 3665   2.204   0.147   0.231  0.1286 -0.5809  0.7279
 1234TIP3    H1 3666   2.132   0.084   0.231 -1.7690  1.4474  1.0528
 1234TIP3    H2 3667   2.186   0.204   0.306  1.8624  0.2377  0.5696
 1235TIP3   OH2 3668   1.481   5.602   4.328 -0.5085  0.1757 -0.5992
 1235TIP3    H1 3669   1.491   5.688   4.289 -1.8796  0.8452  0.4089
 1235TIP3    H2 3670   1.565   5.584   4.370 -0.5570  1.5362  0.1277
 1236TIP3   OH2 3671   3.863   1.141   3.816 -0.3224  0.1215  0.2479
 1236TIP3    H1 3672   3.786   1.196   3.827 -0.4554 -0.1217  0.5451
 1236TIP3    H2 3673   3.912   1.181   3.744 -1.1417 -0.1959 -0.4935
 1237TIP3   OH2 3674   5.690   2.562   1.464  0.0849 -0.3015  0.0726
 1237TIP3    H1 3675   5.640   2.481   1.459  2.7423 -2.0177 -0.9711
 1237TIP3    H2 3676   5.781   2.534   1.472  1.1953  2.5754 -0.9931
 1238TIP3   OH2 3677   1.424   0.539   2.423  0.2159 -0.0734  0.3902
 1238TIP3    H1 3678   1.513   0.508   2.443  0.4605  0.0061 -0.5378
 1238TIP3    H2 3679   1.393   0.479   2.355 -0.6996 -0.5009  1.1592
 1239TIP3   OH2 3680   7.204   4.644   2.174  0.3368  0.0536  0.2546
 1239TIP3    H1 3681   7.177   4.640   2.082  1.4453 -1.9539 -0.0281
 1239TIP3    H2 3682   7.122   4.635   2.223  0.0636 -4.0653 -0.5920
 1240TIP3   OH2 3683   3.199   6.042   0.307  0.1000  0.2466  0.3051
 1240TIP3    H1 3684   3.283   6.063   0.266 -0.1836 -1.1361 -1.0545
 1240TIP3    H2 3685   3.171   6.124   0.348  1.4019  1.1198 -0.4854
 1241TIP3   OH2 3686   5.843   6.734   1.076 -0.0470 -0.1944 -0.4083
 1241TIP3    H1 3687   5.933   6.720   1.105 -0.3511 -1.2411  0.0653
 1241TIP3    H2 3688   5.791   6.731   1.157 -0.6800 -1.1218 -0.8416
 1242TIP3   OH2 3689   6.665   1.680   4.191  0.1663  0.5647 -0.0571
 1242TIP3    H1 3690   6.627   1.678   4.279 -0.6374  0.2874 -0.4033
 1242TIP3    H2 3691   6.760   1.675   4.206  0.0109 -0.1084  0.7584
 1243TIP3   OH2 3692   0.753   3.507   1.607  0.0682 -0.1463 -0.2517
 1243TIP3    H1 3693   0.658   3.518   1.601  0.1639  1.5471  0.7508
 1243TIP3    H2 3694   0.787   3.596   1.617  1.6731 -0.8122  0.6086
 1244TIP3   OH2 3695   4.211   2.322   4.312  0.5026  0.2597 -0.2619
 1244TIP3    H1 3696   4.211   2.291   4.403 -0.2497 -0.1514 -0.3919
 1244TIP3    H2 3697   4.244   2.249   4.261  1.6457  0.7487 -0.2548
 1245TIP3   OH2 3698   5.082   5.428   2.696 -0.2742 -0.1580  0.4941
 1245TIP3    H1 3699   5.164   5.471   2.721  0.9288 -1.3564 -1.2234
 1245TIP3    H2 3700   5.035   5.494   2.646  1.7700 -0.8141 -2.5311
 1246TIP3   OH2 3701   3.461   0.772   3.268  0.3623  0.0573  0.1999
 1246TIP3    H1 3702   3.368   0.756   3.250  0.2010  0.5052  0.6161
 1246TIP3    H2 3703   3.490   0.692   3.312  0.5402 -0.6775 -1.1894
 1247TIP3   OH2 3704   5.900   4.112   2.254 -0.5375  0.7761 -0.2522
 1247TIP3    H1 3705   5.819   4.099   2.205 -0.1164 -2.2335 -0.3559
 1247TIP3    H2 3706   5.964   4.055   2.210  0.5052 -0.1819  2.2819
 1248TIP3   OH2 3707   5.681   2.346   4.817 -0.0382 -1.1200  0.2238
 1248TIP3    H1 3708   5.701   2.279   4.883 -0.0979 -0.1589  1.2369
 1248TIP3    H2 3709   5.657   2.296   4.739  0.9691 -2.2882  0.6295
 1249TIP3   OH2 3710   5.226   3.447   4.225  0.7060  0.0720  0.5119
 1249TIP3    H1 3711   5.205   3.532   4.188  2.0750  0.2846  0.1565
 1249TIP3    H2 3712   5.154   3.390   4.198  1.2128  0.4351 -1.7857
 1250TIP3   OH2 3713   4.023   2.121   2.767 -0.2408 -0.7757 -0.0139
 1250TIP3    H1 3714   3.950   2.164   2.722 -0.4692 -0.7052  0.4211
 1250TIP3    H2 3715   4.097   2.132   2.707 -0.5776 -0.8203 -0.4448
 1251TIP3   OH2 3716   3.018   4.200   2.902 -0.6882  0.1687  0.7076
 1251TIP3    H1 3717   2.936   4.154   2.922 -0.8923 -0.0356 -0.5283
 1251TIP3    H2 3718   3.012   4.220   2.808 -0.2613  2.0323  1.0262
 1252TIP3   OH2 3719   3.001   3.481   1.175 -0.2436  0.1337  0.1585
 1252TIP3    H1 3720   2.915   3.499   1.136 -0.1978  0.3426  0.1553
 1252TIP3    H2 3721   3.041   3.416   1.117 -0.1609  0.4684 -0.1612
 1253TIP3   OH2 3722   2.153   0.306   2.682  0.6499  0.7803 -0.0098
 1253TIP3    H1 3723   2.185   0.395   2.673  1.4563  0.5881  0.7352
 1253TIP3    H2 3724   2.125   0.280   2.594 -1.4482  2.4315  0.1184
 1254TIP3   OH2 3725   7.028   2.754   3.689  0.4462 -0.5077 -0.0545
 1254TIP3    H1 3726   7.038   2.815   3.615  1.6758  0.8178  1.1249
 1254TIP3    H2 3727   6.978   2.803   3.754 -0.9677 -1.8014 -0.1106
 1255TIP3   OH2 3728   7.249   5.501   3.780  0.0220 -0.2568 -0.5056
 1255TIP3    H1 3729   7.168   5.489   3.830 -0.2250 -1.9860 -1.2528
 1255TIP3    H2 3730   7.224   5.559   3.708 -0.0933  0.6747  0.2710
 1256TIP3   OH2 3731   4.847   1.462   1.978  0.4281  0.3846 -0.2949
 1256TIP3    H1 3732   4.933   1.434   2.010 -0.4504 -1.4190  0.6926
 1256TIP3    H2 3733   4.839   1.424   1.891 -0.4054 -1.8837  0.6975
 1257TIP3   OH2 3734   6.304   3.805   0.809  0.3747  0.0736  0.2274
 1257TIP3    H1 3735   6.385   3.791   0.760  1.6609 -1.0593  2.5159
 1257TIP3    H2 3736   6.244   3.843   0.745  1.6708 -1.9330 -2.4200
 1258TIP3   OH2 3737   3.444   1.840   0.613 -0.2333  0.7198 -0.1157
 1258TIP3    H1 3738   3.448   1.749   0.642  0.6291  0.6388 -0.4642
 1258TIP3    H2 3739   3.354   1.852   0.582 -0.4924  0.1385  0.4037
 1259TIP3   OH2 3740   1.150   6.567   2.238  0.1200 -0.3006  0.0262
 1259TIP3    H1 3741   1.068   6.523   2.215 -0.1001  0.6340 -1.0539
 1259TIP3    H2 3742   1.130   6.616   2.317 -0.1738 -0.5810  0.1305
 1260TIP3   OH2 3743   2.434   2.026   1.122  0.1426 -0.3957 -0.0461
 1260TIP3    H1 3744   2.521   2.034   1.084  0.4941  0.0072  0.8140
 1260TIP3    H2 3745   2.432   2.090   1.193 -0.5279 -1.0310  0.5396
 1261TIP3   OH2 3746   5.929   5.721   2.072 -0.4267  0.4709  0.1129
 1261TIP3    H1 3747   5.924   5.627   2.059 -0.3410  0.3787  0.7129
 1261TIP3    H2 3748   5.899   5.734   2.162  3.0831  0.6229  1.4011
 1262TIP3   OH2 3749   4.316   6.483   4.800  0.1215  0.4248  0.8041
 1262TIP3    H1 3750   4.322   6.475   4.705 -1.7548 -0.2221  0.7025
 1262TIP3    H2 3751   4.361   6.405   4.833 -4.1678 -2.6797  0.2013
 1263TIP3   OH2 3752   5.499   5.818   5.626  0.1002  0.1657  0.1647
 1263TIP3    H1 3753   5.477   5.736   5.581  0.1970 -1.1594  2.4064
 1263TIP3    H2 3754   5.427   5.877   5.603 -1.2252 -1.2958  0.3693
 1264TIP3   OH2 3755   0.305   1.766   4.454 -0.2353 -0.2612  0.3176
 1264TIP3    H1 3756   0.363   1.731   4.386 -0.5830 -2.8177  1.2560
 1264TIP3    H2 3757   0.363   1.783   4.528 -0.4463 -1.4718  0.7753
 1265TIP3   OH2 3758   3.358   6.592   5.438 -0.2858 -0.9547 -0.5677
 1265TIP3    H1 3759   3.289   6.529   5.418 -0.5256 -1.1042  0.6921
 1265TIP3    H2 3760   3.404   6.555   5.513 -1.5079  1.1596  1.3276
 1266TIP3   OH2 3761   6.072   2.879   2.464 -0.0894  0.0508 -0.2423
 1266TIP3    H1 3762   6.094   2.972   2.471 -1.0118  0.2624 -0.0345
 1266TIP3    H2 3763   6.051   2.866   2.371 -0.1260  0.0939 -0.2404
 1267TIP3   OH2 3764   4.895   3.407   1.834  0.2522  0.0459  0.5495
 1267TIP3    H1 3765   4.989   3.399   1.849  0.7178 -0.8268 -2.2892
 1267TIP3    H2 3766   4.860   3.320   1.857  0.4674 -0.2641 -0.2599
 1268TIP3   OH2 3767   7.173   3.329   2.714 -0.2500 -0.0223 -0.4908
 1268TIP3    H1 3768   7.177   3.287   2.800  1.1614 -2.6385 -1.7131
 1268TIP3    H2 3769   7.246   3.391   2.714 -1.9284  2.0931  1.0970
 1269TIP3   OH2 3770   2.026   5.150   0.515  0.6145  0.1375  0.2878
 1269TIP3    H1 3771   2.006   5.057   0.507  1.5771  0.0144 -0.8835
 1269TIP3    H2 3772   1.975   5.179   0.591 -0.0562 -1.2319  0.3850
 1270TIP3   OH2 3773   6.909   4.712   0.227 -0.2665 -0.1168  0.0644
 1270TIP3    H1 3774   6.839   4.692   0.290  0.6712 -0.5261  1.0061
 1270TIP3    H2 3775   6.912   4.807   0.224 -1.1018 -0.0933 -0.2602
 1271TIP3   OH2 3776   3.027   5.149   3.098  0.1967 -0.4215  0.3353
 1271TIP3    H1 3777   3.074   5.232   3.084 -0.8614  0.0966 -0.2737
 1271TIP3    H2 3778   2.942   5.163   3.057 -0.4794 -1.3551  1.3758
 1272TIP3   OH2 3779   3.176   2.396   0.357 -0.3998  0.7103 -0.6672
 1272TIP3    H1 3780   3.220   2.378   0.274  1.1256 -1.0484  0.4383
 1272TIP3    H2 3781   3.169   2.491   0.360 -2.0837  0.8008 -3.5483
 1273TIP3   OH2 3782   3.104   5.444   2.491 -0.0398  0.1527  0.2658
 1273TIP3    H1 3783   3.020   5.437   2.536 -0.7821  0.5577 -1.0096
 1273TIP3    H2 3784   3.161   5.489   2.553  0.7729 -4.2334  3.1521
 1274TIP3   OH2 3785   1.570   3.750   3.605 -0.2008 -0.2556  0.9026
 1274TIP3    H1 3786   1.636   3.737   3.536 -0.2922  1.7085  0.3914
 1274TIP3    H2 3787   1.588   3.680   3.668  1.3568 -0.7361 -0.0051
 1275TIP3   OH2 3788   5.687   2.212   3.972 -0.3146  0.5187  0.5364
 1275TIP3    H1 3789   5.745   2.284   3.997  1.2610 -0.2227 -0.8202
 1275TIP3    H2 3790   5.695   2.206   3.877 -0.2204 -1.5806  0.6345
 1276TIP3   OH2 3791   2.848   0.153   5.483 -0.1144 -0.1154  0.2670
 1276TIP3    H1 3792   2.765   0.111   5.507 -0.5116  0.5452  0.0595
 1276TIP3    H2 3793   2.881   0.102   5.409 -0.0396 -0.7374  0.7233
 1277TIP3   OH2 3794   4.888   4.601   4.244  0.0674  0.1035  0.3347
 1277TIP3    H1 3795   4.823   4.602   4.174 -0.6493  2.2602  0.9596
 1277TIP3    H2 3796   4.839   4.621   4.323  0.9858 -1.5702  1.3925
 1278TIP3   OH2 3797   4.972   3.728   1.881 -0.0689 -0.5899  0.2244
 1278TIP3    H1 3798   5.031   3.753   1.811 -0.4551 -0.2373  0.0182
 1278TIP3    H2 3799   5.017   3.754   1.961 -0.2665  0.3806  0.0363
 1279TIP3   OH2 3800   2.793   0.576   0.033 -0.3482  0.4054  0.0084
 1279TIP3    H1 3801   2.772   0.490  -0.005  1.0357  0.4130 -0.8409
 1279TIP3    H2 3802   2.738   0.637  -0.015  2.0918  0.5488 -2.9188
 1280TIP3   OH2 3803   6.185   1.103   0.016  0.1204 -0.1574  0.2809
 1280TIP3    H1 3804   6.232   1.021   0.028  0.1308 -0.0489  0.9731
 1280TIP3    H2 3805   6.097   1.087   0.050  0.4687  0.4716  1.5223
 1281TIP3   OH2 3806   1.553   0.815   3.443 -0.0399 -0.0338  0.3407
 1281TIP3    H1 3807   1.458   0.807   3.440 -0.1293 -0.6484  2.7126
 1281TIP3    H2 3808   1.569   0.898   3.489  0.6174  0.5526 -0.8846
 1282TIP3   OH2 3809   4.465   0.559   3.362 -0.1277  0.2873  0.4276
 1282TIP3    H1 3810   4.481   0.595   3.449 -0.5906  1.9018 -0.1228
 1282TIP3    H2 3811   4.418   0.628   3.315 -0.0772 -0.6268 -1.0472
 1283TIP3   OH2 3812   1.491   0.594   5.568  0.7617  0.2207 -0.2900
 1283TIP3    H1 3813   1.416   0.635   5.612  0.1436 -0.5672 -0.5897
 1283TIP3    H2 3814   1.484   0.622   5.477  0.0705 -0.9084 -0.5941
 1284TIP3   OH2 3815   3.957   2.498   2.833 -0.0428  0.2445  0.2701
 1284TIP3    H1 3816   3.952   2.564   2.902  1.5121  1.6842 -0.9136
 1284TIP3    H2 3817   4.000   2.543   2.760 -0.9946 -1.4246 -1.3978
 1285TIP3   OH2 3818   6.236   5.992   2.008 -0.1342 -0.0996  0.5037
 1285TIP3    H1 3819   6.228   5.918   2.069  2.5092 -1.1673 -0.3046
 1285TIP3    H2 3820   6.255   5.951   1.923 -0.8933  1.4561 -0.4668
 1286TIP3   OH2 3821   3.920   1.477   0.286  0.5204  0.4512  0.4117
 1286TIP3    H1 3822   3.959   1.404   0.333 -0.0184 -0.1465 -0.0427
 1286TIP3    H2 3823   3.851   1.510   0.344 -0.0195 -0.1660  0.1440
 1287TIP3   OH2 3824   5.169   1.525   3.799 -0.3122  0.5314 -0.1549
 1287TIP3    H1 3825   5.127   1.539   3.714  0.6354  1.2630 -0.5285
 1287TIP3    H2 3826   5.263   1.526   3.779 -0.0902 -1.0536  0.6511
 1288TIP3   OH2 3827   2.977   0.424   3.949  0.5683  0.3611  0.6369
 1288TIP3    H1 3828   2.998   0.510   3.913  3.1570 -0.4502 -0.0713
 1288TIP3    H2 3829   2.910   0.389   3.891 -0.2258  1.7165  0.6916
 1289TIP3   OH2 3830   0.709   0.886   4.249 -0.0741 -0.1970  0.2572
 1289TIP3    H1 3831   0.676   0.798   4.263 -1.1744  0.1840  0.1015
 1289TIP3    H2 3832   0.800   0.873   4.219 -0.3856 -1.2851 -0.2569
 1290TIP3   OH2 3833   0.598   3.548   3.895  1.0553 -0.4386  0.6476
 1290TIP3    H1 3834   0.555   3.478   3.945 -1.2330 -1.6653 -2.7070
 1290TIP3    H2 3835   0.597   3.623   3.954 -1.8585 -1.6332  2.3425
 1291TIP3   OH2 3836   5.958   2.790   0.267  0.6472  1.2989 -0.0123
 1291TIP3    H1 3837   5.889   2.770   0.330  0.9086 -0.9353 -0.3600
 1291TIP3    H2 3838   5.926   2.868   0.220 -1.7856  0.1953 -0.3305
 1292TIP3   OH2 3839   1.243   2.182   1.233  0.0466  0.5855 -0.1476
 1292TIP3    H1 3840   1.265   2.266   1.194  1.8097  1.2971  2.1272
 1292TIP3    H2 3841   1.228   2.202   1.326  1.0056 -1.6388  0.5604
 1293TIP3   OH2 3842   5.523   0.662   2.362 -0.5614 -0.6417 -0.4304
 1293TIP3    H1 3843   5.453   0.727   2.354  0.1019  0.1813  0.3108
 1293TIP3    H2 3844   5.539   0.654   2.456 -0.1924 -1.4091 -0.5446
 1294TIP3   OH2 3845   3.385   0.076   5.038 -0.4758 -0.5143 -0.2332
 1294TIP3    H1 3846   3.351   0.000   4.990 -0.5832 -0.1427 -0.7517
 1294TIP3    H2 3847   3.472   0.090   5.002 -1.0763  0.5979 -1.2907
 1295TIP3   OH2 3848   4.482   2.489   5.480 -0.6178  0.2892 -0.0967
 1295TIP3    H1 3849   4.532   2.481   5.399  0.2347 -0.6066  0.4932
 1295TIP3    H2 3850   4.422   2.415   5.479  1.1235 -1.2373  1.2151
 1296TIP3   OH2 3851   3.114   2.394   3.672 -0.1432 -0.2479 -0.8025
 1296TIP3    H1 3852   3.065   2.345   3.738  0.9262  0.1034  0.2862
 1296TIP3    H2 3853   3.117   2.336   3.596  1.9465 -2.3872  0.7666
 1297TIP3   OH2 3854   2.073   6.722   3.922  0.4643 -0.4240  0.3470
 1297TIP3    H1 3855   1.987   6.759   3.939  0.9400  0.9248 -0.0032
 1297TIP3    H2 3856   2.131   6.798   3.917  1.2291 -1.0524 -2.0117
 1298TIP3   OH2 3857   1.499   3.463   4.706  0.0413 -0.2304 -0.5734
 1298TIP3    H1 3858   1.452   3.541   4.677  3.0862  2.3917  0.9078
 1298TIP3    H2 3859   1.443   3.424   4.774 -1.9331  0.0557 -1.9590
 1299TIP3   OH2 3860   6.294   4.896   1.206  0.0476  0.2429  0.7011
 1299TIP3    H1 3861   6.227   4.961   1.183  0.4635  0.6915  0.7312
 1299TIP3    H2 3862   6.279   4.877   1.298 -0.1645  0.1889  0.6557
 1300TIP3   OH2 3863   0.793   5.048   4.136  0.1587  0.2443  0.2922
 1300TIP3    H1 3864   0.806   5.108   4.062  0.0594 -0.8168 -0.6120
 1300TIP3    H2 3865   0.796   5.104   4.213 -1.5581  1.6611 -0.5997
 1301TIP3   OH2 3866   3.306   5.269   5.633 -0.1823  0.7075  0.1462
 1301TIP3    H1 3867   3.367   5.225   5.692 -0.3341 -2.7778 -2.0245
 1301TIP3    H2 3868   3.228   5.213   5.632 -0.8502  1.5747 -2.0269
 1302TIP3   OH2 3869   6.069   0.092   3.717 -0.8033 -0.3025 -0.3365
 1302TIP3    H1 3870   6.064   0.105   3.811  0.1198 -0.7821 -0.2119
 1302TIP3    H2 3871   6.162   0.091   3.697 -0.7321 -4.2402 -0.6181
 1303TIP3   OH2 3872   2.097   4.893   0.972 -0.1713  0.6559  0.2296
 1303TIP3    H1 3873   2.149   4.918   1.048  1.4748  1.5469 -1.1239
 1303TIP3    H2 3874   2.014   4.939   0.983  0.6639  2.0937  0.6893
 1304TIP3   OH2 3875   0.093   3.497   1.247 -0.7486 -0.8689  0.4663
 1304TIP3    H1 3876   0.171   3.532   1.204 -1.1327  0.3571  0.7260
 1304TIP3    H2 3877   0.025   3.500   1.179 -0.4654 -2.4246  0.0840
 1305TIP3   OH2 3878   5.208   4.448   3.222  0.3376 -0.1983  0.1607
 1305TIP3    H1 3879   5.264   4.374   3.196  1.2435  0.6952 -0.4970
 1305TIP3    H2 3880   5.145   4.410   3.283 -0.3877 -1.9124 -1.5446
 1306TIP3   OH2 3881   5.698   2.444   0.823  0.6352  0.1865 -0.2886
 1306TIP3    H1 3882   5.623   2.399   0.783  0.4585  1.8700 -2.0076
 1306TIP3    H2 3883   5.661   2.524   0.861  1.2055 -0.1772  1.0899
 1307TIP3   OH2 3884   1.110   3.082   1.535 -0.3466  0.1659 -0.5531
 1307TIP3    H1 3885   1.060   3.164   1.541 -1.7936 -0.7730  0.8390
 1307TIP3    H2 3886   1.058   3.018   1.583  1.5902 -1.1842 -0.1332
 1308TIP3   OH2 3887   4.443   3.416   0.014 -0.1800 -0.3311  0.1858
 1308TIP3    H1 3888   4.396   3.333   0.006  1.1167 -0.9971 -0.9356
 1308TIP3    H2 3889   4.376   3.483   0.002 -1.0646 -1.2290 -0.0279
 1309TIP3   OH2 3890   2.256   4.424   0.849 -0.0529  0.5440  0.0677
 1309TIP3    H1 3891   2.166   4.418   0.817  0.7092 -0.7585 -2.1067
 1309TIP3    H2 3892   2.253   4.489   0.919 -2.5242  1.1181 -0.4801
 1310TIP3   OH2 3893   0.086   3.088   4.389  0.2759 -0.1779 -0.4396
 1310TIP3    H1 3894   0.166   3.036   4.400  1.0213  1.0524  0.1847
 1310TIP3    H2 3895   0.016   3.023   4.383  1.1929 -1.2586  0.0954
 1311TIP3   OH2 3896   3.021   1.108   0.558  0.0802  0.3491 -0.2508
 1311TIP3    H1 3897   3.102   1.148   0.528 -0.0402  0.6530 -0.1732
 1311TIP3    H2 3898   2.979   1.175   0.612 -0.4366  0.3594 -0.6540
 1312TIP3   OH2 3899   3.851   2.125   1.607  0.2573 -0.1880  0.5469
 1312TIP3    H1 3900   3.775   2.074   1.631 -0.6033  1.3582  1.2584
 1312TIP3    H2 3901   3.822   2.216   1.611  1.5044  0.3656 -1.4163
 1313TIP3   OH2 3902   1.111   6.729   0.169 -0.4555  0.1812  0.2374
 1313TIP3    H1 3903   1.031   6.691   0.207 -0.5666  0.4737  0.2998
 1313TIP3    H2 3904   1.086   6.818   0.145 -0.1327  0.2891  0.2981
 1314TIP3   OH2 3905   5.254   3.592   0.543 -0.0427 -0.1791 -0.2593
 1314TIP3    H1 3906   5.274   3.508   0.583 -1.2125 -0.4338 -0.1729
 1314TIP3    H2 3907   5.289   3.585   0.454  2.4923  0.3615  0.6211
 1315TIP3   OH2 3908   4.562   6.488   4.619 -0.1657 -0.5184  0.3851
 1315TIP3    H1 3909   4.590   6.509   4.530  0.2824 -0.0514  0.6304
 1315TIP3    H2 3910   4.642   6.488   4.670 -0.3337 -1.4756  0.6648
 1316TIP3   OH2 3911   5.926   2.035   3.347 -0.2726  0.5141  0.2387
 1316TIP3    H1 3912   5.854   2.094   3.367  0.5097  1.0736  1.5053
 1316TIP3    H2 3913   5.980   2.035   3.426  1.7153  0.9588 -1.0428
 1317TIP3   OH2 3914   0.838   4.712   2.033  0.3013  0.2498  0.3929
 1317TIP3    H1 3915   0.753   4.735   1.997  0.1132  0.9822  1.2622
 1317TIP3    H2 3916   0.832   4.619   2.053 -0.8367  0.5862  1.8272
 1318TIP3   OH2 3917   0.143   4.668   3.735  0.4558  0.3453  0.7053
 1318TIP3    H1 3918   0.088   4.635   3.664  1.0449 -1.3968  1.0273
 1318TIP3    H2 3919   0.090   4.657   3.813  0.1370  1.4821  0.6755
 1319TIP3   OH2 3920   3.588   6.485   3.703  0.0584 -0.4236  0.3399
 1319TIP3    H1 3921   3.649   6.477   3.629 -0.5320 -2.3571  0.0188
 1319TIP3    H2 3922   3.543   6.568   3.687 -0.1111 -0.8352 -1.5555
 1320TIP3   OH2 3923   6.468   5.689   3.483  0.1374 -0.1900  0.0341
 1320TIP3    H1 3924   6.477   5.763   3.423  0.1761 -0.0575  0.2013
 1320TIP3    H2 3925   6.555   5.651   3.487  0.1680 -0.1090  0.1223
 1321TIP3   OH2 3926   1.919   2.418   0.988 -0.6873 -0.4929 -0.2096
 1321TIP3    H1 3927   1.894   2.478   0.917  3.0384 -0.0692 -1.3796
 1321TIP3    H2 3928   2.009   2.392   0.967 -0.3279 -2.4216  3.0521
 1322TIP3   OH2 3929   2.075   0.583   4.623  0.5322  0.0730  0.1452
 1322TIP3    H1 3930   2.149   0.523   4.627  0.8872  0.5086  0.2244
 1322TIP3    H2 3931   2.003   0.530   4.590  0.1298 -1.0769  2.6664
 1323TIP3   OH2 3932   5.738   6.138   2.453 -0.0487  0.1657  0.4073
 1323TIP3    H1 3933   5.661   6.194   2.444  0.1973  0.7873  1.8509
 1323TIP3    H2 3934   5.809   6.197   2.479  1.3250 -0.1704 -2.2663
 1324TIP3   OH2 3935   6.736   6.355   1.378  0.2456 -0.4082  0.7050
 1324TIP3    H1 3936   6.703   6.402   1.455 -0.8088  1.7764 -0.9825
 1324TIP3    H2 3937   6.831   6.366   1.382 -0.0056  3.5077 -0.4646
 1325TIP3   OH2 3938   1.638   5.314   5.642 -0.1427 -0.1952 -0.6117
 1325TIP3    H1 3939   1.702   5.326   5.712  1.8935  2.5537 -2.7043
 1325TIP3    H2 3940   1.675   5.243   5.589  0.7208  0.7379 -1.2882
 1326TIP3   OH2 3941   1.101   6.509   3.330 -0.5736  0.1623 -0.7054
 1326TIP3    H1 3942   1.082   6.416   3.312  0.8967 -0.6369  1.4878
 1326TIP3    H2 3943   1.185   6.525   3.288  0.5174 -0.3536  1.1455
 1327TIP3   OH2 3944   2.357   6.670   2.817 -0.1689 -0.2896  0.1605
 1327TIP3    H1 3945   2.367   6.662   2.912  0.6608  2.3295  0.3661
 1327TIP3    H2 3946   2.446   6.685   2.785 -0.7326  1.7081 -0.6288
 1328TIP3   OH2 3947   4.336   2.194   5.018 -0.2500 -0.2831 -0.3874
 1328TIP3    H1 3948   4.317   2.163   5.107 -1.4706  1.3377 -0.0368
 1328TIP3    H2 3949   4.261   2.164   4.966 -1.5630  2.0783  0.0003
 1329TIP3   OH2 3950   4.914   2.128   4.855 -0.1207  0.3170 -0.3388
 1329TIP3    H1 3951   4.933   2.131   4.761 -0.4235  2.0993 -0.3922
 1329TIP3    H2 3952   4.841   2.189   4.866 -0.4875 -0.3201  0.9822
 1330TIP3   OH2 3953   5.906   1.533   5.747  0.4921  0.2489  0.1828
 1330TIP3    H1 3954   5.956   1.548   5.667 -0.8759  0.4731 -0.6637
 1330TIP3    H2 3955   5.830   1.591   5.740  0.1519  0.0142  1.4779
 1331TIP3   OH2 3956   2.220   2.258   4.987  0.1030 -0.2145  0.2295
 1331TIP3    H1 3957   2.313   2.264   4.965  0.1497  1.5255  0.7571
 1331TIP3    H2 3958   2.218   2.242   5.081 -0.1131  0.0541  0.2737
 1332TIP3   OH2 3959   6.484   0.157   4.668  0.3306 -0.0917  0.0720
 1332TIP3    H1 3960   6.501   0.098   4.595 -0.1715  0.8579 -0.8200
 1332TIP3    H2 3961   6.517   0.242   4.639 -1.0551  0.5870  0.4228
 1333TIP3   OH2 3962   4.424   4.062   4.427 -0.4565  0.7315 -0.1774
 1333TIP3    H1 3963   4.518   4.072   4.409 -0.6881  0.3897 -1.6516
 1333TIP3    H2 3964   4.414   3.970   4.452 -0.4724  0.6528 -0.4762
 1334TIP3   OH2 3965   6.927   5.146   5.120 -0.0759 -0.0241 -0.0653
 1334TIP3    H1 3966   6.930   5.142   5.215  2.8122 -1.3015 -0.0973
 1334TIP3    H2 3967   6.891   5.062   5.093  2.8304 -1.3971 -0.0400
 1335TIP3   OH2 3968   5.528   0.113   3.500 -0.0755  0.5214 -0.2123
 1335TIP3    H1 3969   5.533   0.056   3.577 -0.7994 -0.3126 -0.7579
 1335TIP3    H2 3970   5.612   0.099   3.455 -0.6114 -0.9086 -0.8503
 1336TIP3   OH2 3971   0.508   4.492   5.121 -0.2090 -0.6923 -0.2534
 1336TIP3    H1 3972   0.506   4.570   5.176 -0.8627 -1.2207  0.4901
 1336TIP3    H2 3973   0.424   4.493   5.076  0.0419 -0.6375 -0.7304
 1337TIP3   OH2 3974   3.540   2.357   2.276 -0.3434  0.2599 -0.3323
 1337TIP3    H1 3975   3.577   2.434   2.234  0.4538  0.3440  0.4981
 1337TIP3    H2 3976   3.611   2.322   2.330 -0.5177 -1.3548 -1.0841
 1338TIP3   OH2 3977   5.769   0.059   3.380  0.0915 -0.5428  0.1211
 1338TIP3    H1 3978   5.772   0.043   3.285  1.2530 -0.0718  0.0614
 1338TIP3    H2 3979   5.825   0.135   3.393  0.6190 -1.1055  1.2939
 1339TIP3   OH2 3980   5.664   1.342   3.666 -0.4879 -0.0391 -0.3809
 1339TIP3    H1 3981   5.705   1.408   3.721 -1.5138  1.5653 -1.4354
 1339TIP3    H2 3982   5.713   1.344   3.584  0.6632 -1.9904  0.1876
 1340TIP3   OH2 3983   2.947   6.687   0.573  0.5481 -0.4721  0.5708
 1340TIP3    H1 3984   2.869   6.681   0.628  0.8560  0.4715  1.1315
 1340TIP3    H2 3985   2.931   6.625   0.502 -0.9963  0.1420  0.3354
 1341TIP3   OH2 3986   1.870   1.056   2.573 -0.5424 -0.0638  0.3961
 1341TIP3    H1 3987   1.941   1.059   2.636  0.2397  0.6985 -0.4926
 1341TIP3    H2 3988   1.802   1.113   2.611 -0.3563 -0.1557  0.8708
 1342TIP3   OH2 3989   5.407   0.213   2.959  0.1535 -0.3779  0.3886
 1342TIP3    H1 3990   5.351   0.281   2.997  0.0332 -1.0268  1.4358
 1342TIP3    H2 3991   5.396   0.138   3.018  1.3992 -0.8245  0.0834
 1343TIP3   OH2 3992   2.347   5.901   3.921 -0.1213  0.0308  0.1944
 1343TIP3    H1 3993   2.300   5.960   3.862  0.4790 -0.5788 -0.9283
 1343TIP3    H2 3994   2.281   5.840   3.952 -0.2821 -0.1723 -0.5344
 1344TIP3   OH2 3995   5.654   4.384   0.226  0.5189 -0.3491 -0.3860
 1344TIP3    H1 3996   5.633   4.469   0.188 -1.1520  0.1414  1.4736
 1344TIP3    H2 3997   5.608   4.321   0.172 -0.3633  0.1714 -0.2565
 1345TIP3   OH2 3998   4.144   2.026   5.601  0.3714 -0.3232  0.0659
 1345TIP3    H1 3999   4.156   1.992   5.512 -0.9884 -1.1886  0.1767
 1345TIP3    H2 4000   4.132   1.947   5.655 -1.3348  0.2615  0.5947
 1346TIP3   OH2 4001   4.610   2.169   2.315 -0.2566 -0.5258  0.2170
 1346TIP3    H1 4002   4.685   2.119   2.350  0.6429  0.3484 -0.3994
 1346TIP3    H2 4003   4.604   2.246   2.372 -0.6123 -0.5338  0.1879
 1347TIP3   OH2 4004   6.059   3.966   3.950  0.1756 -0.2486  0.3185
 1347TIP3    H1 4005   6.096   3.909   4.018  2.3573 -2.1717 -2.2477
 1347TIP3    H2 4006   6.111   4.046   3.955  1.6687 -1.1487 -0.3006
 1348TIP3   OH2 4007   5.150   6.106   3.785 -0.1347  0.0784 -0.4181
 1348TIP3    H1 4008   5.067   6.076   3.822 -0.0936 -0.3730 -0.6857
 1348TIP3    H2 4009   5.206   6.122   3.861 -0.2662 -0.2017 -0.2630
 1349TIP3   OH2 4010   3.542   5.190   3.936 -0.3730  0.1065  0.3473
 1349TIP3    H1 4011   3.569   5.215   3.848 -1.5609  1.5370  0.3522
 1349TIP3    H2 4012   3.469   5.129   3.922  0.5663 -1.0699  0.3650
 1350TIP3   OH2 4013   6.491   1.193   0.314 -0.4647  0.4671  0.2273
 1350TIP3    H1 4014   6.423   1.162   0.374 -2.4292  0.9419 -1.6172
 1350TIP3    H2 4015   6.573   1.180   0.362 -1.7243 -1.2884  2.0924
 1351TIP3   OH2 4016   7.173   0.815   2.692  0.5591  0.3396 -0.9502
 1351TIP3    H1 4017   7.162   0.781   2.603  0.2334  0.3829 -0.9281
 1351TIP3    H2 4018   7.182   0.909   2.681 -0.7454  0.4958 -0.8501
 1352TIP3   OH2 4019   3.777   5.342   0.133 -0.6636  0.1743  0.2039
 1352TIP3    H1 4020   3.776   5.318   0.040 -0.0277  1.4016 -0.1348
 1352TIP3    H2 4021   3.863   5.312   0.164 -0.0179  1.5987 -0.1316
 1353TIP3   OH2 4022   1.760   1.723   2.977 -0.2431  0.2495 -0.4988
 1353TIP3    H1 4023   1.774   1.676   3.059 -0.1061 -0.2327 -0.7970
 1353TIP3    H2 4024   1.848   1.730   2.938 -0.7129 -3.2395 -2.6365
 1354TIP3   OH2 4025   1.159   2.975   3.306 -0.1142  0.1267  0.0055
 1354TIP3    H1 4026   1.234   3.009   3.355 -0.3294  0.6111  0.0097
 1354TIP3    H2 4027   1.159   2.881   3.324 -0.2462  0.3060  1.0286
 1355TIP3   OH2 4028   1.762   1.077   1.361  0.1195  0.2765 -0.1215
 1355TIP3    H1 4029   1.856   1.085   1.373  0.0523  0.9761 -0.0481
 1355TIP3    H2 4030   1.724   1.121   1.437 -0.2680  0.6029 -0.4968
 1356TIP3   OH2 4031   1.077   0.238   5.436  0.5525  0.5583  0.3969
 1356TIP3    H1 4032   1.064   0.297   5.362 -1.6572 -3.6061 -3.0368
 1356TIP3    H2 4033   1.163   0.198   5.420 -1.0428 -2.3864 -1.9456
 1357TIP3   OH2 4034   0.594   0.642   4.185  0.1050  0.1217 -0.5477
 1357TIP3    H1 4035   0.506   0.608   4.202 -0.6525  1.3873 -1.7186
 1357TIP3    H2 4036   0.648   0.564   4.171 -0.6147 -0.7022  1.0076
 1358TIP3   OH2 4037   6.217   2.309   5.406 -0.0138 -0.7720 -0.0245
 1358TIP3    H1 4038   6.160   2.232   5.405 -0.7327 -0.2566 -0.8635
 1358TIP3    H2 4039   6.234   2.326   5.498 -1.2885 -0.8938  0.2424
 1359TIP3   OH2 4040   0.608   4.902   0.609  0.5233  0.2744  0.2778
 1359TIP3    H1 4041   0.676   4.836   0.623 -0.5306 -1.1390 -0.9588
 1359TIP3    H2 4042   0.568   4.913   0.695  1.1974 -0.1551  0.6583
 1360TIP3   OH2 4043   6.618   4.898   0.178 -0.4909 -0.1381 -0.5855
 1360TIP3    H1 4044   6.563   4.929   0.106 -0.1014  2.0225 -0.0168
 1360TIP3    H2 4045   6.568   4.919   0.257  1.0430  1.8158 -0.0592
 1361TIP3   OH2 4046   5.638   4.515   5.719 -0.2840  0.2259 -0.0269
 1361TIP3    H1 4047   5.654   4.422   5.705 -0.9217 -0.0197  0.8059
 1361TIP3    H2 4048   5.543   4.525   5.709 -0.4717  0.4523  1.6856
 1362TIP3   OH2 4049   4.500   4.617   3.697  0.0475 -0.0865  0.0026
 1362TIP3    H1 4050   4.459   4.533   3.715  0.2279 -0.1917 -0.0726
 1362TIP3    H2 4051   4.580   4.595   3.648  0.5207  0.0651  0.6912
 1363TIP3   OH2 4052   6.166   1.815   3.919 -0.2282  0.1492 -0.2071
 1363TIP3    H1 4053   6.088   1.761   3.930  0.1045 -0.7293 -1.8686
 1363TIP3    H2 4054   6.132   1.905   3.917 -0.9379 -0.0584  1.1813
 1364TIP3   OH2 4055   1.752   3.108   1.621 -0.3660 -0.0273  0.0666
 1364TIP3    H1 4056   1.735   3.014   1.621 -2.3080  0.2725 -0.0536
 1364TIP3    H2 4057   1.666   3.147   1.607  0.1766  1.8061  1.4682
 1365TIP3   OH2 4058   5.624   6.051   4.478  0.4234  0.2759  0.8672
 1365TIP3    H1 4059   5.592   6.032   4.389  0.0160  2.9192  0.3550
 1365TIP3    H2 4060   5.545   6.072   4.527  0.5475 -2.0152  2.1881
 1366TIP3   OH2 4061   6.292   4.349   1.011 -0.0772 -0.1130  0.0910
 1366TIP3    H1 4062   6.315   4.267   0.967  0.2352 -0.5437  1.0335
 1366TIP3    H2 4063   6.341   4.416   0.963 -0.3019 -0.4752 -0.6613
 1367TIP3   OH2 4064   5.138   4.042   4.360  0.6623  0.4548 -0.2386
 1367TIP3    H1 4065   5.123   4.023   4.268  1.3782  1.6992 -0.6306
 1367TIP3    H2 4066   5.193   4.120   4.360 -0.8035  1.5716  1.2631
 1368TIP3   OH2 4067   1.635   1.254   0.609  0.5080 -0.4984  0.1154
 1368TIP3    H1 4068   1.688   1.178   0.633  1.4386 -0.0549 -0.4943
 1368TIP3    H2 4069   1.681   1.329   0.647  0.0808 -0.1513 -0.0371
 1369TIP3   OH2 4070   1.656   1.308   4.169  0.2195  0.6352 -0.5723
 1369TIP3    H1 4071   1.572   1.300   4.215  0.0916  0.7168 -0.7913
 1369TIP3    H2 4072   1.659   1.232   4.111  1.4213 -0.7544  1.2296
 1370TIP3   OH2 4073   4.393   4.028   1.452  0.0183  0.1295  0.0108
 1370TIP3    H1 4074   4.448   4.025   1.373 -0.7147 -1.0201 -0.4944
 1370TIP3    H2 4075   4.342   4.108   1.443  0.3404  0.2918 -0.4145
 1371TIP3   OH2 4076   4.826   4.172   3.166 -0.6555  0.6355  0.3641
 1371TIP3    H1 4077   4.758   4.229   3.131 -1.7675 -0.9702 -0.2020
 1371TIP3    H2 4078   4.829   4.097   3.106  1.3301  0.4447  0.6057
 1372TIP3   OH2 4079   4.354   4.494   2.238  0.1149  0.4535 -0.0416
 1372TIP3    H1 4080   4.352   4.556   2.311 -0.3622 -0.4180  0.7071
 1372TIP3    H2 4081   4.376   4.548   2.162  0.6779  1.3712  0.7419
 1373TIP3   OH2 4082   2.168   0.748   2.343 -0.2170 -0.0721 -0.5487
 1373TIP3    H1 4083   2.094   0.797   2.307 -1.0689  0.2262  1.5121
 1373TIP3    H2 4084   2.148   0.739   2.436  1.6547 -1.2549 -0.2210
 1374TIP3   OH2 4085   5.751   3.576   2.867  0.0529  0.4374 -0.0253
 1374TIP3    H1 4086   5.710   3.636   2.929 -0.7292  2.0861 -2.0295
 1374TIP3    H2 4087   5.812   3.629   2.817  1.4295 -1.0692 -0.0347
 1375TIP3   OH2 4088   2.291   1.857   1.402  0.1245 -0.0721  0.5392
 1375TIP3    H1 4089   2.380   1.892   1.397  0.9454 -1.9259  1.4399
 1375TIP3    H2 4090   2.250   1.884   1.319  1.8392 -0.0551 -0.3394
 1376TIP3   OH2 4091   3.430   5.930   2.916 -0.2125 -0.3766  0.0919
 1376TIP3    H1 4092   3.510   5.931   2.862 -1.1174 -0.9913 -1.3028
 1376TIP3    H2 4093   3.405   5.838   2.919 -1.0243 -0.1499  0.2887
 1377TIP3   OH2 4094   1.621   6.512   3.770 -1.2103 -0.3514  0.7850
 1377TIP3    H1 4095   1.537   6.535   3.810 -0.4273  0.3177  2.1232
 1377TIP3    H2 4096   1.637   6.422   3.797 -0.9134 -0.0593  1.6200
 1378TIP3   OH2 4097   0.035   4.479   5.631 -0.6521  0.6132 -0.1053
 1378TIP3    H1 4098   0.004   4.394   5.602  0.1801  0.3710 -0.2898
 1378TIP3    H2 4099   0.099   4.460   5.700 -0.1063  1.0673 -0.4764
 1379TIP3   OH2 4100   0.945   3.319   0.802  0.8848  0.2896  0.0836
 1379TIP3    H1 4101   1.033   3.344   0.833  0.6618 -0.8658  1.7819
 1379TIP3    H2 4102   0.962   3.256   0.732  1.3947  1.0208 -0.4741
 1380TIP3   OH2 4103   4.836   0.851   5.221  0.3008  0.0033 -0.0123
 1380TIP3    H1 4104   4.885   0.841   5.139 -0.2602  2.4952 -0.7443
 1380TIP3    H2 4105   4.868   0.934   5.257 -1.4006  0.2917  0.9128
 1381TIP3   OH2 4106   3.055   2.057   2.832  0.1783  0.1658 -0.6874
 1381TIP3    H1 4107   3.004   1.976   2.829  1.8961 -1.0947  1.2686
 1381TIP3    H2 4108   3.139   2.034   2.793  1.5613  0.2117  2.0508
 1382TIP3   OH2 4109   6.722   2.846   5.055 -0.2998  0.2308 -0.5419
 1382TIP3    H1 4110   6.804   2.892   5.037  0.1043  1.7377  3.8746
 1382TIP3    H2 4111   6.748   2.767   5.102 -1.3182  0.3962  0.3443
 1383TIP3   OH2 4112   1.543   3.714   4.131  0.4113 -0.2016  0.6789
 1383TIP3    H1 4113   1.590   3.640   4.092  0.4316 -0.6934  1.6033
 1383TIP3    H2 4114   1.466   3.726   4.076  1.1031 -0.0271 -0.2763
 1384TIP3   OH2 4115   1.332   6.541   2.966  0.2585  0.5462  0.3380
 1384TIP3    H1 4116   1.343   6.489   3.046  1.5073  0.1226 -0.0688
 1384TIP3    H2 4117   1.290   6.621   2.994 -1.1678 -0.4319  1.0934
 1385TIP3   OH2 4118   3.568   2.797   3.148 -0.2972 -0.2082  0.2995
 1385TIP3    H1 4119   3.527   2.821   3.065  0.0406  0.5529  0.3405
 1385TIP3    H2 4120   3.496   2.763   3.201 -0.4124 -1.2632 -0.4968
 1386TIP3   OH2 4121   2.651   1.185   4.666  0.2995 -0.0271  0.2167
 1386TIP3    H1 4122   2.559   1.184   4.693 -0.1592 -0.2747 -1.3102
 1386TIP3    H2 4123   2.689   1.257   4.717 -0.9348  0.6382  0.2577
 1387TIP3   OH2 4124   1.606   3.068   4.658  0.8872  0.0715  0.5354
 1387TIP3    H1 4125   1.636   3.068   4.567  0.2861 -1.5368  0.3136
 1387TIP3    H2 4126   1.511   3.076   4.652  0.8882  0.5507  1.0558
 1388TIP3   OH2 4127   2.582   2.222  -0.005  0.1649  0.1983 -0.4977
 1388TIP3    H1 4128   2.675   2.238  -0.015  0.9764 -3.7040 -0.5796
 1388TIP3    H2 4129   2.561   2.255   0.083  1.9824 -0.1558  0.1020
 1389TIP3   OH2 4130   3.464   4.054   2.555  0.0365  0.1070 -0.2277
 1389TIP3    H1 4131   3.381   4.024   2.592  0.4939  0.9728  1.6249
 1389TIP3    H2 4132   3.529   3.994   2.591  0.1696 -1.2777 -2.5639
 1390TIP3   OH2 4133   6.986   4.140   2.435 -0.4847  0.2664 -0.1229
 1390TIP3    H1 4134   7.055   4.169   2.375 -1.2965  0.1198 -1.1626
 1390TIP3    H2 4135   6.997   4.045   2.441 -1.2171  0.1038 -1.1230
 1391TIP3   OH2 4136   4.653   6.558   5.762 -0.3457 -0.1451  0.4671
 1391TIP3    H1 4137   4.711   6.624   5.725 -1.9196  0.8255 -0.3722
 1391TIP3    H2 4138   4.699   6.475   5.746  0.9245  0.6009  0.0805
 1392TIP3   OH2 4139   2.551   6.353   1.792 -0.0725  0.2157  0.4538
 1392TIP3    H1 4140   2.526   6.412   1.863 -1.9877  0.1246 -0.0665
 1392TIP3    H2 4141   2.566   6.412   1.717  1.5889  0.2839  0.8099
 1393TIP3   OH2 4142   2.925   6.176   5.635  0.0803 -0.4276 -0.2183
 1393TIP3    H1 4143   2.976   6.161   5.556 -1.6309 -0.7652 -1.2970
 1393TIP3    H2 4144   2.855   6.110   5.632 -1.5985  1.2454  0.1725
 1394TIP3   OH2 4145   6.854   1.605   1.047 -0.1058  0.5416 -0.3874
 1394TIP3    H1 4146   6.910   1.532   1.020 -1.3251 -0.4034 -0.4733
 1394TIP3    H2 4147   6.805   1.571   1.122  0.5896  1.8961  0.7217
 1395TIP3   OH2 4148   2.760   6.371   1.425 -0.2983 -0.7143  0.0778
 1395TIP3    H1 4149   2.800   6.457   1.439 -0.0946 -0.9840  1.3383
 1395TIP3    H2 4150   2.786   6.346   1.337 -0.5053  0.5883 -0.3753
 1396TIP3   OH2 4151   0.672   3.023   2.853  0.2755 -0.0936  0.1783
 1396TIP3    H1 4152   0.582   3.040   2.826 -0.2953 -2.3702  0.4298
 1396TIP3    H2 4153   0.691   3.090   2.919 -2.0550 -0.9269  1.7922
 1397TIP3   OH2 4154   5.602   0.088   4.508 -0.1230 -0.2649  0.0658
 1397TIP3    H1 4155   5.524   0.077   4.453 -0.1805  0.8123 -0.1010
 1397TIP3    H2 4156   5.669   0.034   4.467  0.6797  2.5259 -2.7823
 1398TIP3   OH2 4157   1.592   5.411   3.667 -0.0677  0.4907 -0.7563
 1398TIP3    H1 4158   1.575   5.331   3.619  0.2152  0.5593 -0.9736
 1398TIP3    H2 4159   1.620   5.474   3.600  3.4694 -0.2847 -0.2061
 1399TIP3   OH2 4160   5.425   4.997   0.170 -0.6252  0.2787  0.3173
 1399TIP3    H1 4161   5.347   5.030   0.214 -1.2414 -0.3531 -0.2646
 1399TIP3    H2 4162   5.413   5.024   0.078 -0.2707 -0.0047  0.1860
 1400TIP3   OH2 4163   7.083   2.923   3.490 -0.0800  0.2872  0.2472
 1400TIP3    H1 4164   7.027   2.965   3.425  3.4193  0.0336 -3.3269
 1400TIP3    H2 4165   7.108   2.994   3.549 -0.2511  1.5081 -1.1015
 1401TIP3   OH2 4166   6.597   4.385   0.425  0.3775  0.4215  0.4930
 1401TIP3    H1 4167   6.576   4.409   0.515 -0.3286 -1.5913  0.9142
 1401TIP3    H2 4168   6.616   4.291   0.429  0.7280  0.3763 -1.3974
 1402TIP3   OH2 4169   3.919   2.428   1.585  0.4971  0.1573  0.0857
 1402TIP3    H1 4170   3.851   2.440   1.520  0.6645 -1.0944 -0.3603
 1402TIP3    H2 4171   4.001   2.430   1.535  0.6699 -0.1279  0.3499
 1403TIP3   OH2 4172   1.546   4.027   4.875  0.3897 -0.0878 -0.1656
 1403TIP3    H1 4173   1.494   4.098   4.913  1.3934  0.0049  1.1271
 1403TIP3    H2 4174   1.611   4.071   4.820 -0.6536 -0.1867 -1.5314
 1404TIP3   OH2 4175   3.421   2.193   2.106 -0.8183  0.7984 -0.1451
 1404TIP3    H1 4176   3.493   2.159   2.053 -1.5127  1.2287 -1.4119
 1404TIP3    H2 4177   3.463   2.227   2.184  0.1862 -0.2995 -0.1808
 1405TIP3   OH2 4178   6.435   2.965   1.668 -0.4331  0.0454  0.1088
 1405TIP3    H1 4179   6.393   2.912   1.736 -0.4693  0.1251  0.1494
 1405TIP3    H2 4180   6.504   3.013   1.715  0.4061 -0.8821 -0.1535
 1406TIP3   OH2 4181   4.303   1.959   4.715  1.2420 -0.0010 -0.0077
 1406TIP3    H1 4182   4.313   1.915   4.800 -1.5732 -1.3451 -0.2427
 1406TIP3    H2 4183   4.296   1.887   4.652  0.2010  0.8704 -0.9253
 1407TIP3   OH2 4184   6.566   0.880   0.383 -0.3661  0.4489 -0.1791
 1407TIP3    H1 4185   6.568   0.915   0.472  0.2525  0.3354 -0.1488
 1407TIP3    H2 4186   6.624   0.937   0.333  0.9475 -0.7367 -0.0511
 1408TIP3   OH2 4187   6.798   4.335   3.597  0.3096  0.1457 -0.3915
 1408TIP3    H1 4188   6.781   4.409   3.657  2.5806 -0.7128  1.4747
 1408TIP3    H2 4189   6.838   4.375   3.521  0.4842  0.9581  0.1140
 1409TIP3   OH2 4190   0.054   0.374   4.397  0.0307  0.0034 -0.4544
 1409TIP3    H1 4191  -0.028   0.337   4.364  0.7279 -1.7999 -0.2574
 1409TIP3    H2 4192   0.116   0.366   4.324  0.4469 -0.0942 -0.0955
 1410TIP3   OH2 4193   0.636   5.052   2.617  0.2379  0.2544  0.3652
 1410TIP3    H1 4194   0.635   5.147   2.602  0.5827  0.1545 -0.3254
 1410TIP3    H2 4195   0.551   5.022   2.585  0.4029  0.2415 -0.0742
 1411TIP3   OH2 4196   1.218   4.837   0.097 -0.6817  0.3800 -0.1741
 1411TIP3    H1 4197   1.189   4.903   0.160 -1.7232  0.0579 -0.2966
 1411TIP3    H2 4198   1.193   4.872   0.012  0.7880  0.8477 -0.4443
 1412TIP3   OH2 4199   6.171   6.594   4.970  0.4261  0.5960  0.6616
 1412TIP3    H1 4200   6.140   6.662   5.030  0.3666  3.5220 -2.3357
 1412TIP3    H2 4201   6.262   6.580   4.995  0.0870  0.8054  2.1292
 1413TIP3   OH2 4202   6.205   5.008   0.231  0.7788  0.1207  0.2196
 1413TIP3    H1 4203   6.133   5.065   0.257  1.5690  1.2352  0.0803
 1413TIP3    H2 4204   6.183   4.922   0.266 -0.0122  0.7200  1.2297
 1414TIP3   OH2 4205   4.949   1.227   4.876  0.2262  0.1400  0.6649
 1414TIP3    H1 4206   4.968   1.224   4.783  1.1886 -1.0696  0.8816
 1414TIP3    H2 4207   4.934   1.320   4.895 -0.7011  0.3109 -0.8158
 1415TIP3   OH2 4208   6.760   5.958   3.068  0.2223 -0.1855  0.0731
 1415TIP3    H1 4209   6.695   6.028   3.061 -1.2171 -1.3145  1.4841
 1415TIP3    H2 4210   6.816   5.985   3.141  0.4088  0.0502 -0.1543
 1416TIP3   OH2 4211   0.709   6.220   2.080 -0.2441  0.2718 -0.3166
 1416TIP3    H1 4212   0.705   6.276   2.157  0.2751  0.5747 -0.5061
 1416TIP3    H2 4213   0.751   6.274   2.013  0.2934 -0.3470 -0.4937
 1417TIP3   OH2 4214   4.247   1.292   2.255 -0.4904  1.2283  0.0370
 1417TIP3    H1 4215   4.213   1.341   2.330 -0.8246  0.5397  0.3464
 1417TIP3    H2 4216   4.320   1.344   2.223  0.0197  1.2570  1.2018
 1418TIP3   OH2 4217   1.655   3.895   5.132  0.2331  0.0721  0.0071
 1418TIP3    H1 4218   1.591   3.895   5.061 -1.3295 -0.7046  1.3390
 1418TIP3    H2 4219   1.723   3.833   5.103 -0.9179 -1.0572 -0.3737
 1419TIP3   OH2 4220   4.222   3.611   5.562  0.5113 -0.0212  0.0351
 1419TIP3    H1 4221   4.198   3.615   5.655  0.0525  0.5288 -0.1015
 1419TIP3    H2 4222   4.139   3.600   5.516  0.6573  0.4967 -0.3550
 1420TIP3   OH2 4223   0.494   4.524   2.576  0.0860  0.2489  0.1294
 1420TIP3    H1 4224   0.564   4.580   2.610 -0.7078  1.2702  0.1042
 1420TIP3    H2 4225   0.485   4.550   2.485 -0.2583  0.0348  0.1017
 1421TIP3   OH2 4226   2.920   3.934   3.702  0.0208  0.3787  0.1099
 1421TIP3    H1 4227   2.983   3.937   3.774 -0.4487  0.7848  0.5093
 1421TIP3    H2 4228   2.899   4.025   3.684  0.8253  0.3354 -1.1721
 1422TIP3   OH2 4229   0.612   4.091   5.007  0.5561  0.1228  0.1130
 1422TIP3    H1 4230   0.631   4.183   4.993 -0.9579  0.7538  1.7185
 1422TIP3    H2 4231   0.697   4.050   5.019  1.2511  1.3294 -0.5334
 1423TIP3   OH2 4232   4.561   4.926   1.871  0.4251 -0.1919 -0.2539
 1423TIP3    H1 4233   4.488   4.896   1.818 -0.0521  0.3099  0.1059
 1423TIP3    H2 4234   4.623   4.962   1.808 -0.4790  1.1198 -0.4359
 1424TIP3   OH2 4235   2.610   3.947   3.138  0.0563  0.1188  0.4236
 1424TIP3    H1 4236   2.572   3.882   3.079  0.5542 -0.1218  0.3677
 1424TIP3    H2 4237   2.584   3.917   3.226 -0.7782  0.5388  0.3331
 1425TIP3   OH2 4238   1.379   1.791   0.395 -0.2270 -0.3754  0.0574
 1425TIP3    H1 4239   1.352   1.831   0.477 -1.6020 -1.0535 -0.0338
 1425TIP3    H2 4240   1.324   1.713   0.387  1.1421 -1.2967 -0.6368
 1426TIP3   OH2 4241   4.149   3.202   4.897  0.3241 -0.3797  0.0610
 1426TIP3    H1 4242   4.100   3.182   4.818 -1.0207  0.4270  0.6536
 1426TIP3    H2 4243   4.104   3.154   4.966 -0.0006  0.7971  0.7035
 1427TIP3   OH2 4244   2.465   1.786   0.526 -0.3214 -0.0799  0.0054
 1427TIP3    H1 4245   2.384   1.835   0.512 -0.0369  0.6338  0.7253
 1427TIP3    H2 4246   2.459   1.711   0.468 -2.0408 -0.6903  0.9325
 1428TIP3   OH2 4247   3.410   6.607   4.071 -0.0611  0.6568  0.0233
 1428TIP3    H1 4248   3.351   6.538   4.042  0.1024  0.6830 -0.3785
 1428TIP3    H2 4249   3.363   6.689   4.055 -0.0294  0.6643 -0.0345
 1429TIP3   OH2 4250   4.233   2.575   4.031 -0.7620  0.4310 -0.4792
 1429TIP3    H1 4251   4.303   2.640   4.019 -0.9304  0.8495  0.6315
 1429TIP3    H2 4252   4.200   2.559   3.943  0.6069  0.3637 -1.0048
 1430TIP3   OH2 4253   0.817   5.583   2.535 -0.4275  0.1164  0.3059
 1430TIP3    H1 4254   0.741   5.625   2.576 -0.1294 -0.8197  1.9062
 1430TIP3    H2 4255   0.861   5.654   2.489 -0.7189  1.2847  1.7398
 1431TIP3   OH2 4256   4.194   3.010   5.307 -0.4184  0.4565 -0.6741
 1431TIP3    H1 4257   4.248   2.933   5.288  0.3352  1.0217 -0.8796
 1431TIP3    H2 4258   4.129   3.011   5.237 -1.0351 -0.5274 -0.1275
 1432TIP3   OH2 4259   2.295   4.136   4.792 -0.4880 -0.0152 -0.4091
 1432TIP3    H1 4260   2.361   4.078   4.755  0.4348  1.4244 -1.1433
 1432TIP3    H2 4261   2.318   4.142   4.885  1.4056  1.6046 -0.9097
 1433TIP3   OH2 4262   4.294   2.677   2.715 -0.3539 -0.4206 -0.1403
 1433TIP3    H1 4263   4.347   2.756   2.716 -0.8963 -0.0510 -0.0896
 1433TIP3    H2 4264   4.221   2.698   2.656 -0.8394 -0.6507  0.3652
 1434TIP3   OH2 4265   0.443   3.091   3.739  0.1471  0.1249 -0.6698
 1434TIP3    H1 4266   0.444   2.998   3.762 -0.3302  0.0866 -0.7772
 1434TIP3    H2 4267   0.350   3.116   3.746 -0.0128  0.1269 -2.4412
 1435TIP3   OH2 4268   4.478   6.074   3.204 -0.3469  0.0011 -0.1511
 1435TIP3    H1 4269   4.462   6.127   3.282 -0.7425  0.0242 -0.2450
 1435TIP3    H2 4270   4.410   6.101   3.142  1.0996  1.4055 -1.2353
 1436TIP3   OH2 4271   3.876   5.907   5.746 -0.5064 -0.0217  0.1669
 1436TIP3    H1 4272   3.900   5.864   5.664 -0.0680 -0.9396  0.7613
 1436TIP3    H2 4273   3.781   5.898   5.751 -0.6074  0.5720 -0.5221
 1437TIP3   OH2 4274   0.264   4.174   1.889  0.2229 -0.0512 -0.9591
 1437TIP3    H1 4275   0.294   4.231   1.818 -2.0643  1.9630 -0.4142
 1437TIP3    H2 4276   0.195   4.120   1.849  0.2645 -0.2875 -0.7167
 1438TIP3   OH2 4277   4.268   4.900   3.311  0.0428 -0.6517  0.2988
 1438TIP3    H1 4278   4.203   4.854   3.258  0.2270 -2.6936  1.7432
 1438TIP3    H2 4279   4.225   4.982   3.334 -0.7215 -0.4973 -1.4869
 1439TIP3   OH2 4280   0.926   5.644   0.666  0.0120  0.5194  0.3505
 1439TIP3    H1 4281   0.871   5.597   0.729  1.7552 -1.2677  0.6286
 1439TIP3    H2 4282   1.016   5.627   0.695  0.8914 -0.1295 -2.4504
 1440TIP3   OH2 4283   2.160   3.249   5.187  0.1286  0.1111  0.5215
 1440TIP3    H1 4284   2.149   3.276   5.279  0.9415 -1.4138  1.1001
 1440TIP3    H2 4285   2.077   3.208   5.164 -0.2346  0.8774  0.4069
 1441TIP3   OH2 4286   5.372   3.523   2.241 -0.3693 -0.0650 -0.5492
 1441TIP3    H1 4287   5.414   3.532   2.155 -0.9083 -2.0158 -1.0754
 1441TIP3    H2 4288   5.280   3.508   2.221 -0.7216  0.7016  0.4452
 1442TIP3   OH2 4289   7.011   2.215   3.085 -0.1388  0.8044  0.2641
 1442TIP3    H1 4290   7.045   2.127   3.099 -1.3553 -0.1150 -2.1126
 1442TIP3    H2 4291   7.023   2.258   3.170  3.0234 -0.7124  0.7459
 1443TIP3   OH2 4292   5.966   4.687   1.805  0.1918 -0.1209  0.3199
 1443TIP3    H1 4293   5.926   4.729   1.881  1.4962  0.8496  0.5146
 1443TIP3    H2 4294   6.002   4.605   1.839 -1.3247 -0.8748  0.1967
 1444TIP3   OH2 4295   4.799   4.536   1.226 -0.0543 -0.2578 -0.2849
 1444TIP3    H1 4296   4.756   4.451   1.221  0.0978 -0.3756  0.2891
 1444TIP3    H2 4297   4.831   4.553   1.137 -1.5931  0.0063 -0.8094
 1445TIP3   OH2 4298   5.685   5.251   4.412  0.2038  0.5108 -0.3253
 1445TIP3    H1 4299   5.657   5.319   4.350 -0.8336  0.0701 -0.3648
 1445TIP3    H2 4300   5.742   5.194   4.361  1.1572  1.3822 -0.2701
 1446TIP3   OH2 4301   6.152   2.662   5.095 -0.0017 -0.4421 -0.3333
 1446TIP3    H1 4302   6.161   2.758   5.094 -1.7072 -0.2401  0.6214
 1446TIP3    H2 4303   6.151   2.637   5.003 -0.4839  0.5658 -0.6178
 1447TIP3   OH2 4304   2.747   3.603   3.975  0.7068 -0.5503  0.2010
 1447TIP3    H1 4305   2.760   3.518   3.932  0.7528 -0.4395 -0.0083
 1447TIP3    H2 4306   2.834   3.626   4.008  0.9421 -0.0736 -0.7054
 1448TIP3   OH2 4307   3.966   3.091   2.895 -0.4414 -0.3933  0.0406
 1448TIP3    H1 4308   3.968   3.180   2.861 -0.6428 -0.5830 -0.4857
 1448TIP3    H2 4309   3.873   3.070   2.904 -0.4329 -0.9662 -0.9943
 1449TIP3   OH2 4310   0.650   5.575   2.929 -0.2437 -0.3692  0.6485
 1449TIP3    H1 4311   0.587   5.557   2.998 -1.0765  1.0822  0.2884
 1449TIP3    H2 4312   0.607   5.545   2.849  0.3718 -1.2487  0.6288
 1450TIP3   OH2 4313   2.482   4.788   4.312  0.0500  0.8091  0.2433
 1450TIP3    H1 4314   2.535   4.867   4.326 -1.3411  2.0770 -1.1837
 1450TIP3    H2 4315   2.536   4.733   4.255  0.8530  0.9255  0.8838
 1451TIP3   OH2 4316   2.817   4.888   4.564  0.0322  0.4871 -0.2635
 1451TIP3    H1 4317   2.875   4.839   4.506 -2.1281 -1.0840 -1.2723
 1451TIP3    H2 4318   2.778   4.821   4.621 -1.8812  1.1724 -0.6668
 1452TIP3   OH2 4319   4.956   0.202   3.168  0.5352 -0.7745 -0.1770
 1452TIP3    H1 4320   5.027   0.175   3.226 -0.6138 -2.0936  0.6723
 1452TIP3    H2 4321   4.980   0.165   3.083  1.2736 -0.4888 -0.1016
 1453TIP3   OH2 4322   5.673   1.985   1.053 -0.1005  0.2523 -0.2384
 1453TIP3    H1 4323   5.749   1.961   1.106  0.3940 -1.2827 -1.5671
 1453TIP3    H2 4324   5.683   2.080   1.039  0.1210  0.5690  1.7727
 1454TIP3   OH2 4325   4.071   5.346   2.341 -0.1721  0.6598  0.3071
 1454TIP3    H1 4326   4.151   5.294   2.352 -0.5645  0.2347  1.2673
 1454TIP3    H2 4327   4.064   5.395   2.423 -0.0942  1.8396 -0.3710
 1455TIP3   OH2 4328   6.084   5.659   1.710  0.2366  0.4487  0.0035
 1455TIP3    H1 4329   6.029   5.724   1.667 -1.8024 -1.3073 -0.1908
 1455TIP3    H2 4330   6.095   5.590   1.645  0.0397 -0.6590  1.1086
 1456TIP3   OH2 4331   0.988   4.864   3.047  0.0265  0.0940  0.0772
 1456TIP3    H1 4332   0.908   4.830   3.006 -0.0642  2.2951 -1.8120
 1456TIP3    H2 4333   0.963   4.885   3.136 -0.9157 -1.1506  0.1330
 1457TIP3   OH2 4334   4.917   2.229   3.036 -0.0203  0.2356  0.0656
 1457TIP3    H1 4335   4.868   2.232   3.117 -1.7621  1.7344 -0.9788
 1457TIP3    H2 4336   5.007   2.213   3.063 -0.9235 -2.0609  2.0889
 1458TIP3   OH2 4337   0.344   0.868   3.539  0.0475  0.2706 -0.1285
 1458TIP3    H1 4338   0.364   0.895   3.449 -0.7129 -0.1882 -0.4404
 1458TIP3    H2 4339   0.296   0.941   3.577 -0.1722  0.2122 -0.2957
 1459TIP3   OH2 4340   3.189   5.607   2.145  0.1699 -0.0481  0.3952
 1459TIP3    H1 4341   3.127   5.671   2.181 -0.3409 -1.0484  1.3737
 1459TIP3    H2 4342   3.179   5.615   2.050 -0.7457  0.4839  0.5184
 1460TIP3   OH2 4343   6.082   1.874   5.074  0.0185 -0.0448 -0.2992
 1460TIP3    H1 4344   6.131   1.814   5.131  0.5225  0.6654  0.0306
 1460TIP3    H2 4345   6.016   1.912   5.132  1.6309  1.9907  0.3085
 1461TIP3   OH2 4346   3.509   3.749   1.113 -0.2062  0.5860 -0.1279
 1461TIP3    H1 4347   3.489   3.662   1.078  1.7244 -0.0606  0.2859
 1461TIP3    H2 4348   3.515   3.736   1.208 -0.1346  1.2172 -0.0413
 1462TIP3   OH2 4349   5.897   4.114   3.342 -0.1414 -0.0504  0.4191
 1462TIP3    H1 4350   5.813   4.081   3.374  0.0726 -0.2194  0.8150
 1462TIP3    H2 4351   5.941   4.037   3.306 -0.4051  0.1506 -0.3475
 1463TIP3   OH2 4352   3.833   0.032   3.780  0.2568 -0.0326 -0.4241
 1463TIP3    H1 4353   3.814  -0.062   3.781  1.4861 -0.2911 -0.1466
 1463TIP3    H2 4354   3.816   0.060   3.870 -1.7262  0.3798 -0.8784
 1464TIP3   OH2 4355   2.552   0.101   1.324  0.2873 -0.1188 -0.4293
 1464TIP3    H1 4356   2.514   0.164   1.385 -0.6090  0.1120 -1.2023
 1464TIP3    H2 4357   2.495   0.105   1.247  0.2813 -1.7719 -0.5516
 1465TIP3   OH2 4358   3.505   1.098   5.063 -0.5177 -0.3139  0.5219
 1465TIP3    H1 4359   3.593   1.097   5.101 -0.0763  0.1771 -0.4533
 1465TIP3    H2 4360   3.448   1.067   5.133  0.4515 -0.7704  1.1238
 1466TIP3   OH2 4361   2.297   1.188   5.849 -0.0321  0.5236  0.4260
 1466TIP3    H1 4362   2.298   1.107   5.798  0.7369  0.7192  0.1103
 1466TIP3    H2 4363   2.204   1.207   5.862 -0.2260 -0.1288  0.0635
 1467TIP3   OH2 4364   0.035   6.048   5.042 -0.0394  0.0362  0.1121
 1467TIP3    H1 4365   0.051   5.970   5.095  0.6762  0.4334  0.5013
 1467TIP3    H2 4366   0.103   6.045   4.973  0.8319  0.9642  0.8915
 1468TIP3   OH2 4367   6.234   3.374   3.340 -0.4894 -0.0782 -0.3009
 1468TIP3    H1 4368   6.152   3.373   3.289 -0.2929  0.3229 -0.6311
 1468TIP3    H2 4369   6.205   3.372   3.431 -0.8443 -0.9439 -0.4161
 1469TIP3   OH2 4370   2.213   1.738   1.649  0.4338 -0.2477 -0.0208
 1469TIP3    H1 4371   2.212   1.758   1.555  0.4659 -0.6639 -0.1108
 1469TIP3    H2 4372   2.306   1.734   1.672  0.4249 -0.0235  0.0552
 1470TIP3   OH2 4373   1.981   4.786   4.578 -0.0804  0.5634  0.2823
 1470TIP3    H1 4374   2.054   4.744   4.532 -0.7593 -0.3807  0.0309
 1470TIP3    H2 4375   2.002   4.879   4.576  3.2487  0.1209  3.9103
 1471TIP3   OH2 4376   5.738   2.515   0.437 -0.6130 -0.5317 -0.0145
 1471TIP3    H1 4377   5.720   2.539   0.347  0.6880  4.0371  0.6784
 1471TIP3    H2 4378   5.833   2.505   0.441 -0.4432  1.2061  1.1464
 1472TIP3   OH2 4379   4.119   2.144   1.528  0.0573 -0.0516 -0.2044
 1472TIP3    H1 4380   4.034   2.117   1.561  0.1104 -0.0559 -0.0681
 1472TIP3    H2 4381   4.109   2.238   1.511 -0.0717 -0.1166 -0.5028
 1473TIP3   OH2 4382   5.466   4.898   0.411 -0.1056  0.6337 -0.1000
 1473TIP3    H1 4383   5.414   4.819   0.427  2.5320 -1.4539 -1.1058
 1473TIP3    H2 4384   5.459   4.912   0.316  2.0485 -0.4713 -0.4910
 1474TIP3   OH2 4385   0.631   2.379   5.359 -0.8122  0.9373 -0.2153
 1474TIP3    H1 4386   0.577   2.411   5.287  0.2808  1.1259 -0.9695
 1474TIP3    H2 4387   0.620   2.283   5.356 -1.7856  1.0190  0.2121
 1475TIP3   OH2 4388   6.298   4.542   3.173  0.2350  0.3809 -0.4474
 1475TIP3    H1 4389   6.270   4.450   3.181 -0.3103  0.6237  0.6311
 1475TIP3    H2 4390   6.333   4.563   3.259 -0.6736  1.5159 -0.3397
 1476TIP3   OH2 4391   1.207   6.395   0.722 -0.0982 -0.1977 -0.3867
 1476TIP3    H1 4392   1.269   6.335   0.681 -0.0203 -0.8038  0.5930
 1476TIP3    H2 4393   1.232   6.398   0.814 -1.3927 -0.3028  0.0009
 1477TIP3   OH2 4394   5.820   0.031   2.838  1.1369 -0.0512  0.3656
 1477TIP3    H1 4395   5.751   0.071   2.785  0.1423 -2.3172 -0.1957
 1477TIP3    H2 4396   5.901   0.055   2.793  0.7388  2.2773  0.7654
 1478TIP3   OH2 4397   2.175   3.401   1.206 -0.3365  0.0866  0.3540
 1478TIP3    H1 4398   2.152   3.318   1.248 -1.0618  0.1907  0.1575
 1478TIP3    H2 4399   2.207   3.376   1.119  0.5391 -0.0735  0.7078
 1479TIP3   OH2 4400   3.038   3.184   5.617  0.1359 -0.0760 -0.0345
 1479TIP3    H1 4401   3.108   3.121   5.633  1.3634  1.6419  1.8218
 1479TIP3    H2 4402   3.018   3.220   5.703 -0.9497  1.6113 -0.9352
 1480TIP3   OH2 4403   1.857   6.223   2.343  0.3371 -0.3430  0.1058
 1480TIP3    H1 4404   1.841   6.133   2.371 -1.4437  0.0965  0.6797
 1480TIP3    H2 4405   1.910   6.261   2.413 -0.4947 -0.4514  0.8193
 1481TIP3   OH2 4406   5.760   6.401   3.765 -0.3714  0.1604  0.1798
 1481TIP3    H1 4407   5.781   6.399   3.672  0.6770  0.8480  0.3915
 1481TIP3    H2 4408   5.779   6.312   3.795 -0.2697  0.0635 -0.1609
 1482TIP3   OH2 4409   5.256   0.575   3.501 -0.0960  0.4985 -0.8445
 1482TIP3    H1 4410   5.236   0.483   3.484  1.6268 -0.6206  2.3791
 1482TIP3    H2 4411   5.340   0.589   3.457  0.5019 -0.0300  0.1028
 1483TIP3   OH2 4412   2.807   6.787   0.126  0.2749  0.3436 -0.0610
 1483TIP3    H1 4413   2.802   6.747   0.039  0.1747 -0.8016  0.4553
 1483TIP3    H2 4414   2.717   6.813   0.145  0.5876  2.2905 -1.0475
 1484TIP3   OH2 4415   0.138   1.704   3.403 -0.0245  0.3356  0.4121
 1484TIP3    H1 4416   0.202   1.742   3.343 -0.6188 -0.5757 -0.8627
 1484TIP3    H2 4417   0.186   1.637   3.451  0.2126  0.3726  0.2277
 1485TIP3   OH2 4418   6.867   3.301   3.370 -0.7502  0.3673  0.3028
 1485TIP3    H1 4419   6.785   3.349   3.360  0.0100  1.1283 -3.7918
 1485TIP3    H2 4420   6.934   3.362   3.341  1.1023 -0.9613  1.5615
 1486TIP3   OH2 4421   5.817   4.895   4.955  0.2482 -0.1238  0.1850
 1486TIP3    H1 4422   5.770   4.978   4.952 -2.2619 -1.4435  0.0703
 1486TIP3    H2 4423   5.901   4.912   4.913 -0.1583  2.3569  0.2795
 1487TIP3   OH2 4424   6.563   1.653   0.456 -0.6664 -0.3447  0.1204
 1487TIP3    H1 4425   6.539   1.746   0.452  1.3483  0.2599  0.9436
 1487TIP3    H2 4426   6.483   1.609   0.486 -2.5650  0.6712 -2.9502
 1488TIP3   OH2 4427   5.217   1.200   1.958 -0.1148  0.1846 -0.8713
 1488TIP3    H1 4428   5.184   1.111   1.970  0.8177  0.1237  2.0598
 1488TIP3    H2 4429   5.294   1.189   1.901 -0.6920 -0.7013 -1.5044
 1489TIP3   OH2 4430   1.164   0.166   0.931  0.5187 -0.1317 -0.7429
 1489TIP3    H1 4431   1.133   0.076   0.926  0.4938 -0.2598  0.9756
 1489TIP3    H2 4432   1.091   0.219   0.899  0.2453 -0.6876 -1.0349
 1490TIP3   OH2 4433   2.414   2.927   4.259 -0.1499 -0.2091  0.4720
 1490TIP3    H1 4434   2.407   3.018   4.288 -3.3914 -0.0336 -0.5012
 1490TIP3    H2 4435   2.462   2.932   4.177  0.0201  0.5718  0.6111
 1491TIP3   OH2 4436   1.258   5.325   0.237 -0.0521 -0.1161 -0.2477
 1491TIP3    H1 4437   1.216   5.302   0.320 -0.7688  0.1567 -0.5267
 1491TIP3    H2 4438   1.271   5.420   0.242 -0.1764 -0.0850 -0.4773
 1492TIP3   OH2 4439   6.144   5.172   5.571 -0.0183 -0.7300 -0.1642
 1492TIP3    H1 4440   6.236   5.168   5.596 -0.6823  0.0696  2.8289
 1492TIP3    H2 4441   6.113   5.082   5.580  0.2172 -0.8097 -0.1337
 1493TIP3   OH2 4442   2.770   6.592   5.277  0.4500  0.2092  0.3635
 1493TIP3    H1 4443   2.696   6.632   5.231  0.3427 -0.5800 -0.1687
 1493TIP3    H2 4444   2.802   6.661   5.336 -1.3980  0.2451  1.4095
 1494TIP3   OH2 4445   4.808   3.260   0.127 -0.8340  0.5347 -0.2600
 1494TIP3    H1 4446   4.812   3.266   0.032  0.3003  0.9337 -0.2110
 1494TIP3    H2 4447   4.848   3.342   0.157 -2.1908  0.9232  0.5717
 1495TIP3   OH2 4448   4.867   0.629   4.015  0.1866 -0.4601  0.5714
 1495TIP3    H1 4449   4.927   0.702   4.000  0.8253 -1.0658  0.0714
 1495TIP3    H2 4450   4.816   0.624   3.934 -0.2003 -0.2507  0.8045
 1496TIP3   OH2 4451   5.756   5.734   4.745 -0.0169 -0.2569  0.0785
 1496TIP3    H1 4452   5.848   5.762   4.735  0.0684 -0.8069 -0.7982
 1496TIP3    H2 4453   5.708   5.815   4.756  0.3611  0.1961 -1.3471
 1497TIP3   OH2 4454   0.103   1.056   0.379 -0.4038 -0.3088 -0.3206
 1497TIP3    H1 4455   0.034   1.121   0.364  0.2167  0.4357  0.0497
 1497TIP3    H2 4456   0.103   1.004   0.299 -0.7809  0.2535 -0.6978
 1498TIP3   OH2 4457   3.558   4.853   1.765  0.1075 -0.0440  0.3910
 1498TIP3    H1 4458   3.501   4.785   1.799 -1.2554  1.5720  1.5463
 1498TIP3    H2 4459   3.544   4.851   1.671  0.3149 -1.5193  0.3757
 1499TIP3   OH2 4460   5.527   0.379   0.069 -0.0816  0.4184  0.1040
 1499TIP3    H1 4461   5.499   0.467   0.091 -1.6685  0.3005 -1.2625
 1499TIP3    H2 4462   5.472   0.322   0.123  0.7538  0.2262  0.7855
 1500TIP3   OH2 4463   6.510   3.553   0.736  0.1796 -0.2501 -0.1335
 1500TIP3    H1 4464   6.549   3.470   0.709 -1.1863 -0.6252 -1.0291
 1500TIP3    H2 4465   6.457   3.532   0.813 -0.0464 -0.1835 -0.2693
 1501TIP3   OH2 4466   2.496   5.518   1.856  0.3262 -0.7655 -0.0547
 1501TIP3    H1 4467   2.522   5.582   1.923  0.2465 -0.8805  0.0883
 1501TIP3    H2 4468   2.521   5.558   1.773 -0.0822 -0.3651  0.0064
 1502TIP3   OH2 4469   1.631   5.296   3.417  0.4969 -0.0492 -0.1405
 1502TIP3    H1 4470   1.723   5.275   3.433 -0.0836 -3.0033 -0.1275
 1502TIP3    H2 4471   1.629   5.329   3.327  1.4878 -0.8391 -0.4707
 1503TIP3   OH2 4472   5.494   3.658   4.980  0.3966  0.5756 -0.3891
 1503TIP3    H1 4473   5.416   3.714   4.971 -0.6068 -0.6897  0.1974
 1503TIP3    H2 4474   5.557   3.713   5.027 -1.0186  0.8168  1.3472
 1504TIP3   OH2 4475   1.029   1.348   4.850 -0.1721  0.5598  0.0889
 1504TIP3    H1 4476   1.090   1.355   4.924  1.9621 -0.1516 -1.4904
 1504TIP3    H2 4477   1.001   1.256   4.851 -0.8403  0.7661  0.5239
 1505TIP3   OH2 4478   4.589   4.177   2.814  0.0520 -0.2346  0.4091
 1505TIP3    H1 4479   4.516   4.204   2.758 -0.6757  0.4181  1.6358
 1505TIP3    H2 4480   4.665   4.223   2.778 -0.2082 -0.5757 -0.6111
 1506TIP3   OH2 4481   4.042   4.267   3.763 -0.0476  0.5073 -0.0319
 1506TIP3    H1 4482   4.119   4.211   3.760 -0.9107 -0.8367  1.2634
 1506TIP3    H2 4483   4.044   4.306   3.850 -0.2945  1.2437 -0.3523
 1507TIP3   OH2 4484   6.791   0.592   5.252  0.8804  0.2842 -0.3219
 1507TIP3    H1 4485   6.851   0.654   5.210  1.5121 -1.0145 -1.4045
 1507TIP3    H2 4486   6.844   0.550   5.320  0.5254  0.7230  0.2378
 1508TIP3   OH2 4487   7.138   2.625   0.052 -0.3096  0.8709  0.1349
 1508TIP3    H1 4488   7.069   2.663  -0.003 -0.5617 -0.3221 -0.4165
 1508TIP3    H2 4489   7.219   2.644   0.005 -0.5862 -0.8571 -1.1568
 1509TIP3   OH2 4490   2.738   6.518   5.891 -0.0174  0.2094 -0.1559
 1509TIP3    H1 4491   2.685   6.475   5.958  0.4922  0.5189  0.4462
 1509TIP3    H2 4492   2.704   6.483   5.808  0.4550 -1.4220  0.3163
 1510TIP3   OH2 4493   2.401   1.761   1.966  0.2388  0.6408  0.0462
 1510TIP3    H1 4494   2.463   1.830   1.942 -0.4493  1.4161  0.4723
 1510TIP3    H2 4495   2.315   1.803   1.963 -0.3306 -0.5210 -0.9302
 1511TIP3   OH2 4496   2.823  -0.007   2.013  0.1784  0.3707  0.3624
 1511TIP3    H1 4497   2.841  -0.064   1.938  0.6683 -0.4308  1.0760
 1511TIP3    H2 4498   2.822   0.082   1.975  0.0460 -0.0459 -0.6495
 1512TIP3   OH2 4499   0.354   0.277   1.468 -0.3192  0.2753 -0.2430
 1512TIP3    H1 4500   0.313   0.328   1.398  0.5110  2.1168  0.5510
 1512TIP3    H2 4501   0.307   0.302   1.547 -1.6039 -2.1942 -0.1431
 1513TIP3   OH2 4502   3.932   3.842   3.106 -0.1427 -0.2894 -0.1594
 1513TIP3    H1 4503   3.890   3.759   3.130  0.6079 -1.0375 -1.3371
 1513TIP3    H2 4504   4.023   3.833   3.135  0.2809 -0.4345 -1.4782
 1514TIP3   OH2 4505   0.461   0.108   2.063 -0.1429 -0.0789  0.1618
 1514TIP3    H1 4506   0.494   0.050   1.994  1.0166  1.4679 -0.6540
 1514TIP3    H2 4507   0.537   0.124   2.120  0.3237  2.5197 -1.0245
 1515TIP3   OH2 4508   5.142   4.276   1.736  0.3743 -0.0895 -0.3569
 1515TIP3    H1 4509   5.104   4.222   1.666  1.2175 -1.5243  0.2408
 1515TIP3    H2 4510   5.209   4.329   1.692  0.0845 -0.1144 -0.8337
 1516TIP3   OH2 4511   3.625   1.864   0.835 -0.1343  0.7053  0.0366
 1516TIP3    H1 4512   3.577   1.858   0.752  0.1966 -1.1108 -0.0632
 1516TIP3    H2 4513   3.713   1.834   0.814  0.4441  1.8287  0.7239
 1517TIP3   OH2 4514   5.830   5.601   3.128  0.4035  0.5697  0.3741
 1517TIP3    H1 4515   5.738   5.598   3.155  0.3246  1.7106  0.3103
 1517TIP3    H2 4516   5.878   5.559   3.200 -0.1324  0.2897  0.5737
 1518TIP3   OH2 4517   1.331   2.358   3.464 -0.3654  0.3039 -0.0552
 1518TIP3    H1 4518   1.356   2.352   3.372 -1.8696 -2.7850 -0.3814
 1518TIP3    H2 4519   1.414   2.372   3.511  1.1144 -2.5056 -1.5821
 1519TIP3   OH2 4520   4.324   3.234   0.309  0.6095 -0.3298  0.3533
 1519TIP3    H1 4521   4.384   3.307   0.323  1.1287 -0.8049  0.6596
 1519TIP3    H2 4522   4.304   3.203   0.398  0.4149 -0.5798  0.2216
 1520TIP3   OH2 4523   5.924   4.440   3.155 -0.3637  0.0985  0.2731
 1520TIP3    H1 4524   5.950   4.506   3.091 -0.6403  0.5376  0.6052
 1520TIP3    H2 4525   5.970   4.360   3.128 -0.3086  0.3351 -0.3383
 1521TIP3   OH2 4526   2.629   4.171   4.184  0.3805 -0.0117  0.0425
 1521TIP3    H1 4527   2.716   4.160   4.223  0.9960 -2.2040 -1.7257
 1521TIP3    H2 4528   2.621   4.265   4.169  1.7741  0.4191  1.6236
 1522TIP3   OH2 4529   2.006   0.619   1.129 -0.5322  0.2568 -0.8116
 1522TIP3    H1 4530   2.085   0.646   1.081 -0.2622 -1.5163 -1.4356
 1522TIP3    H2 4531   1.983   0.696   1.182  0.9610  1.1958 -1.4522
 1523TIP3   OH2 4532   6.225   2.633   2.147 -0.4544 -0.0566  0.3879
 1523TIP3    H1 4533   6.284   2.599   2.214 -1.4304 -0.0649  1.2592
 1523TIP3    H2 4534   6.261   2.719   2.124 -1.9777  1.5518  3.4639
 1524TIP3   OH2 4535   6.263   2.579   0.565  0.2984 -0.0580  0.4140
 1524TIP3    H1 4536   6.294   2.580   0.655  2.4554  1.9640 -0.2409
 1524TIP3    H2 4537   6.255   2.671   0.541  2.0916 -0.4574 -2.1521
 1525TIP3   OH2 4538   4.393   5.889   3.772  0.2850 -0.6810  0.1622
 1525TIP3    H1 4539   4.354   5.935   3.846 -2.1703 -1.1049 -0.7747
 1525TIP3    H2 4540   4.321   5.876   3.711  1.2747 -4.0141 -0.5080
 1526TIP3   OH2 4541   3.314   4.229   4.682  0.0961 -0.2377 -0.3126
 1526TIP3    H1 4542   3.407   4.215   4.662  0.2831 -2.2340  1.5718
 1526TIP3    H2 4543   3.286   4.147   4.723 -2.5563  0.2810 -0.9466
 1527TIP3   OH2 4544   3.592   3.340   4.352  0.8661  0.3485 -0.4696
 1527TIP3    H1 4545   3.652   3.280   4.308 -0.2846 -0.5496 -0.8512
 1527TIP3    H2 4546   3.636   3.426   4.346  1.3027  0.0413 -2.2809
 1528TIP3   OH2 4547   3.310   4.769   5.348 -0.7054  0.7158  0.2662
 1528TIP3    H1 4548   3.222   4.800   5.324  0.0578  2.0717 -0.8964
 1528TIP3    H2 4549   3.296   4.678   5.376 -2.3145  0.5286 -0.9944
 1529TIP3   OH2 4550   3.469   2.577   4.996 -0.1363  0.2249  0.3128
 1529TIP3    H1 4551   3.544   2.636   5.002  0.2562 -0.3273  0.9479
 1529TIP3    H2 4552   3.428   2.599   4.912  0.3876  0.9381  0.2369
 1530TIP3   OH2 4553   0.120   1.935   4.290  0.1658  0.2007 -0.6171
 1530TIP3    H1 4554   0.194   1.900   4.339 -0.0248 -0.9389 -1.1036
 1530TIP3    H2 4555   0.072   1.989   4.353  1.1662  0.6088 -0.1892
 1531TIP3   OH2 4556   1.170   2.789   3.566 -0.6529  0.2497 -0.3848
 1531TIP3    H1 4557   1.235   2.806   3.634 -1.4832 -0.7278  0.6999
 1531TIP3    H2 4558   1.096   2.846   3.587 -1.1128 -0.4170 -0.1600
 1532TIP3   OH2 4559   6.356   2.316   1.783  0.1162  0.1835  0.3769
 1532TIP3    H1 4560   6.349   2.250   1.715 -0.7690 -0.4658  1.0810
 1532TIP3    H2 4561   6.437   2.364   1.762  0.7814 -1.1189 -0.1283
 1533TIP3   OH2 4562   3.645   4.627   2.652  0.4696  0.4618 -0.0951
 1533TIP3    H1 4563   3.671   4.570   2.725  0.0951  0.5763  0.1248
 1533TIP3    H2 4564   3.555   4.652   2.671 -0.5599 -1.5687 -1.8709
 1534TIP3   OH2 4565   6.132   0.692   1.204 -0.0602  0.3075 -0.3711
 1534TIP3    H1 4566   6.134   0.774   1.252 -0.2896  0.8079 -1.1933
 1534TIP3    H2 4567   6.213   0.648   1.229  3.0100  3.1880 -3.9517
 1535TIP3   OH2 4568   6.715   3.570   3.607  0.0766 -0.5382 -0.0978
 1535TIP3    H1 4569   6.804   3.594   3.581  0.5776 -1.0330  1.0635
 1535TIP3    H2 4570   6.669   3.654   3.616  1.1251 -0.0855  1.6113
 1536TIP3   OH2 4571   5.436   1.888   0.202 -0.7633  0.0375 -0.9698
 1536TIP3    H1 4572   5.527   1.879   0.230 -0.9232 -0.3316 -0.5609
 1536TIP3    H2 4573   5.387   1.899   0.284 -1.1734 -0.5292 -1.1366
 1537TIP3   OH2 4574   4.030   3.088   5.509  1.3118  0.1024  0.4957
 1537TIP3    H1 4575   4.101   3.059   5.451  1.2758 -0.4669  0.7238
 1537TIP3    H2 4576   4.000   3.007   5.551 -0.1825  0.1823 -0.3645
 1538TIP3   OH2 4577   6.815   4.402   5.901 -0.2552  0.6232  0.2907
 1538TIP3    H1 4578   6.820   4.440   5.813  0.0220 -2.8424 -1.3590
 1538TIP3    H2 4579   6.904   4.373   5.920 -0.9702 -2.0437 -0.0365
 1539TIP3   OH2 4580   0.945   0.852   2.085 -0.4249 -0.2536 -0.0016
 1539TIP3    H1 4581   1.038   0.864   2.067 -0.6316 -0.0452 -0.9727
 1539TIP3    H2 4582   0.928   0.760   2.062 -0.0668 -0.8596  1.9931
 1540TIP3   OH2 4583   0.275   5.845   3.961 -0.1933 -0.0261  0.3293
 1540TIP3    H1 4584   0.268   5.939   3.979  3.2573  0.8715 -2.0596
 1540TIP3    H2 4585   0.356   5.818   4.004 -1.8858 -2.4014  2.2856
 1541TIP3   OH2 4586   1.361   3.077   1.660 -0.1268 -0.0659 -0.2079
 1541TIP3    H1 4587   1.268   3.067   1.641 -0.0490 -0.4262 -0.4106
 1541TIP3    H2 4588   1.395   2.987   1.661 -0.0179 -0.0344  1.0575
 1542TIP3   OH2 4589   2.741   2.960   0.150 -0.4757  0.3085  0.0269
 1542TIP3    H1 4590   2.700   3.015   0.216 -0.5363  2.5127 -1.7484
 1542TIP3    H2 4591   2.777   3.021   0.087  0.4625 -1.6974 -1.4787
 1543TIP3   OH2 4592   5.353   6.612   1.535 -0.7135 -0.5091 -0.3566
 1543TIP3    H1 4593   5.382   6.548   1.469 -0.1847  0.7906 -1.4316
 1543TIP3    H2 4594   5.302   6.676   1.485 -2.0224 -0.5550  0.8585
 1544TIP3   OH2 4595   2.328   6.226   5.364  0.2514 -0.3450 -0.3407
 1544TIP3    H1 4596   2.410   6.181   5.386 -1.4066 -3.3962  0.1056
 1544TIP3    H2 4597   2.318   6.212   5.270  0.2859  0.1578 -0.4234
 1545TIP3   OH2 4598   1.129   0.232   3.878  0.4299 -0.4693  0.4899
 1545TIP3    H1 4599   1.171   0.162   3.927  0.1332 -0.1065  1.2814
 1545TIP3    H2 4600   1.200   0.275   3.831  0.7735 -0.5870  0.9010
 1546TIP3   OH2 4601   6.019   2.857   2.200 -0.3797 -0.3340 -0.0941
 1546TIP3    H1 4602   5.952   2.794   2.174 -0.0464 -0.8739  0.3191
 1546TIP3    H2 4603   5.983   2.942   2.177 -0.8245 -0.6817 -0.6900
 1547TIP3   OH2 4604   4.528   1.239   1.946  0.0682  0.1426 -0.3748
 1547TIP3    H1 4605   4.511   1.170   2.009  0.3191  0.4846  0.0764
 1547TIP3    H2 4606   4.623   1.239   1.934 -0.1399 -1.8130 -2.9473
 1548TIP3   OH2 4607   1.080   1.344   0.317  0.3816 -0.0057  1.0285
 1548TIP3    H1 4608   0.992   1.308   0.312  0.7851 -0.8880 -0.6275
 1548TIP3    H2 4609   1.136   1.274   0.283  1.6068  0.9124  1.0973
 1549TIP3   OH2 4610   4.241   5.230   4.501  0.5206  0.1438  0.7997
 1549TIP3    H1 4611   4.184   5.160   4.470  1.8117 -0.4542 -0.3478
 1549TIP3    H2 4612   4.238   5.295   4.431  0.5026  0.5375  1.1691
 1550TIP3   OH2 4613   1.566   0.860   2.441  0.4115 -0.0417  0.0539
 1550TIP3    H1 4614   1.562   0.948   2.405  0.6739 -0.3770 -0.8472
 1550TIP3    H2 4615   1.505   0.809   2.387  1.9080 -0.8792 -0.9498
 1551TIP3   OH2 4616   1.405   5.054   1.799  0.3074  0.1921  0.6175
 1551TIP3    H1 4617   1.379   5.064   1.890  0.2734  1.5307  0.4748
 1551TIP3    H2 4618   1.326   5.018   1.756 -0.0672  0.6797  0.8900
 1552TIP3   OH2 4619   7.120   3.107   3.209 -0.0568 -0.5705 -0.4139
 1552TIP3    H1 4620   7.047   3.047   3.227  0.9108 -1.4830  0.5431
 1552TIP3    H2 4621   7.140   3.147   3.293  1.2754 -1.1633 -0.4375
 1553TIP3   OH2 4622   0.506   6.566   0.492 -0.5809 -0.4734  0.3242
 1553TIP3    H1 4623   0.462   6.608   0.566  0.0875 -0.5508  0.7756
 1553TIP3    H2 4624   0.435   6.528   0.440 -1.1629  0.6576  0.2446
 1554TIP3   OH2 4625   3.361   4.486   2.557 -0.1170 -0.4375  0.0964
 1554TIP3    H1 4626   3.353   4.476   2.462  1.8116  1.1785 -0.3091
 1554TIP3    H2 4627   3.426   4.420   2.582  1.8805  1.2561 -0.3146
 1555TIP3   OH2 4628   0.194   3.795   4.592  0.1049  0.0779  0.1622
 1555TIP3    H1 4629   0.248   3.722   4.564 -1.2523 -0.5586 -0.9255
 1555TIP3    H2 4630   0.114   3.754   4.627  0.0417  0.9961  1.1641
 1556TIP3   OH2 4631   0.018   5.590   0.581 -1.0111 -0.8057 -0.0930
 1556TIP3    H1 4632   0.098   5.610   0.532 -2.6168 -1.0564 -2.9915
 1556TIP3    H2 4633   0.034   5.502   0.617 -0.0097 -0.8885 -0.7042
 1557TIP3   OH2 4634   2.448   1.120   0.675 -0.3588 -0.4243 -0.4462
 1557TIP3    H1 4635   2.397   1.047   0.639  0.9153 -1.6745  0.1975
 1557TIP3    H2 4636   2.476   1.170   0.598 -0.5380 -1.1055 -0.9624
 1558TIP3   OH2 4637   3.549   6.006   2.271  0.0482  0.3100 -0.3765
 1558TIP3    H1 4638   3.513   6.004   2.360 -0.7663  0.6297 -0.6875
 1558TIP3    H2 4639   3.642   5.985   2.282 -0.3772 -1.3964  0.3689
 1559TIP3   OH2 4640   3.993   3.225   0.396  0.0565  0.2751  0.6750
 1559TIP3    H1 4641   4.039   3.302   0.431  1.0359 -0.3973  0.9093
 1559TIP3    H2 4642   3.921   3.210   0.457 -0.7838  1.6130  0.0576
 1560TIP3   OH2 4643   4.460   5.008   3.623  0.6413 -0.1905 -0.4467
 1560TIP3    H1 4644   4.523   4.950   3.582  0.3400 -0.8826  0.0490
 1560TIP3    H2 4645   4.386   4.952   3.646 -0.4255  0.7069 -1.5500
 1561TIP3   OH2 4646   7.018   1.236   1.610 -0.6856 -0.0773  0.2909
 1561TIP3    H1 4647   7.052   1.325   1.622 -0.5918 -0.2925  1.7724
 1561TIP3    H2 4648   6.924   1.244   1.627 -0.3852 -0.5844  2.5348
 1562TIP3   OH2 4649   3.957   0.184   2.861 -0.8539 -0.0653 -0.9327
 1562TIP3    H1 4650   3.885   0.160   2.803 -0.8993  0.0654 -0.9317
 1562TIP3    H2 4651   4.035   0.149   2.819 -0.7753  0.8061 -1.5302
 1563TIP3   OH2 4652   0.348   1.079   0.471  0.7700  0.4715 -0.1988
 1563TIP3    H1 4653   0.374   0.987   0.474  2.0048  0.8268  1.6159
 1563TIP3    H2 4654   0.261   1.078   0.430  1.4622 -1.2874 -1.7757
 1564TIP3   OH2 4655   6.887   6.486   5.302 -0.1701 -0.3498 -0.5834
 1564TIP3    H1 4656   6.941   6.515   5.376  0.7855 -1.0731 -0.9866
 1564TIP3    H2 4657   6.949   6.454   5.237 -1.1009 -1.6190 -0.8810
 1565TIP3   OH2 4658   4.318   6.568   3.757 -0.0570  0.3561 -0.0369
 1565TIP3    H1 4659   4.386   6.635   3.747  0.7134 -0.2666  0.8404
 1565TIP3    H2 4660   4.262   6.602   3.827  0.3302  0.1122  0.4035
 1566TIP3   OH2 4661   3.051   3.285   4.356 -0.1177 -0.6400  0.5778
 1566TIP3    H1 4662   3.068   3.194   4.381 -0.2573 -0.6262  0.7260
 1566TIP3    H2 4663   3.138   3.325   4.353 -0.1239 -0.5530  1.4020
 1567TIP3   OH2 4664   5.437   4.305   2.043  0.0323  0.4084  0.4017
 1567TIP3    H1 4665   5.479   4.241   2.101  0.5116  0.5368  0.1963
 1567TIP3    H2 4666   5.428   4.384   2.096  1.1155  0.7545  0.0984
 1568TIP3   OH2 4667   6.563   5.914   4.171  0.2883  0.1048  0.1231
 1568TIP3    H1 4668   6.475   5.913   4.133 -0.1315  1.4673  0.9983
 1568TIP3    H2 4669   6.620   5.890   4.098 -0.6348  1.1431 -0.9835
 1569TIP3   OH2 4670   1.313   5.430   2.923 -0.2531  0.0651  0.1293
 1569TIP3    H1 4671   1.319   5.433   3.018  1.1298  2.3677  0.0509
 1569TIP3    H2 4672   1.382   5.490   2.893 -1.3898  0.2751 -2.2913
 1570TIP3   OH2 4673   6.405   2.776   5.252 -0.2518  0.0426 -0.4984
 1570TIP3    H1 4674   6.393   2.849   5.313 -0.7573 -0.1792 -0.3338
 1570TIP3    H2 4675   6.453   2.710   5.302 -0.0047  0.1600 -0.5754
 1571TIP3   OH2 4676   2.234   1.677   1.056  0.4648  0.4990  0.2003
 1571TIP3    H1 4677   2.326   1.687   1.080  0.9080  0.8557 -1.4622
 1571TIP3    H2 4678   2.235   1.671   0.960 -1.3259  1.4029  0.0832
 1572TIP3   OH2 4679   0.694   5.898   3.671  0.0878 -0.0876  0.3011
 1572TIP3    H1 4680   0.706   5.811   3.632 -0.9308 -0.4261  0.6875
 1572TIP3    H2 4681   0.623   5.885   3.735 -1.5642  1.4827 -1.1214
 1573TIP3   OH2 4682   4.021   3.598   5.369 -0.5935 -0.0186  0.1605
 1573TIP3    H1 4683   3.942   3.650   5.354 -0.9082  0.3592  2.6765
 1573TIP3    H2 4684   3.988   3.513   5.400 -0.0110 -0.1107  0.5292
 1574TIP3   OH2 4685   1.573   1.541   4.474  0.3755 -0.1617  0.2520
 1574TIP3    H1 4686   1.651   1.576   4.430  0.8486 -2.4791 -0.9278
 1574TIP3    H2 4687   1.607   1.473   4.532 -0.7543 -1.2623 -0.3301
 1575TIP3   OH2 4688   3.328   4.553   4.260 -0.1128 -0.4139 -0.2862
 1575TIP3    H1 4689   3.305   4.461   4.252  1.2134 -0.9106  1.1832
 1575TIP3    H2 4690   3.263   4.589   4.320  1.5079 -1.3205  2.1546
 1576TIP3   OH2 4691   4.417   0.624   3.958  0.5989  0.0372  0.0623
 1576TIP3    H1 4692   4.342   0.584   3.914  0.9363  1.0481 -1.5180
 1576TIP3    H2 4693   4.379   0.684   4.022  0.0607  0.1638 -0.3678
 1577TIP3   OH2 4694   3.324   0.377   5.739  0.3659 -0.6328  0.4277
 1577TIP3    H1 4695   3.236   0.341   5.735  0.4946 -0.8484 -0.8195
 1577TIP3    H2 4696   3.320   0.456   5.684  0.5048  0.3634  1.8063
 1578TIP3   OH2 4697   3.242   2.472   0.057 -0.1175 -0.2628 -0.4212
 1578TIP3    H1 4698   3.187   2.505  -0.015 -1.8195  1.1931  1.4158
 1578TIP3    H2 4699   3.282   2.551   0.094  0.9207 -1.0155  0.0881
 1579TIP3   OH2 4700   4.070   1.654   1.947 -0.6466 -0.1410 -0.2417
 1579TIP3    H1 4701   4.140   1.645   2.011 -1.7014 -1.1178  0.8092
 1579TIP3    H2 4702   4.063   1.749   1.932  0.3732  0.0131  0.2067
 1580TIP3   OH2 4703   1.583   0.629   2.940  0.2701  0.3924 -0.2275
 1580TIP3    H1 4704   1.490   0.615   2.922 -0.7223  2.8923  2.2550
 1580TIP3    H2 4705   1.594   0.597   3.029  1.8790 -0.0694 -0.5735
 1581TIP3   OH2 4706   5.063   3.137   2.064 -0.1210 -0.4725 -0.2568
 1581TIP3    H1 4707   5.007   3.194   2.117  0.1803  0.4503 -0.8970
 1581TIP3    H2 4708   5.116   3.198   2.012  1.2674 -1.3217  0.1190
 1582TIP3   OH2 4709   1.048   3.569   1.524 -0.0017  0.5564 -0.1088
 1582TIP3    H1 4710   1.046   3.582   1.429 -0.3927 -2.4332 -0.6303
 1582TIP3    H2 4711   1.139   3.543   1.542  0.1206  1.3114  0.3757
 1583TIP3   OH2 4712   0.630   6.155   5.707  0.0136  0.0811  0.2617
 1583TIP3    H1 4713   0.606   6.220   5.641 -0.6926 -0.9746 -0.5720
 1583TIP3    H2 4714   0.644   6.205   5.787  1.4164  1.4733 -0.7805
 1584TIP3   OH2 4715   1.082   2.870   1.071 -0.2917 -0.3054 -0.1879
 1584TIP3    H1 4716   1.002   2.848   1.118 -0.1911 -1.9166 -0.7113
 1584TIP3    H2 4717   1.053   2.900   0.985 -0.3725 -0.0202 -0.0597
 1585TIP3   OH2 4718   5.692   6.416   5.737 -0.0451  0.0831 -0.1097
 1585TIP3    H1 4719   5.745   6.496   5.749  1.9188 -1.0742 -0.5740
 1585TIP3    H2 4720   5.610   6.434   5.782  0.4841  2.2273  0.1056
 1586TIP3   OH2 4721   4.860   1.880   3.797 -0.1825 -0.2879  0.3874
 1586TIP3    H1 4722   4.798   1.903   3.866 -0.0004  0.0645  0.4384
 1586TIP3    H2 4723   4.813   1.898   3.716  0.3262  1.3729  0.4140
 1587TIP3   OH2 4724   6.250   2.433   3.585 -0.2385  0.1307 -0.0893
 1587TIP3    H1 4725   6.210   2.480   3.512  1.2393 -1.4573 -2.0388
 1587TIP3    H2 4726   6.176   2.402   3.637 -1.2772  2.9474  0.2671
 1588TIP3   OH2 4727   6.906   3.436   2.715 -0.1572 -0.0474 -0.4113
 1588TIP3    H1 4728   6.989   3.407   2.678  0.7375  2.6003 -0.7430
 1588TIP3    H2 4729   6.843   3.430   2.643  0.7755  1.8494 -1.4445
 1589TIP3   OH2 4730   0.767   4.857   5.174  0.0426  0.3671 -0.0445
 1589TIP3    H1 4731   0.673   4.870   5.177 -0.0393  1.3590 -3.1279
 1589TIP3    H2 4732   0.778   4.766   5.148  0.0129 -0.1507  1.6821
 1590TIP3   OH2 4733   4.118   2.470   2.529 -0.0933 -0.4100  0.2611
 1590TIP3    H1 4734   4.064   2.543   2.557 -0.0349 -0.4222  0.4110
 1590TIP3    H2 4735   4.157   2.498   2.446 -1.4022 -0.9409 -0.5543
 1591TIP3   OH2 4736   0.209   2.396   3.781 -0.5273  0.3396  0.4807
 1591TIP3    H1 4737   0.213   2.460   3.710 -0.2359 -0.7958 -0.5534
 1591TIP3    H2 4738   0.247   2.442   3.856 -1.0341  1.6350 -0.0116
 1592TIP3   OH2 4739   1.538   2.588   0.812 -0.1522  0.3076  0.1504
 1592TIP3    H1 4740   1.521   2.500   0.843 -0.4041  0.0811 -0.6016
 1592TIP3    H2 4741   1.496   2.645   0.876  0.1291 -0.1050  0.7123
 1593TIP3   OH2 4742   4.795   6.485   4.881  0.0846  0.8063 -0.0301
 1593TIP3    H1 4743   4.802   6.404   4.932 -2.5824  1.6690  1.9032
 1593TIP3    H2 4744   4.885   6.517   4.876  1.0487 -1.6380  0.1600
 1594TIP3   OH2 4745   2.821   4.473   3.125 -0.3211  0.3152  0.1427
 1594TIP3    H1 4746   2.866   4.504   3.047 -1.5876  0.5857 -0.5012
 1594TIP3    H2 4747   2.775   4.550   3.159 -0.3103  0.0458  0.7827
 1595TIP3   OH2 4748   5.376   4.428   0.651  0.0464 -0.2318  0.2636
 1595TIP3    H1 4749   5.380   4.399   0.560  0.5953  0.4069  0.0808
 1595TIP3    H2 4750   5.432   4.366   0.699 -0.5957 -0.8373  0.2473
 1596TIP3   OH2 4751   6.858   5.742   4.545 -0.6513  0.4660 -0.1813
 1596TIP3    H1 4752   6.828   5.697   4.623 -0.1354  1.3604  0.5489
 1596TIP3    H2 4753   6.798   5.712   4.476 -0.9294 -0.5531  0.4768
 1597TIP3   OH2 4754   2.111   1.491   5.815 -0.6036  0.2583 -0.5025
 1597TIP3    H1 4755   2.094   1.408   5.860  2.7141  0.9367  2.4142
 1597TIP3    H2 4756   2.068   1.556   5.871  0.0620  0.8021 -0.6271
 1598TIP3   OH2 4757   4.137   4.304   1.159  0.3374  0.6082 -0.0227
 1598TIP3    H1 4758   4.108   4.392   1.133 -1.7044 -0.7183 -2.7602
 1598TIP3    H2 4759   4.198   4.277   1.091 -0.3773 -0.7109 -0.1768
 1599TIP3   OH2 4760   6.877   2.258   4.122  0.7182 -0.4944 -0.1594
 1599TIP3    H1 4761   6.795   2.234   4.079  0.2895  2.4359 -1.2085
 1599TIP3    H2 4762   6.938   2.188   4.098 -1.1141 -2.0755 -0.4236
 1600TIP3   OH2 4763   0.574   6.657   3.067 -0.0970  0.2482 -0.2550
 1600TIP3    H1 4764   0.562   6.740   3.112  1.8484  0.0346  0.7576
 1600TIP3    H2 4765   0.499   6.603   3.094 -0.4723  1.0965  0.4178
 1601TIP3   OH2 4766   0.417   2.908   5.062 -0.1309 -0.1033 -0.7079
 1601TIP3    H1 4767   0.448   2.877   5.146 -1.6292  0.3618  0.0550
 1601TIP3    H2 4768   0.455   2.995   5.052  1.1130 -0.6735 -1.1559
 1602TIP3   OH2 4769   2.420   2.244   2.375 -0.6315 -0.0283  0.9508
 1602TIP3    H1 4770   2.442   2.291   2.295 -3.3196  0.7255  0.5593
 1602TIP3    H2 4771   2.505   2.219   2.412  0.7244 -0.0508 -1.8770
 1603TIP3   OH2 4772   4.625   3.831   1.481 -0.0303  0.1751 -0.1550
 1603TIP3    H1 4773   4.599   3.745   1.448 -0.2186  0.4666 -0.8000
 1603TIP3    H2 4774   4.543   3.879   1.489  0.0977  0.3774 -0.0422
 1604TIP3   OH2 4775   5.019   3.857   1.192 -0.3859 -0.1063  0.1965
 1604TIP3    H1 4776   5.010   3.783   1.133  1.5847 -1.0139  0.9489
 1604TIP3    H2 4777   4.987   3.825   1.276  1.9522 -0.7438  0.9314
 1605TIP3   OH2 4778   2.319   5.236   0.566 -0.1252  0.4362 -0.1441
 1605TIP3    H1 4779   2.405   5.236   0.609 -0.5948 -2.5332  1.0226
 1605TIP3    H2 4780   2.256   5.229   0.637 -1.1954 -0.0651 -1.1022
 1606TIP3   OH2 4781   2.900   0.861   0.943  0.0521 -0.7090 -0.1143
 1606TIP3    H1 4782   2.899   0.767   0.959  2.0298 -0.3608  2.8706
 1606TIP3    H2 4783   2.961   0.873   0.870  0.6144 -1.6727  0.1872
 1607TIP3   OH2 4784   6.689   4.632   5.563 -0.1104 -0.2239  0.1812
 1607TIP3    H1 4785   6.778   4.609   5.588 -0.0601 -0.0702  0.1466
 1607TIP3    H2 4786   6.635   4.607   5.638  0.1090  0.7723  0.6960
 1608TIP3   OH2 4787   2.809   6.521   3.011 -0.2845 -0.3617 -0.2099
 1608TIP3    H1 4788   2.798   6.458   3.082  1.2422  0.0011  0.3818
 1608TIP3    H2 4789   2.782   6.473   2.932 -0.4870 -1.2883  0.4044
 1609TIP3   OH2 4790   4.264   1.818   0.240  0.7536  0.5131  0.3480
 1609TIP3    H1 4791   4.239   1.813   0.332 -0.6046  1.4452  0.0540
 1609TIP3    H2 4792   4.278   1.727   0.214  1.0366  0.2273  1.4273
 1610TIP3   OH2 4793   2.378   5.120   1.706  0.6302  0.2080 -0.2315
 1610TIP3    H1 4794   2.458   5.172   1.706 -0.3956  1.8378 -0.1987
 1610TIP3    H2 4795   2.323   5.159   1.774  1.3299 -3.4354  2.7194
 1611TIP3   OH2 4796   4.472   1.096   0.698  0.1121  0.3652  0.3363
 1611TIP3    H1 4797   4.556   1.130   0.668  1.5671 -2.0486  1.4043
 1611TIP3    H2 4798   4.449   1.028   0.634 -0.8030  0.6697  0.3231
 1612TIP3   OH2 4799   3.650   5.708   2.225 -0.2857  0.0455 -0.1424
 1612TIP3    H1 4800   3.726   5.760   2.253  0.0699 -1.0459  0.9968
 1612TIP3    H2 4801   3.574   5.762   2.248  0.1062  0.9089 -0.7981
 1613TIP3   OH2 4802   0.716   2.321   3.143  0.2997 -0.2049  0.2481
 1613TIP3    H1 4803   0.795   2.294   3.096 -0.6031  0.3091 -1.7049
 1613TIP3    H2 4804   0.691   2.404   3.102 -0.2599  0.5697  2.0710
 1614TIP3   OH2 4805   0.713   0.304   1.972  0.3572  0.3527  0.0615
 1614TIP3    H1 4806   0.748   0.238   1.913  1.6005  0.8565  0.1847
 1614TIP3    H2 4807   0.789   0.330   2.026 -0.2312  1.4594  0.3894
 1615TIP3   OH2 4808   3.500   5.642   0.179 -0.4550 -0.2526  0.6537
 1615TIP3    H1 4809   3.476   5.620   0.089  1.0570 -1.1429  0.4421
 1615TIP3    H2 4810   3.443   5.587   0.233 -0.4830 -0.6644  0.2120
 1616TIP3   OH2 4811   3.786   1.056   2.845  0.0819 -0.2621  0.0454
 1616TIP3    H1 4812   3.878   1.041   2.867 -0.2982 -2.6996  0.1445
 1616TIP3    H2 4813   3.737   1.020   2.918 -0.9884 -0.9890 -0.9833
 1617TIP3   OH2 4814   3.852   3.560   0.608 -0.1232  0.3487 -0.3528
 1617TIP3    H1 4815   3.809   3.602   0.682 -2.0575  0.5865 -1.5339
 1617TIP3    H2 4816   3.858   3.630   0.542  0.9693 -0.0233 -0.6674
 1618TIP3   OH2 4817   6.621   1.258   5.110  0.4653 -0.1293  0.1235
 1618TIP3    H1 4818   6.602   1.333   5.052  2.9951 -0.9903 -1.9991
 1618TIP3    H2 4819   6.564   1.272   5.185 -0.9313  2.6293 -1.2721
 1619TIP3   OH2 4820   0.628   1.760   5.052  0.0075  0.0388 -0.1509
 1619TIP3    H1 4821   0.615   1.816   4.975  0.6401 -0.5504 -0.6936
 1619TIP3    H2 4822   0.689   1.692   5.023  0.6551  0.0913  1.0171
 1620TIP3   OH2 4823   4.677   5.768   3.386  0.4242  0.4880 -0.3337
 1620TIP3    H1 4824   4.718   5.771   3.473  1.2461  0.5849 -0.7149
 1620TIP3    H2 4825   4.720   5.838   3.337 -2.8053  3.1707  0.3197
 1621TIP3   OH2 4826   6.010   5.042   4.459 -0.1870 -0.3829 -0.2572
 1621TIP3    H1 4827   6.035   5.134   4.465 -1.2745 -0.0481 -0.5584
 1621TIP3    H2 4828   5.944   5.040   4.389 -2.3131 -0.8918  1.6287
 1622TIP3   OH2 4829   3.139   2.342   4.634 -0.2381  0.1801  0.1786
 1622TIP3    H1 4830   3.075   2.395   4.587  0.1661  0.8110  0.3325
 1622TIP3    H2 4831   3.087   2.291   4.697 -0.5422  1.0178  0.6142
 1623TIP3   OH2 4832   6.811   1.762   0.392  0.5453 -0.3458 -0.1703
 1623TIP3    H1 4833   6.858   1.679   0.397  0.2249 -0.7056 -2.3040
 1623TIP3    H2 4834   6.719   1.738   0.401  0.5353 -0.0398  0.6077
 1624TIP3   OH2 4835   4.296   5.189   1.708 -0.0398 -0.1679  0.1805
 1624TIP3    H1 4836   4.293   5.251   1.635 -0.4276  2.8916  2.5518
 1624TIP3    H2 4837   4.205   5.182   1.737  0.0390 -1.7008  0.1456
 1625TIP3   OH2 4838   4.003   3.114   4.202 -0.3450 -0.0428  0.0640
 1625TIP3    H1 4839   3.909   3.100   4.218 -0.4786  1.1685  0.4496
 1625TIP3    H2 4840   4.008   3.202   4.166  0.9557  1.5587  3.7358
 1626TIP3   OH2 4841   6.795   0.960   3.666 -0.1086 -0.2681 -0.1331
 1626TIP3    H1 4842   6.846   0.881   3.683  0.3778  0.4564  2.1132
 1626TIP3    H2 4843   6.859   1.025   3.638 -0.2691 -0.2028 -0.3562
 1627TIP3   OH2 4844   2.172  -0.021   3.886 -0.1194  0.4914 -0.2623
 1627TIP3    H1 4845   2.080  -0.042   3.871 -0.6812  0.4821  2.7282
 1627TIP3    H2 4846   2.175   0.075   3.888  0.2814  0.5526 -1.8525
 1628TIP3   OH2 4847   5.795   6.342   4.889 -0.2440  0.1158  0.1374
 1628TIP3    H1 4848   5.871   6.337   4.946  1.1130 -1.2953 -1.6703
 1628TIP3    H2 4849   5.727   6.293   4.935  0.3165  0.3135  1.2116
 1629TIP3   OH2 4850   1.170   4.422   1.693  0.0549 -0.3103  0.5738
 1629TIP3    H1 4851   1.230   4.461   1.756 -1.6141  1.1260  1.3734
 1629TIP3    H2 4852   1.140   4.341   1.735  0.0123 -0.0706  1.0064
 1630TIP3   OH2 4853   5.035   2.003   1.786 -0.2957  0.0110  0.4302
 1630TIP3    H1 4854   4.983   2.028   1.709 -0.2830 -0.7567  0.1663
 1630TIP3    H2 4855   5.124   1.996   1.754 -0.4781 -1.6508  0.1751
 1631TIP3   OH2 4856   6.105   0.528   4.662  0.4883 -0.5256 -0.6819
 1631TIP3    H1 4857   6.017   0.513   4.696  0.4851 -1.0735 -0.9267
 1631TIP3    H2 4858   6.144   0.589   4.724  0.4215 -1.3684  0.2030
 1632TIP3   OH2 4859   0.996   2.387   4.132  0.6205  0.1501  0.1969
 1632TIP3    H1 4860   1.055   2.330   4.082  0.9717 -1.2443  2.0969
 1632TIP3    H2 4861   0.910   2.346   4.125  0.7855 -0.3996  1.1855
 1633TIP3   OH2 4862   6.576   6.077   1.836  0.0484  0.2470  0.1691
 1633TIP3    H1 4863   6.507   6.130   1.876 -0.7810 -1.0224  0.4470
 1633TIP3    H2 4864   6.568   6.094   1.742 -0.3704  0.4301  0.2350
 1634TIP3   OH2 4865   6.800   2.424   2.256  0.1984  0.6830  0.3578
 1634TIP3    H1 4866   6.757   2.505   2.227  0.2209  1.4082  2.2153
 1634TIP3    H2 4867   6.829   2.443   2.346  1.0293 -1.0824  0.5037
 1635TIP3   OH2 4868   4.626   2.121   5.727 -0.4149  0.2473  0.0319
 1635TIP3    H1 4869   4.598   2.207   5.760 -0.3280 -0.5663  2.4651
 1635TIP3    H2 4870   4.545   2.070   5.721 -0.2386 -0.1295  0.7089
 1636TIP3   OH2 4871   2.828   4.183   1.675 -0.0837  0.0364  0.1055
 1636TIP3    H1 4872   2.917   4.218   1.681 -0.0982 -0.0328  0.8950
 1636TIP3    H2 4873   2.809   4.153   1.764 -0.7449 -0.3206 -0.1539
 1637TIP3   OH2 4874   5.596   1.685   2.479 -0.1438  0.5743  0.2733
 1637TIP3    H1 4875   5.658   1.614   2.497 -2.2345 -1.2940  0.6150
 1637TIP3    H2 4876   5.598   1.740   2.557 -0.5136 -0.7524  1.2456
 1638TIP3   OH2 4877   2.939   2.587   0.813 -0.7933  0.0658 -0.0276
 1638TIP3    H1 4878   3.014   2.554   0.764 -0.3219  0.5266  0.3813
 1638TIP3    H2 4879   2.869   2.595   0.748 -0.7344 -1.1137 -0.2609
 1639TIP3   OH2 4880   2.423   0.875   5.585 -0.5862  0.3727  0.2837
 1639TIP3    H1 4881   2.420   0.918   5.499  3.0373  0.6434  0.1290
 1639TIP3    H2 4882   2.411   0.782   5.565  1.3782  0.2849 -0.7769
 1640TIP3   OH2 4883   3.115   2.931   0.739  0.3755  0.0078  0.4999
 1640TIP3    H1 4884   3.098   2.893   0.826 -0.7595  3.5355  2.0024
 1640TIP3    H2 4885   3.200   2.973   0.748  1.6536 -2.0313 -1.1573
 1641TIP3   OH2 4886   4.803   6.314   5.695  0.3513 -0.1132 -0.0037
 1641TIP3    H1 4887   4.848   6.250   5.752  1.1120  0.4144  0.0066
 1641TIP3    H2 4888   4.873   6.351   5.642 -0.0510  0.8506  0.1230
 1642TIP3   OH2 4889   2.089   0.086   3.081  0.2881  0.0312 -0.3817
 1642TIP3    H1 4890   2.118   0.176   3.100  0.5754 -0.2512  0.6076
 1642TIP3    H2 4891   2.006   0.077   3.129 -0.3629  0.1366 -1.4485
 1643TIP3   OH2 4892   0.874   6.247   0.440  0.1985 -0.2372 -0.6634
 1643TIP3    H1 4893   0.807   6.229   0.375  0.1412 -0.5380 -0.5247
 1643TIP3    H2 4894   0.954   6.208   0.403  0.1304 -0.5547 -0.4811
 1644TIP3   OH2 4895   1.863   3.219   1.890  0.4076  0.3353 -0.4276
 1644TIP3    H1 4896   1.792   3.175   1.843  0.2051  0.9611 -0.7117
 1644TIP3    H2 4897   1.938   3.214   1.831  0.4437  0.1729 -0.3670
 1645TIP3   OH2 4898   3.574   0.519   5.483 -0.4645  0.6141 -0.2223
 1645TIP3    H1 4899   3.620   0.580   5.425 -1.3749  0.6239 -0.9563
 1645TIP3    H2 4900   3.495   0.495   5.435 -0.6248 -0.3567  0.4947
 1646TIP3   OH2 4901   6.819   6.798   2.847 -0.4060 -0.7085 -0.7230
 1646TIP3    H1 4902   6.769   6.746   2.909  1.2475 -1.2458  0.2259
 1646TIP3    H2 4903   6.867   6.861   2.902  0.3542 -0.5621 -1.5373
 1647TIP3   OH2 4904   6.347   0.899   0.106  0.1884  0.1055  0.1423
 1647TIP3    H1 4905   6.359   0.815   0.150  0.0536  0.2777  0.5119
 1647TIP3    H2 4906   6.319   0.959   0.176  1.7272  0.8151  0.1961
 1648TIP3   OH2 4907   0.764   2.525   5.543 -0.3031  0.3897  0.1384
 1648TIP3    H1 4908   0.736   2.459   5.480  2.0638 -1.8685  1.2592
 1648TIP3    H2 4909   0.855   2.503   5.562 -0.8558  0.9771  4.2727
 1649TIP3   OH2 4910   4.021   1.086   2.259 -0.0557  0.1298  0.3743
 1649TIP3    H1 4911   4.054   1.169   2.293  0.3220 -0.4909  1.5489
 1649TIP3    H2 4912   3.977   1.110   2.177 -1.3296  1.6984  1.4729
 1650TIP3   OH2 4913   6.969   6.765   1.036 -0.1867  0.3156 -0.0939
 1650TIP3    H1 4914   6.999   6.780   0.947  0.8901 -0.6354  0.0826
 1650TIP3    H2 4915   7.029   6.816   1.091 -0.9942  1.0924  0.0824
 1651TIP3   OH2 4916   6.643   3.788   1.207 -0.1664 -0.0260 -0.0916
 1651TIP3    H1 4917   6.590   3.750   1.277 -0.7993 -0.5858 -0.8672
 1651TIP3    H2 4918   6.586   3.853   1.167  0.2323  0.3632 -0.0339
 1652TIP3   OH2 4919   4.784   2.604   0.028 -0.2111  0.3318  0.6854
 1652TIP3    H1 4920   4.746   2.519   0.051 -0.4937  0.8294  2.1044
 1652TIP3    H2 4921   4.712   2.667   0.038  0.3208  0.9194  0.8696
 1653TIP3   OH2 4922   6.910   4.626   2.022 -0.2484  0.5014  0.6698
 1653TIP3    H1 4923   6.911   4.711   2.066  0.9831  0.4257  0.8321
 1653TIP3    H2 4924   6.977   4.634   1.953 -0.3479 -0.2274  0.4779
 1654TIP3   OH2 4925   1.887   2.729   2.082  0.4151  0.2813  0.1078
 1654TIP3    H1 4926   1.918   2.644   2.114 -3.2758 -1.6582 -0.7378
 1654TIP3    H2 4927   1.844   2.769   2.157 -1.9243 -0.9336 -0.4528
 1655TIP3   OH2 4928   7.129   4.887   1.398 -0.3145 -0.5500 -0.4153
 1655TIP3    H1 4929   7.198   4.915   1.457 -1.0016 -0.1609  0.2212
 1655TIP3    H2 4930   7.104   4.800   1.430 -1.3149  0.0317  0.4768
 1656TIP3   OH2 4931   1.770   1.110   5.104 -0.3108  0.0210  0.7878
 1656TIP3    H1 4932   1.775   1.204   5.119 -2.2542  0.0200  1.8848
 1656TIP3    H2 4933   1.771   1.100   5.009 -1.1014  1.2505  0.6301
 1657TIP3   OH2 4934   1.099   6.757   1.566 -0.0890 -0.0858  0.3348
 1657TIP3    H1 4935   1.062   6.827   1.620 -0.9585 -1.7095  1.9528
 1657TIP3    H2 4936   1.063   6.676   1.602  0.7206 -1.3976 -1.5856
 1658TIP3   OH2 4937   5.266   3.822   3.730  0.5857  0.2731  0.0835
 1658TIP3    H1 4938   5.263   3.912   3.696  0.9623 -0.0713 -0.8835
 1658TIP3    H2 4939   5.185   3.782   3.699  1.5975 -0.4812 -1.7153
 1659TIP3   OH2 4940   7.119   5.128   4.712 -0.5623  0.7409  0.0420
 1659TIP3    H1 4941   7.065   5.053   4.690  0.4195 -0.1270  0.5058
 1659TIP3    H2 4942   7.091   5.197   4.651 -0.8745 -0.2686 -0.9814
 1660TIP3   OH2 4943   3.525   1.658   2.388 -0.0688 -0.1948 -0.2785
 1660TIP3    H1 4944   3.445   1.624   2.348 -0.0325  0.2539 -0.7557
 1660TIP3    H2 4945   3.494   1.716   2.458 -0.1413 -0.6961  0.1077
 1661TIP3   OH2 4946   7.139  -0.000   4.578 -0.2180  0.3602 -0.4631
 1661TIP3    H1 4947   7.119   0.087   4.612 -0.5681  0.5625 -1.1577
 1661TIP3    H2 4948   7.106   0.001   4.488 -0.5432 -0.6007 -0.3766
 1662TIP3   OH2 4949   5.830   4.248   3.870 -0.4136 -0.3706 -0.1220
 1662TIP3    H1 4950   5.743   4.216   3.894  0.2389 -1.1992  1.3423
 1662TIP3    H2 4951   5.874   4.172   3.831  0.1238 -0.4001  0.5159
 1663TIP3   OH2 4952   5.230   2.481   1.561 -0.2050 -0.9411  0.7211
 1663TIP3    H1 4953   5.231   2.386   1.555 -1.9477 -0.9972  0.6578
 1663TIP3    H2 4954   5.263   2.500   1.649  0.6842 -1.5587  0.5288
 1664TIP3   OH2 4955   5.043   1.739   1.851 -1.0144 -0.1304 -0.0686
 1664TIP3    H1 4956   5.020   1.690   1.930  0.7780  0.9348  1.2152
 1664TIP3    H2 4957   5.014   1.829   1.870  1.2062  0.5810  0.3291
 1665TIP3   OH2 4958   0.339   1.565   3.618  0.5889  0.3036 -0.0870
 1665TIP3    H1 4959   0.404   1.495   3.612  1.2295  0.9459 -0.8028
 1665TIP3    H2 4960   0.359   1.608   3.701 -0.0609 -0.5785  0.5569
 1666TIP3   OH2 4961   7.103   3.281   1.831  0.2627 -0.4548  0.4144
 1666TIP3    H1 4962   7.132   3.318   1.914 -0.6597 -0.8260  0.9225
 1666TIP3    H2 4963   7.072   3.193   1.853 -3.5057  0.6895  0.4704
 1667TIP3   OH2 4964   1.129   6.198   4.653 -0.6336  0.0903  0.2492
 1667TIP3    H1 4965   1.111   6.114   4.610 -0.0490 -0.2844  0.7174
 1667TIP3    H2 4966   1.198   6.237   4.599 -0.9835  0.3193 -0.0319
 1668TIP3   OH2 4967   2.563   4.302   3.530 -0.2914 -0.2278  0.1283
 1668TIP3    H1 4968   2.569   4.390   3.493 -1.1872  0.7229  2.0955
 1668TIP3    H2 4969   2.537   4.246   3.457  3.7173  0.3988 -2.0495
 1669TIP3   OH2 4970   7.200   6.730   5.469  0.7671  0.0619  0.2504
 1669TIP3    H1 4971   7.182   6.669   5.397  1.7377  1.4418 -1.2379
 1669TIP3    H2 4972   7.198   6.816   5.428  0.1931  1.0012  2.1476
 1670TIP3   OH2 4973   6.390   4.540   0.286 -0.9694  0.2993  0.2294
 1670TIP3    H1 4974   6.395   4.594   0.365  0.0972  0.8017 -0.1575
 1670TIP3    H2 4975   6.477   4.499   0.280 -0.0204  2.3608 -2.1081
 1671TIP3   OH2 4976   5.495   2.403   5.257 -0.0494  0.0221 -0.3206
 1671TIP3    H1 4977   5.492   2.486   5.304  1.2755 -0.5426  0.8483
 1671TIP3    H2 4978   5.433   2.414   5.185 -1.7160  1.1549  1.1839
 1672TIP3   OH2 4979   2.521   1.120   0.926 -0.4052 -0.1355 -0.1243
 1672TIP3    H1 4980   2.507   1.122   0.831 -1.4585  0.1571  0.0198
 1672TIP3    H2 4981   2.590   1.056   0.939 -1.4883 -1.5365 -0.9626
 1673TIP3   OH2 4982   2.694   1.156   5.853 -0.3914  0.2531  0.4416
 1673TIP3    H1 4983   2.638   1.232   5.838 -1.2920 -0.3016  0.8838
 1673TIP3    H2 4984   2.713   1.158   5.947  0.8415  0.7667  0.1957
 1674TIP3   OH2 4985   1.333   6.474   4.869 -0.4671 -0.2107 -0.1350
 1674TIP3    H1 4986   1.325   6.528   4.789  0.4371  0.4009  0.1734
 1674TIP3    H2 4987   1.418   6.431   4.861 -0.0070  0.4749  0.8572
 1675TIP3   OH2 4988   4.980   0.230   2.213 -1.1245  0.2720 -0.2315
 1675TIP3    H1 4989   4.983   0.255   2.121 -0.3494 -0.4955 -0.4267
 1675TIP3    H2 4990   5.033   0.295   2.257  1.2244 -1.1538 -0.7923
 1676TIP3   OH2 4991   5.888   2.640   5.730  0.0383 -0.3519 -0.1389
 1676TIP3    H1 4992   5.795   2.662   5.716  0.0805  0.6456  0.9905
 1676TIP3    H2 4993   5.936   2.703   5.677  0.0942 -1.4840 -1.5056
 1677TIP3   OH2 4994   4.038   1.389   3.638  0.4157 -0.0774  0.3357
 1677TIP3    H1 4995   4.105   1.385   3.707  1.8027  1.4564 -0.8334
 1677TIP3    H2 4996   4.088   1.386   3.556 -0.9505  0.9455 -0.5741
 1678TIP3   OH2 4997   6.396   1.911   2.878  0.1635 -0.0788  0.7330
 1678TIP3    H1 4998   6.392   1.885   2.971  0.0724  1.0146  1.0475
 1678TIP3    H2 4999   6.404   2.006   2.880 -3.2857  0.3898 -0.3860
 1679TIP3   OH2 5000   2.662   3.419   4.232  0.0543 -0.1964  0.2985
 1679TIP3    H1 5001   2.691   3.510   4.221 -0.8540  0.0602 -0.0467
 1679TIP3    H2 5002   2.737   3.367   4.202 -0.5671  0.4590 -2.7736
 1680TIP3   OH2 5003   3.515   2.089   0.106  0.3725 -0.3655  0.7939
 1680TIP3    H1 5004   3.500   2.018   0.044 -0.2004 -1.1000  1.7476
 1680TIP3    H2 5005   3.574   2.051   0.171 -0.2097 -0.0868  1.4935
 1681TIP3   OH2 5006   7.151   6.554   1.560  0.1466  0.2765 -0.2077
 1681TIP3    H1 5007   7.165   6.602   1.641  0.3859  0.0435 -0.1077
 1681TIP3    H2 5008   7.215   6.591   1.499  1.5676 -1.0776  0.3716
 1682TIP3   OH2 5009   0.660   2.864   1.221 -0.0114 -0.0534 -0.4966
 1682TIP3    H1 5010   0.698   2.837   1.305  0.4610 -1.4648 -1.1328
 1682TIP3    H2 5011   0.709   2.815   1.156 -1.7420 -0.5717 -1.4621
 1683TIP3   OH2 5012   6.325   1.378   1.989  0.0176 -0.3942  0.6708
 1683TIP3    H1 5013   6.282   1.303   1.947 -0.1686 -0.1173  0.3650
 1683TIP3    H2 5014   6.255   1.424   2.035  0.3115 -1.0055  1.7638
 1684TIP3   OH2 5015   1.383   3.699   2.597 -1.1774  0.0719 -0.3153
 1684TIP3    H1 5016   1.384   3.723   2.690 -0.6505  0.9678 -0.5405
 1684TIP3    H2 5017   1.464   3.648   2.585 -1.7092 -0.8616 -0.0971
 1685TIP3   OH2 5018   0.373   3.693   3.728  0.1824 -0.2880 -0.0709
 1685TIP3    H1 5019   0.324   3.766   3.689  0.5371 -0.6556 -1.2486
 1685TIP3    H2 5020   0.463   3.707   3.700  0.1933 -1.3603 -0.6167
 1686TIP3   OH2 5021   2.205   0.941   5.756 -0.1166 -0.1046 -0.5766
 1686TIP3    H1 5022   2.146   0.953   5.681  0.1690  2.7916 -0.4568
 1686TIP3    H2 5023   2.289   0.916   5.717 -0.6357 -1.2854 -0.9783
 1687TIP3   OH2 5024   3.449   5.981   2.561  0.2691 -0.0219  0.3664
 1687TIP3    H1 5025   3.379   5.937   2.608  0.4202 -0.9101 -0.2257
 1687TIP3    H2 5026   3.514   5.913   2.543  0.5080  0.4290 -0.5591
 1688TIP3   OH2 5027   4.586   3.185   0.970 -0.5130 -0.1740  0.1676
 1688TIP3    H1 5028   4.665   3.215   1.016 -0.7050 -0.3339  0.6038
 1688TIP3    H2 5029   4.521   3.252   0.990 -0.2412  0.4634 -0.9674
 1689TIP3   OH2 5030   5.790   1.629   5.260  0.2330  0.6133  0.0702
 1689TIP3    H1 5031   5.731   1.609   5.188  2.2562 -0.6260 -1.3506
 1689TIP3    H2 5032   5.806   1.723   5.253 -0.4803  0.7097 -0.3512
 1690TIP3   OH2 5033   1.282   0.791   4.737 -0.0774 -0.0376  0.5015
 1690TIP3    H1 5034   1.355   0.852   4.746 -1.0080  0.9605  1.5311
 1690TIP3    H2 5035   1.312   0.727   4.672  1.0018  1.3954 -0.4631
 1691TIP3   OH2 5036   4.328   0.352   3.247 -0.3137 -0.0702 -0.1725
 1691TIP3    H1 5037   4.390   0.414   3.285  1.7515 -1.8583 -0.4066
 1691TIP3    H2 5038   4.287   0.400   3.175  0.6209  1.2613  0.1469
 1692TIP3   OH2 5039   2.658   6.675   4.913 -0.0779  0.6503 -0.0779
 1692TIP3    H1 5040   2.620   6.701   4.997 -1.4885 -0.5141 -0.3268
 1692TIP3    H2 5041   2.750   6.658   4.932 -0.9079 -2.2277  1.8752
 1693TIP3   OH2 5042   2.149   5.611   2.378 -0.8427 -0.3665 -0.4491
 1693TIP3    H1 5043   2.134   5.644   2.467 -0.0978 -0.9914 -0.0881
 1693TIP3    H2 5044   2.120   5.683   2.321  0.4752  0.8201  0.3114
 1694TIP3   OH2 5045   6.748   0.420   5.652  0.6621  0.1808 -0.3810
 1694TIP3    H1 5046   6.709   0.360   5.715  1.5201 -0.1326 -0.1239
 1694TIP3    H2 5047   6.782   0.492   5.705 -1.5636  1.6162 -0.8094
 1695TIP3   OH2 5048   1.853   2.007   3.410  0.3428 -0.6340 -0.0049
 1695TIP3    H1 5049   1.868   1.999   3.316 -1.7059 -0.6957 -0.3641
 1695TIP3    H2 5050   1.789   2.078   3.418 -0.0003 -1.0700  1.2871
 1696TIP3   OH2 5051   3.644   2.819   4.448 -0.1234  0.3341  0.0591
 1696TIP3    H1 5052   3.569   2.781   4.401 -0.2984 -0.0533  0.6449
 1696TIP3    H2 5053   3.605   2.884   4.507 -0.0871 -0.3959  0.9094
 1697TIP3   OH2 5054   2.217   1.588   0.602 -0.4803 -0.1917 -0.5630
 1697TIP3    H1 5055   2.244   1.577   0.511  0.5200 -0.6771 -0.2218
 1697TIP3    H2 5056   2.136   1.536   0.609  0.3720 -1.5943 -0.7589
 1698TIP3   OH2 5057   5.683   2.559   2.225  0.4646  0.3972  0.2173
 1698TIP3    H1 5058   5.731   2.569   2.143 -0.6706 -1.5403 -0.7492
 1698TIP3    H2 5059   5.636   2.641   2.236 -0.3469  0.2317 -1.7657
 1699TIP3   OH2 5060   1.617   6.513   3.467  0.3704  0.3467 -0.0751
 1699TIP3    H1 5061   1.628   6.501   3.561  1.2186  1.1860 -0.0491
 1699TIP3    H2 5062   1.638   6.428   3.429  1.2751  0.3394  0.4152
 1700TIP3   OH2 5063   3.872   0.220   4.336  0.1975  0.0508 -0.2532
 1700TIP3    H1 5064   3.792   0.167   4.336 -0.4883  1.0504  0.4070
 1700TIP3    H2 5065   3.880   0.250   4.246  1.1684 -1.9568 -0.9003
 1701TIP3   OH2 5066   4.553   5.355   1.976  0.0450  0.0080  0.2855
 1701TIP3    H1 5067   4.609   5.368   2.052  0.9901 -1.6180 -0.1043
 1701TIP3    H2 5068   4.589   5.415   1.910  1.6102 -1.2797 -0.0835
 1702TIP3   OH2 5069   5.266   2.722   3.255 -0.6755  0.7300 -0.2078
 1702TIP3    H1 5070   5.181   2.753   3.284 -0.9965  0.9003 -1.2811
 1702TIP3    H2 5071   5.300   2.792   3.199  0.8534  1.3389  1.3800
 1703TIP3   OH2 5072   0.535   6.507   2.777 -0.1832 -0.1222 -0.3358
 1703TIP3    H1 5073   0.441   6.511   2.791 -0.0597 -0.0699  0.5324
 1703TIP3    H2 5074   0.570   6.584   2.823  0.6819 -2.3165  3.0570
 1704TIP3   OH2 5075   2.742   3.492   1.095 -0.3185 -0.5375  0.1834
 1704TIP3    H1 5076   2.775   3.495   1.005 -1.7166 -0.5860 -0.3605
 1704TIP3    H2 5077   2.648   3.474   1.085 -1.0774  2.1755  1.5154
 1705TIP3   OH2 5078   4.798   1.673   3.149 -0.7802 -0.1666  0.1134
 1705TIP3    H1 5079   4.825   1.630   3.067  1.3727 -0.3746  0.8714
 1705TIP3    H2 5080   4.839   1.759   3.146  1.4834 -1.0856  2.0352
 1706TIP3   OH2 5081   4.638   3.856   5.512 -0.5599  0.0904  0.2815
 1706TIP3    H1 5082   4.626   3.918   5.583 -1.6861 -0.0077  0.1846
 1706TIP3    H2 5083   4.550   3.830   5.487 -0.1812  0.2208 -1.2466
 1707TIP3   OH2 5084   4.623   0.108   4.217 -0.5834  0.1306  0.5097
 1707TIP3    H1 5085   4.627   0.038   4.152 -0.3846  1.1306 -0.6101
 1707TIP3    H2 5086   4.537   0.149   4.203 -0.2102  0.8628  0.3105
 1708TIP3   OH2 5087   6.756   4.017   5.374 -0.1251 -0.3288  0.3111
 1708TIP3    H1 5088   6.790   3.940   5.327 -0.2650 -0.1521 -0.0830
 1708TIP3    H2 5089   6.756   4.086   5.309 -0.0812 -0.0126  0.6453
 1709TIP3   OH2 5090   2.501   5.986   2.510  0.4322 -0.4578 -0.2277
 1709TIP3    H1 5091   2.440   5.945   2.572 -1.0531  1.5573 -0.2832
 1709TIP3    H2 5092   2.445   6.027   2.445  1.9215  0.0998 -1.1985
 1710TIP3   OH2 5093   2.947   0.364   1.170  0.6131 -0.4307  0.5455
 1710TIP3    H1 5094   2.917   0.274   1.177  0.5779 -0.3477  1.7774
 1710TIP3    H2 5095   3.018   0.361   1.106  0.3790 -1.2628  0.3137
 1711TIP3   OH2 5096   2.780   2.350   2.395 -0.1841  0.3008 -0.5316
 1711TIP3    H1 5097   2.872   2.346   2.367  0.0428 -0.9328  0.2923
 1711TIP3    H2 5098   2.758   2.443   2.392  0.8675  0.5479 -1.4325
 1712TIP3   OH2 5099   6.987   5.810   5.559 -0.1405 -0.4163 -0.0689
 1712TIP3    H1 5100   7.064   5.822   5.615  0.3024 -1.2495 -0.4895
 1712TIP3    H2 5101   6.956   5.899   5.542 -0.3422 -0.1477  1.5692
 1713TIP3   OH2 5102   5.221   3.814   0.968  0.0631 -0.2340 -0.6902
 1713TIP3    H1 5103   5.188   3.845   0.884  0.2689 -1.3029 -1.1951
 1713TIP3    H2 5104   5.258   3.727   0.948 -1.1735 -1.1435  0.7675
 1714TIP3   OH2 5105   6.308   3.161   4.246  0.6366 -0.4660  0.4115
 1714TIP3    H1 5106   6.271   3.204   4.323  0.8165  0.3173  0.0753
 1714TIP3    H2 5107   6.383   3.216   4.222  0.4955 -0.6214 -0.4045
 1715TIP3   OH2 5108   2.369   4.500   0.596  0.1470  0.3253  0.5693
 1715TIP3    H1 5109   2.284   4.496   0.552  1.1323 -2.7098 -1.4240
 1715TIP3    H2 5110   2.349   4.527   0.685 -3.0664 -1.2059  0.4556
 1716TIP3   OH2 5111   3.965   2.415   5.697 -0.0162  0.0399 -0.0516
 1716TIP3    H1 5112   3.984   2.372   5.614  1.1282 -0.7486  0.5839
 1716TIP3    H2 5113   4.051   2.443   5.729 -0.5296  1.1053  0.4747
 1717TIP3   OH2 5114   3.011   6.300   2.167 -0.4014  0.0786 -0.5525
 1717TIP3    H1 5115   3.046   6.240   2.102  0.0188 -0.5876  0.2806
 1717TIP3    H2 5116   3.020   6.254   2.250 -0.1110  1.2720  0.0971
 1718TIP3   OH2 5117   2.984   4.540   5.527  0.1704 -0.1082  0.1522
 1718TIP3    H1 5118   2.947   4.466   5.480 -0.7161  0.1211  0.4687
 1718TIP3    H2 5119   3.054   4.572   5.470  0.1035 -0.7590 -0.3007
 1719TIP3   OH2 5120   2.242   3.042   3.073 -0.1218 -0.1432 -0.1638
 1719TIP3    H1 5121   2.185   3.093   3.016 -0.7775  0.6381  1.1447
 1719TIP3    H2 5122   2.183   2.980   3.117 -0.0998  0.9730  1.5415
 1720TIP3   OH2 5123   4.774   4.107   5.220 -0.1426  0.4816  0.5174
 1720TIP3    H1 5124   4.703   4.050   5.250  0.5559 -1.2121 -0.8742
 1720TIP3    H2 5125   4.730   4.172   5.164 -0.6869 -0.1330  0.2125
 1721TIP3   OH2 5126   5.679   5.350   3.921 -0.2747  0.0066 -0.2175
 1721TIP3    H1 5127   5.586   5.331   3.933  0.0059 -1.6204 -0.4594
 1721TIP3    H2 5128   5.724   5.281   3.970  0.8121 -0.5038 -1.8601
 1722TIP3   OH2 5129   4.772   2.929   2.328 -0.1158 -0.7840 -0.4726
 1722TIP3    H1 5130   4.814   2.879   2.398  0.8088 -0.1333 -0.5475
 1722TIP3    H2 5131   4.717   2.992   2.374  0.3899 -0.4449 -0.3222
 1723TIP3   OH2 5132   2.629   2.918   2.650 -0.1417  0.2303 -0.3766
 1723TIP3    H1 5133   2.545   2.964   2.647  0.5606  1.6553  0.4304
 1723TIP3    H2 5134   2.666   2.942   2.735  1.6510  0.7202 -1.2468
 1724TIP3   OH2 5135   5.211   3.200   5.714 -0.5095 -0.4559 -0.0583
 1724TIP3    H1 5136   5.295   3.245   5.723 -0.6276  0.0169 -1.2048
 1724TIP3    H2 5137   5.146   3.271   5.710 -0.7448 -0.7346 -1.3691
 1725TIP3   OH2 5138   7.135   6.137   5.637 -0.1095 -0.0696  0.3002
 1725TIP3    H1 5139   7.138   6.128   5.542 -0.8460 -0.4930  0.3063
 1725TIP3    H2 5140   7.223   6.115   5.667  0.7223  2.0872 -0.4267
 1726TIP3   OH2 5141   4.602   4.141   3.810  0.2123 -0.1186  0.1670
 1726TIP3    H1 5142   4.657   4.123   3.887  0.6078  0.1396 -0.0522
 1726TIP3    H2 5143   4.642   4.090   3.740  0.8258  0.9071 -0.2528
 1727TIP3   OH2 5144   1.999   3.472   0.795  0.4883 -0.2824 -0.0104
 1727TIP3    H1 5145   1.940   3.464   0.721  0.3237  1.1640 -0.0662
 1727TIP3    H2 5146   1.950   3.438   0.869  0.7944 -2.1017 -0.5919
 1728TIP3   OH2 5147   0.062   2.289   4.122  0.1483  0.2743  0.9835
 1728TIP3    H1 5148   0.139   2.249   4.082  1.3248  3.3342 -0.1760
 1728TIP3    H2 5149   0.092   2.316   4.209 -0.3258 -0.4310  1.3771
 1729TIP3   OH2 5150   5.460   6.264   3.404 -0.4332 -0.0783  0.1217
 1729TIP3    H1 5151   5.556   6.264   3.400 -0.4167  1.6842 -0.5549
 1729TIP3    H2 5152   5.439   6.318   3.480 -0.8354  1.3437 -0.9348
 1730TIP3   OH2 5153   1.301   6.105   2.115  0.4280  0.0426  0.1271
 1730TIP3    H1 5154   1.343   6.020   2.127 -0.0852 -0.1575  0.5223
 1730TIP3    H2 5155   1.374   6.165   2.098  0.6920 -0.7523 -1.8379
 1731TIP3   OH2 5156   5.481   0.036   2.474  0.0711 -1.4446 -0.2363
 1731TIP3    H1 5157   5.519   0.090   2.543 -0.3516  0.1503 -1.1807
 1731TIP3    H2 5158   5.408  -0.009   2.515 -1.1061  0.6314  0.0412
 1732TIP3   OH2 5159   3.298   1.080   5.253  0.3786  0.3716 -0.3013
 1732TIP3    H1 5160   3.239   1.154   5.267  1.3698  1.2274 -0.5288
 1732TIP3    H2 5161   3.243   1.003   5.265 -0.2033  1.0815  2.1062
 1733TIP3   OH2 5162   2.597   2.201   5.095  0.1831 -0.3404 -0.2238
 1733TIP3    H1 5163   2.580   2.235   5.183  0.1085  0.0331 -0.3806
 1733TIP3    H2 5164   2.645   2.271   5.051  0.3283 -0.5759 -0.4427
 1734TIP3   OH2 5165   2.706   1.552   0.130  0.4585 -0.1166 -0.3577
 1734TIP3    H1 5166   2.725   1.575   0.039  2.1166 -0.2924 -0.0999
 1734TIP3    H2 5167   2.734   1.629   0.180 -1.6129  0.4875 -0.0573
 1735TIP3   OH2 5168   4.181   3.253   0.584  0.0673  0.3735  0.2530
 1735TIP3    H1 5169   4.242   3.234   0.655 -0.1468 -1.1992  0.0640
 1735TIP3    H2 5170   4.096   3.261   0.627 -0.1463 -1.0981  0.1574
 1736TIP3   OH2 5171   0.870   4.841   4.413  0.3269 -0.4095 -0.6281
 1736TIP3    H1 5172   0.954   4.860   4.372 -0.3575  0.2524 -1.8062
 1736TIP3    H2 5173   0.817   4.805   4.341 -0.3172 -1.0581  0.1540
 1737TIP3   OH2 5174   6.642   3.288   4.545 -0.1686 -0.0756 -0.4487
 1737TIP3    H1 5175   6.649   3.379   4.574 -0.3496 -0.4866  0.9897
 1737TIP3    H2 5176   6.722   3.272   4.496  0.5090  0.4675  0.4530
 1738TIP3   OH2 5177   1.356   4.549   0.382  0.2478 -0.1626 -0.1230
 1738TIP3    H1 5178   1.397   4.634   0.398 -1.3194  0.5255  0.4610
 1738TIP3    H2 5179   1.362   4.537   0.287  1.1226  0.2531 -0.1278
 1739TIP3   OH2 5180   4.233   0.656   4.396 -0.0615  0.3043 -0.1529
 1739TIP3    H1 5181   4.245   0.574   4.348  1.6553  1.5497 -2.0358
 1739TIP3    H2 5182   4.319   0.678   4.429 -0.0532  2.1913 -1.2463
 1740TIP3   OH2 5183   3.825   1.549   2.000 -0.4017  0.4909 -0.0289
 1740TIP3    H1 5184   3.752   1.611   2.001 -0.8094  0.1316 -1.9675
 1740TIP3    H2 5185   3.900   1.601   1.971 -0.7457  0.1426 -1.6629
 1741TIP3   OH2 5186   2.463   0.152   3.144 -0.3956  0.5346  0.4480
 1741TIP3    H1 5187   2.438   0.131   3.234  0.2434 -2.0388  0.1023
 1741TIP3    H2 5188   2.418   0.086   3.091  1.5511  0.1452 -0.8224
 1742TIP3   OH2 5189   0.326   5.755   2.578 -0.7350  0.0678  0.2618
 1742TIP3    H1 5190   0.292   5.820   2.639  0.2815  0.0032  0.9331
 1742TIP3    H2 5191   0.390   5.803   2.526  0.7159 -0.5574  1.3873
 1743TIP3   OH2 5192   7.055   0.164   2.240 -0.0254  0.3225  0.4161
 1743TIP3    H1 5193   6.992   0.235   2.252  1.6308  1.7637  0.9465
 1743TIP3    H2 5194   7.115   0.172   2.314  0.0886 -1.8041  0.6253
 1744TIP3   OH2 5195   0.680   6.372   4.451 -0.0770 -0.4462  0.4821
 1744TIP3    H1 5196   0.725   6.323   4.519 -0.0176 -1.4122 -0.2381
 1744TIP3    H2 5197   0.684   6.316   4.374 -0.4813  0.4589 -0.2214
 1745TIP3   OH2 5198   2.550   3.561   1.624  0.0490  0.6949 -0.1216
 1745TIP3    H1 5199   2.467   3.590   1.663 -0.1615 -1.0038  0.7921
 1745TIP3    H2 5200   2.543   3.466   1.621  2.1289  0.4885  0.3265
 1746TIP3   OH2 5201   2.445   4.142   3.957  0.1562  0.0640 -0.0772
 1746TIP3    H1 5202   2.398   4.073   4.004 -0.3883  1.4250  1.4620
 1746TIP3    H2 5203   2.523   4.158   4.010 -1.0260  2.4064  1.1144
 1747TIP3   OH2 5204   3.114   3.235   0.297  0.0672  0.4571  0.5554
 1747TIP3    H1 5205   3.134   3.144   0.279  0.2558  0.4575  0.7609
 1747TIP3    H2 5206   3.199   3.277   0.308  0.0828  1.0976 -1.5799
 1748TIP3   OH2 5207   4.593   2.007   0.565  0.6197 -0.0417  0.4817
 1748TIP3    H1 5208   4.499   1.989   0.566  0.2278  1.5946 -1.4139
 1748TIP3    H2 5209   4.634   1.920   0.572 -1.0017 -0.8195  0.7980
 1749TIP3   OH2 5210   2.427   0.059   1.100 -0.5501  0.3715 -0.6753
 1749TIP3    H1 5211   2.439   0.078   1.006 -2.6410  0.7368 -0.9035
 1749TIP3    H2 5212   2.412  -0.036   1.103 -0.5152  0.3649 -0.6937
 1750TIP3   OH2 5213   0.104   1.045   5.345  0.2819 -0.6680  0.2217
 1750TIP3    H1 5214   0.149   1.004   5.271 -0.4958 -2.7023  0.8047
 1750TIP3    H2 5215   0.012   1.021   5.333 -0.2010  0.8431  0.6802
 1751TIP3   OH2 5216   0.803   1.567   1.256  0.3503 -0.5163  0.1936
 1751TIP3    H1 5217   0.843   1.485   1.227 -0.0159 -0.7752  0.4068
 1751TIP3    H2 5218   0.771   1.609   1.176  1.2615 -0.1907 -0.0045
 1752TIP3   OH2 5219   6.876   2.601   3.488  0.4063 -0.4747 -0.2309
 1752TIP3    H1 5220   6.941   2.617   3.557  1.1367  0.3729 -1.0895
 1752TIP3    H2 5221   6.826   2.682   3.483 -0.4718 -0.9850  0.1551
 1753TIP3   OH2 5222   4.525   4.049   4.719 -0.1604  0.7352 -0.3908
 1753TIP3    H1 5223   4.457   4.039   4.786  0.6877  1.5201  0.6180
 1753TIP3    H2 5224   4.488   4.111   4.656 -1.5494 -1.1181 -1.4734
 1754TIP3   OH2 5225   5.653   0.209   0.496 -0.2558 -0.5784 -0.0962
 1754TIP3    H1 5226   5.620   0.154   0.567  1.2662 -0.7482  0.5342
 1754TIP3    H2 5227   5.578   0.262   0.468 -1.7753 -2.8987 -0.6914
 1755TIP3   OH2 5228   4.931   0.051   5.689 -0.1878  0.2452  0.3851
 1755TIP3    H1 5229   4.958  -0.011   5.621 -0.1683 -0.0912  0.6938
 1755TIP3    H2 5230   4.864   0.004   5.738  1.6594 -0.5892  2.2862
 1756TIP3   OH2 5231   6.706   4.729   5.086  0.3161  0.4040  0.7959
 1756TIP3    H1 5232   6.662   4.645   5.073  0.7204  0.2795  0.2451
 1756TIP3    H2 5233   6.765   4.714   5.160  3.0726 -0.8739 -1.5106
 1757TIP3   OH2 5234   2.342   4.149   2.358 -0.3649  0.2020  0.3214
 1757TIP3    H1 5235   2.306   4.121   2.442 -1.4092 -0.3578 -0.2956
 1757TIP3    H2 5236   2.429   4.183   2.380  0.0498 -1.4186  1.4292
 1758TIP3   OH2 5237   0.317   4.507   0.145  0.2665  0.1440 -0.4055
 1758TIP3    H1 5238   0.257   4.559   0.199 -0.5379 -0.6579 -0.4929
 1758TIP3    H2 5239   0.271   4.424   0.132  0.9200 -0.0802 -1.4151
 1759TIP3   OH2 5240   2.325   5.010   0.832  0.6351  0.6499 -0.2259
 1759TIP3    H1 5241   2.369   5.091   0.858 -1.2753  1.5710  0.2679
 1759TIP3    H2 5242   2.262   4.994   0.902  0.7356 -1.0971 -0.4961
 1760TIP3   OH2 5243   2.969   4.460   3.636  0.5227 -0.0188 -0.1669
 1760TIP3    H1 5244   2.992   4.421   3.552 -0.5418 -2.0220  0.4326
 1760TIP3    H2 5245   2.917   4.537   3.614 -1.8541 -1.8780 -1.3603
 1761TIP3   OH2 5246   6.134   0.897   5.285  0.0390  0.2752  0.3084
 1761TIP3    H1 5247   6.115   0.875   5.376 -1.4886  1.4934  0.3122
 1761TIP3    H2 5248   6.176   0.983   5.289 -2.1914  1.4507 -0.2428
 1762TIP3   OH2 5249   3.649   1.438   0.379 -0.2201 -0.3757  0.1065
 1762TIP3    H1 5250   3.594   1.387   0.320  0.7988 -0.1279 -1.1167
 1762TIP3    H2 5251   3.690   1.372   0.435 -1.7475 -0.5550  1.0622
 1763TIP3   OH2 5252   6.619   5.399   5.280  0.5871 -0.4990  0.0930
 1763TIP3    H1 5253   6.588   5.478   5.325  1.1700  0.5172 -1.1851
 1763TIP3    H2 5254   6.713   5.397   5.297  1.1561  0.8768 -2.3224
 1764TIP3   OH2 5255   6.190   5.229   0.938 -0.3442 -0.3926  0.2436
 1764TIP3    H1 5256   6.112   5.283   0.922  0.4686  1.2294  1.4070
 1764TIP3    H2 5257   6.256   5.292   0.968  0.5469 -2.0938  2.0544
 1765TIP3   OH2 5258   5.077   5.007   2.429 -0.2137  0.2577  0.3855
 1765TIP3    H1 5259   5.052   4.977   2.341  2.2131  0.6763 -0.5334
 1765TIP3    H2 5260   5.075   4.927   2.483 -1.0333 -0.1413 -0.2166
 1766TIP3   OH2 5261   4.374   5.346   0.146  0.4900  0.3225  0.3991
 1766TIP3    H1 5262   4.308   5.369   0.211 -1.3315 -1.4437 -0.7122
 1766TIP3    H2 5263   4.394   5.429   0.102 -2.6130  0.6725 -0.6118
 1767TIP3   OH2 5264   5.242   0.248   2.627 -0.2207  0.4073 -0.3008
 1767TIP3    H1 5265   5.176   0.235   2.559 -1.7588 -3.2696  1.6428
 1767TIP3    H2 5266   5.299   0.172   2.622  1.6489  1.6533  0.5399
 1768TIP3   OH2 5267   6.333   5.086   2.135 -0.3450 -0.1362 -0.0249
 1768TIP3    H1 5268   6.282   5.159   2.170 -0.7752 -1.7979  3.1836
 1768TIP3    H2 5269   6.422   5.101   2.169  0.1056  0.0014 -1.2150
 1769TIP3   OH2 5270   3.639   1.146   4.565  0.7375 -0.6156  0.6003
 1769TIP3    H1 5271   3.645   1.112   4.654 -1.9538  0.5166  1.3154
 1769TIP3    H2 5272   3.563   1.103   4.527 -0.3364  1.5242  0.1504
 1770TIP3   OH2 5273   1.317   2.188   0.813 -0.3076 -0.6145  0.1328
 1770TIP3    H1 5274   1.317   2.242   0.734 -1.3081  0.6920  0.9872
 1770TIP3    H2 5275   1.307   2.098   0.781 -1.3510 -0.0471 -1.1994
 1771TIP3   OH2 5276   4.879   3.972   3.511  0.1055  0.3397 -0.3481
 1771TIP3    H1 5277   4.832   4.026   3.575  1.6663  1.7744 -0.3434
 1771TIP3    H2 5278   4.811   3.939   3.453 -1.1087  0.7698  0.7768
 1772TIP3   OH2 5279   2.503   4.083   3.689  0.2738 -0.1792  0.0272
 1772TIP3    H1 5280   2.522   4.163   3.641 -0.4843 -0.1799 -0.2849
 1772TIP3    H2 5281   2.500   4.110   3.781 -2.6264  0.7388 -0.2218
 1773TIP3   OH2 5282   3.269   5.611   2.633 -0.2819  0.3116  0.0699
 1773TIP3    H1 5283   3.308   5.623   2.720 -1.7737  0.3805  0.7642
 1773TIP3    H2 5284   3.217   5.690   2.619  0.5015  0.6343 -1.2277
 1774TIP3   OH2 5285   4.281   6.766   2.314 -0.3685 -0.1055 -0.9673
 1774TIP3    H1 5286   4.219   6.813   2.258 -0.8978 -0.2890 -0.5462
 1774TIP3    H2 5287   4.317   6.834   2.371  0.0435  0.0518 -1.4092
 1775TIP3   OH2 5288   5.445   1.209   2.771  0.0071  0.2422  0.2805
 1775TIP3    H1 5289   5.522   1.259   2.744  0.0830 -0.1874 -0.3271
 1775TIP3    H2 5290   5.438   1.223   2.866 -0.3284  1.8868  0.0351
 1776TIP3   OH2 5291   2.436   6.432   4.362 -0.1269 -0.2656  0.4425
 1776TIP3    H1 5292   2.370   6.499   4.378 -0.5646 -1.1965  2.9779
 1776TIP3    H2 5293   2.387   6.349   4.363  0.5479 -0.7633 -1.6482
 1777TIP3   OH2 5294   5.359   0.219   0.196 -0.4193 -0.5372  0.0396
 1777TIP3    H1 5295   5.363   0.203   0.291 -3.1910 -0.9344  0.1692
 1777TIP3    H2 5296   5.339   0.134   0.158 -0.7106 -0.1178 -0.7727
 1778TIP3   OH2 5297   3.889   5.409   3.932 -0.1152  0.1867  0.0538
 1778TIP3    H1 5298   3.904   5.496   3.969  1.1702 -0.6422  1.5924
 1778TIP3    H2 5299   3.799   5.387   3.959 -0.1813  0.7231  0.2884
 1779TIP3   OH2 5300   0.272   5.164   0.539 -0.0253  0.2527 -0.9056
 1779TIP3    H1 5301   0.178   5.183   0.539 -0.6226 -2.2503  0.0799
 1779TIP3    H2 5302   0.292   5.142   0.448 -0.9086 -1.1431 -0.8013
 1780TIP3   OH2 5303   3.683   5.082   4.425  0.0205 -0.7121 -0.5275
 1780TIP3    H1 5304   3.627   5.072   4.348  0.9756 -0.7554 -1.2378
 1780TIP3    H2 5305   3.734   5.162   4.407 -0.4848 -0.1325  0.5431
 1781TIP3   OH2 5306   2.904   0.835   3.160 -0.5278  0.6826 -0.3455
 1781TIP3    H1 5307   2.821   0.794   3.186  0.5223 -0.3891  1.5512
 1781TIP3    H2 5308   2.955   0.763   3.122  0.1225  0.9565 -0.0011
 1782TIP3   OH2 5309   0.648   2.168   1.037  0.6427 -1.1491  0.2488
 1782TIP3    H1 5310   0.622   2.197   0.949 -0.4872 -1.1000  0.5857
 1782TIP3    H2 5311   0.716   2.102   1.021  0.5368 -1.0567 -0.6585
 1783TIP3   OH2 5312   6.698   5.914   2.028  0.3737  0.1734  0.4219
 1783TIP3    H1 5313   6.693   5.978   1.957  1.2745  0.4729  0.6071
 1783TIP3    H2 5314   6.621   5.932   2.082 -0.1151  0.1913 -0.2602
 1784TIP3   OH2 5315   2.751   0.342   0.605 -0.1670 -0.2104 -0.5857
 1784TIP3    H1 5316   2.812   0.336   0.532  1.3350 -1.5238  0.7110
 1784TIP3    H2 5317   2.715   0.254   0.614 -0.2346 -0.0965  0.3470
 1785TIP3   OH2 5318   5.471   3.685   4.152 -0.2734  0.5256 -0.2515
 1785TIP3    H1 5319   5.410   3.643   4.091  1.0532 -0.4490 -0.9431
 1785TIP3    H2 5320   5.424   3.686   4.235 -0.6615 -1.6897 -0.3801
 1786TIP3   OH2 5321   6.254   4.912   2.429  0.2666  0.1980 -0.2605
 1786TIP3    H1 5322   6.220   4.998   2.453  1.8907  0.7827  0.0913
 1786TIP3    H2 5323   6.290   4.924   2.341  0.3693 -0.1568 -0.2683
 1787TIP3   OH2 5324   0.996   0.932   5.910  0.5747  0.7107 -0.5480
 1787TIP3    H1 5325   0.930   0.998   5.894  0.1098  0.7698  1.3967
 1787TIP3    H2 5326   1.002   0.883   5.827 -0.6284  1.7891 -1.3023
 1788TIP3   OH2 5327   4.453   6.652   4.994  0.6666  0.3940 -0.1284
 1788TIP3    H1 5328   4.421   6.579   4.940 -0.4180  0.3105  0.5873
 1788TIP3    H2 5329   4.519   6.694   4.940 -0.4773  0.3962 -1.6043
 1789TIP3   OH2 5330   2.860   0.464   3.539 -0.0665 -0.1053  0.6052
 1789TIP3    H1 5331   2.778   0.469   3.490 -0.3967  0.5219  1.2128
 1789TIP3    H2 5332   2.844   0.514   3.619  1.7764  2.5380 -0.5241
 1790TIP3   OH2 5333   5.928   0.362   5.337  0.7515 -0.3157 -0.0750
 1790TIP3    H1 5334   5.985   0.288   5.314  0.8644 -0.1702 -0.2576
 1790TIP3    H2 5335   5.988   0.434   5.354  0.6795 -0.4493  0.7996
 1791TIP3   OH2 5336   3.664   2.680   0.218 -0.6532 -0.4216  0.4141
 1791TIP3    H1 5337   3.712   2.601   0.241  0.2860 -0.5211 -1.6815
 1791TIP3    H2 5338   3.657   2.729   0.300  2.5662 -0.6508  0.9207
 1792TIP3   OH2 5339   0.245   0.332   1.736 -0.1937 -0.9310 -0.1055
 1792TIP3    H1 5340   0.188   0.344   1.812  0.7533  1.0200  0.3699
 1792TIP3    H2 5341   0.334   0.339   1.772  0.2759  0.6071 -1.4273
 1793TIP3   OH2 5342   1.466   2.052   2.979  0.6239  0.0210  0.0904
 1793TIP3    H1 5343   1.538   2.094   3.027 -0.4821  0.5258  1.3500
 1793TIP3    H2 5344   1.398   2.119   2.974  0.3400 -0.3441 -1.3739
 1794TIP3   OH2 5345   7.098   1.711   3.191  0.3778 -0.2526 -0.5104
 1794TIP3    H1 5346   7.055   1.645   3.137  1.6133 -0.7773 -0.8860
 1794TIP3    H2 5347   7.052   1.707   3.274 -1.3499  0.3522 -1.4046
 1795TIP3   OH2 5348   1.812   3.419   0.623  0.0848  0.0846  0.3635
 1795TIP3    H1 5349   1.729   3.430   0.668  1.1979  1.2614  2.3135
 1795TIP3    H2 5350   1.802   3.339   0.572 -2.5741  0.7730 -0.3510
 1796TIP3   OH2 5351   3.339   2.897   3.771 -0.1552 -0.2734 -0.7459
 1796TIP3    H1 5352   3.319   2.987   3.798  1.3795  0.3258 -1.4743
 1796TIP3    H2 5353   3.312   2.893   3.680  0.5533 -0.2585 -0.9684
 1797TIP3   OH2 5354   6.940   0.133   3.776 -0.3873  0.1348 -0.3127
 1797TIP3    H1 5355   6.962   0.078   3.850 -1.8176 -2.3378 -1.5887
 1797TIP3    H2 5356   6.896   0.209   3.815 -0.6842 -0.8562  1.3892
 1798TIP3   OH2 5357   3.725   4.542   3.702 -0.1693 -0.1148  0.3599
 1798TIP3    H1 5358   3.781   4.485   3.651  0.3493  0.0954  0.6884
 1798TIP3    H2 5359   3.659   4.573   3.640  0.2539 -0.1229 -0.1004
 1799TIP3   OH2 5360   0.165   6.651   1.400 -0.0365  0.2116 -0.5543
 1799TIP3    H1 5361   0.159   6.747   1.394  0.9673  0.3018 -0.3139
 1799TIP3    H2 5362   0.248   6.630   1.359  0.2162 -0.4642  0.2723
 1800TIP3   OH2 5363   3.485   2.322   0.797 -0.3271 -0.2412 -0.3148
 1800TIP3    H1 5364   3.494   2.237   0.839  0.8427 -0.3365 -0.7261
 1800TIP3    H2 5365   3.464   2.382   0.868 -1.6977 -0.9436 -0.0937
 1801TIP3   OH2 5366   5.525   2.372   0.360 -0.3169  0.4021  0.2754
 1801TIP3    H1 5367   5.583   2.429   0.411  0.2933  0.0539 -0.0091
 1801TIP3    H2 5368   5.455   2.348   0.420  0.8370 -0.6934  1.2480
 1802TIP3   OH2 5369   1.945   5.670   5.239  0.0515  0.4441 -0.4233
 1802TIP3    H1 5370   1.885   5.703   5.173 -1.0002 -1.1659 -0.3299
 1802TIP3    H2 5371   1.991   5.598   5.196  0.7407  0.6209  0.0108
 1803TIP3   OH2 5372   0.839   1.593   4.003  0.4386  0.3646 -0.4945
 1803TIP3    H1 5373   0.787   1.646   4.064  0.4011 -0.4184  0.1836
 1803TIP3    H2 5374   0.774   1.550   3.948  0.4070  0.1647 -0.3056
 1804TIP3   OH2 5375   1.335   2.500   4.313 -0.1760  0.4068  0.0935
 1804TIP3    H1 5376   1.389   2.431   4.351  1.1351  0.7421 -1.0968
 1804TIP3    H2 5377   1.251   2.457   4.294  1.6587 -1.9629 -3.8356
 1805TIP3   OH2 5378   6.156   6.756   4.725 -0.2131  1.4666 -0.6547
 1805TIP3    H1 5379   6.202   6.738   4.643  0.5258  0.1443  0.0229
 1805TIP3    H2 5380   6.153   6.671   4.770 -0.2616  2.2472  0.8645
 1806TIP3   OH2 5381   6.996   2.694   5.393 -0.0339  0.4242 -0.1422
 1806TIP3    H1 5382   7.073   2.642   5.368 -0.2883  0.1464 -0.3523
 1806TIP3    H2 5383   7.033   2.773   5.432  0.3876 -0.5458  1.5665
 1807TIP3   OH2 5384   6.274   6.369   4.599  0.2646 -0.5160 -0.1152
 1807TIP3    H1 5385   6.332   6.293   4.609  1.1322  0.1761  0.2339
 1807TIP3    H2 5386   6.315   6.438   4.652 -0.7750  0.0543 -0.0262
 1808TIP3   OH2 5387   6.084   3.485   2.935  0.1165 -0.0493  0.3227
 1808TIP3    H1 5388   6.030   3.551   2.979 -1.2033  0.4241 -1.8533
 1808TIP3    H2 5389   6.165   3.482   2.986 -0.9682  1.0803  2.2020
 1809TIP3   OH2 5390   5.727   1.364   5.317  0.7129 -0.1741 -0.0204
 1809TIP3    H1 5391   5.779   1.337   5.393 -1.1441 -1.3475  0.8842
 1809TIP3    H2 5392   5.708   1.457   5.334  2.3047  0.2408 -0.2951
 1810TIP3   OH2 5393   4.545   4.908   0.734  0.1381 -0.4016 -0.2935
 1810TIP3    H1 5394   4.516   4.885   0.822  0.0042  1.8950  0.3292
 1810TIP3    H2 5395   4.466   4.907   0.681 -0.3920  1.4524  0.3960
 1811TIP3   OH2 5396   1.184   5.915   3.381 -0.1074 -0.2949  0.0417
 1811TIP3    H1 5397   1.150   5.903   3.293 -1.1035 -0.6381  0.4575
 1811TIP3    H2 5398   1.248   5.844   3.392  0.2738 -0.0412 -0.5188
 1812TIP3   OH2 5399   0.920   2.966   5.104 -0.2146 -0.1868 -0.2226
 1812TIP3    H1 5400   0.993   2.981   5.045  0.5491 -0.2647  0.6809
 1812TIP3    H2 5401   0.935   2.878   5.139 -0.8868 -0.3107 -0.2306
 1813TIP3   OH2 5402   2.239   2.279   4.400 -0.0704 -0.2639  0.1709
 1813TIP3    H1 5403   2.257   2.284   4.306  1.8835  0.3355  0.5307
 1813TIP3    H2 5404   2.232   2.371   4.428 -2.3626 -0.4351  0.3700
 1814TIP3   OH2 5405   3.656   6.041   3.713  0.5526 -0.0545 -0.5853
 1814TIP3    H1 5406   3.663   5.949   3.738  1.1097 -0.0545 -0.7206
 1814TIP3    H2 5407   3.719   6.051   3.641  1.3003  0.6806  0.1496
 1815TIP3   OH2 5408   7.062   3.823   5.350 -0.1596  0.5357 -0.1712
 1815TIP3    H1 5409   7.081   3.732   5.326 -0.4326 -0.1063  1.8737
 1815TIP3    H2 5410   7.114   3.838   5.429  0.7409  2.5445 -1.0905
 1816TIP3   OH2 5411   5.114   1.713   5.298 -0.2696  0.2960 -0.1905
 1816TIP3    H1 5412   5.028   1.748   5.319 -0.3226 -0.4196  0.8366
 1816TIP3    H2 5413   5.172   1.750   5.365  0.2504  0.8043 -0.8942
 1817TIP3   OH2 5414   4.894   5.621   2.367 -0.2551 -0.3701  0.0095
 1817TIP3    H1 5415   4.976   5.574   2.381 -0.5214 -0.4188  1.6877
 1817TIP3    H2 5416   4.908   5.706   2.408 -0.5305  0.2005 -1.0583
 1818TIP3   OH2 5417   5.409   5.657   1.990  0.4442 -0.3521 -0.4668
 1818TIP3    H1 5418   5.344   5.697   1.932  0.4975 -0.0247 -0.3026
 1818TIP3    H2 5419   5.389   5.563   1.986  0.4218 -0.3312 -0.9798
 1819TIP3   OH2 5420   2.088   4.172   1.000 -0.1694 -0.1157  0.0369
 1819TIP3    H1 5421   2.173   4.153   1.040 -0.2727 -0.8526 -0.0754
 1819TIP3    H2 5422   2.106   4.242   0.938  0.1470  0.4865  0.7838
 1820TIP3   OH2 5423   1.599   4.635   1.281 -0.8333 -0.9117  0.0130
 1820TIP3    H1 5424   1.548   4.590   1.213 -2.8920  1.2611 -0.0218
 1820TIP3    H2 5425   1.627   4.717   1.239  0.1584 -0.7318  0.9928
 1821TIP3   OH2 5426   2.921   6.771   1.177 -0.1190  0.4675 -0.2451
 1821TIP3    H1 5427   2.869   6.801   1.102  0.7995  0.1840 -1.0068
 1821TIP3    H2 5428   2.975   6.701   1.142  0.9731  0.9344  0.4612
 1822TIP3   OH2 5429   3.202   4.206   3.371 -0.5399  0.1743  0.4680
 1822TIP3    H1 5430   3.165   4.182   3.287 -1.1836 -0.5620  0.9485
 1822TIP3    H2 5431   3.224   4.123   3.412  0.7772  0.5547  0.5948
 1823TIP3   OH2 5432   4.190   3.667   4.403  0.1405 -0.1118 -0.5350
 1823TIP3    H1 5433   4.145   3.645   4.484  1.2251 -0.1188  0.0794
 1823TIP3    H2 5434   4.274   3.705   4.431  1.1228 -1.3669 -1.6489
 1824TIP3   OH2 5435   6.929   0.852   4.785  0.8515  0.5261 -0.0865
 1824TIP3    H1 5436   6.892   0.940   4.791  1.8009  0.9078  0.3228
 1824TIP3    H2 5437   6.956   0.844   4.693  0.4116  0.5075 -0.2183
 1825TIP3   OH2 5438   3.217   1.317   3.570 -0.1464  0.8052  0.6089
 1825TIP3    H1 5439   3.226   1.233   3.615  1.4748  1.3784  1.4714
 1825TIP3    H2 5440   3.127   1.318   3.538  0.1851 -1.8807 -0.7462
 1826TIP3   OH2 5441   6.691   0.602   1.888 -0.5309 -0.7283 -0.4484
 1826TIP3    H1 5442   6.734   0.683   1.915 -0.8471 -1.1683  1.5595
 1826TIP3    H2 5443   6.625   0.630   1.824  0.2161  0.4117 -0.7486
 1827TIP3   OH2 5444   3.589   5.091   5.121  0.3553 -0.2799  0.2537
 1827TIP3    H1 5445   3.517   5.045   5.164 -0.1621 -0.3136 -0.6239
 1827TIP3    H2 5446   3.555   5.114   5.035  1.6759 -1.0718 -0.5130
 1828TIP3   OH2 5447   5.319   6.050   1.484  0.5949  0.2255 -0.1171
 1828TIP3    H1 5448   5.309   6.069   1.390  1.3359 -2.7403 -0.9154
 1828TIP3    H2 5449   5.237   6.081   1.523  0.4876  2.0341 -1.6224
 1829TIP3   OH2 5450   3.895   4.148   0.844 -0.0010  0.0204 -0.2264
 1829TIP3    H1 5451   3.941   4.232   0.854  0.5649 -0.4008  0.9654
 1829TIP3    H2 5452   3.873   4.122   0.934 -2.3670  0.0569 -0.7287
 1830TIP3   OH2 5453   0.518   6.665   3.442  0.5982 -0.6241 -0.0759
 1830TIP3    H1 5454   0.504   6.601   3.373  0.5687 -1.7421  0.9480
 1830TIP3    H2 5455   0.521   6.614   3.523  2.4551  0.4311  0.5868
 1831TIP3   OH2 5456   3.493   0.545   1.777 -0.4772 -0.4338  0.1270
 1831TIP3    H1 5457   3.433   0.557   1.704  0.1432  0.4291 -0.2582
 1831TIP3    H2 5458   3.580   0.556   1.739 -0.0515 -1.8097  0.6451
 1832TIP3   OH2 5459   2.450   0.862   2.633  0.9331  0.0701 -0.3294
 1832TIP3    H1 5460   2.455   0.930   2.566 -1.7012  1.1205  0.3844
 1832TIP3    H2 5461   2.523   0.881   2.692  0.9951  1.5203 -0.8296
 1833TIP3   OH2 5462   1.686   6.134   1.658  0.0252  0.2908 -0.3440
 1833TIP3    H1 5463   1.745   6.128   1.582 -0.4791  0.2863 -0.7442
 1833TIP3    H2 5464   1.739   6.178   1.725  0.7662 -0.4928 -0.3971
 1834TIP3   OH2 5465   1.170   1.171   3.182 -0.1655  0.0087  0.1300
 1834TIP3    H1 5466   1.173   1.145   3.089 -1.1361 -1.1681  0.4017
 1834TIP3    H2 5467   1.231   1.245   3.188  0.4808 -0.3682 -1.2916
 1835TIP3   OH2 5468   2.854   1.708   3.550  0.5777 -0.1388  0.0036
 1835TIP3    H1 5469   2.785   1.650   3.582  1.5951 -1.3850  0.0268
 1835TIP3    H2 5470   2.872   1.677   3.461 -0.4098  1.6198 -0.8653
 1836TIP3   OH2 5471   4.813   2.152   0.601  0.4577 -0.4946  0.1531
 1836TIP3    H1 5472   4.810   2.242   0.633  0.3763 -0.0453 -1.0634
 1836TIP3    H2 5473   4.725   2.117   0.619 -0.2508  0.4040 -1.3523
 1837TIP3   OH2 5474   1.408   1.358   2.926 -0.1957  0.0673  0.1927
 1837TIP3    H1 5475   1.495   1.356   2.886 -0.4743  1.3536 -0.5460
 1837TIP3    H2 5476   1.396   1.270   2.962 -0.1812 -1.4166 -3.0997
 1838TIP3   OH2 5477   2.937   3.424   2.463  0.6156 -0.1741 -0.0348
 1838TIP3    H1 5478   2.860   3.479   2.479 -0.2072 -0.9957 -1.1117
 1838TIP3    H2 5479   3.011   3.483   2.480 -0.1891  0.3342  2.0964
 1839TIP3   OH2 5480   1.737   2.105   2.720 -0.2752  0.4290 -0.0902
 1839TIP3    H1 5481   1.689   2.036   2.765 -0.2575  1.3231  1.3715
 1839TIP3    H2 5482   1.696   2.186   2.750  2.2395  1.2480  1.4119
 1840TIP3   OH2 5483   1.766   6.003   3.120  0.1538  0.0463  0.4157
 1840TIP3    H1 5484   1.792   5.921   3.163 -0.1944 -0.3892 -0.1846
 1840TIP3    H2 5485   1.716   6.050   3.186  0.1767 -0.3266  0.7013
 1841TIP3   OH2 5486   3.219   4.757   4.504  0.0516 -0.2713  0.3599
 1841TIP3    H1 5487   3.243   4.764   4.596 -1.6812  0.0307  0.8311
 1841TIP3    H2 5488   3.223   4.847   4.471 -0.8355 -0.1366  0.5795
 1842TIP3   OH2 5489   1.860   6.254   1.852 -0.3240  0.3646  0.0368
 1842TIP3    H1 5490   1.876   6.314   1.925  2.1067  0.1855 -0.2614
 1842TIP3    H2 5491   1.903   6.173   1.878  1.7324  0.6710 -2.0239
 1843TIP3   OH2 5492   5.117   0.409   1.731 -0.3800 -0.4391  0.8515
 1843TIP3    H1 5493   5.170   0.330   1.746 -0.3830 -0.7121 -0.4295
 1843TIP3    H2 5494   5.069   0.390   1.650  1.1678  1.6577 -0.6572
 1844TIP3   OH2 5495   5.018   5.391   3.085 -0.3072 -0.6935  0.7089
 1844TIP3    H1 5496   5.015   5.478   3.044  0.7978 -1.9757 -2.4330
 1844TIP3    H2 5497   5.095   5.394   3.141  0.7462 -0.0998 -0.7047
 1845TIP3   OH2 5498   6.421   3.653   0.341  0.2963 -0.0601  0.0648
 1845TIP3    H1 5499   6.493   3.607   0.385  0.5804 -1.6490 -1.9280
 1845TIP3    H2 5500   6.460   3.734   0.310  1.9677 -1.8053 -2.8260
 1846TIP3   OH2 5501   2.428   6.585   3.074 -0.5484  0.4884 -0.2053
 1846TIP3    H1 5502   2.451   6.532   3.150 -0.0997  1.0079  0.0214
 1846TIP3    H2 5503   2.460   6.673   3.094  0.0727  0.5097 -1.2363
 1847TIP3   OH2 5504   6.151   0.145   2.945  0.2565 -0.8664  0.1976
 1847TIP3    H1 5505   6.229   0.190   2.979  0.0581 -0.1481 -0.2633
 1847TIP3    H2 5506   6.142   0.177   2.855 -1.5450  0.4267  0.7664
 1848TIP3   OH2 5507   5.745   6.212   3.425  0.2781  0.5733  0.0763
 1848TIP3    H1 5508   5.792   6.177   3.349  2.4546  1.4781  0.9134
 1848TIP3    H2 5509   5.747   6.307   3.413 -3.0029  0.6757 -0.7151
 1849TIP3   OH2 5510   6.101   1.097   3.606  0.3918 -0.3895 -0.1181
 1849TIP3    H1 5511   6.083   1.035   3.676 -0.1101  0.0557  0.1499
 1849TIP3    H2 5512   6.117   1.042   3.529  2.9124 -0.9875  0.7351
 1850TIP3   OH2 5513   2.375   4.643   3.230  0.5755 -0.3378 -0.6049
 1850TIP3    H1 5514   2.467   4.628   3.252  0.7352 -0.7089 -1.5195
 1850TIP3    H2 5515   2.327   4.583   3.287  1.0379 -1.9368 -1.8300
 1851TIP3   OH2 5516   6.902   0.969   2.382 -0.2251  0.5686 -0.3476
 1851TIP3    H1 5517   6.998   0.970   2.385 -0.0249 -0.0420 -3.4624
 1851TIP3    H2 5518   6.877   1.061   2.386  0.8122  1.0925 -3.3050
 1852TIP3   OH2 5519   5.892   1.889   1.274 -0.2930  0.0250  0.3576
 1852TIP3    H1 5520   5.895   1.894   1.370 -0.5084 -1.1140  0.4402
 1852TIP3    H2 5521   5.841   1.810   1.256 -0.1258  0.1464 -0.6970
 1853TIP3   OH2 5522   6.080   3.363   3.591 -0.1257 -0.1820 -0.2837
 1853TIP3    H1 5523   6.073   3.441   3.646 -1.8485  2.4234 -3.7825
 1853TIP3    H2 5524   5.997   3.317   3.603  0.6098 -1.1601  1.2583
 1854TIP3   OH2 5525   2.415   3.217   3.569  0.3460  0.2091  0.3789
 1854TIP3    H1 5526   2.354   3.289   3.557  0.0652  0.0514  0.8164
 1854TIP3    H2 5527   2.361   3.138   3.558  0.8942  0.0292 -1.3958
 1855TIP3   OH2 5528   6.414   2.148   0.923  0.4124 -0.3617  0.5775
 1855TIP3    H1 5529   6.381   2.224   0.971  0.0484 -1.2066  1.7049
 1855TIP3    H2 5530   6.452   2.185   0.843  0.7395  1.0474  1.3551
 1856TIP3   OH2 5531   4.636   0.920   3.215  0.1214 -0.4056  0.2141
 1856TIP3    H1 5532   4.681   0.919   3.299 -0.7396 -1.1344  0.6806
 1856TIP3    H2 5533   4.692   0.868   3.157  0.9390  0.4680  0.2081
 1857TIP3   OH2 5534   4.355   5.713   4.344 -0.4293 -0.1791  0.1503
 1857TIP3    H1 5535   4.408   5.674   4.413  0.0601  0.2280  0.0073
 1857TIP3    H2 5536   4.376   5.806   4.347 -2.1658  0.2380  1.0162
 1858TIP3   OH2 5537   4.524   6.423   1.480 -0.2120  0.1373  0.1743
 1858TIP3    H1 5538   4.496   6.336   1.507  0.6241 -0.2187 -0.0930
 1858TIP3    H2 5539   4.535   6.416   1.385  0.7941  0.2636  0.2765
 1859TIP3   OH2 5540   5.926   3.723   3.538  0.2539 -0.2108  0.4295
 1859TIP3    H1 5541   5.966   3.743   3.454 -0.0753  0.8686  0.5216
 1859TIP3    H2 5542   5.832   3.737   3.525  0.2419  0.3928  1.0902
 1860TIP3   OH2 5543   6.914   3.311   5.657  0.2369 -0.0313 -0.3513
 1860TIP3    H1 5544   6.968   3.345   5.585 -0.3170 -0.5055 -1.0073
 1860TIP3    H2 5545   6.834   3.365   5.655  1.0072  1.2712  1.1884
 1861TIP3   OH2 5546   4.359   0.944   3.423 -0.0189  0.1336  0.2401
 1861TIP3    H1 5547   4.423   0.998   3.471  0.8597 -1.5004  0.9894
 1861TIP3    H2 5548   4.370   0.971   3.331  1.5827  0.0982  0.3810
 1862TIP3   OH2 5549  -0.018   5.904   2.893  0.1713 -0.0822 -0.6787
 1862TIP3    H1 5550   0.075   5.927   2.897 -0.6560  3.7636  0.1662
 1862TIP3    H2 5551  -0.037   5.898   2.799  1.2715 -1.2658 -0.8607
 1863TIP3   OH2 5552   5.375   0.272   4.168 -0.2021 -0.6316  0.3529
 1863TIP3    H1 5553   5.307   0.319   4.120 -1.2699 -1.2580  1.2161
 1863TIP3    H2 5554   5.390   0.193   4.116  2.3220  0.9872 -1.6615
 1864TIP3   OH2 5555   6.101   3.357   3.882  0.0161 -0.4721 -0.0252
 1864TIP3    H1 5556   6.142   3.440   3.907 -1.9632  0.6580 -0.3602
 1864TIP3    H2 5557   6.061   3.324   3.962 -2.0409  0.6335 -0.5258
 1865TIP3   OH2 5558   5.137   6.169   5.763  0.2894  0.2942 -0.1055
 1865TIP3    H1 5559   5.070   6.108   5.732  0.2385  0.5779 -0.5549
 1865TIP3    H2 5560   5.089   6.237   5.809  0.1442  1.1767 -1.5202
 1866TIP3   OH2 5561   6.870   6.469   4.111 -0.0014 -0.0193 -0.2110
 1866TIP3    H1 5562   6.796   6.411   4.127  0.4767 -0.4962  0.3150
 1866TIP3    H2 5563   6.830   6.555   4.096 -0.6616 -0.2753  0.0278
 1867TIP3   OH2 5564   6.511   6.624   4.244 -0.0701 -0.0573 -0.0216
 1867TIP3    H1 5565   6.582   6.684   4.220  1.9472 -2.3781 -0.2738
 1867TIP3    H2 5566   6.464   6.609   4.162  0.5037 -0.1571 -0.3400
 1868TIP3   OH2 5567   4.103   0.385   5.658 -0.0054 -0.5202  0.7600
 1868TIP3    H1 5568   4.041   0.362   5.727 -0.4488 -0.7604  0.2872
 1868TIP3    H2 5569   4.052   0.379   5.577  0.7939 -1.3733  0.3048
 1869TIP3   OH2 5570   7.175   3.130   1.540  0.0925  0.4777  0.2714
 1869TIP3    H1 5571   7.116   3.100   1.470  0.7510 -0.2511  0.0097
 1869TIP3    H2 5572   7.129   3.204   1.580  0.2647  1.7647 -1.7721
 1870TIP3   OH2 5573   6.301   6.369   0.342 -0.2927 -0.1182  0.5251
 1870TIP3    H1 5574   6.358   6.391   0.416 -0.0689 -1.5186  0.8048
 1870TIP3    H2 5575   6.361   6.354   0.269 -0.3869 -0.3872  0.5015
 1871TIP3   OH2 5576   7.128   0.592   4.077  0.7622  0.0637 -0.2414
 1871TIP3    H1 5577   7.133   0.514   4.022  0.7441 -0.4261  0.4457
 1871TIP3    H2 5578   7.070   0.651   4.028 -0.3125 -0.8729 -0.1381
 1872TIP3   OH2 5579   3.471   1.940   5.135 -0.0183 -0.2113  0.5161
 1872TIP3    H1 5580   3.432   2.013   5.184 -0.0397  0.1325 -0.0044
 1872TIP3    H2 5581   3.562   1.965   5.122 -0.2295  0.0999 -0.3752
 1873TIP3   OH2 5582   4.293   3.339   2.992 -0.1009 -0.3876  0.3710
 1873TIP3    H1 5583   4.225   3.276   3.016 -1.7818  0.8701 -0.8335
 1873TIP3    H2 5584   4.331   3.367   3.075 -2.2470  0.1209  1.2524
 1874TIP3   OH2 5585   2.036   0.707   4.069  0.4239  0.2291  0.1097
 1874TIP3    H1 5586   1.947   0.686   4.042  0.0470  1.2427  0.5285
 1874TIP3    H2 5587   2.054   0.792   4.031  1.5004 -0.2815 -0.5909
 1875TIP3   OH2 5588   2.810   6.673   3.767  0.1055 -0.2391  0.4197
 1875TIP3    H1 5589   2.904   6.672   3.787  0.5865 -0.2883 -1.6934
 1875TIP3    H2 5590   2.796   6.596   3.713 -0.8615  0.5079 -0.4331
 1876TIP3   OH2 5591   3.488   2.884   0.849  0.0676 -0.1220  0.0532
 1876TIP3    H1 5592   3.449   2.803   0.882  0.0252  0.0769  0.4969
 1876TIP3    H2 5593   3.566   2.897   0.904 -1.4827  1.6776  1.9841
 1877TIP3   OH2 5594   6.155   1.577   2.918 -0.0744 -0.1257  0.1484
 1877TIP3    H1 5595   6.140   1.524   2.996 -1.5182  0.4474  0.3064
 1877TIP3    H2 5596   6.240   1.549   2.885  0.4973 -0.4855  1.8355
 1878TIP3   OH2 5597   3.051   2.879   0.479  0.2484 -0.1058 -0.0870
 1878TIP3    H1 5598   3.083   2.899   0.567 -1.3205 -1.3264  0.8113
 1878TIP3    H2 5599   3.093   2.796   0.456  0.0545 -0.1862 -0.1568
 1879TIP3   OH2 5600   3.902   4.664   3.493 -0.3767 -0.0828  0.1391
 1879TIP3    H1 5601   3.867   4.752   3.507 -0.3057 -0.2023  1.1534
 1879TIP3    H2 5602   3.826   4.610   3.470 -0.4584  0.1774 -0.2167
 1880TIP3   OH2 5603   1.979   2.776   2.817  0.4797  0.2172  0.1362
 1880TIP3    H1 5604   1.982   2.855   2.871  1.2947  0.8561 -0.8218
 1880TIP3    H2 5605   1.890   2.775   2.780 -0.0800 -0.2200  1.4420
 1881TIP3   OH2 5606   6.714   1.867   2.346 -0.2511 -0.0814  0.0519
 1881TIP3    H1 5607   6.664   1.947   2.326 -1.6345 -0.8390  0.3809
 1881TIP3    H2 5608   6.736   1.832   2.260 -0.4395  0.1610 -0.0989
 1882TIP3   OH2 5609   2.055   4.244   3.426  0.4110 -0.0600  0.5132
 1882TIP3    H1 5610   1.999   4.177   3.467  0.9063 -0.9468 -0.2047
 1882TIP3    H2 5611   2.022   4.250   3.336  1.8043 -1.0249 -0.0973
 1883TIP3   OH2 5612   6.456   4.483   2.570 -0.3653  0.3560 -0.2091
 1883TIP3    H1 5613   6.473   4.397   2.609 -0.7269  0.0940 -0.6124
 1883TIP3    H2 5614   6.543   4.517   2.548 -0.1014  0.8268  1.4454
 1884TIP3   OH2 5615   4.923   6.195   1.783  0.3934  0.1446  0.0559
 1884TIP3    H1 5616   4.912   6.218   1.875 -0.7860 -0.8260  0.1821
 1884TIP3    H2 5617   4.872   6.261   1.735 -1.2024 -0.8588  0.2885
 1885TIP3   OH2 5618   3.406   2.122   3.793  0.0311  0.0947 -0.0765
 1885TIP3    H1 5619   3.314   2.094   3.798 -0.2157  1.0161  0.7412
 1885TIP3    H2 5620   3.409   2.182   3.718  0.7202 -2.5326 -2.3453
 1886TIP3   OH2 5621   0.399   2.009   1.573 -0.2262  0.6791 -0.4495
 1886TIP3    H1 5622   0.386   2.094   1.615 -0.8792  0.1948  0.3481
 1886TIP3    H2 5623   0.448   2.029   1.493 -1.2216  1.9285 -0.7732
 1887TIP3   OH2 5624   3.805   2.517   2.496  0.9050 -0.0417 -0.0557
 1887TIP3    H1 5625   3.815   2.570   2.417 -2.1694 -1.2250 -1.4093
 1887TIP3    H2 5626   3.758   2.574   2.557  1.4951  0.2085  0.1702
 1888TIP3   OH2 5627   4.838   5.180   4.096  0.0704  0.1012  0.7108
 1888TIP3    H1 5628   4.891   5.251   4.135 -0.6929  1.1448 -0.0958
 1888TIP3    H2 5629   4.790   5.143   4.170 -0.4568  1.2607  0.9724
 1889TIP3   OH2 5630   3.027   5.751   3.747 -0.2851  0.3388  0.2362
 1889TIP3    H1 5631   3.058   5.677   3.799  0.8483  0.2751 -0.5104
 1889TIP3    H2 5632   3.087   5.756   3.672 -1.0653  1.2693 -0.3553
 1890TIP3   OH2 5633   3.755   3.870   3.706 -0.1096 -0.5436  0.4628
 1890TIP3    H1 5634   3.685   3.830   3.654 -0.7961 -1.1532  1.7814
 1890TIP3    H2 5635   3.801   3.928   3.645  0.7638 -3.1156 -1.5123
 1891TIP3   OH2 5636   1.434   2.722   1.524  0.2188  0.0149 -0.3436
 1891TIP3    H1 5637   1.425   2.628   1.510 -1.9553 -0.1210  1.3860
 1891TIP3    H2 5638   1.368   2.761   1.466  0.0160  0.3307  0.0910
 1892TIP3   OH2 5639   6.744   0.255   1.476  0.1009 -0.5410 -0.7505
 1892TIP3    H1 5640   6.725   0.306   1.398 -1.4232 -1.8605 -1.2996
 1892TIP3    H2 5641   6.658   0.234   1.513  0.6965 -2.0113 -0.1160
 1893TIP3   OH2 5642   5.256   4.599   4.902  0.8520 -0.5045  0.9906
 1893TIP3    H1 5643   5.235   4.621   4.811  1.8214 -0.0031  0.8707
 1893TIP3    H2 5644   5.205   4.520   4.920  0.0623 -0.1856  0.2572
 1894TIP3   OH2 5645   6.453   4.446   5.673  0.1660  0.9383 -0.5907
 1894TIP3    H1 5646   6.506   4.404   5.605  0.4257  1.1663 -0.5292
 1894TIP3    H2 5647   6.369   4.401   5.669  0.9555 -0.7627  0.5812
 1895TIP3   OH2 5648   1.649   0.402   4.879 -0.1633  0.1664  0.0894
 1895TIP3    H1 5649   1.646   0.308   4.861 -0.3716  0.0565  0.6857
 1895TIP3    H2 5650   1.714   0.411   4.949  0.6562  0.5919 -0.7042
 1896TIP3   OH2 5651   6.680   5.114   3.247  0.4502 -0.2397 -0.3257
 1896TIP3    H1 5652   6.645   5.038   3.293  0.9565  0.5956  1.5034
 1896TIP3    H2 5653   6.608   5.177   3.248  0.5821 -0.0884 -0.3810
 1897TIP3   OH2 5654   1.586   4.807   1.028  1.1887 -0.3730 -0.6913
 1897TIP3    H1 5655   1.644   4.870   0.985 -0.7442  1.0714 -1.3151
 1897TIP3    H2 5656   1.518   4.861   1.068  0.0520 -2.0163 -0.3283
 1898TIP3   OH2 5657   6.908   3.007   2.232  0.8894  0.0077  0.1968
 1898TIP3    H1 5658   6.922   3.065   2.307  0.4058  0.1197  0.2022
 1898TIP3    H2 5659   6.916   2.919   2.268 -0.6949  0.0249  0.6782
 1899TIP3   OH2 5660   1.976   2.475   2.140 -0.1382  0.1251  0.0722
 1899TIP3    H1 5661   2.071   2.464   2.133 -0.2189  0.0379 -0.9637
 1899TIP3    H2 5662   1.940   2.391   2.114 -0.5192  0.2619  0.1470
 1900TIP3   OH2 5663  -0.020   0.714   0.997 -0.2935  0.5995 -0.2254
 1900TIP3    H1 5664   0.059   0.746   0.954  1.0441  0.0710  1.6948
 1900TIP3    H2 5665  -0.022   0.759   1.081  1.8033 -4.0385  2.7473
 1901TIP3   OH2 5666   5.448   0.624   4.192 -0.2205  0.0274 -0.6150
 1901TIP3    H1 5667   5.457   0.529   4.202  1.9454  0.3871  1.9246
 1901TIP3    H2 5668   5.354   0.637   4.176 -0.7460 -2.4582 -0.0820
 1902TIP3   OH2 5669   4.592   5.028   4.901 -0.3987  0.2610  0.1195
 1902TIP3    H1 5670   4.686   5.044   4.906 -0.0324 -1.9168  2.4518
 1902TIP3    H2 5671   4.553   5.090   4.963 -0.8175  2.4531 -2.1851
 1903TIP3   OH2 5672   3.376   5.215   1.815 -0.3737 -0.5697 -0.3139
 1903TIP3    H1 5673   3.360   5.223   1.721  0.3826 -0.1313 -0.4084
 1903TIP3    H2 5674   3.464   5.180   1.822 -0.0673  0.2869  0.2442
 1904TIP3   OH2 5675   5.835   5.226   2.734 -0.2393 -0.0893  0.5921
 1904TIP3    H1 5676   5.761   5.241   2.792  1.5962  0.1423  3.0472
 1904TIP3    H2 5677   5.830   5.132   2.713 -0.4080 -0.4271  2.0055
 1905TIP3   OH2 5678   2.189   4.501   0.131 -0.2841  0.0063 -0.1856
 1905TIP3    H1 5679   2.125   4.462   0.071 -0.1777 -0.6749  0.1357
 1905TIP3    H2 5680   2.192   4.594   0.106  0.5669 -0.4634 -1.9578
 1906TIP3   OH2 5681   4.768   6.419   2.318 -0.1873  0.0557 -0.3639
 1906TIP3    H1 5682   4.722   6.475   2.254  0.5633 -1.2413 -2.1296
 1906TIP3    H2 5683   4.790   6.340   2.269  2.2375 -0.1708  0.9192
 1907TIP3   OH2 5684   5.155   0.617   2.453  0.5491  0.3961  0.0638
 1907TIP3    H1 5685   5.209   0.696   2.448 -0.9465  1.4234 -0.7438
 1907TIP3    H2 5686   5.134   0.608   2.546 -0.8013  2.0900 -0.0255
 1908TIP3   OH2 5687   6.996   4.473   1.729 -0.2243  0.4127 -0.6437
 1908TIP3    H1 5688   6.933   4.533   1.690  0.8683  0.9913 -1.5696
 1908TIP3    H2 5689   7.053   4.528   1.782  1.0056  0.3031 -1.7841
 1909TIP3   OH2 5690   1.543   1.977   4.314 -0.3016 -0.5469 -0.1125
 1909TIP3    H1 5691   1.517   1.909   4.376  2.1396 -0.6939  0.8501
 1909TIP3    H2 5692   1.562   1.930   4.233  1.3924 -1.0793  0.5524
 1910TIP3   OH2 5693   6.989   5.840   2.049  0.1125 -0.1593  0.2461
 1910TIP3    H1 5694   6.993   5.785   1.970 -1.1769 -1.5804  1.1180
 1910TIP3    H2 5695   6.896   5.845   2.070  0.2368  2.0121  0.4898
 1911TIP3   OH2 5696   3.384   1.349   3.795 -0.0056 -0.1502 -0.2925
 1911TIP3    H1 5697   3.326   1.349   3.718  0.6923  2.1032 -0.8918
 1911TIP3    H2 5698   3.325   1.363   3.869 -0.3695  1.0744 -0.7876
 1912TIP3   OH2 5699   6.814   3.828   4.730 -0.0195 -0.4119 -0.4215
 1912TIP3    H1 5700   6.849   3.742   4.709 -2.1521 -1.5156  0.3029
 1912TIP3    H2 5701   6.821   3.835   4.825  0.8628  0.5659 -0.5428
 1913TIP3   OH2 5702   6.444   1.172   2.606 -0.3182  0.5293  0.3055
 1913TIP3    H1 5703   6.479   1.261   2.601  0.5854  0.1660 -0.0652
 1913TIP3    H2 5704   6.519   1.117   2.628 -0.8984 -0.1266  0.7081
 1914TIP3   OH2 5705   6.121   2.383   1.478  0.5949 -0.2509 -0.1129
 1914TIP3    H1 5706   6.110   2.350   1.567  0.9750 -3.3408 -1.1054
 1914TIP3    H2 5707   6.208   2.423   1.478  0.2965  0.4595  1.0399
 1915TIP3   OH2 5708   3.100   0.369   3.439 -0.1979 -0.3169  0.0067
 1915TIP3    H1 5709   3.082   0.283   3.477 -0.9301 -0.1974 -0.0604
 1915TIP3    H2 5710   3.018   0.417   3.448 -0.4536 -0.3403 -1.8746
 1916TIP3   OH2 5711   5.592   2.617   1.017 -0.0078  0.5212  0.1356
 1916TIP3    H1 5712   5.508   2.581   1.042  0.5524 -0.3622  0.8161
 1916TIP3    H2 5713   5.626   2.658   1.097  0.2952  0.6868 -0.0753
 1917TIP3   OH2 5714   7.046   0.400   5.708  0.1772 -0.0028 -0.5802
 1917TIP3    H1 5715   7.070   0.490   5.732 -2.0146 -0.3250  3.8742
 1917TIP3    H2 5716   7.051   0.399   5.612  0.7424  4.7115 -0.8677
 1918TIP3   OH2 5717   0.504   6.666   5.369 -0.3653  0.4918  0.1956
 1918TIP3    H1 5718   0.462   6.589   5.407  0.7257 -0.5156 -0.5707
 1918TIP3    H2 5719   0.448   6.691   5.296  1.1934 -2.0115 -2.0499
 1919TIP3   OH2 5720   5.902   1.699   3.594 -0.2596 -0.7599 -0.5426
 1919TIP3    H1 5721   5.956   1.773   3.564 -1.3161  0.1076 -0.3674
 1919TIP3    H2 5722   5.964   1.627   3.601  0.6943 -0.0704 -1.3504
 1920TIP3   OH2 5723   3.722   0.561   0.389  0.1898  0.0857 -0.1253
 1920TIP3    H1 5724   3.655   0.499   0.362 -0.9545  0.9449  0.6391
 1920TIP3    H2 5725   3.767   0.518   0.462  0.8943 -0.7374 -1.0182
 1921TIP3   OH2 5726   1.347   6.421   2.511  0.2619  0.3822  0.2201
 1921TIP3    H1 5727   1.263   6.374   2.511  0.5771 -0.2418  1.5166
 1921TIP3    H2 5728   1.368   6.433   2.419  0.6412 -2.9426 -0.2478
 1922TIP3   OH2 5729   6.113   0.115   4.697  0.4600  0.1601 -0.2520
 1922TIP3    H1 5730   6.127   0.170   4.774 -0.7026  0.9539 -0.5951
 1922TIP3    H2 5731   6.020   0.122   4.679 -0.0559 -3.0770  0.5504
 1923TIP3   OH2 5732   2.914   1.683   4.403 -0.5247  0.3484  0.6495
 1923TIP3    H1 5733   2.842   1.663   4.463 -0.8704 -0.3182  0.0334
 1923TIP3    H2 5734   2.873   1.728   4.329 -0.3450 -0.1910  0.2128
 1924TIP3   OH2 5735   6.886   0.292   2.767  0.2686 -0.0933 -0.1172
 1924TIP3    H1 5736   6.831   0.368   2.783 -0.0467  0.0147 -1.5835
 1924TIP3    H2 5737   6.975   0.326   2.765  0.4916 -0.3165  2.5790
 1925TIP3   OH2 5738   5.780   3.896   4.380  0.0026 -0.1369 -0.1277
 1925TIP3    H1 5739   5.754   3.807   4.356 -0.5622  0.1038 -0.4108
 1925TIP3    H2 5740   5.747   3.907   4.469 -0.2577 -0.0720 -0.2342
 1926TIP3   OH2 5741   2.943   2.179   0.300  0.0664  0.0585 -0.0205
 1926TIP3    H1 5742   3.034   2.187   0.328  0.1201  1.4936 -0.5242
 1926TIP3    H2 5743   2.948   2.137   0.215  0.2747  0.2304 -0.0955
 1927TIP3   OH2 5744   1.614   3.536   2.126 -0.3692  0.3390  0.0374
 1927TIP3    H1 5745   1.576   3.522   2.039 -1.9604  1.5026  0.4961
 1927TIP3    H2 5746   1.553   3.596   2.169  0.1375 -0.5646  2.1314
 1928TIP3   OH2 5747   5.961   3.651   3.178  0.0252  0.5469 -0.0615
 1928TIP3    H1 5748   5.867   3.657   3.197 -0.0021  0.3063 -0.1198
 1928TIP3    H2 5749   5.981   3.558   3.186  0.5029  0.7301  1.0852
 1929TIP3   OH2 5750   4.012   2.582   0.197  0.0245 -0.0231 -0.0251
 1929TIP3    H1 5751   4.009   2.635   0.277 -2.3034 -0.4198  0.2097
 1929TIP3    H2 5752   4.045   2.642   0.130  0.6096  0.7407  0.9236
 1930TIP3   OH2 5753   2.093   2.838   3.191  0.4099 -0.3370 -0.0079
 1930TIP3    H1 5754   2.086   2.814   3.283  0.3619 -0.2185  0.0201
 1930TIP3    H2 5755   2.087   2.755   3.143  2.8857 -0.7108  0.1918
 1931TIP3   OH2 5756   7.044   4.083   2.755  0.1298 -0.1416 -0.2104
 1931TIP3    H1 5757   7.001   4.161   2.790 -1.0623 -1.1718  0.7296
 1931TIP3    H2 5758   6.974   4.035   2.710  0.8238 -0.7040 -0.7104
 1932TIP3   OH2 5759   1.921   3.187   5.094  0.2995 -0.7378  0.0797
 1932TIP3    H1 5760   1.969   3.222   5.018  0.6109 -0.1077  0.5589
 1932TIP3    H2 5761   1.873   3.112   5.059  0.5209 -0.5190 -0.7221
 1933TIP3   OH2 5762   0.365   4.402   1.736  0.0775  0.3385  0.4019
 1933TIP3    H1 5763   0.400   4.401   1.647  2.5598  2.5114  1.2122
 1933TIP3    H2 5764   0.433   4.446   1.788 -1.7705  0.1911  3.1604
 1934TIP3   OH2 5765   4.981   4.160   1.514 -0.0178 -0.3890  0.7338
 1934TIP3    H1 5766   4.915   4.095   1.540 -2.1922  1.3567 -0.0292
 1934TIP3    H2 5767   4.944   4.244   1.541  2.1234  0.6613  0.6157
 1935TIP3   OH2 5768   4.095   1.587   2.885  0.2914 -0.3182 -0.2306
 1935TIP3    H1 5769   4.011   1.631   2.895  0.9144  0.9235 -0.2444
 1935TIP3    H2 5770   4.152   1.653   2.846  2.1928  0.0400  2.7965
 1936TIP3   OH2 5771   0.745   1.841   4.792  0.0799  0.7327  0.1719
 1936TIP3    H1 5772   0.827   1.847   4.743  0.3452  1.5491  0.6935
 1936TIP3    H2 5773   0.741   1.923   4.841 -1.5684  1.1770 -0.6545
 1937TIP3   OH2 5774   6.971   0.921   0.277  0.6400 -0.1157 -0.1979
 1937TIP3    H1 5775   6.883   0.892   0.257  0.8230  0.1560 -1.4955
 1937TIP3    H2 5776   7.002   0.862   0.345 -0.6118 -0.0745  0.4158
 1938TIP3   OH2 5777   5.030   1.088   1.498 -0.0611  0.2057 -0.4938
 1938TIP3    H1 5778   4.971   1.076   1.423 -2.4276 -2.3706  1.5179
 1938TIP3    H2 5779   4.985   1.153   1.553 -0.9287 -1.4361  0.8375
 1939TIP3   OH2 5780   3.335   0.896   1.742 -0.2185 -0.2991  0.3377
 1939TIP3    H1 5781   3.426   0.905   1.712 -0.3669 -1.7070 -0.6253
 1939TIP3    H2 5782   3.287   0.961   1.691  0.2974  0.7944  1.2007
 1940TIP3   OH2 5783   2.606   0.651   1.704 -0.2242 -0.2044  0.0453
 1940TIP3    H1 5784   2.669   0.586   1.735 -1.4259 -0.8091  1.3081
 1940TIP3    H2 5785   2.581   0.700   1.782 -0.1557  1.0764 -0.7106
 1941TIP3   OH2 5786   1.408   4.911   1.201  0.3146 -0.2912 -0.4288
 1941TIP3    H1 5787   1.366   4.828   1.178  0.2405  0.2583 -2.4091
 1941TIP3    H2 5788   1.358   4.943   1.276 -0.4080 -1.4547 -0.3947
 1942TIP3   OH2 5789   0.693   0.383   4.159  0.4299  0.0878  0.6978
 1942TIP3    H1 5790   0.604   0.350   4.169 -0.3960  1.6766 -0.7749
 1942TIP3    H2 5791   0.729   0.334   4.084  0.1158  0.7030  0.1325
 1943TIP3   OH2 5792   3.438   5.531   3.887  0.0045 -0.1630  0.0500
 1943TIP3    H1 5793   3.420   5.531   3.980  0.7955 -0.6648  0.2180
 1943TIP3    H2 5794   3.483   5.614   3.871 -2.2157  1.0210 -0.3451
 1944TIP3   OH2 5795   5.017   6.693   2.657  0.0680 -0.2101  0.1617
 1944TIP3    H1 5796   5.084   6.643   2.704  0.9130  1.0890  0.3861
 1944TIP3    H2 5797   4.969   6.627   2.606  1.8447 -1.1142 -0.4111
 1945TIP3   OH2 5798   5.283   6.803   2.687 -0.2506 -0.1635  0.0122
 1945TIP3    H1 5799   5.246   6.724   2.727 -2.0062  0.4362 -0.3603
 1945TIP3    H2 5800   5.367   6.774   2.650 -0.8408 -1.8401 -0.0848
 1946TIP3   OH2 5801   0.293   4.869   4.614 -0.0154 -0.4573 -0.1114
 1946TIP3    H1 5802   0.343   4.897   4.538 -0.4108  0.0335 -0.1951
 1946TIP3    H2 5803   0.348   4.891   4.689  0.8526 -1.9311 -0.2857
 1947TIP3   OH2 5804   5.694   5.085   5.467 -0.4350  0.1474  0.2169
 1947TIP3    H1 5805   5.677   5.011   5.408 -0.9964  0.5664 -0.1614
 1947TIP3    H2 5806   5.776   5.122   5.434 -0.3332 -0.0997  0.1896
 1948TIP3   OH2 5807   4.198   1.708   5.160  0.0154  0.4337 -0.2039
 1948TIP3    H1 5808   4.171   1.631   5.110  1.5394 -1.2402  1.3600
 1948TIP3    H2 5809   4.258   1.755   5.103 -0.7663  0.3562 -1.1070
 1949TIP3   OH2 5810   1.458   5.819   4.134 -0.0583 -0.4506 -0.2224
 1949TIP3    H1 5811   1.389   5.759   4.106 -1.5157 -0.7607  3.5125
 1949TIP3    H2 5812   1.420   5.906   4.126  0.4594 -0.3187 -1.4705
 1950TIP3   OH2 5813   4.637   6.149   1.157  0.3430  0.4455 -0.6111
 1950TIP3    H1 5814   4.696   6.124   1.086 -0.8364  1.7022 -2.0873
 1950TIP3    H2 5815   4.689   6.135   1.237  1.9083 -0.4234 -1.7300
 1951TIP3   OH2 5816   4.371   2.503   0.288 -0.9776 -0.1491 -0.8644
 1951TIP3    H1 5817   4.354   2.588   0.329  0.1428 -0.1410 -0.3771
 1951TIP3    H2 5818   4.352   2.439   0.356  1.0259 -0.1278 -0.2300
 1952TIP3   OH2 5819   4.132   3.471   4.679  0.1025  0.9241  0.4352
 1952TIP3    H1 5820   4.201   3.406   4.668  1.3180  2.0979  0.9084
 1952TIP3    H2 5821   4.061   3.440   4.622  1.0501 -0.2410 -0.1540
 1953TIP3   OH2 5822   2.446   3.753   3.045  0.2096  0.9667  0.0581
 1953TIP3    H1 5823   2.435   3.658   3.059  4.5731  0.4800  1.9698
 1953TIP3    H2 5824   2.359   3.784   3.023 -2.0207 -3.0906  1.9657
 1954TIP3   OH2 5825   2.196   3.625   2.794  0.8817 -0.8418 -0.2212
 1954TIP3    H1 5826   2.131   3.666   2.737  1.2443  0.8548  0.5309
 1954TIP3    H2 5827   2.145   3.591   2.868  0.4880 -2.4993 -1.1943
 1955TIP3   OH2 5828   2.889   1.496   2.067  0.3081 -0.4274 -0.1548
 1955TIP3    H1 5829   2.850   1.466   2.149  1.7226  0.4775  0.9039
 1955TIP3    H2 5830   2.892   1.418   2.012 -0.2132 -1.1749  0.8443
 1956TIP3   OH2 5831   0.997   0.366   2.661 -0.7281 -0.4425  0.0566
 1956TIP3    H1 5832   1.073   0.325   2.703 -0.8050 -0.1347  0.5064
 1956TIP3    H2 5833   0.937   0.384   2.734 -1.0385 -0.2726 -0.2396
 1957TIP3   OH2 5834   0.345   4.756   3.394 -0.7465  0.1404 -0.4015
 1957TIP3    H1 5835   0.295   4.812   3.454 -0.6472  0.6435 -0.7767
 1957TIP3    H2 5836   0.408   4.711   3.450 -1.5859 -0.4627  0.0686
 1958TIP3   OH2 5837   1.661   2.514   3.336 -0.2123 -0.1095  0.2027
 1958TIP3    H1 5838   1.680   2.560   3.418  1.7114 -0.7145  0.1519
 1958TIP3    H2 5839   1.672   2.579   3.268 -2.8734  0.6812  0.4090
 1959TIP3   OH2 5840   6.747   3.143   1.475 -0.9908 -0.2794 -0.8422
 1959TIP3    H1 5841   6.740   3.126   1.569 -1.2541  0.6434 -0.6863
 1959TIP3    H2 5842   6.657   3.153   1.446 -0.8598  0.7410 -0.9336
 1960TIP3   OH2 5843   2.521   4.920   5.166  0.2751  0.1807  0.4391
 1960TIP3    H1 5844   2.548   5.011   5.169  3.4947 -0.6113 -0.6883
 1960TIP3    H2 5845   2.595   4.871   5.203 -0.7260 -2.0869 -0.3419
 1961TIP3   OH2 5846   1.059   3.975   0.827 -0.2478  0.0811  0.0076
 1961TIP3    H1 5847   1.039   3.884   0.802 -2.8168  0.7898 -0.8059
 1961TIP3    H2 5848   1.014   4.028   0.761  2.1214  1.9907 -0.2029
 1962TIP3   OH2 5849   4.817   5.019   1.383  0.7755  0.1458  0.1548
 1962TIP3    H1 5850   4.809   5.031   1.288  1.3155  0.8853  0.1968
 1962TIP3    H2 5851   4.817   4.924   1.395  0.5355  0.0440 -0.5664
 1963TIP3   OH2 5852   6.467   3.092   3.619 -0.3827 -0.0605 -0.3440
 1963TIP3    H1 5853   6.434   3.161   3.676  0.4218  1.2997 -1.4569
 1963TIP3    H2 5854   6.457   3.012   3.670 -0.0843  1.0387  1.5279
 1964TIP3   OH2 5855   1.828   0.139   5.103  0.1057  0.5890  0.2456
 1964TIP3    H1 5856   1.893   0.088   5.152  2.0974  0.5528 -2.2507
 1964TIP3    H2 5857   1.800   0.080   5.033 -1.1419  1.3266  0.1083
 1965TIP3   OH2 5858   3.701   2.368   5.408  0.3066  0.0309  0.6515
 1965TIP3    H1 5859   3.720   2.312   5.483 -0.1222 -0.9222  0.0716
 1965TIP3    H2 5860   3.645   2.314   5.351 -0.6289  1.2583  0.3576
 1966TIP3   OH2 5861   3.888   1.320   0.033  0.3683  0.3150 -0.2726
 1966TIP3    H1 5862   3.826   1.362  -0.027  0.8186  0.8683 -0.3640
 1966TIP3    H2 5863   3.914   1.391   0.093  0.2645 -0.1216  0.2965
 1967TIP3   OH2 5864   0.505   2.465   3.482  0.7349 -0.0391  0.2783
 1967TIP3    H1 5865   0.437   2.532   3.478  0.9293  0.1287 -0.3404
 1967TIP3    H2 5866   0.466   2.388   3.441  0.8283 -0.0199  0.1517
 1968TIP3   OH2 5867   6.803   1.403   2.879 -0.0585 -0.0598 -0.0131
 1968TIP3    H1 5868   6.732   1.435   2.935  0.0768  0.3019 -0.0468
 1968TIP3    H2 5869   6.789   1.309   2.874 -0.7144  0.0440 -0.2583
 1969TIP3   OH2 5870   3.674   3.887   2.716  0.6976 -0.3762 -0.2784
 1969TIP3    H1 5871   3.658   3.972   2.758  0.6921 -1.0261  1.1093
 1969TIP3    H2 5872   3.729   3.907   2.641 -1.7791  1.2472 -1.8212
 1970TIP3   OH2 5873   0.321   2.523   5.273 -0.2094  0.1131 -0.1204
 1970TIP3    H1 5874   0.339   2.617   5.266  1.0095 -0.1392 -0.6883
 1970TIP3    H2 5875   0.381   2.482   5.211  0.7299 -1.1908  1.5325
 1971TIP3   OH2 5876   0.859   3.444   5.023  0.4470  0.2017 -0.2605
 1971TIP3    H1 5877   0.863   3.423   4.930 -0.1076 -0.0150 -0.2409
 1971TIP3    H2 5878   0.842   3.360   5.066 -0.6512  0.4913 -0.0908
 1972TIP3   OH2 5879   0.188   4.890   3.557 -0.0976 -0.0860  0.4523
 1972TIP3    H1 5880   0.129   4.965   3.567  0.7377  0.5737  0.5508
 1972TIP3    H2 5881   0.165   4.833   3.631 -0.0832  0.5368  0.9537
 1973TIP3   OH2 5882   7.115   5.641   3.528 -0.1460 -0.2411 -0.4961
 1973TIP3    H1 5883   7.146   5.675   3.444  1.0911 -0.2979 -0.0913
 1973TIP3    H2 5884   7.071   5.715   3.569 -0.8413 -0.2410 -1.2294
 1974TIP3   OH2 5885   1.803   4.964   0.904 -0.2897  0.5619 -0.8889
 1974TIP3    H1 5886   1.825   4.875   0.875 -0.7851 -0.1484  0.7631
 1974TIP3    H2 5887   1.829   5.020   0.831  1.1367 -0.8244 -1.5156
 1975TIP3   OH2 5888   5.447   5.578   5.457 -0.1984 -0.6699 -0.0026
 1975TIP3    H1 5889   5.432   5.528   5.537  3.9516 -0.6584  0.9745
 1975TIP3    H2 5890   5.489   5.517   5.397  3.0009  0.8934  0.4447
 1976TIP3   OH2 5891   6.507   4.322   1.754  0.1269 -0.1728 -0.0713
 1976TIP3    H1 5892   6.484   4.390   1.690 -1.7878 -0.7069 -0.0003
 1976TIP3    H2 5893   6.550   4.370   1.825 -0.4575  0.8496 -0.3839
 1977TIP3   OH2 5894   1.125   0.469   4.607  0.1536  0.3512  0.0840
 1977TIP3    H1 5895   1.145   0.541   4.547  0.7479 -0.7604 -1.0900
 1977TIP3    H2 5896   1.144   0.505   4.694  1.4221  1.2971 -0.5479
 1978TIP3   OH2 5897   0.693   5.124   4.500  0.0492 -0.1222 -0.3483
 1978TIP3    H1 5898   0.635   5.199   4.492 -1.4039 -1.0295  1.1214
 1978TIP3    H2 5899   0.772   5.150   4.452 -0.2278  2.4990  0.4483
 1979TIP3   OH2 5900   6.472   5.914   0.193 -0.5039 -0.3203 -0.1549
 1979TIP3    H1 5901   6.531   5.890   0.265 -0.3515  0.1298 -0.1275
 1979TIP3    H2 5902   6.385   5.891   0.226 -0.3528 -1.0146 -0.2068
 1980TIP3   OH2 5903   4.377   3.681   1.108  0.1141  0.3929 -0.6402
 1980TIP3    H1 5904   4.314   3.752   1.104  0.2473  0.5539 -0.0893
 1980TIP3    H2 5905   4.462   3.724   1.103  0.1890  0.2325 -0.7672
 1981TIP3   OH2 5906   0.587   5.695   1.402  0.2777  0.4463 -0.4034
 1981TIP3    H1 5907   0.557   5.618   1.354  0.9927  0.2769 -0.5918
 1981TIP3    H2 5908   0.609   5.662   1.489 -0.2732  0.6112 -0.1946
 1982TIP3   OH2 5909   4.384   1.839   4.021  0.1081 -0.4105 -0.1737
 1982TIP3    H1 5910   4.353   1.867   4.107 -3.5634 -3.5575 -0.2167
 1982TIP3    H2 5911   4.311   1.858   3.962  2.0094  0.4194 -2.4406
 1983TIP3   OH2 5912   0.947   0.358   0.907  0.1060 -0.6153 -0.1915
 1983TIP3    H1 5913   0.911   0.416   0.840 -0.4203 -0.0929  0.5317
 1983TIP3    H2 5914   0.988   0.417   0.970  0.9149 -1.1233 -0.2278
 1984TIP3   OH2 5915   6.259   6.440   1.629  0.4303 -0.4570  0.2509
 1984TIP3    H1 5916   6.262   6.415   1.722  0.2527 -0.6308  0.2093
 1984TIP3    H2 5917   6.175   6.485   1.620  0.5068 -0.3226  0.2026
 1985TIP3   OH2 5918   3.951   0.626   3.910 -0.3714 -0.2873 -0.1370
 1985TIP3    H1 5919   3.947   0.589   3.822 -0.5541  0.1958 -0.3330
 1985TIP3    H2 5920   3.894   0.703   3.907 -1.8532 -1.2690  0.8950
 1986TIP3   OH2 5921   4.133   6.051   4.112 -0.4918 -0.3248  0.1741
 1986TIP3    H1 5922   4.102   6.141   4.111 -0.3491 -0.2735  0.4469
 1986TIP3    H2 5923   4.059   6.001   4.148 -1.2517 -0.5765 -1.6096
 1987TIP3   OH2 5924   0.069   4.919   0.177  0.0411  0.1443 -0.7723
 1987TIP3    H1 5925   0.111   4.986   0.230 -0.5426  0.5494 -0.8134
 1987TIP3    H2 5926   0.114   4.923   0.093  1.7563 -1.2798  0.0097
 1988TIP3   OH2 5927   1.246   1.980   0.100  0.1506  0.0558 -0.1810
 1988TIP3    H1 5928   1.296   1.998   0.021 -1.2967  0.6809 -0.9706
 1988TIP3    H2 5929   1.272   1.891   0.124  0.8356 -0.0282 -1.1711
 1989TIP3   OH2 5930   6.001   4.396   5.270  0.2768 -0.5359  0.2632
 1989TIP3    H1 5931   5.974   4.443   5.349  1.2307  1.5646 -0.5784
 1989TIP3    H2 5932   5.920   4.373   5.226 -0.2541  1.1397  0.2921
 1990TIP3   OH2 5933   1.288   2.967   5.519  0.5365 -0.5606  0.0633
 1990TIP3    H1 5934   1.334   3.044   5.487  0.9639 -1.2252 -0.9712
 1990TIP3    H2 5935   1.324   2.951   5.606 -0.3966  1.0765  0.7958
 1991TIP3   OH2 5936   1.042   5.569   3.355  0.5813  0.1263 -0.1495
 1991TIP3    H1 5937   1.077   5.608   3.275  1.1764 -0.5902 -0.2450
 1991TIP3    H2 5938   1.093   5.609   3.426  0.9683 -0.2334 -0.2239
 1992TIP3   OH2 5939   0.985   2.266   3.048 -0.0303 -0.3058  0.2838
 1992TIP3    H1 5940   1.080   2.262   3.038 -0.0385 -1.1068  0.4274
 1992TIP3    H2 5941   0.955   2.323   2.977  0.4541 -1.0160 -0.5068
 1993TIP3   OH2 5942   0.372   1.013   0.917 -0.2682 -0.0759 -0.2564
 1993TIP3    H1 5943   0.304   1.079   0.929 -0.3997 -0.5524  2.0598
 1993TIP3    H2 5944   0.331   0.930   0.943  0.1635 -0.9854 -2.2469
 1994TIP3   OH2 5945   6.366   6.127   0.077 -0.2067  0.1941 -0.7370
 1994TIP3    H1 5946   6.413   6.051   0.112  1.0392  0.5077 -1.6632
 1994TIP3    H2 5947   6.409   6.202   0.117 -1.5098  0.4457  0.2652
 1995TIP3   OH2 5948   4.105   4.044   0.123  0.6192  0.9788 -0.2843
 1995TIP3    H1 5949   4.091   3.959   0.166 -0.1814  1.3931  0.3030
 1995TIP3    H2 5950   4.026   4.094   0.143  0.6300  1.5146 -1.4738
 1996TIP3   OH2 5951   4.083   6.013   2.341  0.6380 -0.0739  0.1246
 1996TIP3    H1 5952   4.153   5.979   2.397  2.0434  1.7007 -0.4653
 1996TIP3    H2 5953   4.127   6.040   2.261 -0.7048  1.1714 -0.2322
 1997TIP3   OH2 5954   1.674   3.535   5.120 -0.6208  0.6881 -0.1249
 1997TIP3    H1 5955   1.591   3.566   5.155 -0.2316  1.4421  0.1443
 1997TIP3    H2 5956   1.716   3.490   5.193  0.0317  1.9489  0.3025
 1998TIP3   OH2 5957   4.526   1.881   5.438  0.4077  0.4998  0.3869
 1998TIP3    H1 5958   4.606   1.934   5.445  0.3563  0.6093  0.1622
 1998TIP3    H2 5959   4.495   1.872   5.528  1.5987 -0.9798  0.6858
 1999TIP3   OH2 5960  -0.006   2.007   5.240  0.2984  0.2080 -0.2714
 1999TIP3    H1 5961   0.083   2.041   5.251  0.9436 -1.4419 -0.2231
 1999TIP3    H2 5962  -0.017   2.000   5.145  0.5164 -0.3434 -0.2561
 2000TIP3   OH2 5963   3.449   2.349   2.860  0.5413  0.1417 -0.0362
 2000TIP3    H1 5964   3.442   2.442   2.836  1.1740  1.7616  4.9637
 2000TIP3    H2 5965   3.359   2.317   2.860  0.2658  0.8530 -1.3307
 2001TIP3   OH2 5966   3.925   4.933   3.434 -0.3793  0.5371  0.5745
 2001TIP3    H1 5967   3.961   4.987   3.505  0.1482 -0.6751  1.2443
 2001TIP3    H2 5968   3.946   4.982   3.354 -0.7985  1.8176  1.2174
 2002TIP3   OH2 5969   0.638   3.839   0.324 -0.2513 -0.0719 -0.1098
 2002TIP3    H1 5970   0.602   3.761   0.366 -0.2767 -0.7886 -1.4189
 2002TIP3    H2 5971   0.635   3.906   0.392 -0.4726 -1.1375  0.9610
 2003TIP3   OH2 5972   6.894   3.741   1.151 -0.5174  0.3056  0.8218
 2003TIP3    H1 5973   6.811   3.787   1.146  0.1678  1.4619 -0.5736
 2003TIP3    H2 5974   6.952   3.788   1.091  0.6581 -1.4888  0.4628
 2004TIP3   OH2 5975   5.850   5.689   2.707 -0.9210 -0.3678 -0.0689
 2004TIP3    H1 5976   5.867   5.751   2.636  0.0348 -0.7705 -0.2052
 2004TIP3    H2 5977   5.829   5.607   2.661  0.1497 -0.7484  0.0999
 2005TIP3   OH2 5978   6.039   6.004   5.001 -0.1285  0.8283  0.2573
 2005TIP3    H1 5979   6.113   6.064   5.013  0.5526  0.2814 -0.9205
 2005TIP3    H2 5980   6.059   5.929   5.058 -0.4121  1.2295  0.8854
 2006TIP3   OH2 5981   4.007   6.007   1.205  0.3426 -0.0719  0.6084
 2006TIP3    H1 5982   3.981   5.931   1.153 -1.7786  0.6023  0.5984
 2006TIP3    H2 5983   3.953   6.002   1.284  0.6097  1.1079  0.8852
 2007TIP3   OH2 5984   0.575   4.250   2.870 -0.3730 -0.3285 -0.0785
 2007TIP3    H1 5985   0.583   4.218   2.780  1.4505  0.6061 -0.2809
 2007TIP3    H2 5986   0.603   4.176   2.924  0.3917 -0.2501 -0.3681
 2008TIP3   OH2 5987   5.495   6.196   2.930 -0.5091  0.2894  0.2922
 2008TIP3    H1 5988   5.487   6.116   2.877  1.2465 -0.9383  1.7504
 2008TIP3    H2 5989   5.586   6.222   2.920 -0.5279  0.8823  1.5145
 2009TIP3   OH2 5990   1.381   5.858   2.588 -0.6801 -0.0561 -0.0610
 2009TIP3    H1 5991   1.435   5.829   2.515  0.9035  0.9446  0.6585
 2009TIP3    H2 5992   1.308   5.796   2.590 -1.0440  0.1882 -2.7618
 2010TIP3   OH2 5993   7.156   4.002   2.244  0.4364 -0.5138  0.1956
 2010TIP3    H1 5994   7.239   4.011   2.198  1.1477  1.1924  1.7174
 2010TIP3    H2 5995   7.180   3.984   2.334 -0.8626 -0.3076  0.6063
 2011TIP3   OH2 5996   0.827   2.644   1.105 -0.0200  0.0443 -0.0130
 2011TIP3    H1 5997   0.868   2.561   1.081 -1.1091 -0.9968  1.5180
 2011TIP3    H2 5998   0.771   2.665   1.031 -0.2906 -0.9782 -0.1139
 2012TIP3   OH2 5999   3.442   6.084   3.136 -0.4260 -0.5929 -0.4398
 2012TIP3    H1 6000   3.366   6.136   3.112 -0.2883 -0.7994 -1.3533
 2012TIP3    H2 6001   3.468   6.039   3.056  2.1116  1.2843 -0.7991
 2013TIP3   OH2 6002   2.811   1.350   1.437 -0.3091 -0.0342  0.1463
 2013TIP3    H1 6003   2.748   1.386   1.500  0.3715 -0.3207  0.9994
 2013TIP3    H2 6004   2.881   1.415   1.433 -0.5176  0.1583 -0.6063
 2014TIP3   OH2 6005   5.420   1.615   0.322  0.1915  0.4840  0.3212
 2014TIP3    H1 6006   5.419   1.525   0.355  0.3334  1.4805  3.3751
 2014TIP3    H2 6007   5.327   1.639   0.319  0.2036  1.4795  3.7018
 2015TIP3   OH2 6008   5.626   1.426   4.361 -0.6157 -0.1689 -0.9066
 2015TIP3    H1 6009   5.678   1.504   4.383 -2.3261  0.6894  0.3513
 2015TIP3    H2 6010   5.644   1.411   4.268 -0.5360  1.9977 -1.3015
 2016TIP3   OH2 6011   2.704   2.236   3.319  0.3306 -0.1100  0.4832
 2016TIP3    H1 6012   2.731   2.327   3.304 -0.0186 -0.2604 -1.2769
 2016TIP3    H2 6013   2.656   2.212   3.240 -2.2215 -0.8965  2.1374
 2017TIP3   OH2 6014   1.433   1.432   0.529 -0.3139  0.2084  0.1384
 2017TIP3    H1 6015   1.381   1.427   0.609  3.0633  4.0393  3.0101
 2017TIP3    H2 6016   1.504   1.370   0.543  0.5851  1.2830  0.4102
 2018TIP3   OH2 6017   4.727   6.154   2.565  0.3025  0.3915 -0.8542
 2018TIP3    H1 6018   4.804   6.208   2.579 -0.3479  1.4929 -1.4289
 2018TIP3    H2 6019   4.709   6.116   2.651  0.7475  1.1128 -0.4280
 2019TIP3   OH2 6020   0.745   6.761   0.468  0.2067  0.6923  0.1203
 2019TIP3    H1 6021   0.716   6.850   0.449 -0.9439  0.3338  0.1143
 2019TIP3    H2 6022   0.666   6.717   0.502  0.1972 -0.8777 -1.7815
 2020TIP3   OH2 6023   4.077   1.398   0.855 -0.3519  0.2270  0.1535
 2020TIP3    H1 6024   4.037   1.484   0.843  1.4692  1.0492 -0.3594
 2020TIP3    H2 6025   4.124   1.383   0.773  2.9628  0.7601  1.8059
 2021TIP3   OH2 6026   5.885   2.711   4.951 -0.1679 -0.4468 -0.8091
 2021TIP3    H1 6027   5.823   2.771   4.909  0.0265 -0.7096 -1.4897
 2021TIP3    H2 6028   5.930   2.669   4.878 -1.2086 -2.3900 -0.3875
 2022TIP3   OH2 6029   1.607   3.251   2.555 -0.2040  0.0287  0.2787
 2022TIP3    H1 6030   1.651   3.336   2.546  0.0435 -0.2291 -1.2008
 2022TIP3    H2 6031   1.517   3.273   2.577 -0.2146  0.7052 -0.3906
 2023TIP3   OH2 6032   1.264   6.788   5.493  0.2694  0.6234  0.5879
 2023TIP3    H1 6033   1.313   6.779   5.575  1.1812 -1.5158 -0.1235
 2023TIP3    H2 6034   1.172   6.779   5.520  0.5933 -0.7860  1.3283
 2024TIP3   OH2 6035   5.050   5.779   1.589  0.3433  0.2183  0.5721
 2024TIP3    H1 6036   4.992   5.852   1.610 -0.7978 -0.2574 -0.7521
 2024TIP3    H2 6037   4.991   5.705   1.573  1.5189 -1.4002  3.1334
 2025TIP3   OH2 6038   6.468   1.244   0.054 -0.0247 -0.4615 -0.1107
 2025TIP3    H1 6039   6.476   1.161   0.007  0.1546 -0.7515  0.4146
 2025TIP3    H2 6040   6.455   1.218   0.145  2.2015  0.0621  0.4205
 2026TIP3   OH2 6041   1.365   5.630   0.553  0.3002  0.0599 -0.4500
 2026TIP3    H1 6042   1.371   5.725   0.560 -0.9262  0.1392 -0.3493
 2026TIP3    H2 6043   1.380   5.612   0.460 -0.6821  0.4580 -0.6917
 2027TIP3   OH2 6044   1.586   5.306   3.136 -0.5615  0.4957  0.1777
 2027TIP3    H1 6045   1.513   5.248   3.112 -1.9504  1.8010  1.0728
 2027TIP3    H2 6046   1.620   5.336   3.052 -1.6742  0.5647 -0.2760
 2028TIP3   OH2 6047   1.994   4.978   1.252 -0.1769 -0.3036  0.5576
 2028TIP3    H1 6048   1.971   4.901   1.304  0.0681 -0.8254 -0.0923
 2028TIP3    H2 6049   2.081   5.003   1.284 -0.6457  0.2774  1.4157
 2029TIP3   OH2 6050   5.752   1.446   4.712 -0.2009 -1.4264 -0.4646
 2029TIP3    H1 6051   5.830   1.502   4.714 -1.3775  0.3008  1.2704
 2029TIP3    H2 6052   5.774   1.376   4.651  2.2821 -0.4016 -0.8682
 2030TIP3   OH2 6053   1.418   0.542   4.642 -0.0195 -0.0722 -0.0181
 2030TIP3    H1 6054   1.509   0.544   4.671  0.6933  0.1186 -2.0637
 2030TIP3    H2 6055   1.394   0.449   4.643 -0.9887  0.0905  3.6917
 2031TIP3   OH2 6056   1.417   4.240   1.888 -0.0184 -0.2967 -0.2964
 2031TIP3    H1 6057   1.348   4.267   1.948  0.0992  2.4884 -1.2545
 2031TIP3    H2 6058   1.498   4.248   1.939 -0.1930 -1.7600  0.2675
 2032TIP3   OH2 6059   1.739   3.162   2.908  0.0135  0.2736 -0.3347
 2032TIP3    H1 6060   1.768   3.242   2.864  1.0066  0.4221  0.5410
 2032TIP3    H2 6061   1.819   3.128   2.949 -0.3638 -1.2524 -0.8322
 2033TIP3   OH2 6062   3.745   5.436   2.395 -0.3101  0.1501 -0.4709
 2033TIP3    H1 6063   3.686   5.435   2.471 -1.4074  0.4297 -1.2934
 2033TIP3    H2 6064   3.832   5.428   2.433 -0.9272 -1.4770  0.7127
 2034TIP3   OH2 6065   3.641   6.259   4.971  0.1772 -0.6004  0.1712
 2034TIP3    H1 6066   3.673   6.219   4.890 -0.3099 -1.9634  0.6244
 2034TIP3    H2 6067   3.664   6.196   5.039 -1.9540 -0.8280  0.7227
 2035TIP3   OH2 6068   6.442   3.059   5.537 -0.4612 -0.0628  0.2392
 2035TIP3    H1 6069   6.435   3.122   5.608 -1.5311 -0.7175  0.7325
 2035TIP3    H2 6070   6.419   2.975   5.576 -0.4547 -0.5433 -0.7394
 2036TIP3   OH2 6071   2.612   2.945   4.037 -0.0465  0.0342 -0.0488
 2036TIP3    H1 6072   2.655   3.003   4.100 -0.9131  0.1513  0.4489
 2036TIP3    H2 6073   2.624   2.988   3.953  0.4330  0.2783  0.1373
 2037TIP3   OH2 6074   5.511   3.187   5.683  0.0370  0.0705 -0.6477
 2037TIP3    H1 6075   5.590   3.240   5.681 -0.2326  0.4622 -1.1671
 2037TIP3    H2 6076   5.502   3.161   5.775 -0.7052  2.2597 -0.0419
 2038TIP3   OH2 6077   0.404   0.083   3.260  0.0015 -0.7549 -0.2365
 2038TIP3    H1 6078   0.415   0.176   3.240 -0.0540 -0.8620 -0.8004
 2038TIP3    H2 6079   0.489   0.044   3.241  0.1713 -0.7374  0.4915
 2039TIP3   OH2 6080   2.527   5.719   2.043 -0.1782  0.0838  0.3372
 2039TIP3    H1 6081   2.576   5.801   2.036 -0.5712  0.1453 -4.2627
 2039TIP3    H2 6082   2.436   5.747   2.055 -0.0893  0.2291  0.6967
 2040TIP3   OH2 6083   2.982   0.014   2.839  0.0342  0.6228 -0.3035
 2040TIP3    H1 6084   2.915   0.011   2.907 -0.1279  0.7172 -0.4584
 2040TIP3    H2 6085   2.934   0.037   2.759  0.3855  1.5921 -0.2440
 2041TIP3   OH2 6086   3.785   0.136   2.099  0.0831 -0.2902 -0.2652
 2041TIP3    H1 6087   3.830   0.051   2.102  0.4207 -0.0962  0.8603
 2041TIP3    H2 6088   3.772   0.159   2.191  0.4672  1.1263 -0.5388
 2042TIP3   OH2 6089   5.420   0.207   0.835  0.2017 -0.1586 -0.0014
 2042TIP3    H1 6090   5.363   0.158   0.896 -1.0291  0.5294 -0.5546
 2042TIP3    H2 6091   5.506   0.205   0.877 -0.3390 -0.7470  1.1614
 2043TIP3   OH2 6092   4.487   5.242   4.111 -0.1133  0.0758  0.1105
 2043TIP3    H1 6093   4.552   5.225   4.180 -0.0187  0.0161  0.0067
 2043TIP3    H2 6094   4.459   5.155   4.082  1.0171  0.0669 -1.0310
 2044TIP3   OH2 6095   1.881   3.665   5.371  0.3084  0.1466  0.3550
 2044TIP3    H1 6096   1.870   3.631   5.459  1.2874 -0.7716  0.1452
 2044TIP3    H2 6097   1.972   3.645   5.349  0.0121  0.1439 -0.9498
 2045TIP3   OH2 6098   6.308   4.410   4.715 -0.3014  0.0267 -0.5728
 2045TIP3    H1 6099   6.349   4.336   4.670 -0.9484 -0.5667 -0.1970
 2045TIP3    H2 6100   6.281   4.469   4.644  1.7281  0.7509 -0.8276
 2046TIP3   OH2 6101   5.433   5.316   4.559  0.1411 -0.0856 -0.2438
 2046TIP3    H1 6102   5.514   5.284   4.519  0.5311 -0.1636  0.5850
 2046TIP3    H2 6103   5.458   5.400   4.599  0.1913 -0.7832  1.2556
 2047TIP3   OH2 6104   1.288   1.030   2.357 -0.4152 -0.1322  0.4643
 2047TIP3    H1 6105   1.265   1.081   2.280 -1.1890 -1.6045 -0.3328
 2047TIP3    H2 6106   1.305   0.942   2.323  0.3299 -0.5500  1.8462
 2048TIP3   OH2 6107   3.468   6.822   1.022 -0.1024 -0.1849 -0.3470
 2048TIP3    H1 6108   3.440   6.736   0.990  0.0725 -0.3038 -0.1828
 2048TIP3    H2 6109   3.539   6.846   0.962 -0.0707 -0.2083 -0.3188
 2049TIP3   OH2 6110   0.915   2.395   0.863  0.4669  0.0445 -0.0946
 2049TIP3    H1 6111   0.937   2.307   0.832 -2.2480 -1.0766  0.8642
 2049TIP3    H2 6112   0.892   2.444   0.785 -1.3846 -1.2107 -0.3983
 2050TIP3   OH2 6113   3.330   4.604   1.450 -0.2589  0.3458  0.0396
 2050TIP3    H1 6114   3.393   4.539   1.481 -1.7578 -1.9564 -1.4604
 2050TIP3    H2 6115   3.327   4.592   1.355 -2.9810  0.3121  0.0583
 2051TIP3   OH2 6116   0.934   5.597   4.054 -0.6776 -0.6023  0.4684
 2051TIP3    H1 6117   0.973   5.587   3.967 -0.1358  1.0624  0.4912
 2051TIP3    H2 6118   0.921   5.691   4.064 -0.1366 -0.6910  2.4399
 2052TIP3   OH2 6119   0.431   0.276   3.561 -0.0496  0.2351 -0.2407
 2052TIP3    H1 6120   0.402   0.185   3.561  1.5560 -0.3021  0.3309
 2052TIP3    H2 6121   0.350   0.327   3.565 -0.9416 -1.2095  1.7618
 2053TIP3   OH2 6122   3.088   1.905   4.711  0.4767  0.0250  0.2709
 2053TIP3    H1 6123   2.999   1.925   4.683  1.1993  2.7342 -0.4757
 2053TIP3    H2 6124   3.138   1.903   4.630  1.2985 -0.0932  0.7724
 2054TIP3   OH2 6125   3.872   5.738   2.621 -0.1194  0.7181  0.2146
 2054TIP3    H1 6126   3.967   5.746   2.615  0.0624 -0.5046  1.2551
 2054TIP3    H2 6127   3.850   5.777   2.705 -0.4732  0.3726  0.2818
 2055TIP3   OH2 6128   6.601   0.134   5.811  0.6078  0.3734  0.2213
 2055TIP3    H1 6129   6.621   0.117   5.719  0.1408  0.2995  0.1272
 2055TIP3    H2 6130   6.530   0.198   5.809  1.2363  1.0930  0.5528
 2056TIP3   OH2 6131   1.934   2.229   4.887 -0.1663  0.3834  0.2004
 2056TIP3    H1 6132   1.866   2.287   4.922  0.2648  1.1800 -0.2660
 2056TIP3    H2 6133   2.012   2.251   4.937  0.2428  0.9249 -0.6501
 2057TIP3   OH2 6134   5.796   0.405   0.084  0.0045  0.1717  0.2131
 2057TIP3    H1 6135   5.845   0.330   0.117 -0.1525 -0.6337 -1.2926
 2057TIP3    H2 6136   5.704   0.384   0.103 -0.0228  0.0691 -0.0278
 2058TIP3   OH2 6137   2.298   6.602   5.647  0.0951  0.2999  0.0564
 2058TIP3    H1 6138   2.372   6.623   5.590 -0.5211  1.4433 -0.3586
 2058TIP3    H2 6139   2.250   6.685   5.655 -0.6249 -0.1937  1.0747
 2059TIP3   OH2 6140   3.116   5.910   2.891 -0.8900  0.3284 -0.3038
 2059TIP3    H1 6141   3.174   5.843   2.928 -2.3952 -1.1090 -0.4100
 2059TIP3    H2 6142   3.095   5.877   2.804 -1.2133  1.2350 -0.5710
 2060TIP3   OH2 6143   3.309   3.766   3.247 -0.2603  0.0076 -0.1668
 2060TIP3    H1 6144   3.396   3.750   3.284 -0.0638  1.5652  0.0869
 2060TIP3    H2 6145   3.262   3.813   3.315 -2.3163 -3.1672  0.8365
 2061TIP3   OH2 6146   4.846   4.955   1.738 -0.2643  0.8412 -0.6028
 2061TIP3    H1 6147   4.846   4.861   1.756 -1.7685  1.0070  0.5102
 2061TIP3    H2 6148   4.906   4.966   1.665  0.5712 -0.8747 -0.2243
 2062TIP3   OH2 6149   5.587   6.177   5.357 -0.0595  0.5716 -0.4168
 2062TIP3    H1 6150   5.637   6.099   5.335 -0.3385  0.2407  0.1123
 2062TIP3    H2 6151   5.648   6.233   5.404 -0.3522 -0.1171  0.8224
 2063TIP3   OH2 6152   3.803   6.146   4.494  0.1065 -0.3402 -0.7561
 2063TIP3    H1 6153   3.736   6.210   4.470 -2.6969 -1.8664  2.2038
 2063TIP3    H2 6154   3.773   6.064   4.456 -0.7880 -1.3877  1.9811
 2064TIP3   OH2 6155   7.088   0.118   1.727 -0.2443 -1.0114 -0.2524
 2064TIP3    H1 6156   7.103   0.198   1.677  1.0282 -0.6654  0.6178
 2064TIP3    H2 6157   6.994   0.118   1.745 -0.1567  0.7377  0.4040
 2065TIP3   OH2 6158   2.827   6.744   1.742  0.2020  0.0342 -0.4050
 2065TIP3    H1 6159   2.880   6.736   1.822  0.7367  0.0653 -0.7546
 2065TIP3    H2 6160   2.841   6.833   1.712 -1.9613  0.8502  0.8192
 2066TIP3   OH2 6161   0.794   0.848   3.589 -0.0950  0.0852 -0.2230
 2066TIP3    H1 6162   0.847   0.790   3.535  0.6794  0.9318 -0.3971
 2066TIP3    H2 6163   0.840   0.850   3.673  1.2948  2.3135 -0.9475
 2067TIP3   OH2 6164   5.865   1.343   2.418  0.2859 -0.2044  0.5787
 2067TIP3    H1 6165   5.805   1.282   2.375  1.2550  0.1764 -1.4166
 2067TIP3    H2 6166   5.948   1.295   2.423  0.7084  0.4753  0.1933
 2068TIP3   OH2 6167   7.139   0.213   0.169 -0.3462  0.5472 -0.5172
 2068TIP3    H1 6168   7.096   0.128   0.174 -0.5674  0.7450  2.3789
 2068TIP3    H2 6169   7.231   0.196   0.190 -0.3881  0.9991  0.0719
 2069TIP3   OH2 6170   1.239   4.232   1.246  0.5868 -0.4065  0.1656
 2069TIP3    H1 6171   1.259   4.217   1.154  0.4539 -1.6894  0.3314
 2069TIP3    H2 6172   1.196   4.151   1.275 -3.2200  1.4298  0.2871
 2070TIP3   OH2 6173   2.274   0.522   1.766 -0.8933 -0.1504  0.4717
 2070TIP3    H1 6174   2.329   0.576   1.710  0.8083 -0.8674  1.3701
 2070TIP3    H2 6175   2.193   0.510   1.716 -0.0079  0.4325 -1.1824
 2071TIP3   OH2 6176   0.817   4.752   3.825 -0.7258 -0.5449  0.4087
 2071TIP3    H1 6177   0.866   4.830   3.798 -0.3154  0.2454  3.1814
 2071TIP3    H2 6178   0.726   4.772   3.802 -0.2586 -0.5874 -1.6587
 2072TIP3   OH2 6179   0.685   4.184   4.715 -0.6554  0.0815 -0.0312
 2072TIP3    H1 6180   0.641   4.187   4.630 -0.7039  0.8763  0.0144
 2072TIP3    H2 6181   0.638   4.248   4.769 -0.5775 -0.3646  0.5748
 2073TIP3   OH2 6182   4.248   6.227   4.489  0.5491 -0.0474 -0.1528
 2073TIP3    H1 6183   4.335   6.203   4.522  0.4525 -1.5156 -0.8749
 2073TIP3    H2 6184   4.214   6.146   4.451 -1.0239  0.5789 -0.1507
 2074TIP3   OH2 6185   1.075   1.434   2.433 -0.2731 -0.5156  0.4146
 2074TIP3    H1 6186   1.052   1.346   2.403  0.6753 -0.4888 -0.4515
 2074TIP3    H2 6187   1.164   1.426   2.465  0.6584  0.5526 -1.7186
 2075TIP3   OH2 6188   1.153   6.585   2.699 -0.5283 -0.5150  0.2976
 2075TIP3    H1 6189   1.069   6.559   2.735  0.7804 -1.5164  2.8383
 2075TIP3    H2 6190   1.214   6.516   2.726  1.0251 -0.1659 -2.0062
 2076TIP3   OH2 6191   3.123   2.345   1.138  0.0341  0.1913  0.0414
 2076TIP3    H1 6192   3.164   2.259   1.125 -0.2669  0.2476 -1.4680
 2076TIP3    H2 6193   3.196   2.406   1.141  0.1499  0.3679 -3.2738
 2077TIP3   OH2 6194   1.668   4.836   4.939 -0.1110 -0.3174  0.0043
 2077TIP3    H1 6195   1.708   4.852   5.024  2.0216 -2.4568 -0.4891
 2077TIP3    H2 6196   1.672   4.741   4.928 -1.4226 -0.2063 -1.9867
 2078TIP3   OH2 6197   2.708   0.851   1.151  0.4662 -0.4753  0.3468
 2078TIP3    H1 6198   2.758   0.836   1.231  0.5582 -1.6888  0.0820
 2078TIP3    H2 6199   2.774   0.858   1.082  0.4413  1.4496  0.4644
 2079TIP3   OH2 6200   6.284   4.233   1.275  0.5363  0.2807  0.0729
 2079TIP3    H1 6201   6.354   4.286   1.313  1.2087 -1.2344  1.0619
 2079TIP3    H2 6202   6.278   4.261   1.184  1.1449  1.7251  0.4580
 2080TIP3   OH2 6203   4.544   4.754   0.975 -0.4824 -0.3911  0.0651
 2080TIP3    H1 6204   4.486   4.749   1.050 -0.4087 -0.6941  0.1048
 2080TIP3    H2 6205   4.574   4.664   0.962 -1.7237 -0.6499 -1.2940
 2081TIP3   OH2 6206   2.655   4.383   2.613  0.4057 -0.5276 -0.5407
 2081TIP3    H1 6207   2.639   4.418   2.701  0.6650 -0.7617 -0.4011
 2081TIP3    H2 6208   2.592   4.312   2.603 -2.6797  2.1933 -2.1815
 2082TIP3   OH2 6209   2.500   3.377   4.789  0.4251 -0.7318  0.4180
 2082TIP3    H1 6210   2.435   3.405   4.853  0.9130 -1.6253  1.3281
 2082TIP3    H2 6211   2.556   3.315   4.836  2.8580  1.0581  0.1051
 2083TIP3   OH2 6212   3.021   0.876   5.716 -0.1768  0.4729  0.3334
 2083TIP3    H1 6213   2.949   0.881   5.653 -0.0498 -1.6094 -0.0624
 2083TIP3    H2 6214   3.015   0.787   5.752  2.1869  0.2174  0.2621
 2084TIP3   OH2 6215   4.062   4.076   3.236  0.1120  0.0208 -0.7551
 2084TIP3    H1 6216   3.978   4.045   3.203  0.0255  0.9431 -1.4381
 2084TIP3    H2 6217   4.114   3.996   3.247 -0.1339 -0.4110 -2.3948
 2085TIP3   OH2 6218   6.064   3.881   3.317 -0.4025 -0.0418  0.1379
 2085TIP3    H1 6219   6.063   3.795   3.275  1.9009 -2.0764  3.7094
 2085TIP3    H2 6220   6.142   3.924   3.280  0.0741 -0.7009  0.3481
 2086TIP3   OH2 6221   7.103   5.677   5.341  0.1515  0.2464  0.1241
 2086TIP3    H1 6222   7.060   5.700   5.423  1.3717 -0.8893  1.1286
 2086TIP3    H2 6223   7.095   5.581   5.337 -1.4967  0.3938 -2.0343
 2087TIP3   OH2 6224   4.186   2.584   3.716 -0.1266  0.3973 -0.0727
 2087TIP3    H1 6225   4.272   2.549   3.691 -0.3502  1.6338 -2.9662
 2087TIP3    H2 6226   4.128   2.507   3.712  0.0745  0.2756 -2.6783
 2088TIP3   OH2 6227   0.218   3.209   1.481  0.0341 -0.0037 -0.1153
 2088TIP3    H1 6228   0.263   3.133   1.445 -1.4537 -0.1989 -1.7021
 2088TIP3    H2 6229   0.133   3.175   1.510 -0.6011  0.9909 -0.7397
 2089TIP3   OH2 6230   5.023   2.301   1.321 -0.5065  0.0495  0.2449
 2089TIP3    H1 6231   4.930   2.309   1.343 -0.7606 -0.9635 -0.3859
 2089TIP3    H2 6232   5.031   2.345   1.236 -0.6340 -0.7701 -0.2030
 2090TIP3   OH2 6233   3.827   1.136   2.064  0.3307  0.3972  0.7408
 2090TIP3    H1 6234   3.782   1.052   2.048 -0.1203  0.7207  0.2673
 2090TIP3    H2 6235   3.837   1.174   1.977  2.9423 -0.3607  0.6484
 2091TIP3   OH2 6236   5.770   3.548   1.858 -0.1469 -0.7633  0.2872
 2091TIP3    H1 6237   5.696   3.596   1.822 -0.2488 -1.1351  0.0003
 2091TIP3    H2 6238   5.745   3.456   1.851  0.4652 -0.9061 -0.0972
 2092TIP3   OH2 6239   1.562   3.249   0.504  0.2511  0.2070  0.0504
 2092TIP3    H1 6240   1.555   3.273   0.412 -0.2650 -0.3436 -0.0563
 2092TIP3    H2 6241   1.472   3.241   0.534  0.4103 -0.5732  0.3442
 2093TIP3   OH2 6242   4.712   3.069   1.478  0.1308 -0.2392 -0.6061
 2093TIP3    H1 6243   4.765   3.024   1.545  1.0239  1.0403 -0.4185
 2093TIP3    H2 6244   4.631   3.092   1.523 -0.1764 -1.2660 -0.5920
 2094TIP3   OH2 6245   4.634   4.196   0.799 -0.1266 -0.3272 -0.0784
 2094TIP3    H1 6246   4.632   4.153   0.885 -1.1902  0.5084  0.3238
 2094TIP3    H2 6247   4.545   4.189   0.766 -0.8995  3.2787  0.8882
 2095TIP3   OH2 6248   6.925   5.119   1.546 -0.0721 -0.3033 -0.2142
 2095TIP3    H1 6249   6.999   5.159   1.592 -0.1570  0.1698 -0.4880
 2095TIP3    H2 6250   6.848   5.167   1.577 -0.2746 -0.8137  0.0934
 2096TIP3   OH2 6251   2.377   5.945   4.510  0.1789  0.3913 -0.0031
 2096TIP3    H1 6252   2.397   5.856   4.481 -0.4034  0.1505  0.3271
 2096TIP3    H2 6253   2.460   5.992   4.502  0.4696 -0.1601 -0.2568
 2097TIP3   OH2 6254   6.639   4.000   1.003 -0.3108  0.0076  0.2179
 2097TIP3    H1 6255   6.636   3.923   0.946  0.6266  0.6114 -0.6740
 2097TIP3    H2 6256   6.638   4.075   0.943  1.3828  0.6502  0.9251
 2098TIP3   OH2 6257   5.581   5.569   0.681 -0.1869  0.3747  0.4435
 2098TIP3    H1 6258   5.495   5.536   0.652 -0.5465 -0.3995  2.2451
 2098TIP3    H2 6259   5.644   5.525   0.624 -0.8461 -1.2653  0.9270
 2099TIP3   OH2 6260   3.313   1.295   4.550 -0.2710  0.1520 -0.7130
 2099TIP3    H1 6261   3.379   1.339   4.604 -1.1537 -1.0928  1.5089
 2099TIP3    H2 6262   3.282   1.363   4.490  0.3632  1.8141  0.7465
 2100TIP3   OH2 6263   3.669   3.213   0.976 -0.5135 -0.0067 -0.1451
 2100TIP3    H1 6264   3.686   3.305   0.995 -0.5342  0.2197 -1.1581
 2100TIP3    H2 6265   3.707   3.166   1.050  1.2873  0.6917 -0.5728
 2101TIP3   OH2 6266   3.554   5.670   0.626  0.2549  0.1119  0.2192
 2101TIP3    H1 6267   3.630   5.619   0.599 -0.4767 -1.1621  0.4570
 2101TIP3    H2 6268   3.577   5.761   0.607  1.5903 -0.3102 -0.2536
 2102TIP3   OH2 6269   2.263   5.293   3.583  0.1190  0.0995 -0.1076
 2102TIP3    H1 6270   2.311   5.375   3.580  0.9832 -0.3549  0.7567
 2102TIP3    H2 6271   2.256   5.266   3.491  1.1511  0.3885 -0.2845
 2103TIP3   OH2 6272   3.588   2.722   1.597  0.4629 -0.6404 -0.7951
 2103TIP3    H1 6273   3.517   2.732   1.660  1.3931  0.5142  0.1442
 2103TIP3    H2 6274   3.590   2.629   1.576  0.6132 -1.2198  1.5417
 2104TIP3   OH2 6275   4.648   0.452   5.201 -0.0588  0.1592 -0.3239
 2104TIP3    H1 6276   4.571   0.400   5.225 -0.3430  1.0768  0.8580
 2104TIP3    H2 6277   4.621   0.543   5.216  1.2771  0.4901  0.1807
 2105TIP3   OH2 6278   2.692   1.458   4.297 -0.1104 -0.3130 -0.1206
 2105TIP3    H1 6279   2.633   1.497   4.232 -0.8400 -1.3605 -0.1096
 2105TIP3    H2 6280   2.687   1.516   4.372 -1.1643 -0.3977 -0.1117
 2106TIP3   OH2 6281   1.055   0.835   2.367 -0.4111 -0.2374  0.2155
 2106TIP3    H1 6282   1.149   0.828   2.385 -0.3277  0.7546  0.2256
 2106TIP3    H2 6283   1.048   0.827   2.272  0.0563  2.7327 -0.1787
 2107TIP3   OH2 6284   3.141   1.436   4.816  0.1682  0.0089 -0.3615
 2107TIP3    H1 6285   3.230   1.453   4.845  0.2630 -0.7371 -0.1981
 2107TIP3    H2 6286   3.124   1.504   4.750  1.0495 -0.1765 -0.7977
 2108TIP3   OH2 6287   6.731   6.759   4.143 -0.5382 -0.2833  0.0361
 2108TIP3    H1 6288   6.776   6.840   4.168 -0.8089 -0.1266  0.0171
 2108TIP3    H2 6289   6.696   6.777   4.056 -0.6669 -0.3941  0.0648
 2109TIP3   OH2 6290   5.900   2.268   4.571 -0.1726  0.2375  0.1564
 2109TIP3    H1 6291   5.838   2.267   4.498 -1.3841 -1.7310  1.1245
 2109TIP3    H2 6292   5.977   2.222   4.538 -1.8815 -3.5608  0.8816
 2110TIP3   OH2 6293   6.049   4.714   0.613 -0.5424 -0.0975  0.3945
 2110TIP3    H1 6294   5.996   4.745   0.686  0.1276 -0.3666  0.9993
 2110TIP3    H2 6295   6.092   4.635   0.646 -0.6192 -0.5049 -0.4536
 2111TIP3   OH2 6296   3.068   4.842   4.200  0.4841  0.2468  0.3666
 2111TIP3    H1 6297   3.103   4.806   4.119  2.1933  1.0277  0.7056
 2111TIP3    H2 6298   3.038   4.765   4.249 -1.7529 -0.1591 -1.4358
 2112TIP3   OH2 6299   6.903   3.579   4.582 -0.0995  0.5303  0.0163
 2112TIP3    H1 6300   6.808   3.582   4.593  0.1301 -0.3550  3.4045
 2112TIP3    H2 6301   6.925   3.486   4.587  0.9127  0.6115 -1.9622
 2113TIP3   OH2 6302   6.910   5.523   1.519  0.0863 -0.0478  0.2042
 2113TIP3    H1 6303   6.986   5.475   1.488  2.3070  2.5844  1.1780
 2113TIP3    H2 6304   6.894   5.488   1.607  0.7356 -0.0263  0.3329
 2114TIP3   OH2 6305   1.870   1.688   5.280 -0.5394  0.5656  0.1489
 2114TIP3    H1 6306   1.854   1.632   5.204  1.1468 -3.4356  2.4503
 2114TIP3    H2 6307   1.964   1.685   5.293 -0.7563  1.2331  2.3065
 2115TIP3   OH2 6308   1.005   3.000   5.452  0.0668  0.2690  0.2668
 2115TIP3    H1 6309   1.001   3.063   5.380  0.9994  1.7674  1.4476
 2115TIP3    H2 6310   1.095   2.966   5.448  0.2768  0.7187  0.9840
 2116TIP3   OH2 6311   5.638   2.197   1.353 -0.0532  0.2539  0.6566
 2116TIP3    H1 6312   5.675   2.170   1.269 -1.1122  0.5101  0.0891
 2116TIP3    H2 6313   5.575   2.265   1.330 -1.4316 -0.6928  1.5044
 2117TIP3   OH2 6314   2.598   1.397   3.860  0.0588 -0.0912 -0.1203
 2117TIP3    H1 6315   2.562   1.485   3.848 -1.9667 -0.7881  0.4575
 2117TIP3    H2 6316   2.571   1.372   3.948  2.8445 -0.3555  0.7776
 2118TIP3   OH2 6317   5.589   4.096   1.216 -0.2648  0.1015  1.0806
 2118TIP3    H1 6318   5.595   4.167   1.280  1.6485  2.3327 -1.3087
 2118TIP3    H2 6319   5.678   4.090   1.180 -0.6421 -2.8344  0.3977
 2119TIP3   OH2 6320   4.544   0.093   4.590 -0.5599 -0.3607  0.1428
 2119TIP3    H1 6321   4.462   0.081   4.542 -0.0780 -0.5638 -0.6319
 2119TIP3    H2 6322   4.590   0.161   4.542 -0.3386 -0.1225  0.6785
 2120TIP3   OH2 6323   1.518   5.163   1.140 -0.3785 -0.8555  0.5497
 2120TIP3    H1 6324   1.470   5.086   1.168 -0.0388 -0.8912  1.0353
 2120TIP3    H2 6325   1.606   5.153   1.177  0.3181 -1.2562 -1.0859
 2121TIP3   OH2 6326   4.231   1.545   2.370  0.4776 -0.0085  0.0840
 2121TIP3    H1 6327   4.245   1.587   2.455 -1.9347  2.7120 -0.6769
 2121TIP3    H2 6328   4.136   1.542   2.360  0.6781 -0.5343 -2.3805
 2122TIP3   OH2 6329   3.389   3.246   0.981  0.4203  0.0855 -0.5972
 2122TIP3    H1 6330   3.366   3.178   1.045 -1.3868  0.6581 -0.5696
 2122TIP3    H2 6331   3.480   3.227   0.957  0.1196 -2.0638 -0.2491
 2123TIP3   OH2 6332   2.821   5.034   5.782 -0.6532  0.0842 -0.2322
 2123TIP3    H1 6333   2.735   4.993   5.769 -0.9521  0.7878 -0.5724
 2123TIP3    H2 6334   2.877   4.964   5.816 -1.0140 -0.7114 -1.2446
 2124TIP3   OH2 6335   3.480   0.859   3.575  0.3389 -0.4946 -0.6753
 2124TIP3    H1 6336   3.481   0.764   3.561 -1.8463 -0.4836 -1.3721
 2124TIP3    H2 6337   3.484   0.896   3.487  0.0263  0.0192 -0.4789
 2125TIP3   OH2 6338   4.689   4.416   4.813  0.1457  0.3701 -0.0695
 2125TIP3    H1 6339   4.662   4.436   4.723  1.1875 -0.4053 -0.5659
 2125TIP3    H2 6340   4.639   4.478   4.867 -1.2222  0.2052 -1.0981
 2126TIP3   OH2 6341   2.621   1.353   1.176  0.0137  0.1127  0.1449
 2126TIP3    H1 6342   2.687   1.422   1.180  0.9082 -0.6728 -0.7960
 2126TIP3    H2 6343   2.668   1.272   1.194 -1.1961 -0.2170  2.2566
 2127TIP3   OH2 6344   0.461   3.061   4.365 -0.3112 -0.5239 -0.2336
 2127TIP3    H1 6345   0.427   3.030   4.281  1.7605 -2.3330 -0.4880
 2127TIP3    H2 6346   0.413   3.010   4.431 -0.3545 -0.7075 -0.4092
 2128TIP3   OH2 6347   0.400   2.099   5.622 -0.3585  0.0026  0.1389
 2128TIP3    H1 6348   0.447   2.044   5.684  0.0452 -0.4817 -0.5738
 2128TIP3    H2 6349   0.402   2.049   5.540  0.0732  1.1071 -0.5462
 2129TIP3   OH2 6350   0.592   3.079   0.109  0.0497  0.3771 -0.0691
 2129TIP3    H1 6351   0.664   3.092   0.048  0.4755  1.9876  0.7096
 2129TIP3    H2 6352   0.515   3.111   0.062  0.0313 -0.2428 -0.4719
 2130TIP3   OH2 6353   2.967   2.809   0.965  0.2444 -0.5190 -0.4128
 2130TIP3    H1 6354   2.942   2.732   0.913 -0.4229 -1.8328  1.7143
 2130TIP3    H2 6355   2.904   2.876   0.940 -0.3658 -1.2737 -0.9563
 2131TIP3   OH2 6356   6.068   6.347   4.928 -0.7299  0.3838 -0.5188
 2131TIP3    H1 6357   6.091   6.438   4.913 -4.3769  1.5635 -0.0740
 2131TIP3    H2 6358   6.124   6.319   5.000 -1.7139  3.4036  1.6239
 2132TIP3   OH2 6359   5.030   5.124   3.908 -0.1036 -0.7601  0.1080
 2132TIP3    H1 6360   4.994   5.062   3.844 -0.7086  0.2591 -0.5575
 2132TIP3    H2 6361   4.958   5.140   3.968 -1.3752  2.3166 -1.9804
 2133TIP3   OH2 6362   4.630   0.038   1.745 -0.0793  0.2937 -0.3325
 2133TIP3    H1 6363   4.590   0.121   1.721  1.0951  0.6541 -1.1097
 2133TIP3    H2 6364   4.579  -0.028   1.698  1.1755  0.8703 -2.6773
 2134TIP3   OH2 6365   1.423   5.093   5.268 -0.1405 -0.2867  0.1138
 2134TIP3    H1 6366   1.365   5.098   5.344 -0.4851  0.9175 -0.2080
 2134TIP3    H2 6367   1.383   5.028   5.211 -1.0828  0.4043 -0.0256
 2135TIP3   OH2 6368   6.575   0.772   5.610 -0.0535 -0.1769  0.2344
 2135TIP3    H1 6369   6.564   0.692   5.558 -1.2744  1.7345 -2.7681
 2135TIP3    H2 6370   6.499   0.772   5.668 -0.2384 -1.0167  0.0189
 2136TIP3   OH2 6371   6.642   0.042   1.159  0.1359 -0.4032 -0.1148
 2136TIP3    H1 6372   6.593  -0.023   1.210  0.2112 -0.4891 -0.1517
 2136TIP3    H2 6373   6.599   0.125   1.180  0.2255 -0.4232  0.1635
 2137TIP3   OH2 6374   2.145   5.745   2.635 -0.0384  0.3836  0.4202
 2137TIP3    H1 6375   2.217   5.729   2.695  0.5822 -1.0108 -0.6197
 2137TIP3    H2 6376   2.127   5.839   2.642  1.2616  0.5849  1.3640
 2138TIP3   OH2 6377   3.729   2.895   3.565  0.0390  0.4133 -0.0179
 2138TIP3    H1 6378   3.697   2.957   3.630 -0.2344 -0.6002  0.8486
 2138TIP3    H2 6379   3.669   2.904   3.492 -0.3733  0.7186  0.3497
 2139TIP3   OH2 6380   4.759   1.250   2.520  0.0080 -0.2281  0.0660
 2139TIP3    H1 6381   4.696   1.321   2.508  1.2494  0.6652 -1.5772
 2139TIP3    H2 6382   4.823   1.284   2.582 -0.2988 -0.5626  0.5715
 2140TIP3   OH2 6383   7.170   4.267   4.769  0.0127  0.1112  0.5034
 2140TIP3    H1 6384   7.164   4.300   4.859  0.0257  1.3345  0.0750
 2140TIP3    H2 6385   7.104   4.317   4.721  0.4581 -0.0600 -0.3037
 2141TIP3   OH2 6386   1.171   0.540   0.348 -0.1734  0.2402  0.3174
 2141TIP3    H1 6387   1.242   0.495   0.302 -0.8079  0.0750 -0.5472
 2141TIP3    H2 6388   1.196   0.538   0.440  0.8718  0.0727  0.0469
 2142TIP3   OH2 6389   4.403   1.363   2.702  0.8716  0.3050  0.0140
 2142TIP3    H1 6390   4.459   1.388   2.628 -0.1056  0.4017 -0.7201
 2142TIP3    H2 6391   4.401   1.441   2.757  2.1807 -0.0036  0.5313
 2143TIP3   OH2 6392   3.011   5.421   3.649 -0.4627 -0.1892 -0.1333
 2143TIP3    H1 6393   3.076   5.420   3.719  0.0167 -0.0162 -0.5631
 2143TIP3    H2 6394   3.063   5.411   3.569 -0.9820 -0.1765 -0.4737
 2144TIP3   OH2 6395   1.101   5.013   4.082 -0.3533 -0.5800 -0.1113
 2144TIP3    H1 6396   1.089   4.975   4.170  0.3112 -1.3060 -0.3191
 2144TIP3    H2 6397   1.014   5.010   4.043 -0.5168 -0.9390  0.2651
 2145TIP3   OH2 6398   5.801   4.936   1.543  0.2742 -0.5521  0.0915
 2145TIP3    H1 6399   5.800   5.007   1.607  0.3225 -0.2843 -0.2046
 2145TIP3    H2 6400   5.887   4.895   1.554 -0.0201 -1.0164  0.7521
 2146TIP3   OH2 6401   2.070   4.033   3.074  0.7596  0.0865 -0.3122
 2146TIP3    H1 6402   2.142   4.025   3.136 -1.0212 -2.9711  1.6131
 2146TIP3    H2 6403   2.019   4.108   3.106  1.4103  0.3506  0.1302
 2147TIP3   OH2 6404   6.927   3.883   2.152 -0.0656 -0.0742  0.1839
 2147TIP3    H1 6405   7.007   3.926   2.181 -0.4589 -0.2382  1.5698
 2147TIP3    H2 6406   6.861   3.952   2.150 -0.2498 -0.2389  0.5398
 2148TIP3   OH2 6407   1.031   4.816   5.037 -0.3151  0.1676 -0.0758
 2148TIP3    H1 6408   0.940   4.829   5.062 -0.1708  3.0542 -0.8040
 2148TIP3    H2 6409   1.054   4.893   4.985  3.0747  0.4625  1.6001
 2149TIP3   OH2 6410   3.334   1.718   5.203 -0.4846  0.2839  0.3617
 2149TIP3    H1 6411   3.265   1.765   5.249 -1.2762  0.1947 -0.7300
 2149TIP3    H2 6412   3.391   1.786   5.168 -0.0063  0.3563  1.2311
 2150TIP3   OH2 6413   3.636   1.314   2.055 -0.1884 -1.0380 -0.1127
 2150TIP3    H1 6414   3.672   1.393   2.097 -0.8769 -0.6643 -0.2108
 2150TIP3    H2 6415   3.709   1.252   2.053  0.1230 -0.7040  0.7329
 2151TIP3   OH2 6416   4.665   0.593   1.080  0.0173  0.0903  0.5749
 2151TIP3    H1 6417   4.638   0.626   0.994 -0.0287 -1.3763  0.0041
 2151TIP3    H2 6418   4.639   0.662   1.141 -0.5129  0.8858 -0.5114
 2152TIP3   OH2 6419   3.600   2.119   1.419 -0.3729 -0.4749  0.4200
 2152TIP3    H1 6420   3.506   2.099   1.417  0.0306 -2.5331  0.4088
 2152TIP3    H2 6421   3.623   2.116   1.512 -0.5394  1.3409  0.5546
 2153TIP3   OH2 6422  -0.011   0.978   2.448 -0.7909 -0.1084 -0.4766
 2153TIP3    H1 6423  -0.015   0.945   2.359 -1.2327 -1.2090 -0.0602
 2153TIP3    H2 6424   0.082   0.994   2.464 -0.5911 -0.9439 -0.7734
 2154TIP3   OH2 6425   3.339   4.382   0.857  0.2765  0.5805 -0.0420
 2154TIP3    H1 6426   3.376   4.304   0.898  1.2132  1.3761  0.6810
 2154TIP3    H2 6427   3.270   4.410   0.918  2.0076  2.0591  1.3855
 2155TIP3   OH2 6428   0.951   2.980   0.836  0.4961  0.1350 -0.0400
 2155TIP3    H1 6429   1.007   3.015   0.767 -0.4288 -0.0450 -0.9200
 2155TIP3    H2 6430   0.862   3.002   0.807  0.0442 -0.6839  0.6826
 2156TIP3   OH2 6431   3.338   0.465   0.521 -0.2286 -0.2940 -0.4124
 2156TIP3    H1 6432   3.252   0.461   0.562 -0.2085 -1.5780 -0.4579
 2156TIP3    H2 6433   3.327   0.420   0.438  0.0440  1.1953 -1.2972
 2157TIP3   OH2 6434   2.326   3.542   4.077 -0.0960 -0.4781 -0.0355
 2157TIP3    H1 6435   2.261   3.543   4.007 -0.1703 -0.3451  0.0335
 2157TIP3    H2 6436   2.391   3.478   4.049  0.2388  0.0864 -0.5494
 2158TIP3   OH2 6437   2.023   0.561   0.382  0.1665  0.2070  0.1138
 2158TIP3    H1 6438   1.928   0.566   0.371  0.0135 -0.4258  1.0060
 2158TIP3    H2 6439   2.049   0.647   0.414  0.0268  0.6682 -0.9744
 2159TIP3   OH2 6440   2.655   5.270   3.817 -0.3523  0.4147 -0.1805
 2159TIP3    H1 6441   2.578   5.230   3.776  0.1662  0.6306 -1.4169
 2159TIP3    H2 6442   2.705   5.196   3.850 -0.2503  0.1411 -0.9231
 2160TIP3   OH2 6443   5.375   5.597   1.663 -0.1470  0.1070 -0.4037
 2160TIP3    H1 6444   5.348   5.682   1.698 -0.4744 -0.8766  1.9360
 2160TIP3    H2 6445   5.306   5.536   1.692  0.2381 -1.0219 -1.7561
 2161TIP3   OH2 6446   5.558   1.091   4.297 -0.0286 -0.6120 -0.2733
 2161TIP3    H1 6447   5.627   1.099   4.231  0.2799 -1.7485 -0.1046
 2161TIP3    H2 6448   5.570   1.004   4.335 -0.9745 -0.4624  0.4227
 2162TIP3   OH2 6449   6.712   5.233   3.011 -0.4605 -0.1004  0.2201
 2162TIP3    H1 6450   6.617   5.239   3.003 -0.4766 -1.3499 -1.0169
 2162TIP3    H2 6451   6.726   5.171   3.083 -0.5845  0.2986  0.5850
 2163TIP3   OH2 6452   4.175   3.593   2.545  0.1911 -0.5791  0.1115
 2163TIP3    H1 6453   4.246   3.606   2.481 -1.5494  0.1052 -1.8071
 2163TIP3    H2 6454   4.097   3.623   2.499 -1.5510 -2.4438  1.6734
 2164TIP3   OH2 6455   3.771   3.070   0.498  0.5633 -0.2479  0.1146
 2164TIP3    H1 6456   3.747   3.076   0.590 -4.1202 -4.7611 -0.4010
 2164TIP3    H2 6457   3.846   3.010   0.496  1.9404  1.3639  0.9346
 2165TIP3   OH2 6458   1.314   6.723   5.216  0.1722 -0.4133 -0.4258
 2165TIP3    H1 6459   1.408   6.718   5.236  0.0070  1.3100  0.9998
 2165TIP3    H2 6460   1.271   6.726   5.301 -0.9920  1.4771 -1.0233
 2166TIP3   OH2 6461   0.048   3.196   0.423 -0.1925  0.5918  0.3877
 2166TIP3    H1 6462   0.026   3.151   0.342  2.8022  1.2477 -0.9552
 2166TIP3    H2 6463   0.046   3.128   0.490  2.1215 -1.2398 -1.2009
 2167TIP3   OH2 6464   2.614   1.494   5.096 -0.0722 -0.0065  0.5406
 2167TIP3    H1 6465   2.696   1.447   5.114  1.4165  0.2688 -4.1556
 2167TIP3    H2 6466   2.628   1.582   5.129  1.6452  0.0619 -0.2881
 2168TIP3   OH2 6467   2.086   5.467   5.079 -0.2514 -0.0757 -0.2343
 2168TIP3    H1 6468   2.079   5.453   4.984  0.5945 -1.2130 -0.1569
 2168TIP3    H2 6469   2.167   5.422   5.103 -1.2757 -1.1773  1.2718
 2169TIP3   OH2 6470   0.629   5.391   3.659  0.1361  0.0919  0.6625
 2169TIP3    H1 6471   0.538   5.409   3.681  0.4186  2.0215  0.4104
 2169TIP3    H2 6472   0.680   5.443   3.721  1.1385 -2.0687  1.7519
 2170TIP3   OH2 6473   3.269   1.414   2.733 -0.3460 -0.0716 -0.1907
 2170TIP3    H1 6474   3.270   1.323   2.761  0.5457  0.0276  0.1405
 2170TIP3    H2 6475   3.192   1.452   2.775 -0.7405 -0.6763 -0.3652
 2171TIP3   OH2 6476   0.265   4.350   4.527 -0.0309 -0.2107 -0.2068
 2171TIP3    H1 6477   0.274   4.407   4.604 -0.2040 -0.5204  0.0463
 2171TIP3    H2 6478   0.207   4.280   4.556 -2.0548  0.9035 -1.2963
 2172TIP3   OH2 6479   2.243   4.625   5.569 -0.0139 -0.6608  0.1377
 2172TIP3    H1 6480   2.156   4.617   5.608  0.4994  0.5456  1.6140
 2172TIP3    H2 6481   2.303   4.628   5.643  1.1580  0.1491 -0.7935
 2173TIP3   OH2 6482   5.447   3.239   5.356 -0.0625  0.1736 -0.4291
 2173TIP3    H1 6483   5.391   3.312   5.331  0.8715  0.6823 -1.0605
 2173TIP3    H2 6484   5.457   3.248   5.451  1.0462  1.6091 -0.6544
 2174TIP3   OH2 6485   4.367   2.144   3.730  0.1176 -0.4506  0.3109
 2174TIP3    H1 6486   4.336   2.068   3.681  0.8276 -0.9792  0.6601
 2174TIP3    H2 6487   4.452   2.165   3.690 -0.7665  1.1537 -0.8205
 2175TIP3   OH2 6488   3.223   1.870   0.925 -0.9118 -0.3140 -0.0914
 2175TIP3    H1 6489   3.142   1.823   0.909 -0.4721 -0.6839 -1.3464
 2175TIP3    H2 6490   3.243   1.912   0.841 -1.5552  2.5690  1.0738
 2176TIP3   OH2 6491   6.885   1.480   3.787 -0.3725  0.2009 -0.1466
 2176TIP3    H1 6492   6.943   1.411   3.820 -1.6922 -0.4904  0.8382
 2176TIP3    H2 6493   6.941   1.556   3.776  0.6597 -0.3453  1.0926
 2177TIP3   OH2 6494   1.515   4.213   0.310  0.0767 -0.3658  0.4946
 2177TIP3    H1 6495   1.438   4.172   0.348 -0.6313 -0.1958 -0.7098
 2177TIP3    H2 6496   1.555   4.145   0.257  0.2690 -0.1987  0.4226
 2178TIP3   OH2 6497   0.869   3.963   0.196  0.1449  0.4553 -0.0250
 2178TIP3    H1 6498   0.859   3.999   0.108  0.4514  0.3497 -0.1059
 2178TIP3    H2 6499   0.801   3.896   0.203  0.3944  0.1690 -0.3366
 2179TIP3   OH2 6500   0.301   4.267   2.869  0.0705 -0.0023 -0.3294
 2179TIP3    H1 6501   0.396   4.260   2.867  0.1675 -0.0665  1.8530
 2179TIP3    H2 6502   0.270   4.178   2.849  0.5067 -0.2223 -0.0354
 2180TIP3   OH2 6503   0.286   3.840   5.485  0.9915 -0.6540  0.1602
 2180TIP3    H1 6504   0.251   3.775   5.547 -0.1859  0.0705  0.2866
 2180TIP3    H2 6505   0.285   3.795   5.400  2.1670 -1.4924  0.5645
 2181TIP3   OH2 6506   0.785   5.691   5.662  0.0909 -0.6928 -0.3138
 2181TIP3    H1 6507   0.879   5.679   5.673 -0.0612  0.0752  2.7174
 2181TIP3    H2 6508   0.776   5.780   5.629  0.4377  0.1063  1.5982
 2182TIP3   OH2 6509   6.454   6.563   2.551  1.0794  0.2361 -0.4085
 2182TIP3    H1 6510   6.418   6.620   2.619  0.3397 -0.1567 -0.4648
 2182TIP3    H2 6511   6.540   6.601   2.531  0.9128  0.8883  0.0863
 2183TIP3   OH2 6512   2.293   2.679   5.733  0.6978  0.3681 -0.0465
 2183TIP3    H1 6513   2.263   2.766   5.761  0.5587  0.2905  0.0428
 2183TIP3    H2 6514   2.219   2.643   5.684 -0.1860 -0.6800  1.9181
 2184TIP3   OH2 6515   6.093   6.718   3.006  0.2639  0.0260  0.2667
 2184TIP3    H1 6516   6.099   6.813   3.015 -0.3635  0.0953  0.0092
 2184TIP3    H2 6517   6.012   6.703   2.956  0.7117 -0.6067 -0.2973
 2185TIP3   OH2 6518   7.143   4.866   0.999 -0.4643 -0.2504 -0.2385
 2185TIP3    H1 6519   7.210   4.882   1.065 -0.5439  1.4860 -0.5482
 2185TIP3    H2 6520   7.060   4.876   1.046 -0.5278 -1.2885 -0.1078
 2186TIP3   OH2 6521   1.000   1.309   5.721  0.7962 -0.1207  0.4339
 2186TIP3    H1 6522   0.959   1.273   5.800 -0.8443 -0.9981 -0.7669
 2186TIP3    H2 6523   1.091   1.282   5.727  0.6096 -0.5239  1.8200
 2187TIP3   OH2 6524   2.895   3.325   4.141  0.1897 -0.7221  0.2131
 2187TIP3    H1 6525   2.945   3.286   4.069 -0.3383 -1.6754  0.3536
 2187TIP3    H2 6526   2.947   3.308   4.219  0.5850 -0.0064  0.1120
 2188TIP3   OH2 6527   4.979   5.683   0.372  0.1233 -0.4255  0.2744
 2188TIP3    H1 6528   4.977   5.698   0.277 -0.3840 -1.0132  0.1811
 2188TIP3    H2 6529   4.901   5.630   0.388  0.0461 -0.0744  1.0692
 2189TIP3   OH2 6530   5.971   0.063   5.706 -0.5069  0.0292  0.5467
 2189TIP3    H1 6531   5.998  -0.016   5.755 -0.7901 -0.8462 -0.6514
 2189TIP3    H2 6532   5.983   0.038   5.614 -2.5459  0.6677  0.0630
 2190TIP3   OH2 6533   1.786   5.243   0.251  0.3651  0.0899 -0.3463
 2190TIP3    H1 6534   1.721   5.311   0.234  1.2826  0.7903 -1.2364
 2190TIP3    H2 6535   1.845   5.282   0.316  0.1791 -0.3540  0.0962
 2191TIP3   OH2 6536   2.392   2.048   2.025 -0.3101 -0.3374 -0.4868
 2191TIP3    H1 6537   2.329   2.109   1.986 -3.7004 -3.0552  0.1205
 2191TIP3    H2 6538   2.472   2.059   1.974 -0.9958  3.7797 -0.9918
 2192TIP3   OH2 6539   0.771   0.401   0.426  0.1766  0.5391  0.8023
 2192TIP3    H1 6540   0.692   0.441   0.388 -1.0534 -0.9276  1.7008
 2192TIP3    H2 6541   0.832   0.395   0.353 -0.7778  1.1204 -0.0777
 2193TIP3   OH2 6542   3.328   6.212   5.116 -0.4105  0.4394  0.3325
 2193TIP3    H1 6543   3.388   6.243   5.184 -1.9442 -0.0606  2.0214
 2193TIP3    H2 6544   3.246   6.258   5.134 -2.0203 -2.5762  1.3728
 2194TIP3   OH2 6545   3.715   6.343   1.221  0.2477 -0.5146 -0.5248
 2194TIP3    H1 6546   3.785   6.378   1.166 -0.4020 -0.9382 -1.6603
 2194TIP3    H2 6547   3.654   6.303   1.159 -0.6684 -0.7327  0.4917
 2195TIP3   OH2 6548   3.900   0.297   1.647 -0.3949  0.2254 -0.4376
 2195TIP3    H1 6549   3.926   0.304   1.739  1.1312  0.1564 -0.8427
 2195TIP3    H2 6550   3.873   0.206   1.637  0.1667  0.0281 -0.2233
 2196TIP3   OH2 6551   5.247   6.800   1.732  0.2784  0.5966  0.1928
 2196TIP3    H1 6552   5.285   6.728   1.682 -0.3515  0.1758  0.3009
 2196TIP3    H2 6553   5.172   6.829   1.680 -0.2517  0.3015  0.7668
 2197TIP3   OH2 6554   3.129   6.173   3.696 -0.7871 -0.2296  0.1809
 2197TIP3    H1 6555   3.218   6.156   3.664 -0.8930 -1.3134  0.4426
 2197TIP3    H2 6556   3.110   6.100   3.755 -1.4778  0.5186  0.9097
 2198TIP3   OH2 6557   6.570   5.930   4.682  0.0269  0.1321  0.7377
 2198TIP3    H1 6558   6.504   5.986   4.641  0.3880 -0.5018 -0.8076
 2198TIP3    H2 6559   6.520   5.870   4.738 -0.7791 -0.5608 -0.6587
 2199TIP3   OH2 6560   0.840   0.518   4.592  0.0709  0.4817 -0.1796
 2199TIP3    H1 6561   0.852   0.611   4.571 -0.6607  1.1130  1.9421
 2199TIP3    H2 6562   0.928   0.486   4.609  0.3541  0.7114 -1.1560
 2200TIP3   OH2 6563   2.076   5.222   1.066  0.7940  0.0754 -0.2520
 2200TIP3    H1 6564   2.056   5.133   1.094 -0.9488  0.0233 -1.5198
 2200TIP3    H2 6565   2.061   5.275   1.145  0.6392 -0.5982  0.1800
 2201TIP3   OH2 6566   6.069   6.499   1.366  0.3365  0.2084  0.9530
 2201TIP3    H1 6567   5.991   6.552   1.386  1.2494  1.5750  1.0387
 2201TIP3    H2 6568   6.142   6.553   1.395  1.5162  0.3543 -1.9572
 2202TIP3   OH2 6569   6.940   5.407   4.214  0.1395  0.6825 -0.3088
 2202TIP3    H1 6570   6.903   5.482   4.168  0.3633  1.2443  0.4054
 2202TIP3    H2 6571   7.024   5.438   4.247  0.4782 -0.0516 -0.4672
 2203TIP3   OH2 6572   0.016   3.413   0.969 -0.1063  0.0101 -0.3440
 2203TIP3    H1 6573  -0.023   3.491   0.930  0.0838 -0.6344 -1.8773
 2203TIP3    H2 6574   0.029   3.353   0.896 -2.5335 -2.4711  1.0511
 2204TIP3   OH2 6575   4.683   3.584   5.404 -0.3296  0.0713 -0.1394
 2204TIP3    H1 6576   4.691   3.670   5.445 -0.0309 -0.4170  0.8647
 2204TIP3    H2 6577   4.589   3.573   5.388 -0.6069 -0.1708  1.4624
 2205TIP3   OH2 6578   2.661   1.735   1.364  0.5054  0.2784  0.0748
 2205TIP3    H1 6579   2.607   1.813   1.376  0.9190  0.4679  0.7259
 2205TIP3    H2 6580   2.749   1.764   1.386  0.4665 -0.7061  1.6277
 2206TIP3   OH2 6581   2.831   3.185   0.365 -0.4389 -0.3238 -0.2050
 2206TIP3    H1 6582   2.794   3.227   0.287 -0.7666  1.9096  1.0523
 2206TIP3    H2 6583   2.921   3.218   0.368 -0.3427 -0.6248  0.2292
 2207TIP3   OH2 6584   6.716   1.043   2.638  0.3396 -0.0416 -0.7726
 2207TIP3    H1 6585   6.806   1.050   2.607  0.5797 -2.6962 -0.9056
 2207TIP3    H2 6586   6.720   1.065   2.730  1.2641 -0.6810 -0.6428
 2208TIP3   OH2 6587   2.425   4.308   4.379 -0.6069 -0.5237  0.2895
 2208TIP3    H1 6588   2.434   4.330   4.471 -0.1366 -0.1118  0.1538
 2208TIP3    H2 6589   2.506   4.342   4.339 -0.7154 -0.8753 -0.2339
 2209TIP3   OH2 6590   1.357   1.947   0.651  0.4887  0.1810  0.0037
 2209TIP3    H1 6591   1.300   1.891   0.702 -2.4111  1.2800 -1.7634
 2209TIP3    H2 6592   1.430   1.967   0.709 -0.6563 -1.7261  2.2467
 2210TIP3   OH2 6593   1.353   0.091   2.660  0.3534  0.0553  0.4236
 2210TIP3    H1 6594   1.308   0.141   2.728  0.7882  2.1786 -0.7625
 2210TIP3    H2 6595   1.292   0.091   2.586  1.5582  1.4591 -0.6072
 2211TIP3   OH2 6596   1.294   5.274   2.371 -0.3404  0.0712 -0.2003
 2211TIP3    H1 6597   1.342   5.240   2.446  0.4383 -0.0890 -0.7565
 2211TIP3    H2 6598   1.292   5.201   2.309  0.7590  0.7849 -1.1304
 2212TIP3   OH2 6599   6.058   1.695   3.294 -0.5782  0.0750 -0.5174
 2212TIP3    H1 6600   6.153   1.694   3.284 -0.6789  0.5934 -1.6496
 2212TIP3    H2 6601   6.043   1.751   3.371  0.0491 -0.5316  0.0593
 2213TIP3   OH2 6602   1.355   1.534   4.100 -0.2365  0.2290 -0.3310
 2213TIP3    H1 6603   1.332   1.496   4.015 -0.3326  0.5990 -0.4734
 2213TIP3    H2 6604   1.394   1.618   4.079  0.9825 -0.2517 -0.0740
 2214TIP3   OH2 6605   1.376   4.411   4.501 -0.1234 -0.6149  0.1292
 2214TIP3    H1 6606   1.325   4.458   4.435  0.9720 -0.6789 -0.7932
 2214TIP3    H2 6607   1.313   4.350   4.541 -0.2484 -2.7861 -2.9678
 2215TIP3   OH2 6608   0.169   5.241   1.613  0.0060 -0.2216 -0.2105
 2215TIP3    H1 6609   0.171   5.337   1.614 -0.5275 -0.1509  2.6658
 2215TIP3    H2 6610   0.253   5.216   1.651 -1.9681 -0.6065  4.4922
 2216TIP3   OH2 6611   4.334   2.194   0.460 -0.0751  0.1288 -0.1850
 2216TIP3    H1 6612   4.316   2.107   0.495 -1.0585 -1.1614 -3.4687
 2216TIP3    H2 6613   4.248   2.228   0.434  0.6526 -0.0320 -3.2106
 2217TIP3   OH2 6614   3.869   3.240   3.880 -0.2183  0.0490  0.3245
 2217TIP3    H1 6615   3.803   3.231   3.811  0.7053 -0.1128 -0.5665
 2217TIP3    H2 6616   3.925   3.163   3.870 -0.5659 -0.4376  1.8325
 2218TIP3   OH2 6617   1.380   2.143   0.311 -0.3919 -0.5125  0.0819
 2218TIP3    H1 6618   1.390   2.223   0.260 -1.9746 -0.0025  0.4999
 2218TIP3    H2 6619   1.352   2.077   0.248  0.5794 -0.6496 -0.2072
 2219TIP3   OH2 6620   0.890   2.447   2.488 -0.3690 -0.3921  0.5016
 2219TIP3    H1 6621   0.858   2.411   2.405  0.2661  0.6681 -0.2123
 2219TIP3    H2 6622   0.931   2.530   2.465  0.8737 -0.6316  1.7207
 2220TIP3   OH2 6623   3.654   4.866   4.916 -0.0485 -0.2289  0.2415
 2220TIP3    H1 6624   3.605   4.923   4.856  1.2083  0.8043  0.1382
 2220TIP3    H2 6625   3.664   4.919   4.995  1.7481  0.0064 -0.1075
 2221TIP3   OH2 6626   4.633   5.795   4.458 -0.1835  0.2744  0.3003
 2221TIP3    H1 6627   4.590   5.864   4.407  1.8295  2.4346  1.3605
 2221TIP3    H2 6628   4.606   5.811   4.548 -0.4008 -0.9328  0.4781
 2222TIP3   OH2 6629   2.874   2.669   3.971  0.3763  0.1532 -0.6787
 2222TIP3    H1 6630   2.958   2.656   3.927  0.1715 -0.0898 -1.0009
 2222TIP3    H2 6631   2.811   2.681   3.900  0.2088  0.7863 -0.4313
 2223TIP3   OH2 6632   3.962   1.508   2.258  0.3213  0.0337 -0.2977
 2223TIP3    H1 6633   3.949   1.526   2.164 -0.5293 -2.5843 -0.7670
 2223TIP3    H2 6634   3.877   1.475   2.288  1.2029 -1.3501  0.8003
 2224TIP3   OH2 6635   6.815   2.310   4.801  0.0405  0.1055  0.2927
 2224TIP3    H1 6636   6.845   2.393   4.838  0.6997  0.4447 -0.9611
 2224TIP3    H2 6637   6.767   2.334   4.721  0.8970 -0.7454 -0.5094
 2225TIP3   OH2 6638   4.503   5.163   2.891 -0.2448  0.2007 -0.0455
 2225TIP3    H1 6639   4.585   5.204   2.918 -0.3124 -0.2151  0.8203
 2225TIP3    H2 6640   4.463   5.132   2.973 -0.3687 -1.2533 -0.6304
 2226TIP3   OH2 6641   6.601   2.989   4.376  0.1248 -0.5833  0.1654
 2226TIP3    H1 6642   6.626   3.066   4.427  0.5275  0.1265 -1.0532
 2226TIP3    H2 6643   6.664   2.922   4.402  1.0177  0.0967 -0.1754
 2227TIP3   OH2 6644   4.344   6.029   0.357 -0.2489 -0.1021 -0.4913
 2227TIP3    H1 6645   4.347   6.123   0.340 -3.5703  0.6780  2.1287
 2227TIP3    H2 6646   4.256   6.002   0.331  0.4436 -2.3930 -0.6912
 2228TIP3   OH2 6647   0.174   4.855   2.842 -0.3847 -0.1373  0.1192
 2228TIP3    H1 6648   0.151   4.888   2.929  0.4203 -0.4620  0.4674
 2228TIP3    H2 6649   0.162   4.760   2.848  0.2506 -0.2259  0.0680
 2229TIP3   OH2 6650   1.412   1.707   2.411 -0.7066 -0.2760 -0.3641
 2229TIP3    H1 6651   1.383   1.709   2.319 -0.6787 -0.5664 -0.3785
 2229TIP3    H2 6652   1.505   1.729   2.406 -0.8414  0.3063 -0.3494
 2230TIP3   OH2 6653   6.673   1.403   0.188  0.0166 -0.4688  0.1571
 2230TIP3    H1 6654   6.720   1.336   0.139 -0.5826 -0.0789 -0.9772
 2230TIP3    H2 6655   6.581   1.387   0.170 -0.3727 -1.3977  2.5817
 2231TIP3   OH2 6656   3.501   4.099   0.910 -0.1034  0.4655 -0.0733
 2231TIP3    H1 6657   3.443   4.068   0.979  0.6113 -0.7525  0.0115
 2231TIP3    H2 6658   3.585   4.115   0.954 -0.3003  2.1069 -0.2107
 2232TIP3   OH2 6659   3.346   0.145   2.703 -0.2969  0.1718  0.0868
 2232TIP3    H1 6660   3.305   0.152   2.789  1.6653  0.7635  1.0450
 2232TIP3    H2 6661   3.323   0.058   2.671 -0.4333 -0.3543  1.5655
 2233TIP3   OH2 6662   3.695   1.449   2.371 -0.0564 -0.2089 -0.2504
 2233TIP3    H1 6663   3.687   1.385   2.442  0.9312  0.3121  0.3640
 2233TIP3    H2 6664   3.617   1.503   2.378 -0.0404 -0.2551  0.3607
 2234TIP3   OH2 6665   4.699   6.489   3.914  0.0956 -0.5387 -0.7402
 2234TIP3    H1 6666   4.741   6.530   3.839  0.4930  0.3946 -0.0289
 2234TIP3    H2 6667   4.627   6.547   3.936 -0.9727 -1.6012 -1.3196
 2235TIP3   OH2 6668   4.897   4.029   1.984  0.0755 -0.3577  0.1159
 2235TIP3    H1 6669   4.824   4.003   1.928  0.6584 -1.5889 -0.1067
 2235TIP3    H2 6670   4.867   4.011   2.073  0.3728 -1.6367 -0.0196
 2236TIP3   OH2 6671   1.937   1.240   1.765  0.2840  0.3031  0.1255
 2236TIP3    H1 6672   2.002   1.310   1.761  0.6188  0.2327  2.8273
 2236TIP3    H2 6673   1.987   1.159   1.757 -0.0487  0.2533 -2.4353
 2237TIP3   OH2 6674   6.840   4.266   1.522 -0.5184 -0.2981 -0.4762
 2237TIP3    H1 6675   6.863   4.282   1.431 -1.4680 -1.2078 -0.9060
 2237TIP3    H2 6676   6.765   4.206   1.518  0.3939 -1.6081  0.9345
 2238TIP3   OH2 6677   1.753   3.639   1.083 -0.0596  0.2421  0.2851
 2238TIP3    H1 6678   1.795   3.725   1.087 -0.5749  0.7241 -2.6181
 2238TIP3    H2 6679   1.674   3.648   1.137  1.2152  0.7004  2.1610
 2239TIP3   OH2 6680   4.566   2.884   2.102 -0.1127 -0.1282 -0.6248
 2239TIP3    H1 6681   4.557   2.871   2.008  0.6811  2.6447 -1.1871
 2239TIP3    H2 6682   4.656   2.916   2.113  0.0024 -0.9785  1.1658
 2240TIP3   OH2 6683   2.631   3.534   0.465 -0.0622  0.2869 -0.1056
 2240TIP3    H1 6684   2.588   3.579   0.538  2.2902 -0.4337  1.8492
 2240TIP3    H2 6685   2.560   3.517   0.402 -1.6761  3.4295  0.6650
 2241TIP3   OH2 6686   1.122   5.350   5.151  0.5214 -0.3237  0.2626
 2241TIP3    H1 6687   1.122   5.255   5.135 -1.8625 -0.2928 -0.3592
 2241TIP3    H2 6688   1.050   5.363   5.212  1.2249  1.0504  0.8321
 2242TIP3   OH2 6689   4.887   1.611   0.239  0.7689  0.0199 -0.0895
 2242TIP3    H1 6690   4.816   1.636   0.179  0.5499 -1.2777 -0.4116
 2242TIP3    H2 6691   4.857   1.529   0.278  1.4417  0.2406  0.9122
 2243TIP3   OH2 6692   2.725   6.306   1.152 -0.1825 -0.1598  0.7765
 2243TIP3    H1 6693   2.688   6.224   1.119 -0.8406  0.2253  0.5384
 2243TIP3    H2 6694   2.818   6.299   1.133 -0.4299 -0.2709 -0.5166
 2244TIP3   OH2 6695   6.121   2.383   2.288 -0.4178 -0.1951  0.1751
 2244TIP3    H1 6696   6.045   2.412   2.338 -0.7806  1.6171 -1.2904
 2244TIP3    H2 6697   6.086   2.361   2.201  0.6881  0.8489 -0.5854
 2245TIP3   OH2 6698   1.891   2.645   5.110 -0.0248  0.0131  0.0750
 2245TIP3    H1 6699   1.946   2.705   5.161 -0.8403  0.6933  0.1863
 2245TIP3    H2 6700   1.920   2.558   5.136  1.3834  0.3422 -0.2963
 2246TIP3   OH2 6701   3.497   4.725   3.256 -0.5346  0.0424  0.0146
 2246TIP3    H1 6702   3.543   4.791   3.308  0.3554  0.2162 -0.9515
 2246TIP3    H2 6703   3.528   4.740   3.167 -2.0005 -0.2685 -0.5692
 2247TIP3   OH2 6704   4.532   5.589   5.032 -0.2815  0.0644 -0.0479
 2247TIP3    H1 6705   4.567   5.675   5.053  0.9041 -0.1887 -0.8761
 2247TIP3    H2 6706   4.531   5.542   5.115 -1.5685  1.0729  0.5341
 2248TIP3   OH2 6707   3.545   3.729   0.511  0.0194 -0.2999  0.5010
 2248TIP3    H1 6708   3.598   3.651   0.530  0.7026  0.0269 -0.0095
 2248TIP3    H2 6709   3.535   3.772   0.596 -1.4774 -1.6103  1.0259
 2249TIP3   OH2 6710   3.815   3.243   3.128  0.1836  0.3545  0.0437
 2249TIP3    H1 6711   3.889   3.231   3.188 -0.0549  1.2867  0.5385
 2249TIP3    H2 6712   3.854   3.284   3.051  0.2697  0.3467  0.0819
 2250TIP3   OH2 6713   2.435   5.379   5.394 -0.3770  0.1447 -0.2878
 2250TIP3    H1 6714   2.412   5.290   5.421  2.5409 -0.6723 -0.2549
 2250TIP3    H2 6715   2.446   5.426   5.477 -2.1885  0.6862 -0.3054
 2251TIP3   OH2 6716   2.346   4.804   1.350 -0.1042 -0.0017  0.6491
 2251TIP3    H1 6717   2.265   4.767   1.316 -0.0889  0.6525 -0.1331
 2251TIP3    H2 6718   2.357   4.764   1.436 -0.0527 -1.8381 -0.1782
 2252TIP3   OH2 6719   1.062   6.519   1.712  0.0517  0.4206  0.2718
 2252TIP3    H1 6720   1.104   6.466   1.644 -0.8665 -1.7070  1.2608
 2252TIP3    H2 6721   1.069   6.465   1.791 -0.0031  2.2827  1.6064
 2253TIP3   OH2 6722   6.493   2.028   1.713 -0.1540 -0.0086  0.4713
 2253TIP3    H1 6723   6.408   1.999   1.680  0.4078 -1.7668  0.4292
 2253TIP3    H2 6724   6.496   1.995   1.803 -0.7585  2.8009  1.6229
 2254TIP3   OH2 6725   0.840   5.125   2.956  0.8614 -0.4776 -0.2271
 2254TIP3    H1 6726   0.891   5.088   3.027  1.2762 -0.0201 -0.2818
 2254TIP3    H2 6727   0.822   5.051   2.898 -0.8184 -1.2005  1.1123
 2255TIP3   OH2 6728   0.921   1.402   3.740 -0.0212 -0.0425 -0.3147
 2255TIP3    H1 6729   0.952   1.331   3.796 -1.3980 -0.2732  0.1951
 2255TIP3    H2 6730   0.844   1.437   3.785  0.1050  1.2011 -0.9983
 2256TIP3   OH2 6731   4.189   5.102   3.508  0.5689 -0.0382  0.1656
 2256TIP3    H1 6732   4.283   5.112   3.520  0.5849  2.2753 -1.3217
 2256TIP3    H2 6733   4.156   5.074   3.594  2.7086 -2.2899  0.3732
 2257TIP3   OH2 6734   5.368   2.061   5.204  0.7153 -0.1355  0.3095
 2257TIP3    H1 6735   5.374   2.144   5.157 -0.7279 -0.8913 -1.3158
 2257TIP3    H2 6736   5.342   2.085   5.292  0.4838  1.1551 -0.0920
 2258TIP3   OH2 6737   5.424   0.866   0.034 -0.0527 -0.1951  0.3902
 2258TIP3    H1 6738   5.406   0.788   0.085  2.6305  1.3151  4.1154
 2258TIP3    H2 6739   5.366   0.933   0.071  1.3571  0.7450  0.9943
 2259TIP3   OH2 6740   4.996   5.896   3.080 -0.8100 -0.0126 -0.3799
 2259TIP3    H1 6741   5.058   5.953   3.034 -2.5302  1.4179 -1.0654
 2259TIP3    H2 6742   4.923   5.955   3.103 -1.9287 -1.6204  0.3440
 2260TIP3   OH2 6743   6.673   0.675   4.458 -1.0134  0.7705  0.0977
 2260TIP3    H1 6744   6.586   0.701   4.488 -0.7527 -0.5238  2.1042
 2260TIP3    H2 6745   6.696   0.599   4.511  0.3382 -0.4601 -2.0781
 2261TIP3   OH2 6746   2.122   6.030   2.562  0.6322 -0.2230  0.4052
 2261TIP3    H1 6747   2.145   6.107   2.509  0.2023 -0.4697 -0.1521
 2261TIP3    H2 6748   2.059   5.982   2.508  1.2550 -1.2136  0.5362
 2262TIP3   OH2 6749   1.160   5.112   5.926  0.0548  0.0632 -0.1844
 2262TIP3    H1 6750   1.096   5.108   5.855  1.1987  0.1830 -1.2644
 2262TIP3    H2 6751   1.237   5.151   5.886  1.6588 -2.2753  0.3845
 2263TIP3   OH2 6752   5.897   4.246   1.325  0.2241 -0.2551  0.1667
 2263TIP3    H1 6753   5.919   4.291   1.406 -0.5758  0.7556 -0.1506
 2263TIP3    H2 6754   5.961   4.176   1.317  2.1859  1.4585  0.1514
 2264TIP3   OH2 6755   0.394   6.349   1.445  0.3717  0.8175  0.2605
 2264TIP3    H1 6756   0.367   6.331   1.355  0.3994  2.1141 -0.0208
 2264TIP3    H2 6757   0.315   6.379   1.489  0.4220  0.4726  0.5947
 2265TIP3   OH2 6758   0.004   1.298   0.303 -0.0553 -0.1540  0.0490
 2265TIP3    H1 6759   0.055   1.308   0.223  0.5404 -1.7509  0.2025
 2265TIP3    H2 6760  -0.048   1.379   0.308  0.8116  0.5257 -1.2703
 2266TIP3   OH2 6761   1.535   0.724   5.327  0.3350  0.8590 -0.2247
 2266TIP3    H1 6762   1.564   0.815   5.327 -0.3906  1.1538 -2.6985
 2266TIP3    H2 6763   1.532   0.699   5.235 -0.4353 -1.3812  0.3317
 2267TIP3   OH2 6764   5.587   5.466   0.275  0.2954 -0.2000  0.3982
 2267TIP3    H1 6765   5.615   5.408   0.346 -1.8911 -1.8715 -0.0056
 2267TIP3    H2 6766   5.494   5.482   0.291  0.2782  1.2430 -0.8689
 2268TIP3   OH2 6767   3.460   3.698   5.031  0.2834 -0.5260  0.9439
 2268TIP3    H1 6768   3.545   3.653   5.030  1.1491  1.0530  0.6915
 2268TIP3    H2 6769   3.411   3.659   4.959  0.7855 -1.4369  1.0787
 2269TIP3   OH2 6770   6.870   0.067   5.175  0.1623  0.4863  0.4553
 2269TIP3    H1 6771   6.919   0.149   5.166 -0.2184  0.6807  0.0566
 2269TIP3    H2 6772   6.877   0.026   5.089 -2.3809  1.6868 -0.4364
 2270TIP3   OH2 6773   2.293   1.216   1.027 -0.6644  0.2996  0.0724
 2270TIP3    H1 6774   2.374   1.188   0.985 -0.1338 -0.7417  1.6997
 2270TIP3    H2 6775   2.295   1.312   1.023  0.3285  0.2678 -0.4689
 2271TIP3   OH2 6776   6.700   0.373   1.748 -0.3624  0.5744 -0.0607
 2271TIP3    H1 6777   6.716   0.457   1.792 -0.4386  0.7298 -0.3289
 2271TIP3    H2 6778   6.694   0.395   1.655  0.3800  0.1663 -0.2167
 2272TIP3   OH2 6779   6.764   1.520   3.211 -0.0182  0.3633  0.1075
 2272TIP3    H1 6780   6.687   1.488   3.164 -0.3735 -0.3594  1.1578
 2272TIP3    H2 6781   6.740   1.608   3.239 -0.7971 -0.1446  1.1180
 2273TIP3   OH2 6782   5.904   1.868   0.740  0.2039 -0.3313 -0.1135
 2273TIP3    H1 6783   5.861   1.947   0.708 -0.8831 -1.1610 -0.7588
 2273TIP3    H2 6784   5.892   1.871   0.835 -0.5435 -0.1347 -0.2108
 2274TIP3   OH2 6785   0.042   4.489   5.288  0.4441  0.0576  0.0129
 2274TIP3    H1 6786   0.044   4.585   5.283 -1.2630  0.2544  1.7574
 2274TIP3    H2 6787   0.074   4.470   5.376 -0.1177 -0.8961  0.0230
 2275TIP3   OH2 6788   5.073   6.375   0.390 -0.1367 -0.0238  0.1798
 2275TIP3    H1 6789   5.056   6.345   0.301 -0.0271  1.8541 -0.5160
 2275TIP3    H2 6790   5.065   6.296   0.444  0.6855 -1.3778 -1.5827
 2276TIP3   OH2 6791   2.053   0.946   0.018 -0.6356 -0.0536  0.0351
 2276TIP3    H1 6792   2.106   1.009  -0.031  0.2308 -0.8626 -0.0780
 2276TIP3    H2 6793   2.113   0.905   0.079 -1.8223  1.4066  2.3453
 2277TIP3   OH2 6794   0.055   0.097   0.579 -0.4300  0.4497 -0.2545
 2277TIP3    H1 6795   0.005   0.174   0.552 -1.0259  0.1290 -0.0892
 2277TIP3    H2 6796   0.129   0.133   0.628 -0.3476  0.9454 -0.7283
 2278TIP3   OH2 6797   6.258   5.336   2.284 -0.0870 -0.5698  0.2649
 2278TIP3    H1 6798   6.270   5.425   2.251  0.3540 -0.3574  0.9934
 2278TIP3    H2 6799   6.180   5.341   2.338  1.2550 -0.0579  2.2473
 2279TIP3   OH2 6800   3.085   3.881   3.897 -0.0395  0.0882  0.4779
 2279TIP3    H1 6801   3.077   3.796   3.941  1.2215  0.4597  1.4849
 2279TIP3    H2 6802   3.105   3.943   3.967  0.7228  0.9235 -0.4390
 2280TIP3   OH2 6803   5.466   6.657   4.953 -0.3175  0.6768  0.6513
 2280TIP3    H1 6804   5.522   6.701   4.889 -1.0998 -0.9095 -1.2121
 2280TIP3    H2 6805   5.397   6.616   4.901 -1.2550 -0.3324  2.5699
 2281TIP3   OH2 6806   0.829   3.796   1.240 -0.0155  0.2229 -0.4488
 2281TIP3    H1 6807   0.847   3.885   1.269 -0.4715  0.4145 -0.7386
 2281TIP3    H2 6808   0.868   3.790   1.153  0.3465  0.0153 -0.2752
 2282TIP3   OH2 6809   5.635   0.956   2.369 -0.0879  0.1849  0.4860
 2282TIP3    H1 6810   5.583   0.891   2.416  2.9686 -2.2059  0.8839
 2282TIP3    H2 6811   5.651   0.916   2.284  1.5632  0.5224  0.6136
 2283TIP3   OH2 6812   0.815   1.257   2.336 -0.2894 -0.2499  0.1402
 2283TIP3    H1 6813   0.745   1.304   2.382  0.1549 -1.0315  1.6547
 2283TIP3    H2 6814   0.768   1.198   2.277 -0.8565  1.5916 -1.3731
 2284TIP3   OH2 6815   1.115   1.406   5.229  0.2199  0.2459 -0.0854
 2284TIP3    H1 6816   1.059   1.390   5.305  1.4027  0.6223  0.9062
 2284TIP3    H2 6817   1.103   1.329   5.174 -1.0241  0.1854  0.2418
 2285TIP3   OH2 6818   2.292   5.878   0.399  0.2289 -0.0750 -0.3247
 2285TIP3    H1 6819   2.388   5.881   0.403  0.1863  1.8161  0.0141
 2285TIP3    H2 6820   2.269   5.804   0.456  1.4810 -0.9495 -0.8914
 2286TIP3   OH2 6821   3.260   5.721   4.573  0.0692 -0.0451  0.2055
 2286TIP3    H1 6822   3.270   5.796   4.631 -1.9987 -0.3187  0.9754
 2286TIP3    H2 6823   3.348   5.707   4.537  0.3746  3.3163 -0.7363
 2287TIP3   OH2 6824   6.646   6.051   2.295  0.4249 -0.3825  0.3880
 2287TIP3    H1 6825   6.654   5.983   2.361  0.7434 -1.2858 -0.5499
 2287TIP3    H2 6826   6.735   6.061   2.260 -0.0835 -1.4818 -1.3810
 2288TIP3   OH2 6827   2.583   1.830   0.891  0.4801  0.0626 -0.0212
 2288TIP3    H1 6828   2.502   1.823   0.840  0.1345  0.5537  0.4546
 2288TIP3    H2 6829   2.651   1.802   0.830 -0.2436 -2.3147  0.1557
 2289TIP3   OH2 6830   6.055   6.761   2.154  0.2814 -0.0513 -0.5039
 2289TIP3    H1 6831   6.123   6.796   2.212  0.8599 -1.3226 -0.3754
 2289TIP3    H2 6832   6.076   6.668   2.147 -0.4264 -0.1243 -1.8966
 2290TIP3   OH2 6833   6.511   3.738   5.257 -0.0235 -1.0140  0.0239
 2290TIP3    H1 6834   6.462   3.789   5.323  0.0979  0.3300 -0.8913
 2290TIP3    H2 6835   6.603   3.759   5.275  0.0245 -0.8743 -0.3914
 2291TIP3   OH2 6836   2.924   0.406   0.817 -0.3061 -0.0022 -0.1355
 2291TIP3    H1 6837   2.860   0.366   0.759 -0.3359  1.7585 -1.4178
 2291TIP3    H2 6838   2.872   0.449   0.885 -0.3522 -0.6862  0.2650
 2292TIP3   OH2 6839   5.075   4.800   2.630  0.1357  0.2409  0.2954
 2292TIP3    H1 6840   5.009   4.782   2.698 -0.4377  0.0242 -0.3056
 2292TIP3    H2 6841   5.106   4.714   2.603  0.6195  0.3425  0.5326
 2293TIP3   OH2 6842   4.310   2.513   1.270 -0.0667 -0.1409 -0.9060
 2293TIP3    H1 6843   4.335   2.446   1.206  0.4969  1.0627 -2.0136
 2293TIP3    H2 6844   4.345   2.595   1.233  2.1551  0.3600  1.9294
 2294TIP3   OH2 6845   3.017   5.333   1.994  0.4379  0.1683 -0.4151
 2294TIP3    H1 6846   3.064   5.413   1.969  0.5606  0.4881  0.7587
 2294TIP3    H2 6847   3.002   5.343   2.088  0.5183 -1.2242 -0.2318
 2295TIP3   OH2 6848   3.315   1.049   0.806  0.0658  0.0221  0.2778
 2295TIP3    H1 6849   3.311   0.960   0.842  0.8166 -0.0318  0.2446
 2295TIP3    H2 6850   3.258   1.100   0.864 -2.1646 -0.8728 -0.9825
 2296TIP3   OH2 6851   4.865   0.204   1.331  0.3544  0.4342 -0.2029
 2296TIP3    H1 6852   4.798   0.272   1.317 -0.1684 -0.0288 -0.0041
 2296TIP3    H2 6853   4.876   0.201   1.426  1.5489  1.3411 -0.2927
 2297TIP3   OH2 6854   6.061   3.334   5.377  0.0905  0.0230  0.3140
 2297TIP3    H1 6855   6.135   3.393   5.391  2.5161 -1.9322 -2.8837
 2297TIP3    H2 6856   6.091   3.249   5.411 -0.8425 -0.7323 -0.6647
 2298TIP3   OH2 6857   4.550   1.716   1.265  0.1590  0.1764 -0.0245
 2298TIP3    H1 6858   4.541   1.645   1.329  1.0573 -0.9238 -1.0736
 2298TIP3    H2 6859   4.552   1.796   1.318  0.0511 -0.6408  1.2526
 2299TIP3   OH2 6860   3.560   1.814   1.329  0.2218 -0.5678 -0.2849
 2299TIP3    H1 6861   3.558   1.812   1.234  1.7955 -0.9259 -0.3408
 2299TIP3    H2 6862   3.490   1.875   1.354 -0.4259 -0.7303 -1.6412
 2300TIP3   OH2 6863   5.054   2.730   5.605  0.1846  0.4658  0.3177
 2300TIP3    H1 6864   5.005   2.734   5.523 -0.5895  0.9577  0.7891
 2300TIP3    H2 6865   5.097   2.815   5.612  1.7807 -0.2258 -0.4683
 2301TIP3   OH2 6866   1.410   0.484   4.053  0.3139 -0.3397 -0.2000
 2301TIP3    H1 6867   1.462   0.404   4.059  0.5431 -0.2650 -1.0158
 2301TIP3    H2 6868   1.404   0.502   3.959 -0.7139 -0.0349 -0.0894
 2302TIP3   OH2 6869   3.180   5.646   4.964  0.5616 -0.5191  0.4642
 2302TIP3    H1 6870   3.094   5.680   4.937 -0.3722 -1.7890  1.7077
 2302TIP3    H2 6871   3.201   5.580   4.899 -0.5738 -1.9044  1.4440
 2303TIP3   OH2 6872   4.457   6.338   5.404  0.6180 -0.3817  0.0581
 2303TIP3    H1 6873   4.473   6.428   5.375  0.3982 -0.0105  1.0606
 2303TIP3    H2 6874   4.363   6.324   5.390  1.0395 -1.3321 -2.4225
 2304TIP3   OH2 6875   7.008   4.505   3.025 -0.0802  0.4051 -0.1603
 2304TIP3    H1 6876   6.992   4.579   3.084  0.1564  0.3889 -0.0749
 2304TIP3    H2 6877   7.079   4.456   3.066 -2.0755 -1.4970  1.2838
 2305TIP3   OH2 6878   2.855   5.875   5.340  0.3929 -0.3268  0.6089
 2305TIP3    H1 6879   2.919   5.864   5.269 -0.6336  1.1361 -0.6215
 2305TIP3    H2 6880   2.776   5.832   5.307  0.0457 -0.0392  1.0563
 2306TIP3   OH2 6881   5.002   2.915   1.387 -0.0599  0.2973  0.0193
 2306TIP3    H1 6882   5.026   2.835   1.432  0.1192  0.0613 -0.4864
 2306TIP3    H2 6883   4.946   2.962   1.449  0.1116 -0.0576  0.4478
 2307TIP3   OH2 6884   5.966   2.232   5.057  1.2234 -0.1773  0.0898
 2307TIP3    H1 6885   5.954   2.287   4.980 -0.9934  0.5644  0.8871
 2307TIP3    H2 6886   6.040   2.270   5.103  0.7540  1.1747 -0.2211
 2308TIP3   OH2 6887   0.861   1.697   1.702 -0.0808  0.0449  0.4952
 2308TIP3    H1 6888   0.810   1.681   1.781  0.1001 -0.9516  0.4219
 2308TIP3    H2 6889   0.834   1.785   1.674 -2.1839 -0.6517  0.1380
 2309TIP3   OH2 6890   3.706   2.010   4.193 -0.2703  0.0179  0.8581
 2309TIP3    H1 6891   3.760   2.090   4.195 -0.5027  0.2022  0.2556
 2309TIP3    H2 6892   3.618   2.042   4.169 -0.2145 -0.4880 -0.0651
 2310TIP3   OH2 6893   0.617   0.825   2.375 -0.1264 -0.1018  0.3852
 2310TIP3    H1 6894   0.595   0.777   2.295 -1.9509 -0.2848  0.9503
 2310TIP3    H2 6895   0.675   0.895   2.346  0.0509 -0.7640 -0.9382
 2311TIP3   OH2 6896   2.662   3.168   2.907  0.1181 -0.2866 -0.2973
 2311TIP3    H1 6897   2.730   3.117   2.864 -0.3307 -1.2710  0.1500
 2311TIP3    H2 6898   2.655   3.130   2.995 -0.8159 -0.0178 -0.2482
 2312TIP3   OH2 6899   5.776   1.217   4.515  0.2024  0.3325  0.3891
 2312TIP3    H1 6900   5.833   1.217   4.438 -1.5981 -2.5143 -1.1155
 2312TIP3    H2 6901   5.799   1.136   4.562 -1.5563 -0.1326  0.5105
 2313TIP3   OH2 6902   1.887   3.702   5.051 -0.4345  0.1053 -0.2845
 2313TIP3    H1 6903   1.945   3.655   5.112  1.6546 -1.4208 -3.2076
 2313TIP3    H2 6904   1.805   3.653   5.055 -0.3933  0.0981  1.2988
 2314TIP3   OH2 6905   5.499   6.064   3.721  0.3052 -0.0330 -0.1544
 2314TIP3    H1 6906   5.474   6.134   3.660 -0.4998 -1.1056 -1.0994
 2314TIP3    H2 6907   5.594   6.061   3.716  0.4020  1.3839  0.3628
 2315TIP3   OH2 6908   3.076   3.647   2.574  0.1488  0.5661 -0.0883
 2315TIP3    H1 6909   3.035   3.699   2.643 -1.0028  0.3941 -0.6204
 2315TIP3    H2 6910   3.043   3.685   2.493 -0.8289 -1.0284 -0.4905
 2316TIP3   OH2 6911   5.614   6.349   0.223 -0.4200 -0.4015 -0.5254
 2316TIP3    H1 6912   5.628   6.296   0.302  0.1217  1.8921  0.9985
 2316TIP3    H2 6913   5.522   6.377   0.229  0.2050  1.5717  0.5187
 2317TIP3   OH2 6914   2.537   1.995   3.889  0.4659  0.6503  0.0761
 2317TIP3    H1 6915   2.580   2.016   3.973  0.2958 -0.7657  0.5326
 2317TIP3    H2 6916   2.606   1.954   3.837  0.0904 -0.1871  0.2269
 2318TIP3   OH2 6917   3.603   0.568   0.867 -0.3102  0.3242  0.4073
 2318TIP3    H1 6918   3.668   0.564   0.937 -2.6032  1.4741  2.7830
 2318TIP3    H2 6919   3.582   0.476   0.849  0.2286 -0.0049  1.3527
 2319TIP3   OH2 6920   6.467   4.071   5.421  0.0526 -0.7453  0.0188
 2319TIP3    H1 6921   6.422   3.994   5.454  0.4541 -0.4849  1.2107
 2319TIP3    H2 6922   6.559   4.044   5.413  0.2432 -0.3166  0.7043
 2320TIP3   OH2 6923   4.655   6.523   2.100 -0.4299 -0.0514 -0.2336
 2320TIP3    H1 6924   4.659   6.503   2.007  1.0693  1.7260 -0.6020
 2320TIP3    H2 6925   4.602   6.602   2.105 -0.5442 -0.1649  0.4532
 2321TIP3   OH2 6926   3.803   3.687   0.389 -0.1977  0.0880 -0.4108
 2321TIP3    H1 6927   3.768   3.776   0.393 -0.8248 -0.1801  1.1027
 2321TIP3    H2 6928   3.749   3.643   0.324 -1.6103  0.1526  0.6611
 2322TIP3   OH2 6929   6.246   2.635   1.142 -0.4952 -0.3245  0.1566
 2322TIP3    H1 6930   6.245   2.714   1.089  0.4984 -0.6002 -0.2872
 2322TIP3    H2 6931   6.158   2.631   1.180 -0.9919  0.2563 -0.8883
 2323TIP3   OH2 6932   2.598   1.770   4.240  0.2906  0.0224 -0.5265
 2323TIP3    H1 6933   2.529   1.704   4.244  1.1552 -0.8618  0.1113
 2323TIP3    H2 6934   2.663   1.733   4.181  0.6020  0.4907 -0.4849
 2324TIP3   OH2 6935   3.715   1.502   0.940  0.5355 -0.2594  0.1153
 2324TIP3    H1 6936   3.735   1.418   0.982 -1.1657  0.0504  1.7076
 2324TIP3    H2 6937   3.720   1.566   1.011 -2.3163  0.3208 -0.0750
 2325TIP3   OH2 6938   4.188   0.403   0.339  0.5386  0.3403  0.0419
 2325TIP3    H1 6939   4.143   0.340   0.283 -1.4899  0.2026  1.7025
 2325TIP3    H2 6940   4.151   0.488   0.315 -0.0860  0.3220  0.8741
 2326TIP3   OH2 6941   1.412   5.150   3.000  0.4506 -0.3905 -0.4282
 2326TIP3    H1 6942   1.356   5.073   2.992 -0.2349 -0.1749  1.7429
 2326TIP3    H2 6943   1.379   5.211   2.934 -0.3701 -1.1198 -0.7141
 2327TIP3   OH2 6944   6.723   0.798   1.535  0.1927 -0.1398 -0.1079
 2327TIP3    H1 6945   6.813   0.824   1.552 -0.4341  1.1563  1.4923
 2327TIP3    H2 6946   6.685   0.873   1.488 -0.2619 -0.3620 -0.1038
 2328TIP3   OH2 6947   4.443   5.995   4.351 -0.5004  0.3168  0.0388
 2328TIP3    H1 6948   4.513   6.059   4.362 -0.9578  1.1479 -1.6084
 2328TIP3    H2 6949   4.363   6.045   4.362 -0.8822  0.2480 -2.1027
 2329TIP3   OH2 6950   0.828   3.494   2.605 -0.2138  0.1831  0.1016
 2329TIP3    H1 6951   0.854   3.579   2.569  0.8301 -0.2917 -0.2961
 2329TIP3    H2 6952   0.732   3.497   2.605 -0.1998  1.1585 -0.3900
 2330TIP3   OH2 6953   1.305   5.968   1.244 -0.1682  0.2322  0.1630
 2330TIP3    H1 6954   1.333   6.035   1.306 -2.1155  0.4743  0.8177
 2330TIP3    H2 6955   1.236   5.920   1.289  0.7170 -1.8167 -0.5516
 2331TIP3   OH2 6956   7.123   4.792   0.576 -0.1357 -0.1965  0.0164
 2331TIP3    H1 6957   7.068   4.807   0.652  1.8790 -1.3529  1.8145
 2331TIP3    H2 6958   7.201   4.748   0.610  0.5703 -1.4169 -2.8064
 2332TIP3   OH2 6959   5.030   3.676   1.439 -0.0892 -0.1326 -0.0101
 2332TIP3    H1 6960   5.002   3.590   1.471 -2.2814  0.0289 -1.2974
 2332TIP3    H2 6961   5.099   3.656   1.376 -0.8152 -1.0044 -0.5537
 2333TIP3   OH2 6962   2.274   5.647   1.159  0.1207 -0.4690 -0.7664
 2333TIP3    H1 6963   2.346   5.661   1.220 -0.0121  0.3061 -0.7826
 2333TIP3    H2 6964   2.277   5.553   1.140  1.0375 -0.4715 -0.6560
 2334TIP3   OH2 6965   2.339   5.485   5.650 -0.0203  0.3765  0.0515
 2334TIP3    H1 6966   2.258   5.434   5.658 -1.4152  2.0347 -2.2132
 2334TIP3    H2 6967   2.351   5.525   5.736 -0.9236 -0.8638  0.7755
 2335TIP3   OH2 6968   1.882   1.767   1.008  0.1473 -0.1513  0.0412
 2335TIP3    H1 6969   1.796   1.746   0.970  0.2063 -0.1810 -0.0747
 2335TIP3    H2 6970   1.942   1.706   0.966 -0.0172 -1.1695  1.2579
 2336TIP3   OH2 6971   5.587   5.776   4.469 -0.2716 -0.2799  0.6161
 2336TIP3    H1 6972   5.612   5.865   4.494  0.6833 -0.2610 -0.3424
 2336TIP3    H2 6973   5.520   5.751   4.532 -1.3496  1.5305  0.2606
 2337TIP3   OH2 6974   6.676   6.261   0.670 -0.6560 -0.8469 -0.0311
 2337TIP3    H1 6975   6.748   6.212   0.711  0.5425 -0.2061 -1.2764
 2337TIP3    H2 6976   6.663   6.217   0.586  0.8736  1.2410 -1.4687
 2338TIP3   OH2 6977   6.219   4.363   0.642 -0.2541 -0.5847  0.0318
 2338TIP3    H1 6978   6.222   4.339   0.549 -1.2105  0.0361 -0.1751
 2338TIP3    H2 6979   6.145   4.313   0.677  0.4473 -1.2529  0.6056
 2339TIP3   OH2 6980   2.946   2.636   5.512  0.3052 -0.4009  0.4750
 2339TIP3    H1 6981   2.914   2.577   5.580  0.3277 -0.7392  0.1909
 2339TIP3    H2 6982   3.040   2.622   5.510  0.1425 -1.4356 -0.6060
 2340TIP3   OH2 6983   1.092   2.890   2.593 -0.1064 -0.2529 -0.0421
 2340TIP3    H1 6984   1.062   2.980   2.586  0.0038 -0.1573  0.6763
 2340TIP3    H2 6985   1.156   2.881   2.522 -0.8860 -0.0861 -0.7787
 2341TIP3   OH2 6986   0.543   5.154   5.651  0.0306 -0.1003  0.9510
 2341TIP3    H1 6987   0.503   5.209   5.718  0.6378  1.4091  0.1301
 2341TIP3    H2 6988   0.545   5.066   5.689 -0.1270  0.6103  2.6675
 2342TIP3   OH2 6989   0.975   6.606   3.827 -0.5528 -0.3549  0.0208
 2342TIP3    H1 6990   0.968   6.658   3.907  0.2453 -1.5201  0.8902
 2342TIP3    H2 6991   1.025   6.661   3.767 -1.2353  0.5722  0.2758
 2343TIP3   OH2 6992   3.988   3.715   4.156  0.3413 -0.4530 -0.2405
 2343TIP3    H1 6993   4.038   3.640   4.124  0.4417 -0.5879  0.2307
 2343TIP3    H2 6994   3.935   3.742   4.081  1.4885  0.0143 -0.9049
 2344TIP3   OH2 6995   6.869   1.073   0.665 -0.1919 -0.3647 -0.5607
 2344TIP3    H1 6996   6.920   1.155   0.667  0.5685 -0.7529 -2.0895
 2344TIP3    H2 6997   6.935   1.004   0.661 -0.8077 -0.9155 -1.8410
 2345TIP3   OH2 6998   6.765   4.299   2.541 -0.5856  0.0875  0.5040
 2345TIP3    H1 6999   6.818   4.230   2.502 -0.3435 -0.0929  1.1426
 2345TIP3    H2 7000   6.826   4.372   2.552 -0.3703 -0.2263  1.5335
 2346TIP3   OH2 7001   6.035   6.117   2.895 -0.3071  0.0534  0.0312
 2346TIP3    H1 7002   6.078   6.109   2.810  1.5556 -0.6520  0.9849
 2346TIP3    H2 7003   6.080   6.054   2.951 -0.4116  1.5741  1.9504
 2347TIP3   OH2 7004   3.179   4.531   0.593  0.1505  0.7155 -0.2478
 2347TIP3    H1 7005   3.194   4.532   0.687 -0.4421 -0.7558 -0.1042
 2347TIP3    H2 7006   3.086   4.550   0.582  0.3655  1.6160 -0.5938
 2348TIP3   OH2 7007   1.538   3.905   3.048 -0.0925  0.1386 -0.1349
 2348TIP3    H1 7008   1.573   3.972   3.106 -0.1381 -0.3280  0.4358
 2348TIP3    H2 7009   1.568   3.822   3.085  0.5814 -0.1381 -1.2472
 2349TIP3   OH2 7010   6.534   2.314   2.492 -1.0728  0.3057 -0.4257
 2349TIP3    H1 7011   6.478   2.382   2.531  1.4474  2.4645 -0.2465
 2349TIP3    H2 7012   6.532   2.242   2.556 -1.9264  1.2093  0.6163
 2350TIP3   OH2 7013   3.578   4.362   3.892  0.2411 -0.1448 -0.0005
 2350TIP3    H1 7014   3.640   4.414   3.840  0.2067  0.7857  0.8495
 2350TIP3    H2 7015   3.627   4.338   3.971 -0.2467  0.0070  0.3599
 2351TIP3   OH2 7016   5.118   6.687   2.182  0.1833  0.7291 -0.5890
 2351TIP3    H1 7017   5.170   6.668   2.260  1.1392  1.2711 -1.0786
 2351TIP3    H2 7018   5.156   6.767   2.146 -1.1482  1.2871 -0.8396
 2352TIP3   OH2 7019   4.909   6.548   3.003  0.3109 -0.7261 -0.0685
 2352TIP3    H1 7020   4.960   6.468   2.999  0.6971 -0.4638 -0.5270
 2352TIP3    H2 7021   4.974   6.618   3.004 -0.0098 -0.4304  0.8025
 2353TIP3   OH2 7022   3.324   5.344   5.333 -0.7358 -0.3056 -0.4085
 2353TIP3    H1 7023   3.311   5.262   5.285 -1.1131 -0.1318 -0.6036
 2353TIP3    H2 7024   3.310   5.320   5.425  0.0969 -0.6639 -0.3669
 2354TIP3   OH2 7025   2.981   6.774   5.146  0.6433 -0.2423 -0.4344
 2354TIP3    H1 7026   2.967   6.683   5.118  1.0313 -0.8321  1.1694
 2354TIP3    H2 7027   2.929   6.782   5.226  1.2992  0.6734 -0.0890
 2355TIP3   OH2 7028   3.002   1.487   2.819 -0.9231  0.5218  0.4188
 2355TIP3    H1 7029   2.908   1.477   2.807 -0.7598 -1.7005  0.5564
 2355TIP3    H2 7030   3.025   1.421   2.884  1.1616 -1.2484 -1.9312
 2356TIP3   OH2 7031   6.458   4.349   3.701 -0.4979  0.6005  0.6419
 2356TIP3    H1 7032   6.504   4.363   3.783  1.9400  1.3807 -0.7648
 2356TIP3    H2 7033   6.467   4.255   3.684 -0.3881  0.5586  0.9297
 2357TIP3   OH2 7034   0.461   5.525   0.586 -0.3809  0.3664 -0.1660
 2357TIP3    H1 7035   0.442   5.585   0.659 -2.1726  0.3573 -0.5755
 2357TIP3    H2 7036   0.471   5.439   0.628 -2.6744  0.1215  0.0349
 2358TIP3   OH2 7037   1.216   4.949   3.465 -0.1608  0.3618 -0.3598
 2358TIP3    H1 7038   1.159   4.901   3.405 -1.3307  0.8176  0.3416
 2358TIP3    H2 7039   1.260   5.014   3.411  1.9683 -1.8539 -1.4673
 2359TIP3   OH2 7040   4.300   6.456   1.994 -0.1523  0.5973  0.5491
 2359TIP3    H1 7041   4.316   6.491   2.082  1.5362  1.3576 -0.0047
 2359TIP3    H2 7042   4.302   6.533   1.937 -1.2591  0.1188 -0.1588
 2360TIP3   OH2 7043   6.104   3.336   0.401 -0.7892  0.9068 -0.4532
 2360TIP3    H1 7044   6.021   3.380   0.384 -1.1754  0.3469 -0.0314
 2360TIP3    H2 7045   6.169   3.390   0.356 -1.5983  0.2947 -2.4691
 2361TIP3   OH2 7046   0.678   3.360   5.889  0.1748 -0.3979 -0.5740
 2361TIP3    H1 7047   0.593   3.394   5.915  0.4538  0.7573 -1.1403
 2361TIP3    H2 7048   0.665   3.327   5.800  0.3926  0.0955 -0.7936
 2362TIP3   OH2 7049   5.454   1.831   1.178  0.2220 -0.1427  0.4510
 2362TIP3    H1 7050   5.535   1.880   1.165 -0.3780  1.0647  1.2140
 2362TIP3    H2 7051   5.470   1.778   1.256  0.1099  0.4653  0.8909
 2363TIP3   OH2 7052   4.276   5.643   4.838  0.1532 -0.1243  0.3417
 2363TIP3    H1 7053   4.349   5.587   4.812 -0.0897  0.2850 -1.2988
 2363TIP3    H2 7054   4.207   5.582   4.864  0.4182 -0.5484  0.0527
 2364TIP3   OH2 7055   2.410   3.594   2.180 -0.4179  0.1254 -0.0222
 2364TIP3    H1 7056   2.317   3.574   2.188 -0.3544 -0.3238 -0.3552
 2364TIP3    H2 7057   2.436   3.551   2.099  0.1006  0.1612  0.1250
 2365TIP3   OH2 7058   4.564   5.574   5.811  0.5213  0.1660 -0.1551
 2365TIP3    H1 7059   4.561   5.589   5.906  0.2261  0.0370 -0.1416
 2365TIP3    H2 7060   4.637   5.628   5.781  1.1930 -0.4923  0.2669
 2366TIP3   OH2 7061   1.230   5.022   0.326 -0.0963  0.3718 -0.4731
 2366TIP3    H1 7062   1.287   4.965   0.376  0.2390  1.4044  0.3587
 2366TIP3    H2 7063   1.288   5.063   0.261 -0.6613 -1.5319 -2.3068
 2367TIP3   OH2 7064   6.460   1.571   5.472 -0.2243  0.2153 -0.4706
 2367TIP3    H1 7065   6.501   1.577   5.386  1.6367 -0.6747  0.2965
 2367TIP3    H2 7066   6.488   1.651   5.516 -0.2964  0.1681 -0.3402
 2368TIP3   OH2 7067   6.191   4.349   5.625 -0.7285  0.2162  0.3158
 2368TIP3    H1 7068   6.132   4.336   5.699  1.3407 -1.0928  1.8508
 2368TIP3    H2 7069   6.155   4.292   5.556 -1.3224 -0.4784  1.1684
 2369TIP3   OH2 7070   5.598   3.719   1.600  0.6247  0.0120 -0.2296
 2369TIP3    H1 7071   5.621   3.748   1.512  3.2447  2.0918  0.9911
 2369TIP3    H2 7072   5.512   3.758   1.617 -0.1766 -0.8993 -2.0148
 2370TIP3   OH2 7073   0.227   2.081   3.857  0.0646  0.1742  0.0028
 2370TIP3    H1 7074   0.262   2.134   3.929  2.7973 -0.1481 -0.9957
 2370TIP3    H2 7075   0.208   1.996   3.898 -0.1667  0.5548  0.7043
 2371TIP3   OH2 7076   3.300   5.592   5.802 -0.0246  0.1848 -0.0030
 2371TIP3    H1 7077   3.385   5.556   5.775 -0.4857 -2.0195  1.2778
 2371TIP3    H2 7078   3.321   5.677   5.840  1.2517  0.8934 -2.0942
 2372TIP3   OH2 7079   0.398   2.832   1.174  0.3608 -0.3350 -0.1561
 2372TIP3    H1 7080   0.488   2.847   1.203 -0.6508  1.9479  2.1820
 2372TIP3    H2 7081   0.398   2.858   1.082  1.6073  2.1023  0.4430
 2373TIP3   OH2 7082   6.155   3.225   0.842  0.1140  0.1862  0.2720
 2373TIP3    H1 7083   6.183   3.217   0.751 -0.6366 -2.3568  0.1791
 2373TIP3    H2 7084   6.134   3.318   0.853  2.1166  0.9246 -1.5259
 2374TIP3   OH2 7085   1.849   2.864   0.680  0.4423  0.3948  0.3671
 2374TIP3    H1 7086   1.754   2.860   0.670  0.5273  2.5732 -2.3873
 2374TIP3    H2 7087   1.881   2.786   0.634  0.0415  0.1747  0.4516
 2375TIP3   OH2 7088   1.009   3.146   0.597  0.2655  0.2238 -0.6376
 2375TIP3    H1 7089   0.942   3.079   0.587 -0.9090  1.0942  0.8670
 2375TIP3    H2 7090   0.989   3.210   0.529  0.4946 -0.2420 -1.1454
 2376TIP3   OH2 7091   1.014   2.390   3.365 -0.3653 -0.9646  0.3909
 2376TIP3    H1 7092   1.050   2.378   3.278 -0.2186 -2.4734  0.6359
 2376TIP3    H2 7093   0.919   2.386   3.353 -0.3317 -1.7077  0.3688
 2377TIP3   OH2 7094   4.931   5.719   5.282 -0.0673 -0.0981 -0.2508
 2377TIP3    H1 7095   4.966   5.756   5.363 -0.4469 -2.7182  1.2129
 2377TIP3    H2 7096   5.008   5.713   5.224  1.0890 -1.7662  1.3549
 2378TIP3   OH2 7097   3.060   4.883   3.120  0.4798 -0.0314 -0.0986
 2378TIP3    H1 7098   3.058   4.978   3.108  0.9331 -0.0980 -0.7702
 2378TIP3    H2 7099   3.004   4.849   3.051  0.6389 -0.2740 -0.1090
 2379TIP3   OH2 7100   3.638   0.133   4.937 -0.6189 -0.6402 -0.5765
 2379TIP3    H1 7101   3.713   0.168   4.891 -0.9037  2.1684  0.8659
 2379TIP3    H2 7102   3.675   0.068   4.998  0.4596 -0.2546 -0.8005
 2380TIP3   OH2 7103   4.276   5.046   1.167  0.2661 -0.5686 -0.1928
 2380TIP3    H1 7104   4.227   5.017   1.243 -0.6744  0.1567 -0.5142
 2380TIP3    H2 7105   4.339   5.109   1.201  0.3364 -0.7840  0.0792
 2381TIP3   OH2 7106   6.589   0.960   0.643  0.4348  0.7000 -0.5221
 2381TIP3    H1 7107   6.561   0.992   0.728  2.0617 -0.6208  0.5870
 2381TIP3    H2 7108   6.681   0.987   0.637  0.2341  1.1186 -2.0524
 2382TIP3   OH2 7109   3.281   5.946   4.742  0.6398 -0.1255  0.0075
 2382TIP3    H1 7110   3.266   5.953   4.836  1.4868  0.1319  0.1356
 2382TIP3    H2 7111   3.238   6.024   4.705  0.7452  0.0476  0.2449
 2383TIP3   OH2 7112   1.235   1.216   5.625  0.8238  0.3182  0.1857
 2383TIP3    H1 7113   1.311   1.273   5.612  0.8117 -0.0893 -2.0362
 2383TIP3    H2 7114   1.272   1.128   5.629  0.5853  0.2332  0.4730
 2384TIP3   OH2 7115   3.016   0.249   4.162  0.1652  0.2958  0.1052
 2384TIP3    H1 7116   3.003   0.295   4.079  1.9122  1.2027  0.2951
 2384TIP3    H2 7117   3.094   0.290   4.200 -1.0618  0.5056  2.6146
 2385TIP3   OH2 7118   6.894   0.148   1.169  0.1058 -0.0233  0.1591
 2385TIP3    H1 7119   6.806   0.112   1.186  0.1767 -0.4929 -0.3968
 2385TIP3    H2 7120   6.878   0.238   1.142 -0.0564  0.4959  1.9004
 2386TIP3   OH2 7121   1.752   6.732   4.194  0.3494 -0.4214 -0.1414
 2386TIP3    H1 7122   1.668   6.724   4.240  0.8153  2.3080  1.3800
 2386TIP3    H2 7123   1.786   6.643   4.192 -1.2518 -1.1616  1.8745
 2387TIP3   OH2 7124   1.476   2.027   3.559  0.1051  0.0491  0.3478
 2387TIP3    H1 7125   1.556   2.074   3.536  0.1808 -0.1742  0.1597
 2387TIP3    H2 7126   1.405   2.086   3.531  0.1970 -0.0816 -0.1751
 2388TIP3   OH2 7127   5.255   6.059   1.212 -0.1247  0.4779  0.1343
 2388TIP3    H1 7128   5.302   6.055   1.129  2.5788 -1.2479  1.5688
 2388TIP3    H2 7129   5.179   6.115   1.196  0.2127  0.0773 -3.4798
 2389TIP3   OH2 7130   5.934   0.100   5.134  0.1354  0.0984  0.0216
 2389TIP3    H1 7131   5.880   0.152   5.075 -1.1153  1.0306  1.8813
 2389TIP3    H2 7132   5.871   0.052   5.188  1.1922 -0.0458  1.1733
 2390TIP3   OH2 7133   2.257   2.871   2.476 -0.4679 -0.3372 -0.0234
 2390TIP3    H1 7134   2.331   2.912   2.431 -1.0076 -2.6793 -3.4835
 2390TIP3    H2 7135   2.182   2.925   2.454 -0.4003 -0.2709 -0.0893
 2391TIP3   OH2 7136   5.603   4.251   1.462 -0.1411  0.0053 -0.0905
 2391TIP3    H1 7137   5.636   4.189   1.527  1.4835  0.2865 -0.5987
 2391TIP3    H2 7138   5.653   4.331   1.477 -0.7706  0.5372 -0.7557
 2392TIP3   OH2 7139   1.315   5.081   2.188  0.1256 -0.4385 -0.3901
 2392TIP3    H1 7140   1.284   4.996   2.156  0.1617  0.1282 -2.0485
 2392TIP3    H2 7141   1.400   5.093   2.145  0.6806 -0.0705  0.7572
 2393TIP3   OH2 7142   2.138   0.429   5.609  0.1462  0.0636 -0.0412
 2393TIP3    H1 7143   2.143   0.366   5.538 -1.0668  0.3157 -0.3739
 2393TIP3    H2 7144   2.129   0.376   5.688  1.2493 -0.2077 -0.0817
 2394TIP3   OH2 7145   6.793   4.154   4.686 -0.0083  0.7541  0.1355
 2394TIP3    H1 7146   6.865   4.101   4.653 -0.1989  0.2176  0.5749
 2394TIP3    H2 7147   6.715   4.101   4.670 -0.1437  0.6554  1.0843
 2395TIP3   OH2 7148   6.029   5.035   1.227  0.7840 -0.2923 -0.7190
 2395TIP3    H1 7149   5.964   4.975   1.192 -0.5050  0.7573 -0.2146
 2395TIP3    H2 7150   6.012   5.118   1.181  0.9119  0.3387  0.3399
 2396TIP3   OH2 7151   6.047   3.245   4.113 -0.3997  0.4841 -0.3064
 2396TIP3    H1 7152   6.110   3.186   4.154  1.2128  1.8476 -0.6630
 2396TIP3    H2 7153   5.988   3.271   4.183 -1.2400 -1.5887 -0.1706
 2397TIP3   OH2 7154   0.822   1.530   0.259  0.1023  0.5410  0.5081
 2397TIP3    H1 7155   0.776   1.499   0.337 -0.7291  1.0031  0.2141
 2397TIP3    H2 7156   0.834   1.624   0.274  0.6919  0.4784  0.4477
 2398TIP3   OH2 7157   3.225   5.976   4.999 -0.0799  0.0113 -0.1513
 2398TIP3    H1 7158   3.288   6.032   5.045  0.0170  0.9725 -1.4128
 2398TIP3    H2 7159   3.148   6.031   4.988  0.4700  0.4092 -2.5639
 2399TIP3   OH2 7160   5.136   3.697   4.178 -0.6831 -0.0577  0.0261
 2399TIP3    H1 7161   5.132   3.748   4.260  0.8851  0.7316 -0.3353
 2399TIP3    H2 7162   5.075   3.741   4.119 -0.0930  0.8347  0.0500
 2400TIP3   OH2 7163   1.632   2.319   1.421 -0.0499 -0.5549  0.3865
 2400TIP3    H1 7164   1.626   2.242   1.365 -0.9214 -0.4791  0.3741
 2400TIP3    H2 7165   1.650   2.391   1.361 -1.2602 -0.4287  0.1660
 2401TIP3   OH2 7166   4.060   4.985   0.797  0.3381  0.0462  0.6120
 2401TIP3    H1 7167   4.046   4.963   0.889  2.4208 -0.0066  0.9498
 2401TIP3    H2 7168   4.117   4.916   0.764 -1.3356 -0.6026 -1.0829
 2402TIP3   OH2 7169   6.787   3.344   4.891 -0.2701 -0.1105 -0.0947
 2402TIP3    H1 7170   6.750   3.427   4.923  2.3119  1.8216 -1.6985
 2402TIP3    H2 7171   6.729   3.277   4.926 -2.8181  2.3885  0.8531
 2403TIP3   OH2 7172   0.177   6.226   0.513 -0.2893 -0.9455  0.7290
 2403TIP3    H1 7173   0.124   6.228   0.433 -0.8396  0.4414  1.0828
 2403TIP3    H2 7174   0.113   6.230   0.584  0.2460  1.0873  1.1651
 2404TIP3   OH2 7175   2.590   0.552   4.355  0.3243  0.2375  0.0525
 2404TIP3    H1 7176   2.547   0.587   4.278 -0.2271 -0.5211  0.0009
 2404TIP3    H2 7177   2.650   0.486   4.321 -0.5734 -0.7495  0.3022
 2405TIP3   OH2 7178   0.996   4.952   3.645 -0.2006 -0.1017 -0.1328
 2405TIP3    H1 7179   0.964   5.042   3.659  0.4982  0.2959 -1.0258
 2405TIP3    H2 7180   1.064   4.961   3.579  0.8446 -1.1114  0.7735
 2406TIP3   OH2 7181   3.771   1.028   0.004  0.0675 -0.2587  0.1515
 2406TIP3    H1 7182   3.680   1.055   0.013 -0.0413  0.0502 -1.6204
 2406TIP3    H2 7183   3.821   1.110   0.011  0.1980 -0.3798  0.7279
 2407TIP3   OH2 7184   6.426   0.423   3.861  0.3096 -0.0773 -0.3964
 2407TIP3    H1 7185   6.434   0.422   3.765 -0.9426 -0.7363 -0.5204
 2407TIP3    H2 7186   6.500   0.476   3.891  0.2258  0.8825 -1.7804
 2408TIP3   OH2 7187   5.428   0.199   1.560  0.2865  0.5805  0.1268
 2408TIP3    H1 7188   5.399   0.214   1.650 -0.8978 -0.3761 -0.0640
 2408TIP3    H2 7189   5.347   0.191   1.509  0.8909 -0.5363 -0.7265
 2409TIP3   OH2 7190   0.134   3.140   4.857  0.2636  0.4047  0.7904
 2409TIP3    H1 7191   0.189   3.157   4.780  1.2519 -0.7844  1.2021
 2409TIP3    H2 7192   0.154   3.049   4.881 -0.9309  0.3663  1.7431
 2410TIP3   OH2 7193   1.956   5.843   4.087  0.1468  0.2344 -0.9358
 2410TIP3    H1 7194   1.937   5.845   3.993 -3.4982 -2.1485 -0.4713
 2410TIP3    H2 7195   1.950   5.751   4.110 -0.8643  0.9111  1.8803
 2411TIP3   OH2 7196   2.032   5.354   1.962  0.1322 -0.3030 -0.5014
 2411TIP3    H1 7197   2.013   5.441   1.926  0.0806 -0.2076 -0.2443
 2411TIP3    H2 7198   2.026   5.295   1.887 -1.1522 -0.2766 -0.4363
 2412TIP3   OH2 7199   3.748   3.176   5.711 -0.2566 -0.0792 -0.2744
 2412TIP3    H1 7200   3.663   3.132   5.715 -1.2798  1.8123  0.0356
 2412TIP3    H2 7201   3.756   3.203   5.619  0.9619 -1.9316 -0.7641
 2413TIP3   OH2 7202   4.231   3.274   1.935  0.0288 -0.1569  0.4938
 2413TIP3    H1 7203   4.319   3.247   1.907  1.0682  2.6221  0.8466
 2413TIP3    H2 7204   4.192   3.313   1.856 -0.7732 -0.9999  0.4517
 2414TIP3   OH2 7205   0.457   0.215   4.243 -0.3170  0.2008  0.4964
 2414TIP3    H1 7206   0.455   0.189   4.335 -2.6970 -0.7233  0.2472
 2414TIP3    H2 7207   0.366   0.235   4.221  0.4644  2.3487 -1.1697
 2415TIP3   OH2 7208   6.185   2.238   2.720  0.0110 -0.2202  0.1721
 2415TIP3    H1 7209   6.235   2.313   2.689  1.2451 -0.4049  1.5888
 2415TIP3    H2 7210   6.153   2.264   2.806 -0.5766 -0.8801  0.1635
 2416TIP3   OH2 7211   6.544   0.724   4.909 -0.0153  0.1822  0.0441
 2416TIP3    H1 7212   6.552   0.728   5.005 -0.7518  0.4753  0.0995
 2416TIP3    H2 7213   6.484   0.652   4.893  0.7178 -0.3788 -0.2427
 2417TIP3   OH2 7214   4.957   6.547   2.014 -0.0813 -0.1592  0.5588
 2417TIP3    H1 7215   4.867   6.569   2.039  0.1630 -1.0462  2.4272
 2417TIP3    H2 7216   5.011   6.604   2.069  0.5129 -0.1043 -0.0705
 2418TIP3   OH2 7217   2.234   6.712   1.998 -0.3197  0.0444  0.0073
 2418TIP3    H1 7218   2.295   6.774   2.037 -1.3241 -0.0610  1.8605
 2418TIP3    H2 7219   2.221   6.744   1.909  2.5613 -0.0670 -0.5503
 2419TIP3   OH2 7220   4.676   2.281   4.389 -0.1194 -0.5858  0.2249
 2419TIP3    H1 7221   4.615   2.251   4.456 -0.7644 -0.8544 -0.4745
 2419TIP3    H2 7222   4.761   2.246   4.417  0.0417  1.0248  2.0096
 2420TIP3   OH2 7223   3.808   6.211   4.134 -0.2153 -0.2722 -0.6194
 2420TIP3    H1 7224   3.752   6.287   4.116 -0.9534 -1.1055 -2.0034
 2420TIP3    H2 7225   3.893   6.249   4.155 -0.5998  0.9474 -1.1348
 2421TIP3   OH2 7226   4.222   3.695   3.568  0.0924 -0.6892 -0.3882
 2421TIP3    H1 7227   4.252   3.766   3.624 -0.0368 -0.7552 -0.2324
 2421TIP3    H2 7228   4.155   3.651   3.620 -0.6498 -0.2203 -0.9280
 2422TIP3   OH2 7229   3.318   3.617   4.423 -0.3695  0.1328 -0.2605
 2422TIP3    H1 7230   3.295   3.524   4.424 -0.0976  0.0585 -0.5888
 2422TIP3    H2 7231   3.373   3.629   4.500 -1.3502  0.2730  0.4302
 2423TIP3   OH2 7232   4.500   2.093   3.154 -0.0198 -0.2931 -0.2166
 2423TIP3    H1 7233   4.412   2.098   3.116 -0.7245  2.2559  1.4537
 2423TIP3    H2 7234   4.491   2.030   3.226 -0.9095  0.8342  0.7245
 2424TIP3   OH2 7235   5.468   3.900   2.211 -0.0835  0.2312  0.0802
 2424TIP3    H1 7236   5.410   3.973   2.187 -1.2779 -0.3385  1.1214
 2424TIP3    H2 7237   5.548   3.916   2.161 -0.8730  1.4295 -0.8702
 2425TIP3   OH2 7238   4.442   3.420   1.000 -0.1228  0.5786  0.6396
 2425TIP3    H1 7239   4.409   3.413   1.089 -0.3126  0.9996  0.6036
 2425TIP3    H2 7240   4.417   3.508   0.971 -2.3871 -0.4556 -0.7774
 2426TIP3   OH2 7241   6.958   2.011   4.007 -0.3923  0.2739  0.3886
 2426TIP3    H1 7242   6.864   1.994   4.003 -0.3326 -0.4975  1.6534
 2426TIP3    H2 7243   6.997   1.927   4.032  0.4914  0.8913  1.1810
 2427TIP3   OH2 7244   5.947   3.138   2.072  0.0801 -0.1885  0.6367
 2427TIP3    H1 7245   5.923   3.155   1.981 -0.6970 -0.2084  0.8335
 2427TIP3    H2 7246   5.876   3.176   2.124  1.1012  0.8971  1.2964
 2428TIP3   OH2 7247   4.825   0.296   5.345 -0.3498  0.1979 -0.0574
 2428TIP3    H1 7248   4.857   0.262   5.261  2.8814  2.9174 -0.1485
 2428TIP3    H2 7249   4.769   0.370   5.322 -0.9539 -0.1677  0.2062
 2429TIP3   OH2 7250   5.813   1.937   2.960  0.2802 -0.2812  0.5030
 2429TIP3    H1 7251   5.863   1.891   2.892  0.2812  1.5457 -0.8018
 2429TIP3    H2 7252   5.791   2.022   2.921  0.7081  1.0643  2.9787
 2430TIP3   OH2 7253   0.043   5.359   3.113  0.2858  0.0888  0.0810
 2430TIP3    H1 7254   0.070   5.352   3.021 -0.5027 -2.1959 -0.0345
 2430TIP3    H2 7255  -0.052   5.373   3.109  0.3452  0.6677  0.5531
 2431TIP3   OH2 7256   0.811   3.970   2.197  0.3700 -0.2869  0.3979
 2431TIP3    H1 7257   0.774   3.882   2.200  0.2697 -0.2138  2.6561
 2431TIP3    H2 7258   0.778   4.007   2.115 -1.4593 -1.5515  0.5139
 2432TIP3   OH2 7259   6.318   6.076   2.277 -0.3323  0.1302  0.5904
 2432TIP3    H1 7260   6.355   6.053   2.191 -2.0242  0.1849 -0.2094
 2432TIP3    H2 7261   6.364   6.156   2.303  1.3415 -0.7790  0.5210
 2433TIP3   OH2 7262   6.463   2.963   2.716  0.5807  0.3228 -0.3200
 2433TIP3    H1 7263   6.444   3.021   2.790  0.1579 -0.1718 -0.0305
 2433TIP3    H2 7264   6.536   2.909   2.746  3.5088  3.0873 -1.8985
 2434TIP3   OH2 7265   1.843   3.402   1.006 -0.1041 -0.0462  0.2938
 2434TIP3    H1 7266   1.819   3.489   1.036 -0.9760  0.0052 -0.4745
 2434TIP3    H2 7267   1.845   3.349   1.086 -0.6251  0.4537  0.6534
 2435TIP3   OH2 7268   4.969   1.856   4.618 -0.5393 -0.3235  0.3793
 2435TIP3    H1 7269   4.976   1.819   4.706 -1.1500 -0.5580  0.3350
 2435TIP3    H2 7270   5.054   1.838   4.577 -0.5860 -1.0456  0.5995
 2436TIP3   OH2 7271   3.477   0.653   2.255 -0.1765  0.4015 -0.2260
 2436TIP3    H1 7272   3.444   0.566   2.233 -2.4059  0.8988  0.8850
 2436TIP3    H2 7273   3.445   0.708   2.184  0.5878  0.4637 -0.5313
 2437TIP3   OH2 7274   1.368   3.789   2.003  0.3328 -0.4537 -0.0804
 2437TIP3    H1 7275   1.437   3.834   1.955  1.2268 -0.9103  0.7405
 2437TIP3    H2 7276   1.406   3.772   2.089 -0.9619 -0.3335  0.5410
 2438TIP3   OH2 7277   3.067   5.198   4.717 -0.2478  0.1733  0.6390
 2438TIP3    H1 7278   3.038   5.212   4.628  0.1031 -0.4587  0.4189
 2438TIP3    H2 7279   3.150   5.246   4.723  0.5457 -1.0633  0.1253
 2439TIP3   OH2 7280   1.057   3.629   0.219 -0.2297  0.3556  0.0258
 2439TIP3    H1 7281   1.060   3.691   0.147  0.0502 -0.2263 -0.4776
 2439TIP3    H2 7282   1.074   3.681   0.297 -1.0877  1.0847 -0.2693
 2440TIP3   OH2 7283   5.226   4.176   0.599 -0.0352 -0.2373 -0.0267
 2440TIP3    H1 7284   5.312   4.153   0.563 -0.3331  0.7024 -1.4236
 2440TIP3    H2 7285   5.166   4.112   0.562 -0.0951 -0.2540  0.0994
 2441TIP3   OH2 7286   4.975   3.994   0.504  0.6174  0.1270 -1.0007
 2441TIP3    H1 7287   4.882   4.012   0.492  0.6097 -0.7810 -2.5912
 2441TIP3    H2 7288   4.982   3.899   0.503  1.4301  0.1367  0.5332
 2442TIP3   OH2 7289   1.539   2.242   2.104  0.4362 -0.6164  0.3195
 2442TIP3    H1 7290   1.561   2.228   2.196 -0.8749 -0.9765  0.6044
 2442TIP3    H2 7291   1.489   2.164   2.080 -1.8666  0.8156  0.1837
 2443TIP3   OH2 7292   4.540   3.048   0.675  0.1218  0.4236  0.5300
 2443TIP3    H1 7293   4.499   2.962   0.663  1.9885 -0.6454  1.2358
 2443TIP3    H2 7294   4.469   3.106   0.700 -1.1505 -0.9997  0.3912
 2444TIP3   OH2 7295   4.218   4.906   1.992  0.7223 -0.3839  0.2988
 2444TIP3    H1 7296   4.248   4.880   1.905 -2.1883 -0.4400 -0.7931
 2444TIP3    H2 7297   4.161   4.981   1.977  0.6606  0.0178  2.2500
 2445TIP3   OH2 7298   3.673   5.336   3.071 -0.3537  0.5671 -0.5358
 2445TIP3    H1 7299   3.767   5.340   3.084 -0.3660 -1.7350  0.7302
 2445TIP3    H2 7300   3.651   5.243   3.079 -2.5861  0.8769 -1.9881
 2446TIP3   OH2 7301   3.395   4.867   2.823  1.1889 -0.2063  0.1612
 2446TIP3    H1 7302   3.411   4.784   2.868 -0.2817 -0.6591 -0.1079
 2446TIP3    H2 7303   3.349   4.842   2.743  0.4059  0.8948  0.2501
 2447TIP3   OH2 7304   2.977   3.776   2.071 -0.1754 -0.1342 -0.6455
 2447TIP3    H1 7305   2.974   3.695   2.020  1.5360 -1.8445  1.7763
 2447TIP3    H2 7306   3.026   3.837   2.015  0.0414 -1.3092 -1.7892
 2448TIP3   OH2 7307   4.833   2.272   3.293 -0.0564 -0.1180 -0.2178
 2448TIP3    H1 7308   4.878   2.327   3.357 -0.6167  0.5550 -0.3926
 2448TIP3    H2 7309   4.753   2.319   3.273  0.3885 -0.0017 -1.8701
 2449TIP3   OH2 7310   5.578   5.023   2.624 -0.2047  0.0052 -0.0969
 2449TIP3    H1 7311   5.587   5.110   2.664 -1.5951 -0.7462  2.0164
 2449TIP3    H2 7312   5.484   5.012   2.612 -0.0464 -1.2106 -0.3483
 2450TIP3   OH2 7313   0.499   5.267   3.967 -0.0431  0.2179  0.1352
 2450TIP3    H1 7314   0.423   5.314   4.002 -0.0128  0.1756  0.2595
 2450TIP3    H2 7315   0.574   5.313   4.003  0.0151  1.1079 -1.0940
 2451TIP3   OH2 7316   1.884   3.350   3.690  0.5035  0.4321 -0.9492
 2451TIP3    H1 7317   1.922   3.405   3.758  0.3788  0.5207 -0.9520
 2451TIP3    H2 7318   1.959   3.307   3.649  0.4374 -1.9509  1.1917
 2452TIP3   OH2 7319   2.342   2.801   3.926 -0.1782 -0.0483  0.0076
 2452TIP3    H1 7320   2.414   2.846   3.970 -2.1506  2.1307  1.2421
 2452TIP3    H2 7321   2.282   2.871   3.900 -1.4766 -1.6996 -1.7242
 2453TIP3   OH2 7322   3.181   1.146   1.024  0.1000 -0.2242 -0.1594
 2453TIP3    H1 7323   3.125   1.219   0.998  1.0487  1.0539  1.2113
 2453TIP3    H2 7324   3.211   1.169   1.112  2.9173 -0.7261 -0.9001
 2454TIP3   OH2 7325   3.139   3.699   1.553 -0.2126 -0.1271 -0.0646
 2454TIP3    H1 7326   3.092   3.617   1.538  1.5349 -1.2025  0.0095
 2454TIP3    H2 7327   3.073   3.767   1.543 -2.2690 -1.6412  2.1666
 2455TIP3   OH2 7328   7.162   5.316   1.982  0.4147 -0.0258  0.0725
 2455TIP3    H1 7329   7.143   5.228   2.016 -1.8430 -0.3976 -1.9103
 2455TIP3    H2 7330   7.110   5.375   2.037  2.3795  0.2507  1.7880
 2456TIP3   OH2 7331   6.701   4.985   1.298 -0.3694  0.0250  0.3119
 2456TIP3    H1 7332   6.794   4.973   1.278 -0.7187 -2.9024 -0.0649
 2456TIP3    H2 7333   6.700   5.041   1.375  1.8100 -0.9770  1.1614
 2457TIP3   OH2 7334   5.029   0.990   2.702  0.1591 -0.4121  0.0221
 2457TIP3    H1 7335   5.073   0.955   2.779 -2.1729 -2.5055  0.5276
 2457TIP3    H2 7336   4.942   1.013   2.732 -0.4886 -0.3470 -1.7621
 2458TIP3   OH2 7337   5.671   0.924   0.123 -0.0597  0.0171  0.1645
 2458TIP3    H1 7338   5.690   0.831   0.115  0.9982  0.1099  1.3271
 2458TIP3    H2 7339   5.592   0.937   0.070  1.1209 -1.0660 -1.9636
 2459TIP3   OH2 7340   4.684   0.384   1.250  0.0322 -0.2791  0.1344
 2459TIP3    H1 7341   4.599   0.353   1.280 -0.1071  0.1276  0.1582
 2459TIP3    H2 7342   4.664   0.458   1.194  0.2555 -1.2464 -1.2876
 2460TIP3   OH2 7343   4.948   1.039   5.433 -0.8196  0.0065  0.4805
 2460TIP3    H1 7344   5.042   1.023   5.424 -1.1204 -0.6443 -3.0731
 2460TIP3    H2 7345   4.938   1.134   5.420 -0.7629 -0.2779 -2.3700
 2461TIP3   OH2 7346   2.992   5.500   4.306 -0.3105 -0.2158  0.6185
 2461TIP3    H1 7347   2.950   5.545   4.233  0.0038  0.7380  1.0214
 2461TIP3    H2 7348   3.045   5.431   4.265  1.3900  1.5059 -0.2139
 2462TIP3   OH2 7349   1.135   4.493   2.300  0.2511 -0.0884  0.3239
 2462TIP3    H1 7350   1.151   4.586   2.318  0.2233 -0.3700  2.0419
 2462TIP3    H2 7351   1.081   4.464   2.373 -1.4606 -1.0213 -1.2446
 2463TIP3   OH2 7352   3.031   0.986   4.506 -0.1454  0.0932  0.1035
 2463TIP3    H1 7353   2.954   0.929   4.502  0.3777 -0.6104 -0.1300
 2463TIP3    H2 7354   3.071   0.978   4.419  1.0780 -0.8026  0.7294
 2464TIP3   OH2 7355   0.245   5.785   0.904  0.0272 -0.2051 -0.5556
 2464TIP3    H1 7356   0.226   5.871   0.867  0.6936  0.1436 -0.0948
 2464TIP3    H2 7357   0.162   5.757   0.944 -0.6924 -0.5567 -2.2139
 2465TIP3   OH2 7358   3.855   0.212   0.524  0.2070 -0.1129  0.0046
 2465TIP3    H1 7359   3.787   0.169   0.472  1.0853  0.9228 -2.1392
 2465TIP3    H2 7360   3.920   0.143   0.540 -0.8500 -0.8592  1.2247
 2466TIP3   OH2 7361   4.999   2.272   2.201  0.3267 -0.6252 -0.1698
 2466TIP3    H1 7362   5.070   2.333   2.181  0.0471  0.0723  0.9172
 2466TIP3    H2 7363   5.008   2.255   2.295 -0.9389 -0.5271 -0.0187
 2467TIP3   OH2 7364   1.802   0.498   5.822 -0.5428  0.2066 -0.7319
 2467TIP3    H1 7365   1.770   0.561   5.886  0.3231 -1.6014  1.6617
 2467TIP3    H2 7366   1.723   0.461   5.783 -1.3482 -1.0617  1.8658
 2468TIP3   OH2 7367   6.360   0.654   4.242  0.4519  0.0701  0.8729
 2468TIP3    H1 7368   6.332   0.584   4.301 -1.7594 -0.2641 -0.4805
 2468TIP3    H2 7369   6.318   0.733   4.275  1.8356  0.5368  1.5915
 2469TIP3   OH2 7370   1.061   2.858   5.765 -0.4354  0.5031 -0.0821
 2469TIP3    H1 7371   1.144   2.900   5.785  0.6274 -1.5803  0.2064
 2469TIP3    H2 7372   1.051   2.870   5.670 -0.3792  1.7319  0.0606
 2470TIP3   OH2 7373   0.045   4.816   4.492  0.0438 -0.4347 -0.2200
 2470TIP3    H1 7374   0.106   4.871   4.541 -1.3006 -0.2185  1.3046
 2470TIP3    H2 7375   0.067   4.727   4.517  0.4452 -0.4348 -0.5574
 2471TIP3   OH2 7376   5.721   0.146   0.009 -0.1013  0.1367 -0.2206
 2471TIP3    H1 7377   5.686   0.235   0.003 -0.5215  0.1025  1.3203
 2471TIP3    H2 7378   5.644   0.090  -0.002 -0.2912  0.0317  1.4088
 2472TIP3   OH2 7379   1.978   4.098   5.072 -0.1769 -0.2931  0.3208
 2472TIP3    H1 7380   1.907   4.033   5.076 -0.6257  0.2168  0.8448
 2472TIP3    H2 7381   1.946   4.165   5.013  0.2740 -0.5206 -0.1903
 2473TIP3   OH2 7382   0.333   5.271   4.383  0.3497 -0.5641  0.0504
 2473TIP3    H1 7383   0.339   5.278   4.287  1.2322 -1.0270  0.0647
 2473TIP3    H2 7384   0.239   5.275   4.401  0.1628 -0.6153 -0.8470
 2474TIP3   OH2 7385   4.476   2.514   0.932  0.3613 -0.2265  0.3855
 2474TIP3    H1 7386   4.567   2.526   0.959 -0.2183  0.5313  2.1540
 2474TIP3    H2 7387   4.450   2.599   0.895 -0.2748  0.3142  2.0070
 2475TIP3   OH2 7388   6.078   1.378   3.092  0.2294 -0.3451  0.5163
 2475TIP3    H1 7389   5.985   1.362   3.106  0.3324  0.4976  2.3731
 2475TIP3    H2 7390   6.123   1.318   3.152  0.9131 -0.7521 -0.3624
 2476TIP3   OH2 7391   3.402   5.076   2.077 -0.0581  0.3481 -0.3345
 2476TIP3    H1 7392   3.433   5.090   1.988 -0.4016  1.4228 -0.3000
 2476TIP3    H2 7393   3.467   5.018   2.116  0.6989  0.7725 -0.9377
 2477TIP3   OH2 7394   3.924   0.045   3.121  0.3136 -0.7775  0.5895
 2477TIP3    H1 7395   3.857   0.061   3.187  0.3108 -0.5842  0.5403
 2477TIP3    H2 7396   3.914   0.116   3.059  0.1055 -1.1365  0.2067
 2478TIP3   OH2 7397   5.926   1.031   4.755 -0.3118 -0.2347 -0.1975
 2478TIP3    H1 7398   5.996   1.000   4.697  0.7233 -1.6539  1.6828
 2478TIP3    H2 7399   5.964   1.106   4.801 -0.7654  0.2450 -0.5866
 2479TIP3   OH2 7400   5.661   3.833   5.883  0.0523  0.1971 -0.4267
 2479TIP3    H1 7401   5.709   3.879   5.814  0.8506  0.9993  0.6384
 2479TIP3    H2 7402   5.723   3.770   5.919 -0.1414  0.2356 -0.0145
 2480TIP3   OH2 7403   6.902   2.152   4.437  0.0647  0.1777  0.1912
 2480TIP3    H1 7404   6.952   2.232   4.457  0.1586 -0.0045  0.7114
 2480TIP3    H2 7405   6.813   2.172   4.466 -0.7015  1.2645 -2.6120
 2481TIP3   OH2 7406   2.633   0.793   4.520 -0.2951  0.4087  0.3182
 2481TIP3    H1 7407   2.596   0.708   4.497  0.5271 -0.1172  0.8844
 2481TIP3    H2 7408   2.569   0.831   4.580 -0.9692  0.4775 -0.4226
 2482TIP3   OH2 7409   4.191   4.034   3.497  0.3111 -0.1144  0.2945
 2482TIP3    H1 7410   4.208   4.041   3.590 -0.1210  0.9196  0.3160
 2482TIP3    H2 7411   4.276   4.050   3.455  0.8411 -2.1627  0.5208
 2483TIP3   OH2 7412   4.848   0.942   4.300  0.3421 -0.5970 -0.7917
 2483TIP3    H1 7413   4.911   0.987   4.244  0.9873 -1.1925 -0.5615
 2483TIP3    H2 7414   4.901   0.881   4.351 -0.2685 -0.2206  0.3100
 2484TIP3   OH2 7415   6.702   3.127   2.754  0.3837 -0.4431  0.6189
 2484TIP3    H1 7416   6.697   3.081   2.671  2.5488  1.3689 -0.6345
 2484TIP3    H2 7417   6.625   3.184   2.754  0.3043 -0.5394 -0.0775
 2485TIP3   OH2 7418   4.692   6.435   0.603 -0.1447  0.3221  0.0414
 2485TIP3    H1 7419   4.745   6.441   0.683  0.3910  0.7457 -0.3388
 2485TIP3    H2 7420   4.677   6.526   0.577 -0.1146  0.1834 -0.4727
 2486TIP3   OH2 7421   0.318   2.527   4.014 -0.2273  0.5673  0.0549
 2486TIP3    H1 7422   0.229   2.556   4.033 -0.4570  2.8674 -3.6581
 2486TIP3    H2 7423   0.374   2.598   4.044  0.0568  0.6134 -0.5688
 2487TIP3   OH2 7424   4.699   4.277   5.492  0.5082 -0.4677 -0.9663
 2487TIP3    H1 7425   4.605   4.296   5.492  0.4849  0.0671  2.4331
 2487TIP3    H2 7426   4.710   4.207   5.428 -2.5902 -2.0267  0.0164
 2488TIP3   OH2 7427   0.878   3.519   0.619 -0.2680 -0.0030 -0.5459
 2488TIP3    H1 7428   0.933   3.479   0.552 -0.2582  1.2781 -1.3368
 2488TIP3    H2 7429   0.835   3.445   0.661  1.2039 -0.9595 -0.6486
 2489TIP3   OH2 7430   6.168   6.335   3.550 -0.0012  0.3615 -0.5473
 2489TIP3    H1 7431   6.162   6.279   3.473 -1.2357 -1.3502  0.7010
 2489TIP3    H2 7432   6.227   6.288   3.610 -0.8532  0.4866  0.4261
 2490TIP3   OH2 7433   3.040   3.086   5.059  0.3586  0.0301 -0.0233
 2490TIP3    H1 7434   2.970   3.025   5.038 -0.5144  1.5073 -1.6583
 2490TIP3    H2 7435   3.110   3.063   4.997 -0.3520  1.2662 -1.3336
 2491TIP3   OH2 7436   1.423   5.200   0.059  0.0216 -0.0738  0.1005
 2491TIP3    H1 7437   1.495   5.262   0.053  0.2831 -0.2957  0.8692
 2491TIP3    H2 7438   1.357   5.244   0.113 -0.6143  0.2999 -0.9450
 2492TIP3   OH2 7439   3.728   4.077   1.547  0.0487  0.1472  0.1748
 2492TIP3    H1 7440   3.637   4.053   1.532 -0.2874 -0.0469  2.2274
 2492TIP3    H2 7441   3.743   4.151   1.488 -1.4419  0.2159 -0.1656
 2493TIP3   OH2 7442   2.456   3.299   1.635  0.0262  0.0199  0.3435
 2493TIP3    H1 7443   2.464   3.203   1.633  1.1679  0.0590  1.5652
 2493TIP3    H2 7444   2.373   3.317   1.592 -0.7984 -1.6111  1.1615
 2494TIP3   OH2 7445   3.439   1.377   1.866  0.4106 -0.1916 -0.2524
 2494TIP3    H1 7446   3.403   1.439   1.929 -0.1933  0.1995 -0.9680
 2494TIP3    H2 7447   3.510   1.333   1.913  0.6356  0.8093  0.3641
 2495TIP3   OH2 7448   4.818   3.493   2.720 -0.3442  0.5830 -0.3200
 2495TIP3    H1 7449   4.822   3.586   2.697  0.3921  0.4201 -0.8678
 2495TIP3    H2 7450   4.815   3.493   2.816 -0.9374  1.1842 -0.3276
 2496TIP3   OH2 7451   5.522   3.749   2.621 -0.0433 -0.3513 -0.4461
 2496TIP3    H1 7452   5.546   3.667   2.578 -0.8333 -0.5474 -0.5277
 2496TIP3    H2 7453   5.519   3.813   2.550  0.7670 -0.2001 -0.3539
 2497TIP3   OH2 7454   0.780   5.639   4.390 -0.4304 -0.2130  0.3810
 2497TIP3    H1 7455   0.696   5.617   4.352  1.0273 -1.6698 -2.2405
 2497TIP3    H2 7456   0.813   5.711   4.336 -0.5709  1.3970  2.3220
 2498TIP3   OH2 7457   3.795   3.740   3.962 -0.5721 -0.0811  0.8022
 2498TIP3    H1 7458   3.718   3.685   3.963 -0.6132 -0.0726 -0.3569
 2498TIP3    H2 7459   3.771   3.815   3.908  0.4308 -0.3942 -0.1369
 2499TIP3   OH2 7460   0.667   6.539   0.821 -0.0121 -0.1979 -0.1009
 2499TIP3    H1 7461   0.748   6.589   0.806  0.3039 -0.6792 -0.0280
 2499TIP3    H2 7462   0.664   6.475   0.750  0.0520 -0.6600  0.3078
 2500TIP3   OH2 7463   0.455   5.563   1.128  0.1954  0.0997 -0.4347
 2500TIP3    H1 7464   0.530   5.615   1.100  2.5326 -1.7578  1.8341
 2500TIP3    H2 7465   0.462   5.481   1.079  0.0520 -0.3399  0.2643
 2501TIP3   OH2 7466   0.467   2.894   1.476 -0.6191 -0.0011  0.8384
 2501TIP3    H1 7467   0.541   2.883   1.536 -0.4912 -0.4570  0.6072
 2501TIP3    H2 7468   0.464   2.987   1.456  0.4299 -0.0916  0.1832
 2502TIP3   OH2 7469   4.768   5.458   2.134 -0.1874 -0.0051  0.4130
 2502TIP3    H1 7470   4.805   5.486   2.218  0.8260  0.0242 -0.0240
 2502TIP3    H2 7471   4.760   5.539   2.083  0.8906 -0.2342 -0.1482
 2503TIP3   OH2 7472   3.484   2.282   0.533 -0.8000  0.1725 -0.3153
 2503TIP3    H1 7473   3.529   2.201   0.510 -1.8133 -0.2644 -0.8379
 2503TIP3    H2 7474   3.512   2.301   0.622 -1.7309 -1.6098  0.4100
 2504TIP3   OH2 7475   2.443   3.959   4.620 -0.4715  0.0167 -0.0324
 2504TIP3    H1 7476   2.420   3.966   4.527  0.2523 -0.6738 -0.2837
 2504TIP3    H2 7477   2.538   3.971   4.621 -0.3005 -1.2913  0.4574
 2505TIP3   OH2 7478   3.606   1.164   0.218 -0.0439 -0.2374  0.3046
 2505TIP3    H1 7479   3.573   1.099   0.280  0.0388  0.3595  0.9876
 2505TIP3    H2 7480   3.540   1.167   0.149 -0.1278 -0.9218  0.3454
 2506TIP3   OH2 7481   7.044   6.511   2.457  0.2499  0.3816 -0.1155
 2506TIP3    H1 7482   7.125   6.518   2.407 -0.4474 -1.1849 -1.5375
 2506TIP3    H2 7483   6.979   6.481   2.394 -0.7771 -1.2279  1.6005
 2507TIP3   OH2 7484   0.956   4.732   1.364  0.2227 -0.6854 -0.1842
 2507TIP3    H1 7485   0.997   4.813   1.333 -1.4135  0.2435 -0.0280
 2507TIP3    H2 7486   0.912   4.696   1.288  1.3194 -1.6973 -0.3599
 2508TIP3   OH2 7487   0.112   3.319   3.191  0.0602  0.4412  0.3251
 2508TIP3    H1 7488   0.158   3.335   3.273 -0.1574 -1.0057  0.7474
 2508TIP3    H2 7489   0.177   3.278   3.134 -0.0471  0.6039  0.0799
 2509TIP3   OH2 7490   2.460   2.486   4.219 -0.6060 -0.4725  0.0381
 2509TIP3    H1 7491   2.432   2.400   4.187 -1.8409 -0.0002 -0.2206
 2509TIP3    H2 7492   2.542   2.503   4.172  0.0678 -1.8234  0.6572
 2510TIP3   OH2 7493   5.523   6.687   3.489  0.2586 -0.2124 -0.0487
 2510TIP3    H1 7494   5.473   6.617   3.531  1.4996 -0.0991  1.7150
 2510TIP3    H2 7495   5.545   6.747   3.560  0.3487  1.2972 -1.3019
 2511TIP3   OH2 7496   3.377   3.140   0.468  1.3459  0.1832 -0.5786
 2511TIP3    H1 7497   3.404   3.227   0.439  1.7506  0.2568 -0.0079
 2511TIP3    H2 7498   3.406   3.136   0.560 -0.3754  0.1645 -0.0124
 2512TIP3   OH2 7499   6.727   6.773   1.308 -0.1890  0.1753 -0.2632
 2512TIP3    H1 7500   6.653   6.803   1.361 -0.7191  0.0626 -0.9257
 2512TIP3    H2 7501   6.788   6.735   1.371  0.5185  2.6141  0.6130
 2513TIP3   OH2 7502   4.402   0.061   2.186  0.6285 -0.1444  0.1788
 2513TIP3    H1 7503   4.455   0.028   2.258  0.8309 -0.0259  0.0845
 2513TIP3    H2 7504   4.360   0.140   2.220  1.2133  0.2623 -0.0304
 2514TIP3   OH2 7505   5.806   2.416   3.666  0.2769 -0.4255 -0.3677
 2514TIP3    H1 7506   5.734   2.462   3.708 -0.2089  1.9336 -3.3966
 2514TIP3    H2 7507   5.788   2.323   3.682 -1.5220  0.2148  1.7988
 2515TIP3   OH2 7508   3.884   0.267   0.220 -0.0330  0.1798  0.1703
 2515TIP3    H1 7509   3.822   0.220   0.164  0.3649 -0.0206 -0.1019
 2515TIP3    H2 7510   3.837   0.277   0.303  0.1744 -1.4371  0.5121
 2516TIP3   OH2 7511   2.659   4.436   4.870 -0.1235 -0.2833  0.2211
 2516TIP3    H1 7512   2.673   4.451   4.964 -0.8492 -0.7881  0.4129
 2516TIP3    H2 7513   2.710   4.358   4.850 -0.7821 -0.7663  0.4170
 2517TIP3   OH2 7514   4.857   0.209   4.122 -0.6114  0.0986  0.7297
 2517TIP3    H1 7515   4.900   0.222   4.037 -1.1627  1.5495  0.6290
 2517TIP3    H2 7516   4.768   0.182   4.100  0.0433 -2.4816  0.9307
 2518TIP3   OH2 7517   1.286   5.048   0.808 -0.2000  0.2810 -0.4031
 2518TIP3    H1 7518   1.259   5.111   0.741  1.5335 -0.3500 -1.7508
 2518TIP3    H2 7519   1.347   5.096   0.863 -1.2756  0.6601  0.5123
 2519TIP3   OH2 7520   1.492   0.977   1.254  0.2079  0.4915  0.0057
 2519TIP3    H1 7521   1.577   1.000   1.292  0.1673 -0.5080  0.7368
 2519TIP3    H2 7522   1.431   0.984   1.328 -0.3837  1.2956 -0.5302
 2520TIP3   OH2 7523   4.486   5.908   1.317  0.1237  0.0091  0.5515
 2520TIP3    H1 7524   4.405   5.919   1.367 -0.0802  0.6763  0.0911
 2520TIP3    H2 7525   4.456   5.882   1.229  0.4366 -0.3210  0.5430
 2521TIP3   OH2 7526   2.388   4.894   5.541  0.0297  0.4532  0.1435
 2521TIP3    H1 7527   2.367   4.844   5.463  1.1048 -2.2435  1.4559
 2521TIP3    H2 7528   2.307   4.894   5.592 -0.0121  0.1772  0.0757
 2522TIP3   OH2 7529   2.650   6.158   2.297  0.4263  0.1253  0.5098
 2522TIP3    H1 7530   2.649   6.192   2.208 -0.2844  0.6837  0.7235
 2522TIP3    H2 7531   2.574   6.100   2.301  0.7412 -0.2863  0.6119
 2523TIP3   OH2 7532   2.720   5.744   3.004 -0.5254  0.1854 -0.3937
 2523TIP3    H1 7533   2.781   5.731   3.077 -1.0696 -1.0067 -0.1222
 2523TIP3    H2 7534   2.640   5.699   3.032 -1.0750  0.5668 -1.3090
 2524TIP3   OH2 7535   0.152   1.272   1.795 -0.2662 -0.3955  0.3670
 2524TIP3    H1 7536   0.197   1.222   1.863  0.3515 -1.3386 -0.7092
 2524TIP3    H2 7537   0.059   1.257   1.810 -0.1977  0.3598  1.7000
 2525TIP3   OH2 7538   5.723   0.643   1.990  0.4103  0.1538 -0.1097
 2525TIP3    H1 7539   5.662   0.659   1.918  0.7388  0.5928 -0.2934
 2525TIP3    H2 7540   5.745   0.550   1.982 -0.7397 -0.1821  0.3634
 2526TIP3   OH2 7541   5.317   3.793   5.617 -0.3217  0.1511  0.4718
 2526TIP3    H1 7542   5.267   3.801   5.536 -0.5589  1.9885  0.7618
 2526TIP3    H2 7543   5.303   3.703   5.645 -0.5971 -0.3852 -1.2881
 2527TIP3   OH2 7544   1.650   5.464   0.197 -0.4479  0.0334 -0.0306
 2527TIP3    H1 7545   1.625   5.556   0.204 -1.2226 -0.1215 -0.5819
 2527TIP3    H2 7546   1.724   5.463   0.138  0.8075  0.4849  1.4678
 2528TIP3   OH2 7547   4.993   3.820   5.802 -0.4011 -0.3670 -0.7062
 2528TIP3    H1 7548   4.929   3.819   5.730 -0.1535  2.2401 -1.0772
 2528TIP3    H2 7549   4.939   3.832   5.881 -0.5199 -0.4223 -0.7788
 2529TIP3   OH2 7550   2.285   4.500   2.703  0.0245  0.1213  0.7033
 2529TIP3    H1 7551   2.338   4.421   2.710  1.4992  1.1876  2.6347
 2529TIP3    H2 7552   2.203   4.471   2.662  1.6504 -1.7737 -1.4457
 2530TIP3   OH2 7553   0.579   6.506   1.919  0.3047  0.0161  0.0160
 2530TIP3    H1 7554   0.575   6.525   2.013  0.8276 -0.8209  0.2153
 2530TIP3    H2 7555   0.671   6.482   1.904 -0.1382 -1.5134 -0.3738
 2531TIP3   OH2 7556   0.318   6.141   3.186 -0.5681 -0.3844  0.6382
 2531TIP3    H1 7557   0.224   6.123   3.181 -0.4748 -0.9191  0.7331
 2531TIP3    H2 7558   0.359   6.058   3.163 -0.1116  0.0106  0.0022
 2532TIP3   OH2 7559   5.474   1.381   4.672 -0.0812  0.5304  0.0186
 2532TIP3    H1 7560   5.557   1.410   4.710 -0.3213  0.3447  0.6978
 2532TIP3    H2 7561   5.415   1.370   4.747 -0.1674 -1.1554 -0.2514
 2533TIP3   OH2 7562   1.296   3.000   2.397 -0.4470  0.1680 -0.3256
 2533TIP3    H1 7563   1.223   3.061   2.386  1.4550  2.5608 -0.5332
 2533TIP3    H2 7564   1.360   3.026   2.330  1.1635 -0.9688  0.6907
 2534TIP3   OH2 7565   6.609   4.383   0.105 -0.6875  0.3284 -0.1239
 2534TIP3    H1 7566   6.614   4.474   0.076 -2.7895  0.3378 -0.5824
 2534TIP3    H2 7567   6.649   4.384   0.192  1.0756  1.2808 -0.8989
 2535TIP3   OH2 7568   4.218   0.732   2.922 -0.4648  0.7441  0.5955
 2535TIP3    H1 7569   4.136   0.703   2.882  0.6566  0.5518 -1.7185
 2535TIP3    H2 7570   4.222   0.826   2.903  0.0054  0.6872  0.4149
 2536TIP3   OH2 7571   3.061   2.324   2.603  0.1193  0.0900 -0.1006
 2536TIP3    H1 7572   3.081   2.298   2.513 -1.5845 -0.2000 -0.4417
 2536TIP3    H2 7573   3.016   2.247   2.640  0.1422  0.4797  0.7575
 2537TIP3   OH2 7574   3.825   5.960   3.236 -0.0026 -0.2354 -0.3264
 2537TIP3    H1 7575   3.744   5.996   3.199  0.1177  1.7966  1.2400
 2537TIP3    H2 7576   3.891   5.976   3.169 -0.5382 -0.2569 -0.8712
 2538TIP3   OH2 7577   6.212   2.085   5.749 -0.3405 -0.1521 -0.0422
 2538TIP3    H1 7578   6.201   2.178   5.730  1.4089 -0.0491 -0.6756
 2538TIP3    H2 7579   6.127   2.058   5.785 -0.9463  1.6200 -0.0523
 2539TIP3   OH2 7580   6.925   0.142   2.999  0.1351 -0.2413 -0.0899
 2539TIP3    H1 7581   7.019   0.155   3.007  0.5219 -2.2754 -0.8688
 2539TIP3    H2 7582   6.905   0.165   2.908 -0.4127  1.5805  0.4508
 2540TIP3   OH2 7583   4.084   1.763   0.469  0.5741 -0.0945 -0.5363
 2540TIP3    H1 7584   3.996   1.741   0.437  0.5260 -0.5626 -0.0889
 2540TIP3    H2 7585   4.084   1.736   0.560  2.1872 -3.0835 -1.3037
 2541TIP3   OH2 7586   0.177   4.333   1.304  0.7949 -0.0023  0.1221
 2541TIP3    H1 7587   0.102   4.343   1.245  0.4809 -1.3937  0.2399
 2541TIP3    H2 7588   0.176   4.411   1.358 -0.2732  0.2419 -0.2233
 2542TIP3   OH2 7589   2.858   0.245   3.772  0.9819  0.4445 -0.1442
 2542TIP3    H1 7590   2.913   0.261   3.695  0.7941 -0.4741 -0.4876
 2542TIP3    H2 7591   2.769   0.243   3.737  0.8811  0.1789  0.1252
 2543TIP3   OH2 7592   0.619   4.806   1.874  1.0627  0.0865 -0.0374
 2543TIP3    H1 7593   0.564   4.744   1.921  0.3523  0.6881 -0.0483
 2543TIP3    H2 7594   0.572   4.822   1.792  1.8356 -0.2618 -0.5610
 2544TIP3   OH2 7595   1.050   2.003   3.753  0.1285  0.0326 -0.4146
 2544TIP3    H1 7596   1.104   2.076   3.724 -0.6736  1.1727  0.8003
 2544TIP3    H2 7597   1.110   1.945   3.800  0.9506 -0.6030 -2.1637
 2545TIP3   OH2 7598   1.808   0.417   1.170 -0.2862  0.2105  0.0688
 2545TIP3    H1 7599   1.756   0.392   1.093 -0.2476  1.8841 -0.5510
 2545TIP3    H2 7600   1.839   0.505   1.150  2.5313 -0.5655  0.5700
 2546TIP3   OH2 7601   1.518   6.408   4.029 -0.1140 -0.1163  0.3947
 2546TIP3    H1 7602   1.530   6.489   4.079 -0.0712  0.1201  0.0139
 2546TIP3    H2 7603   1.607   6.382   4.005 -0.2040  0.6052 -0.8328
 2547TIP3   OH2 7604   3.345   0.546   3.148  0.4669 -0.1815 -0.2359
 2547TIP3    H1 7605   3.286   0.476   3.175  1.8260 -0.9256  0.9540
 2547TIP3    H2 7606   3.360   0.530   3.054 -0.4776 -0.5303 -0.3336
 2548TIP3   OH2 7607   0.536   1.683   1.980  0.2457 -0.4343  0.2543
 2548TIP3    H1 7608   0.465   1.620   1.990 -1.4503  1.3635  0.1156
 2548TIP3    H2 7609   0.532   1.709   1.888 -0.9524  1.9203  0.9121
 2549TIP3   OH2 7610   4.482   1.592   1.874  0.4573  0.3469  0.4480
 2549TIP3    H1 7611   4.453   1.613   1.963  1.3769  2.2046  0.3636
 2549TIP3    H2 7612   4.575   1.572   1.884  0.6479  0.8975 -0.1138
 2550TIP3   OH2 7613   4.743   5.222   1.050  0.1090 -0.4364 -0.2550
 2550TIP3    H1 7614   4.812   5.172   1.007 -1.0412 -1.4794 -0.9928
 2550TIP3    H2 7615   4.779   5.246   1.135  1.3289 -1.0539 -0.5829
 2551TIP3   OH2 7616   1.405   1.851   1.013  0.0873  0.9564  0.1932
 2551TIP3    H1 7617   1.421   1.898   1.095 -0.9560 -1.4902  1.9428
 2551TIP3    H2 7618   1.485   1.799   1.001 -0.1348  0.6120  0.1979
 2552TIP3   OH2 7619   6.529   1.431   4.895 -0.4746  0.1304  0.3163
 2552TIP3    H1 7620   6.464   1.363   4.875  0.9549 -1.1376 -0.2486
 2552TIP3    H2 7621   6.584   1.435   4.816  0.1263  1.1762  0.7694
 2553TIP3   OH2 7622   6.965   1.247   2.138 -0.0181  0.0816  0.2342
 2553TIP3    H1 7623   6.977   1.286   2.051  0.6762 -0.4664  0.0754
 2553TIP3    H2 7624   6.886   1.195   2.130  0.7774 -1.0716 -0.4900
 2554TIP3   OH2 7625   1.369   3.682   4.645 -0.4463 -0.1774  0.9315
 2554TIP3    H1 7626   1.338   3.765   4.680 -0.7197 -0.5541  1.6043
 2554TIP3    H2 7627   1.367   3.694   4.550  1.1154  1.1528  1.0292
 2555TIP3   OH2 7628   2.902   1.674   1.835  0.2227 -0.4174  0.2649
 2555TIP3    H1 7629   2.988   1.714   1.824 -0.4478  1.4658  1.3574
 2555TIP3    H2 7630   2.907   1.628   1.919  0.7972 -2.2187 -0.7003
 2556TIP3   OH2 7631   0.729   3.368   4.403  0.2653  0.4643 -0.3118
 2556TIP3    H1 7632   0.808   3.384   4.456  0.3818 -0.5248 -0.1615
 2556TIP3    H2 7633   0.757   3.303   4.338  0.6871  3.0675 -2.9480
 2557TIP3   OH2 7634   6.071   3.861   5.419  0.0677 -0.2698  0.3392
 2557TIP3    H1 7635   6.013   3.896   5.487 -0.9717  0.9261 -1.0964
 2557TIP3    H2 7636   6.040   3.771   5.405  0.4433 -0.6126  1.5685
 2558TIP3   OH2 7637   4.694   2.211   3.966 -0.3918 -0.0778 -0.2762
 2558TIP3    H1 7638   4.707   2.289   4.020 -0.3127  0.4183 -0.9993
 2558TIP3    H2 7639   4.670   2.245   3.880 -0.2057 -0.8528 -0.6440
 2559TIP3   OH2 7640   4.462   3.091   5.158  0.3088 -0.0536  0.1030
 2559TIP3    H1 7641   4.457   3.149   5.233  1.3997 -0.0458  0.1903
 2559TIP3    H2 7642   4.428   3.007   5.190  2.5257 -0.6141  1.2345
 2560TIP3   OH2 7643   7.134   2.518   2.025  0.2990 -0.6760 -0.0364
 2560TIP3    H1 7644   7.071   2.450   2.048  0.9873 -1.8392 -1.4533
 2560TIP3    H2 7645   7.120   2.533   1.932  0.9606  0.2960  0.0069
 2561TIP3   OH2 7646   4.052   5.594   0.585 -0.4087  0.0297  0.0309
 2561TIP3    H1 7647   4.128   5.651   0.584 -0.3373 -0.0667 -0.3464
 2561TIP3    H2 7648   4.087   5.506   0.569 -0.3849 -0.2999  1.7405
 2562TIP3   OH2 7649   3.801   1.418   5.464  0.3024 -0.4388  0.1069
 2562TIP3    H1 7650   3.767   1.436   5.552  1.4069  1.1284  0.2513
 2562TIP3    H2 7651   3.879   1.366   5.478  0.2581 -0.5258  0.0315
 2563TIP3   OH2 7652   2.731   3.177   1.121  0.0084 -0.0530 -1.0571
 2563TIP3    H1 7653   2.694   3.245   1.178 -0.5457  0.8729 -2.4321
 2563TIP3    H2 7654   2.677   3.181   1.042  1.4149 -0.5061 -2.0916
 2564TIP3   OH2 7655   2.643   2.897   5.078  0.1074  0.4600  0.3964
 2564TIP3    H1 7656   2.616   2.862   5.163  0.6572  0.0007  0.3879
 2564TIP3    H2 7657   2.580   2.861   5.016 -0.4985  1.0681  0.6483
 2565TIP3   OH2 7658   6.392   4.746   1.552 -0.1766 -0.3688 -0.1217
 2565TIP3    H1 7659   6.401   4.740   1.647 -0.4711 -0.2929 -0.0867
 2565TIP3    H2 7660   6.308   4.703   1.533 -1.5162  2.0268 -0.0494
 2566TIP3   OH2 7661   3.393   3.198   3.751 -0.5439  0.3461 -0.2350
 2566TIP3    H1 7662   3.395   3.141   3.674  0.8900  2.5311 -1.9262
 2566TIP3    H2 7663   3.318   3.255   3.736  0.7687  1.9509 -0.9882
 2567TIP3   OH2 7664   6.957   3.376   2.257  0.2074 -0.4419  0.7211
 2567TIP3    H1 7665   6.912   3.328   2.187  2.8800 -2.1589  0.0533
 2567TIP3    H2 7666   6.986   3.307   2.318  0.8017  0.7238  1.8029
 2568TIP3   OH2 7667   1.250   0.658   1.236 -0.1634  0.5337  0.5006
 2568TIP3    H1 7668   1.210   0.737   1.271 -1.0205  0.2739  0.1343
 2568TIP3    H2 7669   1.301   0.622   1.308  0.5684  1.6314  0.5456
 2569TIP3   OH2 7670   2.447   2.844   3.264 -0.5296 -0.1344  0.4179
 2569TIP3    H1 7671   2.435   2.939   3.266  0.0450 -0.0525  0.3969
 2569TIP3    H2 7672   2.515   2.830   3.198 -2.0989 -0.7545 -1.1211
 2570TIP3   OH2 7673   4.500   5.195   1.228  0.3819  0.0758  0.5701
 2570TIP3    H1 7674   4.546   5.113   1.215  0.5739  0.0971  1.0759
 2570TIP3    H2 7675   4.550   5.260   1.179 -2.4268 -0.8330 -4.0975
 2571TIP3   OH2 7676   5.841   1.477   3.226 -0.0569  0.0703  0.6813
 2571TIP3    H1 7677   5.905   1.538   3.263 -0.5593  0.9885  0.0883
 2571TIP3    H2 7678   5.756   1.512   3.255 -0.5656  1.4996 -2.1669
 2572TIP3   OH2 7679   5.137   4.981   1.600 -0.4097  0.3132 -0.4421
 2572TIP3    H1 7680   5.115   5.073   1.613 -2.1945  0.2783 -2.5731
 2572TIP3    H2 7681   5.194   4.980   1.523  0.1039 -0.3204 -0.0669
 2573TIP3   OH2 7682   6.085   1.379   3.571  0.0223 -0.0190  0.2723
 2573TIP3    H1 7683   6.085   1.393   3.666 -1.0216 -0.6137  0.3799
 2573TIP3    H2 7684   6.122   1.291   3.560  2.3955  0.9427 -0.0775
 2574TIP3   OH2 7685   2.404   1.676   0.068  0.1106 -0.6522 -0.1127
 2574TIP3    H1 7686   2.361   1.751   0.027 -0.8489 -2.0125 -1.7287
 2574TIP3    H2 7687   2.483   1.713   0.107  0.3402  1.0196 -1.9549
 2575TIP3   OH2 7688   6.836   4.628   4.592 -0.6787 -0.7389  0.0544
 2575TIP3    H1 7689   6.845   4.670   4.507 -1.2238 -0.5415  0.0907
 2575TIP3    H2 7690   6.794   4.694   4.647 -0.5535 -0.9514  0.4070
 2576TIP3   OH2 7691   6.673   4.620   2.515  0.1607  0.2971  0.7412
 2576TIP3    H1 7692   6.655   4.634   2.422  1.4795 -1.8087  0.1004
 2576TIP3    H2 7693   6.640   4.699   2.558  1.1716  2.1648 -1.6889
 2577TIP3   OH2 7694   6.683   4.502   1.503 -0.0273 -0.2192  0.1991
 2577TIP3    H1 7695   6.747   4.434   1.485  0.4776  0.1043  0.7513
 2577TIP3    H2 7696   6.732   4.570   1.548 -0.4275  0.7114 -0.7183
 2578TIP3   OH2 7697   5.161   5.169   3.421 -0.7727 -0.1050  0.2019
 2578TIP3    H1 7698   5.169   5.222   3.341 -1.9847  1.3259  0.9774
 2578TIP3    H2 7699   5.083   5.204   3.464 -0.4203 -1.1946  1.7772
 2579TIP3   OH2 7700   4.315   0.022   1.843 -0.3252 -0.0021  0.4027
 2579TIP3    H1 7701   4.229  -0.021   1.840 -1.6146  2.3780  0.8561
 2579TIP3    H2 7702   4.339   0.021   1.935  0.8411 -1.8223  0.1376
 2580TIP3   OH2 7703   2.435   0.377   5.184  0.8735  0.4666 -0.1282
 2580TIP3    H1 7704   2.407   0.454   5.134  1.0010 -0.1911 -1.2674
 2580TIP3    H2 7705   2.502   0.337   5.129 -0.3807 -1.3880 -0.4097
 2581TIP3   OH2 7706   5.928   2.483   1.330 -0.2040  0.1530 -0.6619
 2581TIP3    H1 7707   5.989   2.439   1.389 -2.2261  0.2474  1.6534
 2581TIP3    H2 7708   5.966   2.570   1.317  0.9801 -0.3448 -0.6835
 2582TIP3   OH2 7709   2.230   4.906   2.162 -0.6705 -0.1239  0.2179
 2582TIP3    H1 7710   2.282   4.986   2.163 -2.5703  1.1804  0.6032
 2582TIP3    H2 7711   2.262   4.854   2.235 -0.1640  0.8086  0.6613
 2583TIP3   OH2 7712   4.617   5.479   4.281  0.0983  0.0476 -0.0946
 2583TIP3    H1 7713   4.696   5.460   4.332 -0.7971  0.1477  1.3833
 2583TIP3    H2 7714   4.548   5.489   4.346 -0.7957  1.7813 -1.2218
 2584TIP3   OH2 7715   6.779   3.953   2.669 -0.1636 -0.7374  0.4386
 2584TIP3    H1 7716   6.799   3.864   2.640  2.8449  0.2110 -0.7916
 2584TIP3    H2 7717   6.702   3.978   2.618  0.9400 -1.5339 -1.7574
 2585TIP3   OH2 7718   6.852   1.711   1.646  0.4182  0.2972 -0.5866
 2585TIP3    H1 7719   6.881   1.788   1.598 -0.6031  1.4066  0.4708
 2585TIP3    H2 7720   6.874   1.731   1.737 -1.0427 -0.0336 -0.1267
 2586TIP3   OH2 7721   2.108   2.707   0.942  0.2263  0.3703  0.1039
 2586TIP3    H1 7722   2.087   2.617   0.915  0.7478  0.7625 -1.7437
 2586TIP3    H2 7723   2.199   2.719   0.915  0.0888  1.5317  0.1393
 2587TIP3   OH2 7724   5.833   4.939   2.630 -0.3356  0.7114  0.2895
 2587TIP3    H1 7725   5.865   4.853   2.603 -1.0660  0.9760 -1.5479
 2587TIP3    H2 7726   5.738   4.934   2.619 -0.3252  1.9835 -0.6435
 2588TIP3   OH2 7727   5.706   3.399   3.072  0.0717 -0.4077  0.5520
 2588TIP3    H1 7728   5.737   3.455   3.001 -0.0726 -0.8541  0.1345
 2588TIP3    H2 7729   5.683   3.317   3.030  0.6303 -0.9202  1.2127
 2589TIP3   OH2 7730   4.082   1.687   0.965  0.4640  0.2568 -0.1920
 2589TIP3    H1 7731   4.162   1.649   1.000  0.2919  0.9255  0.9849
 2589TIP3    H2 7732   4.051   1.745   1.034  0.5016  2.2372 -1.7542
 2590TIP3   OH2 7733   2.273   1.013   4.165  0.1469  0.0010 -1.0107
 2590TIP3    H1 7734   2.221   0.967   4.098 -1.6185 -0.2970  0.4859
 2590TIP3    H2 7735   2.358   0.968   4.164 -0.4379 -1.1477 -1.8477
 2591TIP3   OH2 7736   3.451   4.174   5.056  0.0298  0.1473  0.1820
 2591TIP3    H1 7737   3.430   4.223   5.135  1.4338  1.3602 -0.1268
 2591TIP3    H2 7738   3.490   4.093   5.087 -3.4629 -1.4710  0.7224
 2592TIP3   OH2 7739   1.561   3.067   5.233  0.2656  0.2836  0.0879
 2592TIP3    H1 7740   1.553   2.999   5.167 -0.8320 -1.8113  2.2417
 2592TIP3    H2 7741   1.495   3.132   5.210 -1.8387 -1.6298  0.4305
 2593TIP3   OH2 7742   3.868   5.865   4.370  0.3256 -0.0610 -0.3735
 2593TIP3    H1 7743   3.791   5.870   4.426 -1.4131  1.2158 -2.7083
 2593TIP3    H2 7744   3.873   5.772   4.344 -1.0320  0.0075 -0.9422
 2594TIP3   OH2 7745   2.058   3.325   2.599 -0.1074 -1.1352  0.4156
 2594TIP3    H1 7746   2.016   3.294   2.679 -0.0855 -2.6853 -0.1428
 2594TIP3    H2 7747   1.986   3.350   2.542 -0.1383 -0.5515  0.6986
 2595TIP3   OH2 7748   3.142   0.348   3.152  0.5620 -0.1709 -0.6523
 2595TIP3    H1 7749   3.088   0.423   3.129  0.8595 -0.2860 -1.8055
 2595TIP3    H2 7750   3.137   0.342   3.247 -0.0760  0.8436 -0.6145
 2596TIP3   OH2 7751   3.540   1.378   4.265  0.2194 -0.0470 -1.0810
 2596TIP3    H1 7752   3.605   1.335   4.210  0.4590 -0.3568 -0.5580
 2596TIP3    H2 7753   3.483   1.424   4.203 -1.2613 -2.7177 -1.8601
 2597TIP3   OH2 7754   5.656   6.700   5.654 -0.0238 -0.5192 -0.0455
 2597TIP3    H1 7755   5.562   6.714   5.654 -0.2367 -1.7108  1.2723
 2597TIP3    H2 7756   5.679   6.690   5.561 -1.2808 -0.7530 -0.3513
 2598TIP3   OH2 7757   3.797   2.525   4.532  0.4795  0.2413 -0.3269
 2598TIP3    H1 7758   3.711   2.554   4.501  0.6224  0.9510 -0.0854
 2598TIP3    H2 7759   3.847   2.507   4.453  0.6190  1.3666 -0.5024
 2599TIP3   OH2 7760   4.857   5.996   4.521 -0.9929 -0.3255 -0.0565
 2599TIP3    H1 7761   4.792   6.057   4.487  0.5195  1.6259  0.3814
 2599TIP3    H2 7762   4.807   5.916   4.540 -3.4403  1.3493  1.0582
 2600TIP3   OH2 7763   2.647   2.743   3.075  0.0082 -0.7693 -0.5627
 2600TIP3    H1 7764   2.706   2.672   3.101 -0.6364 -1.2912 -0.4834
 2600TIP3    H2 7765   2.576   2.698   3.028 -1.1466 -0.3572  0.7244
 2601TIP3   OH2 7766   0.955   3.460   4.782  0.0985 -0.3562 -0.0768
 2601TIP3    H1 7767   0.962   3.552   4.808  3.9315 -0.7857  1.1209
 2601TIP3    H2 7768   0.952   3.463   4.686 -0.4109  0.9909 -0.0475
 2602TIP3   OH2 7769   0.081   2.638   2.516 -0.1760 -0.1951 -0.5027
 2602TIP3    H1 7770   0.069   2.593   2.433 -0.9544  0.2812 -0.6619
 2602TIP3    H2 7771   0.003   2.614   2.567  0.4371 -0.7166  0.1980
 2603TIP3   OH2 7772   4.246   4.257   2.317 -0.2036  0.1045 -0.3044
 2603TIP3    H1 7773   4.294   4.334   2.286 -0.1542 -0.1700 -0.9147
 2603TIP3    H2 7774   4.313   4.189   2.325 -0.7356 -0.8167 -2.9184
 2604TIP3   OH2 7775   6.719   2.822   5.668  0.1888  0.3540  0.0799
 2604TIP3    H1 7776   6.787   2.756   5.684  2.3652  2.5464  0.4338
 2604TIP3    H2 7777   6.730   2.845   5.576  0.3336  1.1209  0.2812
 2605TIP3   OH2 7778   7.105   4.754   2.599 -0.3007 -0.0539  0.0126
 2605TIP3    H1 7779   7.171   4.690   2.627  0.5914  1.4644  1.5746
 2605TIP3    H2 7780   7.039   4.751   2.668  0.3464  1.4891  0.7554
 2606TIP3   OH2 7781   3.493   6.118   4.729  0.1009  0.3345  0.5049
 2606TIP3    H1 7782   3.580   6.095   4.761  0.2546 -0.7667 -0.6128
 2606TIP3    H2 7783   3.435   6.053   4.769 -0.3756  1.5498  1.8963
 2607TIP3   OH2 7784   6.763   2.587   1.599 -0.4957 -0.3815  0.0342
 2607TIP3    H1 7785   6.709   2.648   1.649 -2.4745 -1.1172 -1.0992
 2607TIP3    H2 7786   6.853   2.607   1.625 -1.0014  3.2596 -0.5739
 2608TIP3   OH2 7787   4.155   0.768   1.043 -0.0095  0.2692 -0.7754
 2608TIP3    H1 7788   4.175   0.700   1.107  0.0162 -0.3539 -1.4206
 2608TIP3    H2 7789   4.222   0.756   0.975 -0.5394  0.3482 -1.3255
 2609TIP3   OH2 7790   4.508   6.219   4.571 -0.0445  0.3399  0.5907
 2609TIP3    H1 7791   4.519   6.311   4.595  0.7813  0.5071 -0.3717
 2609TIP3    H2 7792   4.596   6.182   4.579 -0.0179  0.0690 -0.7172
 2610TIP3   OH2 7793   0.296   3.825   3.007 -0.8114 -0.2476 -0.3289
 2610TIP3    H1 7794   0.330   3.772   3.079 -1.6574  1.5814  1.5201
 2610TIP3    H2 7795   0.363   3.817   2.938  2.3814  1.3929  2.2722
 2611TIP3   OH2 7796   1.188   3.735   0.458 -0.0010  0.1043  0.3365
 2611TIP3    H1 7797   1.226   3.652   0.487  0.0283 -0.8363 -2.1349
 2611TIP3    H2 7798   1.101   3.737   0.498  0.5132 -0.4153  1.5380
 2612TIP3   OH2 7799   5.720   5.062   2.345  0.2567  0.2648  0.1351
 2612TIP3    H1 7800   5.682   5.023   2.423  1.9604 -2.1410 -0.1326
 2612TIP3    H2 7801   5.671   5.023   2.272  0.4837  0.3765 -0.0794
 2613TIP3   OH2 7802   0.598   3.361   0.590 -0.1920  0.3436 -0.0703
 2613TIP3    H1 7803   0.506   3.346   0.571 -0.4474  1.1796  0.4462
 2613TIP3    H2 7804   0.608   3.335   0.681  0.7436 -2.4501 -0.8657
 2614TIP3   OH2 7805   1.153   0.200   1.243 -0.3160  0.1837  0.5559
 2614TIP3    H1 7806   1.236   0.167   1.278 -1.2823 -2.9724  0.1958
 2614TIP3    H2 7807   1.150   0.165   1.154 -1.9235  0.4402  0.4836
 2615TIP3   OH2 7808   2.748   5.586   1.167 -0.6074 -0.1070  0.6520
 2615TIP3    H1 7809   2.713   5.619   1.250 -1.4918 -1.7587  0.9783
 2615TIP3    H2 7810   2.679   5.529   1.133  1.0710 -2.1276  0.4443
 2616TIP3   OH2 7811   0.031   0.526   1.563 -0.0243  0.2814 -0.0102
 2616TIP3    H1 7812   0.013   0.432   1.553  1.2013 -0.0646  0.8495
 2616TIP3    H2 7813   0.126   0.534   1.552  0.7389  0.6442  4.6809
 2617TIP3   OH2 7814   1.389   2.667   4.092 -0.5056 -0.5050  0.3111
 2617TIP3    H1 7815   1.392   2.615   4.172  0.7517  0.4855  0.9394
 2617TIP3    H2 7816   1.386   2.758   4.122  1.6608 -0.0229 -0.7053
 2618TIP3   OH2 7817   6.934   1.616   4.209 -0.0638  0.2435 -0.4923
 2618TIP3    H1 7818   6.957   1.637   4.299  0.4917 -3.3077  0.3126
 2618TIP3    H2 7819   6.998   1.665   4.156  1.8871 -0.3114  1.2215
 2619TIP3   OH2 7820   6.684   5.163   3.535  0.5445 -0.1916 -0.3282
 2619TIP3    H1 7821   6.640   5.184   3.617 -0.5813 -2.6634 -0.1901
 2619TIP3    H2 7822   6.631   5.207   3.468  0.9109  1.0505  0.1722
 2620TIP3   OH2 7823   7.074   5.491   2.155 -0.4324 -0.7671 -0.0674
 2620TIP3    H1 7824   7.164   5.524   2.165  0.6656 -3.4081 -0.4057
 2620TIP3    H2 7825   7.058   5.442   2.236 -2.0955  0.6993  0.5429
 2621TIP3   OH2 7826   1.261   1.651   3.334 -0.0172 -0.1419 -0.2183
 2621TIP3    H1 7827   1.179   1.694   3.308  0.7348  0.2595 -2.0562
 2621TIP3    H2 7828   1.291   1.701   3.410 -0.7307  0.6273 -0.4284
 2622TIP3   OH2 7829   3.015   5.863   0.618  0.0119 -0.0084  0.1627
 2622TIP3    H1 7830   3.107   5.842   0.601  0.2394  0.3304  0.9642
 2622TIP3    H2 7831   2.973   5.777   0.630  0.1325 -0.1827 -0.6144
 2623TIP3   OH2 7832   3.749   3.069   4.314 -0.0335  0.1284  0.3102
 2623TIP3    H1 7833   3.780   3.039   4.399  0.1904 -0.1183  0.1427
 2623TIP3    H2 7834   3.680   3.007   4.290  0.3214 -0.1638  0.0358
 2624TIP3   OH2 7835   0.422   2.653   0.669  0.5554  0.2961  0.0775
 2624TIP3    H1 7836   0.406   2.581   0.729 -0.5189 -1.0759 -1.7413
 2624TIP3    H2 7837   0.355   2.718   0.690 -0.4005 -0.5708 -0.1752
 2625TIP3   OH2 7838   7.046   2.792   0.650 -0.2554  0.6718  0.2513
 2625TIP3    H1 7839   7.041   2.704   0.689 -0.4574 -0.0613 -1.3544
 2625TIP3    H2 7840   6.972   2.839   0.689 -1.9443 -0.7993 -1.0117
 2626TIP3   OH2 7841   1.782   1.595   3.224  0.1350 -0.0141  0.2799
 2626TIP3    H1 7842   1.860   1.606   3.279  0.0323  2.6350  0.0245
 2626TIP3    H2 7843   1.710   1.632   3.277 -0.3552  0.4915 -0.7106
 2627TIP3   OH2 7844   4.089   4.415   3.984 -0.3437 -0.2078  0.3231
 2627TIP3    H1 7845   4.156   4.395   4.048  0.4373 -0.8732 -0.6659
 2627TIP3    H2 7846   4.101   4.508   3.964 -0.6926  0.0437  1.2184
 2628TIP3   OH2 7847   0.201   2.605   3.598 -0.5682 -0.3349 -0.0881
 2628TIP3    H1 7848   0.286   2.632   3.563  0.0852 -1.3534  0.6584
 2628TIP3    H2 7849   0.138   2.634   3.532  0.3065  0.8018 -0.4635
 2629TIP3   OH2 7850   5.783   6.646   3.067  0.4908  0.4159 -0.6295
 2629TIP3    H1 7851   5.792   6.680   2.978  2.8058  2.0245  0.1078
 2629TIP3    H2 7852   5.760   6.722   3.119  0.1719 -0.3019  0.3021
 2630TIP3   OH2 7853   1.881   1.812   3.794  0.2262  0.0151 -0.1197
 2630TIP3    H1 7854   1.787   1.834   3.791  0.2582  0.0722 -0.7433
 2630TIP3    H2 7855   1.921   1.870   3.729  0.8465  0.7007  0.8386
 2631TIP3   OH2 7856   1.411   0.622   0.935 -0.3947 -0.2630 -0.3548
 2631TIP3    H1 7857   1.464   0.676   0.994 -1.8013  0.9083 -0.1132
 2631TIP3    H2 7858   1.460   0.620   0.853  1.1354 -1.1467  0.5233
 2632TIP3   OH2 7859   7.065   5.146   5.468  0.0719  0.0470 -0.3168
 2632TIP3    H1 7860   7.004   5.076   5.445  0.6771 -0.7994  0.5459
 2632TIP3    H2 7861   7.052   5.160   5.561 -0.2435  1.3076 -0.5406
 2633TIP3   OH2 7862   0.463   3.764   5.053 -0.2197  0.5869 -0.2745
 2633TIP3    H1 7863   0.515   3.714   4.990 -0.9599  1.1849 -1.4068
 2633TIP3    H2 7864   0.507   3.752   5.137 -0.2188 -1.7039 -0.5576
 2634TIP3   OH2 7865   3.078   4.655   0.285  0.2842 -0.3418 -0.3775
 2634TIP3    H1 7866   3.100   4.588   0.350 -1.3596 -0.9232 -0.3740
 2634TIP3    H2 7867   3.002   4.620   0.239  1.0587  0.3266 -2.2459
 2635TIP3   OH2 7868   2.376   3.582   1.369  0.0107  0.0168  0.4156
 2635TIP3    H1 7869   2.316   3.507   1.362  0.0347  0.1093 -1.0799
 2635TIP3    H2 7870   2.342   3.632   1.443  0.7547 -2.1015  2.2885
 2636TIP3   OH2 7871   3.078   4.512   1.496 -0.0127 -0.1681  0.2054
 2636TIP3    H1 7872   3.158   4.564   1.503  0.5206 -0.5274 -2.0966
 2636TIP3    H2 7873   3.009   4.569   1.528  1.0084  0.6245  1.0518
 2637TIP3   OH2 7874   5.989   6.280   4.172  0.5582 -0.1204 -0.4817
 2637TIP3    H1 7875   5.948   6.202   4.209  0.0355  0.0524 -0.6980
 2637TIP3    H2 7876   6.003   6.258   4.080 -0.0603  0.2296 -0.6627
 2638TIP3   OH2 7877   2.685   6.724   0.724 -0.3987 -0.3218  0.2649
 2638TIP3    H1 7878   2.657   6.703   0.635 -1.9510  0.2918  0.5573
 2638TIP3    H2 7879   2.632   6.667   0.780 -1.2731  1.0129  0.8620
 2639TIP3   OH2 7880   3.945   1.779   5.028  0.3550  0.0363 -0.3266
 2639TIP3    H1 7881   4.033   1.809   5.049  0.0228 -0.1090  1.4348
 2639TIP3    H2 7882   3.897   1.859   5.004  0.3832  0.4592  0.9567
 2640TIP3   OH2 7883   0.398   1.752   3.248 -0.1236  0.8113  0.0825
 2640TIP3    H1 7884   0.447   1.800   3.316  0.1457  0.0596  0.4310
 2640TIP3    H2 7885   0.456   1.753   3.172  0.4244 -0.0117  0.4723
 2641TIP3   OH2 7886   1.044   5.200   4.680  0.0006  0.0696 -0.1185
 2641TIP3    H1 7887   1.102   5.169   4.611 -1.1385  1.4989 -1.8114
 2641TIP3    H2 7888   1.032   5.293   4.661 -1.9423  0.0633  0.8444
 2642TIP3   OH2 7889   0.793   5.509   0.874 -0.4195  0.0537  0.4245
 2642TIP3    H1 7890   0.859   5.457   0.919 -0.2924 -1.5961 -1.5394
 2642TIP3    H2 7891   0.771   5.578   0.936  0.4667 -1.4842  2.5694
 2643TIP3   OH2 7892   6.365   6.495   2.983 -0.2153 -0.2742  0.2432
 2643TIP3    H1 7893   6.277   6.532   2.985  0.8053  2.2798  0.7488
 2643TIP3    H2 7894   6.400   6.511   3.071  1.6892  1.2923 -0.7328
 2644TIP3   OH2 7895   1.347   0.996   5.706 -0.3560  0.0590 -0.3051
 2644TIP3    H1 7896   1.433   1.002   5.664  0.0793  0.5082  0.6273
 2644TIP3    H2 7897   1.345   0.907   5.742 -0.2996  0.0345 -0.3618
 2645TIP3   OH2 7898   4.025   2.579   1.279  0.0872 -0.0098  0.5512
 2645TIP3    H1 7899   4.116   2.573   1.251  0.6630 -0.8385  2.3938
 2645TIP3    H2 7900   3.996   2.487   1.285 -0.1241  0.1379  2.1490
 2646TIP3   OH2 7901   1.950   4.769   3.636  0.5117 -0.1614 -0.2871
 2646TIP3    H1 7902   1.885   4.786   3.567 -0.0135  1.4377  0.5559
 2646TIP3    H2 7903   2.020   4.832   3.618 -0.4365  1.5326  1.6134
 2647TIP3   OH2 7904   1.618   5.715   2.100 -0.1232 -0.1512  0.2025
 2647TIP3    H1 7905   1.619   5.651   2.029 -1.0296  0.7177 -0.6405
 2647TIP3    H2 7906   1.710   5.728   2.122  0.0838 -1.7564  0.4391
 2648TIP3   OH2 7907   7.113   5.255   1.156 -0.5292  0.5610  0.3771
 2648TIP3    H1 7908   7.188   5.254   1.216  0.6679  0.5787 -1.0570
 2648TIP3    H2 7909   7.129   5.329   1.098  0.8650 -1.9904 -2.8816
 2649TIP3   OH2 7910   6.661   2.932   3.059 -0.2313 -0.0550 -0.0153
 2649TIP3    H1 7911   6.569   2.950   3.080 -0.1866  0.5061 -0.3065
 2649TIP3    H2 7912   6.695   2.891   3.139 -0.0270  2.1777  1.1265
 2650TIP3   OH2 7913   5.882   1.247   1.842 -0.5780  0.1093  0.1261
 2650TIP3    H1 7914   5.796   1.273   1.809 -0.7041  0.9416  1.0266
 2650TIP3    H2 7915   5.863   1.193   1.918 -0.3319  1.0115  0.8517
 2651TIP3   OH2 7916   3.715   0.109   3.538  0.6457  0.3887  0.7500
 2651TIP3    H1 7917   3.762   0.090   3.620 -0.3250 -1.9923  0.8544
 2651TIP3    H2 7918   3.624   0.118   3.565 -0.3205 -3.9538 -0.2397
 2652TIP3   OH2 7919   0.040   4.679   4.013 -0.0836 -0.1559 -0.7484
 2652TIP3    H1 7920  -0.013   4.603   4.037  0.7046 -1.0592 -1.7573
 2652TIP3    H2 7921   0.048   4.729   4.094  0.1433 -1.6313  0.1906
 2653TIP3   OH2 7922   6.107   6.498   2.742 -0.2815 -0.3272 -0.0090
 2653TIP3    H1 7923   6.178   6.561   2.730  0.3046 -1.4295 -3.9380
 2653TIP3    H2 7924   6.034   6.533   2.690 -1.0209 -1.4243  0.2460
 2654TIP3   OH2 7925   1.748   5.286   3.862 -0.0419  0.2103  0.4388
 2654TIP3    H1 7926   1.705   5.345   3.799  0.1480  0.1973  0.2950
 2654TIP3    H2 7927   1.834   5.270   3.824  0.0520  0.1539  0.6757
 2655TIP3   OH2 7928   4.979   2.495   2.598 -0.2356  0.1885 -0.0196
 2655TIP3    H1 7929   4.900   2.447   2.574 -0.0845 -0.2501  0.3512
 2655TIP3    H2 7930   5.026   2.437   2.657  0.9026  0.0052 -1.0676
 2656TIP3   OH2 7931   1.809   4.456   3.313 -0.1515 -0.0801  0.6610
 2656TIP3    H1 7932   1.754   4.401   3.370 -0.8140  0.5742  0.6749
 2656TIP3    H2 7933   1.748   4.521   3.278  0.1651 -0.7045 -1.1233
 2657TIP3   OH2 7934   4.727   3.843   4.662  0.3561  0.3817  0.4320
 2657TIP3    H1 7935   4.773   3.877   4.586 -1.5425 -3.3656 -2.7346
 2657TIP3    H2 7936   4.648   3.896   4.669  0.6062  0.8306 -0.1162
 2658TIP3   OH2 7937   0.816   6.094   1.529  0.1159 -0.2695 -0.0792
 2658TIP3    H1 7938   0.889   6.096   1.467 -0.1922 -0.7176 -0.4615
 2658TIP3    H2 7939   0.855   6.061   1.610  0.3754 -0.3385 -0.2293
 2659TIP3   OH2 7940   6.339   4.769   4.790 -0.9115 -0.6829  0.4003
 2659TIP3    H1 7941   6.415   4.782   4.733 -1.1497  2.5002  0.6478
 2659TIP3    H2 7942   6.267   4.814   4.745 -2.0353 -1.3656  1.4405
 2660TIP3   OH2 7943   6.278   0.651   2.562  0.0601  0.2614 -0.3281
 2660TIP3    H1 7944   6.184   0.653   2.579  0.2088 -1.3349  0.9146
 2660TIP3    H2 7945   6.319   0.656   2.648  0.9963 -2.2870 -0.5110
 2661TIP3   OH2 7946   2.193   3.666   4.986  0.1817 -0.0904  0.5023
 2661TIP3    H1 7947   2.239   3.743   4.954 -1.1967  1.0457  1.1378
 2661TIP3    H2 7948   2.129   3.646   4.917  0.4064 -0.5501  0.4260
 2662TIP3   OH2 7949   2.035   5.514   1.577 -0.1152  0.5593  0.4866
 2662TIP3    H1 7950   1.979   5.453   1.529 -0.8346  0.8872  0.8875
 2662TIP3    H2 7951   2.048   5.587   1.517 -0.8404  0.8718  0.6943
 2663TIP3   OH2 7952   4.470   3.103   3.262  0.3460  0.3298  0.0645
 2663TIP3    H1 7953   4.564   3.119   3.263  0.4289  0.1391 -1.7416
 2663TIP3    H2 7954   4.460   3.019   3.217 -0.6755  0.3468  0.2377
 2664TIP3   OH2 7955   6.225   4.840   2.115 -0.4648  0.3555  0.0948
 2664TIP3    H1 7956   6.258   4.926   2.141 -2.1399  0.9709  0.2585
 2664TIP3    H2 7957   6.281   4.778   2.163  0.3040  1.3511  0.5250
 2665TIP3   OH2 7958   5.873   5.484   4.355 -0.1977  0.2004 -0.0224
 2665TIP3    H1 7959   5.894   5.563   4.406 -0.0101  0.5646 -0.6532
 2665TIP3    H2 7960   5.802   5.512   4.297  1.0422  0.4160 -1.4802
 2666TIP3   OH2 7961   5.846   3.242   3.682 -0.3830  0.1252  0.1851
 2666TIP3    H1 7962   5.868   3.169   3.739 -1.4284  0.3343  0.8817
 2666TIP3    H2 7963   5.820   3.312   3.741 -0.3828  0.7261 -0.5111
 2667TIP3   OH2 7964   1.722   4.650   4.519 -0.0573  0.4242 -0.3502
 2667TIP3    H1 7965   1.667   4.727   4.515  1.2199  1.3833 -0.1671
 2667TIP3    H2 7966   1.808   4.683   4.548 -0.0698 -1.3570  2.0722
 2668TIP3   OH2 7967   0.961   4.070   1.567 -0.5371 -0.3961  0.1837
 2668TIP3    H1 7968   0.894   4.043   1.629 -1.4299 -1.6176 -1.2440
 2668TIP3    H2 7969   0.923   4.146   1.522 -0.0915  0.1911  0.7883
 2669TIP3   OH2 7970   7.140   4.651   1.885 -0.1519  0.4288  0.2569
 2669TIP3    H1 7971   7.169   4.743   1.882 -0.9576  0.6794 -0.0016
 2669TIP3    H2 7972   7.221   4.601   1.877  0.3648  1.1101  1.0229
 2670TIP3   OH2 7973   6.860   6.013   5.439 -0.1969 -0.0867 -0.1628
 2670TIP3    H1 7974   6.785   5.954   5.439  1.1289 -1.8421 -0.2538
 2670TIP3    H2 7975   6.894   6.008   5.350  1.2099 -0.9035  0.4024
 2671TIP3   OH2 7976   2.175   2.609   3.000  0.0044 -0.3310  0.5228
 2671TIP3    H1 7977   2.158   2.678   2.936 -0.3883 -0.6787  0.2429
 2671TIP3    H2 7978   2.105   2.545   2.985  0.9621 -1.3122  0.0482
 2672TIP3   OH2 7979   7.113   1.686   4.907 -0.0579 -0.1073 -0.8179
 2672TIP3    H1 7980   7.168   1.644   4.974 -0.0963 -0.8521 -1.2349
 2672TIP3    H2 7981   7.043   1.622   4.890 -1.3086  1.0090  0.0056
 2673TIP3   OH2 7982   4.138   4.346   4.909  0.5024 -0.1715  0.3956
 2673TIP3    H1 7983   4.215   4.391   4.873  0.0135  0.9866  0.7399
 2673TIP3    H2 7984   4.117   4.396   4.988  0.6193 -1.7181  1.4368
 2674TIP3   OH2 7985   4.366   4.940   4.221 -0.0245 -0.7896 -0.0138
 2674TIP3    H1 7986   4.339   4.849   4.232 -1.3862 -0.6832 -2.0130
 2674TIP3    H2 7987   4.301   4.978   4.162 -0.2044  1.8542  1.7217
 2675TIP3   OH2 7988   1.412   2.822   1.777 -0.3339  0.4313  0.3507
 2675TIP3    H1 7989   1.505   2.832   1.798 -0.7411  1.2881  1.9291
 2675TIP3    H2 7990   1.411   2.780   1.691  1.4890 -1.7742  1.3168
 2676TIP3   OH2 7991   5.028   3.422   5.737 -0.1110  0.1153 -0.1551
 2676TIP3    H1 7992   5.025   3.483   5.811 -2.7495  0.5577 -0.5038
 2676TIP3    H2 7993   4.936   3.406   5.716  0.5281 -2.4111 -1.4093
 2677TIP3   OH2 7994   6.360   0.285   3.163 -0.0819  0.2695 -0.0408
 2677TIP3    H1 7995   6.385   0.200   3.200 -2.1535 -0.4383 -0.1515
 2677TIP3    H2 7996   6.437   0.313   3.114  0.8748 -1.2326  0.5181
 2678TIP3   OH2 7997   3.942   5.573   5.062 -0.2944 -0.6420 -0.1602
 2678TIP3    H1 7998   3.895   5.491   5.080  2.4351 -2.2658  0.1279
 2678TIP3    H2 7999   3.961   5.571   4.969 -0.0222 -0.4441 -0.1116
 2679TIP3   OH2 8000   2.124   4.111   3.761 -0.5335  0.3779  0.2152
 2679TIP3    H1 8001   2.043   4.126   3.712 -0.4120 -1.4927 -0.6365
 2679TIP3    H2 8002   2.097   4.117   3.853 -1.7231 -0.4730 -0.0513
 2680TIP3   OH2 8003   2.345   1.452   0.803  0.1944  0.4611  0.0107
 2680TIP3    H1 8004   2.412   1.514   0.833  1.4127 -0.0183 -1.5855
 2680TIP3    H2 8005   2.292   1.503   0.742  0.9069  0.0856 -0.9404
 2681TIP3   OH2 8006   1.094   3.216   2.399  0.0246 -0.5556 -0.2149
 2681TIP3    H1 8007   1.111   3.299   2.356  1.6887  0.0896  1.5403
 2681TIP3    H2 8008   1.002   3.198   2.382 -0.2153  1.3415 -1.1364
 2682TIP3   OH2 8009   3.595   4.915   4.615 -0.1676  0.2695  0.2346
 2682TIP3    H1 8010   3.521   4.970   4.641 -2.9539 -1.7145 -2.8205
 2682TIP3    H2 8011   3.635   4.962   4.542  0.1947  0.2914  0.4471
 2683TIP3   OH2 8012   0.442   6.181   3.668  0.6467  0.3928  0.4536
 2683TIP3    H1 8013   0.347   6.185   3.668  0.6269 -0.0104  0.1696
 2683TIP3    H2 8014   0.468   6.200   3.578  0.7991 -0.2071  0.3681
 2684TIP3   OH2 8015   3.128   2.257   3.429  0.2020 -0.0451  0.2301
 2684TIP3    H1 8016   3.200   2.255   3.366  0.7506  0.8715  0.8007
 2684TIP3    H2 8017   3.109   2.164   3.447  1.8137 -0.3149  0.7053
 2685TIP3   OH2 8018   6.738   2.829   3.490 -0.2473  0.2902  0.1148
 2685TIP3    H1 8019   6.645   2.808   3.479 -0.4037  1.3464 -0.7921
 2685TIP3    H2 8020   6.738   2.905   3.547  0.1080 -0.1322  0.6807
 2686TIP3   OH2 8021   1.609   3.678   1.649 -0.0997 -0.5649  0.2308
 2686TIP3    H1 8022   1.618   3.754   1.592 -3.1414  0.6246  1.1214
 2686TIP3    H2 8023   1.689   3.677   1.701  0.9884  0.6410 -1.3299
 2687TIP3   OH2 8024   3.795   2.559   5.214 -0.6743  0.5602 -0.2052
 2687TIP3    H1 8025   3.727   2.546   5.280  0.6248 -0.3519  1.0239
 2687TIP3    H2 8026   3.765   2.510   5.137 -0.9270 -0.7330  0.6852
 2688TIP3   OH2 8027   5.377   1.017   4.084 -0.4126 -0.1107 -0.4832
 2688TIP3    H1 8028   5.404   1.061   4.003 -1.0388  1.3702  0.0835
 2688TIP3    H2 8029   5.416   1.069   4.154 -4.9758  2.6458  0.4565
 2689TIP3   OH2 8030   1.420   3.293   4.088 -0.0113 -0.1146 -0.1853
 2689TIP3    H1 8031   1.452   3.211   4.049 -0.6294 -0.1764 -0.5798
 2689TIP3    H2 8032   1.446   3.361   4.026  0.5091 -0.0107  0.1469
 2690TIP3   OH2 8033   1.789   0.345   3.160  0.6327  0.4539  0.2041
 2690TIP3    H1 8034   1.716   0.373   3.215  0.7696  0.3649  0.4365
 2690TIP3    H2 8035   1.797   0.251   3.178 -0.0258  0.1896 -0.7999
 2691TIP3   OH2 8036   4.863   5.731   0.887 -0.6605  0.4083  0.0318
 2691TIP3    H1 8037   4.957   5.749   0.886 -0.5930  0.2333  1.1811
 2691TIP3    H2 8038   4.825   5.808   0.929 -1.1385  0.8466 -1.1645
 2692TIP3   OH2 8039   1.713   1.480   5.776  0.4953  0.0867 -0.5976
 2692TIP3    H1 8040   1.770   1.485   5.699  0.6416  0.2435 -0.4831
 2692TIP3    H2 8041   1.742   1.553   5.831 -0.5146  0.8220 -1.0060
 2693TIP3   OH2 8042   3.425   0.509   1.382  0.4066 -0.5973 -0.0583
 2693TIP3    H1 8043   3.381   0.512   1.297 -0.5535 -0.5225  0.4317
 2693TIP3    H2 8044   3.489   0.581   1.378 -1.1837  0.8882  0.0996
 2694TIP3   OH2 8045   0.994   4.692   4.119  0.2622  0.2963 -0.2698
 2694TIP3    H1 8046   1.008   4.776   4.075 -1.5893  0.0583 -1.4393
 2694TIP3    H2 8047   1.013   4.627   4.051 -1.0741 -0.1232 -0.2709
 2695TIP3   OH2 8048   2.625   3.260   5.191  0.5604  0.2108 -0.2101
 2695TIP3    H1 8049   2.713   3.234   5.219  0.0724  0.4840  1.7239
 2695TIP3    H2 8050   2.574   3.262   5.272 -1.4631 -0.7473 -1.3942
 2696TIP3   OH2 8051   5.172   6.265   5.056 -0.1312  0.0270 -0.0907
 2696TIP3    H1 8052   5.214   6.231   5.136 -2.2413 -0.8805  0.7126
 2696TIP3    H2 8053   5.200   6.204   4.987 -2.7029 -2.7628  1.0661
 2697TIP3   OH2 8054   6.573   4.905   3.363 -0.3192  0.4033 -0.2781
 2697TIP3    H1 8055   6.616   4.924   3.447  0.2005  2.1350 -0.8939
 2697TIP3    H2 8056   6.511   4.835   3.383  0.8173 -0.2373  1.2386
 2698TIP3   OH2 8057   5.582   6.382   4.403 -0.4578 -0.0147 -0.2364
 2698TIP3    H1 8058   5.631   6.332   4.468  0.8598  0.1196 -1.0889
 2698TIP3    H2 8059   5.491   6.376   4.431 -0.0989 -1.3004  0.7201
 2699TIP3   OH2 8060   0.238   3.252   1.157  0.0953  0.0804  0.1311
 2699TIP3    H1 8061   0.237   3.229   1.250  2.9754 -0.7161  0.0648
 2699TIP3    H2 8062   0.212   3.344   1.156 -2.9056 -0.6314  1.3320
 2700TIP3   OH2 8063   1.569   5.082   2.071  0.3949  0.4503  0.3099
 2700TIP3    H1 8064   1.587   5.175   2.060  1.3749  0.3749  1.1393
 2700TIP3    H2 8065   1.655   5.039   2.065 -0.2667 -0.7247 -2.6606
 2701TIP3   OH2 8066   6.921   6.329   4.671 -0.5936 -0.0136  0.1589
 2701TIP3    H1 8067   6.919   6.343   4.577 -1.0872  1.0256  0.3049
 2701TIP3    H2 8068   7.009   6.295   4.689  0.2733  1.8286 -0.4117
 2702TIP3   OH2 8069   0.017   5.403   5.104  0.2454 -0.4991  0.5470
 2702TIP3    H1 8070   0.034   5.323   5.054 -1.0136  0.0653 -0.8661
 2702TIP3    H2 8071   0.100   5.450   5.105  0.6116 -1.1261  0.1038
 2703TIP3   OH2 8072   1.868   2.490   0.101  0.3037  0.2374 -0.2160
 2703TIP3    H1 8073   1.820   2.552   0.156 -0.9650  0.3083 -1.3428
 2703TIP3    H2 8074   1.861   2.406   0.146  4.1451  1.1802  2.6480
 2704TIP3   OH2 8075   1.934   4.117   4.015  0.4046  0.2692 -0.4647
 2704TIP3    H1 8076   1.930   4.021   4.017  0.6127  0.2613 -0.3564
 2704TIP3    H2 8077   1.854   4.144   3.970 -0.5318  0.1136  1.0190
 2705TIP3   OH2 8078   6.695   4.668   0.368  0.3597  0.2031  0.0536
 2705TIP3    H1 8079   6.605   4.691   0.391 -0.1055 -1.1511 -0.3004
 2705TIP3    H2 8080   6.704   4.577   0.397  0.8067 -0.4864 -2.0658
 2706TIP3   OH2 8081   2.513   5.113   5.865 -0.1392  0.4545 -0.0286
 2706TIP3    H1 8082   2.463   5.043   5.906  1.6888 -0.4300  0.8346
 2706TIP3    H2 8083   2.470   5.128   5.781 -2.7746  0.9087  1.3102
 2707TIP3   OH2 8084   3.785   1.222   3.536 -0.3534  0.1498  0.3225
 2707TIP3    H1 8085   3.732   1.142   3.535  1.1156 -0.8850 -1.6690
 2707TIP3    H2 8086   3.873   1.192   3.559  0.4005  1.0304 -1.2914
 2708TIP3   OH2 8087   3.475   4.651   4.616 -0.8652 -0.4165  0.3962
 2708TIP3    H1 8088   3.506   4.633   4.527 -2.1381  0.3165 -0.2232
 2708TIP3    H2 8089   3.505   4.739   4.635 -2.3018  0.2246 -0.1334
 2709TIP3   OH2 8090   3.696   0.786   5.828 -0.1763 -0.1203 -0.0017
 2709TIP3    H1 8091   3.758   0.851   5.862 -0.6478 -0.3177  1.3140
 2709TIP3    H2 8092   3.746   0.704   5.827 -0.7323 -0.5751  2.3941
 2710TIP3   OH2 8093   3.920   2.223   2.159  0.1406  0.6879  0.7792
 2710TIP3    H1 8094   4.001   2.208   2.208  0.7994 -2.8793 -1.0712
 2710TIP3    H2 8095   3.850   2.212   2.223  1.0088  1.9537  2.0132
 2711TIP3   OH2 8096   2.400   2.417   1.139 -0.5503  0.4461  0.0490
 2711TIP3    H1 8097   2.467   2.353   1.162 -0.4411  0.3226 -0.6162
 2711TIP3    H2 8098   2.351   2.430   1.221  1.0176  1.4467  0.8782
 2712TIP3   OH2 8099   1.775   4.095   4.699  0.4912 -0.0164 -0.1812
 2712TIP3    H1 8100   1.807   4.015   4.741  0.3441  0.3119  0.5880
 2712TIP3    H2 8101   1.846   4.122   4.641  1.0497 -0.0440  0.4776
 2713TIP3   OH2 8102   1.156   3.323   4.927  0.4049 -0.0165 -0.3763
 2713TIP3    H1 8103   1.115   3.395   4.878  1.4849 -0.2000 -1.6047
 2713TIP3    H2 8104   1.250   3.341   4.922  0.7563 -1.8799 -1.3443
 2714TIP3   OH2 8105   0.039   6.158   1.878 -0.0650  0.3410  0.1125
 2714TIP3    H1 8106  -0.009   6.239   1.860 -1.7200 -0.4944  0.6161
 2714TIP3    H2 8107   0.013   6.098   1.808  0.6844  0.0354  0.0796
 2715TIP3   OH2 8108   1.194   4.160   4.335  0.2862  0.6566  0.3971
 2715TIP3    H1 8109   1.197   4.239   4.389 -2.4783 -0.4215  2.3880
 2715TIP3    H2 8110   1.248   4.097   4.383 -2.0568 -0.2584  2.0166
 2716TIP3   OH2 8111   4.170   3.992   1.065  0.4883  0.3911  0.0701
 2716TIP3    H1 8112   4.110   3.956   0.999 -0.0147  0.0956  0.6753
 2716TIP3    H2 8113   4.113   4.043   1.123  0.5901 -0.9498  1.4111
 2717TIP3   OH2 8114   5.200   0.810   3.242  0.1081  0.1713  0.2292
 2717TIP3    H1 8115   5.115   0.766   3.239 -0.1710  0.7325 -0.2312
 2717TIP3    H2 8116   5.201   0.855   3.326 -0.6434  1.3059 -0.3415
 2718TIP3   OH2 8117   0.640   0.270   1.477  0.5732 -0.1259  0.1331
 2718TIP3    H1 8118   0.599   0.288   1.393 -0.7131 -0.5387  0.6561
 2718TIP3    H2 8119   0.576   0.297   1.543  0.4400 -2.2280  0.9571
 2719TIP3   OH2 8120   5.011   4.189   1.229  0.1582 -0.5666 -0.0809
 2719TIP3    H1 8121   5.039   4.280   1.231 -0.1306 -0.4796  0.0790
 2719TIP3    H2 8122   5.015   4.160   1.320  0.4048 -0.7628 -0.1519
 2720TIP3   OH2 8123   4.601   2.671   2.281 -0.1717 -0.7042 -0.5062
 2720TIP3    H1 8124   4.681   2.722   2.278 -1.0726  0.7597 -0.8338
 2720TIP3    H2 8125   4.557   2.689   2.197 -0.9698 -1.2528 -0.2270
 2721TIP3   OH2 8126   6.366   1.746   3.260  1.0151 -0.1522  0.5443
 2721TIP3    H1 8127   6.365   1.835   3.295 -1.1828 -0.4733  1.5031
 2721TIP3    H2 8128   6.395   1.756   3.169  0.0403  1.6789  0.3794
 2722TIP3   OH2 8129   2.721   5.889   5.579  0.4186  0.6899  0.3286
 2722TIP3    H1 8130   2.739   5.799   5.608  0.2445  0.2965 -0.7505
 2722TIP3    H2 8131   2.781   5.903   5.505 -2.1098  0.1030 -1.9940
 2723TIP3   OH2 8132   0.174   3.828   4.916 -0.0996  0.1926  0.7978
 2723TIP3    H1 8133   0.162   3.746   4.964 -0.7573 -0.7905 -0.9307
 2723TIP3    H2 8134   0.255   3.815   4.866 -1.6586 -0.6668 -1.7078
 2724TIP3   OH2 8135   2.624   5.627   4.249 -0.3553  0.2039  0.3038
 2724TIP3    H1 8136   2.659   5.539   4.261  1.2601  0.5067 -1.6680
 2724TIP3    H2 8137   2.622   5.639   4.154  0.3888  2.6428  0.5414
 2725TIP3   OH2 8138   0.799   0.836   5.444 -0.3096 -0.0888 -0.3959
 2725TIP3    H1 8139   0.803   0.755   5.494  0.5632 -0.2947 -0.7771
 2725TIP3    H2 8140   0.733   0.820   5.377  0.2115 -0.6598 -0.7732
 2726TIP3   OH2 8141   2.724   3.791   1.158  0.0437 -0.1619 -0.0764
 2726TIP3    H1 8142   2.652   3.782   1.096  1.8172 -1.6949 -2.0820
 2726TIP3    H2 8143   2.746   3.702   1.183  1.7834  0.1847 -0.2185
 2727TIP3   OH2 8144   6.239   2.991   4.806  0.1576  0.0835 -1.1813
 2727TIP3    H1 8145   6.305   2.986   4.875 -0.6508  0.9668 -0.2995
 2727TIP3    H2 8146   6.245   3.081   4.774  0.5970 -0.3480 -2.3589
 2728TIP3   OH2 8147   3.737   5.714   0.330  0.1440  0.4437 -0.1787
 2728TIP3    H1 8148   3.661   5.682   0.282  0.0794  1.9529 -1.1554
 2728TIP3    H2 8149   3.767   5.639   0.381 -0.6538 -0.8162 -1.4839
 2729TIP3   OH2 8150   1.592   4.718   2.927 -0.0471 -0.7203 -0.0804
 2729TIP3    H1 8151   1.523   4.753   2.871  1.3678 -0.7772 -1.9596
 2729TIP3    H2 8152   1.641   4.658   2.871  1.1691 -1.1637  1.3631
 2730TIP3   OH2 8153   2.459   1.505   1.407 -0.3311  0.4601 -0.4908
 2730TIP3    H1 8154   2.366   1.502   1.385 -0.1045  0.8828 -1.5647
 2730TIP3    H2 8155   2.498   1.560   1.339  0.7912 -0.1397 -0.3622
 2731TIP3   OH2 8156   2.339   1.011   3.328  0.3036 -0.1697 -0.1174
 2731TIP3    H1 8157   2.351   0.989   3.236  1.3040  0.6258 -0.1982
 2731TIP3    H2 8158   2.407   1.077   3.346 -0.0033 -0.1673  1.1323
 2732TIP3   OH2 8159   2.494   6.092   2.787  0.0517 -0.2535 -0.4871
 2732TIP3    H1 8160   2.551   6.021   2.816  0.5276  1.1391  2.3079
 2732TIP3    H2 8161   2.410   6.075   2.829  0.4124  1.1766  0.9590
 2733TIP3   OH2 8162   0.922   0.125   0.050 -0.9023  0.2524  0.5020
 2733TIP3    H1 8163   0.992   0.067   0.081 -1.2310  0.0563  0.8913
 2733TIP3    H2 8164   0.966   0.187  -0.008 -0.6948 -0.9806 -0.7166
 2734TIP3   OH2 8165   7.079   6.009   1.737  0.1154  0.5549  0.0850
 2734TIP3    H1 8166   7.080   5.929   1.684  0.1009  0.7739 -0.2500
 2734TIP3    H2 8167   7.004   6.059   1.703  1.3619  1.6726 -1.1485
 2735TIP3   OH2 8168   3.334   0.931   0.233  0.1183  0.4600  0.1726
 2735TIP3    H1 8169   3.299   0.843   0.224 -2.6971  1.6421 -2.1457
 2735TIP3    H2 8170   3.409   0.922   0.292  0.2547 -3.5020 -0.3697
 2736TIP3   OH2 8171   2.952   6.414   1.710 -0.4477 -0.1021 -0.8751
 2736TIP3    H1 8172   3.033   6.397   1.662 -0.4513 -0.4607 -0.7556
 2736TIP3    H2 8173   2.939   6.508   1.702  1.0447  0.3029  0.7649
 2737TIP3   OH2 8174   2.740   5.466   3.656  0.1801 -0.4484  0.4874
 2737TIP3    H1 8175   2.707   5.409   3.726  1.2036  0.6663  1.9392
 2737TIP3    H2 8176   2.834   5.451   3.656  0.1366 -0.9081 -1.1404
 2738TIP3   OH2 8177   2.865   1.868   2.839  0.7259 -0.1408 -0.0892
 2738TIP3    H1 8178   2.826   1.934   2.896  4.6428  0.5999  2.0247
 2738TIP3    H2 8179   2.860   1.787   2.889  1.2998 -0.1762 -0.0892
 2739TIP3   OH2 8180   0.511   5.240   4.999  0.2980  0.0893  0.4716
 2739TIP3    H1 8181   0.469   5.157   5.020 -1.2684  0.1616 -2.0099
 2739TIP3    H2 8182   0.591   5.216   4.953 -1.5347 -0.2220 -2.8477
 2740TIP3   OH2 8183   3.392   4.654   5.687  0.1060 -0.2801  0.1822
 2740TIP3    H1 8184   3.450   4.725   5.713  1.4947 -1.5366  0.6331
 2740TIP3    H2 8185   3.307   4.679   5.723  0.8730  0.4847  1.5497
 2741TIP3   OH2 8186   6.797   6.752   0.234  0.1809  0.3495 -0.3489
 2741TIP3    H1 8187   6.704   6.728   0.236  0.0998  0.4762 -1.5955
 2741TIP3    H2 8188   6.816   6.764   0.141  1.6295 -0.3935 -0.1759
 2742TIP3   OH2 8189   5.904   2.544   3.011 -0.6959  0.7473  0.0256
 2742TIP3    H1 8190   5.839   2.567   3.077 -1.8563  0.5917 -1.0095
 2742TIP3    H2 8191   5.856   2.549   2.928  0.7413  1.0804 -0.8251
 2743TIP3   OH2 8192   6.968   6.412   2.223  0.0524 -0.2941 -0.4706
 2743TIP3    H1 8193   6.998   6.475   2.157  0.5734  0.8088  0.7859
 2743TIP3    H2 8194   6.901   6.360   2.177  2.2696 -1.3933 -2.7041
 2744TIP3   OH2 8195   3.406   2.475   2.596 -0.1652  0.1628 -0.3856
 2744TIP3    H1 8196   3.334   2.519   2.551 -3.4243 -1.3883  2.7731
 2744TIP3    H2 8197   3.407   2.387   2.559  0.3758  0.2948 -0.6849
 2745TIP3   OH2 8198   4.279   5.672   1.187 -0.0407 -0.6111 -0.0850
 2745TIP3    H1 8199   4.291   5.753   1.138  0.9733 -1.8994 -2.1160
 2745TIP3    H2 8200   4.203   5.630   1.145 -1.1167 -0.3648  1.5169
 2746TIP3   OH2 8201   2.815   4.335   5.323 -0.0248 -0.4103  0.3627
 2746TIP3    H1 8202   2.728   4.296   5.334 -0.2622 -0.1273 -0.4222
 2746TIP3    H2 8203   2.870   4.262   5.294 -0.5516 -0.1361 -1.4747
 2747TIP3   OH2 8204   0.031   2.110   0.041  0.2711 -0.7358  0.0214
 2747TIP3    H1 8205   0.031   2.202   0.067 -0.4524 -0.4519 -0.9516
 2747TIP3    H2 8206   0.072   2.065   0.115 -1.9465  0.0166  1.8459
 2748TIP3   OH2 8207   6.937   4.344   2.824  0.3008 -0.0326 -0.0139
 2748TIP3    H1 8208   6.859   4.294   2.849  0.1173  0.2972  0.0838
 2748TIP3    H2 8209   6.947   4.410   2.893  1.3066 -0.7559  0.5579
 2749TIP3   OH2 8210   0.453   2.270   2.576 -0.5663 -0.3242 -0.0688
 2749TIP3    H1 8211   0.364   2.263   2.612  0.0252 -0.8218  1.3846
 2749TIP3    H2 8212   0.510   2.271   2.653  0.6699  0.6232 -0.9419
 2750TIP3   OH2 8213   2.537   3.934   2.211  0.1545 -0.5046 -0.1777
 2750TIP3    H1 8214   2.597   3.917   2.139  1.1217  2.0142 -0.0874
 2750TIP3    H2 8215   2.556   4.025   2.237 -1.0551 -0.8823  2.3859
 2751TIP3   OH2 8216   0.557   2.583   2.753 -0.3843  0.0381  0.1877
 2751TIP3    H1 8217   0.465   2.560   2.748 -0.6767  1.0193  0.7636
 2751TIP3    H2 8218   0.582   2.563   2.843 -0.5905  1.6520  0.6444
 2752TIP3   OH2 8219   2.345   6.129   1.829 -0.0636 -0.8794 -0.1574
 2752TIP3    H1 8220   2.265   6.137   1.777  0.8994 -0.9299 -1.6826
 2752TIP3    H2 8221   2.407   6.189   1.788  1.1764 -1.9767  0.0586
 2753TIP3   OH2 8222   3.267   6.799   5.000 -0.1344 -0.2128  0.0376
 2753TIP3    H1 8223   3.317   6.739   5.055 -0.4662  0.6659  1.3418
 2753TIP3    H2 8224   3.192   6.824   5.053  0.5814  2.2275  0.0185
 2754TIP3   OH2 8225   4.191   4.676   4.066 -0.1406  0.2912 -0.4167
 2754TIP3    H1 8226   4.148   4.761   4.054 -1.3571 -0.1967  0.3935
 2754TIP3    H2 8227   4.209   4.671   4.160 -0.9071 -0.7322 -0.3107
 2755TIP3   OH2 8228   1.387   0.259   4.673  0.2029  0.2175 -0.3923
 2755TIP3    H1 8229   1.292   0.248   4.674  0.4194 -2.1983  0.7309
 2755TIP3    H2 8230   1.415   0.236   4.762  1.8777  0.4812 -0.8148
 2756TIP3   OH2 8231   1.024   2.539   3.593  0.3357  0.8121 -0.4114
 2756TIP3    H1 8232   1.024   2.476   3.520  0.9374  0.8413 -0.4388
 2756TIP3    H2 8233   1.073   2.614   3.560  0.1614  1.0426 -0.1542
 2757TIP3   OH2 8234   5.095   2.239   0.952 -0.4274  0.2258 -0.1640
 2757TIP3    H1 8235   5.076   2.289   0.873 -2.4072 -1.8663 -1.1248
 2757TIP3    H2 8236   5.176   2.192   0.931 -0.2199  0.6857 -0.4162
 2758TIP3   OH2 8237   7.095   1.471   1.744  0.2021 -0.5666  0.3506
 2758TIP3    H1 8238   7.107   1.537   1.812  1.8957 -0.7834  0.2927
 2758TIP3    H2 8239   7.108   1.519   1.662  0.7434 -0.8303  0.2818
 2759TIP3   OH2 8240   4.511   2.208   0.872 -0.4093  0.3697  0.0162
 2759TIP3    H1 8241   4.478   2.294   0.897 -1.5682 -0.9393  3.6865
 2759TIP3    H2 8242   4.592   2.198   0.922 -0.4289 -0.7552 -0.1586
 2760TIP3   OH2 8243   1.829   3.065   5.341  0.1234 -0.0783  0.2383
 2760TIP3    H1 8244   1.879   3.054   5.260 -0.3047 -0.1364 -0.0219
 2760TIP3    H2 8245   1.743   3.096   5.312 -0.2689 -0.8049  0.6152
 2761TIP3   OH2 8246   0.330   6.206   1.184 -0.0795 -0.1742 -0.1181
 2761TIP3    H1 8247   0.238   6.185   1.171 -0.0492  0.4315 -1.6389
 2761TIP3    H2 8248   0.354   6.256   1.105  1.5315 -0.2851  0.2615
 2762TIP3   OH2 8249   0.226   2.519   1.704 -0.3619  0.5495  0.1863
 2762TIP3    H1 8250   0.205   2.591   1.645  0.4732  2.2682  1.8866
 2762TIP3    H2 8251   0.142   2.490   1.739 -0.8051 -0.0967 -1.3233
 2763TIP3   OH2 8252   5.473   1.111   3.593  0.0928 -0.1942 -0.1869
 2763TIP3    H1 8253   5.400   1.127   3.653  0.7703 -2.9618  1.5888
 2763TIP3    H2 8254   5.536   1.179   3.613 -0.4043 -0.0775  1.0662
 2764TIP3   OH2 8255   2.067   6.178   5.096 -0.1766  0.3414  0.4838
 2764TIP3    H1 8256   2.067   6.257   5.041 -1.0406 -0.1027 -0.1794
 2764TIP3    H2 8257   1.991   6.128   5.066  0.4173 -0.7995  0.8141
 2765TIP3   OH2 8258   4.135   0.068   1.470 -0.7906  0.6987  0.8897
 2765TIP3    H1 8259   4.068   0.064   1.538  0.2420  1.0477  1.9597
 2765TIP3    H2 8260   4.174  -0.019   1.469  0.8874  1.3535  2.5653
 2766TIP3   OH2 8261   0.552   5.397   5.844 -0.2297  0.1412  0.5272
 2766TIP3    H1 8262   0.527   5.488   5.856 -0.9973 -0.1927  1.7126
 2766TIP3    H2 8263   0.576   5.367   5.932  2.9629 -0.0119 -0.2773
 2767TIP3   OH2 8264   5.835   0.566   3.583 -0.2973 -0.1458 -0.6967
 2767TIP3    H1 8265   5.751   0.520   3.595 -1.1015  0.8962 -2.0387
 2767TIP3    H2 8266   5.855   0.601   3.670 -1.4996 -0.0455 -0.4292
 2768TIP3   OH2 8267   5.729   6.022   4.730  0.5404  0.2141 -0.4210
 2768TIP3    H1 8268   5.740   6.063   4.644 -0.6666  1.8275  0.1492
 2768TIP3    H2 8269   5.770   6.083   4.791 -0.2647  0.0162  0.3361
 2769TIP3   OH2 8270   1.449   6.530   1.546 -0.3289 -0.3957  0.5002
 2769TIP3    H1 8271   1.437   6.492   1.633  0.1956 -1.9049 -0.0684
 2769TIP3    H2 8272   1.539   6.508   1.523 -1.2053 -2.2757 -1.4691
 2770TIP3   OH2 8273   5.888   4.740   3.862 -0.5580 -0.2549  0.1453
 2770TIP3    H1 8274   5.864   4.747   3.770 -1.3526 -0.1811  0.3498
 2770TIP3    H2 8275   5.805   4.748   3.909 -0.0608  0.6126  0.9083
 2771TIP3   OH2 8276   3.650   3.211   3.699  0.2553 -0.1125 -0.3601
 2771TIP3    H1 8277   3.555   3.207   3.705  0.3572 -1.2699  1.1169
 2771TIP3    H2 8278   3.668   3.249   3.613 -1.5165 -1.6138 -1.4485
 2772TIP3   OH2 8279   2.087   3.960   4.703  0.0172 -0.2102 -0.6502
 2772TIP3    H1 8280   2.140   4.018   4.757 -2.4331  0.4233  1.2502
 2772TIP3    H2 8281   2.087   4.002   4.617  1.0452  0.7678 -0.2061
 2773TIP3   OH2 8282   0.231   4.113   0.295 -0.3043 -0.0812 -0.1884
 2773TIP3    H1 8283   0.182   4.178   0.244 -1.3639  0.4783  1.4598
 2773TIP3    H2 8284   0.233   4.035   0.238 -2.6079  0.0800 -0.5997
 2774TIP3   OH2 8285   1.551   2.565   3.859  0.3464 -0.2078 -0.1635
 2774TIP3    H1 8286   1.639   2.564   3.896  0.5731 -1.1065 -0.7167
 2774TIP3    H2 8287   1.497   2.603   3.928  0.8219 -1.5193  0.9678
 2775TIP3   OH2 8288   2.815   2.226   2.752  0.3687 -0.4204 -0.4080
 2775TIP3    H1 8289   2.782   2.186   2.672 -1.5012  0.1976 -0.0016
 2775TIP3    H2 8290   2.838   2.152   2.808 -1.6942 -0.9799 -0.2062
 2776TIP3   OH2 8291   2.196   1.506   0.220 -0.3933 -0.1462  0.3365
 2776TIP3    H1 8292   2.213   1.412   0.232  1.1565 -0.4117 -2.7631
 2776TIP3    H2 8293   2.271   1.537   0.170 -2.0729  2.1590 -0.9548
 2777TIP3   OH2 8294   6.632   4.144   3.634 -0.1492  0.1461 -0.0394
 2777TIP3    H1 8295   6.643   4.102   3.719 -0.3505  0.2692  0.0455
 2777TIP3    H2 8296   6.703   4.208   3.630  0.4092 -0.4764 -0.3370
 2778TIP3   OH2 8297   5.396   2.836   2.459 -0.3496 -0.0034 -0.0011
 2778TIP3    H1 8298   5.355   2.785   2.389 -1.8357 -1.2261  1.6637
 2778TIP3    H2 8299   5.376   2.927   2.437  1.7655 -0.0619 -2.6611
 2779TIP3   OH2 8300   1.921   0.314   2.011 -0.5030  0.3196 -0.6669
 2779TIP3    H1 8301   1.954   0.247   1.951  0.1624  1.4496 -1.6039
 2779TIP3    H2 8302   1.827   0.321   1.990 -0.5588 -0.2485 -0.6209
 2780TIP3   OH2 8303   1.471   6.259   3.077  0.6242 -0.2023  0.4692
 2780TIP3    H1 8304   1.507   6.217   2.998  1.1571 -0.9573  1.0998
 2780TIP3    H2 8305   1.540   6.318   3.106 -0.2870  1.4826 -0.6543
 2781TIP3   OH2 8306   3.347   2.309   3.267 -0.3349  0.3540  0.2381
 2781TIP3    H1 8307   3.433   2.329   3.229 -0.5079  0.4030 -0.1328
 2781TIP3    H2 8308   3.311   2.241   3.210  0.1322 -0.8369  1.3240
 2782TIP3   OH2 8309   4.566   3.065   0.101 -0.4239  0.5097 -0.4716
 2782TIP3    H1 8310   4.489   3.110   0.067  0.0172  0.4592 -1.5853
 2782TIP3    H2 8311   4.631   3.135   0.111 -0.8757  0.7240  1.3950
 2783TIP3   OH2 8312   7.246   5.121   4.032 -0.1731  0.4064  0.0439
 2783TIP3    H1 8313   7.177   5.161   4.085 -0.0723  0.8975 -0.1917
 2783TIP3    H2 8314   7.219   5.030   4.023  0.0696  0.1764  1.3716
 2784TIP3   OH2 8315   5.230   4.356   2.490  0.0268  0.2572  0.4768
 2784TIP3    H1 8316   5.290   4.283   2.503  0.1281 -0.0580 -1.4143
 2784TIP3    H2 8317   5.284   4.425   2.449 -0.9200 -0.2250 -1.7484
 2785TIP3   OH2 8318   3.368   5.457   0.346  0.2377  0.6482 -0.2201
 2785TIP3    H1 8319   3.414   5.390   0.295  0.0678  0.6845 -0.4216
 2785TIP3    H2 8320   3.412   5.457   0.431 -0.3541 -0.3692  0.0991
 2786TIP3   OH2 8321   6.079   4.090   4.837 -0.1512  0.0978 -0.1198
 2786TIP3    H1 8322   5.989   4.058   4.847 -0.1399  0.2878  0.6083
 2786TIP3    H2 8323   6.070   4.174   4.793 -0.3586  0.3106  0.3277
 2787TIP3   OH2 8324   1.042   3.687   0.758 -0.2196  0.1554 -0.3044
 2787TIP3    H1 8325   0.987   3.638   0.698 -0.6824  0.8064 -0.4219
 2787TIP3    H2 8326   1.132   3.663   0.734 -0.4153 -0.0223 -0.8675
 2788TIP3   OH2 8327   7.235   6.400   4.525 -0.2840  0.0640 -0.0800
 2788TIP3    H1 8328   7.206   6.330   4.583  0.1200  0.1427  0.2253
 2788TIP3    H2 8329   7.170   6.470   4.537  1.5925  1.4970  2.9714
 2789TIP3   OH2 8330   5.948   6.328   0.131  0.0505  0.3245 -0.6952
 2789TIP3    H1 8331   5.993   6.405   0.166 -0.9272  1.4008 -1.7293
 2789TIP3    H2 8332   5.857   6.338   0.157  0.3381 -1.9416  1.5499
 2790TIP3   OH2 8333   0.533   4.893   3.223 -0.0444  0.3377 -0.0868
 2790TIP3    H1 8334   0.468   4.838   3.267 -0.3926  0.2671 -0.6710
 2790TIP3    H2 8335   0.561   4.955   3.289  0.4045 -0.5767  0.6108
 2791TIP3   OH2 8336   1.712   6.650   3.178  0.4996  0.5167  0.2025
 2791TIP3    H1 8337   1.679   6.560   3.181  1.5438  0.0546 -1.3556
 2791TIP3    H2 8338   1.633   6.704   3.166 -0.0879 -0.2185  0.7155
 2792TIP3   OH2 8339   3.856   2.546   4.787  0.2697  0.2500 -0.2746
 2792TIP3    H1 8340   3.882   2.460   4.754 -0.8380 -0.4113  0.5040
 2792TIP3    H2 8341   3.793   2.579   4.724 -1.9345 -1.0632  1.1091
 2793TIP3   OH2 8342   1.706   3.352   5.680 -0.2898 -0.0497  0.1285
 2793TIP3    H1 8343   1.710   3.302   5.762 -2.8841  1.5255  1.3384
 2793TIP3    H2 8344   1.661   3.294   5.619 -0.4160 -0.3797  0.5279
 2794TIP3   OH2 8345   2.157   6.120   1.335  0.2242 -0.2436  0.4179
 2794TIP3    H1 8346   2.126   6.054   1.273  1.8504 -1.4667  0.8335
 2794TIP3    H2 8347   2.184   6.070   1.412 -0.2954  1.1068  1.5298
 2795TIP3   OH2 8348   3.119   4.980   5.786 -0.1531  0.1024  0.2730
 2795TIP3    H1 8349   3.211   4.985   5.812 -0.0783 -0.3327  0.1020
 2795TIP3    H2 8350   3.109   4.891   5.752 -0.6164  0.1780  0.2109
 2796TIP3   OH2 8351   0.519   1.878   2.175  0.2172  0.2232  0.3649
 2796TIP3    H1 8352   0.586   1.857   2.240  0.6746  1.0777  0.1784
 2796TIP3    H2 8353   0.543   1.825   2.099  0.2576 -0.0327  0.5558
 2797TIP3   OH2 8354   4.470   6.214   2.949 -0.2550  0.1018  0.3494
 2797TIP3    H1 8355   4.553   6.167   2.954 -0.3753 -0.2427 -0.6329
 2797TIP3    H2 8356   4.471   6.255   2.862 -1.8653 -1.4069 -0.4432
 2798TIP3   OH2 8357   1.927   1.044   5.335 -0.1844 -0.5184  0.6043
 2798TIP3    H1 8358   1.941   1.138   5.342  0.8260 -0.5726 -0.3516
 2798TIP3    H2 8359   1.858   1.034   5.269  0.7520 -0.4659 -0.4213
 2799TIP3   OH2 8360   4.239   3.297   5.240 -0.8607 -0.2056 -0.0751
 2799TIP3    H1 8361   4.258   3.220   5.187  0.1366 -1.5454  2.1031
 2799TIP3    H2 8362   4.166   3.271   5.296  0.7336 -0.3912  2.0873
 2800TIP3   OH2 8363   2.469   4.745   0.877  0.1891 -0.4694  0.0067
 2800TIP3    H1 8364   2.397   4.684   0.892 -0.0225 -0.1833  0.1676
 2800TIP3    H2 8365   2.427   4.829   0.860  0.4707 -0.4380 -0.5468
 2801TIP3   OH2 8366   4.199   0.057   3.946 -0.0978  0.4471 -0.2524
 2801TIP3    H1 8367   4.153  -0.017   3.987  1.5897 -0.3006  0.3665
 2801TIP3    H2 8368   4.181   0.048   3.853  1.0903 -1.5210 -0.3349
 2802TIP3   OH2 8369   2.924   3.576   5.612  0.1205  0.4962 -0.2497
 2802TIP3    H1 8370   2.991   3.536   5.556  1.1973 -0.8724  1.8984
 2802TIP3    H2 8371   2.906   3.510   5.679 -2.8213  1.1512 -0.2457
 2803TIP3   OH2 8372   5.953   4.508   4.795  0.4271 -0.6624 -0.0323
 2803TIP3    H1 8373   5.871   4.516   4.746  1.5049  0.3549 -1.7893
 2803TIP3    H2 8374   6.003   4.442   4.748  0.8289 -0.9204  0.7348
 2804TIP3   OH2 8375   2.580   3.332   2.656 -0.1028 -0.1419 -0.5110
 2804TIP3    H1 8376   2.644   3.293   2.715  0.1314 -1.1335 -1.3782
 2804TIP3    H2 8377   2.623   3.411   2.622 -0.5095  0.8183  1.1195
 2805TIP3   OH2 8378   1.658   1.068   5.749 -0.4309  0.3761 -0.2839
 2805TIP3    H1 8379   1.647   1.017   5.669  2.7516 -0.5566 -0.2520
 2805TIP3    H2 8380   1.736   1.031   5.791  1.0958  4.1502  0.6037
 2806TIP3   OH2 8381   4.693   1.941   3.042 -0.4874 -0.1193 -0.1294
 2806TIP3    H1 8382   4.635   1.865   3.050 -1.6517  0.5416 -1.9019
 2806TIP3    H2 8383   4.658   2.004   3.105 -0.5269 -0.4030  0.1404
 2807TIP3   OH2 8384   2.752   6.430   2.717  0.3826 -0.5843 -0.5667
 2807TIP3    H1 8385   2.722   6.344   2.686 -0.1763 -0.4747 -0.3451
 2807TIP3    H2 8386   2.847   6.421   2.724  0.1977 -1.7390  1.0949
 2808TIP3   OH2 8387   4.616   0.718   5.246 -0.4530 -0.0882  0.0790
 2808TIP3    H1 8388   4.703   0.758   5.244 -0.9690  1.1092  0.6635
 2808TIP3    H2 8389   4.568   0.769   5.312 -1.7857 -0.3394 -0.6728
 2809TIP3   OH2 8390   6.924   4.797   0.763 -0.1502 -0.3071  0.5217
 2809TIP3    H1 8391   6.916   4.810   0.857 -0.5236  0.2039  0.4224
 2809TIP3    H2 8392   6.861   4.857   0.724  1.1209  0.6764 -0.1204
 2810TIP3   OH2 8393   2.556   6.308   4.627  0.0890  0.5913 -0.1522
 2810TIP3    H1 8394   2.533   6.321   4.718 -2.8095  0.6228 -0.8127
 2810TIP3    H2 8395   2.543   6.394   4.586  0.2027  0.2982 -0.8298
 2811TIP3   OH2 8396   0.121   4.350   3.452 -0.2080 -0.4055 -0.3353
 2811TIP3    H1 8397   0.056   4.300   3.501  0.4654 -0.2372  0.7537
 2811TIP3    H2 8398   0.205   4.322   3.487  0.2042  1.2596  0.0884
 2812TIP3   OH2 8399   2.903   0.053   0.748  0.4074 -0.2969  0.4106
 2812TIP3    H1 8400   2.866   0.130   0.790  2.0331  0.9463 -0.3163
 2812TIP3    H2 8401   2.981   0.033   0.799 -0.1099 -1.6191  0.7145
 2813TIP3   OH2 8402   3.709   4.529   3.350 -0.2376 -0.2270  0.6214
 2813TIP3    H1 8403   3.694   4.443   3.312  2.0195  0.4044 -1.9869
 2813TIP3    H2 8404   3.635   4.582   3.320  0.4450 -0.2722 -1.2139
 2814TIP3   OH2 8405   2.246   3.322   1.865  0.0610 -0.1158  0.4198
 2814TIP3    H1 8406   2.230   3.297   1.956  1.3585  0.2918  0.7734
 2814TIP3    H2 8407   2.193   3.401   1.852 -0.9522 -0.7710  0.4897
 2815TIP3   OH2 8408   0.516   0.270   1.793 -0.1412 -0.0258  0.2527
 2815TIP3    H1 8409   0.510   0.175   1.782 -2.3034  0.2583 -1.9458
 2815TIP3    H2 8410   0.551   0.282   1.881 -2.1346 -2.9049  1.5996
 2816TIP3   OH2 8411   5.345   6.015   2.500 -0.5502 -0.1069  0.1487
 2816TIP3    H1 8412   5.264   5.962   2.501 -0.4431 -0.4072 -2.0502
 2816TIP3    H2 8413   5.413   5.953   2.474  0.0002  0.6295 -0.1646
 2817TIP3   OH2 8414   5.814   5.662   0.830 -0.1773  0.5576 -0.0061
 2817TIP3    H1 8415   5.727   5.645   0.793  0.0872 -2.0096  0.3997
 2817TIP3    H2 8416   5.874   5.657   0.755 -0.2729  1.5461 -0.1605
 2818TIP3   OH2 8417   5.957   2.076   0.055  0.2406 -0.2721 -0.3742
 2818TIP3    H1 8418   6.030   2.038   0.104  0.1257  1.3575  1.1670
 2818TIP3    H2 8419   5.902   2.116   0.123 -1.0115  0.3088 -1.6858
 2819TIP3   OH2 8420   2.782   5.206   2.992  0.1042 -0.5366 -0.2113
 2819TIP3    H1 8421   2.714   5.158   3.039  0.4881  0.5307  1.5461
 2819TIP3    H2 8422   2.736   5.280   2.953  0.4611  1.6444  3.0832
 2820TIP3   OH2 8423   3.134   0.587   3.731 -0.0672  0.0475  0.0162
 2820TIP3    H1 8424   3.146   0.494   3.749  0.5912 -0.1939 -1.5042
 2820TIP3    H2 8425   3.214   0.629   3.763  0.0598 -0.0529 -0.1654
 2821TIP3   OH2 8426   2.010   0.452   1.369  0.4099  0.2945  0.2792
 2821TIP3    H1 8427   1.945   0.419   1.307  1.2211 -0.9144  0.0322
 2821TIP3    H2 8428   2.054   0.523   1.323 -1.4092  1.8769  0.8400
 2822TIP3   OH2 8429   3.611   6.602   5.144 -0.3108  0.1240 -0.3237
 2822TIP3    H1 8430   3.687   6.544   5.143 -0.5894 -0.3397  1.4354
 2822TIP3    H2 8431   3.646   6.687   5.172 -0.2903  0.1435 -0.4097
 2823TIP3   OH2 8432   0.211   4.670   2.330 -0.3675  0.1705  0.9115
 2823TIP3    H1 8433   0.203   4.584   2.370  0.2617 -1.5770 -2.3975
 2823TIP3    H2 8434   0.138   4.677   2.269  0.9888  0.7942 -0.7577
 2824TIP3   OH2 8435   6.348   6.018   0.465 -0.0628 -0.2719 -0.2162
 2824TIP3    H1 8436   6.333   6.071   0.542  1.9495  0.6559 -0.3909
 2824TIP3    H2 8437   6.262   5.987   0.439 -0.9089  0.3843  1.6899
 2825TIP3   OH2 8438   2.996   1.489   2.396  0.2134  0.0356 -0.4592
 2825TIP3    H1 8439   2.950   1.416   2.438  1.4873 -1.0768 -0.9416
 2825TIP3    H2 8440   3.003   1.555   2.464 -0.7236 -0.3805  0.0698
 2826TIP3   OH2 8441   6.100   2.205   0.371  0.3676 -0.1213  0.1237
 2826TIP3    H1 8442   6.100   2.251   0.287  0.6381 -2.1153 -1.0419
 2826TIP3    H2 8443   6.052   2.124   0.353 -0.1265 -0.3003  2.0857
 2827TIP3   OH2 8444   4.487   0.622   3.636 -0.1551 -0.1265 -0.0094
 2827TIP3    H1 8445   4.490   0.715   3.656  2.8752 -0.0844 -0.1828
 2827TIP3    H2 8446   4.456   0.580   3.716 -1.4477  0.9794  0.0980
 2828TIP3   OH2 8447   6.787   2.060   3.654  0.5029 -0.1817  0.3080
 2828TIP3    H1 8448   6.879   2.088   3.664  1.2436 -1.6483 -1.6956
 2828TIP3    H2 8449   6.739   2.142   3.642  1.8587  0.5434 -0.4865
 2829TIP3   OH2 8450   6.616   4.463   5.012 -0.5890  0.6995  0.1121
 2829TIP3    H1 8451   6.651   4.436   4.928  0.8241  1.6633  0.3436
 2829TIP3    H2 8452   6.524   4.483   4.995 -0.1554  1.5903 -1.3869
 2830TIP3   OH2 8453   2.687   2.490   0.951 -0.4260 -0.1223 -0.1542
 2830TIP3    H1 8454   2.704   2.558   1.016 -1.0569 -0.6682  0.6024
 2830TIP3    H2 8455   2.757   2.426   0.965 -0.0513  0.1851 -0.6112
 2831TIP3   OH2 8456   4.700   4.515   2.571  0.2344  0.1067 -0.1225
 2831TIP3    H1 8457   4.690   4.575   2.498 -0.8760  0.0231 -0.0510
 2831TIP3    H2 8458   4.631   4.450   2.558  1.2291 -1.0005 -0.0420
 2832TIP3   OH2 8459   5.890   6.774   1.389  0.6639 -0.8394 -0.1206
 2832TIP3    H1 8460   5.927   6.839   1.328  1.4381 -0.9917  0.1669
 2832TIP3    H2 8461   5.930   6.796   1.473 -1.1601 -0.0126  0.5758
 2833TIP3   OH2 8462   5.390   3.528   3.814  0.0853  0.1753  0.2193
 2833TIP3    H1 8463   5.425   3.459   3.758 -1.8887  0.7256 -1.8016
 2833TIP3    H2 8464   5.449   3.602   3.802  0.9327 -0.4119  0.6569
 2834TIP3   OH2 8465   5.863   6.076   4.331  0.1964 -0.5119 -0.1951
 2834TIP3    H1 8466   5.794   6.080   4.397 -0.0545  1.0745 -0.5272
 2834TIP3    H2 8467   5.942   6.053   4.381  0.0253  0.7465  0.6974
 2835TIP3   OH2 8468   0.818   3.513   0.091 -0.1279  0.4628  0.4626
 2835TIP3    H1 8469   0.898   3.522   0.142 -0.5864 -0.0707  1.3072
 2835TIP3    H2 8470   0.753   3.482   0.155 -1.4506  2.5472  0.2157
 2836TIP3   OH2 8471   0.281   3.856   1.450 -0.0305  0.1414 -0.1549
 2836TIP3    H1 8472   0.340   3.845   1.376 -1.4006 -2.7914 -0.9437
 2836TIP3    H2 8473   0.201   3.894   1.412 -0.8323 -1.6113 -0.3186
 2837TIP3   OH2 8474   0.416   2.316   1.957  0.6656 -0.5074 -0.6036
 2837TIP3    H1 8475   0.390   2.381   1.891  0.7809  1.7626  1.4327
 2837TIP3    H2 8476   0.468   2.252   1.909 -1.7137 -0.6496 -3.2482
 2838TIP3   OH2 8477   6.110   4.416   1.895 -0.3815  0.0582 -0.7166
 2838TIP3    H1 8478   6.098   4.366   1.976 -0.6444  1.2275 -0.0084
 2838TIP3    H2 8479   6.201   4.444   1.897  0.1246 -1.4013 -1.7339
 2839TIP3   OH2 8480   0.102   3.630   4.010  0.0567  0.1331 -0.0977
 2839TIP3    H1 8481   0.181   3.587   3.978 -0.9254 -0.2663 -2.1499
 2839TIP3    H2 8482   0.094   3.709   3.957 -1.7039 -0.6161 -1.0633
 2840TIP3   OH2 8483   4.924   4.221   0.686 -0.7305  0.2386 -0.1539
 2840TIP3    H1 8484   4.840   4.263   0.666 -0.4166  0.4115 -1.1882
 2840TIP3    H2 8485   4.957   4.192   0.600  0.1047 -0.1357  0.2830
 2841TIP3   OH2 8486   6.026   5.222   1.857  0.0101  0.1787  0.0014
 2841TIP3    H1 8487   5.974   5.303   1.863 -0.8947 -0.4605  1.1586
 2841TIP3    H2 8488   6.032   5.190   1.947 -0.7014 -1.7038 -0.5759
 2842TIP3   OH2 8489   4.009   2.576   0.799 -0.1036 -0.0610  0.3536
 2842TIP3    H1 8490   4.005   2.651   0.739 -1.5654 -0.5641 -0.2178
 2842TIP3    H2 8491   4.078   2.600   0.861  1.7684  0.2959 -1.7296
 2843TIP3   OH2 8492   2.119   3.632   3.304  0.4566  0.3129  0.9637
 2843TIP3    H1 8493   2.121   3.591   3.390 -1.0684  0.6770  1.2128
 2843TIP3    H2 8494   2.163   3.716   3.316 -1.9290  1.5013  2.0984
 2844TIP3   OH2 8495   0.850   5.003   4.693 -0.0153  0.8254 -0.3451
 2844TIP3    H1 8496   0.917   5.069   4.673  1.2293 -0.9469 -2.3579
 2844TIP3    H2 8497   0.779   5.022   4.632 -0.7203  1.6916  0.6904
 2845TIP3   OH2 8498   3.883   2.045   4.902  0.4399  0.3540 -0.2168
 2845TIP3    H1 8499   3.839   2.019   4.820  0.1713 -0.6033  0.2100
 2845TIP3    H2 8500   3.953   2.103   4.874 -0.2585  0.8269 -1.0409
 2846TIP3   OH2 8501   1.636   1.095   3.007  0.3758  0.4223 -0.5059
 2846TIP3    H1 8502   1.605   1.100   3.097 -0.0598  0.8546 -0.6758
 2846TIP3    H2 8503   1.610   1.008   2.976  0.5660  0.2568 -0.2020
 2847TIP3   OH2 8504   1.254   1.058   2.936 -0.5206 -0.0882  0.3455
 2847TIP3    H1 8505   1.285   0.968   2.931  0.9555  0.3091  1.8252
 2847TIP3    H2 8506   1.263   1.091   2.846  0.9639 -0.7636  0.2254
 2848TIP3   OH2 8507   0.218   3.138   1.914  0.2930  0.2249  0.0540
 2848TIP3    H1 8508   0.312   3.121   1.925 -0.2192 -2.6175  0.9291
 2848TIP3    H2 8509   0.190   3.075   1.847 -1.3274 -0.5711  1.3825
 2849TIP3   OH2 8510   6.415   3.429   1.448  0.1178 -0.6084  0.0154
 2849TIP3    H1 8511   6.432   3.335   1.448 -2.2153 -1.0923  0.7335
 2849TIP3    H2 8512   6.329   3.438   1.406 -1.2406  0.8193  2.8592
 2850TIP3   OH2 8513   7.160   3.406   4.365 -0.3808 -0.0290 -0.7069
 2850TIP3    H1 8514   7.191   3.495   4.348 -0.3735 -0.1451 -1.3415
 2850TIP3    H2 8515   7.208   3.352   4.302  0.5175 -0.6551  0.4704
 2851TIP3   OH2 8516   0.453   2.964   5.741  0.0212 -0.1304 -0.5827
 2851TIP3    H1 8517   0.539   2.957   5.783 -0.1885  1.0576  0.0862
 2851TIP3    H2 8518   0.449   2.887   5.683  1.1058 -0.7623  0.1264
 2852TIP3   OH2 8519   3.246   2.466   2.328 -0.0748 -0.2336  0.3082
 2852TIP3    H1 8520   3.240   2.545   2.274  1.0063  0.1337  0.7036
 2852TIP3    H2 8521   3.337   2.436   2.317 -0.6491 -1.8370 -0.3987
 2853TIP3   OH2 8522   4.180   3.456   1.103 -0.5147  0.1348 -0.3351
 2853TIP3    H1 8523   4.223   3.509   1.170  3.1821 -0.9689 -1.5650
 2853TIP3    H2 8524   4.172   3.515   1.028  0.2586 -0.0205 -0.5520
 2854TIP3   OH2 8525   6.273   3.532   5.403 -0.2788 -0.5360 -0.4285
 2854TIP3    H1 8526   6.345   3.569   5.454  0.1973 -1.9180 -0.0479
 2854TIP3    H2 8527   6.280   3.574   5.318  0.1428  0.3455  0.0309
 2855TIP3   OH2 8528   5.090   1.148   4.201 -0.2639  0.1198  0.1067
 2855TIP3    H1 8529   5.179   1.116   4.185 -0.4718 -0.5605  0.2842
 2855TIP3    H2 8530   5.086   1.232   4.154 -0.1178 -0.7155 -1.4833
 2856TIP3   OH2 8531   3.264   6.323   4.438 -0.0696  0.2943  0.0930
 2856TIP3    H1 8532   3.236   6.280   4.357  1.9894  1.8822 -1.6018
 2856TIP3    H2 8533   3.210   6.401   4.444 -1.4156 -0.6989  1.2496
 2857TIP3   OH2 8534   4.531   0.615   1.641 -0.1325  0.0050  0.3080
 2857TIP3    H1 8535   4.590   0.677   1.686 -1.1038  1.2631 -0.0765
 2857TIP3    H2 8536   4.508   0.552   1.709  0.8277  0.0952  0.7451
 2858TIP3   OH2 8537   3.009   6.614   3.386  0.4683 -0.2563  0.1442
 2858TIP3    H1 8538   3.048   6.672   3.320 -0.8762  0.7709  0.2077
 2858TIP3    H2 8539   3.084   6.574   3.430  1.4776  1.6499  0.2718
 2859TIP3   OH2 8540   4.853   3.939   1.617 -0.0701  0.1866 -0.3764
 2859TIP3    H1 8541   4.786   3.915   1.553 -0.5744  1.2119 -0.2529
 2859TIP3    H2 8542   4.804   3.959   1.697  0.2499  1.9934 -0.5900
 2860TIP3   OH2 8543   2.597   4.435   0.937  0.0519  0.6144  0.0941
 2860TIP3    H1 8544   2.552   4.414   0.855  0.2476  0.7783 -0.0566
 2860TIP3    H2 8545   2.639   4.352   0.963 -0.7834  0.3177  0.5229
 2861TIP3   OH2 8546   2.445   4.327   4.652  0.1783  0.4627 -0.0491
 2861TIP3    H1 8547   2.519   4.266   4.648  1.4701  1.7565  2.0113
 2861TIP3    H2 8548   2.385   4.288   4.715 -0.9727 -0.5756 -1.7036
 2862TIP3   OH2 8549   0.893   4.467   2.145  0.2308 -0.2956 -0.1971
 2862TIP3    H1 8550   0.943   4.519   2.209 -0.1953  1.4501 -1.2123
 2862TIP3    H2 8551   0.958   4.409   2.106  1.1294  0.6873 -0.2278
 2863TIP3   OH2 8552   3.591   3.878   1.727 -0.0973  0.4769 -0.1894
 2863TIP3    H1 8553   3.601   3.785   1.707  0.5734  0.2982  0.9119
 2863TIP3    H2 8554   3.681   3.910   1.736 -0.3103  1.3297 -0.9415
 2864TIP3   OH2 8555   3.078   0.307   5.645 -0.5061  0.5034  0.0714
 2864TIP3    H1 8556   3.066   0.229   5.591 -1.0157 -0.3027  1.3213
 2864TIP3    H2 8557   3.057   0.380   5.587 -0.8239 -0.3273 -0.8762
 2865TIP3   OH2 8558   4.877   6.771   5.677  0.1200 -0.4613  0.1934
 2865TIP3    H1 8559   4.924   6.846   5.713  0.4708 -0.2482 -0.6925
 2865TIP3    H2 8560   4.868   6.790   5.584 -2.3949 -0.1353  0.4229
 2866TIP3   OH2 8561   4.540   2.440   1.515 -0.7450  0.4446  0.1744
 2866TIP3    H1 8562   4.584   2.469   1.435 -0.5581 -1.1235 -0.3312
 2866TIP3    H2 8563   4.611   2.432   1.579 -0.4844 -0.6828 -0.2296
 2867TIP3   OH2 8564   3.979   5.760   5.515  0.0734  0.0401 -0.5738
 2867TIP3    H1 8565   4.034   5.688   5.546  0.0947  0.5524  0.6450
 2867TIP3    H2 8566   4.017   5.784   5.430  1.5111  0.1317  0.0638
 2868TIP3   OH2 8567   5.733   4.442   1.238 -0.2127 -0.2157 -0.1843
 2868TIP3    H1 8568   5.797   4.371   1.232  0.3996  0.3617 -0.5922
 2868TIP3    H2 8569   5.751   4.483   1.323  0.4977  0.4421 -0.6417
 2869TIP3   OH2 8570   4.536   6.757   2.076 -0.0720  0.1332  0.0230
 2869TIP3    H1 8571   4.596   6.808   2.131  1.2067 -0.4046 -0.8218
 2869TIP3    H2 8572   4.449   6.789   2.099  0.5070  0.7094  1.5269
 2870TIP3   OH2 8573   2.237   5.930   1.119 -0.1446  0.3146 -0.1136
 2870TIP3    H1 8574   2.225   5.837   1.142 -1.2527  0.3147 -0.6319
 2870TIP3    H2 8575   2.332   5.941   1.113  0.1142 -0.2665  2.0171
 2871TIP3   OH2 8576   2.210   3.801   1.469 -0.0020 -0.0424  0.4141
 2871TIP3    H1 8577   2.260   3.862   1.415 -1.3024 -0.1256 -0.9588
 2871TIP3    H2 8578   2.118   3.820   1.448 -0.5173 -0.7107  1.9265
 2872TIP3   OH2 8579   6.163   3.080   5.427 -0.4892 -0.3785  0.2660
 2872TIP3    H1 8580   6.222   3.039   5.490 -2.5668 -0.5823  2.2056
 2872TIP3    H2 8581   6.105   3.009   5.399  0.6855 -0.4256 -2.4105
 2873TIP3   OH2 8582   0.872   5.400   2.889  0.1133 -0.2916 -0.5408
 2873TIP3    H1 8583   0.842   5.322   2.936  0.7036 -0.4400 -0.3994
 2873TIP3    H2 8584   0.815   5.470   2.920 -0.0131 -0.5453 -0.1942
 2874TIP3   OH2 8585   2.555   6.161   4.104  0.2454  0.2178  0.2350
 2874TIP3    H1 8586   2.521   6.101   4.170  0.4226  0.1936  0.3067
 2874TIP3    H2 8587   2.577   6.105   4.029  1.6220  0.0034  0.7733
 2875TIP3   OH2 8588   0.658   3.409   2.050 -0.5001  0.2203  0.5777
 2875TIP3    H1 8589   0.563   3.404   2.053 -0.4715 -0.0269  1.0964
 2875TIP3    H2 8590   0.683   3.347   1.981 -0.6892 -0.0247  0.7299
 2876TIP3   OH2 8591   4.912   2.039   1.546  0.6663 -0.1665  0.0648
 2876TIP3    H1 8592   4.885   1.949   1.528 -0.4790  0.4054 -1.2551
 2876TIP3    H2 8593   4.858   2.093   1.487  3.3520  1.2097 -1.3320
 2877TIP3   OH2 8594   3.427   3.459   3.506 -0.2244 -0.1448 -0.1527
 2877TIP3    H1 8595   3.343   3.413   3.496  0.3394 -1.2925  0.2354
 2877TIP3    H2 8596   3.486   3.416   3.444  0.4025 -0.1362  0.4317
 2878TIP3   OH2 8597   2.143   6.417   4.562  0.2072 -0.3713  0.4736
 2878TIP3    H1 8598   2.209   6.482   4.586 -1.1578  0.9103  0.9149
 2878TIP3    H2 8599   2.170   6.337   4.607  1.1278  0.2900  1.1270
 2879TIP3   OH2 8600   0.553   5.790   2.184 -0.0941  0.4481  0.0011
 2879TIP3    H1 8601   0.530   5.800   2.092 -1.2976  0.4080  0.2778
 2879TIP3    H2 8602   0.648   5.791   2.186 -0.0401 -0.5127 -1.3434
 2880TIP3   OH2 8603   2.220   2.988   2.758 -0.0926  0.4713 -0.3723
 2880TIP3    H1 8604   2.290   3.039   2.717 -1.6339  1.5246 -1.8394
 2880TIP3    H2 8605   2.189   2.930   2.689 -1.7158  1.1708 -0.2597
 2881TIP3   OH2 8606   2.038   0.511   3.127 -0.6936 -0.1573 -0.0616
 2881TIP3    H1 8607   1.950   0.472   3.120 -0.9677  0.4334  0.0010
 2881TIP3    H2 8608   2.097   0.436   3.137 -0.9587 -0.7085 -2.0831
 2882TIP3   OH2 8609   5.971   2.118   4.179 -0.6104 -0.0604 -0.2960
 2882TIP3    H1 8610   5.913   2.192   4.161  0.8449  0.8361 -1.5448
 2882TIP3    H2 8611   6.026   2.147   4.251  2.9873  2.0554 -3.5142
 2883TIP3   OH2 8612   2.625   1.443   1.605  0.0189 -0.4402  0.0347
 2883TIP3    H1 8613   2.643   1.505   1.675  0.4328 -0.4050 -0.1001
 2883TIP3    H2 8614   2.582   1.495   1.537  1.1222 -0.0985 -0.4349
 2884TIP3   OH2 8615   6.319   0.530   0.563  0.6254 -0.4213  0.2166
 2884TIP3    H1 8616   6.229   0.499   0.551  0.7079 -0.2464 -0.9910
 2884TIP3    H2 8617   6.310   0.625   0.574  0.6793 -0.3782 -0.1133
 2885TIP3   OH2 8618   4.289   1.567   3.784  0.0330  0.8684 -0.3700
 2885TIP3    H1 8619   4.331   1.558   3.699  2.6266  2.4530  0.6230
 2885TIP3    H2 8620   4.298   1.659   3.806  0.3446  0.3317  2.0488
 2886TIP3   OH2 8621   7.088   2.571   1.338  0.2306  0.5873 -0.1448
 2886TIP3    H1 8622   7.002   2.549   1.373  0.6975 -0.4134  0.4137
 2886TIP3    H2 8623   7.086   2.540   1.248 -0.1469  0.9794 -0.2735
 2887TIP3   OH2 8624   6.938   2.711   4.292  0.5288 -0.1951 -0.8113
 2887TIP3    H1 8625   6.844   2.724   4.308  0.6051  0.5800 -0.9368
 2887TIP3    H2 8626   6.945   2.701   4.197  0.1920 -3.8033 -0.5860
 2888TIP3   OH2 8627   1.863   6.414   2.099 -0.2557  0.3022  0.7392
 2888TIP3    H1 8628   1.949   6.445   2.126  0.0600 -0.4791  0.6333
 2888TIP3    H2 8629   1.825   6.377   2.179 -0.2822  0.1597  0.6598
 2889TIP3   OH2 8630   3.739   4.508   0.938  0.2406 -0.2019  0.3472
 2889TIP3    H1 8631   3.795   4.580   0.908 -0.3611 -0.2313 -0.9370
 2889TIP3    H2 8632   3.799   4.444   0.975  0.9296  0.3151  0.1374
 2890TIP3   OH2 8633   3.547   6.618   3.228  0.5574  0.0602 -0.0643
 2890TIP3    H1 8634   3.632   6.629   3.270 -0.0032  1.1448  0.8148
 2890TIP3    H2 8635   3.561   6.646   3.137  1.1536  0.1325  0.0479
 2891TIP3   OH2 8636   7.171   4.404   5.030  0.8045 -0.5464 -0.7651
 2891TIP3    H1 8637   7.101   4.465   5.006  0.1641 -1.0567 -0.2412
 2891TIP3    H2 8638   7.209   4.441   5.110  1.2848 -0.1590 -1.1644
 2892TIP3   OH2 8639   4.347   1.492   1.655  0.0287 -0.2577 -0.1396
 2892TIP3    H1 8640   4.389   1.535   1.729  1.9110  1.8482 -2.2699
 2892TIP3    H2 8641   4.273   1.549   1.632  0.1581 -0.2571 -0.5755
 2893TIP3   OH2 8642   1.452   4.159   5.181 -0.3074  0.3239  0.4710
 2893TIP3    H1 8643   1.410   4.241   5.207 -1.0189  0.4896 -1.0863
 2893TIP3    H2 8644   1.545   4.180   5.179 -0.4044  0.8400  0.9228
 2894TIP3   OH2 8645   3.894   1.754   3.894 -0.0229  0.7608  0.0654
 2894TIP3    H1 8646   3.912   1.824   3.831  0.6707  0.1441 -0.4340
 2894TIP3    H2 8647   3.861   1.681   3.841 -3.1879  1.4720  0.8114
 2895TIP3   OH2 8648   5.772   0.321   5.846 -0.0773  0.2140  0.3296
 2895TIP3    H1 8649   5.700   0.279   5.893  0.4485 -0.7338  0.3234
 2895TIP3    H2 8650   5.741   0.327   5.756 -0.8728  1.5367  0.6683
 2896TIP3   OH2 8651   5.595   3.103   4.098 -0.2350  0.1104  0.1650
 2896TIP3    H1 8652   5.540   3.168   4.142  1.0085  0.2809  1.5495
 2896TIP3    H2 8653   5.564   3.019   4.131  0.5530  0.2276  1.2770
 2897TIP3   OH2 8654   2.040   5.646   3.750 -0.2307 -0.5645 -0.1844
 2897TIP3    H1 8655   2.098   5.627   3.823  0.4889  2.0106  0.0115
 2897TIP3    H2 8656   1.952   5.649   3.789  0.0697  0.0963  0.4792
 2898TIP3   OH2 8657   0.948   4.576   3.496  0.6272 -0.0194 -0.0457
 2898TIP3    H1 8658   0.902   4.659   3.488  0.0906 -0.2191  0.8124
 2898TIP3    H2 8659   1.039   4.600   3.513  0.6687  0.3810 -0.8089
 2899TIP3   OH2 8660   6.016   6.125   4.737 -0.0256 -0.3451  0.3406
 2899TIP3    H1 8661   6.012   6.052   4.799  0.0143 -0.2484  0.4582
 2899TIP3    H2 8662   6.059   6.196   4.786 -1.3404  0.2352  0.7140
 2900TIP3   OH2 8663   5.384   4.648   4.037 -0.1030 -0.5143 -0.4767
 2900TIP3    H1 8664   5.400   4.687   4.124  0.0878  0.3199 -0.8707
 2900TIP3    H2 8665   5.289   4.636   4.033 -0.1381 -0.3270 -0.2444
 2901TIP3   OH2 8666   1.510   5.608   2.874  0.2923  1.0397  0.1812
 2901TIP3    H1 8667   1.534   5.638   2.786 -0.6926 -0.1366 -0.5251
 2901TIP3    H2 8668   1.512   5.687   2.928  0.2795  1.9023 -1.0342
 2902TIP3   OH2 8669   5.908   0.466   4.265 -0.1049 -0.5892 -0.7572
 2902TIP3    H1 8670   5.888   0.559   4.260  0.6924 -0.1934  1.8645
 2902TIP3    H2 8671   5.854   0.433   4.337  2.4255 -1.2136  1.0229
 2903TIP3   OH2 8672   2.568   0.500   5.424 -0.5922 -0.3793 -0.6551
 2903TIP3    H1 8673   2.498   0.518   5.487 -0.7560 -2.5241 -0.1285
 2903TIP3    H2 8674   2.532   0.433   5.367  0.0735  0.5123 -2.1837
 2904TIP3   OH2 8675   1.140   0.572   0.044 -0.1191  0.1443 -0.6696
 2904TIP3    H1 8676   1.150   0.562   0.138 -0.3945  1.7517 -0.4490
 2904TIP3    H2 8677   1.228   0.564   0.009 -0.0136 -0.4370 -0.2829
 2905TIP3   OH2 8678   6.303   1.631   3.712 -0.5922 -0.3365 -0.0820
 2905TIP3    H1 8679   6.344   1.686   3.779 -0.2259 -1.6348  0.7783
 2905TIP3    H2 8680   6.224   1.598   3.754 -0.9607 -0.2454 -0.7020
 2906TIP3   OH2 8681   1.862   2.133   5.237 -0.1554  0.0610  0.0988
 2906TIP3    H1 8682   1.931   2.191   5.269 -1.9306  1.0550  2.3743
 2906TIP3    H2 8683   1.789   2.146   5.297 -2.5671 -0.5675 -2.4538
 2907TIP3   OH2 8684   3.247   1.706   5.703 -0.3392 -0.4131 -0.0689
 2907TIP3    H1 8685   3.250   1.784   5.757 -1.9631  0.7048 -1.4909
 2907TIP3    H2 8686   3.318   1.718   5.639 -0.0271 -0.5452  0.2465
 2908TIP3   OH2 8687   4.523   1.661   5.287  0.3232 -0.8810 -0.0911
 2908TIP3    H1 8688   4.517   1.741   5.341  1.9368 -0.6246 -0.2303
 2908TIP3    H2 8689   4.597   1.678   5.228  0.5054 -2.3657 -0.3244
 2909TIP3   OH2 8690   5.701   1.741   4.356 -0.4278  0.1629  0.6156
 2909TIP3    H1 8691   5.727   1.808   4.419 -2.9670  1.7897  0.0926
 2909TIP3    H2 8692   5.728   1.775   4.271 -1.2657  0.3091  0.3974
 2910TIP3   OH2 8693   0.754   4.320   3.856  0.2902  0.2238  0.1173
 2910TIP3    H1 8694   0.834   4.283   3.818  0.2465  0.4542 -0.2018
 2910TIP3    H2 8695   0.687   4.307   3.789  0.5029  1.8134 -0.4608
 2911TIP3   OH2 8696   1.723   6.701   5.543  0.2873  0.3932  0.0216
 2911TIP3    H1 8697   1.778   6.775   5.518 -0.5575  0.9624 -0.2257
 2911TIP3    H2 8698   1.742   6.687   5.636  1.3778  0.0989 -0.2432
 2912TIP3   OH2 8699   0.413   1.534   4.808  0.0230  0.2499 -0.1452
 2912TIP3    H1 8700   0.332   1.578   4.781 -0.9443 -0.8154  0.9080
 2912TIP3    H2 8701   0.435   1.477   4.734  0.1318  0.9564 -0.6652
 2913TIP3   OH2 8702   2.908   3.474   4.536 -0.0548 -0.1347  0.6283
 2913TIP3    H1 8703   2.831   3.462   4.481 -0.2318 -0.6035  0.9695
 2913TIP3    H2 8704   2.967   3.403   4.511 -0.1911 -0.4307  1.1239
 2914TIP3   OH2 8705   1.163   3.848   4.225 -0.2888  0.3323  0.1785
 2914TIP3    H1 8706   1.173   3.942   4.216  0.9081  0.6553  3.3693
 2914TIP3    H2 8707   1.072   3.836   4.252 -0.2806  0.6653  0.3633
 2915TIP3   OH2 8708   0.633   3.741   2.216  0.4158 -0.2056 -0.4031
 2915TIP3    H1 8709   0.636   3.656   2.261 -0.4515 -0.6054 -1.0774
 2915TIP3    H2 8710   0.661   3.722   2.127  2.2460  0.6135 -0.0360
 2916TIP3   OH2 8711   2.594   2.241   3.611 -0.0478  0.2062  0.0599
 2916TIP3    H1 8712   2.637   2.234   3.526 -1.0409  0.2778 -0.4638
 2916TIP3    H2 8713   2.501   2.234   3.592 -0.2747 -0.1864  1.1883
 2917TIP3   OH2 8714   1.517   5.348   2.179 -0.1514 -0.0688  0.2664
 2917TIP3    H1 8715   1.431   5.376   2.146 -0.2895 -0.4439  0.3065
 2917TIP3    H2 8716   1.504   5.338   2.274 -0.0014  0.1028  0.3057
 2918TIP3   OH2 8717   0.947   3.300   1.514 -0.5578  0.0552  0.1799
 2918TIP3    H1 8718   0.971   3.390   1.536 -1.0295  0.3940 -0.6376
 2918TIP3    H2 8719   0.892   3.308   1.436 -1.4569 -0.8678  0.6934
 2919TIP3   OH2 8720   4.316   6.122   5.140 -0.0286  0.1338 -0.6221
 2919TIP3    H1 8721   4.296   6.038   5.098 -1.2316  0.6193 -1.0910
 2919TIP3    H2 8722   4.230   6.161   5.156  0.4244  0.3445  1.5691
 2920TIP3   OH2 8723   2.632   1.226   1.900 -0.1447 -0.2307  0.2639
 2920TIP3    H1 8724   2.607   1.248   1.810  0.7827 -3.7814 -0.9930
 2920TIP3    H2 8725   2.555   1.248   1.952 -1.3851  0.2232 -1.6604
 2921TIP3   OH2 8726   2.878   4.346   2.147  0.3604 -0.3399  0.0290
 2921TIP3    H1 8727   2.829   4.425   2.169  1.5209  0.4939 -0.2768
 2921TIP3    H2 8728   2.942   4.336   2.218  0.6511 -0.6302 -0.2648
 2922TIP3   OH2 8729   0.867   2.127   4.675  0.4268 -0.0141 -0.2523
 2922TIP3    H1 8730   0.805   2.125   4.747  0.0622 -0.8068 -0.5715
 2922TIP3    H2 8731   0.953   2.123   4.717  0.2370  0.0893  0.1523
 2923TIP3   OH2 8732   1.223   3.136   2.831 -0.0145 -0.3567 -0.3475
 2923TIP3    H1 8733   1.198   3.044   2.830 -0.4546 -0.2380 -0.3153
 2923TIP3    H2 8734   1.174   3.176   2.758 -1.5880  0.3048  1.0171
 2924TIP3   OH2 8735   4.682   4.046   0.479 -0.4910 -0.5493  0.3389
 2924TIP3    H1 8736   4.635   4.001   0.549 -1.1491  1.0226  0.9675
 2924TIP3    H2 8737   4.614   4.096   0.433  0.0164 -1.1138 -1.0874
 2925TIP3   OH2 8738   5.699   5.297   1.734  0.2729 -0.0975  0.1540
 2925TIP3    H1 8739   5.639   5.350   1.682 -1.0370 -1.9686 -0.3494
 2925TIP3    H2 8740   5.690   5.332   1.823 -2.2236 -0.8045  0.2553
 2926TIP3   OH2 8741   2.501   4.731   2.082 -0.0679 -0.2603  0.3922
 2926TIP3    H1 8742   2.445   4.745   2.157  0.5008  1.7650  0.4993
 2926TIP3    H2 8743   2.535   4.818   2.060  0.6209 -0.9483 -1.5429
 2927TIP3   OH2 8744   3.775   0.521   5.699 -0.0268 -0.0261 -0.3351
 2927TIP3    H1 8745   3.701   0.521   5.638 -0.8709 -0.4462  0.6671
 2927TIP3    H2 8746   3.785   0.430   5.724  0.8807  0.0206 -0.5052
 2928TIP3   OH2 8747   7.137   5.201   1.713  0.5196 -0.0161 -0.6016
 2928TIP3    H1 8748   7.216   5.204   1.660  1.6836 -2.7879  0.7539
 2928TIP3    H2 8749   7.165   5.231   1.800 -0.2604  0.2989 -0.4491
 2929TIP3   OH2 8750   2.732   2.048   3.001 -0.0661 -0.5649 -0.3592
 2929TIP3    H1 8751   2.684   1.992   3.063  0.7135 -1.5792 -0.6457
 2929TIP3    H2 8752   2.689   2.133   3.007 -0.7763 -0.9827  0.6766
 2930TIP3   OH2 8753   0.870   2.925   2.362  0.4725 -0.0597  0.3834
 2930TIP3    H1 8754   0.929   2.998   2.344 -0.7092  0.9577  0.5056
 2930TIP3    H2 8755   0.803   2.931   2.293  0.2322 -0.8772  0.5406
 2931TIP3   OH2 8756   5.836   4.128   0.026  0.3894 -0.1417 -0.4531
 2931TIP3    H1 8757   5.924   4.155   0.000  0.4848  0.5842  0.5475
 2931TIP3    H2 8758   5.783   4.207   0.014  0.0818 -0.3042 -0.1776
 2932TIP3   OH2 8759   4.709   5.324   5.747  0.0847 -0.1112 -0.0758
 2932TIP3    H1 8760   4.796   5.352   5.719 -0.3360 -0.4320 -1.8079
 2932TIP3    H2 8761   4.682   5.390   5.810  1.8173 -0.3444  0.9786
 2933TIP3   OH2 8762   5.556   6.126   5.734  0.7330  0.3533 -0.6076
 2933TIP3    H1 8763   5.608   6.202   5.760  1.5479  0.1172 -1.5345
 2933TIP3    H2 8764   5.619   6.056   5.723  0.0429 -0.3276 -0.3162
 2934TIP3   OH2 8765   4.314   6.491   2.268  0.4872 -0.3231  0.0737
 2934TIP3    H1 8766   4.271   6.446   2.341  1.1180 -1.5300 -0.2736
 2934TIP3    H2 8767   4.300   6.584   2.285  0.9288 -0.5614  1.9152
 2935TIP3   OH2 8768   4.309   4.913   5.279  0.0856  0.4420  0.2342
 2935TIP3    H1 8769   4.284   4.956   5.361 -0.1728  0.5264  0.1109
 2935TIP3    H2 8770   4.299   4.981   5.212 -1.0941 -0.0263 -0.0821
 2936TIP3   OH2 8771   3.786   6.132   2.507  0.1061 -0.3887  0.2843
 2936TIP3    H1 8772   3.861   6.186   2.532 -0.2671 -0.8634  2.7898
 2936TIP3    H2 8773   3.710   6.185   2.530 -0.2882 -0.9327  0.2585
 2937TIP3   OH2 8774   4.406   5.548   3.165  0.0246 -0.1969  0.0511
 2937TIP3    H1 8775   4.375   5.630   3.204  0.1122 -1.0170  1.9211
 2937TIP3    H2 8776   4.426   5.571   3.074 -1.7328  1.4160  0.0165
 2938TIP3   OH2 8777   6.136   1.312   0.259 -0.3779 -0.5084  0.1969
 2938TIP3    H1 8778   6.167   1.293   0.171  0.5647  1.1225  0.1279
 2938TIP3    H2 8779   6.174   1.397   0.280 -4.8001  1.7359  0.1620
 2939TIP3   OH2 8780   4.848   4.719   3.853  0.0031 -0.0222  0.3796
 2939TIP3    H1 8781   4.897   4.799   3.831  1.1471 -0.1629  2.2018
 2939TIP3    H2 8782   4.770   4.751   3.897  0.3194  0.1183  0.8509
 2940TIP3   OH2 8783   3.660   1.345   3.850  0.0776  0.2900  0.5159
 2940TIP3    H1 8784   3.568   1.336   3.827  0.4066 -0.5068 -0.5836
 2940TIP3    H2 8785   3.692   1.414   3.792  0.7085 -1.1231 -0.9131
 2941TIP3   OH2 8786   4.600   4.326   3.035 -0.0988 -0.3473 -0.2280
 2941TIP3    H1 8787   4.519   4.317   3.085  1.3694 -0.7419  2.2165
 2941TIP3    H2 8788   4.591   4.263   2.963 -1.5082 -1.1672  0.6318
 2942TIP3   OH2 8789   0.007   5.602   1.691 -0.0675 -0.2355 -0.5316
 2942TIP3    H1 8790   0.060   5.545   1.635  0.3779 -0.4744  0.1179
 2942TIP3    H2 8791   0.052   5.600   1.776 -1.3588 -0.7863  0.1650
 2943TIP3   OH2 8792   6.529   3.459   5.146  0.4817  0.1468 -0.5844
 2943TIP3    H1 8793   6.565   3.512   5.075  3.2355 -0.4133  0.2640
 2943TIP3    H2 8794   6.505   3.523   5.213 -0.6290  0.5640 -1.3464
 2944TIP3   OH2 8795   5.785   2.550   1.983  0.1961 -0.2160 -0.0378
 2944TIP3    H1 8796   5.871   2.564   1.943  0.2977 -2.1685 -0.6306
 2944TIP3    H2 8797   5.741   2.489   1.924 -1.6949  0.8833  0.1573
 2945TIP3   OH2 8798   7.083   2.947   4.281  0.0098  0.4484  0.1303
 2945TIP3    H1 8799   7.035   2.865   4.291  1.0592 -0.3125 -0.8389
 2945TIP3    H2 8800   7.018   3.015   4.297 -1.1720 -0.5582 -0.2625
 2946TIP3   OH2 8801   0.796   3.588   3.485  0.2555 -0.5729 -0.3895
 2946TIP3    H1 8802   0.749   3.606   3.404  1.3044 -1.9648 -1.3450
 2946TIP3    H2 8803   0.829   3.499   3.475 -1.4368 -1.6568  2.5075
 2947TIP3   OH2 8804   0.014   2.263   4.578 -0.0437  0.1810 -0.2092
 2947TIP3    H1 8805   0.101   2.285   4.613 -0.8091  1.3751  1.0470
 2947TIP3    H2 8806  -0.030   2.347   4.568 -1.6270 -0.4769  0.7721
 2948TIP3   OH2 8807   2.319   1.540   5.656  0.1170 -0.4327  0.0551
 2948TIP3    H1 8808   2.246   1.522   5.715  0.9703 -2.4144  0.5938
 2948TIP3    H2 8809   2.320   1.467   5.594  0.8496  0.2378 -0.7566
 2949TIP3   OH2 8810   3.737   4.258   2.884  0.4936 -0.1876  0.2751
 2949TIP3    H1 8811   3.800   4.200   2.926 -0.3828  0.3006  2.3741
 2949TIP3    H2 8812   3.657   4.205   2.878  0.3902  0.0037 -0.0498
 2950TIP3   OH2 8813   5.091   1.086   0.979  0.3042  0.2179 -0.1432
 2950TIP3    H1 8814   5.175   1.081   0.934  1.0300  0.0924  1.1558
 2950TIP3    H2 8815   5.030   1.122   0.915  1.3165  0.1628 -1.1535
 2951TIP3   OH2 8816   2.757   5.981   0.587  0.5611 -0.1079  0.2644
 2951TIP3    H1 8817   2.827   5.916   0.583  0.4903 -0.1472 -0.7065
 2951TIP3    H2 8818   2.699   5.957   0.515  0.8854  1.4103 -0.5610
 2952TIP3   OH2 8819   7.133   1.607   5.777  0.4523 -0.1043 -0.9958
 2952TIP3    H1 8820   7.130   1.702   5.790  2.1402 -0.0826 -0.5348
 2952TIP3    H2 8821   7.223   1.590   5.748  0.7823 -1.7567  0.8222
 2953TIP3   OH2 8822   1.195   2.228   1.494 -0.2287  0.3264 -0.4499
 2953TIP3    H1 8823   1.114   2.178   1.497 -0.5385  0.8622  0.3174
 2953TIP3    H2 8824   1.171   2.315   1.524  0.8425  0.1835  0.9525
 2954TIP3   OH2 8825   4.398   4.507   1.286 -0.3984 -0.2089  0.1247
 2954TIP3    H1 8826   4.404   4.592   1.242 -2.2009 -0.7702 -1.3075
 2954TIP3    H2 8827   4.331   4.520   1.353 -0.0186 -0.2649  0.5183
 2955TIP3   OH2 8828   6.646   3.258   0.975 -0.0956  0.7743 -0.2628
 2955TIP3    H1 8829   6.589   3.304   1.036  1.4498  0.4545  1.5311
 2955TIP3    H2 8830   6.734   3.270   1.010  0.6277 -1.3967 -1.1121
 2956TIP3   OH2 8831   5.231   3.569   3.519 -0.1605  0.3069 -0.7867
 2956TIP3    H1 8832   5.237   3.612   3.604 -0.7596 -2.1007  0.5669
 2956TIP3    H2 8833   5.139   3.578   3.494 -1.4395 -3.5575  1.5859
 2957TIP3   OH2 8834   4.535   5.476   4.788 -0.4711  0.1505  0.0477
 2957TIP3    H1 8835   4.529   5.521   4.872 -0.0001  1.9749 -0.8671
 2957TIP3    H2 8836   4.625   5.441   4.786 -0.6220 -0.2821  0.4636
 2958TIP3   OH2 8837   5.373   3.283   3.068 -0.3691  0.0973 -0.4473
 2958TIP3    H1 8838   5.437   3.218   3.098  0.0762  0.9721  0.5428
 2958TIP3    H2 8839   5.341   3.247   2.985  2.0380  0.0090 -1.4369
 2959TIP3   OH2 8840   5.746   6.573   4.331 -0.2762  0.1454  0.3624
 2959TIP3    H1 8841   5.698   6.509   4.384  1.1015 -0.9441  0.3577
 2959TIP3    H2 8842   5.710   6.563   4.243  0.1264 -0.8811  0.2958
 2960TIP3   OH2 8843   3.565   4.466   5.547  0.5521 -0.1324  0.0518
 2960TIP3    H1 8844   3.636   4.502   5.600 -0.8671  0.1426  1.8735
 2960TIP3    H2 8845   3.495   4.531   5.552  0.4885  0.1071 -2.6022
 2961TIP3   OH2 8846   0.065   1.872   1.488 -0.2454 -0.3891  1.0429
 2961TIP3    H1 8847   0.092   1.901   1.575 -0.2000 -2.2216  1.6905
 2961TIP3    H2 8848   0.139   1.820   1.456 -0.1863  0.4179 -0.1846
 2962TIP3   OH2 8849   0.354   1.054   2.253  0.3910  0.2430 -0.0444
 2962TIP3    H1 8850   0.277   0.998   2.266  0.6412  0.1960  1.3799
 2962TIP3    H2 8851   0.428   0.993   2.248  0.2974  0.2150 -2.3500
 2963TIP3   OH2 8852   0.637   6.278   3.823  0.1348  0.1002 -0.1944
 2963TIP3    H1 8853   0.681   6.305   3.743 -1.9765  1.4204 -0.9935
 2963TIP3    H2 8854   0.555   6.238   3.794 -1.0781  1.3607  1.2582
 2964TIP3   OH2 8855   5.702   5.607   1.377 -0.2599 -0.3548  1.1117
 2964TIP3    H1 8856   5.692   5.702   1.368  1.9297 -0.1994 -0.7405
 2964TIP3    H2 8857   5.656   5.571   1.301 -0.5444 -0.7296  1.4602
 2965TIP3   OH2 8858   6.514   4.900   2.860  0.2864  0.0326 -0.1690
 2965TIP3    H1 8859   6.526   4.994   2.842  0.4517 -0.0298 -0.4000
 2965TIP3    H2 8860   6.471   4.866   2.782  1.2540 -0.2945 -0.5814
 2966TIP3   OH2 8861   4.212   3.988   5.293  0.2174  0.0134  0.3901
 2966TIP3    H1 8862   4.196   3.902   5.252 -0.0894  0.1624  0.1926
 2966TIP3    H2 8863   4.164   4.050   5.238  2.0074  0.5861 -0.6153
 2967TIP3   OH2 8864   5.863   4.906   0.271  0.5575  0.6070  1.1644
 2967TIP3    H1 8865   5.799   4.978   0.268  0.7410  0.7656 -1.4403
 2967TIP3    H2 8866   5.812   4.829   0.244  1.4599  0.8265 -1.4544
 2968TIP3   OH2 8867   6.667   6.728   2.492 -0.3527 -0.4480  0.2981
 2968TIP3    H1 8868   6.757   6.743   2.520  0.6096 -2.8171 -1.2015
 2968TIP3    H2 8869   6.660   6.771   2.407 -0.3458 -0.9932  0.0163
 2969TIP3   OH2 8870   3.582   4.550   0.121  0.5057  0.3130  0.2206
 2969TIP3    H1 8871   3.548   4.496   0.049  0.1212  0.4117  0.3304
 2969TIP3    H2 8872   3.506   4.595   0.157  0.5913 -0.1904  1.0783
 2970TIP3   OH2 8873   2.410   2.835   4.944 -0.0968 -0.6070 -0.1429
 2970TIP3    H1 8874   2.374   2.802   4.862  0.0676  0.7818 -0.8070
 2970TIP3    H2 8875   2.335   2.877   4.988  0.3488  0.9488 -0.8199
 2971TIP3   OH2 8876   4.683   3.916   0.196 -0.4805  0.0268 -0.4908
 2971TIP3    H1 8877   4.604   3.961   0.227  0.0230  1.2295 -0.9043
 2971TIP3    H2 8878   4.753   3.981   0.203  0.2886 -0.7165 -1.0384
 2972TIP3   OH2 8879   6.622   3.824   0.250  0.2987  0.4511 -0.1758
 2972TIP3    H1 8880   6.665   3.910   0.246  3.4736 -0.9754 -0.0884
 2972TIP3    H2 8881   6.693   3.764   0.274 -2.1284 -2.0082  1.3317
 2973TIP3   OH2 8882   1.197   6.097   2.982  0.8897  0.0974  0.0263
 2973TIP3    H1 8883   1.191   6.141   2.898 -0.1378 -0.5999 -0.2865
 2973TIP3    H2 8884   1.151   6.155   3.043 -2.3618 -1.3721 -0.7788
 2974TIP3   OH2 8885   5.194   1.988   4.129 -0.4237 -0.0654 -0.6184
 2974TIP3    H1 8886   5.261   1.920   4.134  0.3090  0.5471 -1.7086
 2974TIP3    H2 8887   5.171   2.006   4.220  1.1906 -0.0142 -0.1966
 2975TIP3   OH2 8888   4.575   1.438   0.827 -0.2017 -0.5574 -0.1127
 2975TIP3    H1 8889   4.575   1.347   0.799 -1.4674 -1.0845  1.4361
 2975TIP3    H2 8890   4.621   1.438   0.911 -1.1102  0.0391  0.4041
 2976TIP3   OH2 8891   6.209   3.466   1.237 -0.9138 -0.0134 -0.0411
 2976TIP3    H1 8892   6.252   3.533   1.183  1.1286  0.7272  2.3206
 2976TIP3    H2 8893   6.229   3.384   1.192  0.3865  0.5958 -0.6520
 2977TIP3   OH2 8894   1.468   0.565   3.643  0.2770  0.3428  0.2597
 2977TIP3    H1 8895   1.560   0.545   3.627 -0.0487 -0.3324 -0.8064
 2977TIP3    H2 8896   1.447   0.634   3.581  0.1147  0.6567  0.6562
 2978TIP3   OH2 8897   0.669   5.709   1.028  0.0989  0.2269 -0.0755
 2978TIP3    H1 8898   0.611   5.771   1.072 -1.1385 -1.1398  0.3148
 2978TIP3    H2 8899   0.734   5.764   0.984  0.4671  1.7038  2.1382
 2979TIP3   OH2 8900   2.039   1.882   2.373 -0.7297 -0.0212 -0.6119
 2979TIP3    H1 8901   2.111   1.932   2.335  0.0181 -1.0920 -0.6452
 2979TIP3    H2 8902   1.994   1.944   2.430  0.1210  0.7061 -0.7148
 2980TIP3   OH2 8903   6.566   5.879   3.689  0.5516 -0.1517 -0.4237
 2980TIP3    H1 8904   6.629   5.903   3.622 -1.5292  2.2853 -1.7116
 2980TIP3    H2 8905   6.499   5.828   3.642 -0.4668  0.8147 -0.0874
 2981TIP3   OH2 8906   2.173   6.391   4.889 -0.0210  0.1365  1.0272
 2981TIP3    H1 8907   2.163   6.479   4.852 -2.3182 -0.2888  0.5072
 2981TIP3    H2 8908   2.266   6.385   4.910  0.6200  1.8766 -0.9730
 2982TIP3   OH2 8909   0.128   5.373   4.804  0.0174 -0.0684  0.4325
 2982TIP3    H1 8910   0.201   5.367   4.742  1.1228  0.3085  1.6724
 2982TIP3    H2 8911   0.070   5.301   4.778 -0.6198  1.2679 -2.3194
 2983TIP3   OH2 8912   0.895   3.780   4.466  0.2189  0.1004  0.1136
 2983TIP3    H1 8913   0.840   3.758   4.391  0.0786 -0.5197  0.3944
 2983TIP3    H2 8914   0.882   3.874   4.477  0.1648  0.1836 -0.5753
 2984TIP3   OH2 8915   1.627   0.133   5.553  0.3155  0.0617  0.0271
 2984TIP3    H1 8916   1.574   0.162   5.478  0.1455 -1.0070 -0.2738
 2984TIP3    H2 8917   1.637   0.212   5.606 -2.0202  0.1977  0.3786
 2985TIP3   OH2 8918   4.802   5.933   1.658  0.0981 -0.0489 -0.0680
 2985TIP3    H1 8919   4.758   5.916   1.575 -0.4377  0.0234  0.1954
 2985TIP3    H2 8920   4.829   6.025   1.653 -1.7601  0.5819  0.6414
 2986TIP3   OH2 8921   1.604   0.380   5.672 -0.1329  0.0466  0.3006
 2986TIP3    H1 8922   1.530   0.361   5.730  0.0510  0.2185  0.5981
 2986TIP3    H2 8923   1.569   0.442   5.608 -0.8527 -1.5971 -0.9540
 2987TIP3   OH2 8924   6.919   4.270   4.374 -0.3943  0.1683  0.0413
 2987TIP3    H1 8925   6.997   4.215   4.369  0.9227  1.7607  1.6408
 2987TIP3    H2 8926   6.896   4.271   4.467 -1.5439  0.7474 -0.2344
 2988TIP3   OH2 8927   3.971   0.913   5.858 -0.3399 -0.5964  0.4352
 2988TIP3    H1 8928   3.976   0.817   5.857 -1.3309 -0.6734 -1.0891
 2988TIP3    H2 8929   4.033   0.940   5.925  0.2393 -2.2939  0.6301
 2989TIP3   OH2 8930   2.290   4.715   1.604  0.9309  0.7412  0.5869
 2989TIP3    H1 8931   2.286   4.620   1.607 -2.5503  0.5260 -2.7599
 2989TIP3    H2 8932   2.246   4.744   1.684  2.0029 -0.3992  1.6202
 2990TIP3   OH2 8933   0.585   4.841   4.189 -0.5800 -0.1340  0.0092
 2990TIP3    H1 8934   0.490   4.837   4.177 -0.5295  0.0777 -0.4739
 2990TIP3    H2 8935   0.612   4.924   4.149 -0.5491  1.2554  2.7183
 2991TIP3   OH2 8936   3.580   0.260   4.104 -0.1386 -0.1377  0.4816
 2991TIP3    H1 8937   3.639   0.335   4.095  0.4034 -0.6175  0.0123
 2991TIP3    H2 8938   3.507   0.279   4.045  0.2054 -0.1764  0.0399
 2992TIP3   OH2 8939   3.438   1.031   4.436  0.4681 -0.0135  0.6035
 2992TIP3    H1 8940   3.383   0.954   4.425  1.8317 -0.8747 -0.4721
 2992TIP3    H2 8941   3.377   1.101   4.460 -0.9410 -1.1502  0.4524
 2993TIP3   OH2 8942   6.295   6.490   5.544 -0.0953  0.0841 -0.3362
 2993TIP3    H1 8943   6.315   6.503   5.451 -2.0362  1.8166 -0.5931
 2993TIP3    H2 8944   6.279   6.579   5.577 -2.4090 -0.7076  0.8808
 2994TIP3   OH2 8945   1.763   2.999   2.180 -0.4245 -0.1566 -0.1995
 2994TIP3    H1 8946   1.704   2.998   2.256  0.9863 -0.7197  0.9163
 2994TIP3    H2 8947   1.771   3.092   2.158 -3.1484 -0.1288 -1.5761
 2995TIP3   OH2 8948   2.328   2.654   0.219  0.1600  0.5272 -0.4742
 2995TIP3    H1 8949   2.249   2.611   0.186 -0.3989  0.0238  1.3978
 2995TIP3    H2 8950   2.297   2.740   0.248  0.6634  0.9971 -1.2819
 2996TIP3   OH2 8951   0.351   2.899   4.527  0.1952 -0.4376 -0.3043
 2996TIP3    H1 8952   0.331   2.914   4.620  0.9408 -0.0298 -0.2078
 2996TIP3    H2 8953   0.416   2.830   4.527 -3.0424 -3.8385 -0.7352
 2997TIP3   OH2 8954   5.526   4.378   5.146 -0.1226 -0.0145 -0.8043
 2997TIP3    H1 8955   5.449   4.334   5.110  0.1419 -0.3715 -0.9394
 2997TIP3    H2 8956   5.546   4.446   5.082 -1.2266  1.0779 -0.0282
 2998TIP3   OH2 8957   4.832   0.522   0.507  0.4031 -0.3555 -0.1396
 2998TIP3    H1 8958   4.811   0.611   0.478 -0.1239 -0.8999 -1.4808
 2998TIP3    H2 8959   4.844   0.472   0.426 -2.9697 -2.3754  0.3979
 2999TIP3   OH2 8960   4.833   1.769   1.494  0.2647 -0.2263 -0.3732
 2999TIP3    H1 8961   4.754   1.770   1.439  0.8650  0.5337 -1.2398
 2999TIP3    H2 8962   4.867   1.680   1.485 -1.1527 -0.9741  1.0142
 3000TIP3   OH2 8963   0.272   0.392   1.216 -0.6025  0.0282 -0.1173
 3000TIP3    H1 8964   0.182   0.409   1.189 -0.3009  0.3180 -0.9526
 3000TIP3    H2 8965   0.290   0.303   1.185 -0.8318 -0.3100  0.6885
 3001TIP3   OH2 8966   4.763   1.007   4.016  0.6603 -0.1303  0.8074
 3001TIP3    H1 8967   4.698   0.990   4.084  0.0641  2.0456  0.8634
 3001TIP3    H2 8968   4.714   1.006   3.934  0.8506 -0.0591  0.6903
 3002TIP3   OH2 8969   5.455   6.762   0.257  0.2084 -0.0631  0.4267
 3002TIP3    H1 8970   5.452   6.840   0.201  1.6297 -1.8072 -2.2911
 3002TIP3    H2 8971   5.364   6.735   0.266 -0.0271 -0.3643 -2.1402
 3003TIP3   OH2 8972   1.668   2.260   0.554 -0.1707  0.4933  0.4809
 3003TIP3    H1 8973   1.623   2.341   0.530 -2.5485 -1.0827 -0.7960
 3003TIP3    H2 8974   1.740   2.253   0.492  0.2861  1.7838  0.8388
 3004TIP3   OH2 8975   1.210   2.892   1.943 -0.2500 -0.7030  0.3556
 3004TIP3    H1 8976   1.285   2.863   1.892  0.1732 -1.6167  1.4462
 3004TIP3    H2 8977   1.239   2.971   1.989 -0.5399 -0.0459 -0.5712
 3005TIP3   OH2 8978   1.742   1.372   1.916 -0.7700 -0.8225 -0.0180
 3005TIP3    H1 8979   1.744   1.314   1.992  1.1094  1.0071  1.4562
 3005TIP3    H2 8980   1.781   1.321   1.846  1.4403 -1.2124  1.3953
 3006TIP3   OH2 8981   1.396   0.504   4.973  0.2240  0.0045 -0.5345
 3006TIP3    H1 8982   1.438   0.589   4.981  1.2965 -0.6882  2.0125
 3006TIP3    H2 8983   1.455   0.454   4.916  0.0102  0.6722 -1.3661
 3007TIP3   OH2 8984   3.395   0.552   4.145 -0.2107  0.2120 -0.1739
 3007TIP3    H1 8985   3.354   0.564   4.231  0.0005  0.2588 -0.0799
 3007TIP3    H2 8986   3.489   0.559   4.162 -0.1573 -0.0011 -0.3720
 3008TIP3   OH2 8987   6.633   5.395   4.582 -0.4742 -0.0867  0.0991
 3008TIP3    H1 8988   6.619   5.391   4.677  1.7259 -1.1525  0.4312
 3008TIP3    H2 8989   6.664   5.308   4.558 -0.5996  0.2856 -1.5531
 3009TIP3   OH2 8990   0.611   3.661   1.870 -0.3453  0.3772 -0.3548
 3009TIP3    H1 8991   0.515   3.662   1.874 -0.6114 -0.8570 -3.3454
 3009TIP3    H2 8992   0.635   3.573   1.898 -0.2290  0.2562 -0.8196
 3010TIP3   OH2 8993   7.006   5.540   0.745 -0.0276  0.8148  0.4140
 3010TIP3    H1 8994   6.936   5.603   0.731 -0.0037  0.5667 -0.9448
 3010TIP3    H2 8995   7.073   5.564   0.681  0.2062 -0.2588  0.2378
 3011TIP3   OH2 8996   3.755   0.588   5.087 -0.3849 -0.5331  0.2014
 3011TIP3    H1 8997   3.660   0.592   5.075 -0.6598 -0.4799  2.0531
 3011TIP3    H2 8998   3.790   0.649   5.022 -1.6969  0.1283  0.0834
 3012TIP3   OH2 8999   3.041   5.537   4.559  0.3810 -0.1640 -0.4099
 3012TIP3    H1 9000   3.017   5.545   4.466 -0.3480  0.9121 -0.1519
 3012TIP3    H2 9001   3.100   5.610   4.574 -0.9263  0.7614  0.3899
 3013TIP3   OH2 9002   2.809   5.954   4.693 -0.2611  0.2574  0.2895
 3013TIP3    H1 9003   2.855   5.922   4.616  0.9202  0.7935  0.7496
 3013TIP3    H2 9004   2.861   6.028   4.723 -0.6969  0.0670  1.5852
 3014TIP3   OH2 9005   4.368   2.960   2.838  0.0956  0.1631  0.7511
 3014TIP3    H1 9006   4.416   3.023   2.784 -0.2125  0.2836  0.6151
 3014TIP3    H2 9007   4.432   2.930   2.902  0.4453  0.0720  0.3610
 3015TIP3   OH2 9008   0.903   1.105   1.861  0.5928  0.0011 -0.0834
 3015TIP3    H1 9009   0.905   1.135   1.951  2.3728 -0.4290  0.0617
 3015TIP3    H2 9010   0.835   1.157   1.819  0.6886  1.1742  1.1673
 3016TIP3   OH2 9011   7.019   4.576   3.839 -0.5546  0.4610 -0.5416
 3016TIP3    H1 9012   6.924   4.566   3.839 -0.3686 -1.5097 -0.3094
 3016TIP3    H2 9013   7.051   4.518   3.908  0.8463  0.8942 -0.7819
 3017TIP3   OH2 9014   5.243   5.805   1.779  0.2522  0.0099 -0.5855
 3017TIP3    H1 9015   5.252   5.900   1.772 -1.3205  0.3416  1.0864
 3017TIP3    H2 9016   5.175   5.782   1.715 -1.3306  0.4571  0.8571
 3018TIP3   OH2 9017   2.108   6.519   3.025 -0.7788 -0.0238  0.0395
 3018TIP3    H1 9018   2.140   6.588   3.083  2.0488  0.3027 -1.7084
 3018TIP3    H2 9019   2.107   6.441   3.080 -0.7279  0.7576  1.1955
 3019TIP3   OH2 9020   0.959   2.754   4.662 -0.7471 -0.2234  0.4071
 3019TIP3    H1 9021   0.899   2.807   4.716 -2.2270 -1.1852 -0.2353
 3019TIP3    H2 9022   0.921   2.667   4.663  1.4578 -1.2449  1.1333
 3020TIP3   OH2 9023   5.033   2.551   0.583 -0.5296 -0.1854 -0.0420
 3020TIP3    H1 9024   5.027   2.545   0.488 -0.0783  1.8207 -0.2405
 3020TIP3    H2 9025   4.968   2.488   0.615 -1.3863 -0.2045 -1.6879
 3021TIP3   OH2 9026   3.246   1.846   2.719  0.0524  0.2517 -0.2207
 3021TIP3    H1 9027   3.193   1.778   2.679  0.4424 -0.2033  0.0332
 3021TIP3    H2 9028   3.300   1.801   2.783  1.3822  0.5572 -1.0770
 3022TIP3   OH2 9029   1.249   4.214   3.275 -0.1540 -0.0129  0.0321
 3022TIP3    H1 9030   1.165   4.203   3.231  1.0896 -0.3015 -2.4295
 3022TIP3    H2 9031   1.279   4.125   3.293  0.9011 -0.0618 -1.7731
 3023TIP3   OH2 9032   0.977   3.902   3.196  0.1705  0.3688 -0.2361
 3023TIP3    H1 9033   1.058   3.888   3.148 -0.2937  1.7511 -1.5209
 3023TIP3    H2 9034   0.958   3.995   3.184  0.2743  0.9371  3.1326
 3024TIP3   OH2 9035   6.079   6.006   4.492  0.7291 -0.3036  0.0683
 3024TIP3    H1 9036   6.047   6.059   4.565 -0.6865 -1.1788  0.1349
 3024TIP3    H2 9037   6.174   6.015   4.495  0.5750  1.5316  0.5732
 3025TIP3   OH2 9038   3.961   3.349   5.517  0.3390 -0.1619 -0.0365
 3025TIP3    H1 9039   4.015   3.378   5.590 -0.1015 -1.0713  0.6683
 3025TIP3    H2 9040   3.979   3.255   5.509 -1.5568 -0.6225  0.6103
 3026TIP3   OH2 9041   4.946   5.972   5.711 -0.6044  0.4518  0.0990
 3026TIP3    H1 9042   4.854   5.973   5.739 -0.7509 -0.1488 -0.3271
 3026TIP3    H2 9043   4.980   5.889   5.744  0.3729  1.5569  2.0079
 3027TIP3   OH2 9044   2.382   3.934   5.211  0.0631  0.4957  0.3679
 3027TIP3    H1 9045   2.459   3.916   5.156  0.4086  0.6121  0.8028
 3027TIP3    H2 9046   2.381   3.861   5.274 -0.2966  0.3919  0.2433
 3028TIP3   OH2 9047   4.225   6.738   2.790  0.2972 -0.2060 -0.3343
 3028TIP3    H1 9048   4.277   6.660   2.810  1.0489  0.3580 -0.0099
 3028TIP3    H2 9049   4.175   6.715   2.712  0.7173 -0.9219 -0.3974
 3029TIP3   OH2 9050   3.364   3.209   3.269  0.5863 -0.5517  0.1185
 3029TIP3    H1 9051   3.438   3.256   3.231  1.4294  0.0568  2.3439
 3029TIP3    H2 9052   3.308   3.277   3.306 -0.1249 -1.1007  0.0818
 3030TIP3   OH2 9053   0.969   2.927   3.925  0.3538  0.4097 -0.0576
 3030TIP3    H1 9054   0.921   2.965   3.999  1.4795  0.2393  0.7915
 3030TIP3    H2 9055   0.984   2.836   3.951 -0.9327 -0.2082 -1.3723
 3031TIP3   OH2 9056   5.060   4.263   4.110 -0.5633  0.3702 -0.0901
 3031TIP3    H1 9057   5.005   4.272   4.032  0.9657  0.2658 -1.2274
 3031TIP3    H2 9058   5.129   4.202   4.084  0.1516  0.5684  1.2498
 3032TIP3   OH2 9059   1.754   4.581   1.823 -0.3105 -0.0805 -0.1311
 3032TIP3    H1 9060   1.844   4.585   1.854  0.1805 -0.4681 -1.4640
 3032TIP3    H2 9061   1.705   4.542   1.896  0.8323 -1.0841  0.1226
 3033TIP3   OH2 9062   0.934   3.175   4.374 -0.1659  0.3763 -0.2818
 3033TIP3    H1 9063   0.917   3.081   4.368  2.6793 -0.2761  0.5878
 3033TIP3    H2 9064   0.992   3.194   4.301 -1.4494  1.7216 -1.0138
 3034TIP3   OH2 9065   1.624   0.418   0.959  0.0878 -0.0050  0.1667
 3034TIP3    H1 9066   1.546   0.474   0.959 -1.1075 -1.5395 -1.6346
 3034TIP3    H2 9067   1.603   0.348   0.898  2.8889 -0.5146 -0.3495
 3035TIP3   OH2 9068   2.030   1.292   3.524  0.0102 -0.2617  0.4049
 3035TIP3    H1 9069   1.962   1.360   3.530 -1.9304 -2.0570 -0.0080
 3035TIP3    H2 9070   2.059   1.295   3.433  1.2752  1.1617  0.8093
 3036TIP3   OH2 9071   4.526   5.051   3.212  0.1457  0.3717  0.5327
 3036TIP3    H1 9072   4.440   5.074   3.176 -0.4441 -0.2474  1.5040
 3036TIP3    H2 9073   4.522   4.957   3.227  0.4123  0.5805  2.0585
 3037TIP3   OH2 9074   3.934   1.506   5.053 -0.1051  0.1199 -0.1191
 3037TIP3    H1 9075   4.024   1.483   5.030 -0.5165 -0.3399 -1.3585
 3037TIP3    H2 9076   3.936   1.600   5.067  0.7562 -0.0207  0.8721
 3038TIP3   OH2 9077   7.203   5.401   0.009  0.5369  0.0610 -0.8826
 3038TIP3    H1 9078   7.156   5.456  -0.054 -1.3062  0.4347  0.7087
 3038TIP3    H2 9079   7.200   5.451   0.091  0.6907 -1.4689  0.0947
 3039TIP3   OH2 9080   5.110   0.421   5.282 -0.1427  0.4152 -0.4994
 3039TIP3    H1 9081   5.197   0.438   5.316 -1.0500 -0.6728  2.7046
 3039TIP3    H2 9082   5.060   0.500   5.302 -0.8665 -0.4990  1.6002
 3040TIP3   OH2 9083   3.354   5.018   3.093 -0.0759  0.3483 -0.1234
 3040TIP3    H1 9084   3.332   5.110   3.078 -0.0631  0.5810  1.1294
 3040TIP3    H2 9085   3.336   4.975   3.010 -0.4403  1.4170 -0.6219
 3041TIP3   OH2 9086   3.838   1.707   2.869  0.4831  0.1371  0.3481
 3041TIP3    H1 9087   3.766   1.674   2.923 -0.2136  1.6405  0.4061
 3041TIP3    H2 9088   3.802   1.705   2.780  0.3210  0.9599  0.3867
 3042TIP3   OH2 9089   6.695   2.206   0.239  0.1224 -0.3355  0.3221
 3042TIP3    H1 9090   6.661   2.172   0.156 -0.4754  0.6853  0.1259
 3042TIP3    H2 9091   6.758   2.140   0.269 -0.3384 -1.1531 -0.4790
 3043TIP3   OH2 9092   2.922   1.640   3.287 -0.1145 -0.0570  0.5260
 3043TIP3    H1 9093   2.867   1.609   3.215  0.8241  1.7276 -1.0325
 3043TIP3    H2 9094   2.991   1.574   3.294  0.8659  0.6671 -1.5422
 3044TIP3   OH2 9095   2.376   0.130   5.841 -0.5436 -0.0932  0.1960
 3044TIP3    H1 9096   2.380   0.088   5.755 -2.1506  1.4787 -0.7147
 3044TIP3    H2 9097   2.283   0.128   5.864 -0.2589  0.3797  1.4648
 3045TIP3   OH2 9098   0.413   3.448   2.362 -0.5152  0.1154  0.3787
 3045TIP3    H1 9099   0.364   3.528   2.382 -0.7942 -0.0925  0.5156
 3045TIP3    H2 9100   0.356   3.377   2.389 -1.1126 -0.1993 -1.5424
 3046TIP3   OH2 9101   6.663   4.193   0.821 -0.1222 -0.3955  0.3666
 3046TIP3    H1 9102   6.693   4.263   0.879 -0.2191  0.7331 -0.9009
 3046TIP3    H2 9103   6.724   4.194   0.748 -1.0439 -0.6038 -0.4202
 3047TIP3   OH2 9104   0.069   1.214   4.044  0.0219  0.1611  0.4325
 3047TIP3    H1 9105   0.019   1.142   4.084  2.8085 -1.9859  0.3310
 3047TIP3    H2 9106   0.109   1.259   4.118  0.0903  0.1934  0.3754
 3048TIP3   OH2 9107   0.446   2.058   4.291  0.1142  0.8095 -0.0713
 3048TIP3    H1 9108   0.401   2.094   4.214 -1.0926  2.2479  1.2381
 3048TIP3    H2 9109   0.535   2.091   4.285  0.3833 -0.0861 -1.4558
 3049TIP3   OH2 9110   2.413   4.026   4.351  0.4199 -0.8480 -0.3555
 3049TIP3    H1 9111   2.450   4.112   4.334  2.4750 -1.6697 -0.2872
 3049TIP3    H2 9112   2.324   4.031   4.316  1.0930  0.7060 -1.9865
 3050TIP3   OH2 9113   4.829   3.928   2.234 -0.1461  0.0245  0.2211
 3050TIP3    H1 9114   4.802   3.838   2.251 -0.4315 -0.1583 -1.0570
 3050TIP3    H2 9115   4.915   3.936   2.276  0.1474 -1.0320 -0.1393
 3051TIP3   OH2 9116   2.277   6.084   3.020 -0.3439  0.1585 -0.3347
 3051TIP3    H1 9117   2.307   6.041   3.100 -0.1215  0.2496 -0.3666
 3051TIP3    H2 9118   2.314   6.173   3.026 -1.7252  0.7153  0.2690
 3052TIP3   OH2 9119   4.264   4.987   0.305 -0.5162 -0.2084  0.4850
 3052TIP3    H1 9120   4.321   4.942   0.242 -0.5201 -0.5555  0.7267
 3052TIP3    H2 9121   4.292   5.078   0.302 -0.4515 -0.2405  0.0500
 3053TIP3   OH2 9122   1.589   5.741   1.742 -0.1670  0.3047  0.0998
 3053TIP3    H1 9123   1.666   5.788   1.772 -0.2752  0.0294  0.8341
 3053TIP3    H2 9124   1.551   5.798   1.675  0.7870  0.3342 -0.4289
 3054TIP3   OH2 9125   5.131   0.881   5.136  0.3437  0.4825 -0.3342
 3054TIP3    H1 9126   5.124   0.805   5.077 -0.8009 -0.6302  1.1452
 3054TIP3    H2 9127   5.215   0.869   5.180 -1.5044 -2.4414  2.9653
 3055TIP3   OH2 9128   3.045   4.975   2.738  0.2266 -0.2842  0.0461
 3055TIP3    H1 9129   3.128   4.993   2.781 -0.1271 -1.0327  1.0866
 3055TIP3    H2 9130   3.036   5.045   2.674  1.3010  0.2341  0.4296
 3056TIP3   OH2 9131   4.244   4.891   2.246  0.1444  0.0277  0.0328
 3056TIP3    H1 9132   4.233   4.894   2.151 -0.9962 -0.2379  0.1392
 3056TIP3    H2 9133   4.339   4.898   2.259  0.2127  1.6437 -1.0343
 3057TIP3   OH2 9134   2.455   0.217   5.428 -0.6890  0.6989 -0.1883
 3057TIP3    H1 9135   2.492   0.219   5.339 -1.4046  0.9597 -0.4847
 3057TIP3    H2 9136   2.364   0.245   5.417 -1.0892 -0.2849  0.4811
 3058TIP3   OH2 9137   5.545   5.591   3.234 -0.0212  0.2399  0.5939
 3058TIP3    H1 9138   5.518   5.683   3.239  1.8153  0.8742 -0.3281
 3058TIP3    H2 9139   5.545   5.561   3.325 -0.1708  1.2952  0.9514
 3059TIP3   OH2 9140   3.016   5.113   1.530  0.1523 -0.3158  1.0385
 3059TIP3    H1 9141   3.054   5.118   1.618  0.9023 -1.1849  0.7695
 3059TIP3    H2 9142   3.063   5.042   1.487 -1.1653 -0.8207  0.3876
 3060TIP3   OH2 9143   5.231   2.766   5.232  0.8758  0.0384 -0.1125
 3060TIP3    H1 9144   5.277   2.842   5.267  1.6726  0.0569 -1.1449
 3060TIP3    H2 9145   5.140   2.779   5.258  0.5210  2.5858 -2.2039
 3061TIP3   OH2 9146   4.022   4.928   2.845 -1.0303  0.0160  0.2107
 3061TIP3    H1 9147   4.098   4.890   2.888 -1.3630  0.6114  1.3815
 3061TIP3    H2 9148   3.979   4.979   2.914 -0.9403  1.9892 -1.1140
 3062TIP3   OH2 9149   4.023   1.233   5.566 -0.4968 -0.2170 -0.4463
 3062TIP3    H1 9150   3.950   1.175   5.592  0.4166 -1.0669  0.3053
 3062TIP3    H2 9151   4.080   1.177   5.514  0.1685  0.1336 -0.1055
 3063TIP3   OH2 9152   4.583   1.380   4.850 -0.3995  0.3032  0.2279
 3063TIP3    H1 9153   4.630   1.409   4.772 -0.7258  0.3475  0.0441
 3063TIP3    H2 9154   4.493   1.366   4.819 -0.3214 -0.5973  0.3864
 3064TIP3   OH2 9155   3.762   4.913   0.323 -0.1326 -0.2468  0.1911
 3064TIP3    H1 9156   3.734   4.822   0.329  0.2857 -0.3116  1.3809
 3064TIP3    H2 9157   3.830   4.912   0.255 -0.0796 -0.8365  0.2482
 3065TIP3   OH2 9158   3.661   3.533   0.187 -0.1474  0.0369 -0.5652
 3065TIP3    H1 9159   3.687   3.520   0.096 -3.1199 -2.0495 -1.2583
 3065TIP3    H2 9160   3.611   3.454   0.209  1.9935 -0.4380  3.5407
 3066TIP3   OH2 9161   3.731   0.666   2.771  0.3615  0.4850  0.1660
 3066TIP3    H1 9162   3.746   0.572   2.758 -0.7871  0.4864 -1.4893
 3066TIP3    H2 9163   3.682   0.671   2.853  1.2610 -0.2547  0.7747
 3067TIP3   OH2 9164   1.448   4.119   1.418 -0.5390  0.2518 -0.2190
 3067TIP3    H1 9165   1.542   4.141   1.420 -0.2306 -0.7101 -1.9679
 3067TIP3    H2 9166   1.406   4.197   1.383 -0.7582  1.5869  2.7727
 3068TIP3   OH2 9167   1.070   0.979   4.982  0.1472 -0.1384  0.1538
 3068TIP3    H1 9168   0.993   1.014   5.028  0.7559  0.6895  0.5567
 3068TIP3    H2 9169   1.035   0.947   4.899 -0.4556  1.3051 -0.1793
 3069TIP3   OH2 9170   0.644   2.834   1.934  0.5257 -0.3526  0.1285
 3069TIP3    H1 9171   0.723   2.788   1.905 -0.3438 -1.7234 -0.1446
 3069TIP3    H2 9172   0.574   2.797   1.881 -0.5949 -0.5177  1.6643
 3070TIP3   OH2 9173   0.273   5.555   4.330  0.1269 -0.3416  0.2819
 3070TIP3    H1 9174   0.201   5.617   4.325  0.3173 -0.1922 -1.0746
 3070TIP3    H2 9175   0.233   5.469   4.315  0.1589 -0.3200  0.0752
 3071TIP3   OH2 9176   1.763   3.659   3.428  0.2176  0.0868 -0.2443
 3071TIP3    H1 9177   1.779   3.565   3.422  0.2290  0.0649  0.1214
 3071TIP3    H2 9178   1.850   3.698   3.435  0.2140  0.1256 -0.4179
 3072TIP3   OH2 9179   6.803   5.711   3.178  0.0540  0.4928  0.4761
 3072TIP3    H1 9180   6.823   5.643   3.114  0.8061  0.4135  0.7756
 3072TIP3    H2 9181   6.771   5.785   3.127 -1.0630 -0.1836  0.1721
 3073TIP3   OH2 9182   5.917   3.504   0.335 -0.2544 -0.2820 -0.3754
 3073TIP3    H1 9183   5.830   3.542   0.333  0.4463  1.4105 -0.6546
 3073TIP3    H2 9184   5.951   3.518   0.246  0.8522  0.5232  0.1461
 3074TIP3   OH2 9185   3.226   5.281   2.853 -0.0070 -0.1108 -0.7945
 3074TIP3    H1 9186   3.204   5.322   2.937 -1.8311 -2.2641 -0.1305
 3074TIP3    H2 9187   3.146   5.288   2.801  0.9874  0.8397 -2.2674
 3075TIP3   OH2 9188   5.141   1.706   0.337  0.2576 -0.7299 -0.1358
 3075TIP3    H1 9189   5.061   1.699   0.285 -0.3602 -1.9778  0.9236
 3075TIP3    H2 9190   5.158   1.800   0.341 -1.4144 -0.3838 -0.0412
 3076TIP3   OH2 9191   3.791   5.458   2.022  0.7151  0.0650  0.3125
 3076TIP3    H1 9192   3.745   5.431   1.943 -0.1257 -0.4659  0.9613
 3076TIP3    H2 9193   3.875   5.411   2.019  0.7799  0.2176 -0.3601
 3077TIP3   OH2 9194   2.454   2.428   0.819  0.6634 -0.1104  0.3154
 3077TIP3    H1 9195   2.427   2.519   0.831 -1.1006 -0.8908  3.5278
 3077TIP3    H2 9196   2.517   2.412   0.889  2.2675 -0.9778 -1.2403
 3078TIP3   OH2 9197   6.390   2.514   3.202 -0.6135  0.3263  0.0452
 3078TIP3    H1 9198   6.382   2.533   3.109  1.6540 -1.7912 -0.7024
 3078TIP3    H2 9199   6.316   2.456   3.221 -0.8832  0.4744 -0.5352
 3079TIP3   OH2 9200   4.330   0.685   0.297 -0.1021  0.8082 -0.2923
 3079TIP3    H1 9201   4.286   0.624   0.356  0.5003  1.1304  0.5151
 3079TIP3    H2 9202   4.340   0.766   0.349 -0.9820  1.6339 -1.3703
 3080TIP3   OH2 9203   1.857   3.736   4.148  0.5099 -0.0619 -0.3766
 3080TIP3    H1 9204   1.781   3.769   4.197  0.2147 -0.2784 -0.6843
 3080TIP3    H2 9205   1.926   3.728   4.214  0.4596  0.7470 -0.2139
 3081TIP3   OH2 9206   4.934   6.614   0.973 -0.4374  0.1538  0.2119
 3081TIP3    H1 9207   4.962   6.700   0.943 -0.8409  0.0061 -0.6268
 3081TIP3    H2 9208   5.004   6.555   0.944  0.1256  0.2625  1.2955
 3082TIP3   OH2 9209   0.870   5.535   1.388 -0.0957  0.2468  0.1607
 3082TIP3    H1 9210   0.799   5.490   1.434 -1.2812  0.9635 -0.9065
 3082TIP3    H2 9211   0.912   5.467   1.336 -0.0688 -0.1604  0.7072
 3083TIP3   OH2 9212   0.491   4.235   0.342  0.2180 -0.3744  0.1790
 3083TIP3    H1 9213   0.481   4.327   0.366 -1.3183 -0.1020 -1.3483
 3083TIP3    H2 9214   0.402   4.199   0.344  0.8583 -2.0370  1.4153
 3084TIP3   OH2 9215   0.112   3.385   5.611  0.3466 -0.2437 -0.6810
 3084TIP3    H1 9216   0.142   3.474   5.591  0.4971 -0.4455 -1.3749
 3084TIP3    H2 9217   0.189   3.330   5.598  0.2438 -0.4867 -0.2926
 3085TIP3   OH2 9218   5.023   5.491   0.750 -0.2553  0.2106  0.0105
 3085TIP3    H1 9219   5.102   5.480   0.803  0.2668  2.2216 -0.2695
 3085TIP3    H2 9220   4.951   5.491   0.814  0.3388  2.2385  0.7732
 3086TIP3   OH2 9221   2.155   3.566   2.262  0.2475 -0.1291 -0.1256
 3086TIP3    H1 9222   2.089   3.633   2.244  1.2839  0.4314 -2.1917
 3086TIP3    H2 9223   2.163   3.565   2.357 -1.6371  0.8368  0.0856
 3087TIP3   OH2 9224   1.532   0.757   1.650 -0.3753  0.2069 -0.2321
 3087TIP3    H1 9225   1.476   0.831   1.626  0.8760  1.0821 -0.5635
 3087TIP3    H2 9226   1.621   0.791   1.643  0.2270 -1.2523 -0.0882
 3088TIP3   OH2 9227   1.768   5.089   1.187  0.1501 -0.0028 -0.0831
 3088TIP3    H1 9228   1.855   5.093   1.227  0.3783  0.3807 -0.6031
 3088TIP3    H2 9229   1.785   5.061   1.097 -0.1605  1.0734 -0.4867
 3089TIP3   OH2 9230   6.144   6.154   1.300 -0.0478  0.9031 -0.3245
 3089TIP3    H1 9231   6.228   6.193   1.322  0.8137 -0.5303 -0.9348
 3089TIP3    H2 9232   6.141   6.155   1.204  0.0459 -0.5756 -0.3630
 3090TIP3   OH2 9233   1.529   4.313   5.513  0.0873  0.0113  0.5049
 3090TIP3    H1 9234   1.610   4.264   5.521  0.9026  1.3403  0.6772
 3090TIP3    H2 9235   1.460   4.246   5.513  1.2609 -1.3204 -1.7644
 3091TIP3   OH2 9236   2.738   1.108   2.434  0.1804  0.5580 -0.0633
 3091TIP3    H1 9237   2.716   1.114   2.341 -0.3232  0.9228  0.0734
 3091TIP3    H2 9238   2.824   1.067   2.436 -0.0056  0.1249 -0.6715
 3092TIP3   OH2 9239   3.707   1.259   0.587  0.0802 -0.3620  0.6936
 3092TIP3    H1 9240   3.635   1.257   0.650  0.7443  0.2297  1.4934
 3092TIP3    H2 9241   3.754   1.177   0.601  0.3008 -0.1744  1.0663
 3093TIP3   OH2 9242   3.794   0.228   2.375  0.2502 -0.0429 -0.2269
 3093TIP3    H1 9243   3.795   0.321   2.395 -2.5137 -0.2401  1.2700
 3093TIP3    H2 9244   3.886   0.201   2.382  0.8837  2.1802  1.1079
 3094TIP3   OH2 9245   1.109   3.525   4.157  0.6181 -0.1874  0.2018
 3094TIP3    H1 9246   1.159   3.525   4.075 -2.2139 -3.5977 -1.8002
 3094TIP3    H2 9247   1.173   3.500   4.224  2.7211  1.3852 -1.0949
 3095TIP3   OH2 9248   2.925   1.675   5.836 -0.4017 -0.3749  0.0631
 3095TIP3    H1 9249   2.953   1.729   5.762  0.8899  0.6958  1.2993
 3095TIP3    H2 9250   2.915   1.587   5.798 -1.5508  0.4674 -1.7640
 3096TIP3   OH2 9251   4.195   1.852   3.836  0.2632 -0.1754 -0.1941
 3096TIP3    H1 9252   4.190   1.859   3.741 -1.5374 -1.0011 -0.1971
 3096TIP3    H2 9253   4.120   1.902   3.867  1.3599  0.8796  0.8716
 3097TIP3   OH2 9254   0.236   6.554   5.382  0.7154 -0.1944  0.3667
 3097TIP3    H1 9255   0.143   6.551   5.360  0.1158  0.4725  2.5195
 3097TIP3    H2 9256   0.280   6.520   5.305 -1.3251 -0.7229 -0.6426
 3098TIP3   OH2 9257   1.840   2.675   3.208  0.3170 -0.1922 -0.3605
 3098TIP3    H1 9258   1.781   2.687   3.133 -0.1556 -0.8301 -0.0944
 3098TIP3    H2 9259   1.834   2.757   3.257  0.7119  0.2770 -1.0671
 3099TIP3   OH2 9260   1.263   5.329   2.685  0.5447  0.3684  0.5356
 3099TIP3    H1 9261   1.170   5.338   2.665  0.3186  0.3157  1.5281
 3099TIP3    H2 9262   1.269   5.346   2.779  1.4071 -0.5810  0.6597
 3100TIP3   OH2 9263   2.838   4.185   3.668  0.1756  0.1482 -0.2538
 3100TIP3    H1 9264   2.829   4.148   3.580 -2.4771  0.1668 -0.0865
 3100TIP3    H2 9265   2.846   4.279   3.655 -0.6746  0.1978 -0.5032
 3101TIP3   OH2 9266   6.279   6.498   4.275  0.2451  0.0743  0.0583
 3101TIP3    H1 9267   6.355   6.556   4.263 -0.3330  0.5278 -1.6766
 3101TIP3    H2 9268   6.294   6.456   4.360  3.1219 -0.8474 -0.7923
 3102TIP3   OH2 9269   5.806   0.044   3.093  0.0572  0.3870 -0.1287
 3102TIP3    H1 9270   5.780   0.055   3.001  1.0660  2.8811 -0.2044
 3102TIP3    H2 9271   5.845   0.128   3.116  1.0062 -0.6308  2.2253
 3103TIP3   OH2 9272   3.344   3.852   4.147  0.9586  0.0807  0.0956
 3103TIP3    H1 9273   3.293   3.785   4.193  2.7099 -0.6334  1.0924
 3103TIP3    H2 9274   3.387   3.805   4.076  0.1193  0.7169 -0.8631
 3104TIP3   OH2 9275   1.092   5.166   1.801 -0.1436 -0.2547 -0.2338
 3104TIP3    H1 9276   1.141   5.235   1.845 -0.5013  0.4271 -0.8915
 3104TIP3    H2 9277   1.035   5.130   1.870  0.7736 -0.6096  0.3676
 3105TIP3   OH2 9278   0.603   0.801   1.418  0.1473 -0.6248  0.4972
 3105TIP3    H1 9279   0.598   0.709   1.395  0.1921 -0.6974  0.7716
 3105TIP3    H2 9280   0.513   0.833   1.412  0.2953 -0.4040 -0.7302
 3106TIP3   OH2 9281   4.204   5.813   0.661  0.0313  0.1369  0.2703
 3106TIP3    H1 9282   4.206   5.908   0.673  0.2911  0.0581  0.8755
 3106TIP3    H2 9283   4.268   5.780   0.724  0.9033 -0.3545 -0.8255
 3107TIP3   OH2 9284   5.167   5.235   1.619  0.6399 -0.1516  0.1451
 3107TIP3    H1 9285   5.166   5.311   1.677 -2.0556  0.4080 -0.4779
 3107TIP3    H2 9286   5.191   5.269   1.534 -0.5727  0.0446 -0.1352
 3108TIP3   OH2 9287   5.000   6.452   5.330 -0.3294 -0.0651 -0.0777
 3108TIP3    H1 9288   4.909   6.464   5.304  0.0473 -0.4155 -1.6887
 3108TIP3    H2 9289   5.050   6.504   5.268  0.6293 -0.8139  0.0357
 3109TIP3   OH2 9290   0.844   0.909   3.859  0.1418  0.2683  0.2905
 3109TIP3    H1 9291   0.883   0.841   3.916 -0.1712 -2.0652 -2.0816
 3109TIP3    H2 9292   0.750   0.897   3.870  0.0854  0.4661  0.0221
 3110TIP3   OH2 9293   4.007   6.327   1.338 -0.3659  0.1586 -0.0312
 3110TIP3    H1 9294   4.009   6.357   1.247 -1.4670 -0.6963 -0.3657
 3110TIP3    H2 9295   4.015   6.232   1.332 -1.1264  0.0362  0.7233
 3111TIP3   OH2 9296   2.146   2.501   3.408  0.0646 -0.3021  0.3333
 3111TIP3    H1 9297   2.237   2.520   3.383 -0.7633  0.7627 -2.2081
 3111TIP3    H2 9298   2.124   2.421   3.360 -0.5660 -0.1093  0.2890
 3112TIP3   OH2 9299   5.718   2.092   5.012  0.2014 -0.4582 -0.3113
 3112TIP3    H1 9300   5.665   2.107   5.090 -0.1657 -2.1778 -0.2032
 3112TIP3    H2 9301   5.798   2.142   5.028  0.8155 -2.0330  1.9153
 3113TIP3   OH2 9302   2.022   5.493   2.862 -0.0805  0.2276 -0.0238
 3113TIP3    H1 9303   2.040   5.442   2.941  3.5106  1.4666  0.1036
 3113TIP3    H2 9304   1.948   5.448   2.821  0.7161 -3.0125  1.7956
 3114TIP3   OH2 9305   6.340   4.529   4.957  0.2177 -0.0570 -0.1671
 3114TIP3    H1 9306   6.318   4.616   4.923 -0.4047  1.1246  2.9010
 3114TIP3    H2 9307   6.319   4.469   4.885 -1.8957  2.0810 -1.5034
 3115TIP3   OH2 9308   4.363   1.056   4.861 -0.1103 -0.1611  0.6248
 3115TIP3    H1 9309   4.413   1.040   4.780 -0.9518  0.5577 -0.0592
 3115TIP3    H2 9310   4.323   0.972   4.881 -1.0937 -0.0127 -0.5701
 3116TIP3   OH2 9311   0.575   5.354   0.976 -0.0390 -0.3833 -0.3702
 3116TIP3    H1 9312   0.638   5.422   0.953  0.6720 -1.0339 -0.3871
 3116TIP3    H2 9313   0.546   5.320   0.891  1.6946 -1.9742 -0.3796
 3117TIP3   OH2 9314   5.699   0.733   1.325  0.1239  0.1360  0.2105
 3117TIP3    H1 9315   5.734   0.821   1.314 -1.5239  0.6004 -1.7142
 3117TIP3    H2 9316   5.611   0.736   1.288  0.1638 -2.4186 -0.3158
 3118TIP3   OH2 9317   4.629   2.430   2.419 -0.5632  0.3537 -0.3201
 3118TIP3    H1 9318   4.563   2.438   2.488 -0.5859 -0.3536 -0.2510
 3118TIP3    H2 9319   4.640   2.519   2.385 -1.0063  0.5988  0.1744
 3119TIP3   OH2 9320   4.730   2.459   4.186 -0.0610  0.2212  0.4119
 3119TIP3    H1 9321   4.656   2.436   4.242 -0.8504  0.4017 -0.5364
 3119TIP3    H2 9322   4.696   2.527   4.128  0.6300 -0.2485 -0.5535
 3120TIP3   OH2 9323   6.328   6.703   2.753  0.0935 -0.6854 -0.1386
 3120TIP3    H1 9324   6.273   6.769   2.713  1.4432  0.1542 -0.6941
 3120TIP3    H2 9325   6.325   6.723   2.847 -0.1241 -0.3285 -0.2204
 3121TIP3   OH2 9326   0.314   2.798   5.396 -0.5647 -0.4505  0.5265
 3121TIP3    H1 9327   0.316   2.888   5.364  2.4873 -0.2476  1.0584
 3121TIP3    H2 9328   0.382   2.794   5.462 -1.2768 -2.9411  1.2206
 3122TIP3   OH2 9329   0.947   1.224   2.580  0.0497 -0.3742 -0.2553
 3122TIP3    H1 9330   0.888   1.221   2.505 -1.3758 -0.5790  0.8367
 3122TIP3    H2 9331   0.957   1.133   2.607  0.2884 -0.2743  0.0022
 3123TIP3   OH2 9332   3.210   1.829   4.442 -0.0918 -0.0038  0.2902
 3123TIP3    H1 9333   3.155   1.891   4.394 -0.0080 -0.7466 -0.7983
 3123TIP3    H2 9334   3.300   1.854   4.419 -0.0709 -0.9368 -0.7206
 3124TIP3   OH2 9335   3.293   1.209   4.048 -0.1735 -0.1273  0.4894
 3124TIP3    H1 9336   3.295   1.282   4.110 -1.3019  1.1856 -0.9203
 3124TIP3    H2 9337   3.369   1.156   4.070  0.9111  1.6929  1.3437
 3125TIP3   OH2 9338   3.888   3.869   5.312  0.3460  0.0533  0.0669
 3125TIP3    H1 9339   3.885   3.885   5.217  1.6376  1.3051  0.1924
 3125TIP3    H2 9340   3.797   3.854   5.337 -0.0387 -0.1166 -1.3415
 3126TIP3   OH2 9341   4.944   4.995   0.028 -0.0623 -0.0339  0.2736
 3126TIP3    H1 9342   4.943   5.004   0.123  0.0902  0.2323  0.2494
 3126TIP3    H2 9343   5.016   5.051  -0.001  0.4776 -0.8150  0.0720
 3127TIP3   OH2 9344   3.641   0.632   4.197  0.3925 -0.6587  0.4045
 3127TIP3    H1 9345   3.703   0.579   4.248 -1.2777 -0.3056  2.9717
 3127TIP3    H2 9346   3.665   0.722   4.215  0.8445 -0.4843 -0.9092
 3128TIP3   OH2 9347   5.980   4.309   1.569 -0.0232 -0.3288  0.1457
 3128TIP3    H1 9348   5.949   4.286   1.657 -0.4962  0.1867  0.1209
 3128TIP3    H2 9349   6.075   4.298   1.574 -0.1183 -1.0426  0.4951
 3129TIP3   OH2 9350   6.573   0.460   2.131 -0.5253 -0.2943 -0.6739
 3129TIP3    H1 9351   6.516   0.523   2.175  0.5274  0.4482 -0.3364
 3129TIP3    H2 9352   6.598   0.503   2.049  0.5778 -0.0596 -0.2251
 3130TIP3   OH2 9353   6.459   6.614   3.251  0.0641  0.2025 -0.2403
 3130TIP3    H1 9354   6.366   6.627   3.267  0.4189  0.8182  1.6581
 3130TIP3    H2 9355   6.490   6.567   3.329  1.0852 -1.3254 -1.5010
 3131TIP3   OH2 9356   4.912   5.311   5.463  0.4516  0.4825 -0.4261
 3131TIP3    H1 9357   4.955   5.321   5.548  3.3745 -1.9927 -1.4260
 3131TIP3    H2 9358   4.866   5.228   5.469  3.1543 -1.2786 -2.0244
 3132TIP3   OH2 9359   5.285   2.223   4.339  0.4043 -0.0886 -0.0506
 3132TIP3    H1 9360   5.257   2.314   4.347  2.2962  0.4005  1.5616
 3132TIP3    H2 9361   5.322   2.217   4.251  1.5148  1.0819  0.3153
 3133TIP3   OH2 9362   0.864   4.464   1.652  0.7634  0.2935 -0.0836
 3133TIP3    H1 9363   0.925   4.470   1.726  1.2172  0.8790 -0.5013
 3133TIP3    H2 9364   0.904   4.399   1.594  0.5647  0.0638  0.0354
 3134TIP3   OH2 9365   0.094   6.174   4.166 -0.2709 -0.2269 -0.5599
 3134TIP3    H1 9366   0.065   6.129   4.246  0.0236  0.6770  0.0767
 3134TIP3    H2 9367   0.016   6.222   4.137 -0.0951  0.2589 -0.2333
 3135TIP3   OH2 9368   2.060   5.081   2.470  0.6825  0.1173  1.0449
 3135TIP3    H1 9369   2.035   5.111   2.382 -0.3656  0.7873  1.5491
 3135TIP3    H2 9370   2.020   4.995   2.478 -2.3234  1.4557  2.1082
 3136TIP3   OH2 9371   2.282   6.029   5.163  0.1352 -0.0493 -0.4292
 3136TIP3    H1 9372   2.205   6.085   5.167  1.0518  1.6306 -3.2614
 3136TIP3    H2 9373   2.264   5.968   5.092  0.2040 -1.7490  0.9584
 3137TIP3   OH2 9374   3.666   6.454   4.053 -0.6561 -0.4822  0.7836
 3137TIP3    H1 9375   3.585   6.502   4.070 -0.0214  1.0674 -0.2736
 3137TIP3    H2 9376   3.645   6.397   3.980 -0.6250  0.4455  0.0324
 3138TIP3   OH2 9377   2.280   0.646   1.023 -0.0118 -0.3837 -0.2919
 3138TIP3    H1 9378   2.313   0.677   0.939 -0.0561  0.4221 -0.0259
 3138TIP3    H2 9379   2.344   0.677   1.087 -0.9643  0.7290  0.1746
 3139TIP3   OH2 9380   0.033   0.691   1.337 -0.2960 -0.2156  0.1472
 3139TIP3    H1 9381  -0.055   0.728   1.334 -0.9730 -1.7788 -2.0859
 3139TIP3    H2 9382   0.023   0.608   1.384  0.1668 -0.0316  0.5841
 3140TIP3   OH2 9383   5.683   4.955   3.048 -0.0782  0.2999 -0.5040
 3140TIP3    H1 9384   5.733   5.018   2.996  2.0192 -0.8527 -0.0149
 3140TIP3    H2 9385   5.728   4.872   3.035 -0.1390 -0.2596  2.2007
 3141TIP3   OH2 9386   4.645   4.490   4.549  0.2559  0.5269 -0.1993
 3141TIP3    H1 9387   4.608   4.504   4.461  0.6789 -0.3581 -0.5323
 3141TIP3    H2 9388   4.658   4.578   4.584  1.9133  0.9840 -1.8021
 3142TIP3   OH2 9389   4.989   4.480   2.874  0.1351  0.0129  0.0687
 3142TIP3    H1 9390   5.033   4.509   2.794  0.0496  0.1189  0.0610
 3142TIP3    H2 9391   5.060   4.447   2.929  0.1090 -0.8152 -0.3746
 3143TIP3   OH2 9392   6.552   0.310   3.633  0.4010  0.3422  0.4452
 3143TIP3    H1 9393   6.619   0.371   3.664  0.2582  1.9657 -2.1817
 3143TIP3    H2 9394   6.594   0.260   3.563 -0.4030 -0.4778  0.5195
 3144TIP3   OH2 9395   0.636   0.036   3.892  0.1933 -0.2086  0.3219
 3144TIP3    H1 9396   0.551   0.054   3.851  0.0549 -1.6171 -0.0818
 3144TIP3    H2 9397   0.614  -0.006   3.975  0.4982  0.8693  0.9659
 3145TIP3   OH2 9398   0.793   0.553   1.170  0.3685 -0.4197 -0.5831
 3145TIP3    H1 9399   0.883   0.546   1.137  0.8351 -0.7115  0.6880
 3145TIP3    H2 9400   0.803   0.558   1.265 -1.0275 -1.5849 -0.3438
 3146TIP3   OH2 9401   1.364   2.837   0.339  0.4496 -0.5714  1.0483
 3146TIP3    H1 9402   1.316   2.761   0.305 -0.2112  0.2333  0.0980
 3146TIP3    H2 9403   1.326   2.853   0.426 -0.9182 -0.0740  0.3962
 3147TIP3   OH2 9404   1.177   2.248   4.875 -0.2963  0.7605 -0.1147
 3147TIP3    H1 9405   1.168   2.155   4.853  0.5037  0.2544  1.5046
 3147TIP3    H2 9406   1.172   2.293   4.791  0.0717 -0.8110 -1.0322
 3148TIP3   OH2 9407   2.189   0.557   0.176 -0.3713 -0.0663  0.7347
 3148TIP3    H1 9408   2.195   0.652   0.187  0.9599 -0.1905  1.2940
 3148TIP3    H2 9409   2.119   0.529   0.234 -1.7086  0.7189 -0.4547
 3149TIP3   OH2 9410   4.916   1.527   0.709  0.9220  0.0698  0.1088
 3149TIP3    H1 9411   4.950   1.604   0.663 -0.0929  0.0289 -0.7342
 3149TIP3    H2 9412   4.836   1.557   0.752 -0.0974 -0.7515 -1.1413
 3150TIP3   OH2 9413   0.567   2.504   2.152  0.1798  0.0167 -0.6068
 3150TIP3    H1 9414   0.494   2.488   2.093 -1.1009 -0.2757  0.9900
 3150TIP3    H2 9415   0.527   2.513   2.238  1.9178  1.1271  0.1413
 3151TIP3   OH2 9416   1.165   2.639   1.814  0.0523  0.0495  0.3415
 3151TIP3    H1 9417   1.150   2.733   1.826 -0.1295  0.7812 -4.0137
 3151TIP3    H2 9418   1.260   2.630   1.804  0.2308 -0.5365  2.2753
 3152TIP3   OH2 9419   2.359   0.280   0.635 -0.4172  0.4599 -0.1623
 3152TIP3    H1 9420   2.291   0.281   0.568 -1.1610  1.1937  0.5832
 3152TIP3    H2 9421   2.416   0.354   0.614 -0.5632  0.5977 -0.0710
 3153TIP3   OH2 9422   2.768   1.071   3.716  0.6490 -0.3780  0.3134
 3153TIP3    H1 9423   2.785   1.054   3.623  0.0542  0.7556 -0.0260
 3153TIP3    H2 9424   2.689   1.021   3.735  0.7401 -0.5674  0.1996
 3154TIP3   OH2 9425   1.894   3.202   4.570  0.0347  0.3944  0.1735
 3154TIP3    H1 9426   1.846   3.140   4.515  0.3942  1.1454 -1.0298
 3154TIP3    H2 9427   1.826   3.253   4.613 -0.2569 -0.2210  0.4560
 3155TIP3   OH2 9428   4.777   0.906   1.529  0.4648 -0.1569 -0.7793
 3155TIP3    H1 9429   4.825   0.939   1.453  0.5932  0.3646 -0.4771
 3155TIP3    H2 9430   4.693   0.951   1.526  0.3153 -0.4389 -0.8377
 3156TIP3   OH2 9431   1.328   5.403   4.651  1.0295  0.3790  0.0084
 3156TIP3    H1 9432   1.289   5.414   4.738  1.7494 -2.0873  0.7205
 3156TIP3    H2 9433   1.398   5.468   4.648  0.4394  1.0923  0.8818
 3157TIP3   OH2 9434   2.062   6.441   3.936  0.0106 -0.0642 -0.4502
 3157TIP3    H1 9435   2.063   6.536   3.946  0.9455 -0.0277 -0.7354
 3157TIP3    H2 9436   2.148   6.420   3.898  0.1620 -1.1053  0.4054
 3158TIP3   OH2 9437   1.588   4.000   3.496 -0.1932 -0.7306 -0.3919
 3158TIP3    H1 9438   1.528   4.040   3.559 -0.0562 -0.9887 -0.0963
 3158TIP3    H2 9439   1.614   3.918   3.537  1.8443  0.2246  0.3485
 3159TIP3   OH2 9440   5.699   5.657   4.215  0.6503 -0.5162  0.5753
 3159TIP3    H1 9441   5.665   5.699   4.293  2.7361  1.5143  0.5118
 3159TIP3    H2 9442   5.715   5.729   4.154  0.2826 -1.9056 -1.2633
 3160TIP3   OH2 9443   1.352   6.281   3.711 -0.2394 -0.0696 -0.0706
 3160TIP3    H1 9444   1.276   6.269   3.768 -0.3193  0.0466 -0.1518
 3160TIP3    H2 9445   1.338   6.221   3.638  0.4342 -1.0624  0.6076
 3161TIP3   OH2 9446   4.344   1.995   2.673  0.4468 -0.4271  0.3507
 3161TIP3    H1 9447   4.303   2.067   2.625  0.5019 -1.6459 -1.6397
 3161TIP3    H2 9448   4.436   1.999   2.648  0.6176 -0.6621  0.9266
 3162TIP3   OH2 9449   5.194   3.803   0.706  0.3555 -0.1041  0.5880
 3162TIP3    H1 9450   5.133   3.863   0.664 -0.2661  0.5894  2.3824
 3162TIP3    H2 9451   5.214   3.738   0.639 -2.9557 -0.8291  0.1327
 3163TIP3   OH2 9452   4.675   6.215   3.855 -0.5875 -0.1821  0.4783
 3163TIP3    H1 9453   4.581   6.216   3.870 -0.7049  1.3871 -0.1159
 3163TIP3    H2 9454   4.702   6.306   3.868  0.6729 -0.4112 -0.3389
 3164TIP3   OH2 9455   2.342   0.369   3.659 -0.1965 -0.2340  0.2350
 3164TIP3    H1 9456   2.269   0.363   3.720 -0.1253 -0.1504  0.3296
 3164TIP3    H2 9457   2.306   0.339   3.575 -0.1443 -0.8986  0.4433
 3165TIP3   OH2 9458   1.385   3.222   0.987 -0.4486 -0.3108  0.0853
 3165TIP3    H1 9459   1.313   3.260   0.936 -0.2415  0.7663  0.5675
 3165TIP3    H2 9460   1.449   3.293   0.995  0.0649 -0.8405  0.8057
 3166TIP3   OH2 9461   0.630   1.690   5.551 -0.1495  0.0185 -0.6803
 3166TIP3    H1 9462   0.675   1.774   5.565 -0.9215  0.1494  1.3541
 3166TIP3    H2 9463   0.687   1.625   5.593 -0.5580 -0.1726 -0.4116
 3167TIP3   OH2 9464   6.490   3.230   3.026  0.3838 -0.2323 -0.1466
 3167TIP3    H1 9465   6.482   3.139   2.998  0.7648 -0.3744  0.1957
 3167TIP3    H2 9466   6.502   3.225   3.121 -0.1177  0.2018 -0.0534
 3168TIP3   OH2 9467   4.006   4.864   2.378 -0.5616 -0.2227 -0.0314
 3168TIP3    H1 9468   4.073   4.836   2.316  1.0615 -0.7370  1.8452
 3168TIP3    H2 9469   3.997   4.958   2.363  0.9458 -0.0514 -0.0368
 3169TIP3   OH2 9470   0.937   1.184   5.134 -0.4944  0.2961  0.3777
 3169TIP3    H1 9471   0.868   1.188   5.201 -0.4809 -1.4521  0.5274
 3169TIP3    H2 9472   0.889   1.188   5.051 -0.8547 -1.4148  0.4755
 3170TIP3   OH2 9473   1.447   4.252   3.845  0.1173 -0.4420  0.3894
 3170TIP3    H1 9474   1.465   4.176   3.791  2.3241  0.6784 -0.5861
 3170TIP3    H2 9475   1.424   4.321   3.782 -0.5639  0.0476  1.1528
 3171TIP3   OH2 9476   1.779   0.984   0.557 -0.1842 -0.0282  0.4269
 3171TIP3    H1 9477   1.690   0.986   0.521 -1.4800  0.3878  3.3415
 3171TIP3    H2 9478   1.775   0.920   0.628  2.1937 -0.8006 -0.0586
 3172TIP3   OH2 9479   2.369   0.764   0.796  0.1047 -0.0512  0.1045
 3172TIP3    H1 9480   2.334   0.829   0.735 -0.1577 -0.3141 -0.0248
 3172TIP3    H2 9481   2.459   0.750   0.766  0.0962  0.1005  0.0067
 3173TIP3   OH2 9482   3.564   0.155   2.903  0.1110  0.3316 -0.2594
 3173TIP3    H1 9483   3.634   0.133   2.841 -1.1758  0.1567 -1.7263
 3173TIP3    H2 9484   3.484   0.151   2.850 -1.3706 -2.2047  1.9668
 3174TIP3   OH2 9485   5.042   0.737   5.386 -0.2456 -0.4525 -0.0410
 3174TIP3    H1 9486   5.077   0.773   5.304 -0.7682  0.9301  0.3163
 3174TIP3    H2 9487   4.950   0.762   5.386 -0.3112 -0.6598  0.8472
 3175TIP3   OH2 9488   6.881   6.375   3.032 -0.5099 -0.2381  0.1057
 3175TIP3    H1 9489   6.874   6.449   3.093 -0.6872 -0.3602  0.2346
 3175TIP3    H2 9490   6.831   6.403   2.955  1.1639  0.6394 -0.7152
 3176TIP3   OH2 9491   6.300   1.930   0.107  0.3734 -0.1340 -0.2961
 3176TIP3    H1 9492   6.261   1.870   0.044 -0.4459 -0.3762  0.4238
 3176TIP3    H2 9493   6.243   1.926   0.183  1.3745  0.1114  0.4948
 3177TIP3   OH2 9494   0.636   4.778   4.586 -0.1819 -0.2599  0.7917
 3177TIP3    H1 9495   0.570   4.769   4.517  1.7968 -1.7714 -1.0141
 3177TIP3    H2 9496   0.699   4.841   4.551 -0.9381  1.7857  2.8288
 3178TIP3   OH2 9497   0.418   2.778   0.358 -0.1440  0.3150  0.2067
 3178TIP3    H1 9498   0.434   2.684   0.346  2.3853  0.9187 -2.2767
 3178TIP3    H2 9499   0.474   2.801   0.432  0.0663  0.0289  0.1430
 3179TIP3   OH2 9500   6.521   2.399   0.834  0.2409  0.0793 -0.2061
 3179TIP3    H1 9501   6.564   2.395   0.749 -1.4055  1.3686 -1.1473
 3179TIP3    H2 9502   6.471   2.480   0.832 -2.2982 -1.3590  0.7880
 3180TIP3   OH2 9503   0.653   2.877   2.190  0.7380 -0.2432  0.0012
 3180TIP3    H1 9504   0.677   2.876   2.098  3.9288  0.1108  0.7079
 3180TIP3    H2 9505   0.620   2.789   2.207  0.5568 -0.4598 -1.3588
 3181TIP3   OH2 9506   1.824   4.212   0.028  0.2885 -0.0948 -0.8171
 3181TIP3    H1 9507   1.761   4.283   0.041  0.0258 -0.0159 -2.3217
 3181TIP3    H2 9508   1.885   4.246  -0.038  1.6396 -0.3529  0.2624
 3182TIP3   OH2 9509   2.043   5.445   3.153  0.1754 -0.0264 -0.5650
 3182TIP3    H1 9510   1.991   5.416   3.228  1.2533 -1.3921 -0.3037
 3182TIP3    H2 9511   2.109   5.504   3.191  0.3614 -0.2586 -0.5295
 3183TIP3   OH2 9512   6.844   3.705   2.595 -0.1734  0.0505  0.3138
 3183TIP3    H1 9513   6.792   3.670   2.523 -1.1759 -0.7160  1.3788
 3183TIP3    H2 9514   6.882   3.627   2.637  1.3005  0.5547 -0.0317
 3184TIP3   OH2 9515   2.754   2.982   0.590 -0.6390 -0.0903 -0.2988
 3184TIP3    H1 9516   2.811   3.046   0.548 -0.1905  0.0003  0.4433
 3184TIP3    H2 9517   2.795   2.897   0.573  0.0992  0.0327  0.8284
 3185TIP3   OH2 9518   3.036   1.547   0.628  0.7529 -0.2397  0.4336
 3185TIP3    H1 9519   3.104   1.490   0.663  0.3175 -1.4301 -0.6159
 3185TIP3    H2 9520   2.996   1.498   0.556 -0.3537  0.9512  0.1788
 3186TIP3   OH2 9521   0.660   3.713   3.685  0.4322  0.0088  0.3771
 3186TIP3    H1 9522   0.649   3.650   3.757  0.0559  1.6898  1.8778
 3186TIP3    H2 9523   0.711   3.666   3.619 -0.6097 -2.1412  1.0226
 3187TIP3   OH2 9524   3.429   1.052   3.341 -0.1654  0.1512 -0.0730
 3187TIP3    H1 9525   3.468   0.997   3.273 -0.4785 -0.3021  0.1076
 3187TIP3    H2 9526   3.343   1.012   3.359 -0.3807  0.6696  0.0951
 3188TIP3   OH2 9527   2.376   2.456   3.709 -0.1864 -0.0385 -0.1645
 3188TIP3    H1 9528   2.349   2.385   3.650 -0.0007 -0.1758 -0.0851
 3188TIP3    H2 9529   2.297   2.477   3.759 -0.5543  0.5873 -0.9793
 3189TIP3   OH2 9530   3.933   4.808   1.223 -0.6572 -0.2904  0.2187
 3189TIP3    H1 9531   3.936   4.893   1.180  1.2534  0.4074  1.6106
 3189TIP3    H2 9532   3.870   4.820   1.294 -1.0967 -0.3409 -0.1577
 3190TIP3   OH2 9533   5.365   1.385   1.505  0.5748  0.0211  0.6055
 3190TIP3    H1 9534   5.369   1.297   1.468  0.9866 -0.1412  1.0296
 3190TIP3    H2 9535   5.312   1.376   1.584  0.2314  0.2412  0.3982
 3191TIP3   OH2 9536   5.818   2.759   0.888  0.3144 -0.2574 -0.2687
 3191TIP3    H1 9537   5.810   2.815   0.965 -0.3677  1.0137 -1.2103
 3191TIP3    H2 9538   5.791   2.673   0.917  0.2564  0.1587  0.9509
 3192TIP3   OH2 9539   5.506   5.924   1.661 -0.2002 -0.1836 -0.3040
 3192TIP3    H1 9540   5.579   5.878   1.620 -0.0220 -1.0025  0.8857
 3192TIP3    H2 9541   5.455   5.958   1.588  1.8499  1.1995 -1.1600
 3193TIP3   OH2 9542   6.105   1.721   2.473 -0.0518  0.3171  0.2080
 3193TIP3    H1 9543   6.096   1.814   2.491  0.6305  0.1342  1.6306
 3193TIP3    H2 9544   6.029   1.681   2.515 -0.9021  0.3047 -1.2759
 3194TIP3   OH2 9545   6.388   0.057   4.921  0.2023 -0.3165 -0.6117
 3194TIP3    H1 9546   6.391   0.068   4.826 -0.9539  1.3143 -0.4908
 3194TIP3    H2 9547   6.303   0.017   4.939 -0.5224  1.3842 -0.1204
 3195TIP3   OH2 9548   2.505   3.386   5.474  0.2234  0.0640 -0.0464
 3195TIP3    H1 9549   2.596   3.403   5.453  0.1440  0.2117 -0.2630
 3195TIP3    H2 9550   2.498   3.406   5.568  0.6223 -0.7997  0.1755
 3196TIP3   OH2 9551   6.145   4.235   3.887 -0.2373 -0.0920 -0.3733
 3196TIP3    H1 9552   6.177   4.313   3.842 -0.2105  0.6612  0.9161
 3196TIP3    H2 9553   6.060   4.260   3.922  0.5707  0.0149  1.6562
 3197TIP3   OH2 9554   6.547   5.690   4.866  0.2143  0.5093  0.3779
 3197TIP3    H1 9555   6.570   5.723   4.953  1.3206  1.8099 -0.3832
 3197TIP3    H2 9556   6.630   5.659   4.830  0.3437  2.5758 -1.2792
 3198TIP3   OH2 9557   0.058   6.178   1.452 -0.0681  0.0353 -0.0541
 3198TIP3    H1 9558   0.050   6.115   1.381  0.7288 -0.2730  0.1126
 3198TIP3    H2 9559  -0.009   6.244   1.434 -1.0509 -0.9489 -0.1256
 3199TIP3   OH2 9560   6.035   2.310   1.729 -0.3799 -0.4772 -0.5057
 3199TIP3    H1 9561   5.942   2.331   1.739 -0.2540  0.2853 -0.8910
 3199TIP3    H2 9562   6.080   2.372   1.786 -0.1488 -1.4382  0.3904
 3200TIP3   OH2 9563   4.254   2.353   0.867  0.2125 -0.3693 -0.3301
 3200TIP3    H1 9564   4.226   2.338   0.777  0.3526 -1.0703 -0.2627
 3200TIP3    H2 9565   4.279   2.446   0.869 -0.1999 -0.2370 -0.8958
 3201TIP3   OH2 9566   4.854   5.307   5.183 -0.2607  0.1521 -0.0937
 3201TIP3    H1 9567   4.848   5.398   5.153  1.1038  0.0362 -0.8156
 3201TIP3    H2 9568   4.885   5.314   5.273  0.2809  0.4146 -0.2901
 3202TIP3   OH2 9569   1.237   5.257   4.080  0.1303 -0.1633 -0.0559
 3202TIP3    H1 9570   1.233   5.162   4.067  1.3354 -0.5054  1.7468
 3202TIP3    H2 9571   1.155   5.278   4.126  0.0061 -0.3645 -0.1809
 3203TIP3   OH2 9572   5.859   4.234   1.789 -0.6331  0.1931  0.0236
 3203TIP3    H1 9573   5.782   4.186   1.759 -0.8763 -0.0835  1.0848
 3203TIP3    H2 9574   5.830   4.282   1.866 -0.2995  1.7795 -0.7997
 3204TIP3   OH2 9575   4.282   0.498   0.946  0.0852 -0.4366  0.4708
 3204TIP3    H1 9576   4.348   0.432   0.923 -1.5551 -2.2086  0.5218
 3204TIP3    H2 9577   4.251   0.472   1.032 -0.3492  0.6504  0.6600
 3205TIP3   OH2 9578   2.062   5.363   5.369 -0.0089  0.4274 -0.7028
 3205TIP3    H1 9579   2.087   5.450   5.401 -0.1782  0.2141  0.0406
 3205TIP3    H2 9580   2.039   5.377   5.278 -0.0691  1.1748 -0.5837
 3206TIP3   OH2 9581   5.694   3.704   5.586 -0.1803  0.4135 -0.7125
 3206TIP3    H1 9582   5.659   3.659   5.509  0.5560 -0.3681 -0.6075
 3206TIP3    H2 9583   5.646   3.667   5.660 -1.2915  1.5742 -0.8233
 3207TIP3   OH2 9584   1.413   6.050   4.522 -0.2214 -0.0836 -0.5486
 3207TIP3    H1 9585   1.458   6.051   4.437 -0.1481  0.0723 -0.5073
 3207TIP3    H2 9586   1.346   5.982   4.512  1.6622 -2.1889  0.2347
 3208TIP3   OH2 9587   1.481   5.379   4.130  0.2131  0.3115 -0.1150
 3208TIP3    H1 9588   1.466   5.460   4.178 -0.4790  0.6667 -0.9023
 3208TIP3    H2 9589   1.397   5.333   4.134  0.6209 -0.3970  0.3810
 3209TIP3   OH2 9590   3.005   5.380   5.816 -0.0136  0.2793 -0.6999
 3209TIP3    H1 9591   3.076   5.423   5.768 -0.2748  1.2428 -0.2348
 3209TIP3    H2 9592   3.030   5.386   5.908 -1.2959  1.7973 -0.4097
 3210TIP3   OH2 9593   2.804   3.025   4.903 -0.6442 -0.4656 -0.5797
 3210TIP3    H1 9594   2.792   3.119   4.908 -1.4847 -0.6424  1.5037
 3210TIP3    H2 9595   2.735   2.989   4.959  0.1371 -2.2834 -0.7234
 3211TIP3   OH2 9596   6.334   1.016   4.713 -0.3682 -0.2181  0.0832
 3211TIP3    H1 9597   6.343   1.021   4.618 -1.8807  2.9135 -0.0201
 3211TIP3    H2 9598   6.273   0.944   4.727  0.5252 -1.2821 -1.2118
 3212TIP3   OH2 9599   7.137   4.039   1.402 -0.4125  0.2894 -1.1978
 3212TIP3    H1 9600   7.135   3.966   1.464 -1.4155  0.9757 -0.4077
 3212TIP3    H2 9601   7.206   4.015   1.340 -0.0344 -0.8516 -0.3693
 3213TIP3   OH2 9602   5.867   1.882   1.555 -0.2496 -0.4652 -0.4717
 3213TIP3    H1 9603   5.890   1.914   1.642  2.4981  0.5116 -1.4368
 3213TIP3    H2 9604   5.788   1.932   1.531 -1.2224 -0.9693  1.5054
 3214TIP3   OH2 9605   1.824   0.402   5.093 -0.7482  0.3618  0.2625
 3214TIP3    H1 9606   1.806   0.310   5.111  1.2433  0.1331  1.4276
 3214TIP3    H2 9607   1.792   0.449   5.169 -1.2654  0.5776 -0.0838
 3215TIP3   OH2 9608   5.871   2.363   4.111 -0.0971  0.1619 -0.3961
 3215TIP3    H1 9609   5.963   2.382   4.131 -1.0419  1.8589  3.1764
 3215TIP3    H2 9610   5.837   2.446   4.078 -0.6407 -0.0774 -0.4373
 3216TIP3   OH2 9611   1.057   4.673   1.625 -0.0818  0.6154 -0.3471
 3216TIP3    H1 9612   1.101   4.588   1.632  0.1955  0.7103 -0.8547
 3216TIP3    H2 9613   1.014   4.670   1.540  1.7756  1.8130 -1.3985
 3217TIP3   OH2 9614   6.627   4.032   4.936 -0.3750 -0.0561  0.2266
 3217TIP3    H1 9615   6.714   4.066   4.959 -0.1655  1.5310 -2.4483
 3217TIP3    H2 9616   6.582   4.021   5.020  1.0495  2.9147  1.5328
 3218TIP3   OH2 9617   0.425   4.020   5.635  0.1984 -0.0582  0.1575
 3218TIP3    H1 9618   0.518   4.008   5.618 -0.0008  1.4138 -2.3920
 3218TIP3    H2 9619   0.382   3.957   5.577 -0.4332  1.4704 -1.0765
 3219TIP3   OH2 9620   7.068   2.429   1.092  0.8396  0.2507  0.3251
 3219TIP3    H1 9621   7.119   2.367   1.144  1.0210 -0.5562 -0.7891
 3219TIP3    H2 9622   6.999   2.376   1.052  2.3159  0.2820 -2.4464
 3220TIP3   OH2 9623   2.605   5.092   4.699  0.4566 -0.6499  0.3449
 3220TIP3    H1 9624   2.630   5.033   4.770  2.0791 -0.3438  0.0582
 3220TIP3    H2 9625   2.544   5.154   4.740 -1.5801 -2.6735  0.5567
 3221TIP3   OH2 9626   5.006   3.928   3.003  0.8437  0.1212 -0.5880
 3221TIP3    H1 9627   4.920   3.916   2.962  1.2526 -0.7998 -1.2372
 3221TIP3    H2 9628   5.045   4.001   2.957  0.6711  0.1050 -0.7610
 3222TIP3   OH2 9629   3.525   5.925   0.208  0.3903  0.4538 -0.1058
 3222TIP3    H1 9630   3.466   5.850   0.214 -0.7692  1.2585 -0.9704
 3222TIP3    H2 9631   3.596   5.906   0.270 -0.8008 -0.5223  0.9937
 3223TIP3   OH2 9632   1.561   0.943   5.543 -0.4624 -0.3208 -0.0946
 3223TIP3    H1 9633   1.606   0.859   5.552  0.4815  0.1635 -0.2000
 3223TIP3    H2 9634   1.569   0.965   5.451 -2.0199 -0.8140 -0.3759
 3224TIP3   OH2 9635   0.711   2.903   5.812  0.3084 -0.1607  0.0328
 3224TIP3    H1 9636   0.669   2.823   5.844  1.5769 -0.1701  1.8103
 3224TIP3    H2 9637   0.724   2.957   5.890  0.7127  1.2047 -0.9343
 3225TIP3   OH2 9638   0.675   3.487   2.308  0.0802  0.2039 -0.1092
 3225TIP3    H1 9639   0.585   3.466   2.334  0.9183 -0.2758  2.6572
 3225TIP3    H2 9640   0.684   3.447   2.221 -2.5851  0.9691 -0.8430
 3226TIP3   OH2 9641   4.557   1.744   4.703 -0.0832 -0.8974  0.7571
 3226TIP3    H1 9642   4.509   1.674   4.659 -0.5194 -0.6035  0.7624
 3226TIP3    H2 9643   4.549   1.724   4.796  1.1059 -1.6936  0.7080
 3227TIP3   OH2 9644   1.465   5.899   2.860 -0.4187 -0.3692  0.2928
 3227TIP3    H1 9645   1.431   5.855   2.782  1.5031 -0.1493 -0.7238
 3227TIP3    H2 9646   1.488   5.987   2.829  1.2347 -0.5765  0.8678
 3228TIP3   OH2 9647   1.847   3.887   2.985 -0.2100 -0.1682  0.3251
 3228TIP3    H1 9648   1.821   3.826   3.055 -0.5413 -0.6261 -0.1908
 3228TIP3    H2 9649   1.899   3.953   3.030  0.0844 -0.7831  0.9184
 3229TIP3   OH2 9650   1.950   5.366   2.533 -0.4190  0.8911  0.4858
 3229TIP3    H1 9651   2.031   5.343   2.488 -0.9131  1.7722 -0.9293
 3229TIP3    H2 9652   1.943   5.303   2.604  0.5585 -0.3639 -0.4875
 3230TIP3   OH2 9653   1.556   0.843   4.708 -0.0927 -0.4191  0.3112
 3230TIP3    H1 9654   1.584   0.752   4.719 -1.7099 -1.0483 -0.4329
 3230TIP3    H2 9655   1.613   0.877   4.639 -1.1763 -1.7302 -1.3246
 3231TIP3   OH2 9656   1.681   2.041   4.992 -0.0040 -0.0307 -0.2012
 3231TIP3    H1 9657   1.684   2.126   5.036  0.0075 -0.6349  1.0310
 3231TIP3    H2 9658   1.678   1.977   5.064  0.4723 -1.0932 -1.0940
 3232TIP3   OH2 9659   0.934   4.196   2.652  0.3101  0.2665 -0.1662
 3232TIP3    H1 9660   0.909   4.106   2.631 -1.3847  0.5642  0.3735
 3232TIP3    H2 9661   0.852   4.245   2.643  0.8132  1.4311  1.3006
 3233TIP3   OH2 9662   0.867   6.704   1.797  0.2727 -0.3756 -0.4703
 3233TIP3    H1 9663   0.906   6.791   1.792 -0.0271 -0.1843  0.4136
 3233TIP3    H2 9664   0.935   6.645   1.765  0.6881  0.1204 -0.5029
 3234TIP3   OH2 9665   3.736   3.944   0.441 -0.1293 -0.8216  0.0187
 3234TIP3    H1 9666   3.657   3.894   0.462  0.0716 -1.1634 -0.0519
 3234TIP3    H2 9667   3.709   4.036   0.452 -2.0170 -0.5427 -4.6915
 3235TIP3   OH2 9668   1.662   2.176   5.430 -0.6782 -0.3452  0.0398
 3235TIP3    H1 9669   1.581   2.224   5.447 -0.0254  1.1117 -0.7438
 3235TIP3    H2 9670   1.728   2.223   5.480  0.0931 -0.0077 -1.2542
 3236TIP3   OH2 9671   3.484   6.183   0.190  0.5710  0.0485 -0.6934
 3236TIP3    H1 9672   3.494   6.088   0.197  1.3543  0.0425 -1.6811
 3236TIP3    H2 9673   3.476   6.200   0.096  1.6109  1.0639 -0.6181
 3237TIP3   OH2 9674   3.528   0.139   2.321  0.3663  0.7911 -0.2474
 3237TIP3    H1 9675   3.537   0.051   2.358  0.3388  0.4937 -0.9425
 3237TIP3    H2 9676   3.614   0.179   2.333 -0.0252  1.2072  1.4046
 3238TIP3   OH2 9677   4.818   5.639   1.198 -0.1856  0.0841  0.6790
 3238TIP3    H1 9678   4.824   5.727   1.233 -1.3260  0.4594  0.0090
 3238TIP3    H2 9679   4.865   5.584   1.260 -1.1575  0.8808  2.1680
 3239TIP3   OH2 9680   3.761   5.493   0.474 -0.0873 -0.2116 -0.1701
 3239TIP3    H1 9681   3.734   5.402   0.461 -0.1785 -0.2527  0.2751
 3239TIP3    H2 9682   3.788   5.497   0.566 -0.0402  0.1988 -0.2000
 3240TIP3   OH2 9683   5.322   2.232   1.767 -0.7972  0.2014  0.4567
 3240TIP3    H1 9684   5.322   2.317   1.810 -1.0886  0.4832 -0.0846
 3240TIP3    H2 9685   5.242   2.232   1.714 -0.2101  0.0672 -0.4484
 3241TIP3   OH2 9686   6.477   1.565   5.126  0.1912  0.6243  0.4547
 3241TIP3    H1 9687   6.550   1.624   5.144 -1.2810  1.8034  3.3411
 3241TIP3    H2 9688   6.481   1.548   5.032  3.6938  1.1936  0.3823
 3242TIP3   OH2 9689   2.894   5.532   5.106 -0.3867  0.4680 -0.2458
 3242TIP3    H1 9690   2.854   5.592   5.043  1.6630  1.7282 -0.4408
 3242TIP3    H2 9691   2.974   5.502   5.063 -0.0242 -0.2943  0.9201
 3243TIP3   OH2 9692   1.094   3.073   4.906 -0.2322 -0.1542  0.4201
 3243TIP3    H1 9693   1.097   3.088   4.812 -1.2047 -0.8334  0.2595
 3243TIP3    H2 9694   1.085   3.160   4.944 -0.5364  0.0708 -0.1548
 3244TIP3   OH2 9695   6.841   4.167   0.618 -0.5083  0.1350 -0.3976
 3244TIP3    H1 9696   6.837   4.076   0.591  0.5518 -0.0028 -0.1299
 3244TIP3    H2 9697   6.905   4.207   0.560 -0.0135  0.4003  0.3137
 3245TIP3   OH2 9698   1.983   3.854   1.341 -0.2245  0.6845 -0.0255
 3245TIP3    H1 9699   1.978   3.888   1.251 -0.3752  0.0849 -0.2509
 3245TIP3    H2 9700   1.981   3.759   1.330 -0.7446  0.6145  0.6465
 3246TIP3   OH2 9701   0.722   0.878   0.475 -0.7142  0.8415  0.4163
 3246TIP3    H1 9702   0.735   0.884   0.380 -0.9250  1.3121  0.4133
 3246TIP3    H2 9703   0.638   0.833   0.485 -0.5273  0.4855  0.3857
 3247TIP3   OH2 9704   3.982   0.082   1.206  0.1130  0.0719  0.2891
 3247TIP3    H1 9705   3.988   0.100   1.300 -0.9223  0.6996  0.2431
 3247TIP3    H2 9706   4.056   0.129   1.168 -0.4381  1.2136  0.6045
 3248TIP3   OH2 9707   0.899   1.084   0.558 -0.1286 -0.2775  0.2905
 3248TIP3    H1 9708   0.941   1.022   0.499  1.1885  0.3319  0.5546
 3248TIP3    H2 9709   0.820   1.039   0.588 -0.0449 -1.1679 -0.7767
 3249TIP3   OH2 9710   1.587   2.924   2.910  0.4409  0.1565  0.0714
 3249TIP3    H1 9711   1.640   3.003   2.915 -0.0998  0.7122 -1.8534
 3249TIP3    H2 9712   1.501   2.950   2.944  0.7035 -0.0645  0.9206
 3250TIP3   OH2 9713   3.850   4.119   0.170  0.5222 -0.0568  0.2389
 3250TIP3    H1 9714   3.784   4.172   0.215  0.5688  0.7173 -0.5865
 3250TIP3    H2 9715   3.842   4.032   0.212 -1.9093 -0.3689 -0.6665
 3251TIP3   OH2 9716   6.192   3.652   0.484  0.6866 -0.3482  0.3987
 3251TIP3    H1 9717   6.188   3.746   0.502 -0.5968 -0.1460 -0.7658
 3251TIP3    H2 9718   6.266   3.642   0.424  0.6514 -0.0300  0.3003
 3252TIP3   OH2 9719   1.961   5.534   3.519 -0.2209 -0.4389 -0.7530
 3252TIP3    H1 9720   2.014   5.557   3.595  0.6696 -1.4485 -1.0370
 3252TIP3    H2 9721   1.910   5.613   3.500  0.2565  0.1438  0.2883
 3253TIP3   OH2 9722   0.710   4.616   1.471 -0.5925 -0.4951 -0.1663
 3253TIP3    H1 9723   0.739   4.610   1.380 -1.4827 -2.7340 -0.3563
 3253TIP3    H2 9724   0.782   4.579   1.522 -0.8029 -0.8505 -0.1244
 3254TIP3   OH2 9725   5.919   5.563   0.583  0.1854 -0.5840 -0.1251
 3254TIP3    H1 9726   5.948   5.652   0.566  0.1275 -0.9637 -2.5501
 3254TIP3    H2 9727   5.999   5.514   0.602  0.2399 -0.0909  0.9873
 3255TIP3   OH2 9728   0.951   2.396   1.131  0.0599 -0.2563 -0.1268
 3255TIP3    H1 9729   0.870   2.364   1.170 -1.1914  1.1019 -1.4626
 3255TIP3    H2 9730   0.938   2.386   1.036  1.4629 -0.0103 -0.3710
 3256TIP3   OH2 9731   2.456   0.722   1.232 -0.0719 -0.0864  0.0713
 3256TIP3    H1 9732   2.466   0.640   1.279 -1.2092 -2.0063 -2.7654
 3256TIP3    H2 9733   2.533   0.727   1.175 -0.6177  0.1395 -0.6699
 3257TIP3   OH2 9734   5.896   0.664   2.880  0.1841 -0.2896  0.0364
 3257TIP3    H1 9735   5.823   0.683   2.939  0.8835  1.1669  0.4622
 3257TIP3    H2 9736   5.966   0.632   2.937  0.2838 -0.5563 -0.2302
 3258TIP3   OH2 9737   0.894   6.143   1.783 -0.2626  0.2704 -0.0692
 3258TIP3    H1 9738   0.988   6.134   1.802  0.2272 -2.6844 -3.0153
 3258TIP3    H2 9739   0.853   6.072   1.831 -0.7729  0.5449 -0.0962
 3259TIP3   OH2 9740   1.885   4.590   5.128 -0.4903 -0.2891  0.1696
 3259TIP3    H1 9741   1.835   4.579   5.048 -0.4678  1.2685 -0.0952
 3259TIP3    H2 9742   1.848   4.668   5.169  0.3030 -0.3540  1.0592
 3260TIP3   OH2 9743   1.775   3.410   4.693  0.2334  0.1493 -0.2469
 3260TIP3    H1 9744   1.827   3.485   4.666 -0.7826  0.4915 -1.3097
 3260TIP3    H2 9745   1.684   3.439   4.683 -0.1787 -1.4261 -1.2878
 3261TIP3   OH2 9746   4.969   4.585   5.821  0.2183 -0.4684  0.1044
 3261TIP3    H1 9747   4.940   4.630   5.741 -2.2681  0.8793  1.6139
 3261TIP3    H2 9748   5.053   4.546   5.798 -0.5002 -0.3523 -3.2170
 3262TIP3   OH2 9749   0.615   3.515   2.913 -0.1232  0.1970 -0.4253
 3262TIP3    H1 9750   0.681   3.454   2.880  0.4136  0.6526 -0.2194
 3262TIP3    H2 9751   0.666   3.582   2.959 -0.8333 -0.5306  1.5510
 3263TIP3   OH2 9752   5.450   4.015   1.880  0.0500  0.4890 -0.2925
 3263TIP3    H1 9753   5.372   4.019   1.935  1.0955 -1.6209  1.4901
 3263TIP3    H2 9754   5.423   3.964   1.804 -0.6642  1.0008 -0.3950
 3264TIP3   OH2 9755   5.077   4.033   4.691  0.1996  0.1182 -0.8301
 3264TIP3    H1 9756   5.004   4.001   4.638 -1.0557  1.1451  0.2277
 3264TIP3    H2 9757   5.042   4.108   4.738  1.6048 -0.0653  0.5897
 3265TIP3   OH2 9758   4.036   4.121   4.083  0.0669  0.7455  0.3197
 3265TIP3    H1 9759   4.085   4.060   4.138  1.9742  1.3036 -0.6758
 3265TIP3    H2 9760   4.101   4.183   4.051 -1.1685  1.1371 -1.6211
 3266TIP3   OH2 9761   5.687   4.165   4.563  0.0291 -0.1203  0.3319
 3266TIP3    H1 9762   5.732   4.225   4.504 -0.5487  1.7196  1.6520
 3266TIP3    H2 9763   5.688   4.210   4.648 -1.4976 -1.4542  1.1148
 3267TIP3   OH2 9764   0.507   4.073   2.643 -0.6174 -0.0929 -0.4145
 3267TIP3    H1 9765   0.522   3.979   2.633  0.5416 -0.0244  0.4561
 3267TIP3    H2 9766   0.540   4.111   2.562  0.5200 -0.3034 -0.0738
 3268TIP3   OH2 9767   6.157   3.140   2.489 -0.2555  0.1450 -0.3882
 3268TIP3    H1 9768   6.144   3.199   2.563 -1.0781 -1.4530  0.7873
 3268TIP3    H2 9769   6.247   3.156   2.461 -0.2412  1.4452  0.3275
 3269TIP3   OH2 9770   6.859   3.083   4.437 -0.1222 -0.1005  0.9484
 3269TIP3    H1 9771   6.883   3.175   4.443  2.1173 -0.4101 -1.5260
 3269TIP3    H2 9772   6.913   3.039   4.503 -0.6913  0.2217  1.6512
 3270TIP3   OH2 9773   6.299   0.802   0.652  0.1747 -0.3964  0.0491
 3270TIP3    H1 9774   6.341   0.874   0.605 -0.6511 -0.0806 -0.2162
 3270TIP3    H2 9775   6.205   0.819   0.644 -0.0265 -1.3841  0.1776
 3271TIP3   OH2 9776   1.157   4.436   0.687  0.1961  0.8557  0.0050
 3271TIP3    H1 9777   1.252   4.427   0.693  0.2186 -0.1605 -1.3355
 3271TIP3    H2 9778   1.144   4.488   0.607 -0.3776  1.0396  0.2160
 3272TIP3   OH2 9779   6.033   4.560   3.648  0.8540 -0.4892  0.6272
 3272TIP3    H1 9780   5.957   4.510   3.677  0.4834 -1.5148 -1.8766
 3272TIP3    H2 9781   5.997   4.638   3.607  1.2964  0.2588  1.6166
 3273TIP3   OH2 9782   3.976   3.031   4.723  0.0534 -0.2072  0.0010
 3273TIP3    H1 9783   4.017   3.075   4.648 -0.2398 -0.4245 -0.2912
 3273TIP3    H2 9784   3.987   2.938   4.705 -0.6947 -0.2737 -0.1582
 3274TIP3   OH2 9785   1.760   3.299   0.012 -0.4891  0.0639  0.3258
 3274TIP3    H1 9786   1.805   3.313   0.096  0.8213  0.0201 -0.3557
 3274TIP3    H2 9787   1.765   3.384  -0.032  1.0116 -0.5383 -0.7330
 3275TIP3   OH2 9788   4.418   0.316   0.771  0.2839  0.1795  0.5305
 3275TIP3    H1 9789   4.513   0.320   0.755  0.2402  0.4721  0.3458
 3275TIP3    H2 9790   4.383   0.269   0.696  0.3235 -0.2492  0.7756
 3276TIP3   OH2 9791   1.032   6.608   5.261 -0.2361  0.1130 -0.4294
 3276TIP3    H1 9792   1.051   6.674   5.194 -0.2283 -1.1318 -1.7059
 3276TIP3    H2 9793   1.090   6.534   5.239 -1.5253 -1.0174 -0.1423
 3277TIP3   OH2 9794   0.213   0.215   4.993 -0.2074  0.7562  0.4796
 3277TIP3    H1 9795   0.256   0.274   5.055  0.1408  1.8137 -0.7406
 3277TIP3    H2 9796   0.280   0.150   4.971 -0.1807  0.6673  0.8091
 3278TIP3   OH2 9797   1.739   0.197   2.234  0.2621 -0.8941  0.0166
 3278TIP3    H1 9798   1.805   0.247   2.283 -1.7414 -1.1023  3.2110
 3278TIP3    H2 9799   1.785   0.117   2.207  2.0125  0.1521 -0.2562
 3279TIP3   OH2 9800   2.492   2.400   0.193 -0.1144  0.2213 -0.0085
 3279TIP3    H1 9801   2.412   2.445   0.165  0.3325  0.9216 -0.1870
 3279TIP3    H2 9802   2.554   2.470   0.212  0.1743 -0.2849  1.0302
 3280TIP3   OH2 9803   0.338   5.788   5.060 -0.1795 -0.5890 -0.1061
 3280TIP3    H1 9804   0.345   5.848   5.134  2.3909 -2.6876  1.4923
 3280TIP3    H2 9805   0.379   5.835   4.988  1.5143 -0.2541  1.0222
 3281TIP3   OH2 9806   3.995   2.718   2.631  0.1493  0.1864 -0.6590
 3281TIP3    H1 9807   4.021   2.784   2.694 -1.7158  0.8250 -0.4863
 3281TIP3    H2 9808   4.029   2.750   2.547 -0.6257  1.3245 -0.5578
 3282TIP3   OH2 9809   4.080   1.671   4.329  0.0519 -0.1283  0.0080
 3282TIP3    H1 9810   4.085   1.710   4.242  1.6921  0.9035  0.5177
 3282TIP3    H2 9811   3.990   1.641   4.337 -2.0454  5.1150  0.1724
 3283TIP3   OH2 9812   5.507   3.103   1.196  0.0794 -0.2840  0.1815
 3283TIP3    H1 9813   5.462   3.090   1.112  0.2252  1.9500 -0.3147
 3283TIP3    H2 9814   5.568   3.175   1.179  2.9984 -2.3350  1.1699
 3284TIP3   OH2 9815   3.391   1.732   3.923  0.1945  0.2021 -0.2135
 3284TIP3    H1 9816   3.334   1.779   3.985 -1.2920  0.4207 -1.6843
 3284TIP3    H2 9817   3.451   1.800   3.890  0.3809  0.2818  0.2714
 3285TIP3   OH2 9818   5.081   1.395   4.034  0.2964 -0.4848 -0.0468
 3285TIP3    H1 9819   4.997   1.431   4.063 -0.1662 -1.2694 -0.3901
 3285TIP3    H2 9820   5.118   1.463   3.976  0.9066  0.7947  1.7405
 3286TIP3   OH2 9821   3.016   0.388   4.800 -0.4859 -0.4030 -0.0182
 3286TIP3    H1 9822   3.091   0.364   4.745 -2.3000 -0.9779 -2.4175
 3286TIP3    H2 9823   3.036   0.478   4.828  0.1032  0.3594 -2.5728
 3287TIP3   OH2 9824   2.680   5.285   4.510 -0.1791 -0.8656 -0.1458
 3287TIP3    H1 9825   2.624   5.359   4.533  1.3783  0.2350  0.2076
 3287TIP3    H2 9826   2.653   5.216   4.572 -0.1812  0.1013  0.9743
 3288TIP3   OH2 9827   5.149   0.656   4.994  0.4795 -0.3732 -0.0128
 3288TIP3    H1 9828   5.227   0.600   4.996  0.8223  0.1257  1.2802
 3288TIP3    H2 9829   5.076   0.595   4.990  0.8412 -0.9343  1.5164
 3289TIP3   OH2 9830   4.009   1.154   1.105  0.3430  0.2750  0.1034
 3289TIP3    H1 9831   4.008   1.119   1.195 -0.8885  1.5991  0.6359
 3289TIP3    H2 9832   3.965   1.087   1.053 -0.5914  0.3078  0.8281
 3290TIP3   OH2 9833   5.454   4.569   4.618 -0.1116 -0.1867  0.1528
 3290TIP3    H1 9834   5.435   4.495   4.560  0.1376 -2.1243  2.3748
 3290TIP3    H2 9835   5.370   4.613   4.629 -0.5690 -0.9699 -0.1392
 3291TIP3   OH2 9836   6.439   0.655   4.614  0.4683 -0.2809  0.6174
 3291TIP3    H1 9837   6.416   0.663   4.706  0.4012 -0.6559  0.6317
 3291TIP3    H2 9838   6.393   0.577   4.584  0.2674 -0.0041  0.1960
 3292TIP3   OH2 9839   0.816   4.583   5.133  0.0702 -0.3871 -0.3124
 3292TIP3    H1 9840   0.863   4.544   5.207 -0.2062  0.3480  0.2708
 3292TIP3    H2 9841   0.776   4.509   5.088 -0.5451 -0.7701  0.8328
 3293TIP3   OH2 9842   5.077   6.783   3.042 -0.2504  0.5330  0.6172
 3293TIP3    H1 9843   5.149   6.742   2.994 -1.5431 -2.5306  1.0626
 3293TIP3    H2 9844   5.100   6.773   3.134  0.0892  2.2393  0.7431
 3294TIP3   OH2 9845   4.924   5.580   3.984 -0.2234 -0.7879 -0.0073
 3294TIP3    H1 9846   4.886   5.655   4.030  1.7255  0.5546 -0.4590
 3294TIP3    H2 9847   4.923   5.509   4.048  1.7253  0.8200  1.9570
 3295TIP3   OH2 9848   2.956   4.422   0.778  0.0622 -0.3162  0.3557
 3295TIP3    H1 9849   2.954   4.387   0.867 -0.4382  0.4351  0.6574
 3295TIP3    H2 9850   2.924   4.351   0.723  1.7121 -1.2704  0.5795
 3296TIP3   OH2 9851   6.004   3.620   5.131  0.0596 -0.2501 -0.4263
 3296TIP3    H1 9852   5.966   3.671   5.060 -1.2543 -0.1389  0.3312
 3296TIP3    H2 9853   6.091   3.659   5.144 -0.2149  0.6047 -1.0481
 3297TIP3   OH2 9854   6.712   2.913   2.048  0.1876  0.1844  0.1169
 3297TIP3    H1 9855   6.647   2.883   2.113  0.5645 -0.3604  0.2521
 3297TIP3    H2 9856   6.795   2.914   2.096  0.9680 -2.6994 -0.9272
 3298TIP3   OH2 9857   0.548   2.423   1.423  0.0139  0.2819 -0.3812
 3298TIP3    H1 9858   0.484   2.475   1.375 -0.6435 -0.0674  0.0979
 3298TIP3    H2 9859   0.613   2.398   1.357  0.0310  1.2074 -0.7309
 3299TIP3   OH2 9860   3.720   5.762   2.997 -0.2600  0.5517 -0.2354
 3299TIP3    H1 9861   3.803   5.727   2.963 -1.0608 -0.1862 -1.5162
 3299TIP3    H2 9862   3.710   5.846   2.952 -0.4867  0.3685 -0.5297
 3300TIP3   OH2 9863   3.765   6.030   1.955  0.3766  0.2160  0.2540
 3300TIP3    H1 9864   3.748   6.096   2.022 -0.1907 -1.2031  1.6042
 3300TIP3    H2 9865   3.858   6.038   1.935 -0.1671  3.0878 -1.5626
 3301TIP3   OH2 9866   7.070   5.148   0.032 -0.1085 -0.3114  0.4472
 3301TIP3    H1 9867   6.986   5.170   0.072  0.8124  0.8331  1.9170
 3301TIP3    H2 9868   7.116   5.232   0.027  1.1464 -0.9899  0.1821
 3302TIP3   OH2 9869   0.053   0.255   1.942  0.0376 -0.5071 -0.0640
 3302TIP3    H1 9870   0.001   0.183   1.905 -0.7130 -0.3746  0.6975
 3302TIP3    H2 9871  -0.012   0.315   1.978  0.5953  1.1710 -1.7105
 3303TIP3   OH2 9872   5.981   3.670   3.982 -0.5820  0.2865 -0.5137
 3303TIP3    H1 9873   5.938   3.755   3.995 -0.3862  0.1641  1.1973
 3303TIP3    H2 9874   5.928   3.609   4.034 -0.4733 -0.5664 -1.3840
 3304TIP3   OH2 9875   4.051   0.516   0.726  0.6092  0.2517  0.0299
 3304TIP3    H1 9876   4.085   0.531   0.814  1.6367  0.4662 -0.3874
 3304TIP3    H2 9877   4.117   0.459   0.685 -0.8616 -1.5541  0.0534
 3305TIP3   OH2 9878   2.343   3.454   5.270  0.0392 -0.0163  0.0177
 3305TIP3    H1 9879   2.322   3.386   5.207  0.5397 -0.3548  0.2122
 3305TIP3    H2 9880   2.399   3.411   5.334  0.1941  0.5282  0.2524
 3306TIP3   OH2 9881   4.076   0.608   2.299  0.1144 -0.0935  0.2914
 3306TIP3    H1 9882   4.049   0.692   2.336 -0.4379 -1.2625  2.8366
 3306TIP3    H2 9883   4.153   0.583   2.351 -0.6157 -1.7847  0.6438
 3307TIP3   OH2 9884   4.655   6.081   5.466 -0.0500  0.0311 -0.1782
 3307TIP3    H1 9885   4.659   6.072   5.561  1.1904 -1.6039 -0.3459
 3307TIP3    H2 9886   4.561   6.091   5.447 -0.4285 -0.7893  1.1139
 3308TIP3   OH2 9887   6.766   5.256   2.748  0.3086  0.4201 -0.4671
 3308TIP3    H1 9888   6.695   5.319   2.760  1.4818  1.7228 -0.0248
 3308TIP3    H2 9889   6.805   5.248   2.835 -0.9526 -2.4280 -0.0502
 3309TIP3   OH2 9890   4.257   2.640   4.900  0.1137 -0.5481  0.1066
 3309TIP3    H1 9891   4.272   2.730   4.930  1.7633 -1.1034  1.0801
 3309TIP3    H2 9892   4.171   2.643   4.858  0.0738  1.4516  0.2233
 3310TIP3   OH2 9893   2.023   2.973   4.600 -0.7106  0.6430 -0.7090
 3310TIP3    H1 9894   1.999   3.063   4.620  0.9519  0.6515  1.7482
 3310TIP3    H2 9895   2.079   2.980   4.522 -1.4425  1.5843 -1.1676
 3311TIP3   OH2 9896   7.224   0.605   5.424 -0.5341  0.3014 -0.4271
 3311TIP3    H1 9897   7.235   0.632   5.333  0.7117  1.5401  0.0585
 3311TIP3    H2 9898   7.131   0.617   5.442 -0.8087 -0.0363 -1.5515
 3312TIP3   OH2 9899   3.115   5.288   4.128 -0.1236 -0.7309  0.2583
 3312TIP3    H1 9900   3.179   5.277   4.058 -0.5493  0.3912 -0.3492
 3312TIP3    H2 9901   3.064   5.207   4.128  1.8957 -2.0896  1.4468
 3313TIP3   OH2 9902   0.450   2.173   5.025  0.3585  0.0315 -0.1780
 3313TIP3    H1 9903   0.370   2.224   5.034  0.2395 -0.0244 -0.9125
 3313TIP3    H2 9904   0.425   2.096   4.974  0.7292 -0.3322  0.1752
 3314TIP3   OH2 9905   3.143   0.329   0.987  0.5446  0.1460 -0.5126
 3314TIP3    H1 9906   3.183   0.415   1.001 -1.0556  0.6581  1.3646
 3314TIP3    H2 9907   3.081   0.343   0.916  0.8682  0.3208 -0.7665
 3315TIP3   OH2 9908   6.590   2.040   5.392  0.5589  0.3094  0.4899
 3315TIP3    H1 9909   6.539   2.012   5.468 -1.2283 -1.7337 -1.3292
 3315TIP3    H2 9910   6.549   2.121   5.363 -0.2593 -0.1398  0.3654
 3316TIP3   OH2 9911   2.462   2.336   4.876  0.1307  0.0523  0.3291
 3316TIP3    H1 9912   2.540   2.390   4.869 -0.2274  0.4154 -1.2507
 3316TIP3    H2 9913   2.481   2.259   4.822 -0.8060  0.4110 -0.5394
 3317TIP3   OH2 9914   2.162   2.685   1.209  0.1163 -0.5690 -0.5320
 3317TIP3    H1 9915   2.109   2.670   1.131  0.6725  1.6647 -1.4155
 3317TIP3    H2 9916   2.213   2.763   1.189 -0.0636  0.3818  2.2626
 3318TIP3   OH2 9917   0.499   0.163   2.487 -0.4526 -0.0765 -0.4713
 3318TIP3    H1 9918   0.409   0.191   2.470 -0.1085  1.3357 -0.1263
 3318TIP3    H2 9919   0.492   0.100   2.558 -1.4023 -2.0577 -2.2261
 3319TIP3   OH2 9920   6.779   4.142   2.884 -0.6230 -0.0476 -0.4749
 3319TIP3    H1 9921   6.698   4.134   2.935 -0.0136 -2.3262  0.2445
 3319TIP3    H2 9922   6.770   4.077   2.814  0.3275  0.1112 -0.7599
 3320TIP3   OH2 9923   7.139   4.990   2.451  0.1386  0.4719  0.1031
 3320TIP3    H1 9924   7.053   5.014   2.486 -1.5157 -2.8585 -1.2898
 3320TIP3    H2 9925   7.160   4.907   2.494  2.7956  1.2354  0.4600
 3321TIP3   OH2 9926   1.169   5.303   2.044  0.0768  0.0146 -0.6500
 3321TIP3    H1 9927   1.240   5.365   2.062 -0.5178  0.2874  0.9786
 3321TIP3    H2 9928   1.194   5.224   2.092 -0.4474 -0.0817 -0.5300
 3322TIP3   OH2 9929   3.182   3.666   3.560  0.4082  0.2243  0.0256
 3322TIP3    H1 9930   3.119   3.736   3.544 -1.6873 -1.0250  2.2390
 3322TIP3    H2 9931   3.166   3.603   3.490 -0.4082  0.1991  0.2265
 3323TIP3   OH2 9932   4.113   2.294   3.702  0.1482  0.0074 -0.0828
 3323TIP3    H1 9933   4.065   2.220   3.739 -0.5475 -0.0455 -1.0558
 3323TIP3    H2 9934   4.203   2.263   3.695  0.0769 -0.3535  0.5388
 3324TIP3   OH2 9935   3.648   5.058   3.682  0.8153  0.0783 -0.2505
 3324TIP3    H1 9936   3.613   5.144   3.660  1.6818  0.5179  0.0569
 3324TIP3    H2 9937   3.572   5.009   3.713  0.5008  1.0759  0.6120
 3325TIP3   OH2 9938   0.022   4.774   3.338 -0.2010 -0.1540 -0.0610
 3325TIP3    H1 9939   0.085   4.831   3.383  0.8141 -0.6724 -0.8076
 3325TIP3    H2 9940   0.005   4.703   3.400  0.0470 -0.0824  0.0892
 3326TIP3   OH2 9941   3.082   0.545   1.925 -0.1748  0.0572 -0.6780
 3326TIP3    H1 9942   3.128   0.474   1.969  0.9624 -0.6713 -2.8933
 3326TIP3    H2 9943   3.145   0.578   1.860 -1.6123  1.3059 -1.5066
 3327TIP3   OH2 9944   4.431   0.092   0.928  0.4904  0.1471 -0.1675
 3327TIP3    H1 9945   4.503   0.129   0.978  0.5263 -0.3348  0.1466
 3327TIP3    H2 9946   4.413   0.156   0.860 -0.3697  1.3927  1.1754
 3328TIP3   OH2 9947   7.098   6.366   4.206  0.2118 -0.3839 -0.2497
 3328TIP3    H1 9948   7.010   6.399   4.189  0.4497 -0.0524 -0.8641
 3328TIP3    H2 9949   7.090   6.319   4.289 -0.1716  1.0660  0.5748
 3329TIP3   OH2 9950   1.383   4.821   4.099  0.5394 -0.1630  0.3406
 3329TIP3    H1 9951   1.447   4.784   4.039  1.2477  1.3519  0.1192
 3329TIP3    H2 9952   1.324   4.872   4.044  0.8426  0.7555  0.8423
 3330TIP3   OH2 9953   6.076   2.891   0.605 -0.7544  0.2926  0.0352
 3330TIP3    H1 9954   6.001   2.859   0.555  0.3827 -0.1398 -1.4659
 3330TIP3    H2 9955   6.084   2.829   0.678 -1.7072  0.2218  0.0910
 3331TIP3   OH2 9956   6.351   6.546   2.268 -0.8297 -0.4179  0.2616
 3331TIP3    H1 9957   6.379   6.609   2.334 -2.0673 -0.5757  0.9612
 3331TIP3    H2 9958   6.395   6.464   2.292  0.7223  0.1132 -0.6066
 3332TIP3   OH2 9959   7.239   3.818   3.824 -0.0341 -0.0691  0.5643
 3332TIP3    H1 9960   7.192   3.763   3.761  2.5890  0.2437 -1.8890
 3332TIP3    H2 9961   7.205   3.906   3.810  0.4727 -0.0171 -0.4039
 3333TIP3   OH2 9962   4.219   2.668   0.998 -0.5663 -0.4402  0.5290
 3333TIP3    H1 9963   4.193   2.744   1.051  1.9422  2.5036 -2.0309
 3333TIP3    H2 9964   4.310   2.651   1.024 -0.7311 -1.8861  0.2441
 3334TIP3   OH2 9965   7.096   6.253   3.169  0.5648  0.6991  0.9750
 3334TIP3    H1 9966   7.024   6.272   3.110 -0.9474 -1.6591  1.8920
 3334TIP3    H2 9967   7.060   6.266   3.257  0.6354 -1.9721  1.5095
 3335TIP3   OH2 9968   1.691   1.586   4.175 -0.6997 -0.1649 -0.9349
 3335TIP3    H1 9969   1.732   1.601   4.260 -2.2853 -0.4673 -0.0848
 3335TIP3    H2 9970   1.676   1.492   4.171 -0.0067 -0.2553 -1.8768
 3336TIP3   OH2 9971   4.179   3.631   1.949  0.5213  0.0852 -0.2109
 3336TIP3    H1 9972   4.259   3.597   1.911 -0.0082 -0.0912 -1.1859
 3336TIP3    H2 9973   4.142   3.688   1.881 -0.4396 -0.2379  0.0279
 3337TIP3   OH2 9974   2.591   0.519   3.502  0.4053 -0.2128 -0.2760
 3337TIP3    H1 9975   2.507   0.559   3.478  0.0462 -1.5528 -1.3619
 3337TIP3    H2 9976   2.568   0.448   3.562  0.7416 -0.6298 -0.6318
 3338TIP3   OH2 9977   0.614   3.628   0.540 -0.2182 -0.5679  0.0801
 3338TIP3    H1 9978   0.592   3.534   0.541 -2.2179 -0.1392 -0.2696
 3338TIP3    H2 9979   0.685   3.636   0.603 -0.9102 -2.1193  1.1245
 3339TIP3   OH2 9980   5.868   4.855   1.100 -0.0782 -0.1358 -0.2072
 3339TIP3    H1 9981   5.788   4.803   1.093  0.4874 -0.9586 -0.7647
 3339TIP3    H2 9982   5.939   4.790   1.095  0.6295  0.6144 -0.1110
 3340TIP3   OH2 9983   3.860   5.618   0.119 -0.2795 -0.0902 -0.3152
 3340TIP3    H1 9984   3.829   5.528   0.129 -2.6800  0.4371 -1.9704
 3340TIP3    H2 9985   3.821   5.665   0.193 -0.5293 -0.0822 -0.4514
 3341TIP3   OH2 9986   1.697   4.416   5.766 -0.2989  0.2142  0.0209
 3341TIP3    H1 9987   1.663   4.464   5.691  0.9794 -0.7532 -1.2115
 3341TIP3    H2 9988   1.624   4.360   5.794 -0.0832 -1.1697 -2.0106
 3342TIP3   OH2 9989   1.199   3.890   1.822 -0.0132  0.2595  0.2224
 3342TIP3    H1 9990   1.248   3.935   1.753  0.4568  2.7943  2.0552
 3342TIP3    H2 9991   1.265   3.858   1.883 -0.4810 -0.1466  0.5327
 3343TIP3   OH2 9992   6.560   2.055   2.630 -0.0124 -0.0372  0.2417
 3343TIP3    H1 9993   6.640   2.003   2.622 -0.0689 -0.1917  0.6454
 3343TIP3    H2 9994   6.565   2.094   2.717  0.3872  1.2416 -0.3280
 3344TIP3   OH2 9995   4.292   6.361   2.521 -0.6120  0.3756 -0.8326
 3344TIP3    H1 9996   4.346   6.296   2.476 -0.5003  1.2829 -2.0745
 3344TIP3    H2 9997   4.351   6.436   2.532 -0.6439  0.1900  0.8577
 3345TIP3   OH2 9998   2.880   0.382   0.370  0.0143  0.0865 -0.3328
 3345TIP3    H1 9999   2.924   0.408   0.289 -2.1778  2.4508 -0.8900
 3345TIP3    H210000   2.795   0.347   0.341 -0.4131  0.0563  0.8891
 3346TIP3   OH210001   0.538   3.260   0.861 -0.1750 -0.2747 -0.0213
 3346TIP3    H110002   0.448   3.230   0.852 -0.0029 -1.0160  0.6120
 3346TIP3    H210003   0.563   3.236   0.950 -0.1652  2.1742  0.7231
 3347TIP3   OH210004   4.817   0.804   4.701  0.0730 -0.0799  0.1878
 3347TIP3    H110005   4.754   0.785   4.770  0.2488 -1.4883 -0.0265
 3347TIP3    H210006   4.763   0.817   4.622  0.0196 -1.0684  0.0495
 3348TIP3   OH210007   5.097   4.026   5.607 -0.4248 -0.0747  0.1942
 3348TIP3    H110008   5.093   4.045   5.513 -1.7964 -1.2868 -0.0342
 3348TIP3    H210009   5.109   3.931   5.611 -0.7553 -0.0817  1.2288
 3349TIP3   OH210010   4.209   3.455   5.001 -0.7095  0.4601 -0.1674
 3349TIP3    H110011   4.224   3.380   4.943  0.6281  1.1306 -0.7252
 3349TIP3    H210012   4.207   3.416   5.089  0.8326 -0.1537 -0.3779
 3350TIP3   OH210013   6.541   1.546   1.776 -0.2314  0.3811 -0.2640
 3350TIP3    H110014   6.475   1.602   1.733 -0.8559  1.2165  1.6581
 3350TIP3    H210015   6.494   1.506   1.849  0.6201 -1.5179 -0.7080
 3351TIP3   OH210016   3.668   1.082   5.425  0.0346  0.1599  0.1342
 3351TIP3    H110017   3.609   1.153   5.450 -1.1147 -0.2881 -1.1842
 3351TIP3    H210018   3.693   1.041   5.508 -1.4137  0.4490  0.7417
 3352TIP3   OH210019   5.052   6.550   0.595 -0.3705 -0.2934  0.2156
 3352TIP3    H110020   5.050   6.502   0.678 -1.3655 -0.8679 -0.1311
 3352TIP3    H210021   5.100   6.492   0.535  1.5554  0.6954  0.7035
 3353TIP3   OH210022   6.793   3.732   5.246  0.2727 -0.5903  0.1139
 3353TIP3    H110023   6.884   3.720   5.218  0.6523  0.8915  0.6225
 3353TIP3    H210024   6.766   3.646   5.277  0.8808 -1.5188 -1.7393
 3354TIP3   OH210025   5.480   4.274   3.662 -0.5264 -0.5057  0.1677
 3354TIP3    H110026   5.478   4.342   3.730 -0.7360  0.1874 -0.5167
 3354TIP3    H210027   5.573   4.259   3.646 -0.4778 -0.4878  0.4207
 3355TIP3   OH210028   1.684   5.615   0.584 -0.3272 -0.1422  0.1269
 3355TIP3    H110029   1.597   5.647   0.558 -1.0582 -2.2465 -0.2045
 3355TIP3    H210030   1.666   5.552   0.654  1.1282  0.7500  1.3661
 3356TIP3   OH210031   0.365   4.888   2.146  0.7520  0.4821 -0.6200
 3356TIP3    H110032   0.307   4.924   2.214 -0.0225 -0.6552 -0.6435
 3356TIP3    H210033   0.444   4.942   2.151  0.1677  1.2979  0.2483
 3357TIP3   OH210034   4.310   1.286   5.381 -0.4554  0.1414 -0.5514
 3357TIP3    H110035   4.265   1.204   5.364  0.6674 -0.8570  1.0403
 3357TIP3    H210036   4.350   1.275   5.468 -0.5610  2.4972 -0.1290
 3358TIP3   OH210037   2.109   4.054   5.551  0.3014  0.3088  0.1373
 3358TIP3    H110038   2.125   4.074   5.459 -0.1033 -2.5190 -0.6490
 3358TIP3    H210039   2.017   4.031   5.555  0.5855 -0.7674  0.9733
 3359TIP3   OH210040   3.798   5.183   5.254 -0.1677 -0.5263  0.3684
 3359TIP3    H110041   3.725   5.129   5.224  2.4641 -3.2669 -1.8390
 3359TIP3    H210042   3.842   5.130   5.320 -0.0032  0.9506  1.4973
 3360TIP3   OH210043   1.574   2.705   3.083 -0.4693  0.1495  0.1906
 3360TIP3    H110044   1.488   2.738   3.109 -1.0560 -0.0779 -1.3219
 3360TIP3    H210045   1.592   2.748   2.999  1.1616  0.6072  0.7348
 3361TIP3   OH210046   6.830   1.527   2.322 -0.4669 -0.5279  0.0316
 3361TIP3    H110047   6.775   1.583   2.376  0.9658 -1.1555  2.3265
 3361TIP3    H210048   6.916   1.568   2.325  0.1115 -1.6769 -0.0401
 3362TIP3   OH210049   0.212   1.374   4.479 -0.3806  0.0188  0.2582
 3362TIP3    H110050   0.212   1.362   4.384  1.5728  0.4079  0.1733
 3362TIP3    H210051   0.151   1.446   4.495 -0.8959 -0.2009 -0.6619
 3363TIP3   OH210052   5.129   4.085   2.554  0.0529 -0.3073 -0.5842
 3363TIP3    H110053   5.220   4.059   2.567 -0.5523 -1.6553  1.4409
 3363TIP3    H210054   5.132   4.181   2.554  1.2803 -0.2518  1.8497
 3364TIP3   OH210055   4.369   3.303   4.673  0.4041 -0.2997  0.1739
 3364TIP3    H110056   4.364   3.271   4.763  2.8797 -1.0156  0.1289
 3364TIP3    H210057   4.375   3.223   4.620  1.3906  0.1444 -0.3963
 3365TIP3   OH210058   0.119   6.062   4.444 -0.8870  0.3466  0.0417
 3365TIP3    H110059   0.194   6.090   4.496 -0.5414 -1.4109  0.5587
 3365TIP3    H210060   0.054   6.036   4.509 -0.7073 -1.2192 -0.3659
 3366TIP3   OH210061   6.067   4.121   4.253 -0.0803  0.3514  0.4509
 3366TIP3    H110062   6.156   4.090   4.233  0.5834  0.9718  2.2929
 3366TIP3    H210063   6.041   4.070   4.330 -0.9395  0.8868  0.5225
 3367TIP3   OH210064   3.950   5.879   4.666 -0.1520 -0.3707 -0.5087
 3367TIP3    H110065   4.006   5.927   4.727  0.0773  1.0302 -1.7765
 3367TIP3    H210066   3.920   5.944   4.603 -1.7927 -1.4302 -0.9153
 3368TIP3   OH210067   0.380   3.411   1.982 -0.7983  0.3575 -0.2365
 3368TIP3    H110068   0.383   3.454   1.896 -3.7210  1.4214  0.0936
 3368TIP3    H210069   0.302   3.356   1.979  0.6051 -1.8377  0.8202
 3369TIP3   OH210070   7.014   3.541   5.281  1.3579 -0.4107  0.7411
 3369TIP3    H110071   7.074   3.470   5.261 -0.7217 -1.2333 -3.5995
 3369TIP3    H210072   6.950   3.502   5.341  0.7214 -2.0477 -0.9163
 3370TIP3   OH210073   4.733   1.752   4.163 -0.0212 -0.9600 -0.0764
 3370TIP3    H110074   4.699   1.804   4.090 -0.8115 -1.6187 -0.1876
 3370TIP3    H210075   4.777   1.816   4.219 -1.1529 -0.1285 -0.0960
 3371TIP3   OH210076   4.947   1.142   3.846  0.6521 -0.4454 -0.2109
 3371TIP3    H110077   4.890   1.116   3.919  1.0076 -2.1637 -0.4952
 3371TIP3    H210078   4.937   1.236   3.840 -1.4715 -0.5927  0.3286
 3372TIP3   OH210079   0.615   4.642   5.368  0.1077  0.0031  0.3477
 3372TIP3    H110080   0.576   4.602   5.445 -0.8714 -0.6825 -0.4661
 3372TIP3    H210081   0.619   4.735   5.388 -2.9285  0.2695  0.1259
 3373TIP3   OH210082   4.313   6.552   1.263  0.0804 -0.0632 -0.6370
 3373TIP3    H110083   4.353   6.610   1.198 -1.6465  0.6019 -1.1714
 3373TIP3    H210084   4.362   6.471   1.257  0.5811  0.3212 -2.0791
 3374TIP3   OH210085   4.680   2.391   4.702  0.1791  0.2294 -0.0083
 3374TIP3    H110086   4.660   2.357   4.789 -2.6321 -1.1516 -1.0784
 3374TIP3    H210087   4.645   2.480   4.702  1.7795  0.8921  0.7758
 3375TIP3   OH210088   3.901   1.549   1.616  0.1413 -0.2531  0.1152
 3375TIP3    H110089   3.985   1.594   1.619  0.3160 -0.5628 -0.0886
 3375TIP3    H210090   3.920   1.465   1.574 -0.2937 -0.2647 -0.0699
 3376TIP3   OH210091   2.034   1.972   5.054 -1.0084 -0.1789 -1.1678
 3376TIP3    H110092   1.977   2.043   5.026 -2.3528  0.1920  2.1150
 3376TIP3    H210093   1.974   1.898   5.070 -0.2978 -0.5154  0.0719
 3377TIP3   OH210094   3.097   6.022   3.147  0.4054  0.4188  0.4162
 3377TIP3    H110095   3.105   5.987   3.058  1.4418  1.2415  0.1742
 3377TIP3    H210096   3.123   6.114   3.139  1.6464  0.2147  1.7757
 3378TIP3   OH210097   2.726   0.249   5.700 -0.2608  0.4277  0.0268
 3378TIP3    H110098   2.791   0.230   5.632  0.5397 -2.1990  1.3860
 3378TIP3    H210099   2.700   0.340   5.684 -0.9779 -0.3467 -4.4524
 3379TIP3   OH210100   5.328   2.374   0.543 -0.3558  0.3224  0.4844
 3379TIP3    H110101   5.368   2.408   0.623 -1.0535  0.8694  0.6173
 3379TIP3    H210102   5.287   2.291   0.570  0.6617 -0.2313  0.3485
 3380TIP3   OH210103   2.157   4.046   2.620  0.0165  0.3967  0.1956
 3380TIP3    H110104   2.132   3.973   2.677  0.2861  1.0290  1.1405
 3380TIP3    H210105   2.079   4.101   2.616  0.1650  0.6186  0.3693
 3381TIP3   OH210106   3.572   1.927   3.892 -0.3494  0.1288 -0.0181
 3381TIP3    H110107   3.654   1.961   3.928 -0.9364  0.8416  0.6850
 3381TIP3    H210108   3.524   2.006   3.864 -0.3707 -0.3402 -1.3639
 3382TIP3   OH210109   2.629   5.493   0.009  1.0679  0.0034  0.0827
 3382TIP3    H110110   2.640   5.400  -0.011 -1.2531  0.3679 -4.2040
 3382TIP3    H210111   2.717   5.528   0.010  1.9152 -2.0037  0.3814
 3383TIP3   OH210112   5.615   6.430   2.634 -0.6001  0.0834  0.1262
 3383TIP3    H110113   5.706   6.407   2.655 -0.4276  0.1599 -0.4915
 3383TIP3    H210114   5.587   6.362   2.573 -1.1522 -0.2541  0.7424
 3384TIP3   OH210115   2.866   4.176   3.957  0.0191  0.0703 -0.1600
 3384TIP3    H110116   2.853   4.186   3.863  0.3598 -0.3468 -0.2545
 3384TIP3    H210117   2.864   4.081   3.972 -0.7063  0.1526  0.3539
 3385TIP3   OH210118   1.308   2.639   5.873 -0.4076  0.8159  0.3055
 3385TIP3    H110119   1.373   2.602   5.932 -1.0229  0.5837  0.8528
 3385TIP3    H210120   1.343   2.725   5.849 -0.1424  0.9039  0.9975
 3386TIP3   OH210121   3.695   5.981   2.769 -0.0536 -0.4049  0.0115
 3386TIP3    H110122   3.683   6.069   2.802  2.0288  0.1496 -0.5695
 3386TIP3    H210123   3.729   5.993   2.680  1.4480 -1.7436  0.3569
 3387TIP3   OH210124   6.929   2.563   4.897  0.3949  0.4628  0.6470
 3387TIP3    H110125   7.023   2.553   4.916  0.7647 -0.5918 -1.4560
 3387TIP3    H210126   6.925   2.630   4.830 -0.2099 -0.4180 -0.2293
 3388TIP3   OH210127   3.322   0.411   4.467  0.1789 -0.4332  0.0216
 3388TIP3    H110128   3.285   0.443   4.549  0.5228 -0.8308  0.3367
 3388TIP3    H210129   3.417   0.421   4.478  0.2130 -0.1894 -0.4552
 3389TIP3   OH210130   0.346   5.858   3.225  0.5792 -0.2945  0.2452
 3389TIP3    H110131   0.387   5.863   3.312  1.1167 -0.8755  0.0252
 3389TIP3    H210132   0.310   5.769   3.221  1.8428 -0.7798 -0.6985
 3390TIP3   OH210133   1.034   0.808   5.661  0.1391 -0.2690 -0.0712
 3390TIP3    H110134   1.119   0.788   5.623  1.9017  1.1813  2.7880
 3390TIP3    H210135   0.979   0.734   5.636  2.2799 -1.4229 -1.7523
 3391TIP3   OH210136   3.984   2.053   3.874 -0.3049  0.1144  0.2388
 3391TIP3    H110137   4.063   2.105   3.885  0.8372 -1.3386 -0.6412
 3391TIP3    H210138   3.912   2.111   3.898  1.1106  0.9809  2.6852
 3392TIP3   OH210139   6.406   1.379   5.679  0.8378  0.0796  0.0185
 3392TIP3    H110140   6.391   1.425   5.761 -1.0162 -0.0916 -0.1905
 3392TIP3    H210141   6.419   1.449   5.614 -0.0804  0.2839  0.0431
 3393TIP3   OH210142   6.441   2.674   1.687  0.3750 -0.6240 -0.3694
 3393TIP3    H110143   6.431   2.586   1.652  1.8714 -0.4429 -1.3236
 3393TIP3    H210144   6.503   2.717   1.628  0.2498  0.8320  0.5015
 3394TIP3   OH210145   0.182   5.786   0.030  0.1026  0.1563 -0.3823
 3394TIP3    H110146   0.256   5.730   0.056  1.0868  0.0576 -3.0482
 3394TIP3    H210147   0.105   5.730   0.039  0.7550 -0.7715 -0.4362
 3395TIP3   OH210148   4.126   0.871   2.116  0.2699  0.1983  0.5995
 3395TIP3    H110149   4.136   0.805   2.047 -1.2722 -1.0629  1.5170
 3395TIP3    H210150   4.037   0.905   2.103  0.1428  0.2900  1.6498
 3396TIP3   OH210151   3.174   3.500   2.780  0.4128 -0.3474  0.0960
 3396TIP3    H110152   3.234   3.561   2.822  0.3171 -0.5665  0.5638
 3396TIP3    H210153   3.133   3.551   2.710 -0.5779  0.5143  1.2496
 3397TIP3   OH210154   2.126   6.733   5.412 -0.4255 -0.8360 -0.9230
 3397TIP3    H110155   2.063   6.782   5.464  1.2644 -0.0879  0.5124
 3397TIP3    H210156   2.080   6.652   5.389 -1.7665 -0.4978  0.4086
 3398TIP3   OH210157   3.575   1.017   0.708 -0.0949  0.5862 -0.4038
 3398TIP3    H110158   3.487   1.040   0.738 -2.2646 -3.5593 -2.7183
 3398TIP3    H210159   3.601   0.944   0.764  2.3105  2.1279  0.6469
 3399TIP3   OH210160   3.398   4.176   1.658  0.4069 -0.2609  0.1189
 3399TIP3    H110161   3.322   4.231   1.639 -1.9397 -3.4307 -0.6427
 3399TIP3    H210162   3.410   4.125   1.578  1.6990 -1.6154  1.1321
 3400TIP3   OH210163   7.109   6.564   3.704  0.1438  0.5689  0.0335
 3400TIP3    H110164   7.051   6.588   3.632  1.4208  2.4437 -0.4290
 3400TIP3    H210165   7.061   6.589   3.783 -1.6087 -2.2086  0.0208
 3401TIP3   OH210166   0.951   5.711   5.001 -0.0066 -0.1468 -0.0285
 3401TIP3    H110167   0.943   5.669   5.086  2.5448 -0.1233  0.2964
 3401TIP3    H210168   0.861   5.721   4.971 -0.9037 -1.5678  1.9525
 3402TIP3   OH210169   5.444   3.407   2.773  0.3832  0.1768 -0.0878
 3402TIP3    H110170   5.360   3.370   2.746  0.6876 -0.2718 -0.4439
 3402TIP3    H210171   5.485   3.337   2.826  0.7297  0.2105 -0.3092
 3403TIP3   OH210172   3.034   6.576   2.202 -0.2591 -0.2785  0.3515
 3403TIP3    H110173   3.029   6.607   2.112  0.3730 -0.3244  0.2946
 3403TIP3    H210174   3.014   6.482   2.196 -2.7102  0.1542  0.5930
 3404TIP3   OH210175   4.417   4.587   5.527 -0.2673 -0.0314  0.1686
 3404TIP3    H110176   4.496   4.569   5.579  0.3220  1.0750 -0.2931
 3404TIP3    H210177   4.450   4.626   5.447 -1.3394  2.1440  0.7046
 3405TIP3   OH210178   2.636   2.486   1.518  0.3082 -0.0050 -0.1934
 3405TIP3    H110179   2.714   2.491   1.464  0.8226  0.6440  0.5796
 3405TIP3    H210180   2.574   2.546   1.476  0.5138  0.0899 -0.3629
 3406TIP3   OH210181   3.444   4.728   0.684 -0.0920 -0.2090 -0.1729
 3406TIP3    H110182   3.427   4.701   0.774 -0.4724  1.0358  0.1440
 3406TIP3    H210183   3.487   4.652   0.644  1.3847 -0.2938  1.4383
 3407TIP3   OH210184   4.031   6.388   4.874  0.2634 -0.4881  0.0422
 3407TIP3    H110185   4.009   6.331   4.800  0.3142 -0.1851 -0.2110
 3407TIP3    H210186   4.115   6.427   4.850 -0.2133  0.4162 -0.2281
 3408TIP3   OH210187   1.565   1.105   3.452 -0.1747 -0.0628  0.1684
 3408TIP3    H110188   1.572   1.197   3.427  0.7310 -0.3153 -0.5405
 3408TIP3    H210189   1.511   1.065   3.384 -1.4073  0.1211  1.0010
 3409TIP3   OH210190   3.566   0.822   5.316 -0.1358 -0.7899 -0.4252
 3409TIP3    H110191   3.556   0.795   5.407 -0.3446 -0.7124 -0.4227
 3409TIP3    H210192   3.579   0.917   5.322 -0.4692 -0.7386 -0.4931
 3410TIP3   OH210193  -0.008   0.836   5.666  0.5024 -0.5861  0.2846
 3410TIP3    H110194  -0.020   0.886   5.585  0.9402 -1.8201 -0.5803
 3410TIP3    H210195   0.049   0.891   5.720 -0.0963  0.4176 -0.0769
 3411TIP3   OH210196   1.295   5.829   4.823  0.3884  0.2036 -0.0699
 3411TIP3    H110197   1.329   5.828   4.734 -1.8512 -0.7249 -0.9918
 3411TIP3    H210198   1.290   5.736   4.848 -1.9889  0.2032 -0.2864
 3412TIP3   OH210199   3.057   3.098   4.112  0.2092  0.4795  0.2775
 3412TIP3    H110200   3.095   3.129   4.194  0.1353  0.1936  0.4220
 3412TIP3    H210201   3.108   3.020   4.090  1.9358  1.9614 -1.2931
 3413TIP3   OH210202   4.209   1.541   5.387  0.5085 -0.0536  0.6009
 3413TIP3    H110203   4.221   1.451   5.358  2.5116 -0.0498  1.2974
 3413TIP3    H210204   4.204   1.592   5.306  0.1335 -0.6875  0.2168
 3414TIP3   OH210205   3.908   0.830   3.657 -0.2700  0.2841  0.2183
 3414TIP3    H110206   3.894   0.867   3.744 -1.3277  0.0594  0.1586
 3414TIP3    H210207   3.973   0.760   3.670 -2.2187 -1.4348  1.3124
 3415TIP3   OH210208   0.022   4.366   4.377  0.1545  0.1292  0.4460
 3415TIP3    H110209  -0.027   4.284   4.376 -0.0265  0.1342  2.7625
 3415TIP3    H210210   0.113   4.339   4.363 -0.0194 -0.3530  0.2247
 3416TIP3   OH210211   6.176   1.759   1.250 -0.0968 -0.5851 -0.5279
 3416TIP3    H110212   6.156   1.728   1.338 -0.2166 -0.8423 -0.6433
 3416TIP3    H210213   6.148   1.851   1.249 -1.9234 -1.0884 -0.8787
 3417TIP3   OH210214   1.875   5.457   1.006 -0.2058  0.0094 -0.1630
 3417TIP3    H110215   1.963   5.439   1.040 -0.2494  1.0206  0.5335
 3417TIP3    H210216   1.827   5.491   1.082 -0.8916  0.4512 -0.7846
 3418TIP3   OH210217   5.260   0.120   0.470 -0.0663 -1.1018 -0.3492
 3418TIP3    H110218   5.185   0.085   0.422 -0.4346 -0.5254 -0.2045
 3418TIP3    H210219   5.294   0.045   0.519 -1.7969 -0.9347  1.2026
 3419TIP3   OH210220   0.050   2.627   4.082  0.0626 -0.3087 -0.4572
 3419TIP3    H110221  -0.026   2.570   4.090  0.9361 -1.8884 -2.5641
 3419TIP3    H210222   0.048   2.658   3.992  1.7482 -0.1519 -0.4853
 3420TIP3   OH210223   3.643   5.377   4.101 -0.4660  0.0633  0.3294
 3420TIP3    H110224   3.590   5.318   4.047 -0.1246  0.8529 -0.9045
 3420TIP3    H210225   3.581   5.443   4.131 -0.5763 -0.1519  0.5815
 3421TIP3   OH210226   2.778   3.936   4.048  0.4030 -0.3073 -0.1551
 3421TIP3    H110227   2.818   3.866   4.098 -0.1722 -0.0055  0.7660
 3421TIP3    H210228   2.736   3.992   4.115  0.6506  0.7711 -0.8784
 3422TIP3   OH210229   0.190   0.547   5.015 -0.7025  0.0230  0.1641
 3422TIP3    H110230   0.239   0.472   5.048  0.4806  0.5605 -0.3128
 3422TIP3    H210231   0.203   0.544   4.920 -1.2368  0.4361  0.0731
 3423TIP3   OH210232   4.110   3.430   1.431 -0.1754 -0.0700  0.2011
 3423TIP3    H110233   4.185   3.384   1.394 -0.3845  0.5189 -1.0113
 3423TIP3    H210234   4.149   3.490   1.495  0.5619  1.0623 -1.2239
 3424TIP3   OH210235   3.508   4.808   3.617  0.2697 -0.7114 -0.4797
 3424TIP3    H110236   3.436   4.754   3.583  0.5799 -0.7950 -1.0126
 3424TIP3    H210237   3.527   4.771   3.703 -1.1403  0.0754  0.2119
 3425TIP3   OH210238   0.266   3.731   5.244 -0.4572 -0.1316  0.3722
 3425TIP3    H110239   0.338   3.723   5.181 -1.6059  0.2118 -1.0392
 3425TIP3    H210240   0.189   3.702   5.196 -1.4602  0.6610  1.4461
 3426TIP3   OH210241   7.213   2.339   1.684 -0.0724  0.0987  0.1881
 3426TIP3    H110242   7.165   2.262   1.715 -0.6084  0.6979  0.8906
 3426TIP3    H210243   7.255   2.311   1.603  0.6786 -1.2925  1.0056
 3427TIP3   OH210244   0.639   1.157   4.222 -0.7827  0.0966  0.1968
 3427TIP3    H110245   0.685   1.079   4.251  1.1720  0.5335 -1.4715
 3427TIP3    H210246   0.567   1.124   4.168 -0.1372 -0.5798 -0.2736
 3428TIP3   OH210247   2.923   3.483   5.160 -0.0590 -0.3682 -0.0325
 3428TIP3    H110248   2.852   3.533   5.202  0.2414 -0.6184  0.7845
 3428TIP3    H210249   2.955   3.541   5.090 -0.7963 -0.0900 -0.1447
 3429TIP3   OH210250   5.288   2.361   3.431  0.0068 -0.5264  0.0130
 3429TIP3    H110251   5.322   2.280   3.469  1.0802 -0.1002 -0.0109
 3429TIP3    H210252   5.289   2.346   3.337  1.0229 -0.1869 -0.0397
 3430TIP3   OH210253   2.172   4.093   5.271  0.1661  0.0171  0.2010
 3430TIP3    H110254   2.241   4.032   5.245  0.6418  0.8919 -0.6856
 3430TIP3    H210255   2.110   4.092   5.199 -0.5345 -0.4225  0.7951
 3431TIP3   OH210256   3.255   3.899   2.579  0.3344 -0.3887 -0.6167
 3431TIP3    H110257   3.210   3.816   2.596 -0.7768  0.4126  0.6279
 3431TIP3    H210258   3.193   3.948   2.525  0.0055  0.4386  0.4736
 3432TIP3   OH210259   4.067   1.298   1.366 -0.2813  0.3601  0.3128
 3432TIP3    H110260   4.041   1.263   1.451  0.0597  1.3072  0.8304
 3432TIP3    H210261   3.987   1.337   1.330 -0.5970 -0.6755 -0.1454
 3433TIP3   OH210262   2.695   2.082   0.425 -0.1133 -1.0577  0.0264
 3433TIP3    H110263   2.773   2.120   0.385  0.2906 -1.6029  0.2842
 3433TIP3    H210264   2.716   2.079   0.519 -1.6739  1.7454  0.5765
 3434TIP3   OH210265   5.543   6.696   2.625  0.0857  0.0868  0.4587
 3434TIP3    H110266   5.551   6.601   2.614 -1.2969 -0.1212  1.0904
 3434TIP3    H210267   5.593   6.732   2.552 -2.6202 -1.1540 -2.2084
 3435TIP3   OH210268   2.864   5.344   1.523 -0.0980  0.0587  0.2510
 3435TIP3    H110269   2.789   5.300   1.483  0.2452 -0.4651  0.1602
 3435TIP3    H210270   2.931   5.275   1.530 -0.0745  0.1953  1.5301
 3436TIP3   OH210271   2.655   2.389   5.283 -0.6954 -0.1332  0.1999
 3436TIP3    H110272   2.672   2.482   5.270  0.9352 -0.3630  0.4920
 3436TIP3    H210273   2.740   2.352   5.305 -1.0096 -1.9628 -1.3664
 3437TIP3   OH210274   0.807   1.707   3.374 -0.0802  0.2704 -0.4490
 3437TIP3    H110275   0.740   1.775   3.366  0.9042  1.2886 -0.2608
 3437TIP3    H210276   0.889   1.751   3.355  0.5981 -0.8614 -0.2593
 3438TIP3   OH210277   1.974   0.015   2.239  0.7692 -0.0235  0.1040
 3438TIP3    H110278   2.001  -0.017   2.153  1.1561  2.9457 -0.9867
 3438TIP3    H210279   2.054   0.014   2.291  1.6888  2.5518 -1.0991
 3439TIP3   OH210280   6.579   1.746   2.774  0.0348  0.4083 -0.1543
 3439TIP3    H110281   6.531   1.822   2.807  1.9033  1.5603  0.0658
 3439TIP3    H210282   6.669   1.760   2.805  0.3900 -1.9970  0.0294
 3440TIP3   OH210283   6.731   1.898   4.407 -0.2883  0.1329 -0.2018
 3440TIP3    H110284   6.640   1.923   4.391 -0.5486 -0.0040  0.9344
 3440TIP3    H210285   6.781   1.977   4.390 -0.5244  0.0305 -1.5045
 3441TIP3   OH210286   0.237   5.192   3.838  0.2417 -1.3726  0.4466
 3441TIP3    H110287   0.165   5.161   3.893 -1.3117 -3.5913 -2.5595
 3441TIP3    H210288   0.300   5.120   3.837  2.3652  0.2697  2.4593
 3442TIP3   OH210289   5.829   0.469   4.680 -0.0788  0.2855 -0.1076
 3442TIP3    H110290   5.753   0.519   4.651 -0.5672 -0.0870  0.5055
 3442TIP3    H210291   5.858   0.421   4.603 -0.8574 -0.0698 -0.1818
 3443TIP3   OH210292   1.238   1.956   1.620 -0.1344 -0.1274 -0.1081
 3443TIP3    H110293   1.308   2.000   1.571  0.5555 -0.2864  0.7159
 3443TIP3    H210294   1.211   2.021   1.685  0.5499 -0.7335  0.7961
 3444TIP3   OH210295   3.476   5.209   0.773  0.5308 -0.3854 -0.1053
 3444TIP3    H110296   3.417   5.283   0.781  0.9005 -0.1369  0.3601
 3444TIP3    H210297   3.468   5.163   0.856 -0.1277 -1.2057 -0.5960
 3445TIP3   OH210298   5.643   5.018   5.720  0.3725  0.1456 -0.2595
 3445TIP3    H110299   5.687   5.029   5.636  1.4262  0.8156  0.3655
 3445TIP3    H210300   5.662   4.927   5.745 -0.1632 -0.1387 -0.8514
 3446TIP3   OH210301   4.539   5.189   5.576 -0.2898 -0.1723  0.4701
 3446TIP3    H110302   4.597   5.217   5.646 -1.0927 -0.2008  1.1649
 3446TIP3    H210303   4.590   5.124   5.527  0.8562  1.0126  0.0409
 3447TIP3   OH210304   3.206   0.025   0.111  0.4589 -0.0585 -0.2921
 3447TIP3    H110305   3.161   0.066   0.185  1.1337 -1.2456  0.8248
 3447TIP3    H210306   3.283   0.080   0.096 -0.6752  1.3009 -1.4357
 3448TIP3   OH210307   3.036   6.470   2.638 -0.6545 -0.0698  0.0080
 3448TIP3    H110308   3.087   6.463   2.718 -0.7464 -0.5208  0.0298
 3448TIP3    H210309   3.084   6.416   2.575 -0.1860  0.8595 -0.4465
 3449TIP3   OH210310   4.870   5.683   4.534 -0.4296  0.0793  0.5032
 3449TIP3    H110311   4.836   5.655   4.619  0.4521  1.0476  1.2016
 3449TIP3    H210312   4.793   5.714   4.486 -0.8626  0.0129  1.1484
 3450TIP3   OH210313   2.267   5.142   2.654  0.4827  0.0987 -0.0924
 3450TIP3    H110314   2.200   5.133   2.586 -2.3656  0.1424  2.4481
 3450TIP3    H210315   2.303   5.230   2.640 -0.6655  0.4529 -1.0532
 3451TIP3   OH210316   5.764   5.042   1.838 -0.1466 -0.5725 -0.4086
 3451TIP3    H110317   5.827   5.113   1.828 -0.7152  0.4380  2.3101
 3451TIP3    H210318   5.686   5.071   1.791 -0.3184  0.5877  0.5454
 3452TIP3   OH210319   6.317   3.459   3.066  0.1319 -0.2315 -0.2543
 3452TIP3    H110320   6.364   3.383   3.033 -0.3080 -1.3540  1.5792
 3452TIP3    H210321   6.302   3.440   3.158 -0.4814  1.8475  0.1291
 3453TIP3   OH210322   1.689   2.085   5.849  0.4731 -0.5917  0.2368
 3453TIP3    H110323   1.692   2.169   5.894  0.3429 -0.6326  0.3209
 3453TIP3    H210324   1.640   2.028   5.908 -0.0436 -0.5358 -0.1399
 3454TIP3   OH210325   6.322   4.581   1.850  1.0615  0.4153  0.6047
 3454TIP3    H110326   6.313   4.675   1.836 -0.1699  0.4456  1.3480
 3454TIP3    H210327   6.393   4.572   1.914  0.9058  0.8766  0.8450
 3455TIP3   OH210328   6.631   0.629   3.492  0.1945  0.2089 -0.2245
 3455TIP3    H110329   6.602   0.720   3.493  0.5676  0.3649 -1.5333
 3455TIP3    H210330   6.632   0.605   3.400  0.1672 -1.1081  0.0982
 3456TIP3   OH210331   6.188   0.647   1.777  0.0800 -0.3786  0.0951
 3456TIP3    H110332   6.107   0.599   1.795  0.0566  0.0405  1.1689
 3456TIP3    H210333   6.185   0.664   1.683 -0.0237 -2.2563 -0.2780
 3457TIP3   OH210334   0.294   3.981   3.359 -0.1016 -0.0080 -0.1157
 3457TIP3    H110335   0.305   4.027   3.442  0.8111 -0.3752 -0.0166
 3457TIP3    H210336   0.381   3.982   3.319 -0.9369  2.0752 -2.1219
 3458TIP3   OH210337   3.524   0.084   2.017  0.4180  0.0292  0.0413
 3458TIP3    H110338   3.618   0.095   2.009  0.4418 -0.1372  0.0904
 3458TIP3    H210339   3.513   0.029   2.094  0.3293 -0.8483 -0.5879
 3459TIP3   OH210340   2.973   5.224   4.458 -0.3971 -0.1831  0.5933
 3459TIP3    H110341   2.973   5.320   4.452 -1.0213 -0.1715  0.7689
 3459TIP3    H210342   2.882   5.199   4.450 -0.0862 -0.8920 -1.0488
 3460TIP3   OH210343   2.893   4.851   2.036  0.1441 -0.1044 -0.3326
 3460TIP3    H110344   2.951   4.925   2.054  0.2551 -0.2360 -0.1487
 3460TIP3    H210345   2.815   4.868   2.090  0.0225  0.0583 -0.5596
 3461TIP3   OH210346   6.884   2.484   2.504 -0.6487 -0.4809  0.4022
 3461TIP3    H110347   6.836   2.514   2.581 -1.6973 -0.7079 -0.1395
 3461TIP3    H210348   6.946   2.420   2.538  0.2687  0.8373  1.3024
 3462TIP3   OH210349   2.637   6.346   5.705  0.1838  0.2478  0.1607
 3462TIP3    H110350   2.670   6.280   5.643  0.5472 -2.2079  2.7651
 3462TIP3    H210351   2.542   6.338   5.698  0.2227 -0.3154  0.1994
 3463TIP3   OH210352   0.109   4.192   5.061 -0.1132  0.7111 -0.0327
 3463TIP3    H110353   0.056   4.271   5.065  1.5041  2.0266 -2.2193
 3463TIP3    H210354   0.150   4.186   5.147 -1.9076  0.9940  0.8744
 3464TIP3   OH210355   4.007   6.622   2.661 -0.3269  0.0609 -0.5416
 3464TIP3    H110356   3.942   6.639   2.729 -1.3260 -1.3800 -1.0829
 3464TIP3    H210357   3.956   6.587   2.588  0.7907  1.0223 -1.8344
 3465TIP3   OH210358   1.452   2.748   4.390 -0.1610 -0.1201 -0.4519
 3465TIP3    H110359   1.432   2.766   4.481  1.2755  1.0641 -0.3275
 3465TIP3    H210360   1.404   2.668   4.370 -2.7604  1.1083  0.4868
 3466TIP3   OH210361   2.865   3.290   2.002 -0.4418  0.3084 -0.2401
 3466TIP3    H110362   2.806   3.349   2.048 -0.2627 -0.1805  0.6449
 3466TIP3    H210363   2.900   3.342   1.930  0.9932  1.8496  1.4562
 3467TIP3   OH210364   0.304   2.342   0.085 -0.2757  0.0798  0.3349
 3467TIP3    H110365   0.258   2.412   0.039  1.9232  1.5306  0.2007
 3467TIP3    H210366   0.303   2.269   0.023 -1.6453  0.3223  0.0305
 3468TIP3   OH210367   4.816   6.219   0.499 -0.5006 -0.6823 -0.2807
 3468TIP3    H110368   4.771   6.297   0.533  2.3805  1.5316 -1.1319
 3468TIP3    H210369   4.798   6.220   0.405  0.8682 -0.0280 -0.5575
 3469TIP3   OH210370   2.348   3.913   4.075  0.0573 -0.2268 -0.5137
 3469TIP3    H110371   2.338   3.840   4.014  2.0659  0.0734 -1.2604
 3469TIP3    H210372   2.404   3.880   4.144  1.2914  0.6880 -1.0486
 3470TIP3   OH210373   6.490   2.423   4.715 -0.0914  0.4728  0.3805
 3470TIP3    H110374   6.490   2.465   4.801  1.5084  1.8524 -0.2385
 3470TIP3    H210375   6.520   2.491   4.655 -1.7081 -0.2787 -1.4038
 3471TIP3   OH210376   4.544   0.646   2.076  0.1604 -0.5006  0.5454
 3471TIP3    H110377   4.538   0.575   2.140 -0.6800  1.1216  2.3660
 3471TIP3    H210378   4.454   0.670   2.058  0.3682 -1.0857 -1.5288
 3472TIP3   OH210379   2.468   5.635   3.078 -0.2806  0.1560  0.4055
 3472TIP3    H110380   2.446   5.614   2.987  0.5483 -0.8004  0.4081
 3472TIP3    H210381   2.384   5.653   3.119 -1.1562 -3.2535  0.4069
 3473TIP3   OH210382   3.876   1.757   0.760 -0.4233  0.2558 -1.0819
 3473TIP3    H110383   3.924   1.714   0.831 -1.3288  2.3110  0.8837
 3473TIP3    H210384   3.870   1.690   0.691 -1.5533 -2.6836  1.6372
 3474TIP3   OH210385   0.496   6.367   2.523 -0.2947 -0.1915  0.2185
 3474TIP3    H110386   0.521   6.418   2.600  0.2802 -0.6390  0.3367
 3474TIP3    H210387   0.423   6.416   2.484 -1.0249 -0.3067  1.4068
 3475TIP3   OH210388   4.333   2.963   2.314 -0.1991  0.2675 -0.3217
 3475TIP3    H110389   4.378   2.913   2.247 -1.9976 -0.3697 -1.1135
 3475TIP3    H210390   4.308   3.044   2.271 -1.2464 -0.0893 -0.4055
 3476TIP3   OH210391   4.446   5.414   0.895  0.3785  0.4023  1.1364
 3476TIP3    H110392   4.485   5.448   0.976 -1.0775 -0.8756  2.4377
 3476TIP3    H210393   4.516   5.363   0.854  1.2238  1.3184  1.4023
 3477TIP3   OH210394   3.141   1.925   5.286  0.2995 -0.3857  0.1573
 3477TIP3    H110395   3.106   1.974   5.361  0.8295 -1.6213  1.2585
 3477TIP3    H210396   3.121   1.979   5.210 -0.1636  0.9638  1.2061
 3478TIP3   OH210397   5.710   5.891   5.431  0.4816  0.2988 -0.4673
 3478TIP3    H110398   5.739   5.954   5.497 -1.2868  2.5199 -1.6592
 3478TIP3    H210399   5.653   5.831   5.479 -0.3922  1.5833  0.1666
 3479TIP3   OH210400   6.575   0.022   0.127 -0.1902  0.4441  0.0033
 3479TIP3    H110401   6.577   0.097   0.185  0.4357  2.1196 -2.0453
 3479TIP3    H210402   6.482   0.006   0.109 -0.3484  0.3232  0.9164
 3480TIP3   OH210403   5.223   4.578   3.647  0.5207  0.1267 -0.3150
 3480TIP3    H110404   5.236   4.517   3.719 -1.9957 -1.0409 -0.7379
 3480TIP3    H210405   5.302   4.572   3.594  1.7024 -0.2285  1.4408
 3481TIP3   OH210406   6.280   0.213   1.430 -0.0522  0.2433  0.4223
 3481TIP3    H110407   6.225   0.250   1.361 -0.4468 -0.7008  0.2142
 3481TIP3    H210408   6.242   0.126   1.448  2.1693 -1.0530 -0.7109
 3482TIP3   OH210409   5.973   2.325   2.569 -0.2778 -0.1427  0.6385
 3482TIP3    H110410   5.967   2.398   2.507  0.6855 -1.5506 -1.2395
 3482TIP3    H210411   6.058   2.285   2.551 -0.7956 -1.7534  1.5298
 3483TIP3   OH210412   3.685   1.766   5.299  0.1723  0.0819  0.0175
 3483TIP3    H110413   3.714   1.700   5.237  1.4814 -0.0442  0.7296
 3483TIP3    H210414   3.613   1.725   5.347 -0.6358  0.0699 -1.1829
 3484TIP3   OH210415   7.053   0.276   5.153 -0.0325 -0.2179  0.0885
 3484TIP3    H110416   7.057   0.349   5.091  1.5228  0.0489  0.4701
 3484TIP3    H210417   7.118   0.214   5.121 -0.0530 -0.6100  0.7895
 3485TIP3   OH210418   5.478   3.531   1.342  0.3164 -0.9040 -0.3088
 3485TIP3    H110419   5.511   3.525   1.253 -1.0726 -1.4975 -0.8089
 3485TIP3    H210420   5.391   3.570   1.333 -0.0742 -1.4817  0.7280
 3486TIP3   OH210421   5.105   0.297   4.403  0.2242 -0.9151 -0.4216
 3486TIP3    H110422   5.048   0.357   4.355  1.8668  1.1648  0.0551
 3486TIP3    H210423   5.080   0.210   4.372 -3.6031 -0.2279  0.2743
 3487TIP3   OH210424   3.243   5.656   1.186 -0.0824 -0.7348 -0.1993
 3487TIP3    H110425   3.187   5.580   1.194  0.0940 -1.0453 -1.7422
 3487TIP3    H210426   3.190   5.721   1.139 -0.7236  0.6428  2.2508
 3488TIP3   OH210427   1.118   3.961   5.488  0.1519  0.0963 -0.3411
 3488TIP3    H110428   1.120   3.915   5.572 -0.8030  1.2608  0.3419
 3488TIP3    H210429   1.082   3.897   5.427  0.1144 -0.5006  0.2934
 3489TIP3   OH210430   2.122   6.648   1.581  0.3916  0.1711 -0.2025
 3489TIP3    H110431   2.186   6.585   1.549 -0.1704  0.0132 -1.0501
 3489TIP3    H210432   2.060   6.596   1.631  0.2911  0.1570 -0.3435
 3490TIP3   OH210433   5.657   0.191   0.998  0.1351  0.0573 -0.2683
 3490TIP3    H110434   5.611   0.193   1.082 -0.2050  0.3436 -0.4560
 3490TIP3    H210435   5.736   0.139   1.015 -0.0280 -0.0533  0.1756
 3491TIP3   OH210436   7.124   4.846   5.088 -0.1675 -0.0022  0.0500
 3491TIP3    H110437   7.180   4.829   5.012  0.3587 -2.0524  0.8118
 3491TIP3    H210438   7.037   4.861   5.051  0.7126  2.6611 -1.1257
 3492TIP3   OH210439   4.686   5.239   3.338 -0.4503 -0.0153 -0.3269
 3492TIP3    H110440   4.616   5.296   3.371 -0.4218 -0.7049  1.0120
 3492TIP3    H210441   4.639   5.165   3.299 -0.4835 -0.0930 -0.1437
 3493TIP3   OH210442   3.611   1.986   1.666  0.4120 -0.2746 -0.3223
 3493TIP3    H110443   3.658   1.919   1.715  1.0403  0.1112 -0.3984
 3493TIP3    H210444   3.592   2.054   1.729  0.8781  0.0438 -0.5192
 3494TIP3   OH210445   1.681   0.027   1.479 -0.1012  0.9314  0.3537
 3494TIP3    H110446   1.688   0.114   1.440  0.9521  0.7552  0.1294
 3494TIP3    H210447   1.693   0.042   1.573 -2.5793  1.3482  0.6815
 3495TIP3   OH210448   3.571   2.916   5.275  0.3021  0.0896 -0.2134
 3495TIP3    H110449   3.548   2.984   5.212  3.1472  0.5935 -0.8503
 3495TIP3    H210450   3.570   2.835   5.224  0.6231  0.2033 -0.3992
 3496TIP3   OH210451   1.811   5.562   5.460  0.4843  0.1529 -0.1411
 3496TIP3    H110452   1.871   5.614   5.406  0.9575 -0.6614 -0.4227
 3496TIP3    H210453   1.742   5.534   5.400  0.7028 -0.2663 -0.2081
 3497TIP3   OH210454   1.463   1.296   0.866 -0.1220 -0.0145  0.0361
 3497TIP3    H110455   1.375   1.333   0.860 -0.2927 -0.4915 -0.5152
 3497TIP3    H210456   1.476   1.251   0.782  0.8293  0.4469 -0.0829
 3498TIP3   OH210457   2.952   0.553   4.514 -0.1226  0.2786  0.6686
 3498TIP3    H110458   3.005   0.548   4.594 -0.3406 -1.6960  0.7299
 3498TIP3    H210459   2.946   0.463   4.484 -1.2721  0.8161 -0.7924
 3499TIP3   OH210460   7.192   0.287   2.456 -0.6221  0.0634  0.3461
 3499TIP3    H110461   7.277   0.242   2.460  0.4051  1.9014  0.2688
 3499TIP3    H210462   7.179   0.321   2.544  0.7917  3.2963 -0.5614
 3500TIP3   OH210463   2.512   4.950   2.822  0.0073 -0.3390  0.0755
 3500TIP3    H110464   2.481   4.860   2.821 -0.6308 -0.1194 -0.2320
 3500TIP3    H210465   2.527   4.969   2.915 -0.9784 -0.3923  0.2574
 3501TIP3   OH210466   5.788   5.859   1.106  0.1441  0.2848 -0.4809
 3501TIP3    H110467   5.700   5.878   1.138  0.2184 -0.5645  0.2830
 3501TIP3    H210468   5.774   5.800   1.032  0.0332  1.0847 -1.1102
 3502TIP3   OH210469   1.103   2.132   1.008  0.1761  0.4281 -0.1375
 3502TIP3    H110470   1.139   2.136   1.097  0.7813 -1.2445 -0.2837
 3502TIP3    H210471   1.175   2.100   0.954 -0.8344 -0.6929 -0.8469
 3503TIP3   OH210472   2.038   2.600   5.561  0.1111  0.0788 -0.0200
 3503TIP3    H110473   1.964   2.540   5.569  0.2533 -0.2499 -1.0107
 3503TIP3    H210474   1.999   2.687   5.564 -0.2478 -0.0821  0.0463
 3504TIP3   OH210475   6.530   5.393   4.843 -0.3697 -0.3394  0.9020
 3504TIP3    H110476   6.486   5.452   4.903 -1.2315 -0.0369 -0.0046
 3504TIP3    H210477   6.620   5.387   4.877 -0.7994 -0.0997  2.1404
 3505TIP3   OH210478   1.907   1.035   3.005 -0.0715  0.3436 -0.1848
 3505TIP3    H110479   1.826   1.075   3.039 -0.9986 -1.8916  0.3860
 3505TIP3    H210480   1.953   1.006   3.084  0.2942 -0.2318 -0.6097
 3506TIP3   OH210481   2.895   5.781   1.001  0.6637  0.2342  0.4221
 3506TIP3    H110482   2.878   5.744   0.914  0.6624  2.4097 -0.5556
 3506TIP3    H210483   2.826   5.744   1.056  0.0204 -0.3631 -0.7473
 3507TIP3   OH210484   0.852   4.142   5.120  0.2206 -0.0303 -0.2800
 3507TIP3    H110485   0.843   4.148   5.216  1.0249  0.4805 -0.2222
 3507TIP3    H210486   0.827   4.229   5.089  0.3115 -0.0827 -0.4988
 3508TIP3   OH210487   1.206   2.067   3.442 -0.3560  1.1056 -0.4730
 3508TIP3    H110488   1.197   2.150   3.488  2.3232  0.4028  1.5118
 3508TIP3    H210489   1.203   2.001   3.510 -0.6913 -0.3544 -1.8357
 3509TIP3   OH210490   5.298   1.122   3.298 -0.1062  0.2567 -0.4996
 3509TIP3    H110491   5.254   1.073   3.368 -1.0320  0.2792 -1.0481
 3509TIP3    H210492   5.375   1.069   3.276 -0.4841 -0.3831 -0.3094
 3510TIP3   OH210493   0.404   6.514   3.230 -0.1630 -0.0426  0.1570
 3510TIP3    H110494   0.403   6.451   3.159 -0.2098  0.8832 -0.6803
 3510TIP3    H210495   0.312   6.538   3.243 -0.0803  0.3545  0.0158
 3511TIP3   OH210496   3.088   5.521   5.520  0.1496  0.1984 -0.0209
 3511TIP3    H110497   3.125   5.609   5.510  0.1544  0.4318  1.6464
 3511TIP3    H210498   3.163   5.462   5.513  0.3077  0.4100 -0.1190
 3512TIP3   OH210499   5.614   5.075   4.125  0.4909 -0.0639  0.0506
 3512TIP3    H110500   5.580   5.148   4.074 -0.2104 -0.4335 -0.0218
 3512TIP3    H210501   5.540   5.046   4.178  0.7280 -0.7922 -0.0052
 3513TIP3   OH210502   4.708   1.316   5.634 -0.0547  0.2208  0.2494
 3513TIP3    H110503   4.613   1.306   5.627 -0.2066  0.8738  1.2337
 3513TIP3    H210504   4.723   1.343   5.724  1.0474  0.4371  0.0160
 3514TIP3   OH210505   5.920   2.399   3.379  0.0061 -0.1286  0.1484
 3514TIP3    H110506   5.937   2.491   3.401 -1.4294  0.0610  0.5604
 3514TIP3    H210507   5.851   2.372   3.439  0.7439 -1.6373  0.3582
 3515TIP3   OH210508   0.793   2.308   0.362 -0.2447 -0.5579 -0.3083
 3515TIP3    H110509   0.875   2.290   0.317  0.4368 -0.5059  0.8592
 3515TIP3    H210510   0.727   2.310   0.293  0.7355 -0.5823 -1.2718
 3516TIP3   OH210511   6.991   0.864   4.003  0.1223 -0.0484 -0.0099
 3516TIP3    H110512   7.026   0.949   4.030  2.0776 -0.2106 -1.7221
 3516TIP3    H210513   6.897   0.871   4.018  0.3196  2.1245  0.6474
 3517TIP3   OH210514   0.711   0.124   5.085 -0.0285 -0.5979  0.6076
 3517TIP3    H110515   0.620   0.119   5.117 -0.1330 -0.5077  0.3252
 3517TIP3    H210516   0.714   0.063   5.012 -0.9431  2.1800 -1.9538
 3518TIP3   OH210517   3.386   0.957   3.949  0.4997  0.3322 -0.4406
 3518TIP3    H110518   3.391   1.045   3.910  1.2213 -0.3327 -1.9275
 3518TIP3    H210519   3.322   0.911   3.895  1.9072 -0.7783 -1.2158
 3519TIP3   OH210520   1.529   1.200   2.543  0.1356 -0.2301  0.0353
 3519TIP3    H110521   1.504   1.267   2.479 -0.6472 -0.4869  0.0607
 3519TIP3    H210522   1.446   1.160   2.569  0.5425 -0.8041  0.4695
 3520TIP3   OH210523   4.907   3.878   4.471 -0.0294  0.2912  0.2805
 3520TIP3    H110524   4.943   3.792   4.493  0.6100 -0.0687 -1.9231
 3520TIP3    H210525   4.982   3.928   4.438 -0.7457  1.0286 -0.2929
 3521TIP3   OH210526   3.298   2.692   1.261  0.3802  0.4265 -0.1347
 3521TIP3    H110527   3.273   2.649   1.343  0.7481  1.8698  0.7539
 3521TIP3    H210528   3.391   2.711   1.271  0.8682 -0.9402 -1.6280
 3522TIP3   OH210529   3.500   6.191   3.380 -0.2148 -0.2945 -0.2774
 3522TIP3    H110530   3.471   6.162   3.294 -2.7592  0.4729  0.2377
 3522TIP3    H210531   3.582   6.239   3.363  0.6008 -2.1339 -1.9023
 3523TIP3   OH210532   2.963   3.217   3.861  0.3823 -0.2032 -0.1917
 3523TIP3    H110533   2.895   3.157   3.829  0.1662 -0.8514  1.3839
 3523TIP3    H210534   3.019   3.163   3.916  1.2827  0.6687 -0.2183
 3524TIP3   OH210535   4.118   6.747   2.073  0.1152 -0.1453  0.5345
 3524TIP3    H110536   4.172   6.729   1.995 -2.1083 -1.7492 -0.7304
 3524TIP3    H210537   4.090   6.838   2.061 -0.3836 -0.4326 -0.7218
 3525TIP3   OH210538   6.685   1.831   5.057  0.0556  0.6107 -0.5499
 3525TIP3    H110539   6.718   1.844   5.146 -1.4715 -0.4471  0.2091
 3525TIP3    H210540   6.655   1.918   5.030  1.4539  1.1505 -0.4470
 3526TIP3   OH210541   4.676   6.753   4.869 -0.0998 -0.4331  0.2444
 3526TIP3    H110542   4.735   6.678   4.872  1.0707  0.4176 -0.5534
 3526TIP3    H210543   4.670   6.775   4.776  0.5188  1.1602  0.5508
 3527TIP3   OH210544   3.583   1.219   0.979 -0.0120 -0.6741 -0.6148
 3527TIP3    H110545   3.550   1.252   0.895  1.6971  0.6999 -0.8031
 3527TIP3    H210546   3.667   1.179   0.957  0.8399  0.4270  0.5484
 3528TIP3   OH210547   6.661   5.441   1.426 -0.0683 -0.1509  0.0272
 3528TIP3    H110548   6.740   5.492   1.446 -1.3929  3.0446 -2.0459
 3528TIP3    H210549   6.673   5.412   1.336 -0.9344 -0.2494 -0.0629
 3529TIP3   OH210550   5.815   5.753   5.222  0.4575 -0.0846 -0.2148
 3529TIP3    H110551   5.778   5.774   5.307 -0.1932  1.6204 -0.8811
 3529TIP3    H210552   5.749   5.699   5.180 -1.7220  3.3485 -1.5942
 3530TIP3   OH210553   2.451   2.591   4.478  0.1711  0.0765 -0.3021
 3530TIP3    H110554   2.405   2.606   4.395 -1.1641 -2.6188 -0.1480
 3530TIP3    H210555   2.518   2.526   4.457  0.2531 -0.1472  0.6088
 3531TIP3   OH210556   3.851   6.143   5.336 -0.1481 -0.2890 -0.5721
 3531TIP3    H110557   3.906   6.098   5.400 -1.2778  1.5148  1.8415
 3531TIP3    H210558   3.784   6.079   5.313  0.0023 -0.8268  0.4300
 3532TIP3   OH210559   6.268   3.165   5.180 -0.2292 -0.1930 -0.4023
 3532TIP3    H110560   6.249   3.076   5.148 -0.8683 -0.4395  0.6181
 3532TIP3    H210561   6.224   3.170   5.264  0.7507  0.7172  0.0833
 3533TIP3   OH210562   4.175   0.893   0.028  0.1676  0.6286 -0.3776
 3533TIP3    H110563   4.263   0.928   0.040  0.5598 -0.1785 -0.8073
 3533TIP3    H210564   4.150   0.919  -0.060 -0.2939  1.4059 -0.0298
 3534TIP3   OH210565   3.835   3.483   1.863  0.0992 -0.2579 -0.1837
 3534TIP3    H110566   3.796   3.503   1.948 -1.3398 -1.1896 -0.5882
 3534TIP3    H210567   3.814   3.391   1.848  0.6952 -0.2224 -1.3701
 3535TIP3   OH210568   5.516   5.881   1.221  0.4835 -0.8089  0.2157
 3535TIP3    H110569   5.524   5.838   1.136  1.5768  1.2851 -0.8014
 3535TIP3    H210570   5.425   5.909   1.225  0.4140 -0.9608 -0.2301
 3536TIP3   OH210571   3.628   3.920   5.128  0.3441 -0.6109 -0.2562
 3536TIP3    H110572   3.615   3.885   5.216  0.1130  0.0251 -0.0336
 3536TIP3    H210573   3.591   3.853   5.071  0.5015 -1.0307  0.1269
 3537TIP3   OH210574   4.819   3.263   2.568  0.2741 -0.2976 -0.1164
 3537TIP3    H110575   4.830   3.196   2.636  1.4436  1.1449  1.1966
 3537TIP3    H210576   4.799   3.343   2.617  0.7095  0.6960 -1.5116
 3538TIP3   OH210577   1.388   2.218   4.341  0.2000 -0.2114  0.3969
 3538TIP3    H110578   1.454   2.155   4.312  1.1987 -0.8917  3.7138
 3538TIP3    H210579   1.306   2.169   4.342  0.3821 -0.5277 -0.0019
 3539TIP3   OH210580   6.486   4.361   5.394 -0.2415  0.5377  0.0694
 3539TIP3    H110581   6.456   4.270   5.388  1.6420 -0.0347 -2.4087
 3539TIP3    H210582   6.433   4.408   5.330  1.0800  0.3793 -1.2200
 3540TIP3   OH210583   0.196   2.211   5.268  0.6521 -0.0964  0.0434
 3540TIP3    H110584   0.254   2.282   5.294 -0.7361  0.2024  2.6979
 3540TIP3    H210585   0.119   2.254   5.233  0.1507 -0.3008  0.8749
 3541TIP3   OH210586   0.949   2.564   0.214  0.3805  0.0406 -0.5583
 3541TIP3    H110587   0.946   2.633   0.280  0.8089 -1.1408  0.7477
 3541TIP3    H210588   0.861   2.564   0.176 -1.2977 -1.8360  2.8507
 3542TIP3   OH210589   4.102   4.135   0.638 -0.0658  0.4632  0.0865
 3542TIP3    H110590   4.031   4.172   0.587 -1.3768  0.1387  1.5991
 3542TIP3    H210591   4.059   4.080   0.704  1.7123 -3.4549 -1.6969
 3543TIP3   OH210592   5.182   1.291   5.819  0.0242  0.1331 -0.1838
 3543TIP3    H110593   5.273   1.277   5.793  0.0455  0.5388 -0.3248
 3543TIP3    H210594   5.173   1.242   5.901  0.8281  1.4201  0.6926
 3544TIP3   OH210595   0.021   2.565   5.359  0.0424 -0.5888 -0.1241
 3544TIP3    H110596  -0.004   2.528   5.274  0.6927  2.8246 -2.0087
 3544TIP3    H210597   0.116   2.567   5.357  0.0738 -0.7282  0.8509
 3545TIP3   OH210598   0.813   4.814   3.495  0.2057 -0.3215 -0.2601
 3545TIP3    H110599   0.867   4.872   3.549  0.2255 -0.3293 -0.2717
 3545TIP3    H210600   0.736   4.867   3.473 -0.1011 -0.5307  0.2947
 3546TIP3   OH210601   7.178   1.888   5.747  0.2356 -0.4789  0.0542
 3546TIP3    H110602   7.106   1.931   5.792  1.1323  0.2690  0.8226
 3546TIP3    H210603   7.203   1.950   5.677  2.4946  1.0826  2.0694
 3547TIP3   OH210604   2.082   2.830   5.299 -0.6649  0.2638  0.5868
 3547TIP3    H110605   2.076   2.874   5.383  1.1258 -0.1127  0.9612
 3547TIP3    H210606   2.152   2.765   5.311 -1.9452 -1.4173 -0.4967
 3548TIP3   OH210607   5.364   6.005   0.554  0.2900 -0.0342  0.0414
 3548TIP3    H110608   5.310   5.953   0.496 -1.4467  0.3693  1.2231
 3548TIP3    H210609   5.377   6.088   0.508  0.5949 -0.4276 -0.5894
 3549TIP3   OH210610   6.662   0.186   2.451  0.3973  0.6490 -0.0653
 3549TIP3    H110611   6.730   0.164   2.515  0.0858 -0.2988 -0.0373
 3549TIP3    H210612   6.581   0.152   2.489 -0.5281  3.7451  0.9651
 3550TIP3   OH210613   4.292   1.998   5.873 -0.5045  0.2279 -0.2421
 3550TIP3    H110614   4.223   1.932   5.879 -0.2620 -0.3235 -2.5695
 3550TIP3    H210615   4.247   2.075   5.836 -0.3978  0.7693  0.7245
 3551TIP3   OH210616   4.838   0.760   2.542  0.2778 -0.4630  0.1126
 3551TIP3    H110617   4.934   0.762   2.549  0.3731 -1.8674 -0.4477
 3551TIP3    H210618   4.815   0.846   2.507  1.5523 -0.8352 -1.7893
 3552TIP3   OH210619   1.538   3.698   4.922  0.1810  0.2706  0.1097
 3552TIP3    H110620   1.518   3.673   4.832 -0.1888  0.5584  0.1119
 3552TIP3    H210621   1.556   3.614   4.966 -0.3777  0.0616 -0.0512
 3553TIP3   OH210622   6.884   4.932   5.358 -0.6589 -0.0446  0.4690
 3553TIP3    H110623   6.876   4.837   5.349  1.6831 -0.4304  1.7197
 3553TIP3    H210624   6.793   4.964   5.357 -1.4777 -2.1645 -0.8319
 3554TIP3   OH210625   2.018   3.082   0.697 -0.1095  0.6837 -0.4905
 3554TIP3    H110626   1.938   3.133   0.707 -0.7445 -0.2674 -0.4982
 3554TIP3    H210627   1.992   3.009   0.640  1.0940  1.0600 -1.5424
 3555TIP3   OH210628   6.935   4.832   4.159 -0.0778  0.1291  0.4179
 3555TIP3    H110629   6.899   4.745   4.172 -0.6839  0.3266  0.1069
 3555TIP3    H210630   6.937   4.843   4.063  0.6992  0.1704  0.4291
 3556TIP3   OH210631   2.609   6.570   4.649 -0.0971 -0.2708 -1.0378
 3556TIP3    H110632   2.601   6.595   4.741 -0.8243  1.0424 -1.4420
 3556TIP3    H210633   2.616   6.653   4.602 -0.3622 -0.9077 -2.2278
 3557TIP3   OH210634   0.591   1.057   3.055 -0.0629  0.3649  0.4646
 3557TIP3    H110635   0.604   0.968   3.087  1.4573  0.8520  1.3091
 3557TIP3    H210636   0.567   1.046   2.963  2.1081 -0.9053 -0.0301
 3558TIP3   OH210637   4.195   4.392   5.481 -0.2259 -0.2238 -0.4609
 3558TIP3    H110638   4.259   4.462   5.496 -1.1859  0.7189 -0.6749
 3558TIP3    H210639   4.248   4.312   5.478  1.0103  0.5894 -1.1843
 3559TIP3   OH210640   4.481   3.671   5.667  0.0979 -0.2408  0.5114
 3559TIP3    H110641   4.497   3.723   5.746  1.2305  0.2410 -0.0059
 3559TIP3    H210642   4.391   3.690   5.643 -0.1227 -0.0619  1.4487
 3560TIP3   OH210643   4.675   1.196   3.119 -0.1834 -0.0602 -0.3750
 3560TIP3    H110644   4.658   1.104   3.101 -0.6772  0.2391 -1.5672
 3560TIP3    H210645   4.759   1.197   3.164 -0.3159 -1.1155 -0.0874
 3561TIP3   OH210646   0.452   4.978   1.397  0.1305  0.0546  0.3213
 3561TIP3    H110647   0.460   5.039   1.323 -0.4475 -0.6526 -0.3403
 3561TIP3    H210648   0.414   5.030   1.467 -1.8298  0.1209 -0.7107
 3562TIP3   OH210649   3.706   4.451   4.906 -0.2528  0.4437 -0.2035
 3562TIP3    H110650   3.751   4.503   4.840  2.0170  0.8775  1.5652
 3562TIP3    H210651   3.649   4.514   4.951  0.4222  0.8049  0.1539
 3563TIP3   OH210652   3.988   5.075   2.018 -0.4299  0.0267  0.5159
 3563TIP3    H110653   3.894   5.056   2.015 -0.7926  1.5734  1.0365
 3563TIP3    H210654   4.011   5.065   2.110  0.1248 -1.1899  0.2580
 3564TIP3   OH210655   5.603   1.563   5.039  0.2769 -0.0745 -0.2473
 3564TIP3    H110656   5.626   1.643   4.991 -0.4924  0.0895 -0.3689
 3564TIP3    H210657   5.510   1.550   5.019 -0.1707  0.2087  1.4885
 3565TIP3   OH210658   2.488   2.440   2.687  0.2166  0.0983 -0.6464
 3565TIP3    H110659   2.532   2.456   2.770 -0.4792  1.2736 -0.4837
 3565TIP3    H210660   2.511   2.516   2.633 -0.7042  0.1849 -0.9300
 3566TIP3   OH210661   0.984   6.466   3.020  0.7689 -0.5828 -0.0894
 3566TIP3    H110662   1.019   6.545   3.061 -1.6929  0.9616 -0.8076
 3566TIP3    H210663   0.899   6.453   3.061  0.1738 -1.5944 -1.5560
 3567TIP3   OH210664   5.858   1.728   3.993  0.3035 -0.0582 -0.3380
 3567TIP3    H110665   5.781   1.786   3.987  0.9430  1.0327  1.3488
 3567TIP3    H210666   5.904   1.758   4.071  1.5130 -1.8662 -0.3132
 3568TIP3   OH210667   3.856   0.423   2.858  0.1630  0.3830 -0.5348
 3568TIP3    H110668   3.819   0.462   2.937 -1.9318  1.4778 -1.9429
 3568TIP3    H210669   3.876   0.333   2.882 -0.5314  0.6603  1.2066
 3569TIP3   OH210670   6.081   5.630   5.476 -0.7742  0.3457 -0.3234
 3569TIP3    H110671   6.164   5.661   5.439 -1.3653 -0.6379 -2.7227
 3569TIP3    H210672   6.071   5.542   5.439 -2.7923  0.3861  0.0242
 3570TIP3   OH210673   5.631   1.676   1.809 -0.4606  0.0267  0.0627
 3570TIP3    H110674   5.598   1.762   1.783  0.1302  0.3161  0.2629
 3570TIP3    H210675   5.558   1.636   1.856 -0.4477  0.7696  0.7403
 3571TIP3   OH210676   2.168   0.261   3.923 -0.4398 -0.1359  0.4619
 3571TIP3    H110677   2.172   0.352   3.954  2.4301  0.6300 -1.6940
 3571TIP3    H210678   2.091   0.259   3.865  0.9495  1.8386 -1.6567
 3572TIP3   OH210679   0.361   2.389   2.338  0.6165 -0.3680 -0.0626
 3572TIP3    H110680   0.430   2.375   2.403  1.0842  2.2864  0.1148
 3572TIP3    H210681   0.338   2.301   2.309  3.1600 -1.4238  0.8158
 3573TIP3   OH210682   2.710   4.827   2.552  0.5683 -0.2531 -0.0772
 3573TIP3    H110683   2.633   4.882   2.563  0.8195  0.1963 -0.5172
 3573TIP3    H210684   2.753   4.828   2.637  2.3330  2.9206 -0.8458
 3574TIP3   OH210685   2.650   1.007   1.455 -0.0307  0.2351  0.6774
 3574TIP3    H110686   2.677   0.916   1.468 -0.6379  0.1296  1.2633
 3574TIP3    H210687   2.590   1.003   1.380 -3.0493 -0.4913  2.9525
 3575TIP3   OH210688   6.333   2.137   2.273  0.7529  0.2168  0.1905
 3575TIP3    H110689   6.314   2.065   2.332  2.7117  0.6007  1.4031
 3575TIP3    H210690   6.248   2.177   2.254  0.0980  1.0257  4.0121
 3576TIP3   OH210691   0.783   1.158   4.912 -0.2659  0.5619 -0.4151
 3576TIP3    H110692   0.766   1.216   4.838 -0.6702 -1.1709 -1.7548
 3576TIP3    H210693   0.749   1.073   4.884  1.9745 -0.7837  0.6913
 3577TIP3   OH210694   5.826   4.728   5.193  0.1546 -0.2669 -0.6077
 3577TIP3    H110695   5.847   4.751   5.102  0.1608  0.9378 -0.3138
 3577TIP3    H210696   5.907   4.693   5.229  1.2973  2.7921  0.0275
 3578TIP3   OH210697   1.125   1.581   1.401  0.7654 -0.3547 -0.2971
 3578TIP3    H110698   1.207   1.537   1.424 -0.6042 -2.4334  0.9198
 3578TIP3    H210699   1.104   1.548   1.313  1.2236  0.2262 -0.6358
 3579TIP3   OH210700   5.206   6.548   3.868 -0.9552 -0.4391  0.2607
 3579TIP3    H110701   5.155   6.504   3.800  0.4616 -0.7080 -0.6781
 3579TIP3    H210702   5.248   6.476   3.916  0.8591 -0.2023 -0.8711
 3580TIP3   OH210703   5.865   3.938   3.033 -0.1841 -0.7891  0.0037
 3580TIP3    H110704   5.906   3.854   3.053  1.0915 -0.1536  0.2169
 3580TIP3    H210705   5.775   3.930   3.065  0.4839 -1.4030  1.8346
 3581TIP3   OH210706   4.858   3.094   0.684  0.2350  0.2322 -0.1971
 3581TIP3    H110707   4.765   3.097   0.709 -0.0449 -0.4794 -1.1001
 3581TIP3    H210708   4.905   3.085   0.767 -0.6418 -1.7572  0.1447
 3582TIP3   OH210709   0.266   5.818   2.196 -0.0835  0.5934  0.2800
 3582TIP3    H110710   0.248   5.873   2.119  0.5664 -0.5196 -0.7000
 3582TIP3    H210711   0.361   5.820   2.206  0.1211 -1.4616 -0.6836
 3583TIP3   OH210712   5.225   1.142   4.743  0.6670 -0.2922 -0.2991
 3583TIP3    H110713   5.201   1.192   4.822  1.6025 -0.7922  0.3193
 3583TIP3    H210714   5.145   1.141   4.690  1.2057  4.1768 -1.6408
 3584TIP3   OH210715   2.801   1.923   5.131  0.0667  0.3443  0.3221
 3584TIP3    H110716   2.844   1.873   5.063 -1.2809 -1.1276  0.4844
 3584TIP3    H210717   2.837   1.889   5.213  0.0127  0.4900  0.4079
 3585TIP3   OH210718   6.429   0.451   1.574 -0.7904  0.2841  0.1593
 3585TIP3    H110719   6.440   0.434   1.667 -1.6338 -2.9098 -0.1907
 3585TIP3    H210720   6.403   0.366   1.537  0.4618  1.1527 -3.1416
 3586TIP3   OH210721   1.276   4.830   1.995  0.3664 -0.3094  0.3245
 3586TIP3    H110722   1.345   4.801   1.935 -0.7091  0.0507 -1.1279
 3586TIP3    H210723   1.196   4.830   1.943 -0.2810  1.9073  1.1932
 3587TIP3   OH210724   1.561   3.951   1.874 -0.1017  0.9771 -0.2839
 3587TIP3    H110725   1.531   3.971   1.785 -0.4635 -2.2024 -0.9756
 3587TIP3    H210726   1.655   3.934   1.864 -0.1292  0.6779 -0.0488
 3588TIP3   OH210727   5.561   5.271   2.312 -0.1726  0.9572  0.2112
 3588TIP3    H110728   5.641   5.242   2.358  0.6686  0.7792 -1.2981
 3588TIP3    H210729   5.525   5.190   2.275  0.7817  1.4111 -1.8644
 3589TIP3   OH210730   0.950   6.616   0.349 -0.1569  0.0333 -0.4688
 3589TIP3    H110731   0.981   6.573   0.429 -2.3003 -0.9864 -0.1047
 3589TIP3    H210732   0.891   6.684   0.380  0.1207  0.5980 -1.1605
 3590TIP3   OH210733   6.263   2.254   4.669 -0.1904  0.0489  0.3094
 3590TIP3    H110734   6.284   2.205   4.749  0.9324  1.6379  1.0300
 3590TIP3    H210735   6.339   2.311   4.655 -0.9865  0.8094 -1.1160
 3591TIP3   OH210736   1.508   2.349   0.968  0.3704 -0.1585 -0.0991
 3591TIP3    H110737   1.427   2.301   0.949  0.4792 -0.1116 -0.7202
 3591TIP3    H210738   1.572   2.281   0.988  0.7030 -0.3370 -1.6617
 3592TIP3   OH210739   7.005   2.121   2.750  0.2307  0.1364  0.1328
 3592TIP3    H110740   7.086   2.103   2.797 -0.7750  0.7314  2.2776
 3592TIP3    H210741   6.950   2.044   2.767  0.4373 -0.4169 -1.5886
 3593TIP3   OH210742   1.620   6.214   3.779  0.1418  0.0115 -0.4238
 3593TIP3    H110743   1.534   6.242   3.749 -0.5688 -1.5655  0.0570
 3593TIP3    H210744   1.627   6.122   3.754  1.0216 -0.3418  0.9460
 3594TIP3   OH210745   2.608   1.260   4.087 -0.5237 -0.1610  0.0870
 3594TIP3    H110746   2.632   1.230   4.174  0.0157 -1.3736 -0.4558
 3594TIP3    H210747   2.688   1.247   4.035 -0.6946  0.9561 -0.5006
 3595TIP3   OH210748   2.788   0.104   1.554 -0.1596  0.1210 -0.2486
 3595TIP3    H110749   2.809   0.123   1.646  1.1193 -0.3515 -0.4144
 3595TIP3    H210750   2.701   0.140   1.541  0.1335  1.2865  0.8238
 3596TIP3   OH210751   2.832   3.225   1.427 -0.4358 -0.4728  0.3020
 3596TIP3    H110752   2.792   3.141   1.402 -1.9114  0.4076 -0.3862
 3596TIP3    H210753   2.767   3.291   1.405  0.7574  0.8968  0.7028
 3597TIP3   OH210754   6.644   2.185   4.002  0.6608 -0.0369  0.5960
 3597TIP3    H110755   6.652   2.090   4.010 -0.5475 -0.1024  1.3378
 3597TIP3    H210756   6.611   2.200   3.914  0.8723 -0.2926  0.4715
 3598TIP3   OH210757   5.680   3.190   0.335  0.1540  0.2395 -0.8652
 3598TIP3    H110758   5.708   3.220   0.248  1.6615  0.1550 -0.4323
 3598TIP3    H210759   5.700   3.096   0.335  2.4505  0.6603  0.3860
 3599TIP3   OH210760   3.599   3.691   4.519  0.3717 -0.1644 -0.4242
 3599TIP3    H110761   3.692   3.712   4.511  0.3178  0.1933 -0.0954
 3599TIP3    H210762   3.569   3.681   4.429  0.7444 -0.3621 -0.5306
 3600TIP3   OH210763   0.182   4.384   4.089  0.2441 -0.0410 -0.3250
 3600TIP3    H110764   0.234   4.465   4.090  0.8330 -0.3719 -1.8150
 3600TIP3    H210765   0.221   4.330   4.158 -1.3758  1.6167  2.0651
 3601TIP3   OH210766   1.277   5.441   1.620 -0.0791 -0.2525 -0.4639
 3601TIP3    H110767   1.316   5.472   1.538 -1.3287 -0.0939 -1.0284
 3601TIP3    H210768   1.198   5.393   1.592 -0.6289 -0.0275  0.6466
 3602TIP3   OH210769   1.370   1.405   4.330 -0.1689  0.3165  0.4048
 3602TIP3    H110770   1.402   1.464   4.399 -0.6269  0.3686  0.5742
 3602TIP3    H210771   1.374   1.457   4.250  1.3050 -0.0523  0.2100
 3603TIP3   OH210772   3.822   3.137   0.756  0.2483 -0.1499 -0.1547
 3603TIP3    H110773   3.758   3.152   0.826 -1.2712 -1.1513 -1.2472
 3603TIP3    H210774   3.891   3.201   0.772 -0.5575  0.3444  1.6380
 3604TIP3   OH210775   4.964   0.865   1.777 -0.3097  0.0375 -0.0105
 3604TIP3    H110776   4.902   0.866   1.704 -2.3118 -2.3731  1.5312
 3604TIP3    H210777   5.038   0.812   1.744  0.7328  2.2935 -1.5791
 3605TIP3   OH210778   6.210   6.241   1.817 -0.6513  0.1237  1.0394
 3605TIP3    H110779   6.194   6.152   1.846 -2.4223 -0.1894 -0.6715
 3605TIP3    H210780   6.146   6.294   1.865 -1.6798 -0.0092 -0.1174
 3606TIP3   OH210781   1.359   5.624   0.288  0.2682 -0.1448 -0.1665
 3606TIP3    H110782   1.280   5.668   0.256  0.1596 -1.1276 -1.3496
 3606TIP3    H210783   1.431   5.670   0.244  0.3629  0.6425  0.7819
 3607TIP3   OH210784   6.010   3.992   4.489 -0.0308 -0.0210  0.7991
 3607TIP3    H110785   5.926   3.963   4.455 -0.2164  1.4470 -0.0834
 3607TIP3    H210786   6.050   3.913   4.526 -0.5619 -1.3406 -1.2979
 3608TIP3   OH210787   5.337   4.232   5.032 -0.0597 -0.0840 -0.0807
 3608TIP3    H110788   5.286   4.275   4.963 -1.3662 -1.1394  0.1786
 3608TIP3    H210789   5.271   4.185   5.084  0.9701  0.1177  1.4755
 3609TIP3   OH210790   3.684   6.690   2.664 -0.2796 -0.3235 -0.1559
 3609TIP3    H110791   3.689   6.779   2.700  1.5641 -0.9155  1.2221
 3609TIP3    H210792   3.657   6.702   2.573  1.2049  1.7537 -0.3774
 3610TIP3   OH210793   2.761   0.261   4.309  0.3393  0.0779  0.6798
 3610TIP3    H110794   2.850   0.263   4.274 -0.0886  1.2718 -0.4218
 3610TIP3    H210795   2.723   0.180   4.274  0.7120 -0.0087  0.4699
 3611TIP3   OH210796   4.617   3.115   2.456  0.5248 -0.2972 -0.1125
 3611TIP3    H110797   4.540   3.126   2.512  0.3496 -2.5928  0.1935
 3611TIP3    H210798   4.686   3.167   2.498 -0.1702 -0.2640  1.0234
 3612TIP3   OH210799   1.011   6.160   1.348 -0.0815 -0.5036  0.4705
 3612TIP3    H110800   0.961   6.150   1.267 -2.0157 -0.4566  1.5974
 3612TIP3    H210801   1.030   6.254   1.353 -2.7389  0.0722  1.5455
 3613TIP3   OH210802   4.119   5.174   5.660 -0.6966 -0.2356 -0.1969
 3613TIP3    H110803   4.180   5.188   5.588 -0.2169  2.6722  0.6257
 3613TIP3    H210804   4.174   5.144   5.732 -0.4895  0.6877  0.0438
 3614TIP3   OH210805   1.924   5.327   3.369  0.5758  0.0325 -0.0746
 3614TIP3    H110806   2.016   5.302   3.372  0.4327 -0.4260  1.4382
 3614TIP3    H210807   1.920   5.411   3.415  0.5332  1.1899 -2.0805
 3615TIP3   OH210808   5.825   3.461   4.086  0.0565  0.0623 -0.3293
 3615TIP3    H110809   5.791   3.438   4.000 -1.2587  1.0355 -0.0957
 3615TIP3    H210810   5.780   3.402   4.147  1.8456 -1.4485 -0.3552
 3616TIP3   OH210811   6.999   4.672   2.358 -0.2655  0.7505 -0.9782
 3616TIP3    H110812   7.047   4.730   2.416  0.7683 -0.4869 -0.5559
 3616TIP3    H210813   6.982   4.594   2.411 -0.2394  0.0285 -2.0043
 3617TIP3   OH210814   4.246   0.705   3.202 -0.7335 -0.8598  0.1027
 3617TIP3    H110815   4.236   0.710   3.107 -1.4702  0.0763  0.2147
 3617TIP3    H210816   4.158   0.686   3.234 -0.7323  0.0645  0.6727
 3618TIP3   OH210817   6.979   0.613   4.339 -0.2702 -0.0190 -0.1040
 3618TIP3    H110818   6.903   0.668   4.320  0.2546  0.2719 -1.5164
 3618TIP3    H210819   7.033   0.619   4.260  0.5968 -1.2529  0.3616
 3619TIP3   OH210820   6.140   6.110   2.646  0.1199  0.4960  0.2533
 3619TIP3    H110821   6.214   6.170   2.644  0.0761  0.5305 -1.2610
 3619TIP3    H210822   6.119   6.094   2.554 -1.0330 -0.4053  0.6448
 3620TIP3   OH210823   1.541   1.823   4.075  0.7810 -0.4860  0.3379
 3620TIP3    H110824   1.566   1.833   3.983 -0.2117 -1.4797 -0.0554
 3620TIP3    H210825   1.591   1.746   4.104 -0.3309 -1.3312  0.0744
 3621TIP3   OH210826   0.838   1.782   0.355 -0.4516 -0.1616 -0.1462
 3621TIP3    H110827   0.914   1.840   0.364  0.1236 -0.9891  0.4401
 3621TIP3    H210828   0.803   1.775   0.444  0.7390 -2.3456  0.2346
 3622TIP3   OH210829   5.780   0.851   5.777  0.0561 -0.5395 -1.0832
 3622TIP3    H110830   5.812   0.761   5.786  1.2654 -0.1441 -1.1515
 3622TIP3    H210831   5.860   0.904   5.778 -0.3995  0.3425 -3.5993
 3623TIP3   OH210832   3.035   4.410   1.885 -0.2312  0.1310  0.1335
 3623TIP3    H110833   3.029   4.378   1.975  0.2873 -1.4017 -0.3294
 3623TIP3    H210834   3.081   4.493   1.891  0.0360 -0.0837  1.2638
 3624TIP3   OH210835   4.539   3.736   0.009 -0.0849 -0.0274 -0.2805
 3624TIP3    H110836   4.553   3.830   0.021  0.2983 -0.2545  1.1841
 3624TIP3    H210837   4.527   3.702   0.097  1.4980 -1.6254 -0.6373
 3625TIP3   OH210838   5.968   5.896   3.864  0.1249 -0.1246 -0.3275
 3625TIP3    H110839   5.979   5.801   3.874  1.8761  0.2813  3.2423
 3625TIP3    H210840   5.876   5.912   3.883  0.1430 -1.0053  0.5570
 3626TIP3   OH210841   2.754   1.541   0.773  0.6653 -0.1354  0.2921
 3626TIP3    H110842   2.691   1.537   0.845  0.9252 -1.1842  0.4675
 3626TIP3    H210843   2.768   1.635   0.760 -0.2196  0.0929  0.8709
 3627TIP3   OH210844   0.099   6.612   1.031  0.0441 -0.1589 -0.1246
 3627TIP3    H110845   0.151   6.585   0.955  0.6530 -2.2533  0.9509
 3627TIP3    H210846   0.162   6.619   1.102 -0.7498  0.0046  0.5844
 3628TIP3   OH210847   0.810   3.352   1.262  0.1191  0.6692  0.4297
 3628TIP3    H110848   0.760   3.431   1.280 -0.0981  0.6290  0.0318
 3628TIP3    H210849   0.744   3.286   1.239  0.3433  0.6066 -0.0731
 3629TIP3   OH210850   0.643   1.559   4.478  0.5338  0.0683  0.6941
 3629TIP3    H110851   0.636   1.652   4.500 -0.2476  0.1691  0.0840
 3629TIP3    H210852   0.734   1.548   4.451  0.7882  0.5239  1.3372
 3630TIP3   OH210853   0.992   6.463   0.562  0.6753 -0.3056  0.0710
 3630TIP3    H110854   0.943   6.387   0.531 -1.2763  0.7043  0.5801
 3630TIP3    H210855   1.058   6.425   0.620  0.3181 -1.6760 -0.3612
 3631TIP3   OH210856   2.896   4.081   3.355  0.9957 -0.3701 -0.0018
 3631TIP3    H110857   2.927   4.169   3.333  1.1947 -0.4992 -0.2502
 3631TIP3    H210858   2.923   4.027   3.280 -0.2517 -0.3910 -0.4512
 3632TIP3   OH210859   2.936   5.729   4.854 -0.3464 -0.2184  0.5471
 3632TIP3    H110860   2.914   5.654   4.798 -0.4480 -2.5556  3.4617
 3632TIP3    H210861   2.886   5.801   4.818 -0.2973 -1.4984 -2.4053
 3633TIP3   OH210862   1.689   3.442   1.503 -0.3511 -0.0997 -0.5055
 3633TIP3    H110863   1.660   3.517   1.555 -0.4896 -0.3321 -0.2416
 3633TIP3    H210864   1.609   3.396   1.481 -0.2185 -0.5402 -0.0861
 3634TIP3   OH210865   5.872   3.294   2.446  0.3381 -0.0416  0.6744
 3634TIP3    H110866   5.945   3.301   2.386  0.1396 -0.0107  0.4352
 3634TIP3    H210867   5.888   3.360   2.513 -0.8808  1.9092 -0.8710
 3635TIP3   OH210868   3.496   6.384   1.364  0.1798  0.4564  0.1095
 3635TIP3    H110869   3.568   6.364   1.304 -0.7983 -2.3947 -0.2588
 3635TIP3    H210870   3.510   6.326   1.439 -1.2648  0.4422  0.4000
 3636TIP3   OH210871   1.085   1.283   0.596 -0.5473 -0.2680 -0.0031
 3636TIP3    H110872   1.002   1.237   0.609 -1.7435  0.9580 -2.5050
 3636TIP3    H210873   1.086   1.305   0.503  2.0869  0.7656  0.1787
 3637TIP3   OH210874   1.308   3.265   2.582 -0.4907 -0.0740  0.1181
 3637TIP3    H110875   1.273   3.353   2.564 -0.8054 -0.6483 -2.5507
 3637TIP3    H210876   1.300   3.219   2.499  0.7618 -2.2915  1.1355
 3638TIP3   OH210877   4.953   2.619   3.292  0.1030 -0.2584 -0.0247
 3638TIP3    H110878   4.928   2.568   3.368 -3.0310  0.1686 -0.6268
 3638TIP3    H210879   4.980   2.704   3.328  0.4782 -0.6587  0.6650
 3639TIP3   OH210880   0.177   1.367   2.204  0.1146  0.7917  0.0059
 3639TIP3    H110881   0.234   1.389   2.277  0.2746 -0.3898  0.2592
 3639TIP3    H210882   0.237   1.347   2.132  0.1096 -1.4224  0.5463
 3640TIP3   OH210883   2.388   5.976   4.776  0.2641  0.4781  0.2720
 3640TIP3    H110884   2.332   5.929   4.839  0.0921  2.2197  1.5061
 3640TIP3    H210885   2.355   5.950   4.690  0.5613 -2.0633  0.8648
 3641TIP3   OH210886   4.369   4.166   3.119  0.4040  0.0302 -0.2953
 3641TIP3    H110887   4.319   4.236   3.160 -0.8067 -0.4829 -0.8569
 3641TIP3    H210888   4.308   4.126   3.057  1.3668 -0.9146 -0.6545
 3642TIP3   OH210889   0.349   6.528   4.752 -0.0025  0.1788 -0.1773
 3642TIP3    H110890   0.429   6.547   4.704 -0.2601  0.1979 -0.6036
 3642TIP3    H210891   0.341   6.599   4.815  0.2039  0.2890 -0.2749
 3643TIP3   OH210892   5.004   1.022   0.357 -0.8381 -0.7614 -0.3459
 3643TIP3    H110893   5.064   1.073   0.413 -0.3139 -1.9067  0.1582
 3643TIP3    H210894   4.980   1.083   0.287  1.2403 -0.3606 -0.8045
 3644TIP3   OH210895   4.795  -0.000   5.354 -0.0023 -0.6250 -0.2407
 3644TIP3    H110896   4.777   0.093   5.345  2.6010  0.3082  2.5581
 3644TIP3    H210897   4.711  -0.038   5.381 -0.7389  1.2132  0.2151
 3645TIP3   OH210898   6.775   1.267   2.414  0.3780  0.2407  0.4675
 3645TIP3    H110899   6.694   1.294   2.457 -0.0424  0.6274 -0.5509
 3645TIP3    H210900   6.806   1.345   2.368  1.2281  0.0441  0.6802
 3646TIP3   OH210901   0.945   3.097   0.161  0.0900  0.3336  0.8518
 3646TIP3    H110902   0.944   3.010   0.121 -0.2083 -0.5322  2.6241
 3646TIP3    H210903   0.892   3.151   0.103 -0.9745 -1.0635  0.4786
 3647TIP3   OH210904   3.990   3.621   5.060 -0.3685 -0.2601 -0.7602
 3647TIP3    H110905   4.010   3.646   5.150 -2.6620 -0.7498 -0.0345
 3647TIP3    H210906   4.062   3.564   5.034 -0.3404 -1.2629  1.2965
 3648TIP3   OH210907   0.947   1.507   0.010 -0.0864 -0.7669 -0.1109
 3648TIP3    H110908   1.031   1.461   0.015 -0.2458 -0.8933  2.1678
 3648TIP3    H210909   0.917   1.513   0.100 -2.2449 -0.1352 -0.8131
 3649TIP3   OH210910   3.593   6.516   1.712 -0.1887 -0.2175 -0.6119
 3649TIP3    H110911   3.565   6.608   1.710  3.0608  0.9114 -0.3235
 3649TIP3    H210912   3.595   6.489   1.620  0.0649  0.4514 -0.8080
 3650TIP3   OH210913   1.447   3.280   2.277 -0.6600  0.6506  0.1615
 3650TIP3    H110914   1.475   3.371   2.266 -1.1206  1.3677  3.7501
 3650TIP3    H210915   1.520   3.237   2.322 -0.4392 -0.8630 -1.4959
 3651TIP3   OH210916   5.116   4.648   4.075  0.5190 -0.3148 -0.2397
 3651TIP3    H110917   5.082   4.720   4.022 -0.0550 -1.6545 -1.7767
 3651TIP3    H210918   5.039   4.605   4.110  0.7161 -1.5950 -1.3070
 3652TIP3   OH210919   6.240   2.136   1.965  0.0122  0.3083  0.8156
 3652TIP3    H110920   6.327   2.101   1.983 -0.4053 -0.6130  1.1240
 3652TIP3    H210921   6.250   2.185   1.884  0.5642 -0.8570  0.1442
 3653TIP3   OH210922   6.584   4.742   3.787  0.1823  0.1203  0.0068
 3653TIP3    H110923   6.530   4.812   3.824 -0.6354  0.1897 -1.2398
 3653TIP3    H210924   6.544   4.724   3.702  0.5827 -1.6405  0.1549
 3654TIP3   OH210925   4.662   4.807   5.209 -0.0555  0.2206 -0.3385
 3654TIP3    H110926   4.694   4.897   5.202  1.6714 -0.3254  0.0866
 3654TIP3    H210927   4.567   4.815   5.206 -0.0309  2.2548  1.6129
 3655TIP3   OH210928   5.746   4.464   2.299  0.0191  0.2907 -0.1071
 3655TIP3    H110929   5.722   4.480   2.390 -2.0082  2.3975 -0.9201
 3655TIP3    H210930   5.805   4.536   2.277  0.8690 -0.4672 -0.3678
 3656TIP3   OH210931   3.102   1.948   3.466  0.3102 -0.4108 -0.2263
 3656TIP3    H110932   3.013   1.934   3.497 -0.4785  4.0783  0.1877
 3656TIP3    H210933   3.099   1.928   3.373 -0.7871 -1.4018 -0.0019
 3657TIP3   OH210934   3.444   4.615   3.806  0.2202  0.2911  0.5328
 3657TIP3    H110935   3.480   4.531   3.834  0.3261  0.3808  0.6679
 3657TIP3    H210936   3.432   4.664   3.888 -0.8921 -0.0064  0.5640
 3658TIP3   OH210937   6.819   4.899   2.875 -0.3804  0.9876 -0.2552
 3658TIP3    H110938   6.895   4.949   2.904 -0.7167  1.6222 -0.4498
 3658TIP3    H210939   6.776   4.872   2.956  1.5755 -1.8757  0.0023
 3659TIP3   OH210940   3.293   6.005   5.418 -0.3833 -0.0305  0.1386
 3659TIP3    H110941   3.329   6.089   5.446 -2.5194  1.0684 -0.2342
 3659TIP3    H210942   3.366   5.962   5.373  0.5477  1.9585 -0.3715
 3660TIP3   OH210943   5.063   5.258   4.693  0.2920 -0.1320 -0.9032
 3660TIP3    H110944   4.989   5.318   4.705 -0.3254 -0.7955 -1.3257
 3660TIP3    H210945   5.023   5.173   4.674  1.0346 -1.4570  2.7290
 3661TIP3   OH210946   1.806   2.448   0.745 -0.2683 -0.0618 -0.2560
 3661TIP3    H110947   1.735   2.509   0.766 -0.8470 -1.6809  3.3200
 3661TIP3    H210948   1.763   2.374   0.702 -0.5518 -0.3936  0.5758
 3662TIP3   OH210949   6.938   6.113   2.321  0.1002  0.2326 -0.7305
 3662TIP3    H110950   6.981   6.157   2.247 -1.3216 -0.6443 -2.1378
 3662TIP3    H210951   6.988   6.033   2.335  1.1893  1.0454  0.1909
 3663TIP3   OH210952   2.489   2.988   0.504 -0.0759 -0.1990 -0.1217
 3663TIP3    H110953   2.581   2.980   0.529 -0.3233 -2.2019  0.3129
 3663TIP3    H210954   2.491   3.017   0.413  1.0274 -1.1461 -0.4305
 3664TIP3   OH210955   6.833   1.996   5.230 -0.0082 -0.0667  0.1586
 3664TIP3    H110956   6.761   2.044   5.270  1.8227  0.8593  2.6135
 3664TIP3    H210957   6.872   2.059   5.168  0.5522  0.5631  1.1326
 3665TIP3   OH210958   1.002   1.027   5.468  0.2330  0.1463  0.0415
 3665TIP3    H110959   0.939   0.966   5.428 -0.0937 -0.3963  1.3422
 3665TIP3    H210960   1.036   0.980   5.543  0.4240  1.3502  0.7260
 3666TIP3   OH210961   4.774   5.311   3.025 -0.1184 -0.1786 -0.0537
 3666TIP3    H110962   4.867   5.323   3.005 -0.2755  0.3417 -0.5079
 3666TIP3    H210963   4.772   5.282   3.116  0.5934 -1.8536 -0.5247
 3667TIP3   OH210964   5.257   2.377   2.133  0.3826 -0.0505 -0.1038
 3667TIP3    H110965   5.268   2.449   2.072 -1.7286  1.0657  0.7348
 3667TIP3    H210966   5.347   2.352   2.157  1.1854  1.3902 -1.4118
 3668TIP3   OH210967   1.641   0.028   4.700 -0.4329  0.4602 -0.1237
 3668TIP3    H110968   1.586   0.053   4.774 -1.4567 -2.0102  0.0617
 3668TIP3    H210969   1.584  -0.024   4.644  1.3279 -1.0195 -0.6479
 3669TIP3   OH210970   0.890   0.286   2.172  0.0982 -0.2565 -0.3185
 3669TIP3    H110971   0.928   0.323   2.251  1.1445  0.4015 -1.1068
 3669TIP3    H210972   0.836   0.214   2.203  1.9229 -1.1840  0.8574
 3670TIP3   OH210973   6.625   2.732   0.529 -0.4026  0.2473 -0.4873
 3670TIP3    H110974   6.560   2.795   0.497  0.9413  0.4440 -3.1148
 3670TIP3    H210975   6.706   2.757   0.485  1.2551 -0.6647  1.8413
 3671TIP3   OH210976   3.986   1.421   1.119  0.0442 -0.1835 -0.2401
 3671TIP3    H110977   4.011   1.331   1.096  0.2038 -0.3814  0.6573
 3671TIP3    H210978   4.030   1.476   1.054 -0.1247 -0.7555 -0.8481
 3672TIP3   OH210979   3.283   4.674   3.566  0.2438  0.2422  0.3723
 3672TIP3    H110980   3.225   4.744   3.594  0.8311  0.2955  1.5085
 3672TIP3    H210981   3.296   4.621   3.644  0.5847 -0.5875 -0.2294
 3673TIP3   OH210982   0.302   0.341   2.031  0.5911  0.5443  0.7227
 3673TIP3    H110983   0.346   0.262   2.064 -0.1913 -0.3278 -0.2369
 3673TIP3    H210984   0.214   0.311   2.009  0.7233  1.3162 -1.0562
 3674TIP3   OH210985   3.432   5.898   4.352  0.0664  0.1241 -0.2044
 3674TIP3    H110986   3.342   5.907   4.322 -0.3036 -1.2526  0.3889
 3674TIP3    H210987   3.481   5.963   4.302 -1.4404  1.7392  0.3153
 3675TIP3   OH210988   5.215   2.501   5.630 -0.3006 -0.2307  0.0586
 3675TIP3    H110989   5.170   2.585   5.633 -0.2164 -0.2098  0.9121
 3675TIP3    H210990   5.307   2.522   5.646 -0.0489 -0.3358 -1.1283
 3676TIP3   OH210991   3.250   2.565   1.509 -0.5614 -0.0324 -0.0519
 3676TIP3    H110992   3.285   2.589   1.595  0.6873 -0.1391 -0.5070
 3676TIP3    H210993   3.238   2.470   1.513  1.5427 -0.3796 -0.6580
 3677TIP3   OH210994   1.492   4.261   2.897 -0.3147 -0.6161 -0.5749
 3677TIP3    H110995   1.480   4.315   2.976 -1.1154 -0.6448 -0.6675
 3677TIP3    H210996   1.474   4.320   2.824 -0.4944 -0.8222 -0.7009
 3678TIP3   OH210997   5.364   3.865   1.658 -0.2255 -0.4693 -0.0477
 3678TIP3    H110998   5.278   3.824   1.656 -0.4123 -0.1524  0.9340
 3678TIP3    H210999   5.356   3.940   1.599 -0.3190 -1.0016 -0.7219
 3679TIP3   OH211000   6.361   4.153   0.846  0.3618  0.1716  0.1245
 3679TIP3    H111001   6.450   4.120   0.853 -0.0158 -1.1111 -0.6716
 3679TIP3    H211002   6.317   4.091   0.788 -0.5828  1.7718 -0.9492
 3680TIP3   OH211003   4.030   4.797   5.409 -0.1976  0.4806 -0.1519
 3680TIP3    H111004   4.031   4.707   5.441  0.6619  0.0000 -1.4126
 3680TIP3    H211005   4.089   4.795   5.333  0.0811  2.1783 -0.0081
 3681TIP3   OH211006   4.078   5.962   4.936 -0.2266 -0.1392 -0.7984
 3681TIP3    H111007   4.171   5.939   4.933 -0.2060 -0.0259 -1.0764
 3681TIP3    H211008   4.076   6.050   4.973 -0.3807 -0.9799  1.2938
 3682TIP3   OH211009   7.102   2.152   0.643 -0.2949 -0.3133 -0.2495
 3682TIP3    H111010   7.048   2.165   0.721  0.4343 -1.0886  0.3872
 3682TIP3    H211011   7.130   2.061   0.647 -1.4764 -0.8412 -2.2055
 3683TIP3   OH211012   5.483   6.474   1.345  0.4495 -0.4422  0.0428
 3683TIP3    H111013   5.467   6.392   1.393  2.4751 -1.8151 -1.4412
 3683TIP3    H211014   5.528   6.446   1.265  0.1346  2.0536 -1.0943
 3684TIP3   OH211015   5.655   3.972   5.631  0.1882  0.3310  0.3577
 3684TIP3    H111016   5.671   3.881   5.608  1.8731  1.0540 -1.5768
 3684TIP3    H211017   5.738   4.017   5.616 -0.6100  2.2319  1.1751
 3685TIP3   OH211018   0.058   6.789   3.746  0.1856  0.1526  0.2032
 3685TIP3    H111019   0.068   6.839   3.664 -0.1060  1.4708  0.9446
 3685TIP3    H211020  -0.008   6.723   3.726 -0.3823  0.8948 -0.4349
 3686TIP3   OH211021   1.701   2.711   1.864  0.0418 -0.5495 -0.1251
 3686TIP3    H111022   1.678   2.663   1.943 -1.3107  0.2944  0.0326
 3686TIP3    H211023   1.735   2.644   1.805 -0.8545 -1.5495  0.4404
 3687TIP3   OH211024   6.048   2.339   3.784 -0.1135  0.3078 -0.1245
 3687TIP3    H111025   6.081   2.412   3.837 -0.9733  0.4917  0.1794
 3687TIP3    H211026   5.962   2.369   3.753 -1.5511 -1.4325  1.9130
 3688TIP3   OH211027   2.376   2.115   2.633  0.2146  0.6452  0.2103
 3688TIP3    H111028   2.344   2.028   2.608  1.2917 -0.0843  1.1906
 3688TIP3    H211029   2.461   2.097   2.674  0.7345  2.2340 -0.1001
 3689TIP3   OH211030   4.108   1.401   1.840 -0.1978  0.0590  0.4558
 3689TIP3    H111031   4.178   1.429   1.780 -0.5219  0.1260  0.1073
 3689TIP3    H211032   4.081   1.481   1.884 -0.7820  0.2162 -0.1797
 3690TIP3   OH211033   5.419   1.618   1.333  0.0205 -0.1936  0.2522
 3690TIP3    H111034   5.415   1.548   1.398  0.0144 -0.8097 -0.4042
 3690TIP3    H211035   5.342   1.604   1.277  0.9609 -0.7432 -0.9564
 3691TIP3   OH211036   0.781   1.494   4.966 -0.6055  0.2847  0.3596
 3691TIP3    H111037   0.835   1.563   4.927 -0.8643 -0.5306 -1.5469
 3691TIP3    H211038   0.801   1.416   4.914 -2.6748 -0.3312  0.4094
 3692TIP3   OH211039   2.522   1.958   0.259  0.9438  0.2847  0.3459
 3692TIP3    H111040   2.579   2.002   0.322 -0.0469 -0.8776  2.1527
 3692TIP3    H211041   2.445   1.933   0.310  0.5432 -1.6312 -1.0933
 3693TIP3   OH211042   2.559   0.812   1.929 -0.3877 -0.3482  1.0459
 3693TIP3    H111043   2.525   0.881   1.872  1.5267 -0.7918 -0.7640
 3693TIP3    H211044   2.549   0.846   2.017  1.1055  2.5901  0.2148
 3694TIP3   OH211045   3.272   0.384   0.273  0.4533 -0.4582  0.3099
 3694TIP3    H111046   3.318   0.306   0.244  0.3143  0.1078 -1.5768
 3694TIP3    H211047   3.180   0.367   0.252  0.8133  1.7269 -4.2360
 3695TIP3   OH211048   0.004   0.073   5.093  0.3956 -0.1510  0.1853
 3695TIP3    H111049  -0.030   0.008   5.031  1.4150 -1.5256  0.9925
 3695TIP3    H211050   0.081   0.110   5.049  0.9593 -0.9293  0.4924
 3696TIP3   OH211051   2.258   0.893   4.437 -0.1756 -0.0004  0.0726
 3696TIP3    H111052   2.321   0.890   4.509  0.7619 -0.0371 -0.7248
 3696TIP3    H211053   2.310   0.923   4.361 -1.4312  1.4182 -0.2801
 3697TIP3   OH211054   4.693   0.991   0.094 -0.1224  0.4169  0.1308
 3697TIP3    H111055   4.714   0.904   0.059 -0.1239  0.7396 -0.7066
 3697TIP3    H211056   4.731   1.052   0.030 -0.2123  1.0287  0.6553
 3698TIP3   OH211057   2.268   0.193   2.018 -0.6450 -0.0787  0.0382
 3698TIP3    H111058   2.223   0.109   2.024 -1.7093  0.3277 -1.5279
 3698TIP3    H211059   2.233   0.245   2.091 -1.1900 -0.4633  0.0571
 3699TIP3   OH211060   0.040   3.304   0.059  0.4413  0.6121  0.0229
 3699TIP3    H111061   0.073   3.260   0.138 -3.8106  0.7729  2.2110
 3699TIP3    H211062  -0.033   3.249   0.031  1.0426  1.2752 -3.1523
 3700TIP3   OH211063   2.775   5.932   1.328  0.4432 -0.1820 -0.5637
 3700TIP3    H111064   2.685   5.901   1.329 -0.5249  2.3144 -1.5498
 3700TIP3    H211065   2.803   5.928   1.420 -1.3440  0.7011  0.0652
 3701TIP3   OH211066   1.066   3.203   4.650 -0.1020 -0.4926  0.1695
 3701TIP3    H111067   1.059   3.285   4.698  0.4547  0.6844 -1.6606
 3701TIP3    H211068   1.006   3.213   4.576  2.6136 -0.1360 -2.1561
 3702TIP3   OH211069   3.357   5.823   3.278  0.3501 -0.0917 -0.5835
 3702TIP3    H111070   3.412   5.748   3.256  0.2533 -0.5450  0.6531
 3702TIP3    H211071   3.404   5.899   3.244  1.5692 -0.5028  0.1613
 3703TIP3   OH211072   4.865   5.129   1.930  0.2946  0.5147 -0.0436
 3703TIP3    H111073   4.931   5.094   1.990  0.6540  2.1853  0.6038
 3703TIP3    H211074   4.861   5.065   1.858  1.0341 -0.6998  0.9628
 3704TIP3   OH211075   6.640   3.502   0.429  0.1152 -0.0519 -0.5047
 3704TIP3    H111076   6.590   3.421   0.430  0.0574 -0.0477  1.4811
 3704TIP3    H211077   6.724   3.479   0.389 -0.9509 -0.3469 -2.6967
 3705TIP3   OH211078   3.734   3.660   0.852 -0.7064 -0.7173 -0.2421
 3705TIP3    H111079   3.704   3.579   0.896  0.9546 -0.6635  1.0943
 3705TIP3    H211080   3.813   3.685   0.900 -0.4390  0.9862 -1.4956
 3706TIP3   OH211081   6.917   6.643   4.868  0.8149  0.8254 -0.9030
 3706TIP3    H111082   6.953   6.560   4.901  0.2843  0.4193 -1.3226
 3706TIP3    H211083   6.919   6.702   4.943  0.4777  0.1897 -0.3812
 3707TIP3   OH211084   0.718   2.086   4.911 -0.2443 -0.2798 -0.8955
 3707TIP3    H111085   0.641   2.121   4.957 -1.0081  0.3875 -2.5807
 3707TIP3    H211086   0.782   2.070   4.980 -1.2257  0.9373  0.3614
 3708TIP3   OH211087   2.645   5.362   2.807  0.2419 -0.7191  0.1438
 3708TIP3    H111088   2.601   5.445   2.792 -0.1141 -0.7268  1.0372
 3708TIP3    H211089   2.621   5.308   2.732  0.1825 -0.1354 -0.2602
 3709TIP3   OH211090   2.019   0.323   0.055 -0.2726  0.2727  0.0827
 3709TIP3    H111091   2.057   0.408   0.072  1.2389 -0.1630 -0.8796
 3709TIP3    H211092   1.944   0.317   0.114  0.8701  1.3694  1.7065
 3710TIP3   OH211093   0.899   2.878   4.418  0.6518 -0.3938  0.7986
 3710TIP3    H111094   0.947   2.841   4.492  0.9339  0.8752  1.2754
 3710TIP3    H211095   0.807   2.865   4.440  0.7131  0.5845  1.7368
 3711TIP3   OH211096   2.770   4.730   5.214  0.4539  0.3107 -0.1402
 3711TIP3    H111097   2.790   4.736   5.120  0.7721 -3.0601 -0.3862
 3711TIP3    H211098   2.839   4.781   5.256  0.2787  1.9409 -1.6614
 3712TIP3   OH211099   3.743   6.305   3.273  0.1633  0.5662 -0.2105
 3712TIP3    H111100   3.711   6.386   3.233  0.4692  1.2012  0.7950
 3712TIP3    H211101   3.813   6.276   3.215  0.3312  1.2419 -0.3612
 3713TIP3   OH211102   1.945   3.973   0.232 -0.0226 -0.0026 -0.1678
 3713TIP3    H111103   2.024   3.939   0.191 -0.3204 -0.0082 -0.7489
 3713TIP3    H211104   1.959   3.960   0.326 -0.0738 -1.5781 -0.3591
 3714TIP3   OH211105   2.188   5.704   4.728  0.0299  0.6451 -0.1569
 3714TIP3    H111106   2.221   5.640   4.663 -1.5718 -1.5067  1.0196
 3714TIP3    H211107   2.100   5.726   4.697  0.1580  1.4659  0.0440
 3715TIP3   OH211108   6.598   1.767   4.632  0.0408 -0.6232  0.3091
 3715TIP3    H111109   6.637   1.831   4.572 -0.3723  0.6548  1.3444
 3715TIP3    H211110   6.586   1.688   4.579 -1.7977  0.9383 -1.7926
 3716TIP3   OH211111   4.051   0.171   2.332 -0.6169  0.0860 -0.1290
 3716TIP3    H111112   4.110   0.183   2.257  1.0305  0.3681  1.1443
 3716TIP3    H211113   4.104   0.196   2.408 -1.8250 -1.4055  1.2686
 3717TIP3   OH211114   5.731   4.338   4.869  0.7152  0.1216 -0.2116
 3717TIP3    H111115   5.805   4.395   4.851  0.3190  0.4567 -0.7949
 3717TIP3    H211116   5.655   4.396   4.874  0.4125 -0.2690 -0.1189
 3718TIP3   OH211117   5.552   0.436   1.654 -0.0548 -0.0542  0.4629
 3718TIP3    H111118   5.622   0.498   1.636  0.9422 -1.2488  0.1305
 3718TIP3    H211119   5.543   0.386   1.572  0.1681 -1.3081  1.1827
 3719TIP3   OH211120   1.097   1.578   1.848 -0.3434 -0.3663 -0.0002
 3719TIP3    H111121   1.176   1.608   1.803 -0.3188 -0.4384 -0.0059
 3719TIP3    H211122   1.025   1.604   1.791 -0.2530 -1.3621 -0.5910
 3720TIP3   OH211123   4.302   0.198   4.783  0.1587  0.0473  0.1447
 3720TIP3    H111124   4.312   0.259   4.710 -0.5010  0.9748  0.8152
 3720TIP3    H211125   4.265   0.250   4.854 -1.9488 -1.4671  0.2520
 3721TIP3   OH211126   2.871   3.945   5.819 -0.1796 -0.4217  0.1882
 3721TIP3    H111127   2.842   3.863   5.858 -0.1619 -1.2416 -1.4678
 3721TIP3    H211128   2.908   3.921   5.734  0.4649  1.2157 -0.0429
 3722TIP3   OH211129   0.595   3.748   5.289 -0.0624 -0.7506  0.8387
 3722TIP3    H111130   0.595   3.763   5.384  0.5332  2.1882  0.4602
 3722TIP3    H211131   0.670   3.690   5.274  0.5522 -0.3027  2.0423
 3723TIP3   OH211132   3.657   1.686   4.075  0.1830  0.2200  0.3882
 3723TIP3    H111133   3.744   1.664   4.042  0.0291  0.0072  0.1150
 3723TIP3    H211134   3.601   1.685   3.997 -0.0541  0.4099  0.5531
 3724TIP3   OH211135   3.100   6.424   5.533 -0.0103  0.2173  0.1455
 3724TIP3    H111136   3.106   6.510   5.576 -0.5354 -0.1051  0.8937
 3724TIP3    H211137   3.012   6.421   5.497  0.4562  0.5187 -1.0722
 3725TIP3   OH211138   0.527   2.622   4.884 -0.3208 -0.4124 -0.2512
 3725TIP3    H111139   0.519   2.638   4.789  1.0973  0.1622 -0.2883
 3725TIP3    H211140   0.454   2.671   4.922 -0.0416  0.5873 -0.9421
 3726TIP3   OH211141   3.311   1.693   3.161 -0.5197  0.0810  0.2753
 3726TIP3    H111142   3.380   1.715   3.224  1.2160 -2.3217 -0.6455
 3726TIP3    H211143   3.356   1.685   3.077 -1.8551 -1.6676 -0.3441
 3727TIP3   OH211144   2.869   1.760   5.355 -0.2902 -0.5214  0.1262
 3727TIP3    H111145   2.791   1.723   5.314 -1.0675 -0.2159  1.3087
 3727TIP3    H211146   2.936   1.692   5.346 -0.0797 -0.1096 -2.5585
 3728TIP3   OH211147   4.431   2.310   5.852 -0.8690  0.4652 -0.2295
 3728TIP3    H111148   4.440   2.392   5.900 -2.3703 -0.4966  1.8882
 3728TIP3    H211149   4.355   2.325   5.795  0.2505  1.2530 -1.5628
 3729TIP3   OH211150   0.515   3.437   3.191 -0.3608 -0.0059  0.2701
 3729TIP3    H111151   0.589   3.385   3.221  0.5347  1.0537 -0.0323
 3729TIP3    H211152   0.537   3.460   3.100 -2.0066 -1.3333 -0.5167
 3730TIP3   OH211153   4.771   5.865   0.055 -0.7099 -0.2341  0.4986
 3730TIP3    H111154   4.694   5.884   0.108 -1.3222  0.1625 -0.4993
 3730TIP3    H211155   4.742   5.881  -0.035  1.0310  1.5991  0.2163
 3731TIP3   OH211156   1.334   0.453   5.229 -0.1541 -0.2269 -0.2412
 3731TIP3    H111157   1.239   0.461   5.225 -0.1290  1.0122  1.0229
 3731TIP3    H211158   1.363   0.465   5.138 -1.1438  0.0792 -0.5265
 3732TIP3   OH211159   6.909   4.907   2.142 -0.2795 -0.0392 -0.6460
 3732TIP3    H111160   6.874   4.927   2.229  0.2659  1.7648 -0.8060
 3732TIP3    H211161   6.838   4.929   2.082 -0.5015 -0.8649 -0.6901
 3733TIP3   OH211162   4.443   0.377   2.667  0.1221 -0.5165  0.4664
 3733TIP3    H111163   4.412   0.454   2.715 -1.0146 -0.3898 -0.4149
 3733TIP3    H211164   4.529   0.403   2.632  0.3090 -0.1063  1.2238
 3734TIP3   OH211165   2.743   0.969   1.822 -0.0122  0.5055 -0.1666
 3734TIP3    H111166   2.689   0.900   1.860  0.1267 -0.2945 -1.3719
 3734TIP3    H211167   2.721   1.047   1.872 -0.0932 -0.4222  1.3138
 3735TIP3   OH211168   3.730   6.481   4.484 -0.2837 -0.0357 -0.1470
 3735TIP3    H111169   3.753   6.549   4.547  1.9190 -2.4725  1.9205
 3735TIP3    H211170   3.656   6.435   4.525 -0.6433  0.0212 -0.7150
 3736TIP3   OH211171   3.310   5.891   1.713  0.2089  0.5038  0.1405
 3736TIP3    H111172   3.308   5.975   1.760  3.6554  0.7081  0.2108
 3736TIP3    H211173   3.364   5.908   1.636  2.6796 -1.9620  1.1266
 3737TIP3   OH211174   3.036   5.790   2.671  0.1708  0.3632  0.1752
 3737TIP3    H111175   2.992   5.868   2.637 -0.9193  0.0612  0.8440
 3737TIP3    H211176   2.965   5.738   2.710  0.8369 -1.0922 -0.4982
 3738TIP3   OH211177   0.763   3.197   5.111  0.0676 -0.2076  0.8030
 3738TIP3    H111178   0.825   3.125   5.102  0.7149  0.0718  2.6580
 3738TIP3    H211179   0.677   3.156   5.098  0.4505 -1.2452  1.4188
 3739TIP3   OH211180   4.284   6.416   4.281 -0.3148  0.1215 -0.1547
 3739TIP3    H111181   4.208   6.370   4.245  1.5792 -2.1111 -1.6427
 3739TIP3    H211182   4.295   6.380   4.369 -0.9998  0.5133  0.0953
 3740TIP3   OH211183   2.716   3.865   2.010  0.0170 -0.1819 -0.0895
 3740TIP3    H111184   2.794   3.811   1.992  0.9315  1.3633 -1.0609
 3740TIP3    H211185   2.749   3.955   2.010 -1.9181  0.5983 -1.4703
 3741TIP3   OH211186   6.378   4.623   2.193  0.4138  0.3804 -0.2359
 3741TIP3    H111187   6.364   4.542   2.243 -1.4357  0.9765  0.2779
 3741TIP3    H211188   6.465   4.652   2.220  1.2302 -1.5495 -0.6185
 3742TIP3   OH211189   2.297   5.171   3.868 -0.2012  0.0774  0.2606
 3742TIP3    H111190   2.272   5.201   3.781 -0.3023  1.1564  0.6414
 3742TIP3    H211191   2.344   5.245   3.906  1.6277 -1.0957  0.4024
 3743TIP3   OH211192   2.680   2.289   0.699 -0.1828  0.5440  0.1782
 3743TIP3    H111193   2.703   2.344   0.624  0.3313  3.0010  2.0234
 3743TIP3    H211194   2.588   2.308   0.716 -0.6919 -1.0435 -0.5755
 3744TIP3   OH211195   5.720   6.200   0.449 -0.1689  0.4462  0.3511
 3744TIP3    H111196   5.811   6.172   0.459  0.2536  1.7710  0.4020
 3744TIP3    H211197   5.701   6.251   0.528 -0.6287  1.0249 -0.1243
 3745TIP3   OH211198   0.451   6.295   4.853  0.3705 -0.0385  0.1245
 3745TIP3    H111199   0.413   6.374   4.814  0.5439  0.5143  1.0467
 3745TIP3    H211200   0.499   6.326   4.930  1.3143 -0.9278 -0.0799
 3746TIP3   OH211201   2.948   2.211   4.813 -0.2092  0.3689 -0.7209
 3746TIP3    H111202   2.868   2.163   4.793  0.4742 -0.8798 -0.5593
 3746TIP3    H211203   2.945   2.226   4.907  0.2712 -0.7154 -0.5136
 3747TIP3   OH211204   6.068   2.675   0.792  0.0875  0.0178 -0.1914
 3747TIP3    H111205   6.066   2.585   0.826 -0.0703 -0.0733 -0.4395
 3747TIP3    H211206   5.982   2.710   0.815  0.0694  0.0347 -0.2848
 3748TIP3   OH211207   0.884   3.790   3.840 -0.9885 -0.0451  0.4053
 3748TIP3    H111208   0.944   3.856   3.807 -0.8173  0.6773  2.0736
 3748TIP3    H211209   0.817   3.782   3.772  0.2047  0.1642 -0.8442
 3749TIP3   OH211210   3.252   1.563   2.361 -0.2291 -0.1705 -0.5195
 3749TIP3    H111211   3.169   1.526   2.329  0.2375 -1.5688 -0.1736
 3749TIP3    H211212   3.250   1.547   2.455  0.6200 -0.5928 -0.5709
 3750TIP3   OH211213   4.919   5.514   1.637 -0.2663  0.6088  0.1221
 3750TIP3    H111214   4.856   5.494   1.568  2.4627 -0.0345 -2.4221
 3750TIP3    H211215   4.903   5.449   1.704 -1.1129 -0.7326 -1.3089
 3751TIP3   OH211216   1.727   3.481   4.092  0.2225 -0.2902 -0.0430
 3751TIP3    H111217   1.772   3.554   4.135 -1.5895  0.7461  0.1874
 3751TIP3    H211218   1.773   3.403   4.123  3.0514  0.7422 -1.2815
 3752TIP3   OH211219   6.336   2.577   4.056 -0.2303 -0.2313 -0.0597
 3752TIP3    H111220   6.360   2.619   3.973 -1.7086  0.5414 -0.1321
 3752TIP3    H211221   6.405   2.603   4.117 -1.8493  3.8719  0.3681
 3753TIP3   OH211222   0.121   1.554   5.584 -0.2986  1.0988  0.0169
 3753TIP3    H111223   0.192   1.616   5.567  1.3463 -0.6942  0.0716
 3753TIP3    H211224   0.055   1.575   5.517  1.6550  0.7748 -2.1561
 3754TIP3   OH211225   0.568   4.854   3.754  0.2110 -0.0991 -0.0607
 3754TIP3    H111226   0.560   4.946   3.729  0.8368 -0.2113 -0.6814
 3754TIP3    H211227   0.484   4.834   3.795 -0.0171  0.6859 -0.1194
 3755TIP3   OH211228   4.649   0.333   3.403 -1.1081  0.0774 -0.3402
 3755TIP3    H111229   4.580   0.323   3.468  1.1012  1.7229  2.5284
 3755TIP3    H211230   4.627   0.414   3.357 -1.7107 -0.0610 -0.3006
 3756TIP3   OH211231   5.101   2.230   1.586  0.9209 -0.5345  0.7474
 3756TIP3    H111232   5.036   2.163   1.609  0.3185  0.0746  0.8304
 3756TIP3    H211233   5.088   2.245   1.493  0.4750  0.0740  0.9007
 3757TIP3   OH211234   6.847   2.789   1.801 -0.3450  0.3428  0.0034
 3757TIP3    H111235   6.850   2.701   1.839 -1.9824 -0.2769 -1.1789
 3757TIP3    H211236   6.791   2.839   1.860  2.1096  1.2400  1.7536
 3758TIP3   OH211237   6.221   5.436   2.764  0.0659 -0.0507 -0.2791
 3758TIP3    H111238   6.270   5.517   2.778  1.4203 -0.9494  0.4713
 3758TIP3    H211239   6.203   5.434   2.670 -1.8917  2.1286 -0.0301
 3759TIP3   OH211240   2.212   4.765   3.001 -0.0380  0.0017  0.1033
 3759TIP3    H111241   2.151   4.692   2.990  1.7956 -1.4141 -1.3541
 3759TIP3    H211242   2.185   4.807   3.082 -1.6372 -1.8324  0.5896
 3760TIP3   OH211243   3.807   1.051   5.660 -0.0974 -0.1436 -0.2825
 3760TIP3    H111244   3.740   1.095   5.712  1.1568  1.2111  0.2414
 3760TIP3    H211245   3.851   0.993   5.722 -1.9754 -2.5659 -1.0418
 3761TIP3   OH211246   4.542   2.682   4.403 -0.1531 -0.0506 -1.1388
 3761TIP3    H111247   4.523   2.605   4.351  0.7056 -0.8720 -0.2769
 3761TIP3    H211248   4.516   2.659   4.492 -2.2831  1.5898 -1.2557
 3762TIP3   OH211249   6.250   1.594   0.572  0.4892 -0.0118 -0.5357
 3762TIP3    H111250   6.285   1.591   0.661 -1.6360  1.6666  0.4764
 3762TIP3    H211251   6.160   1.626   0.583 -0.1533 -0.6073 -3.2299
 3763TIP3   OH211252   0.480   4.144   1.595  0.2263 -0.6133 -0.3029
 3763TIP3    H111253   0.507   4.233   1.572  0.9239 -0.6828  0.2366
 3763TIP3    H211254   0.534   4.088   1.539 -0.2687 -0.7054 -0.7002
 3764TIP3   OH211255   1.692   6.227   3.402  0.7051  0.2392  0.2072
 3764TIP3    H111256   1.617   6.167   3.398  0.1385  0.9480 -0.1837
 3764TIP3    H211257   1.750   6.189   3.467  0.8353 -1.2601 -0.7396
 3765TIP3   OH211258   4.927   4.713   1.946  0.3579 -0.1447 -0.2772
 3765TIP3    H111259   4.860   4.654   1.981  0.9257 -0.5091  0.2330
 3765TIP3    H211260   4.930   4.693   1.853 -0.4665  0.1097 -0.3663
 3766TIP3   OH211261   4.521   1.134   3.513  0.6127  0.6522 -0.1101
 3766TIP3    H111262   4.508   1.180   3.430  0.1570 -1.7683 -1.4528
 3766TIP3    H211263   4.606   1.165   3.545  0.7521  1.6928 -1.4231
 3767TIP3   OH211264   0.530   0.749   1.753 -0.4369 -0.0225  0.0802
 3767TIP3    H111265   0.552   0.657   1.738 -0.3613 -0.0629  0.4414
 3767TIP3    H211266   0.612   0.790   1.779 -0.2899  0.3281 -0.8920
 3768TIP3   OH211267   2.568   5.306   1.692 -0.2657 -0.1625 -0.2106
 3768TIP3    H111268   2.626   5.324   1.766 -1.7804  0.5464  0.8552
 3768TIP3    H211269   2.530   5.391   1.671 -2.6692 -0.9475  0.6754
 3769TIP3   OH211270   3.950   3.981   2.869 -0.1081  0.2999 -0.2211
 3769TIP3    H111271   3.907   3.915   2.815 -0.8692 -0.7694  1.6189
 3769TIP3    H211272   3.949   3.945   2.957  0.0200  2.5071  0.7453
 3770TIP3   OH211273   5.509   2.729   4.395 -0.0513 -0.1393  0.6858
 3770TIP3    H111274   5.592   2.682   4.383 -0.4697 -0.4885 -1.1019
 3770TIP3    H211275   5.508   2.753   4.488  0.7566 -2.5619  1.3792
 3771TIP3   OH211276   1.507   1.809   1.868  0.0003 -0.9345  0.0908
 3771TIP3    H111277   1.453   1.752   1.813 -0.2279  0.4802 -1.2472
 3771TIP3    H211278   1.597   1.787   1.844 -0.0993  0.2028 -1.5226
 3772TIP3   OH211279   6.648   5.202   1.587 -0.8550  0.0802 -0.2822
 3772TIP3    H111280   6.585   5.164   1.526 -2.4833  2.1422 -0.0034
 3772TIP3    H211281   6.668   5.288   1.550 -2.1648  1.5374  2.1864
 3773TIP3   OH211282   2.976   1.903   1.115  0.4012  0.2960 -0.1389
 3773TIP3    H111283   3.025   1.943   1.043  0.5912  1.5137  0.6379
 3773TIP3    H211284   2.952   1.816   1.083  0.1253  0.9683 -1.8242
 3774TIP3   OH211285   6.524   3.914   1.509 -0.3016 -0.0255  0.3759
 3774TIP3    H111286   6.489   3.949   1.591  1.2660 -0.6079  1.3431
 3774TIP3    H211287   6.546   3.823   1.529 -0.4878 -0.3709 -0.8925
 3775TIP3   OH211288   2.135   0.290   4.666  0.1192 -0.8408 -0.4650
 3775TIP3    H111289   2.064   0.229   4.686 -1.5966  0.6013 -1.8524
 3775TIP3    H211290   2.186   0.245   4.599  0.4407 -1.8111  0.3981
 3776TIP3   OH211291   6.245   5.669   5.241 -0.3349  0.7805  0.0551
 3776TIP3    H111292   6.164   5.637   5.201 -0.1800  1.2390 -0.6496
 3776TIP3    H211293   6.309   5.600   5.225 -0.1509  1.1639 -0.9418
 3777TIP3   OH211294   7.011   0.047   5.410  0.4119  0.0454  0.1118
 3777TIP3    H111295   7.104   0.058   5.391  0.2114  1.7906 -0.0109
 3777TIP3    H211296   6.968   0.049   5.325  0.1142  1.1659  0.2693
 3778TIP3   OH211297   0.366   5.579   1.805 -0.2190  0.4769 -0.0526
 3778TIP3    H111298   0.290   5.628   1.836 -0.1780 -0.9559  2.5918
 3778TIP3    H211299   0.338   5.487   1.805  1.1932  0.0132  0.0628
 3779TIP3   OH211300   6.125   2.792   4.076  0.3610  0.1679 -0.2390
 3779TIP3    H111301   6.193   2.821   4.137 -0.5883 -1.1445  1.5453
 3779TIP3    H211302   6.046   2.838   4.104  0.0598  0.1472 -1.0166
 3780TIP3   OH211303   2.282   4.546   1.994  0.2427  1.0090 -0.0441
 3780TIP3    H111304   2.284   4.474   2.057 -3.0313  0.5227 -0.2850
 3780TIP3    H211305   2.373   4.575   1.986  1.4626 -2.1156  1.1578
 3781TIP3   OH211306   2.400   3.228   4.281  0.5875 -0.4221  0.3016
 3781TIP3    H111307   2.460   3.299   4.257 -1.5830  1.2741 -0.4683
 3781TIP3    H211308   2.410   3.219   4.375 -0.4022  2.2972  0.7539
 3782TIP3   OH211309   5.749   3.648   4.257  0.1308 -0.1979  0.3648
 3782TIP3    H111310   5.665   3.678   4.220  0.6953  1.3990  0.2991
 3782TIP3    H211311   5.776   3.576   4.200 -0.1937  0.6446 -0.8958
 3783TIP3   OH211312   1.960   0.245   3.745 -0.1039 -0.1393  0.2785
 3783TIP3    H111313   1.914   0.298   3.810  0.0115 -0.1771  0.3934
 3783TIP3    H211314   1.926   0.157   3.758  1.2390 -0.5174  1.5567
 3784TIP3   OH211315   3.242   2.080   3.177  0.6281 -0.0575 -0.0545
 3784TIP3    H111316   3.284   2.040   3.101  0.1017 -0.1069 -0.3263
 3784TIP3    H211317   3.160   2.031   3.187  2.1301 -2.4015  2.5939
 3785TIP3   OH211318   5.422   1.856   2.930  0.3876 -0.7352  0.0195
 3785TIP3    H111319   5.429   1.943   2.891  1.6664 -0.5786  0.5414
 3785TIP3    H211320   5.509   1.818   2.919 -0.2857 -2.1556 -0.6263
 3786TIP3   OH211321   2.997   3.123   1.115 -0.1060 -0.0807 -0.8046
 3786TIP3    H111322   2.902   3.122   1.128 -0.0998  0.1418 -0.7457
 3786TIP3    H211323   3.014   3.206   1.070  0.1670  0.2835 -0.0396
 3787TIP3   OH211324   2.276   1.439   4.701  0.0358  0.1671  0.3606
 3787TIP3    H111325   2.223   1.451   4.622  0.6408 -1.3243 -0.3039
 3787TIP3    H211326   2.278   1.344   4.715  0.4779  0.3585  1.8109
 3788TIP3   OH211327   0.132   5.552   2.827  0.2916 -0.4315  0.2870
 3788TIP3    H111328   0.210   5.525   2.875  0.1097  1.8408  2.0141
 3788TIP3    H211329   0.065   5.563   2.894 -0.3780  1.4726 -0.6152
 3789TIP3   OH211330   2.028   3.299   4.815 -0.2471 -0.2659  0.1260
 3789TIP3    H111331   1.971   3.300   4.738 -0.4154  0.3924  0.2539
 3789TIP3    H211332   2.067   3.386   4.817  1.9131 -1.1277 -0.8054
 3790TIP3   OH211333   5.337   5.493   0.544  0.2416 -0.0871  0.4911
 3790TIP3    H111334   5.276   5.562   0.571  1.2630  0.6487  0.9895
 3790TIP3    H211335   5.346   5.505   0.449 -0.1829 -0.0259  0.4569
 3791TIP3   OH211336   3.434   6.723   3.644 -0.8839 -0.0693  0.2958
 3791TIP3    H111337   3.405   6.744   3.556 -3.0718 -0.1626  0.9483
 3791TIP3    H211338   3.501   6.789   3.664  0.4296 -0.6725 -1.7567
 3792TIP3   OH211339   0.696   2.515   0.110 -0.2846 -0.4183 -0.2038
 3792TIP3    H111340   0.672   2.480   0.024  0.0581 -0.9289 -0.0954
 3792TIP3    H211341   0.617   2.560   0.140  0.3597  2.0667 -1.9105
 3793TIP3   OH211342   6.091   5.476   3.914 -0.8962 -0.1660  0.3058
 3793TIP3    H111343   6.007   5.520   3.911 -0.3033  0.9664 -0.0481
 3793TIP3    H211344   6.113   5.473   4.007 -1.4921 -0.8095  0.4332
 3794TIP3   OH211345   0.625   0.586   5.832 -0.6444  0.1613  0.3090
 3794TIP3    H111346   0.670   0.658   5.875  0.4810 -0.6644  0.5632
 3794TIP3    H211347   0.691   0.516   5.828 -1.0830 -0.2028 -1.6458
 3795TIP3   OH211348   4.083   5.483   1.586 -0.0091 -0.1210  0.5272
 3795TIP3    H111349   4.174   5.468   1.612 -0.3998  0.6173  2.5494
 3795TIP3    H211350   4.086   5.564   1.535  0.4652  0.0256  0.7785
 3796TIP3   OH211351   2.738   3.356   3.789  0.6423  0.2324  0.5133
 3796TIP3    H111352   2.727   3.320   3.701  1.3880  0.2759  0.3931
 3796TIP3    H211353   2.828   3.332   3.813  0.3335 -0.0835  1.4021
 3797TIP3   OH211354   5.320   3.236   1.340  0.0316  0.5331  0.0068
 3797TIP3    H111355   5.279   3.293   1.275 -1.1241 -0.6329 -0.3441
 3797TIP3    H211356   5.379   3.180   1.289 -0.2087  0.2093  0.0817
 3798TIP3   OH211357   5.221   4.327   4.562  0.0202 -0.2867  0.5851
 3798TIP3    H111358   5.272   4.264   4.512 -0.2429 -0.5487  0.6414
 3798TIP3    H211359   5.148   4.349   4.505  0.4019  0.3790  0.3516
 3799TIP3   OH211360   5.084   2.719   4.332 -0.0839 -0.1249 -0.1255
 3799TIP3    H111361   5.045   2.805   4.351 -1.7643 -0.8937  0.0887
 3799TIP3    H211362   5.026   2.656   4.376  2.6838 -1.2649  2.1721
 3800TIP3   OH211363   6.281   6.663   1.362 -0.4339 -0.1099 -0.5236
 3800TIP3    H111364   6.356   6.709   1.401 -1.0405  1.3628 -1.0387
 3800TIP3    H211365   6.320   6.589   1.316  0.4417 -0.9684  1.4976
 3801TIP3   OH211366   7.031   2.600   0.863  0.5587  0.5996  0.6129
 3801TIP3    H111367   6.941   2.567   0.870  0.2439  0.8454 -1.5925
 3801TIP3    H211368   7.081   2.545   0.924 -0.7412 -0.8909  0.4149
 3802TIP3   OH211369   4.660   0.398   2.899  0.3327  0.1397 -0.6309
 3802TIP3    H111370   4.726   0.444   2.847  0.1442 -0.4226 -1.3843
 3802TIP3    H211371   4.594   0.371   2.836  0.5569 -1.3851 -0.2553
 3803TIP3   OH211372   1.810   2.521   2.562 -0.4484 -0.0124  0.0794
 3803TIP3    H111373   1.820   2.611   2.593 -1.2308  0.3971 -0.7974
 3803TIP3    H211374   1.891   2.503   2.514 -0.1398  0.0986  0.5550
 3804TIP3   OH211375   0.274   4.538   2.770  0.1699  0.1698 -0.1888
 3804TIP3    H111376   0.348   4.564   2.716  2.6739 -0.4147  2.6990
 3804TIP3    H211377   0.290   4.446   2.791 -2.0249 -0.3206 -0.3979
 3805TIP3   OH211378   2.035   3.212   5.435  0.0194  0.1335 -0.0852
 3805TIP3    H111379   1.959   3.157   5.414  0.8245 -1.2552  0.4858
 3805TIP3    H211380   2.000   3.279   5.494 -1.0356  0.3987 -0.9769
 3806TIP3   OH211381   2.401   1.496   1.809 -0.0394 -0.0379 -0.2248
 3806TIP3    H111382   2.483   1.490   1.761  1.5225  0.9010  2.1396
 3806TIP3    H211383   2.405   1.581   1.854 -3.2206  0.9366 -1.5218
 3807TIP3   OH211384   2.089   5.289   4.175  0.3391  0.3887  0.1941
 3807TIP3    H111385   2.173   5.282   4.129 -0.0135 -0.1008 -0.3968
 3807TIP3    H211386   2.036   5.217   4.139 -0.0180  0.1171  1.2308
 3808TIP3   OH211387   4.673   6.747   0.185  0.3693 -0.0487 -0.2012
 3808TIP3    H111388   4.623   6.669   0.208  0.9335  0.1962  2.2141
 3808TIP3    H211389   4.764   6.717   0.181  0.3833  0.1106 -1.3799
 3809TIP3   OH211390   2.708   0.766   3.486  0.3180 -0.1988  0.1343
 3809TIP3    H111391   2.684   0.674   3.493 -2.5425  0.5850  3.7041
 3809TIP3    H211392   2.783   0.776   3.545 -1.4164  0.1667  2.4316
 3810TIP3   OH211393   6.741   1.450   0.449 -0.0157 -0.1601 -0.3407
 3810TIP3    H111394   6.677   1.521   0.446 -1.5707 -1.4222  1.1307
 3810TIP3    H211395   6.725   1.401   0.368 -0.8255 -0.3826 -0.0528
 3811TIP3   OH211396   4.359   5.674   4.057 -0.0347 -0.0907 -0.1884
 3811TIP3    H111397   4.432   5.612   4.062  0.1955  0.2598  2.2140
 3811TIP3    H211398   4.365   5.724   4.139 -1.5609  1.5735 -1.0210
 3812TIP3   OH211399   2.396   5.117   2.092 -0.4889 -0.1784  0.3746
 3812TIP3    H111400   2.356   5.201   2.069  0.1510  0.3270  1.0473
 3812TIP3    H211401   2.490   5.134   2.086 -0.2899 -0.2153  2.6257
 3813TIP3   OH211402   5.287   6.073   4.908 -0.0815 -0.1804  0.0361
 3813TIP3    H111403   5.382   6.063   4.914 -0.0042 -0.6530 -1.5260
 3813TIP3    H211404   5.253   5.983   4.906 -0.5982 -0.0143  0.9752
 3814TIP3   OH211405   3.089   5.580   1.879 -0.1955  0.1353 -0.2778
 3814TIP3    H111406   3.134   5.600   1.797 -1.5337 -1.6544 -1.5359
 3814TIP3    H211407   3.003   5.621   1.870 -0.6316 -0.7206 -0.1449
 3815TIP3   OH211408   5.056   6.205   2.577  0.0647  0.1774  0.0711
 3815TIP3    H111409   5.064   6.239   2.667  1.0845 -1.1298  0.5068
 3815TIP3    H211410   5.128   6.143   2.569 -0.1580  0.1001 -1.5945
 3816TIP3   OH211411   6.568   5.351   0.987 -0.0790 -0.3015 -0.1734
 3816TIP3    H111412   6.662   5.361   0.973 -0.4470  0.6529 -2.4286
 3816TIP3    H211413   6.556   5.364   1.081  1.9042  0.7197 -0.0085
 3817TIP3   OH211414   2.390   0.687   3.464 -0.7078 -0.0114 -0.4407
 3817TIP3    H111415   2.337   0.733   3.399  1.6346  1.4639 -1.4094
 3817TIP3    H211416   2.392   0.746   3.539  1.7547  1.3115 -1.4419
 3818TIP3   OH211417   2.841   1.688   4.129 -0.2328 -0.4744 -0.0697
 3818TIP3    H111418   2.914   1.721   4.078  0.1279 -0.3312  0.5323
 3818TIP3    H211419   2.846   1.592   4.120  0.6811 -0.5225  0.8555
 3819TIP3   OH211420   6.271   3.138  -0.002  0.2638  0.4302 -0.1383
 3819TIP3    H111421   6.320   3.092   0.066 -0.4034 -2.1704 -1.2566
 3819TIP3    H211422   6.224   3.068  -0.048 -2.5100  2.5128 -0.6993
 3820TIP3   OH211423   2.807   0.501   1.859 -0.3035  0.1394  0.4971
 3820TIP3    H111424   2.897   0.530   1.873 -0.0240 -0.9063  0.9898
 3820TIP3    H211425   2.770   0.493   1.947 -1.1419  1.2902  0.2748
 3821TIP3   OH211426   1.704   6.373   3.171  0.6156  0.4119  0.0626
 3821TIP3    H111427   1.775   6.330   3.124  0.2317  0.4007 -0.5163
 3821TIP3    H211428   1.695   6.323   3.252 -0.4025 -1.1681 -0.9803
 3822TIP3   OH211429   1.163   5.920   0.530 -0.1864 -0.2286 -0.1319
 3822TIP3    H111430   1.258   5.909   0.524 -0.2900 -0.6343 -1.1997
 3822TIP3    H211431   1.144   6.002   0.485 -0.0377  1.5979  2.8794
 3823TIP3   OH211432   4.008   6.301   2.799  0.3600 -0.2642  0.2725
 3823TIP3    H111433   4.034   6.308   2.707  1.9981  2.8746  0.7985
 3823TIP3    H211434   3.914   6.317   2.799  0.1119 -1.5379 -0.9164
 3824TIP3   OH211435   3.474   1.307   0.742  0.2425  0.1506  0.1564
 3824TIP3    H111436   3.386   1.287   0.711 -0.1273  0.3931  1.0462
 3824TIP3    H211437   3.468   1.396   0.778  0.3826 -0.5233  1.9326
 3825TIP3   OH211438   6.544   5.631   3.867  0.0024  0.2911  0.2312
 3825TIP3    H111439   6.472   5.668   3.815  1.3102  0.4146 -1.5998
 3825TIP3    H211440   6.622   5.652   3.816  1.3828  0.3869  2.2864
 3826TIP3   OH211441   1.621   0.801   4.212  0.3160  0.0534 -0.1318
 3826TIP3    H111442   1.598   0.722   4.261  2.1016 -0.6608 -0.3611
 3826TIP3    H211443   1.565   0.870   4.249 -1.3510 -1.3218 -0.0087
 3827TIP3   OH211444   2.442   1.550   4.173  0.6676 -0.2094  0.2169
 3827TIP3    H111445   2.378   1.568   4.105 -1.4393  1.2719  2.4479
 3827TIP3    H211446   2.428   1.457   4.195 -0.7893  0.0949  0.6867
 3828TIP3   OH211447   5.753   0.585   1.536  0.0481  0.0292 -0.4124
 3828TIP3    H111448   5.738   0.660   1.478  1.4351  1.1677  0.6381
 3828TIP3    H211449   5.823   0.536   1.493 -1.9025 -1.6243 -1.9137
 3829TIP3   OH211450   2.125   0.931   3.945  0.2040  0.1639 -0.0894
 3829TIP3    H111451   2.187   0.972   3.885 -0.6320  1.2549 -0.2316
 3829TIP3    H211452   2.051   0.991   3.949  0.5507  0.5687  2.6444
 3830TIP3   OH211453   0.409   2.056   1.107 -0.1172 -0.5244  0.3718
 3830TIP3    H111454   0.491   2.097   1.079 -0.2742 -0.2022  0.3800
 3830TIP3    H211455   0.435   1.996   1.177  0.4316 -2.1625 -1.1662
 3831TIP3   OH211456   5.262   1.236   3.792  0.5373  0.2813  0.5561
 3831TIP3    H111457   5.209   1.315   3.801  1.1169  0.7032  0.3091
 3831TIP3    H211458   5.199   1.164   3.803  0.2013  0.7548  2.0097
 3832TIP3   OH211459   0.753   1.358   4.729 -0.6468  0.0025 -0.1382
 3832TIP3    H111460   0.842   1.387   4.709 -0.1553 -0.5063  1.1820
 3832TIP3    H211461   0.708   1.357   4.645  0.8524 -0.6009 -0.9662
 3833TIP3   OH211462   5.549   1.981   3.347 -0.3008 -0.0473 -0.1847
 3833TIP3    H111463   5.505   1.913   3.295 -0.8841 -1.7363  2.3474
 3833TIP3    H211464   5.602   1.933   3.410 -0.3105  1.8695  1.3751
 3834TIP3   OH211465   3.875   3.936   2.510  0.3708  0.0958  0.0716
 3834TIP3    H111466   3.850   3.952   2.419  1.4146  0.4945 -0.1585
 3834TIP3    H211467   3.971   3.934   2.508  0.3864 -0.7472  1.0241
 3835TIP3   OH211468   4.878   6.804   3.871 -0.0533  0.0371  0.1728
 3835TIP3    H111469   4.885   6.751   3.792 -0.5560 -0.7551  0.6493
 3835TIP3    H211470   4.786   6.797   3.897 -0.2056  1.3915  0.0851
 3836TIP3   OH211471   3.806   1.388   1.417 -0.5551 -0.0780  0.0743
 3836TIP3    H111472   3.749   1.344   1.353  0.5990 -1.5922  0.0330
 3836TIP3    H211473   3.754   1.392   1.497 -0.6901 -1.6128  0.0928
 3837TIP3   OH211474   7.060   1.942   1.343 -0.3517  0.2902  0.3896
 3837TIP3    H111475   7.128   1.912   1.404  0.1269  0.3849 -0.0898
 3837TIP3    H211476   7.078   1.895   1.262 -0.4207  0.8551  0.0431
 3838TIP3   OH211477   5.872   0.694   0.404 -0.2628  0.4635  0.1803
 3838TIP3    H111478   5.807   0.744   0.454  0.8686  1.6664  0.5319
 3838TIP3    H211479   5.909   0.758   0.343 -0.9136 -0.7453 -1.5394
 3839TIP3   OH211480   6.115   0.689   3.488 -0.3242 -0.5938  0.6319
 3839TIP3    H111481   6.178   0.760   3.473 -1.3201  0.4256  1.1303
 3839TIP3    H211482   6.150   0.642   3.563  0.2282 -0.5128  0.4356
 3840TIP3   OH211483   1.778   5.141   4.918 -0.4111  0.1864 -0.1505
 3840TIP3    H111484   1.718   5.185   4.978 -0.6409 -0.5587  0.1824
 3840TIP3    H211485   1.865   5.152   4.959 -0.3678  0.9350 -0.4368
 3841TIP3   OH211486   7.099   0.690   1.970  0.7071 -0.2689  0.1411
 3841TIP3    H111487   7.167   0.652   2.027  2.7256 -0.5133 -2.2547
 3841TIP3    H211488   7.142   0.699   1.885 -1.6313  1.7039 -0.9339
 3842TIP3   OH211489   5.225   4.077   2.046 -0.4105  0.1788 -0.0917
 3842TIP3    H111490   5.129   4.076   2.039 -0.4234 -0.6149  0.0589
 3842TIP3    H211491   5.247   4.168   2.064 -1.1527  0.3402  0.0387
 3843TIP3   OH211492   4.194   1.505   4.978 -0.4431 -0.2297 -0.3445
 3843TIP3    H111493   4.268   1.486   5.037  0.3319  1.7926 -0.5943
 3843TIP3    H211494   4.217   1.462   4.896 -0.1823 -0.7044 -0.0288
 3844TIP3   OH211495   6.878   5.375   3.484 -0.1398  0.2692  0.0213
 3844TIP3    H111496   6.842   5.294   3.447 -0.5635  0.3565  0.2445
 3844TIP3    H211497   6.971   5.371   3.462  0.1008 -0.8999  1.1439
 3845TIP3   OH211498   7.097   4.904   3.931 -0.5193  0.1175  0.0981
 3845TIP3    H111499   7.131   4.817   3.951 -1.8549 -0.2328  1.0102
 3845TIP3    H211500   7.093   4.906   3.835 -0.4092 -0.8040  0.0577
 3846TIP3   OH211501   5.917   2.382   0.669  0.6902  0.4067 -0.3982
 3846TIP3    H111502   5.916   2.453   0.604 -1.5528 -1.4210 -2.5591
 3846TIP3    H211503   5.840   2.398   0.723 -0.4690 -0.8538 -1.5879
 3847TIP3   OH211504   5.735   0.372   5.589  0.1486  0.5600  0.7134
 3847TIP3    H111505   5.790   0.339   5.517 -0.4272 -0.1631  0.5906
 3847TIP3    H211506   5.758   0.464   5.597  0.1912  0.6572 -0.4327
 3848TIP3   OH211507   0.771   4.350   0.741  0.6694  0.5371  0.2967
 3848TIP3    H111508   0.815   4.341   0.657  2.4387 -1.7204  1.3567
 3848TIP3    H211509   0.690   4.300   0.731  0.9807  0.0859 -0.0068
 3849TIP3   OH211510   6.777   3.715   2.296  0.5041 -0.3474 -0.7202
 3849TIP3    H111511   6.765   3.635   2.245 -2.1417  0.4118 -1.5029
 3849TIP3    H211512   6.838   3.768   2.245  0.5842 -1.0089 -1.3199
 3850TIP3   OH211513   0.233   1.868   4.033 -0.9931 -0.1258  0.2084
 3850TIP3    H111514   0.226   1.777   4.060 -5.7520 -0.0732  0.0196
 3850TIP3    H211515   0.200   1.919   4.107  0.0662  1.3502 -0.2726
 3851TIP3   OH211516   5.246   5.217   3.768 -0.3878  0.1524  0.5138
 3851TIP3    H111517   5.162   5.190   3.805 -0.2004 -0.3058  0.6020
 3851TIP3    H211518   5.226   5.299   3.722 -0.6306  0.6993  1.5689
 3852TIP3   OH211519   5.148   4.667   4.656 -0.2656 -0.1286  0.2128
 3852TIP3    H111520   5.170   4.760   4.658  0.6377 -0.3292  0.0949
 3852TIP3    H211521   5.134   4.648   4.563  2.1271 -0.6577 -0.1062
 3853TIP3   OH211522   2.088   3.116   2.132  0.1035 -0.3280  0.5412
 3853TIP3    H111523   2.110   3.039   2.081  2.3565  1.5005 -1.4943
 3853TIP3    H211524   2.005   3.146   2.095 -0.4399 -1.3597  0.8921
 3854TIP3   OH211525   1.178   4.443   4.172  0.1083 -0.4356  0.0431
 3854TIP3    H111526   1.104   4.497   4.201 -0.1958 -0.0724 -1.3654
 3854TIP3    H211527   1.254   4.482   4.214 -0.3196  0.0587  0.3669
 3855TIP3   OH211528   2.877   2.084   1.478 -0.1923  0.4022  0.1655
 3855TIP3    H111529   2.810   2.145   1.509 -0.3365  0.4878 -0.3060
 3855TIP3    H211530   2.934   2.137   1.423 -0.0528  0.2129  0.1279
 3856TIP3   OH211531   2.899   3.880   5.543 -0.0731  0.4014 -0.3250
 3856TIP3    H111532   2.807   3.880   5.517 -0.5361  0.9605  1.2075
 3856TIP3    H211533   2.920   3.787   5.555 -1.0383  0.3348  1.1825
 3857TIP3   OH211534   5.465   2.005   5.563 -0.6686 -0.0614  0.2123
 3857TIP3    H111535   5.526   1.939   5.530  0.4670  1.3167 -0.5535
 3857TIP3    H211536   5.520   2.070   5.606 -1.5665  1.2854 -0.6008
 3858TIP3   OH211537   2.937   2.811   5.762  0.1208  0.8787 -0.3794
 3858TIP3    H111538   2.993   2.752   5.813  0.8937  1.1627 -0.9003
 3858TIP3    H211539   2.893   2.753   5.700  0.7958  0.8248 -0.8154
 3859TIP3   OH211540   6.800   0.689   1.120  0.0289 -0.2802 -0.6941
 3859TIP3    H111541   6.846   0.714   1.039  0.7551 -0.1595 -0.2555
 3859TIP3    H211542   6.709   0.713   1.104 -0.0310 -1.1888 -1.8667
 3860TIP3   OH211543   3.659   1.098   4.832 -0.1907  0.2237 -0.0105
 3860TIP3    H111544   3.714   1.146   4.894 -0.1088 -0.3002  0.3228
 3860TIP3    H211545   3.584   1.068   4.884 -1.5064  2.0803 -0.7391
 3861TIP3   OH211546   6.464   5.479   1.233  0.0253  0.1241  0.3504
 3861TIP3    H111547   6.380   5.451   1.269 -0.4592  1.4847  0.3623
 3861TIP3    H211548   6.502   5.534   1.301  0.4310  0.3684 -0.0698
 3862TIP3   OH211549   2.109   0.314   5.131  0.0857  0.5349 -0.0770
 3862TIP3    H111550   2.168   0.318   5.056  0.4592 -0.8440  0.1104
 3862TIP3    H211551   2.022   0.305   5.093  0.2754 -0.1629 -0.3640
 3863TIP3   OH211552   0.756   6.161   5.205  0.1811 -0.2103 -0.4986
 3863TIP3    H111553   0.837   6.203   5.235  0.2597 -1.0713  0.5811
 3863TIP3    H211554   0.691   6.185   5.271 -0.2025 -0.3316 -0.8320
 3864TIP3   OH211555   4.448   5.090   0.109 -0.3394  0.3217 -0.0296
 3864TIP3    H111556   4.454   5.186   0.113  1.5545  0.2878 -1.1664
 3864TIP3    H211557   4.538   5.060   0.117 -0.8206 -1.3404 -0.5017
 3865TIP3   OH211558   5.137   2.843   4.920 -0.0957  0.3099 -0.1522
 3865TIP3    H111559   5.219   2.889   4.937 -1.0531  1.4276  1.7817
 3865TIP3    H211560   5.124   2.789   4.997 -1.0085 -0.1226 -0.6005
 3866TIP3   OH211561   6.012   1.582   4.681  0.3215  0.3844 -0.6014
 3866TIP3    H111562   5.963   1.663   4.693 -1.3527 -0.8426  1.8535
 3866TIP3    H211563   6.061   1.571   4.763  0.5864 -1.0278 -0.9146
 3867TIP3   OH211564   5.934   5.281   4.073 -0.2177  1.2048 -0.6495
 3867TIP3    H111565   5.973   5.341   4.009  1.1055  0.2446 -0.7905
 3867TIP3    H211566   5.984   5.200   4.062 -1.5863  0.2633 -0.0623
 3868TIP3   OH211567   1.326   5.516   2.053  0.0702 -0.0395  0.1866
 3868TIP3    H111568   1.311   5.583   2.120 -1.5349  0.6239 -0.7975
 3868TIP3    H211569   1.343   5.566   1.973  0.0757 -0.8220 -0.3075
 3869TIP3   OH211570   5.200   5.037   3.148  0.2169  0.1169  0.1049
 3869TIP3    H111571   5.107   5.018   3.135 -0.0173  0.5968  1.0101
 3869TIP3    H211572   5.203   5.131   3.166  0.9807  0.2816 -0.8230
 3870TIP3   OH211573   0.625   3.980   1.402 -0.6216  0.4069 -0.0365
 3870TIP3    H111574   0.553   3.958   1.343 -0.1071 -0.4009 -0.3878
 3870TIP3    H211575   0.654   3.895   1.436  1.3127  0.5284 -1.2597
 3871TIP3   OH211576   3.726   4.472   5.828 -0.2187  0.3925 -0.5581
 3871TIP3    H111577   3.765   4.521   5.756  0.5503  0.4812 -0.0995
 3871TIP3    H211578   3.777   4.391   5.833 -0.7740  0.0357 -0.6133
 3872TIP3   OH211579   5.868   2.364   5.677  0.0216 -0.0950 -0.3708
 3872TIP3    H111580   5.847   2.458   5.680  0.6477  0.0442  2.1236
 3872TIP3    H211581   5.786   2.322   5.652 -0.0666  1.1424 -2.3162
 3873TIP3   OH211582   4.797   1.362   1.388 -0.3374  0.5938  0.0808
 3873TIP3    H111583   4.717   1.415   1.391  0.3443  1.7486 -0.9976
 3873TIP3    H211584   4.776   1.290   1.328 -1.0300  0.0235  0.9784
 3874TIP3   OH211585   1.438   5.263   0.911  0.4628  0.3726 -0.0695
 3874TIP3    H111586   1.370   5.326   0.935  0.8727  0.4534  0.9240
 3874TIP3    H211587   1.477   5.237   0.994 -0.1771 -1.7688 -0.3724
 3875TIP3   OH211588   1.950   2.712   0.310  0.0145  0.2275 -0.3268
 3875TIP3    H111589   1.862   2.703   0.344  0.2840 -0.5724  0.1731
 3875TIP3    H211590   2.007   2.707   0.387  0.5775 -0.7562 -0.7864
 3876TIP3   OH211591   5.543   2.182   5.823 -0.1802  0.3021  0.3503
 3876TIP3    H111592   5.518   2.199   5.914  0.6601  1.3774  0.4032
 3876TIP3    H211593   5.527   2.265   5.778 -1.6144 -0.5238 -0.7475
 3877TIP3   OH211594   0.614   4.031   0.512 -0.1171 -0.3131  0.1018
 3877TIP3    H111595   0.596   4.100   0.448 -1.2284 -0.8765 -0.2218
 3877TIP3    H211596   0.587   4.069   0.595 -0.3973 -0.2360 -0.0229
 3878TIP3   OH211597   6.658   3.073   1.794 -0.8567 -0.7284  0.0576
 3878TIP3    H111598   6.664   3.036   1.882 -0.1499 -0.9616 -0.0861
 3878TIP3    H211599   6.630   3.163   1.808 -0.9207 -0.8169  0.5106
 3879TIP3   OH211600   1.896   5.238   0.746  0.0136  0.4958  0.2114
 3879TIP3    H111601   1.977   5.276   0.780 -0.4304  0.2106  1.6617
 3879TIP3    H211602   1.830   5.305   0.762 -0.3166  0.1040  0.5139
 3880TIP3   OH211603   2.378   0.382   2.449 -0.3107  0.1492  0.3818
 3880TIP3    H111604   2.370   0.434   2.369 -3.0021  0.4061  0.7281
 3880TIP3    H211605   2.330   0.432   2.515 -1.3740 -1.8272  1.1870
 3881TIP3   OH211606   2.121   0.298   0.470  0.1869  0.0572 -0.7506
 3881TIP3    H111607   2.048   0.259   0.517  0.8374 -0.7248 -0.3603
 3881TIP3    H211608   2.087   0.381   0.436 -0.8435 -0.2536 -0.5041
 3882TIP3   OH211609   0.698   6.263   2.899  0.2872 -0.3305  0.1750
 3882TIP3    H111610   0.756   6.297   2.967  0.9885 -0.6106 -0.2673
 3882TIP3    H211611   0.611   6.290   2.926  0.5028 -0.8071  1.4157
 3883TIP3   OH211612   3.556   2.802   3.901  0.4938 -0.5206 -0.1266
 3883TIP3    H111613   3.644   2.839   3.899  0.3000  0.3254  2.7502
 3883TIP3    H211614   3.502   2.866   3.855  0.9204  0.5686  0.8269
 3884TIP3   OH211615   3.942   5.780   1.057 -0.5388 -0.3205 -0.1381
 3884TIP3    H111616   3.996   5.731   0.996  0.7582  0.5747  0.2557
 3884TIP3    H211617   3.928   5.721   1.131 -0.4799 -0.7135 -0.4404
 3885TIP3   OH211618   0.885   4.047   4.442 -0.8559 -0.1622  0.2501
 3885TIP3    H111619   0.926   4.095   4.371 -0.6029  1.0250  1.1545
 3885TIP3    H211620   0.791   4.056   4.426 -0.7998 -0.3426 -0.1981
 3886TIP3   OH211621   4.302   1.720   2.130 -0.3009  0.0549 -0.0737
 3886TIP3    H111622   4.320   1.799   2.181  2.4642 -0.9401  0.6634
 3886TIP3    H211623   4.314   1.648   2.191  1.3942 -1.0994 -1.6301
 3887TIP3   OH211624   1.264   3.954   3.535 -0.6185  0.0257 -0.1326
 3887TIP3    H111625   1.214   3.882   3.498 -0.2204  0.4866 -1.6617
 3887TIP3    H211626   1.348   3.915   3.559 -0.5517 -0.1104 -0.5736
 3888TIP3   OH211627   5.092   6.436   4.657 -0.1991  0.4514 -0.4111
 3888TIP3    H111628   5.036   6.513   4.671  0.1240  0.4268  1.3097
 3888TIP3    H211629   5.036   6.361   4.675  0.2562  0.4184  1.0486
 3889TIP3   OH211630   7.086   0.530   4.589 -0.1845 -0.0290 -0.0631
 3889TIP3    H111631   7.172   0.489   4.577  0.5275  1.5050 -0.4526
 3889TIP3    H211632   7.059   0.555   4.500 -1.3599 -1.0895 -0.0310
 3890TIP3   OH211633   3.929   3.697   3.473 -0.0685  0.3292 -0.2105
 3890TIP3    H111634   3.913   3.623   3.531  1.0353 -0.1121 -0.4418
 3890TIP3    H211635   3.921   3.774   3.529 -1.7231  0.0840 -0.0758
 3891TIP3   OH211636   1.267   4.091   0.520 -0.4339  0.5680 -0.4430
 3891TIP3    H111637   1.192   4.146   0.495 -1.3303 -0.2582  0.3492
 3891TIP3    H211638   1.278   4.032   0.445  0.0679  1.3294 -0.9843
 3892TIP3   OH211639   1.307   2.411   2.044 -0.3567 -0.1510 -0.9260
 3892TIP3    H111640   1.241   2.393   2.110  1.0909 -0.1586  0.5765
 3892TIP3    H211641   1.363   2.333   2.043  0.9700  0.7470 -0.4693
 3893TIP3   OH211642   6.170   3.652   1.468 -0.1966  0.0157  0.6112
 3893TIP3    H111643   6.111   3.680   1.538  0.0262  0.6675  0.5534
 3893TIP3    H211644   6.215   3.576   1.503 -1.0956 -0.5133  0.6409
 3894TIP3   OH211645   4.431   4.807   1.492 -0.6720 -0.0022 -0.1728
 3894TIP3    H111646   4.481   4.883   1.522 -1.7654  1.1136 -1.0751
 3894TIP3    H211647   4.463   4.735   1.546 -0.4524  1.3190  1.5425
 3895TIP3   OH211648   2.797   0.113   2.372  0.1503  0.1786  0.2188
 3895TIP3    H111649   2.888   0.085   2.367 -0.2990 -1.2080 -0.7696
 3895TIP3    H211650   2.751   0.040   2.412 -0.5050  0.9723  0.9721
 3896TIP3   OH211651   0.329   6.781   3.289 -0.1403  0.2753 -0.4090
 3896TIP3    H111652   0.241   6.799   3.323  0.2204  0.2216  0.5862
 3896TIP3    H211653   0.368   6.722   3.353  0.3088 -0.4241 -1.3094
 3897TIP3   OH211654   2.406   6.587   3.658 -0.2272  0.1851  0.4280
 3897TIP3    H111655   2.463   6.646   3.708 -0.1203  0.2151  0.2733
 3897TIP3    H211656   2.350   6.646   3.607 -0.0759  0.1540  0.2233
 3898TIP3   OH211657   0.816   0.578   1.959  0.1188 -0.3410 -0.1150
 3898TIP3    H111658   0.723   0.560   1.977 -0.1031 -1.6614 -2.1502
 3898TIP3    H211659   0.814   0.657   1.904  0.2178 -0.2922 -0.0481
 3899TIP3   OH211660   3.138   2.370   4.170  0.0118  0.4301 -0.0539
 3899TIP3    H111661   3.187   2.346   4.091 -0.0644 -0.5783  0.1914
 3899TIP3    H211662   3.048   2.381   4.140 -0.1234 -0.4959 -0.0329
 3900TIP3   OH211663   3.186   4.545   2.793  0.3468 -0.5367  0.1697
 3900TIP3    H111664   3.128   4.509   2.860 -0.6109  0.0305 -0.3264
 3900TIP3    H211665   3.133   4.613   2.749  0.9491 -0.8676 -1.1279
 3901TIP3   OH211666   7.072   3.679   0.478 -0.0462 -0.2237 -0.0182
 3901TIP3    H111667   7.112   3.740   0.541  0.7509 -0.0297 -0.6926
 3901TIP3    H211668   6.978   3.695   0.487  0.1486  1.2064 -0.2599
 3902TIP3   OH211669   6.907   3.392   3.000  0.2042 -0.5590 -0.4803
 3902TIP3    H111670   6.848   3.317   2.998  0.0621 -0.4479 -2.1816
 3902TIP3    H211671   6.940   3.399   2.910 -0.9738  2.3205 -0.8090
 3903TIP3   OH211672   6.467   2.190   2.860  0.0356 -0.6298  0.0101
 3903TIP3    H111673   6.401   2.215   2.795  0.0818 -1.6636 -0.4524
 3903TIP3    H211674   6.519   2.270   2.873  1.2284 -0.8682 -2.6631
 3904TIP3   OH211675   3.169   4.910   1.430  0.1894 -0.5904 -0.6462
 3904TIP3    H111676   3.236   4.923   1.363  1.2189  0.7624  0.5921
 3904TIP3    H211677   3.096   4.870   1.383  0.9999  0.0109 -2.5054
 3905TIP3   OH211678   4.542   1.476   2.486  0.2094 -0.5386 -0.6928
 3905TIP3    H111679   4.501   1.460   2.400 -0.3185 -2.3123 -0.1663
 3905TIP3    H211680   4.521   1.567   2.506 -0.9214 -0.5198 -1.8150
 3906TIP3   OH211681   2.233   2.569   3.996 -0.5838  0.0348  0.0961
 3906TIP3    H111682   2.278   2.652   3.980  0.8795 -0.8012 -0.3885
 3906TIP3    H211683   2.247   2.552   4.090 -1.0611  0.4265  0.2398
 3907TIP3   OH211684   4.941   0.473   1.139  0.1519 -0.4739 -0.4633
 3907TIP3    H111685   4.927   0.396   1.193 -0.5206 -0.4458 -0.5934
 3907TIP3    H211686   4.854   0.496   1.106  0.6939 -1.2753 -2.6474
 3908TIP3   OH211687   3.124   6.490   0.136 -0.5024 -0.1647 -0.0502
 3908TIP3    H111688   3.109   6.582   0.116 -1.9630  0.2499  2.5210
 3908TIP3    H211689   3.215   6.486   0.165 -0.8209  0.8175  1.2120
 3909TIP3   OH211690   7.040   0.999   0.964 -0.2232 -0.6586  0.2208
 3909TIP3    H111691   7.122   1.046   0.952 -1.2231  1.2972  0.6561
 3909TIP3    H211692   7.025   0.955   0.880  1.3563 -1.2678  0.2197
 3910TIP3   OH211693   0.951   1.368   3.154 -0.2115  0.1186 -0.5036
 3910TIP3    H111694   0.992   1.333   3.233 -0.9469 -0.1523 -0.2410
 3910TIP3    H211695   1.024   1.403   3.103  0.9009 -3.5259 -1.7272
 3911TIP3   OH211696   1.335   5.739   5.140 -0.6896  0.5010  0.2163
 3911TIP3    H111697   1.384   5.761   5.220  0.4224 -0.1981 -0.2369
 3911TIP3    H211698   1.403   5.734   5.072 -1.5860  0.8389 -0.7245
 3912TIP3   OH211699   3.202   2.974   3.183  0.2657 -0.0373 -0.0351
 3912TIP3    H111700   3.178   2.982   3.091  1.1412 -1.3781 -0.4137
 3912TIP3    H211701   3.247   3.056   3.204  0.0846  0.2617 -0.8080
 3913TIP3   OH211702   0.548   3.492   5.491 -0.7451 -0.2870  0.4562
 3913TIP3    H111703   0.636   3.473   5.525 -1.4565  0.1605  2.6813
 3913TIP3    H211704   0.530   3.581   5.521 -1.8813 -0.2957 -0.1788
 3914TIP3   OH211705   4.854   1.592   3.921  0.1660 -0.5802 -0.1805
 3914TIP3    H111706   4.832   1.670   3.871 -0.6955 -1.5326 -1.3414
 3914TIP3    H211707   4.878   1.625   4.008  0.8291  1.0380 -0.9426
 3915TIP3   OH211708   2.258   0.059   1.608 -0.0610 -0.0177 -0.3485
 3915TIP3    H111709   2.265  -0.024   1.656  0.4722 -1.5405 -2.8444
 3915TIP3    H211710   2.333   0.110   1.637  0.3373 -0.9450  0.3082
 3916TIP3   OH211711   0.851   2.767   0.390 -0.4871 -0.8056  0.3354
 3916TIP3    H111712   0.859   2.862   0.396 -1.1679 -0.6015 -1.4518
 3916TIP3    H211713   0.763   2.749   0.423 -0.5545 -0.7469  0.1908
 3917TIP3   OH211714   0.006   4.950   1.901  0.4076 -0.2868 -0.0230
 3917TIP3    H111715   0.088   4.982   1.864  0.9697 -1.5187  0.1142
 3917TIP3    H211716  -0.018   5.016   1.966  1.4606 -0.0746  0.1642
 3918TIP3   OH211717   3.308   2.729   3.170  0.4846 -0.0899 -0.3876
 3918TIP3    H111718   3.230   2.674   3.179 -0.3863  0.8807 -1.6118
 3918TIP3    H211719   3.284   2.813   3.208  0.9935  0.1604 -0.5990
 3919TIP3   OH211720   2.233   4.957   4.401 -0.0593 -0.5370  0.3342
 3919TIP3    H111721   2.259   4.948   4.493  1.5870  0.1638 -0.0187
 3919TIP3    H211722   2.309   4.925   4.352 -0.6861 -0.3513 -0.7799
 3920TIP3   OH211723   4.726   4.005   5.827  0.1280  0.5385 -0.4929
 3920TIP3    H111724   4.820   4.001   5.846  0.3020  3.5135 -0.2505
 3920TIP3    H211725   4.683   3.995   5.912  0.3869  1.6859 -0.2050
 3921TIP3   OH211726   1.851   0.875   5.843 -0.0006  0.6519 -0.0097
 3921TIP3    H111727   1.811   0.790   5.859  0.2262  0.4549 -0.4762
 3921TIP3    H211728   1.939   0.867   5.881  0.3817  0.3320 -0.9501
 3922TIP3   OH211729  -0.012   4.217   5.474  0.0151  0.2600 -0.5094
 3922TIP3    H111730   0.060   4.182   5.422 -0.4621 -0.2095 -0.8579
 3922TIP3    H211731  -0.045   4.291   5.423 -0.9031 -0.6235 -1.2379
 3923TIP3   OH211732   1.326   3.580   1.642 -0.4209 -0.0486 -0.1577
 3923TIP3    H111733   1.404   3.634   1.626 -1.4581  1.7841  0.6870
 3923TIP3    H211734   1.339   3.545   1.730 -1.5069  2.1298  0.9553
 3924TIP3   OH211735   0.238   5.748   5.371 -0.4018  0.4918  0.0736
 3924TIP3    H111736   0.267   5.677   5.427  0.2607  0.0552 -0.8016
 3924TIP3    H211737   0.208   5.816   5.432  0.0828 -0.0547  0.9405
 3925TIP3   OH211738   0.217   2.971   1.331 -0.0984  0.4706  0.4346
 3925TIP3    H111739   0.281   2.904   1.306 -0.3055  0.4414 -0.0368
 3925TIP3    H211740   0.132   2.927   1.323 -0.1706  0.4098  1.3712
 3926TIP3   OH211741   5.313   4.327   3.937  0.2265  0.2149  0.7218
 3926TIP3    H111742   5.378   4.258   3.949 -0.5228 -1.0018 -1.6703
 3926TIP3    H211743   5.354   4.405   3.973  2.0893 -0.9580  1.2739
 3927TIP3   OH211744   6.777   1.975   2.072 -0.6965  0.2323  0.7622
 3927TIP3    H111745   6.709   2.042   2.078 -0.6055  0.4641 -0.4968
 3927TIP3    H211746   6.859   2.024   2.069 -0.5194 -0.0117  1.4355
 3928TIP3   OH211747   2.799   6.062   4.971 -0.0790 -0.1455  0.3194
 3928TIP3    H111748   2.733   6.001   4.939  0.5485 -0.5729 -0.1788
 3928TIP3    H211749   2.802   6.047   5.065  1.0808 -1.9115  0.0262
 3929TIP3   OH211750   5.023   1.525   1.449 -0.4920  0.3005 -0.6490
 3929TIP3    H111751   5.081   1.486   1.383 -0.5841  0.8144 -1.0378
 3929TIP3    H211752   4.946   1.469   1.449  0.7411 -1.5648  1.2536
 3930TIP3   OH211753   6.247   3.877   4.806 -0.0232 -0.1493 -0.7208
 3930TIP3    H111754   6.214   3.804   4.754 -0.4954 -0.7426  0.3788
 3930TIP3    H211755   6.176   3.941   4.804  0.9197  0.9236 -2.8304
 3931TIP3   OH211756   1.309   0.887   5.055 -0.2774  0.1845  0.8053
 3931TIP3    H111757   1.310   0.923   5.144  0.5008 -1.0108  1.3218
 3931TIP3    H211758   1.229   0.921   5.015 -2.0609 -1.3174  2.8655
 3932TIP3   OH211759   4.393   1.846   0.820 -0.4026 -0.5169  0.4021
 3932TIP3    H111760   4.454   1.878   0.887 -1.7581 -1.3335  2.1167
 3932TIP3    H211761   4.437   1.769   0.783 -1.0393 -2.2252  2.9115
 3933TIP3   OH211762   0.645   3.219   3.876  0.1739  0.5820 -0.3076
 3933TIP3    H111763   0.591   3.272   3.935  0.3707  1.5888 -1.0036
 3933TIP3    H211764   0.583   3.164   3.829 -0.0268  0.1107  0.4869
 3934TIP3   OH211765   2.253   2.859   0.393  0.1920  0.3477  0.6598
 3934TIP3    H111766   2.199   2.923   0.346 -0.0479 -1.3871 -1.5765
 3934TIP3    H211767   2.315   2.912   0.443 -0.8303  2.3274 -0.0584
 3935TIP3   OH211768   2.888   6.603   1.422  0.3021  0.2977  0.2555
 3935TIP3    H111769   2.978   6.627   1.442  0.4347  0.1726 -0.1795
 3935TIP3    H211770   2.866   6.654   1.343  0.4419 -0.6607 -0.4199
 3936TIP3   OH211771   4.255   4.937   2.561 -0.2083 -0.3143 -0.5899
 3936TIP3    H111772   4.267   5.029   2.537 -0.6097  0.0747  0.6555
 3936TIP3    H211773   4.344   4.904   2.574 -0.1075  0.3544  0.5589
 3937TIP3   OH211774   2.163   0.038   5.119  0.2753 -0.4551 -0.7866
 3937TIP3    H111775   2.156   0.132   5.100  0.8748 -0.3256 -0.4081
 3937TIP3    H211776   2.105   0.025   5.194  1.8702  0.0737  0.6031
 3938TIP3   OH211777   6.081   4.718   2.760 -0.1171 -0.2100  0.3821
 3938TIP3    H111778   6.108   4.731   2.670 -0.6518 -1.1728  0.0618
 3938TIP3    H211779   6.117   4.793   2.808  1.6290 -0.5700 -0.3105
 3939TIP3   OH211780   1.526   2.959   3.686 -0.0252  0.3345 -0.5318
 3939TIP3    H111781   1.598   3.013   3.655 -0.2637  0.2640 -1.2243
 3939TIP3    H211782   1.523   2.975   3.780 -0.2399  1.7006 -0.7577
 3940TIP3   OH211783   4.019   4.857   0.205 -0.0037 -0.7823 -0.3314
 3940TIP3    H111784   4.048   4.768   0.184 -1.4339 -1.6624  1.1910
 3940TIP3    H211785   4.098   4.900   0.238 -0.0817 -2.9456  3.2343
 3941TIP3   OH211786   3.150   0.384   5.292 -0.1339  0.4877 -0.1565
 3941TIP3    H111787   3.056   0.369   5.291 -0.5868  2.3577  2.3033
 3941TIP3    H211788   3.173   0.404   5.201 -2.3129  0.9855 -0.6402
 3942TIP3   OH211789   3.614   6.695   5.473 -0.3246  0.0250  0.1353
 3942TIP3    H111790   3.655   6.757   5.412 -0.6451  0.8086  0.6976
 3942TIP3    H211791   3.524   6.686   5.440 -0.7025  0.9740  0.8506
 3943TIP3   OH211792   2.416   6.672   0.891  0.4479 -0.1574  0.0037
 3943TIP3    H111793   2.503   6.635   0.908  0.8161  0.2639 -0.8798
 3943TIP3    H211794   2.393   6.718   0.971  0.7920 -0.7606  0.4510
 3944TIP3   OH211795   6.780   1.105   1.753  0.1422 -0.3231  0.0205
 3944TIP3    H111796   6.696   1.068   1.780  0.2419 -1.0589 -0.6418
 3944TIP3    H211797   6.802   1.169   1.821 -1.0791  0.0638  0.0650
 3945TIP3   OH211798   2.401   2.033   1.681 -0.0999  0.3362  0.5765
 3945TIP3    H111799   2.314   1.999   1.700  0.1717 -0.7593 -0.0828
 3945TIP3    H211800   2.456   1.998   1.752  0.1672 -0.5892 -0.0685
 3946TIP3   OH211801   5.865   0.936   1.224 -0.4576  0.5257  0.2530
 3946TIP3    H111802   5.779   0.974   1.205 -2.6224 -4.0917 -0.3835
 3946TIP3    H211803   5.900   0.912   1.138  0.8337  0.9661  0.6290
 3947TIP3   OH211804   2.880   4.796   1.758  0.0299 -0.1670 -0.1039
 3947TIP3    H111805   2.965   4.836   1.738 -0.8904  1.9986  0.0812
 3947TIP3    H211806   2.867   4.812   1.851 -0.6241 -0.4243 -0.1423
 3948TIP3   OH211807   3.714   1.445   5.184  0.1070 -0.0962 -0.4912
 3948TIP3    H111808   3.745   1.441   5.274  0.6517 -1.7235 -0.7313
 3948TIP3    H211809   3.793   1.447   5.131 -0.1662  2.4989 -0.9415
 3949TIP3   OH211810   6.343   0.828   3.624  0.3910 -0.3529  0.2221
 3949TIP3    H111811   6.313   0.880   3.698  0.3218 -0.9806  0.6426
 3949TIP3    H211812   6.431   0.800   3.649  0.8117  0.3462 -0.4163
 3950TIP3   OH211813   6.392   4.098   0.269 -0.3222  0.3343 -0.1478
 3950TIP3    H111814   6.481   4.133   0.268 -0.2382  0.1593  0.5963
 3950TIP3    H211815   6.342   4.162   0.320 -0.1993 -0.5147  1.1013
 3951TIP3   OH211816   5.502   2.848   0.890 -0.8168 -0.3125  0.3404
 3951TIP3    H111817   5.546   2.774   0.932  0.8724  1.0528  1.1460
 3951TIP3    H211818   5.421   2.859   0.939 -0.9360 -1.3969  0.4164
 3952TIP3   OH211819   3.297   1.505   0.985 -0.9137 -0.4040 -0.2422
 3952TIP3    H111820   3.370   1.512   1.046 -1.0283 -1.8213  0.0757
 3952TIP3    H211821   3.219   1.518   1.039 -0.9872 -1.0140 -0.2011
 3953TIP3   OH211822   6.221   5.655   2.494  0.3344  0.0390 -0.1889
 3953TIP3    H111823   6.311   5.643   2.523 -0.0184 -0.3194  0.8224
 3953TIP3    H211824   6.181   5.710   2.562 -0.1910  0.2238 -0.6430
 3954TIP3   OH211825   0.640   0.278   4.717 -0.7595  0.2960  0.4014
 3954TIP3    H111826   0.614   0.328   4.794 -0.0913  0.4530  0.5256
 3954TIP3    H211827   0.734   0.264   4.727 -0.7836 -0.2324 -0.0675
 3955TIP3   OH211828   2.690   3.113   2.205  0.0533  0.1197  0.9200
 3955TIP3    H111829   2.636   3.043   2.241 -0.3165 -0.9321 -1.4921
 3955TIP3    H211830   2.685   3.101   2.111  0.3060  3.1956  0.4154
 3956TIP3   OH211831   6.439   1.872   0.792  0.1937  0.3370  0.3934
 3956TIP3    H111832   6.394   1.796   0.828 -2.1105  0.9060 -1.0491
 3956TIP3    H211833   6.395   1.889   0.709  1.1944  2.7353  0.2615
 3957TIP3   OH211834   2.465   3.127   5.523 -0.5130  0.2266  0.2538
 3957TIP3    H111835   2.545   3.074   5.517 -1.9316 -2.3687  2.1342
 3957TIP3    H211836   2.476   3.195   5.457  1.9892 -1.7542 -1.5687
 3958TIP3   OH211837   4.531   4.298   1.145  0.2957 -0.1635 -0.1520
 3958TIP3    H111838   4.583   4.258   1.214  1.9661  1.3649 -0.4598
 3958TIP3    H211839   4.463   4.347   1.192  1.4626  0.9297  0.4364
 3959TIP3   OH211840   5.436   4.653   1.439 -0.1671  0.3067 -0.7511
 3959TIP3    H111841   5.499   4.630   1.507 -1.5488 -1.7902 -0.1018
 3959TIP3    H211842   5.468   4.737   1.404  2.3060 -0.1147  0.3130
 3960TIP3   OH211843   0.225   3.473   1.525 -0.1737 -0.7463  0.2300
 3960TIP3    H111844   0.234   3.378   1.525 -0.5861 -0.8064 -1.4562
 3960TIP3    H211845   0.177   3.493   1.445  0.5923  0.9516  0.1552
 3961TIP3   OH211846   3.787   1.545   5.723 -0.1034  0.4700  0.0663
 3961TIP3    H111847   3.719   1.549   5.790 -0.4960  1.4282 -0.3707
 3961TIP3    H211848   3.866   1.519   5.770 -0.8268 -1.0485  0.5228
 3962TIP3   OH211849   0.088   3.109   2.369  0.0871 -0.1787 -0.0852
 3962TIP3    H111850   0.034   3.052   2.424 -1.0028  0.6631 -0.2544
 3962TIP3    H211851   0.137   3.048   2.313  0.7387 -1.0273  1.3375
 3963TIP3   OH211852   2.168   3.860   0.096 -0.6491  0.8351 -0.3788
 3963TIP3    H111853   2.143   3.780   0.049  0.7218  0.5627 -0.6851
 3963TIP3    H211854   2.165   3.929   0.029 -1.8729  1.0706 -0.1051
 3964TIP3   OH211855   5.470   2.815   1.708 -0.2334 -0.3112 -0.2366
 3964TIP3    H111856   5.403   2.748   1.725 -1.6207  1.7715  3.8853
 3964TIP3    H211857   5.547   2.784   1.755 -0.9802  0.9588  1.9605
 3965TIP3   OH211858   5.398   0.268   5.107  0.2945  0.6151 -0.4208
 3965TIP3    H111859   5.418   0.186   5.154  0.1912  1.8383  1.9116
 3965TIP3    H211860   5.466   0.329   5.136 -0.6208  1.8282 -0.7494
 3966TIP3   OH211861   7.152   2.033   4.486  0.3768  0.0468  0.2034
 3966TIP3    H111862   7.075   2.065   4.440  0.9170  0.6553 -0.2925
 3966TIP3    H211863   7.184   2.109   4.535  1.2270  0.0773 -0.3784
 3967TIP3   OH211864   1.926   1.890   0.394  0.3024  0.5251  0.0451
 3967TIP3    H111865   1.864   1.924   0.329 -1.8198 -1.6026  0.8147
 3967TIP3    H211866   1.996   1.852   0.342 -0.3672  0.6184 -0.9631
 3968TIP3   OH211867   6.559   5.344   4.216 -0.3811 -0.2495 -0.4478
 3968TIP3    H111868   6.597   5.340   4.127  1.2319 -0.2636  0.2001
 3968TIP3    H211869   6.518   5.430   4.220 -0.1135 -0.0825 -1.0853
 3969TIP3   OH211870   2.727   3.283   4.929  0.0957 -0.7666 -0.1747
 3969TIP3    H111871   2.729   3.299   5.024  0.7883 -1.0640 -0.1315
 3969TIP3    H211872   2.767   3.361   4.891  2.0800 -1.6834 -0.0583
 3970TIP3   OH211873   5.491   3.107   0.772 -0.3212 -0.2527  0.2717
 3970TIP3    H111874   5.521   3.030   0.820 -1.5725 -1.4044 -0.7407
 3970TIP3    H211875   5.484   3.078   0.681 -0.0748  1.2861 -0.2714
 3971TIP3   OH211876   2.216   3.655   1.118  0.4149 -0.1043  0.0482
 3971TIP3    H111877   2.163   3.575   1.107  0.7373 -0.2884 -0.1998
 3971TIP3    H211878   2.281   3.631   1.184  0.3722  0.0284  0.1382
 3972TIP3   OH211879   5.679   6.327   0.724 -0.2186 -0.4745  0.2862
 3972TIP3    H111880   5.705   6.380   0.798  0.0613 -1.1649  0.6902
 3972TIP3    H211881   5.740   6.253   0.724  0.3919 -0.0240 -1.1836
 3973TIP3   OH211882   5.083   2.307   2.780  0.5855 -0.2033  0.2695
 3973TIP3    H111883   5.034   2.306   2.862 -0.2311 -0.5667 -0.2097
 3973TIP3    H211884   5.126   2.221   2.776 -1.2851 -1.1442 -0.7798
 3974TIP3   OH211885   3.059   5.760   1.436 -0.8100  0.2881  0.0669
 3974TIP3    H111886   3.016   5.831   1.483 -0.8301  0.1147  0.3157
 3974TIP3    H211887   3.060   5.788   1.345  2.5143  2.3342  0.5544
 3975TIP3   OH211888   2.382   4.659   5.804 -0.3140 -0.3113  0.2781
 3975TIP3    H111889   2.340   4.724   5.860 -0.0372  0.4357 -0.3557
 3975TIP3    H211890   2.371   4.576   5.850  1.8368  0.5575  2.5278
 3976TIP3   OH211891   5.591   6.505   2.252  0.4018 -0.6658  0.2549
 3976TIP3    H111892   5.503   6.491   2.218 -0.4739  0.6770  1.8680
 3976TIP3    H211893   5.629   6.417   2.257 -0.7533 -1.2437 -0.6396
 3977TIP3   OH211894   4.694   1.575   2.167 -0.0576 -0.4058 -0.0209
 3977TIP3    H111895   4.767   1.613   2.215  0.3092 -0.1596 -0.7522
 3977TIP3    H211896   4.733   1.538   2.088 -0.7248 -0.1460 -0.4911
 3978TIP3   OH211897   5.849   0.391   2.804 -0.1962  0.1263  0.0774
 3978TIP3    H111898   5.756   0.409   2.821 -0.1005  1.3302 -0.5877
 3978TIP3    H211899   5.895   0.469   2.836  0.6353 -0.6081  0.7200
 3979TIP3   OH211900   5.311   0.287   3.341  0.0683 -0.2091  0.2698
 3979TIP3    H111901   5.377   0.218   3.345 -1.0789 -1.5329 -2.2012
 3979TIP3    H211902   5.241   0.257   3.399 -1.4883 -2.4338 -2.5583
 3980TIP3   OH211903   6.336   3.835   5.479 -1.0190 -0.1110  0.5450
 3980TIP3    H111904   6.332   3.856   5.572 -1.2156  1.9514  0.1203
 3980TIP3    H211905   6.244   3.836   5.450 -0.8392  1.5990 -0.0930
 3981TIP3   OH211906   3.409   3.232   2.450  0.0314  0.4403  0.4610
 3981TIP3    H111907   3.368   3.259   2.532 -1.0187  0.5662 -0.0890
 3981TIP3    H211908   3.478   3.170   2.476 -2.0073 -1.6071  1.3175
 3982TIP3   OH211909   6.401   3.907   2.168  0.8769  0.2722 -0.6565
 3982TIP3    H111910   6.396   4.000   2.143  0.9905  0.4273 -0.1009
 3982TIP3    H211911   6.457   3.868   2.101  2.4711  0.9996  0.1955
 3983TIP3   OH211912   4.965   4.832   0.452  0.1074 -0.1557 -0.1335
 3983TIP3    H111913   4.911   4.754   0.438 -3.4735  2.0074  0.2715
 3983TIP3    H211914   4.984   4.832   0.545  1.6984 -1.3727 -0.4141
 3984TIP3   OH211915   4.539   0.349   5.472  0.2100  0.2360 -0.1877
 3984TIP3    H111916   4.631   0.367   5.487  0.3282  0.2702 -0.9374
 3984TIP3    H211917   4.505   0.322   5.558  0.7529  0.9057  0.2385
 3985TIP3   OH211918   3.344   6.667   0.466 -0.1678 -0.2671 -0.2610
 3985TIP3    H111919   3.369   6.591   0.414  0.6726  0.2836 -0.6937
 3985TIP3    H211920   3.368   6.742   0.411  1.2531  0.3405  1.1165
 3986TIP3   OH211921   6.962   3.624   3.399 -0.4088  0.0976 -0.0522
 3986TIP3    H111922   7.016   3.565   3.346 -0.0951  1.0930 -0.8761
 3986TIP3    H211923   6.875   3.619   3.361 -0.4602 -0.0870  0.0902
 3987TIP3   OH211924   0.054   5.148   3.261  0.0953  0.2259  0.0798
 3987TIP3    H111925   0.056   5.228   3.208  0.6166  0.4761  0.4607
 3987TIP3    H211926   0.094   5.174   3.344  0.9593 -0.6141 -0.0523
 3988TIP3   OH211927   0.212   4.353   5.784 -0.7117 -0.0791 -0.5507
 3988TIP3    H111928   0.275   4.375   5.852  0.4938 -1.5389 -1.1291
 3988TIP3    H211929   0.266   4.327   5.709 -2.0059 -0.5097 -1.3697
 3989TIP3   OH211930   4.520   0.816   2.427  0.4911 -1.1786 -0.1347
 3989TIP3    H111931   4.442   0.785   2.472  1.9944 -1.2018  2.7096
 3989TIP3    H211932   4.519   0.771   2.343 -3.6139  0.4815 -1.2088
 3990TIP3   OH211933   7.024   5.392   4.859  0.3414 -0.5670 -0.5196
 3990TIP3    H111934   7.091   5.435   4.806  0.7635  0.6878  0.9587
 3990TIP3    H211935   7.072   5.362   4.937 -0.5630 -0.9324 -0.0970
 3991TIP3   OH211936   4.697   1.709   0.794 -0.5229  0.6410  0.4673
 3991TIP3    H111937   4.689   1.734   0.702  1.3173 -0.1978  0.0540
 3991TIP3    H211938   4.649   1.627   0.801  0.1303  0.2202  0.0410
 3992TIP3   OH211939   6.768   5.347   2.457  0.0940  0.2261 -0.1386
 3992TIP3    H111940   6.759   5.349   2.552 -1.9806 -0.5136 -0.2815
 3992TIP3    H211941   6.689   5.391   2.424 -0.2098 -1.2767 -1.5336
 3993TIP3   OH211942   2.462   3.133   4.997  0.3046  0.6488 -0.2483
 3993TIP3    H111943   2.532   3.175   5.046  0.3180  0.9816 -0.5502
 3993TIP3    H211944   2.461   3.043   5.030 -0.6141  1.2215  1.3539
 3994TIP3   OH211945   4.928   6.658   0.101 -0.1574 -0.2732  0.2806
 3994TIP3    H111946   4.931   6.562   0.092 -2.9367 -0.4931  0.7971
 3994TIP3    H211947   4.952   6.673   0.192  0.7580 -0.4220  0.0723
 3995TIP3   OH211948   1.723   4.382   0.851  0.4365  0.1567  0.3929
 3995TIP3    H111949   1.683   4.295   0.861 -0.6274  0.5967  0.1433
 3995TIP3    H211950   1.651   4.438   0.823  1.5934  0.5965 -2.0484
 3996TIP3   OH211951   3.057   4.262   2.373  0.1881  1.3560 -0.8445
 3996TIP3    H111952   3.147   4.266   2.339  0.7453  0.5710  0.4799
 3996TIP3    H211953   3.033   4.170   2.367  0.5466  1.0695  1.4174
 3997TIP3   OH211954   1.245   2.535   3.207 -0.5287 -0.7065  0.0264
 3997TIP3    H111955   1.244   2.442   3.229  0.8482 -0.4593  1.3146
 3997TIP3    H211956   1.272   2.539   3.116 -0.5770 -1.5614 -0.0289
 3998TIP3   OH211957   1.867   3.879   4.842  0.1273 -0.0972  0.0186
 3998TIP3    H111958   1.873   3.807   4.905  1.8430 -2.6165 -2.7533
 3998TIP3    H211959   1.957   3.909   4.832 -0.3131  1.1805 -0.2894
 3999TIP3   OH211960   5.800   1.570   2.618  0.2054 -0.3457  0.4023
 3999TIP3    H111961   5.799   1.484   2.574 -1.2055 -0.5721  0.8093
 3999TIP3    H211962   5.885   1.574   2.662  0.1081 -1.7488  0.7658
 4000TIP3   OH211963   6.858   1.771   1.920 -0.1528 -0.3144 -0.0139
 4000TIP3    H111964   6.821   1.849   1.962 -0.1077  0.2729 -1.0277
 4000TIP3    H211965   6.833   1.699   1.978 -1.7348  0.2219  0.0309
 4001TIP3   OH211966   5.104   4.194   3.795  0.1913  0.4000  0.0875
 4001TIP3    H111967   5.154   4.265   3.835  2.5638 -1.9970  1.8007
 4001TIP3    H211968   5.158   4.165   3.721  0.5825 -1.1243  0.9198
 4002TIP3   OH211969   6.024   5.326   5.122  0.1994  0.6143 -0.1749
 4002TIP3    H111970   5.991   5.322   5.033  1.0731 -0.3029 -0.4873
 4002TIP3    H211971   6.118   5.308   5.114  0.6464  2.3232  0.7504
 4003TIP3   OH211972   2.653   1.818   2.250  0.0971  1.0794  0.0491
 4003TIP3    H111973   2.639   1.799   2.343  0.5666 -1.2823 -0.3119
 4003TIP3    H211974   2.568   1.802   2.209  0.7380 -1.4981 -0.4088
 4004TIP3   OH211975   2.022   0.482   1.675 -0.3296  0.2181 -0.5709
 4004TIP3    H111976   1.968   0.542   1.726 -1.0571 -1.1700  0.3498
 4004TIP3    H211977   1.980   0.481   1.589 -0.3436  0.9597 -0.5824
 4005TIP3   OH211978   4.668   2.649   3.207 -0.1818  0.2412  0.2989
 4005TIP3    H111979   4.637   2.573   3.158  1.4162 -0.9520  1.0378
 4005TIP3    H211980   4.762   2.635   3.216 -0.1575  1.2721  2.2362
 4006TIP3   OH211981   1.361   6.297   0.447 -0.4905  0.3385  0.0230
 4006TIP3    H111982   1.406   6.280   0.531 -1.2937 -2.1527  0.0378
 4006TIP3    H211983   1.428   6.280   0.381 -0.5053 -0.1034  0.1178
 4007TIP3   OH211984   4.816   5.017   5.516 -0.3466 -0.6077 -0.0621
 4007TIP3    H111985   4.909   5.001   5.496 -0.7192 -2.0642 -0.7423
 4007TIP3    H211986   4.805   4.984   5.605 -0.0174  0.4664  0.3982
 4008TIP3   OH211987   6.327   2.280   4.195  0.1455 -0.5517 -0.1193
 4008TIP3    H111988   6.274   2.202   4.180 -0.4713 -0.0327 -0.7458
 4008TIP3    H211989   6.278   2.350   4.153 -0.4641  0.6014  2.2928
 4009TIP3   OH211990   1.390   2.067   2.379 -0.0296 -0.2012  0.1395
 4009TIP3    H111991   1.300   2.058   2.346 -0.1154  2.1258 -0.4615
 4009TIP3    H211992   1.385   2.040   2.471 -1.4271  0.2243  0.2116
 4010TIP3   OH211993   3.167   6.702   1.418  0.2489  0.3731  0.4503
 4010TIP3    H111994   3.191   6.775   1.361 -0.6140  0.5273  0.2621
 4010TIP3    H211995   3.173   6.737   1.506  0.0868  0.6007  0.3720
 4011TIP3   OH211996   2.766   6.378   4.080  0.4683 -0.4637 -0.4839
 4011TIP3    H111997   2.852   6.341   4.059  0.1706 -0.5050 -1.6823
 4011TIP3    H211998   2.704   6.310   4.054  0.0481 -0.3014  0.0720
 4012TIP3   OH211999   6.590   3.177   5.026  0.2941 -0.4207  0.0958
 4012TIP3    H112000   6.557   3.255   5.071  0.3846 -0.8279  0.8790
 4012TIP3    H212001   6.521   3.112   5.036 -0.4694  0.0340 -1.9322
 4013TIP3   OH212002   3.835   3.450   3.617 -0.0228 -0.6281 -0.2021
 4013TIP3    H112003   3.792   3.393   3.553 -1.2312 -3.3005  2.7026
 4013TIP3    H212004   3.919   3.407   3.634  0.5896  0.4384 -0.4917
 4014TIP3   OH212005   3.669   4.324   4.182 -0.6113  0.1428 -0.5510
 4014TIP3    H112006   3.580   4.328   4.218  1.0123  1.7673  4.1560
 4014TIP3    H212007   3.696   4.234   4.195 -0.6807  0.3012  0.9001
 4015TIP3   OH212008   5.114   3.226   4.445 -0.4822 -0.1887  0.4789
 4015TIP3    H112009   5.190   3.284   4.452  1.1496 -2.3777  2.4146
 4015TIP3    H212010   5.059   3.249   4.520  0.5360 -1.5301  1.6914
 4016TIP3   OH212011   4.855   0.264   0.879  0.3206  0.3773  0.3678
 4016TIP3    H112012   4.820   0.237   0.794  0.6855 -1.5654  0.7778
 4016TIP3    H212013   4.793   0.231   0.943  1.5060 -0.7924  0.9710
 4017TIP3   OH212014   1.807   3.841   0.023  0.2221  0.4784 -0.3897
 4017TIP3    H112015   1.857   3.908   0.070  3.2006  0.1512 -2.7897
 4017TIP3    H212016   1.807   3.765   0.081 -0.0493  1.4059  0.8616
 4018TIP3   OH212017   4.548   4.322   2.410  0.2046 -0.6417  0.1941
 4018TIP3    H112018   4.530   4.409   2.373 -0.1685  0.0408  1.9047
 4018TIP3    H212019   4.592   4.275   2.339 -1.0064  0.3919 -1.3261
 4019TIP3   OH212020   0.829   6.773   3.207  0.3649  0.3628 -0.1878
 4019TIP3    H112021   0.887   6.705   3.172 -0.3151 -0.4495  0.2292
 4019TIP3    H212022   0.786   6.809   3.129  1.3735  0.9442 -0.4970
 4020TIP3   OH212023   5.771   3.242   0.845 -0.6152 -0.4394 -0.1383
 4020TIP3    H112024   5.723   3.169   0.883 -0.2179 -1.0010 -0.6960
 4020TIP3    H212025   5.818   3.204   0.771 -1.9497  0.7740 -1.6595
 4021TIP3   OH212026   6.033   2.039   0.971 -0.2692  0.5928  0.1123
 4021TIP3    H112027   5.969   2.109   0.987 -1.0176 -0.1395  0.4297
 4021TIP3    H212028   6.093   2.044   1.045  0.6819  1.9457 -0.7098
 4022TIP3   OH212029   2.979   5.887   1.863  0.1185 -0.2487 -0.1078
 4022TIP3    H112030   2.990   5.889   1.768 -0.5338  0.1467 -0.1813
 4022TIP3    H212031   2.923   5.810   1.878  0.1502 -0.2599 -0.0468
 4023TIP3   OH212032   3.827   5.776   0.621 -0.1656  0.0616 -0.5103
 4023TIP3    H112033   3.866   5.693   0.595 -0.4345 -0.5476  0.9703
 4023TIP3    H212034   3.896   5.841   0.605  1.1592 -0.8582  1.1516
 4024TIP3   OH212035   0.888   0.342   0.197 -0.1010 -0.3129 -0.2223
 4024TIP3    H112036   0.949   0.404   0.157  1.1727 -1.3749  0.0109
 4024TIP3    H212037   0.902   0.261   0.148  0.0591 -1.0888  1.0769
 4025TIP3   OH212038   1.593   1.107   4.798  0.2566  0.1094 -0.2686
 4025TIP3    H112039   1.681   1.076   4.816 -0.2461 -1.5611 -0.4876
 4025TIP3    H212040   1.552   1.036   4.749 -1.1886  0.8876 -0.2538
 4026TIP3   OH212041   5.356   0.643   0.177 -0.2351  0.3929  0.2999
 4026TIP3    H112042   5.289   0.599   0.125  0.8598 -0.6420 -0.2705
 4026TIP3    H212043   5.348   0.605   0.264 -0.3539  0.2506  0.2263
 4027TIP3   OH212044   1.607   6.089   2.045 -0.3213 -0.0168 -0.3218
 4027TIP3    H112045   1.605   6.049   2.132  1.3371 -0.4344 -0.4396
 4027TIP3    H212046   1.613   6.183   2.061 -0.1621 -0.0855  0.0217
 4028TIP3   OH212047   3.018   0.160   0.247  0.2813  0.7121 -0.6930
 4028TIP3    H112048   2.930   0.163   0.209 -0.3555 -1.2296  0.4505
 4028TIP3    H212049   3.014   0.221   0.321  0.3562  1.6421 -1.4282
 4029TIP3   OH212050   0.500   3.380   5.187  0.6569  0.2030  0.7541
 4029TIP3    H112051   0.507   3.467   5.148  2.7856  0.5925  1.8273
 4029TIP3    H212052   0.567   3.379   5.256  0.2801 -2.0780  1.1810
 4030TIP3   OH212053   1.284   5.586   1.394  0.2582 -0.5550 -0.7831
 4030TIP3    H112054   1.355   5.650   1.397 -0.5933  0.4547 -1.3893
 4030TIP3    H212055   1.228   5.616   1.322  0.4161 -2.6081 -1.8615
 4031TIP3   OH212056   7.191   3.769   5.821  0.4730 -0.0435  0.2594
 4031TIP3    H112057   7.208   3.696   5.880 -2.2438 -2.1105 -1.2525
 4031TIP3    H212058   7.119   3.817   5.863  0.6119  0.3335  0.0730
 4032TIP3   OH212059   5.841   3.799   2.482  0.6059 -0.3678 -0.2729
 4032TIP3    H112060   5.773   3.846   2.531  0.9845  0.0368 -0.1293
 4032TIP3    H212061   5.796   3.769   2.403  0.8542  2.1768 -1.4843
 4033TIP3   OH212062   6.653   2.181   4.557 -0.5464 -0.3730  0.3413
 4033TIP3    H112063   6.590   2.121   4.517  0.3026 -0.4887 -0.9095
 4033TIP3    H212064   6.649   2.162   4.650 -1.7775 -0.9285  0.1908
 4034TIP3   OH212065   7.192   4.412   1.107 -0.2243 -0.5412 -0.4914
 4034TIP3    H112066   7.135   4.481   1.140  1.4211 -0.2586  2.0093
 4034TIP3    H212067   7.247   4.455   1.041 -0.5195  0.0542 -0.3532
 4035TIP3   OH212068   6.797   3.409   1.437  0.2131  0.2633  0.2573
 4035TIP3    H112069   6.803   3.317   1.411  0.1994  0.1703  0.5867
 4035TIP3    H212070   6.867   3.421   1.501  0.8720  0.7365 -0.5259
 4036TIP3   OH212071   1.118   0.555   4.882  0.2863  0.0096 -0.3757
 4036TIP3    H112072   1.125   0.648   4.863  0.6955  0.3539  1.2692
 4036TIP3    H212073   1.195   0.537   4.937 -0.4733 -1.0082  0.3783
 4037TIP3   OH212074   0.355   4.489   3.723  0.1869  0.5525 -0.0496
 4037TIP3    H112075   0.276   4.537   3.698  0.3324 -0.2302 -2.2004
 4037TIP3    H212076   0.425   4.530   3.673  0.6645 -0.5677 -0.3261
 4038TIP3   OH212077   5.085   4.784   4.348 -0.1552 -0.3657  0.0541
 4038TIP3    H112078   5.025   4.813   4.280  0.8019  0.6911 -0.3705
 4038TIP3    H212079   5.145   4.724   4.304  0.6018  0.4890 -0.1172
 4039TIP3   OH212080   0.632   4.913   2.333  0.6855 -0.2914  0.3579
 4039TIP3    H112081   0.624   5.002   2.365  2.8625  0.1634 -0.2205
 4039TIP3    H212082   0.625   4.920   2.238  1.1288 -0.6961  0.2905
 4040TIP3   OH212083   5.815   1.306   3.430 -0.5200 -0.4587  0.1851
 4040TIP3    H112084   5.890   1.340   3.478  1.9171 -3.1570 -1.3935
 4040TIP3    H212085   5.821   1.346   3.343  0.7174 -2.4796 -0.7564
 4041TIP3   OH212086   2.458   4.914   0.549 -0.0487 -0.2289 -0.1273
 4041TIP3    H112087   2.385   4.889   0.606  1.6900 -0.6203  2.0473
 4041TIP3    H212088   2.498   4.989   0.593  1.0147 -0.1696 -1.1492
 4042TIP3   OH212089   1.862   0.876   0.213 -0.6482 -0.2071 -0.0177
 4042TIP3    H112090   1.937   0.870   0.153  0.9251 -0.1076  1.8292
 4042TIP3    H212091   1.800   0.933   0.168  0.6307  0.1818 -1.3827
 4043TIP3   OH212092   6.175   5.392   1.301  0.2677  0.0890 -0.0045
 4043TIP3    H112093   6.115   5.466   1.291 -0.2126 -0.5352 -2.8941
 4043TIP3    H212094   6.128   5.318   1.262  2.2836 -0.7609 -1.0015
 4044TIP3   OH212095   3.079   5.801   5.179  0.0720  0.5689  0.0849
 4044TIP3    H112096   3.081   5.715   5.137  1.1600  0.0026  1.2354
 4044TIP3    H212097   3.133   5.856   5.124 -1.7733  0.9445 -1.4560
 4045TIP3   OH212098   6.430   0.213   2.117  0.3619 -0.3317  0.4384
 4045TIP3    H112099   6.491   0.286   2.129  0.3517 -0.3586  0.6468
 4045TIP3    H212100   6.344   0.251   2.136  0.4045 -0.5159  1.0062
 4046TIP3   OH212101   6.567   2.491   5.181  0.1633 -0.4348 -0.6382
 4046TIP3    H112102   6.543   2.530   5.097  0.5293 -1.4182 -1.2049
 4046TIP3    H212103   6.642   2.543   5.210  0.1935 -0.2509 -1.0336
 4047TIP3   OH212104   1.175   0.638   1.858  0.4311  0.0700  0.0876
 4047TIP3    H112105   1.080   0.624   1.849  0.3229  1.3043 -1.0123
 4047TIP3    H212106   1.204   0.659   1.769  1.7187 -0.1593  0.4394
 4048TIP3   OH212107   1.263   2.010   5.180  0.6230 -0.2320 -0.3538
 4048TIP3    H112108   1.288   2.003   5.088  1.2977 -1.0437 -0.1148
 4048TIP3    H212109   1.237   2.102   5.191  0.7299 -0.0799 -1.2956
 4049TIP3   OH212110   6.783   4.138   2.175 -0.4571  0.5045  0.3104
 4049TIP3    H112111   6.731   4.114   2.252 -2.4986  1.7532 -0.6042
 4049TIP3    H212112   6.836   4.212   2.204 -0.7710  0.5877  0.6793
 4050TIP3   OH212113   4.897   2.149   5.643  0.2255 -0.3590  0.1355
 4050TIP3    H112114   4.804   2.132   5.660 -0.4876 -0.6443 -3.2244
 4050TIP3    H212115   4.906   2.244   5.650 -0.0723 -0.4173  1.4269
 4051TIP3   OH212116   3.433   2.547   0.506 -0.2034 -0.6460 -0.0237
 4051TIP3    H112117   3.499   2.600   0.552 -0.9161  0.9029 -0.6942
 4051TIP3    H212118   3.459   2.457   0.522  2.7515 -0.1131 -1.2070
 4052TIP3   OH212119   0.693   2.254   3.968  0.2183 -0.3664 -0.2984
 4052TIP3    H112120   0.610   2.243   3.922 -0.8575 -0.3758  1.5386
 4052TIP3    H212121   0.747   2.306   3.908 -1.7067  1.1330 -0.8537
 4053TIP3   OH212122   5.968   1.604   0.639  0.0596  0.2059 -0.1931
 4053TIP3    H112123   5.929   1.673   0.693 -3.6068 -1.5988 -0.2085
 4053TIP3    H212124   5.929   1.615   0.553  0.0042 -1.3820 -0.4042
 4054TIP3   OH212125   0.854   5.536   1.816  0.3305 -0.0732 -0.1039
 4054TIP3    H112126   0.861   5.623   1.857  1.9340 -0.0765 -0.3016
 4054TIP3    H212127   0.764   5.531   1.785  0.1147  1.3820  0.2220
 4055TIP3   OH212128   0.212   5.541   1.551 -0.3353 -0.1996  0.0035
 4055TIP3    H112129   0.268   5.617   1.569  0.4490 -0.5151 -0.9805
 4055TIP3    H212130   0.231   5.518   1.460 -1.1913 -1.0606  0.0219
 4056TIP3   OH212131  -0.004   3.921   1.866 -0.1283  0.0540 -0.1920
 4056TIP3    H112132   0.049   3.916   1.946 -2.1645 -0.3225  1.2235
 4056TIP3    H212133   0.042   3.866   1.803  1.1947 -0.1805  0.9314
 4057TIP3   OH212134   3.377   2.353   3.985  0.1252  0.1123  0.0373
 4057TIP3    H112135   3.317   2.291   3.943  1.5528  0.2824 -2.4195
 4057TIP3    H212136   3.410   2.406   3.913  1.0228  1.9514  1.7254
 4058TIP3   OH212137   5.193   4.600   1.729 -0.1852 -0.0438  0.5977
 4058TIP3    H112138   5.132   4.625   1.660  0.2419  1.2061  0.6534
 4058TIP3    H212139   5.237   4.522   1.694  1.2324  1.5237 -1.3182
 4059TIP3   OH212140   5.774   2.186   0.232  0.3410 -0.5821 -0.4317
 4059TIP3    H112141   5.730   2.249   0.175 -0.7033  0.3283  1.3063
 4059TIP3    H212142   5.721   2.184   0.312  0.2048 -3.8699 -0.4882
 4060TIP3   OH212143   2.963   2.456   5.044  0.2998 -0.2938  0.2098
 4060TIP3    H112144   2.921   2.376   5.077 -1.7304  0.2680 -0.8869
 4060TIP3    H212145   3.057   2.434   5.043 -0.0085 -1.9776  1.7144
 4061TIP3   OH212146   4.617   5.953   5.742  0.2504  0.4325 -0.3221
 4061TIP3    H112147   4.529   5.966   5.706  0.1255  0.7811  0.1068
 4061TIP3    H212148   4.602   5.923   5.831  0.5605 -0.5494 -0.5924
 4062TIP3   OH212149   1.087   1.072   1.619  0.4312 -0.6425 -0.1469
 4062TIP3    H112150   1.060   1.157   1.584 -0.8676 -1.1324 -0.3672
 4062TIP3    H212151   1.028   1.056   1.692  0.5912 -1.4192 -0.1837
 4063TIP3   OH212152   2.018   3.742   2.617 -0.3310 -0.0391  0.3068
 4063TIP3    H112153   1.964   3.786   2.552 -1.3507  1.1904  1.9156
 4063TIP3    H212154   2.108   3.765   2.593 -0.8012  2.9035  0.9853
 4064TIP3   OH212155   3.492   1.510   1.163 -0.1370 -0.3783  0.0547
 4064TIP3    H112156   3.586   1.514   1.145  0.3600 -2.4894  1.7250
 4064TIP3    H212157   3.473   1.592   1.208  0.6631  0.4898 -1.1058
 4065TIP3   OH212158   1.606   0.208   0.793  0.2333 -0.7637  0.1561
 4065TIP3    H112159   1.531   0.222   0.736 -1.5139 -2.0994  1.9556
 4065TIP3    H212160   1.637   0.120   0.771  0.0941 -0.9431  0.6573
 4066TIP3   OH212161   5.280   6.364   2.252  0.0112  0.5772  0.2566
 4066TIP3    H112162   5.258   6.393   2.164  1.8825  1.2426 -0.0469
 4066TIP3    H212163   5.276   6.443   2.305  0.2103  0.4406  0.4759
 4067TIP3   OH212164   6.201   0.374   2.255  0.1053 -0.4489  0.0463
 4067TIP3    H112165   6.181   0.468   2.245 -1.0690 -0.3603  2.6095
 4067TIP3    H212166   6.288   0.372   2.293  0.0095 -0.3906  0.2685
 4068TIP3   OH212167   5.579   4.242   2.266 -0.2152 -0.1066  0.1893
 4068TIP3    H112168   5.645   4.308   2.287  0.0497 -0.3199  0.0409
 4068TIP3    H212169   5.507   4.260   2.326 -0.3931  0.6804 -0.2481
 4069TIP3   OH212170   2.317   5.309   5.148  0.2783  0.4869  0.3760
 4069TIP3    H112171   2.346   5.363   5.221  1.5815  1.2695 -0.6765
 4069TIP3    H212172   2.382   5.239   5.142 -0.8952 -0.7163  1.1559
 4070TIP3   OH212173   6.495   1.059   3.043 -0.4528 -0.4180  0.2435
 4070TIP3    H112174   6.437   1.031   2.972 -0.1177 -1.1934  0.2586
 4070TIP3    H212175   6.470   1.150   3.060 -1.2859 -0.5668 -0.1144
 4071TIP3   OH212176   4.998   6.194   2.274 -0.3544  0.2063 -0.4784
 4071TIP3    H112177   4.961   6.143   2.346  0.5219 -1.3258 -1.0679
 4071TIP3    H212178   5.076   6.235   2.312  0.2738 -0.8387 -0.6232
 4072TIP3   OH212179   6.921   4.125   5.582  0.5937  0.5408  0.2067
 4072TIP3    H112180   6.863   4.062   5.540  0.7881  0.2401  0.3897
 4072TIP3    H212181   6.989   4.143   5.517  0.4736  0.6552  0.1105
 4073TIP3   OH212182   6.518   4.848   1.024 -0.2955 -0.2168 -0.2108
 4073TIP3    H112183   6.475   4.876   1.106  0.0495  0.6969 -0.3250
 4073TIP3    H212184   6.570   4.772   1.049 -1.0443 -0.6068  0.1895
 4074TIP3   OH212185   5.296   2.645   4.795 -0.1212 -0.5340 -0.2661
 4074TIP3    H112186   5.228   2.707   4.821 -0.8329 -1.6352  0.6024
 4074TIP3    H212187   5.254   2.591   4.727  0.4393 -0.1634 -0.9122
 4075TIP3   OH212188   0.116   3.414   5.300 -0.3402 -0.2634 -0.7996
 4075TIP3    H112189   0.100   3.350   5.231  0.3460  0.4894 -1.6999
 4075TIP3    H212190   0.114   3.498   5.255  2.2240  0.1282 -0.3524
 4076TIP3   OH212191   1.530   1.806   1.458 -0.0333  0.0642 -0.1327
 4076TIP3    H112192   1.516   1.866   1.385  0.9536 -1.4097 -1.5972
 4076TIP3    H212193   1.623   1.817   1.480 -0.8060  2.2555  2.6139
 4077TIP3   OH212194   5.139   5.911   4.655  0.0666  0.4589  0.1058
 4077TIP3    H112195   5.118   5.890   4.746  0.5327 -2.2419 -0.3178
 4077TIP3    H212196   5.055   5.930   4.614 -0.3203  0.1234  0.7361
 4078TIP3   OH212197   1.186   3.489   2.589  0.4728  0.6549 -0.2765
 4078TIP3    H112198   1.205   3.491   2.683  0.5930 -1.6017 -0.1964
 4078TIP3    H212199   1.163   3.579   2.567 -0.2327  1.1048  2.0594
 4079TIP3   OH212200   1.080   6.424   5.557  0.0627 -0.4370  0.3675
 4079TIP3    H112201   1.032   6.498   5.594 -0.4472 -1.2215  1.2991
 4079TIP3    H212202   1.013   6.370   5.515 -0.1558 -2.2604  2.8702
 4080TIP3   OH212203   6.121   3.421   1.831 -0.1246 -0.1814 -0.3619
 4080TIP3    H112204   6.164   3.346   1.871 -1.0053 -0.9247 -0.7684
 4080TIP3    H212205   6.048   3.384   1.781 -0.9142  0.9883 -0.1342
 4081TIP3   OH212206   0.557   0.109   5.439 -0.2143 -0.5513  0.5484
 4081TIP3    H112207   0.569   0.030   5.492 -0.5041 -0.6582  0.4527
 4081TIP3    H212208   0.640   0.157   5.449  1.2817 -2.3887 -1.9946
 4082TIP3   OH212209   2.535   6.145   0.312  0.2838 -0.2376 -0.2349
 4082TIP3    H112210   2.496   6.205   0.376  1.3782  1.0722 -0.7401
 4082TIP3    H212211   2.514   6.058   0.346 -1.8355  0.3906  0.2268
 4083TIP3   OH212212   1.416   3.146   3.029 -0.3468  0.1200 -0.0356
 4083TIP3    H112213   1.337   3.147   2.975 -1.3797  0.7287  1.4253
 4083TIP3    H212214   1.466   3.223   3.001 -0.8065  0.3522 -0.2154
 4084TIP3   OH212215   2.918   3.187   0.792 -0.3652  0.3961 -0.1329
 4084TIP3    H112216   2.903   3.123   0.862  0.4741  0.8439  0.4782
 4084TIP3    H212217   2.976   3.143   0.731 -1.1915 -0.0377 -0.6276
 4085TIP3   OH212218   2.772   0.908   4.741 -0.5219  0.0623  0.0439
 4085TIP3    H112219   2.738   0.984   4.692  1.6968  1.6732  0.8415
 4085TIP3    H212220   2.758   0.834   4.682  0.8759  1.7062 -2.5551
 4086TIP3   OH212221   7.047   0.906   3.497 -0.5939 -0.2929  0.0452
 4086TIP3    H112222   7.067   0.849   3.422 -1.9646 -0.4978 -0.1950
 4086TIP3    H212223   7.069   0.854   3.574 -1.0167 -0.8271 -0.1901
 4087TIP3   OH212224   0.531   0.934   5.219  0.2175 -0.4305 -0.0280
 4087TIP3    H112225   0.621   0.932   5.187  0.2984  0.8547  0.0440
 4087TIP3    H212226   0.478   0.918   5.142  0.5120 -2.8037  0.2041
 4088TIP3   OH212227   1.419   0.217   3.521  0.6268 -0.2339 -0.5729
 4088TIP3    H112228   1.356   0.147   3.509  1.7220 -1.3699  0.0675
 4088TIP3    H212229   1.487   0.200   3.456  1.0047  0.0915 -0.2721
 4089TIP3   OH212230   4.434   4.578   1.958  0.3633 -0.3557  0.0506
 4089TIP3    H112231   4.419   4.640   1.887 -0.2354  0.8922  1.2138
 4089TIP3    H212232   4.360   4.518   1.953  1.0960 -1.1944 -1.2626
 4090TIP3   OH212233   7.116   1.141   2.787  0.0793 -0.7225  0.0598
 4090TIP3    H112234   7.078   1.131   2.875 -0.3082 -0.7645 -0.1119
 4090TIP3    H212235   7.087   1.227   2.758  1.2088 -0.1928  0.4557
 4091TIP3   OH212236   2.466   6.321   2.995  0.3012  0.1589 -0.1990
 4091TIP3    H112237   2.422   6.405   2.981 -0.1130 -0.0223  0.0108
 4091TIP3    H212238   2.513   6.306   2.913 -1.5166 -0.5375 -1.1813
 4092TIP3   OH212239   1.004  -0.004   2.839 -0.4501  0.4939 -0.1015
 4092TIP3    H112240   1.050   0.079   2.834 -0.0617  0.3585  1.0132
 4092TIP3    H212241   0.912   0.019   2.827 -0.3954  1.1458  0.6774
 4093TIP3   OH212242   2.605   0.419   3.116 -0.2461  0.4467  0.2824
 4093TIP3    H112243   2.642   0.412   3.204 -0.9475 -0.0447  0.5473
 4093TIP3    H212244   2.553   0.339   3.105  0.2997  0.2181 -0.8073
 4094TIP3   OH212245   1.014   1.722   3.030 -0.2913 -0.2457 -0.1401
 4094TIP3    H112246   1.069   1.771   3.090  0.5577  0.7329 -1.6610
 4094TIP3    H212247   1.049   1.633   3.033  0.3657  0.0138  0.0839
 4095TIP3   OH212248   1.408   2.046   1.996 -0.1643  0.4505  0.0593
 4095TIP3    H112249   1.461   1.970   1.971 -0.2143  1.1456 -2.3883
 4095TIP3    H212250   1.350   2.013   2.065  1.7105 -0.9624  1.0545
 4096TIP3   OH212251   6.485   2.957   0.924 -0.0780  0.7382 -0.1148
 4096TIP3    H112252   6.566   2.913   0.899 -0.9165 -1.1631  0.3768
 4096TIP3    H212253   6.512   3.047   0.945  2.1093 -0.1679  1.2111
 4097TIP3   OH212254   6.491   6.357   0.158 -0.3453  0.3493 -0.6123
 4097TIP3    H112255   6.584   6.340   0.167 -0.3838 -0.1616 -1.1395
 4097TIP3    H212256   6.484   6.412   0.079 -0.6317 -1.0725 -1.6237
 4098TIP3   OH212257   0.660   4.699   2.710  0.3037 -0.8738  0.1457
 4098TIP3    H112258   0.572   4.737   2.720 -0.0737 -2.0420  1.7303
 4098TIP3    H212259   0.719   4.771   2.731 -0.3495 -0.5877  1.1151
 4099TIP3   OH212260   0.372   2.622   3.214 -0.5278 -0.5797  0.3389
 4099TIP3    H112261   0.454   2.607   3.167 -0.1288  0.4002  0.6934
 4099TIP3    H212262   0.308   2.640   3.145 -0.8847 -3.0316 -0.0594
 4100TIP3   OH212263   3.440   6.555   0.925 -0.3854 -0.0546  0.1690
 4100TIP3    H112264   3.355   6.537   0.964 -0.2506  0.9970  1.0054
 4100TIP3    H212265   3.478   6.469   0.907 -1.3950 -0.5330  0.2775
 4101TIP3   OH212266   3.225   2.689   0.383  0.1806  0.0033  0.2716
 4101TIP3    H112267   3.250   2.678   0.291 -1.0209  0.2321 -0.1049
 4101TIP3    H212268   3.301   2.659   0.433  0.3943 -1.3046 -0.7868
 4102TIP3   OH212269   1.920   5.806   3.233  0.3719  0.2435 -0.0793
 4102TIP3    H112270   1.999   5.799   3.180 -0.2121  0.7564 -1.0443
 4102TIP3    H212271   1.935   5.747   3.306  1.2927 -0.3107 -0.6960
 4103TIP3   OH212272   4.595   2.905   3.805 -0.1149 -0.1689 -0.0258
 4103TIP3    H112273   4.520   2.903   3.746  1.0685 -0.6002 -1.6090
 4103TIP3    H212274   4.655   2.838   3.770  2.1457  1.9152 -0.4744
 4104TIP3   OH212275   1.410   1.955   4.919  0.2210  0.3115 -0.6373
 4104TIP3    H112276   1.379   1.865   4.932 -0.9177  0.5275 -1.6825
 4104TIP3    H212277   1.493   1.945   4.872 -0.8175 -0.1853 -2.4765
 4105TIP3   OH212278   7.144   4.566   3.583  0.5868 -0.0976 -0.9967
 4105TIP3    H112279   7.089   4.555   3.661 -0.3502 -0.7453 -1.7219
 4105TIP3    H212280   7.131   4.485   3.533 -1.4605  1.5649 -3.4364
 4106TIP3   OH212281   2.938   2.717   1.976 -0.1398 -0.6345  0.6293
 4106TIP3    H112282   2.988   2.645   1.938 -1.5983 -0.9738 -0.7457
 4106TIP3    H212283   2.877   2.744   1.908 -0.0892  1.5081  1.3328
 4107TIP3   OH212284   7.016   1.423   4.529  0.2510 -0.0705  0.7752
 4107TIP3    H112285   7.074   1.498   4.513  0.2328  0.0563  1.2974
 4107TIP3    H212286   7.035   1.396   4.619  0.2492 -0.6886  0.5939
 4108TIP3   OH212287   6.946   4.359   4.623  0.2425 -0.7306 -0.0794
 4108TIP3    H112288   6.906   4.446   4.630 -0.2999 -0.7203 -2.3499
 4108TIP3    H212289   6.884   4.300   4.664 -0.5138 -0.2951 -0.5715
 4109TIP3   OH212290   6.053   6.162   5.395  0.1777 -0.4003 -0.2281
 4109TIP3    H112291   6.062   6.074   5.357  1.2749 -1.0393  1.3964
 4109TIP3    H212292   6.106   6.159   5.474 -0.0740  1.6364  0.0651
 4110TIP3   OH212293   6.707   5.643   2.695  0.7982 -0.5656 -0.1808
 4110TIP3    H112294   6.779   5.606   2.644  1.0689 -3.1664  1.8933
 4110TIP3    H212295   6.744   5.723   2.734  1.0544  0.6090 -2.6503
 4111TIP3   OH212296  -0.024   0.745   1.713  0.1151  0.3032 -0.2103
 4111TIP3    H112297  -0.009   0.670   1.655 -1.1267  1.8684 -2.7251
 4111TIP3    H212298   0.054   0.799   1.703  0.0503  0.4119 -0.1299
 4112TIP3   OH212299   3.498   0.531   3.387 -0.2902  0.2690 -0.4975
 4112TIP3    H112300   3.487   0.523   3.293  0.0046 -2.3397 -0.3933
 4112TIP3    H212301   3.444   0.461   3.424  1.8528 -0.7093  1.0547
 4113TIP3   OH212302   6.052   4.045   1.854 -0.4591  0.3975 -0.4888
 4113TIP3    H112303   5.994   4.120   1.844  0.4298  1.2014  0.1828
 4113TIP3    H212304   6.126   4.079   1.905  0.4041 -0.6999 -0.9763
 4114TIP3   OH212305   0.203   1.691   4.766 -0.1872  0.1255 -0.4055
 4114TIP3    H112306   0.179   1.758   4.702 -0.5631 -1.0190 -1.5125
 4114TIP3    H212307   0.134   1.696   4.833 -0.7802  0.1514 -1.0131
 4115TIP3   OH212308   6.701   6.361   4.358  0.0960  0.0481 -0.4171
 4115TIP3    H112309   6.765   6.297   4.326 -0.0747 -1.2257  1.6344
 4115TIP3    H212310   6.622   6.342   4.308  0.0906 -1.2921  0.0565
 4116TIP3   OH212311   0.254   1.709   1.388 -0.2351  0.2568 -0.3440
 4116TIP3    H112312   0.279   1.626   1.430  0.1732 -0.0610 -1.1916
 4116TIP3    H212313   0.325   1.726   1.326  0.8522  2.3779  1.3399
 4117TIP3   OH212314   0.290   5.401   0.167  0.3111 -0.6209 -0.0045
 4117TIP3    H112315   0.342   5.451   0.104  0.9905  0.2318  1.1892
 4117TIP3    H212316   0.235   5.344   0.114 -0.9349  1.8076 -1.4773
 4118TIP3   OH212317   4.740   5.976   3.181  0.6376 -0.4843  0.4594
 4118TIP3    H112318   4.658   6.013   3.213  1.4028  0.5175  1.3368
 4118TIP3    H212319   4.725   5.961   3.088 -0.8501 -1.2204  0.7797
 4119TIP3   OH212320   6.733   3.982   3.458  0.2423 -0.3293 -0.1374
 4119TIP3    H112321   6.818   4.011   3.427 -1.1131  1.8406 -2.1789
 4119TIP3    H212322   6.701   4.054   3.512  0.1967 -1.6893  1.7231
 4120TIP3   OH212323   4.118   4.864   1.010 -0.3938  0.6128 -0.1935
 4120TIP3    H112324   4.173   4.938   1.037  0.8233 -0.4437  0.3760
 4120TIP3    H212325   4.107   4.813   1.090 -0.2581 -0.3976 -0.8015
 4121TIP3   OH212326   0.196   1.251   5.461 -0.1474 -0.2453  0.2496
 4121TIP3    H112327   0.170   1.173   5.412 -0.9704 -0.5020  1.0674
 4121TIP3    H212328   0.275   1.281   5.417 -0.6951 -0.6287 -1.0505
 4122TIP3   OH212329   4.294   1.116   1.254 -0.7785 -0.2857 -0.0093
 4122TIP3    H112330   4.320   1.143   1.166 -1.2134 -2.5214 -0.8874
 4122TIP3    H212331   4.224   1.178   1.278 -0.0618  0.8970 -0.8449
 4123TIP3   OH212332   6.849   3.853   3.075 -0.9205 -0.5209  0.1126
 4123TIP3    H112333   6.875   3.933   3.031  0.0387 -1.3479 -0.8544
 4123TIP3    H212334   6.755   3.865   3.092 -0.9418  0.5010 -0.6431
 4124TIP3   OH212335   4.442   4.716   3.436  0.0307  0.0710  0.3425
 4124TIP3    H112336   4.376   4.649   3.420  0.0075 -0.1053  1.1142
 4124TIP3    H212337   4.402   4.797   3.406  0.5334 -0.4143 -1.7588
 4125TIP3   OH212338   6.464   3.143   1.456 -0.4619  0.0702 -0.5408
 4125TIP3    H112339   6.438   3.087   1.530  0.5816  0.2651  0.0006
 4125TIP3    H212340   6.448   3.089   1.379  0.0926 -0.8164 -0.0591
 4126TIP3   OH212341   4.896   4.677   5.586  0.3055  0.1529 -0.1177
 4126TIP3    H112342   4.903   4.697   5.492  1.5820 -0.9360 -0.2859
 4126TIP3    H212343   4.852   4.753   5.623 -0.5090  0.4820 -1.6395
 4127TIP3   OH212344   4.707   1.222   0.615 -0.2727  0.0301 -0.3079
 4127TIP3    H112345   4.711   1.244   0.522  2.0873 -1.8746 -0.7433
 4127TIP3    H212346   4.792   1.250   0.650  0.2705 -2.3632  0.4572
 4128TIP3   OH212347   0.291   4.144   4.827  0.1344  0.1209 -0.4569
 4128TIP3    H112348   0.234   4.166   4.900 -1.5164 -0.8635 -1.3779
 4128TIP3    H212349   0.304   4.049   4.835  0.4024  0.1012 -1.0969
 4129TIP3   OH212350   5.576   5.913   1.934 -0.3034 -0.0752 -0.7207
 4129TIP3    H112351   5.666   5.885   1.953 -0.3411  0.0007 -0.4262
 4129TIP3    H212352   5.566   5.899   1.840  0.2037  0.4344 -0.8572
 4130TIP3   OH212353   1.708   1.436   5.075 -0.2654 -0.0110 -0.5938
 4130TIP3    H112354   1.675   1.433   5.165  0.9675 -0.5007 -0.1451
 4130TIP3    H212355   1.639   1.482   5.026 -0.3392  1.5287  0.8610
 4131TIP3   OH212356   5.246   6.092   2.072  0.5794  0.0747  0.2415
 4131TIP3    H112357   5.167   6.124   2.116  1.9396  1.2063  1.9793
 4131TIP3    H212358   5.213   6.053   1.991 -1.7448  0.6166  0.8305
 4132TIP3   OH212359   0.165   3.614   0.057  0.6407  0.1103  0.2535
 4132TIP3    H112360   0.159   3.556  -0.018  0.3805  0.4406  0.0163
 4132TIP3    H212361   0.088   3.593   0.111  1.1970 -0.6170  0.7891
 4133TIP3   OH212362   3.494   1.389   3.143 -0.2823  0.5827 -0.6718
 4133TIP3    H112363   3.462   1.406   3.231 -1.9222  0.1204 -1.1393
 4133TIP3    H212364   3.564   1.324   3.154 -0.9519  0.0021  0.2306
 4134TIP3   OH212365   4.226   4.730   2.874 -0.2050 -0.3705 -0.6964
 4134TIP3    H112366   4.185   4.681   2.803 -0.0107 -2.2127  0.3982
 4134TIP3    H212367   4.297   4.778   2.832 -0.4537 -0.9633 -1.8390
 4135TIP3   OH212368   3.375   1.266   1.201 -0.0482 -0.4135  0.5212
 4135TIP3    H112369   3.400   1.210   1.128  2.5074 -0.0968  1.0673
 4135TIP3    H212370   3.417   1.350   1.184  0.3567 -0.2391  2.1586
 4136TIP3   OH212371   0.200   0.664   4.174 -1.0014  0.0398  0.0375
 4136TIP3    H112372   0.129   0.608   4.142 -1.1716 -0.6256  1.5052
 4136TIP3    H212373   0.247   0.691   4.095  0.2692 -3.7463 -0.6797
 4137TIP3   OH212374   0.119   0.621   2.089 -0.2580 -0.1485 -0.0045
 4137TIP3    H112375   0.115   0.546   2.148 -0.1312 -1.3082 -1.4189
 4137TIP3    H212376   0.159   0.587   2.009 -2.8853  0.6507 -1.7925
 4138TIP3   OH212377   1.977   3.853   3.578  0.7539  0.2010 -0.1040
 4138TIP3    H112378   2.022   3.850   3.662  2.1837  3.0114 -0.6396
 4138TIP3    H212379   2.042   3.823   3.514  0.0115 -0.9584 -0.3399
 4139TIP3   OH212380   4.716   0.241   0.197  0.1661  0.7774  0.9880
 4139TIP3    H112381   4.621   0.233   0.189  0.1388  1.9078  0.0345
 4139TIP3    H212382   4.737   0.189   0.275 -1.1123 -0.2337  0.7031
 4140TIP3   OH212383   1.587   6.696   5.298 -0.2786 -0.0314 -0.2924
 4140TIP3    H112384   1.666   6.710   5.246 -0.0584 -1.0909 -0.2695
 4140TIP3    H212385   1.611   6.723   5.386 -0.2838  0.6576 -0.4967
 4141TIP3   OH212386   0.716   3.080   0.737  0.0692  0.1467 -0.0166
 4141TIP3    H112387   0.712   3.156   0.679  0.6908 -0.1456 -0.4581
 4141TIP3    H212388   0.636   3.086   0.789  0.7935  1.9156  0.9908
 4142TIP3   OH212389   2.693   0.630   5.833 -0.2867  0.1784 -0.0375
 4142TIP3    H112390   2.688   0.726   5.835  0.8328  0.2563 -0.0077
 4142TIP3    H212391   2.604   0.601   5.813 -1.2114  1.1264  2.2935
 4143TIP3   OH212392   2.876   5.617   1.590  0.1670 -0.3219  0.2062
 4143TIP3    H112393   2.935   5.675   1.542  0.3528 -0.6326  0.0544
 4143TIP3    H212394   2.898   5.529   1.559  0.3747 -0.5391  0.9484
 4144TIP3   OH212395   6.502   5.528   1.791 -0.2211  0.7614  0.1365
 4144TIP3    H112396   6.527   5.468   1.720 -0.2874 -0.0329  0.7635
 4144TIP3    H212397   6.475   5.470   1.862 -2.5485  1.5570 -0.0230
 4145TIP3   OH212398   2.798   2.803   0.367  0.2952 -0.7929 -0.2234
 4145TIP3    H112399   2.877   2.844   0.403 -1.3709  1.5903  1.0258
 4145TIP3    H212400   2.789   2.843   0.280  0.6190 -1.3079 -0.4968
 4146TIP3   OH212401   4.181   5.757   1.749 -0.0943 -0.3250 -0.1708
 4146TIP3    H112402   4.162   5.788   1.838  0.8321 -1.4495  0.4538
 4146TIP3    H212403   4.245   5.819   1.715 -0.9674  0.5086 -0.3308
 4147TIP3   OH212404   6.737   3.262   2.076  0.2399  0.5804  0.2680
 4147TIP3    H112405   6.773   3.174   2.065  0.1347  0.5260  0.3542
 4147TIP3    H212406   6.667   3.267   2.011 -1.1175 -0.1377  1.6133
 4148TIP3   OH212407   2.139   5.136   4.870  0.2070 -0.0952  0.0730
 4148TIP3    H112408   2.096   5.155   4.953  0.8220  0.9434  0.1653
 4148TIP3    H212409   2.085   5.067   4.830  0.0077 -0.7315  1.4009
 4149TIP3   OH212410   3.825   2.249   3.238 -0.0430  0.2105 -0.2441
 4149TIP3    H112411   3.764   2.300   3.291  0.5639 -0.3532  1.0534
 4149TIP3    H212412   3.791   2.160   3.242  0.9132 -0.1420  0.6350
 4150TIP3   OH212413   6.078   6.356   3.014 -0.6985  0.1564 -0.2580
 4150TIP3    H112414   6.051   6.273   2.974 -1.6747  1.0644 -1.5687
 4150TIP3    H212415   6.094   6.414   2.940 -1.6986  1.6345  0.6286
 4151TIP3   OH212416   5.530   3.597   1.065 -0.0236  0.0373  0.2425
 4151TIP3    H112417   5.444   3.578   1.026 -0.0644 -0.1217  0.4104
 4151TIP3    H212418   5.538   3.692   1.060 -0.2590  0.0626  0.3305
 4152TIP3   OH212419   7.087   0.645   3.400 -0.4063  0.1283  0.0086
 4152TIP3    H112420   7.182   0.634   3.391 -0.3358  1.0241 -0.5462
 4152TIP3    H212421   7.055   0.559   3.427  0.2218 -1.0078 -2.5773
 4153TIP3   OH212422   1.426   0.716   2.656 -0.6683  0.0233  0.2800
 4153TIP3    H112423   1.479   0.770   2.598 -1.5902  0.6196 -0.0374
 4153TIP3    H212424   1.390   0.648   2.600 -2.4811  1.2618 -0.1503
 4154TIP3   OH212425   6.161   0.588   2.978  0.1132 -0.2491  0.3830
 4154TIP3    H112426   6.201   0.585   3.065  1.3544 -3.1146 -0.1480
 4154TIP3    H212427   6.230   0.622   2.921 -0.3154  0.5583  0.3360
 4155TIP3   OH212428   6.797   0.835   4.248  0.2494  0.1456 -0.2882
 4155TIP3    H112429   6.827   0.922   4.276  0.0138  0.3480 -0.6542
 4155TIP3    H212430   6.744   0.804   4.321  2.9850 -1.1313  1.3338
 4156TIP3   OH212431   5.840   3.305   4.320  0.2826 -0.1618  0.2244
 4156TIP3    H112432   5.850   3.210   4.330  1.9267 -0.0106  0.3744
 4156TIP3    H212433   5.899   3.342   4.387  1.2896  0.9230 -1.2001
 4157TIP3   OH212434   0.522   1.815   0.908 -0.0062  0.1380 -0.0440
 4157TIP3    H112435   0.435   1.842   0.938 -0.5320 -1.7584  0.2807
 4157TIP3    H212436   0.557   1.891   0.863 -0.2886  2.2296  3.0099
 4158TIP3   OH212437   3.514   0.262   3.146 -0.4357  0.0482  0.3756
 4158TIP3    H112438   3.437   0.221   3.187 -1.0302  1.5376  0.8252
 4158TIP3    H212439   3.512   0.232   3.056 -2.7727  1.6167 -0.1908
 4159TIP3   OH212440   6.979   1.711   4.471  0.8569  0.1669  0.0492
 4159TIP3    H112441   6.914   1.780   4.488 -1.1000 -1.2663 -1.1051
 4159TIP3    H212442   7.002   1.678   4.557 -0.5524  0.2410  0.4866
 4160TIP3   OH212443   7.075   4.268   0.472  0.2857  0.6122  0.4095
 4160TIP3    H112444   7.065   4.359   0.445  1.5543  0.3895 -0.8797
 4160TIP3    H212445   7.156   4.266   0.523  1.3391 -0.1189 -1.2303
 4161TIP3   OH212446   1.969   1.361   2.193  0.0953 -0.3182 -0.0290
 4161TIP3    H112447   1.965   1.428   2.125  0.6556  0.1194  0.3643
 4161TIP3    H212448   1.916   1.289   2.158  0.8377 -0.3369 -1.1893
 4162TIP3   OH212449   4.710   5.209   0.244  0.1907  0.2048 -0.6279
 4162TIP3    H112450   4.757   5.126   0.235  0.2339  0.3659 -2.0579
 4162TIP3    H212451   4.653   5.196   0.320  2.4945 -0.0082  1.1744
 4163TIP3   OH212452   2.006   4.015   0.717  0.0923 -0.5202  0.1843
 4163TIP3    H112453   2.085   3.982   0.673  0.2621 -0.7012  0.6204
 4163TIP3    H212454   2.030   4.103   0.746 -0.3390 -0.0143 -0.9213
 4164TIP3   OH212455   0.374   1.422   5.733  0.3222 -0.0846  0.3239
 4164TIP3    H112456   0.438   1.445   5.666  0.7702 -0.2363  0.6936
 4164TIP3    H212457   0.370   1.499   5.790  1.5589 -0.7197  1.3573
 4165TIP3   OH212458   1.566   1.886   2.223 -0.3732  0.5460 -0.3784
 4165TIP3    H112459   1.490   1.932   2.256 -0.7187  0.0727 -0.4949
 4165TIP3    H212460   1.535   1.797   2.206 -0.3592  0.8915 -2.4816
 4166TIP3   OH212461   1.722   6.003   1.026  0.2097 -0.3785  0.1324
 4166TIP3    H112462   1.783   6.071   0.997  0.5065 -0.5438  0.3558
 4166TIP3    H212463   1.649   6.051   1.065 -0.2832 -0.1460 -1.0394
 4167TIP3   OH212464   6.853   6.007   4.776  0.2796  0.1018 -0.0409
 4167TIP3    H112465   6.776   5.958   4.747  0.5824 -0.4203  0.0237
 4167TIP3    H212466   6.828   6.099   4.767  0.0426 -0.0522 -1.0654
 4168TIP3   OH212467   3.637   5.762   1.187  0.3553 -0.2598  0.1023
 4168TIP3    H112468   3.598   5.741   1.272 -0.0097 -1.4375 -0.3405
 4168TIP3    H212469   3.724   5.797   1.209  0.7488 -1.6763  0.9259
 4169TIP3   OH212470   3.455   1.593   0.769  0.3220  0.0969 -0.3707
 4169TIP3    H112471   3.388   1.588   0.836  0.2440  1.8704 -0.2639
 4169TIP3    H212472   3.538   1.598   0.817  0.3696 -0.0123 -0.4406
 4170TIP3   OH212473   3.901   3.860   5.736  0.2374 -0.1504 -0.0411
 4170TIP3    H112474   3.825   3.871   5.680  0.4655 -1.4931 -0.6450
 4170TIP3    H212475   3.866   3.859   5.825 -0.3268  0.2298 -0.2556
 4171TIP3   OH212476   2.318   2.639   4.722 -0.3608  0.3334 -0.0108
 4171TIP3    H112477   2.280   2.722   4.693  0.6532  0.8614  0.1054
 4171TIP3    H212478   2.376   2.613   4.650 -0.4247 -0.1079  0.0969
 4172TIP3   OH212479   6.400   6.458   1.198 -0.3490 -0.0264  0.3643
 4172TIP3    H112480   6.430   6.381   1.149 -1.4650 -0.6871  0.6871
 4172TIP3    H212481   6.429   6.533   1.144  1.2665 -0.6212  0.3414
 4173TIP3   OH212482   2.201   5.303   3.322 -0.1590 -0.2941  0.5056
 4173TIP3    H112483   2.258   5.380   3.313  1.5688 -1.4215  1.2337
 4173TIP3    H212484   2.165   5.290   3.234 -2.1127  2.4651  0.7769
 4174TIP3   OH212485   3.285   5.260   4.340  0.5292 -0.0395 -0.1448
 4174TIP3    H112486   3.235   5.314   4.280  0.5772 -0.7975 -0.8945
 4174TIP3    H212487   3.225   5.188   4.363  1.6903 -1.7965 -2.2412
 4175TIP3   OH212488   3.249   2.212  -0.024 -0.5155  0.1047  0.2056
 4175TIP3    H112489   3.212   2.300  -0.014  0.2365  0.2028  3.0354
 4175TIP3    H212490   3.209   2.161   0.047  2.0102 -0.7097  1.1567
 4176TIP3   OH212491   4.395   0.235   3.939 -0.0694 -0.1333 -0.4009
 4176TIP3    H112492   4.403   0.251   4.033  0.6023  0.2334 -0.5198
 4176TIP3    H212493   4.326   0.168   3.932 -0.2105 -0.0715  0.3386
 4177TIP3   OH212494   0.170   3.117   3.802  0.1089 -0.0795  0.5493
 4177TIP3    H112495   0.086   3.149   3.770 -0.0360 -1.7036 -0.8702
 4177TIP3    H212496   0.150   3.074   3.885 -0.0741  1.3669  1.2776
 4178TIP3   OH212497   2.236   1.353   5.434  0.0004 -0.1487 -0.1977
 4178TIP3    H112498   2.194   1.418   5.378  1.0657 -0.9174 -1.9884
 4178TIP3    H212499   2.262   1.283   5.374  0.4588 -1.4219  1.4042
 4179TIP3   OH212500   3.081   6.676   5.618  0.1306  0.0377 -0.0723
 4179TIP3    H112501   2.998   6.721   5.610  0.6211  0.6783 -1.9031
 4179TIP3    H212502   3.144   6.745   5.641  0.3001 -0.3108  0.5412
 4180TIP3   OH212503   1.620   3.142   0.735  0.0015  0.3557  0.2398
 4180TIP3    H112504   1.623   3.047   0.720  2.8898  0.7063 -2.1445
 4180TIP3    H212505   1.594   3.179   0.651 -1.3202  1.7538  1.1963
 4181TIP3   OH212506   2.173   4.020   4.234  0.5070  0.1894  0.4168
 4181TIP3    H112507   2.214   3.973   4.161 -0.3156  0.5850 -0.3103
 4181TIP3    H212508   2.153   4.106   4.199  1.3036  0.8540  1.5120
 4182TIP3   OH212509   0.226   3.914   3.652  0.0567  0.4164  0.2794
 4182TIP3    H112510   0.158   3.917   3.584 -0.7868 -0.8901  1.0389
 4182TIP3    H212511   0.177   3.911   3.734  1.0613  0.8500  0.9041
 4183TIP3   OH212512   5.671   4.778   4.342 -0.1400  0.3697  0.1356
 4183TIP3    H112513   5.729   4.735   4.279  0.1174 -0.8690  1.2010
 4183TIP3    H212514   5.723   4.786   4.422 -0.1152  2.8369 -0.0421
 4184TIP3   OH212515   0.368   6.030   0.019  0.1620  0.2090 -0.8126
 4184TIP3    H112516   0.437   6.000   0.078  1.3849  0.2057 -2.1960
 4184TIP3    H212517   0.309   5.955   0.012  0.6518 -0.2138 -0.5406
 4185TIP3   OH212518   4.796   6.612   3.681  0.5959  0.1281 -0.0617
 4185TIP3    H112519   4.725   6.631   3.620 -0.7270 -0.8957  1.0779
 4185TIP3    H212520   4.843   6.539   3.640 -0.0187 -0.2636 -0.1001
 4186TIP3   OH212521   6.079   0.305   4.885 -0.0453 -0.4237 -0.7668
 4186TIP3    H112522   6.017   0.248   4.931  1.1986 -0.1863  1.3026
 4186TIP3    H212523   6.053   0.394   4.911 -0.1021 -0.2040 -1.5555
 4187TIP3   OH212524   7.030   5.925   3.909 -0.6166 -0.7409 -0.3590
 4187TIP3    H112525   7.101   5.891   3.854 -2.0453  1.0600 -3.6570
 4187TIP3    H212526   7.050   6.018   3.918 -2.7048 -0.0821 -1.8091
 4188TIP3   OH212527   2.610   5.118   2.611 -0.6497 -0.4441 -0.3077
 4188TIP3    H112528   2.552   5.144   2.539 -1.9683  1.2229  1.2560
 4188TIP3    H212529   2.555   5.065   2.668 -0.0554 -0.5004  0.2284
 4189TIP3   OH212530   3.245   2.734   2.224  0.4844  0.3748  0.1934
 4189TIP3    H112531   3.338   2.750   2.211  0.2141  1.2046 -0.7995
 4189TIP3    H212532   3.217   2.803   2.285  0.5581  0.0039  0.6495
 4190TIP3   OH212533   1.912   2.290   5.550  0.0902  0.0494  0.4292
 4190TIP3    H112534   1.940   2.233   5.621  1.2261  1.2811  1.0050
 4190TIP3    H212535   1.988   2.298   5.493 -0.8244 -0.9761 -1.0034
 4191TIP3   OH212536   0.756   0.378   5.151 -0.3769 -0.1310 -0.2560
 4191TIP3    H112537   0.763   0.293   5.107  1.1836  0.1779 -0.6566
 4191TIP3    H212538   0.793   0.440   5.088  0.2742  0.5727  0.7917
 4192TIP3   OH212539   4.455   1.841   5.696  0.0089 -0.3161  0.1644
 4192TIP3    H112540   4.385   1.889   5.740 -0.4811  1.3646 -2.2580
 4192TIP3    H212541   4.421   1.751   5.689 -0.8125 -0.1118  1.1851
 4193TIP3   OH212542   5.134   1.178   3.045  0.9169 -0.3546 -0.4417
 4193TIP3    H112543   5.206   1.201   3.103  1.0382 -1.0707 -0.2949
 4193TIP3    H212544   5.076   1.125   3.099 -0.4101  1.3078 -0.1783
 4194TIP3   OH212545   6.686   6.804   0.752 -0.0913  0.1305 -0.0948
 4194TIP3    H112546   6.760   6.865   0.762  0.8778 -0.8169 -1.1964
 4194TIP3    H212547   6.726   6.718   0.749 -1.2551 -0.4133 -0.6389
 4195TIP3   OH212548   1.347   2.589   0.240 -0.2350 -0.3818 -0.1054
 4195TIP3    H112549   1.416   2.639   0.197  0.2305 -0.7495  0.2044
 4195TIP3    H212550   1.331   2.515   0.181 -0.4481 -0.2323 -0.2351
 4196TIP3   OH212551   6.222   4.580   0.788 -0.3524 -0.9144  0.0923
 4196TIP3    H112552   6.275   4.656   0.762 -0.3085 -0.7240  0.7370
 4196TIP3    H212553   6.252   4.509   0.731  2.1350 -1.4020  1.8626
 4197TIP3   OH212554   4.323   2.005   2.938 -0.4038  0.0762  0.5384
 4197TIP3    H112555   4.227   1.995   2.937 -0.2419 -2.2648 -0.5563
 4197TIP3    H212556   4.347   2.015   2.846  0.4193  0.6132  0.7997
 4198TIP3   OH212557   0.672   6.572   1.650 -0.5259 -0.1503  0.6922
 4198TIP3    H112558   0.661   6.486   1.690 -0.9169 -1.0838 -1.3435
 4198TIP3    H212559   0.727   6.620   1.713  1.4143 -2.5247  0.9617
 4199TIP3   OH212560   5.404   2.987   5.252  0.0497 -0.1688  0.5616
 4199TIP3    H112561   5.427   3.071   5.292 -1.9397  1.0455 -0.6670
 4199TIP3    H212562   5.449   2.987   5.168 -0.8670  0.2308  0.0555
 4200TIP3   OH212563   7.047   3.376   4.827  0.6109  0.2769 -0.1522
 4200TIP3    H112564   6.958   3.344   4.842  1.4328 -1.6842  0.9987
 4200TIP3    H212565   7.090   3.304   4.780  2.4966 -0.3879  2.3602
 4201TIP3   OH212566   5.582   3.094   3.039  0.1960  0.3780  0.2575
 4201TIP3    H112567   5.559   3.078   2.948  0.9512  2.2992 -0.3234
 4201TIP3    H212568   5.673   3.063   3.047 -0.0481 -0.2975  0.5337
 4202TIP3   OH212569   1.012   4.467   5.277  0.9287  0.2695 -0.5010
 4202TIP3    H112570   0.955   4.418   5.335 -1.3185  2.2000 -0.9234
 4202TIP3    H212571   1.083   4.498   5.333  0.1512  0.0079  0.6493
 4203TIP3   OH212572   2.673   0.013   4.209 -0.8123 -0.1076 -0.3467
 4203TIP3    H112573   2.593  -0.036   4.189  0.8776 -3.1218 -0.3514
 4203TIP3    H212574   2.715   0.025   4.124 -0.3105 -0.4059 -0.1461
 4204TIP3   OH212575   0.443   4.897   0.138 -0.3393  0.1140 -0.4166
 4204TIP3    H112576   0.510   4.844   0.094  1.7343  2.6512 -0.5756
 4204TIP3    H212577   0.387   4.929   0.067 -0.4529 -0.3281 -0.5301
 4205TIP3   OH212578   2.808   0.806   5.543  0.0328  0.4020 -0.1113
 4205TIP3    H112579   2.756   0.819   5.622 -1.3834 -2.4731 -0.4471
 4205TIP3    H212580   2.764   0.859   5.477 -1.3116 -0.3967  0.0985
 4206TIP3   OH212581   2.393   1.599   3.868 -0.3053  0.0750  0.6434
 4206TIP3    H112582   2.389   1.692   3.890 -1.0156  0.1307  0.3025
 4206TIP3    H212583   2.304   1.577   3.841  0.3469 -0.1534 -1.5033
 4207TIP3   OH212584   6.086   2.391   0.159  0.0120  0.0594  0.0233
 4207TIP3    H112585   6.082   2.463   0.222 -0.6386 -0.6394  0.8176
 4207TIP3    H212586   6.014   2.409   0.098  1.3843  1.3807 -1.2835
 4208TIP3   OH212587   2.862   5.636   2.793 -0.4797 -0.1421 -0.0125
 4208TIP3    H112588   2.823   5.653   2.879  1.1963 -1.0495  0.9661
 4208TIP3    H212589   2.890   5.545   2.797  0.8740  0.2127 -1.0034
 4209TIP3   OH212590   1.480   6.640   2.620  0.2739 -0.9179  0.2708
 4209TIP3    H112591   1.524   6.650   2.536  0.4822  0.2801  0.5038
 4209TIP3    H212592   1.418   6.569   2.607 -2.1643  1.3739 -1.9701
 4210TIP3   OH212593   0.900   2.202   1.753  0.0211 -0.2135 -0.0470
 4210TIP3    H112594   0.949   2.273   1.711 -0.8935 -0.1093 -0.9765
 4210TIP3    H212595   0.864   2.242   1.832  1.9940 -0.4893  1.0436
 4211TIP3   OH212596   3.762   5.166   1.601 -0.0804  0.0074  0.0950
 4211TIP3    H112597   3.802   5.253   1.601  0.0826 -0.0432 -1.2152
 4211TIP3    H212598   3.739   5.150   1.692  0.0814  1.3339  0.3884
 4212TIP3   OH212599   5.791   4.576   4.188  0.5349  0.7547 -0.6124
 4212TIP3    H112600   5.860   4.584   4.122  1.7847 -1.9337  0.2430
 4212TIP3    H212601   5.727   4.517   4.148  0.3771  0.6015 -0.1294
 4213TIP3   OH212602   1.421   0.139  -0.013  0.4612  0.6239 -0.0122
 4213TIP3    H112603   1.445   0.216   0.039  0.1185  1.4510 -1.0363
 4213TIP3    H212604   1.366   0.087   0.046  1.0629  0.9373  0.8486
 4214TIP3   OH212605   0.618   2.352   0.737  0.3226 -0.0752  0.2660
 4214TIP3    H112606   0.650   2.436   0.703 -0.2803  0.6800  1.5019
 4214TIP3    H212607   0.595   2.302   0.659  1.8532  0.4197 -0.5531
 4215TIP3   OH212608   1.405   1.905   5.395  0.2642  0.5773  0.2370
 4215TIP3    H112609   1.331   1.906   5.456 -0.7014 -1.3046 -0.8155
 4215TIP3    H212610   1.372   1.946   5.315  0.6075  0.4232  0.0123
 4216TIP3   OH212611   6.577   0.513   5.458  0.2660  0.4074 -0.0762
 4216TIP3    H112612   6.639   0.522   5.385 -0.0818 -0.4920 -0.4946
 4216TIP3    H212613   6.628   0.470   5.527  0.0714 -0.5203 -0.4935
 4217TIP3   OH212614   2.714   0.506   4.114  0.2122 -0.3741 -0.1850
 4217TIP3    H112615   2.648   0.463   4.058  0.1860 -0.3701 -0.1575
 4217TIP3    H212616   2.784   0.441   4.123 -0.9372 -1.4467  1.9394
 4218TIP3   OH212617   1.267   0.814   0.564  0.6003 -0.0812 -0.5174
 4218TIP3    H112618   1.254   0.724   0.594  0.1308  0.2481  0.3046
 4218TIP3    H212619   1.207   0.866   0.617 -0.2032  0.5479 -2.0037
 4219TIP3   OH212620   6.176   3.547   5.654 -0.2457  0.1360  0.0097
 4219TIP3    H112621   6.133   3.466   5.680  0.7955 -0.2368  0.6520
 4219TIP3    H212622   6.214   3.528   5.568 -1.5150  0.5344 -0.6519
 4220TIP3   OH212623   4.540   3.755   2.868 -0.7580 -0.1564 -0.1103
 4220TIP3    H112624   4.503   3.778   2.783  0.9291  1.0399 -0.5576
 4220TIP3    H212625   4.504   3.821   2.928 -1.5577 -0.7072  0.0380
 4221TIP3   OH212626   3.646   5.100   1.824 -0.1170  0.3950  0.4329
 4221TIP3    H112627   3.610   5.023   1.779  0.2237  1.0026 -0.9377
 4221TIP3    H212628   3.676   5.066   1.908  1.6855 -1.3899 -0.8264
 4222TIP3   OH212629   5.947   5.294   2.175  0.2955  0.3510  0.1687
 4222TIP3    H112630   6.009   5.352   2.131  1.3624 -1.0819 -0.3195
 4222TIP3    H212631   5.920   5.342   2.253 -0.8031  2.5078 -1.4559
 4223TIP3   OH212632   4.981   3.610   0.998 -0.3625  0.1216 -0.7151
 4223TIP3    H112633   5.014   3.520   0.994 -0.8985 -0.1455  0.3616
 4223TIP3    H212634   4.904   3.604   1.054  0.9437  1.6236  1.3771
 4224TIP3   OH212635   6.432   2.712   0.243  0.2757  0.3802  0.2015
 4224TIP3    H112636   6.360   2.770   0.267 -0.1484  0.5088 -1.2474
 4224TIP3    H212637   6.454   2.737   0.153  0.8811 -0.9068 -0.0395
 4225TIP3   OH212638   6.436   5.353   2.570 -0.5979 -0.4997  0.3288
 4225TIP3    H112639   6.454   5.445   2.590 -0.5455 -0.4097 -0.1160
 4225TIP3    H212640   6.433   5.350   2.474 -1.5621 -0.7833  0.3635
 4226TIP3   OH212641   3.026   1.189   4.879  0.6768  0.1070  0.5152
 4226TIP3    H112642   3.091   1.133   4.836  0.6118  0.0021  0.5553
 4226TIP3    H212643   3.055   1.278   4.859 -1.2601  0.1862 -2.7914
 4227TIP3   OH212644   4.020   1.619   0.046  0.4307  0.1364  0.0096
 4227TIP3    H112645   3.991   1.580   0.129  1.8977  0.1958  0.5973
 4227TIP3    H212646   3.996   1.711   0.053  0.6037  0.1541  0.4040
 4228TIP3   OH212647   2.301   1.710   2.242 -0.2464 -0.6502 -0.8525
 4228TIP3    H112648   2.284   1.804   2.239  0.0783 -0.6221 -2.0548
 4228TIP3    H212649   2.374   1.696   2.182 -0.0185 -1.6207 -0.3781
 4229TIP3   OH212650   2.229   4.683   4.221  0.1418  0.4074  0.1836
 4229TIP3    H112651   2.142   4.695   4.184 -0.0843 -0.6243  0.3619
 4229TIP3    H212652   2.285   4.743   4.171 -0.1497 -0.9184 -1.8528
 4230TIP3   OH212653   6.609   4.323   3.941 -0.4814 -0.1297  0.1419
 4230TIP3    H112654   6.681   4.299   4.000  0.7168  1.1040 -0.7586
 4230TIP3    H212655   6.538   4.264   3.966  0.1339 -0.0153  2.4736
 4231TIP3   OH212656   1.036   5.892   4.791  0.0745 -0.5214 -0.5907
 4231TIP3    H112657   1.131   5.876   4.786  0.2818  0.7522 -1.1292
 4231TIP3    H212658   1.007   5.838   4.864  1.3696 -0.3028  0.1236
 4232TIP3   OH212659   3.574   5.323   3.682 -0.8771  0.2967 -0.3611
 4232TIP3    H112660   3.579   5.413   3.714 -1.1825  0.3524 -0.4658
 4232TIP3    H212661   3.626   5.323   3.601  2.9282 -0.6373  1.8005
 4233TIP3   OH212662   4.181   1.053   5.413  0.2554  0.1500 -0.3244
 4233TIP3    H112663   4.244   1.071   5.483  1.9883 -0.1274 -1.7166
 4233TIP3    H212664   4.183   0.957   5.405 -0.9032  0.0844  0.0772
 4234TIP3   OH212665   1.280   1.832   3.060  0.0146 -0.1258 -0.2614
 4234TIP3    H112666   1.340   1.774   3.107  0.0954  0.3234  0.1952
 4234TIP3    H212667   1.336   1.899   3.022 -0.0361 -0.5521 -1.1123
 4235TIP3   OH212668   6.047   0.148   4.011 -0.1435  0.4318 -0.2468
 4235TIP3    H112669   6.126   0.203   4.008  0.3786 -0.2206  1.1086
 4235TIP3    H212670   6.023   0.144   4.103 -0.1731 -1.6095 -0.2937
 4236TIP3   OH212671   3.603   1.440   4.540 -0.0398  0.5645  0.5213
 4236TIP3    H112672   3.614   1.355   4.583 -0.2510 -0.2218 -0.9349
 4236TIP3    H212673   3.606   1.421   4.446 -0.8931  2.0593  0.1516
 4237TIP3   OH212674   4.628   0.852   4.889  0.1344 -0.2200  0.8505
 4237TIP3    H112675   4.619   0.845   4.984  0.0140  0.4566  0.8901
 4237TIP3    H212676   4.604   0.942   4.869 -1.5520 -0.8279 -0.0146
 4238TIP3   OH212677   6.780   0.699   0.549 -0.4809  0.7208  0.3413
 4238TIP3    H112678   6.738   0.617   0.577 -2.5230  1.5822 -0.0489
 4238TIP3    H212679   6.707   0.757   0.528  0.9253  1.8162 -1.8268
 4239TIP3   OH212680   2.640   1.681   1.757 -0.5232  0.3319  0.1689
 4239TIP3    H112681   2.607   1.766   1.787  0.3106  1.7107 -2.5159
 4239TIP3    H212682   2.732   1.681   1.783 -0.5474  0.2083  0.2540
 4240TIP3   OH212683   6.605   5.906   5.467  0.4846  0.1685  0.0187
 4240TIP3    H112684   6.536   5.856   5.424 -2.0731  2.1089  1.5981
 4240TIP3    H212685   6.613   5.866   5.554 -1.1306  1.9622  1.0611
 4241TIP3   OH212686   0.448   1.565   2.630 -0.3997 -0.2173  0.0218
 4241TIP3    H112687   0.483   1.483   2.666 -1.2386 -0.1594  0.9940
 4241TIP3    H212688   0.425   1.617   2.706 -1.6387  0.1640 -0.5816
 4242TIP3   OH212689   2.777   2.598   1.182  0.0366  0.1057  0.2665
 4242TIP3    H112690   2.766   2.507   1.207 -0.1741  0.4636  1.5364
 4242TIP3    H212691   2.853   2.628   1.232  0.2765  0.5562 -0.3529
 4243TIP3   OH212692   3.130   4.461   2.151  0.2935 -0.1085  0.7304
 4243TIP3    H112693   3.213   4.498   2.119  0.2792 -0.4452  0.3082
 4243TIP3    H212694   3.077   4.538   2.170  0.1057  0.1083 -0.5682
 4244TIP3   OH212695   2.054   4.225   1.498  0.6838 -0.1474  1.0381
 4244TIP3    H112696   2.128   4.177   1.535  0.9270  0.1998  1.0093
 4244TIP3    H212697   2.041   4.299   1.558  1.5068  0.7979  0.0958
 4245TIP3   OH212698   0.813   1.953   1.653 -0.0850 -0.5997 -0.4000
 4245TIP3    H112699   0.819   1.991   1.566 -1.4994 -0.1986 -0.3358
 4245TIP3    H212700   0.827   2.027   1.712 -4.2249  0.2633 -0.2480
 4246TIP3   OH212701   6.151   5.827   2.683 -0.3055  0.2969 -0.5178
 4246TIP3    H112702   6.122   5.918   2.675 -1.0042  0.0790 -0.5776
 4246TIP3    H212703   6.090   5.788   2.746 -0.1480 -0.1802 -0.6520
 4247TIP3   OH212704   6.362   0.254   5.728  0.3411 -0.7682 -0.1394
 4247TIP3    H112705   6.282   0.233   5.776 -0.0401  0.0618 -0.3834
 4247TIP3    H212706   6.331   0.286   5.644  0.8737  0.5455  0.1371
 4248TIP3   OH212707   2.269   2.038   5.213 -0.1182 -0.0919 -0.1360
 4248TIP3    H112708   2.197   2.023   5.152 -0.4374 -1.8207  0.6006
 4248TIP3    H212709   2.335   1.973   5.189  0.0106 -0.3860  0.9534
 4249TIP3   OH212710   0.445   0.075   5.175 -0.0646 -0.6119 -1.0192
 4249TIP3    H112711   0.439  -0.020   5.185 -0.5088 -0.7930 -2.6590
 4249TIP3    H212712   0.460   0.108   5.263 -1.3373 -2.0913 -0.2015
 4250TIP3   OH212713   1.731   2.203   0.978 -0.5243  0.3986  0.5022
 4250TIP3    H112714   1.779   2.285   0.982 -0.6500  0.7093 -2.3910
 4250TIP3    H212715   1.798   2.135   0.990  0.1400  0.8808 -0.4042
 4251TIP3   OH212716   3.022   3.502   0.216  0.0568  0.3965 -0.0240
 4251TIP3    H112717   2.977   3.541   0.291 -0.3330  0.5817 -0.3498
 4251TIP3    H212718   3.043   3.413   0.245 -0.8617  0.1745  0.0018
 4252TIP3   OH212719   3.074   6.285   0.336  0.2255  0.2359  0.6045
 4252TIP3    H112720   3.077   6.374   0.300 -2.4458  0.7824  1.4568
 4252TIP3    H212721   2.984   6.256   0.321  0.3544 -1.3907  2.4653
 4253TIP3   OH212722   3.978   5.734   2.887  0.6732  0.3518  0.0566
 4253TIP3    H112723   4.014   5.803   2.943 -1.8119  0.8017  1.2598
 4253TIP3    H212724   4.027   5.656   2.911  2.4695  1.3490 -0.1864
 4254TIP3   OH212725   5.204   3.318   4.742  0.3180  0.4126  0.4556
 4254TIP3    H112726   5.119   3.284   4.713  0.5660 -1.1402  1.4784
 4254TIP3    H212727   5.235   3.369   4.667 -0.4590 -0.9199 -0.8237
 4255TIP3   OH212728   3.796   6.661   4.660 -0.1816  0.4902 -0.5032
 4255TIP3    H112729   3.754   6.746   4.673  0.5934  0.9567 -0.9474
 4255TIP3    H212730   3.801   6.622   4.748 -2.3432  0.0062 -0.5512
 4256TIP3   OH212731   0.462   5.514   4.889  0.2582 -0.0171 -0.2208
 4256TIP3    H112732   0.461   5.554   4.802 -0.2053 -0.2481 -0.3234
 4256TIP3    H212733   0.471   5.420   4.872  1.7332  0.0448  0.0246
 4257TIP3   OH212734   4.022   5.294   5.900 -0.5158  0.2349  0.1120
 4257TIP3    H112735   4.040   5.239   5.824 -0.7315 -0.4204  0.5187
 4257TIP3    H212736   3.945   5.345   5.876 -1.2506 -0.7584  0.2702
 4258TIP3   OH212737   6.128   0.179   2.035  0.0318  0.3724 -0.4241
 4258TIP3    H112738   6.122   0.244   2.105 -0.1755  0.5748 -0.6278
 4258TIP3    H212739   6.038   0.151   2.021  0.3174 -1.5571  1.1457
 4259TIP3   OH212740   3.367   2.690   0.135 -0.3353 -0.2895  0.0437
 4259TIP3    H112741   3.452   2.657   0.165 -1.0049 -0.9632  1.2556
 4259TIP3    H212742   3.377   2.785   0.136  0.5808 -0.3683 -0.3675
 4260TIP3   OH212743   6.466   3.286   0.320  0.1690  0.5683 -0.9104
 4260TIP3    H112744   6.398   3.346   0.289  0.2152  0.7776 -0.6013
 4260TIP3    H212745   6.457   3.209   0.263  1.3867  1.6272 -2.6132
 4261TIP3   OH212746   0.307   0.608   1.498  0.2604  0.2290 -0.4595
 4261TIP3    H112747   0.338   0.585   1.410  1.4687 -0.1244  0.0335
 4261TIP3    H212748   0.290   0.702   1.493 -0.9769 -0.0195 -1.4284
 4262TIP3   OH212749   1.800   6.007   2.583 -0.2799 -0.1755 -0.2740
 4262TIP3    H112750   1.804   5.930   2.640  0.9647 -0.6369 -0.9216
 4262TIP3    H212751   1.771   6.078   2.639 -1.8465 -1.1919  0.2553
 4263TIP3   OH212752   5.665   4.074   2.035 -0.3352 -0.1225 -0.2691
 4263TIP3    H112753   5.583   4.083   1.987 -1.7149 -0.9528  1.7721
 4263TIP3    H212754   5.708   4.159   2.026 -1.0220  0.0888 -1.9995
 4264TIP3   OH212755   2.508   4.295   0.709 -0.2164 -0.1883 -0.3816
 4264TIP3    H112756   2.437   4.265   0.765  0.6420  0.2439  0.9966
 4264TIP3    H212757   2.467   4.354   0.645 -1.3821 -1.5525 -0.9426
 4265TIP3   OH212758   1.601   1.692   4.808  0.4986  0.2500  0.1265
 4265TIP3    H112759   1.582   1.616   4.753  0.6088  0.3861 -0.1040
 4265TIP3    H212760   1.543   1.683   4.884  0.1612  0.1917 -0.1359
 4266TIP3   OH212761   3.879   6.727   1.652 -1.0335 -0.2178 -0.4154
 4266TIP3    H112762   3.926   6.675   1.718  1.1334  0.5619 -1.2639
 4266TIP3    H212763   3.842   6.800   1.701 -0.6903 -0.4220  0.1563
 4267TIP3   OH212764   0.189   2.044   3.180  0.0577  0.5295 -0.4393
 4267TIP3    H112765   0.213   2.027   3.271 -1.3518 -0.7902 -0.2708
 4267TIP3    H212766   0.267   2.085   3.142  1.2613 -0.3907  0.9301
 4268TIP3   OH212767   1.535   3.378   2.876  0.2282 -0.1800  0.7766
 4268TIP3    H112768   1.620   3.367   2.918  0.4420  1.4767  0.8519
 4268TIP3    H212769   1.523   3.473   2.870 -1.0406 -0.3720 -0.3939
 4269TIP3   OH212770   2.717   4.858   4.017 -0.1545  0.5385  0.3917
 4269TIP3    H112771   2.708   4.831   3.925  1.2256  0.4062  0.2764
 4269TIP3    H212772   2.673   4.943   4.021 -2.5907 -0.6268  0.2488
 4270TIP3   OH212773   6.276   3.456   0.204  0.0302  0.3957  0.1949
 4270TIP3    H112774   6.202   3.501   0.163  0.2233  0.4854 -0.0565
 4270TIP3    H212775   6.345   3.523   0.208  0.1403  0.2760  0.3159
 4271TIP3   OH212776   0.861   3.634   4.069  0.4579 -0.6340 -0.5306
 4271TIP3    H112777   0.864   3.684   3.987 -1.8585 -3.0662 -2.2796
 4271TIP3    H212778   0.953   3.613   4.087  1.1356  0.9380 -1.8383
 4272TIP3   OH212779   0.537   5.916   1.901 -0.0787  0.1039 -0.5969
 4272TIP3    H112780   0.515   5.998   1.857  0.6269  0.2382 -0.7105
 4272TIP3    H212781   0.633   5.914   1.901 -0.0851 -0.3696  0.0549
 4273TIP3   OH212782   0.998   2.092   4.051  0.1574  0.4839  0.2313
 4273TIP3    H112783   1.079   2.138   4.026  1.4555 -1.0099  1.4326
 4273TIP3    H212784   0.977   2.038   3.975  0.5577  0.5501  0.0695
 4274TIP3   OH212785   3.230   0.412   2.705 -0.1391 -0.5490  0.0435
 4274TIP3    H112786   3.264   0.328   2.735 -1.3504 -0.2575  2.4745
 4274TIP3    H212787   3.285   0.477   2.747 -0.1844 -0.1035 -0.5667
 4275TIP3   OH212788   1.834   5.632   3.004 -0.4793  0.6712 -0.0283
 4275TIP3    H112789   1.823   5.716   2.959 -2.7152  0.6362  0.3395
 4275TIP3    H212790   1.906   5.589   2.958 -0.6871  1.9049 -1.5781
 4276TIP3   OH212791   7.114   1.507   0.006  0.3478  0.0381 -0.7036
 4276TIP3    H112792   7.056   1.483   0.078  1.5674  1.7018  0.9148
 4276TIP3    H212793   7.054   1.526  -0.067 -0.8845 -2.2523 -0.4002
 4277TIP3   OH212794   1.794   2.245   0.209  0.0742  0.5209  0.2695
 4277TIP3    H112795   1.794   2.151   0.189  1.2656  0.9789 -2.2516
 4277TIP3    H212796   1.815   2.250   0.302  1.6167 -1.6772  0.1114
 4278TIP3   OH212797   4.171   2.784   5.683 -0.8944  0.4143  0.1581
 4278TIP3    H112798   4.080   2.809   5.696 -1.0101 -0.1511  0.4949
 4278TIP3    H212799   4.189   2.723   5.755 -0.9181 -1.2128 -1.1429
 4279TIP3   OH212800   0.527   6.245   0.242  0.2853 -0.4912 -0.1499
 4279TIP3    H112801   0.591   6.310   0.271 -0.2624 -0.4725  1.0647
 4279TIP3    H212802   0.456   6.297   0.204 -0.9710 -0.1839  2.3901
 4280TIP3   OH212803   3.634   6.092   1.530 -0.3948  0.0427  0.4282
 4280TIP3    H112804   3.594   6.017   1.574  0.8353 -0.8320  0.1099
 4280TIP3    H212805   3.677   6.140   1.600 -0.9382  0.3113  0.5891
 4281TIP3   OH212806   3.777   5.899   0.850  0.3683 -0.4734 -0.0355
 4281TIP3    H112807   3.843   5.874   0.916  0.7586 -0.5174 -0.4391
 4281TIP3    H212808   3.786   5.833   0.782  0.0056 -0.3903 -0.1634
 4282TIP3   OH212809   6.116   3.492   0.926  0.3880 -0.9277 -0.3165
 4282TIP3    H112810   6.177   3.550   0.971 -0.9642  0.2511  0.0605
 4282TIP3    H212811   6.030   3.512   0.965 -0.4260 -1.7012 -1.6360
 4283TIP3   OH212812   3.140   1.798   2.038 -0.3152  1.0291 -0.3972
 4283TIP3    H112813   3.066   1.776   2.095 -0.4520 -0.9342 -1.2643
 4283TIP3    H212814   3.102   1.852   1.969 -0.9452  0.0731 -0.8075
 4284TIP3   OH212815   4.952   6.553   5.836 -0.0374 -0.5429 -0.2365
 4284TIP3    H112816   4.923   6.628   5.785  1.7262  0.3795  0.0450
 4284TIP3    H212817   4.993   6.495   5.772 -0.6725 -0.9043 -0.3268
 4285TIP3   OH212818   3.859   2.458   0.572  0.6507 -0.0561  0.0234
 4285TIP3    H112819   3.831   2.391   0.634  0.3181 -0.2950 -0.3773
 4285TIP3    H212820   3.921   2.512   0.621 -1.3842  1.2094  1.3361
 4286TIP3   OH212821   4.229   4.616   1.736  0.0353 -0.0444  0.6201
 4286TIP3    H112822   4.182   4.611   1.819 -0.0113  0.2140  0.6083
 4286TIP3    H212823   4.180   4.679   1.684  0.8412  0.8565  0.9051
 4287TIP3   OH212824   2.682   6.767   3.001 -0.5149 -0.2623 -0.3130
 4287TIP3    H112825   2.678   6.786   2.907 -0.5026 -0.7168 -0.4083
 4287TIP3    H212826   2.728   6.684   3.006 -1.5098 -0.8140  0.0099
 4288TIP3   OH212827   5.591   4.214   2.768 -0.2563 -0.2958  0.3931
 4288TIP3    H112828   5.554   4.140   2.816 -1.1843  0.6083  1.0958
 4288TIP3    H212829   5.658   4.249   2.826 -0.4858  0.0083  0.4739
 4289TIP3   OH212830   1.710   4.093   5.325  0.0286 -0.7076  0.0119
 4289TIP3    H112831   1.667   4.033   5.264  3.4202 -2.1451 -1.2014
 4289TIP3    H212832   1.732   4.169   5.271  0.8839 -0.9398  0.0112
 4290TIP3   OH212833   0.369   4.276   5.587  0.0409  0.0265 -0.0757
 4290TIP3    H112834   0.369   4.252   5.494  0.4761 -1.6039  0.3227
 4290TIP3    H212835   0.398   4.197   5.633 -0.4001  0.7248  1.4776
 4291TIP3   OH212836   1.706   2.826   4.273 -0.4160 -0.0736 -0.4979
 4291TIP3    H112837   1.759   2.810   4.351 -2.1435  0.1667  0.7982
 4291TIP3    H212838   1.624   2.779   4.290 -0.7360 -0.2504 -2.3159
 4292TIP3   OH212839   7.031   6.545   2.014  0.4140 -0.1060 -0.6104
 4292TIP3    H112840   7.085   6.508   1.944  0.3404 -0.6117 -0.4050
 4292TIP3    H212841   6.967   6.600   1.969 -0.9568 -2.0394 -1.1310
 4293TIP3   OH212842   3.107   4.715   0.857  0.8115  0.5950 -0.2909
 4293TIP3    H112843   3.145   4.801   0.838  1.5839  0.5819  1.1105
 4293TIP3    H212844   3.136   4.695   0.946  0.5485 -1.0709 -0.5533
 4294TIP3   OH212845   4.135   5.401   4.885  0.2495 -0.7390  0.2374
 4294TIP3    H112846   4.077   5.338   4.926  0.2351 -1.4431 -0.8451
 4294TIP3    H212847   4.210   5.349   4.855  0.3103 -0.2350 -0.5226
 4295TIP3   OH212848   4.677   2.170   5.186  0.2847  0.4437  0.0938
 4295TIP3    H112849   4.620   2.112   5.135 -0.6782  0.3993  1.1631
 4295TIP3    H212850   4.694   2.122   5.267  3.2608 -0.2517 -0.8182
 4296TIP3   OH212851   0.752   0.821   0.191 -0.1242  0.2580 -0.3757
 4296TIP3    H112852   0.808   0.748   0.219 -1.1881 -0.9947 -1.3856
 4296TIP3    H212853   0.811   0.897   0.189  1.0127 -0.5481  0.7155
 4297TIP3   OH212854   0.527   1.656   5.286  0.2168 -0.4790 -0.0985
 4297TIP3    H112855   0.572   1.710   5.221  2.1233  0.0360  1.5550
 4297TIP3    H212856   0.580   1.664   5.365 -1.8479 -1.3313  1.4584
 4298TIP3   OH212857   1.620   4.104   0.828  0.7427  0.4569 -0.4124
 4298TIP3    H112858   1.545   4.108   0.769 -0.5287 -1.2930  0.9866
 4298TIP3    H212859   1.690   4.068   0.775 -0.2348 -0.6160 -1.0146
 4299TIP3   OH212860   1.955   6.207   3.842 -0.1559  0.1262 -0.1680
 4299TIP3    H112861   1.949   6.169   3.930 -2.2454  0.6221 -0.0528
 4299TIP3    H212862   2.003   6.289   3.855  0.8256 -0.4834  0.2352
 4300TIP3   OH212863   2.183   1.185   5.142  0.1585  0.7176 -0.2457
 4300TIP3    H112864   2.197   1.105   5.091  0.1265 -0.0170  0.8600
 4300TIP3    H212865   2.100   1.220   5.110  0.0390  0.1534 -0.5660
 4301TIP3   OH212866   7.011   6.713   3.480  0.4754 -0.1515 -0.5984
 4301TIP3    H112867   7.100   6.745   3.465  0.4164  0.1593 -0.3193
 4301TIP3    H212868   6.956   6.791   3.469  0.1210 -0.5755 -1.9078
 4302TIP3   OH212869   5.589   2.077   0.402 -0.0103  0.6325  0.2002
 4302TIP3    H112870   5.589   1.982   0.411  1.9578  0.5281 -0.4369
 4302TIP3    H212871   5.497   2.100   0.386 -0.3962 -1.2323 -0.4590
 4303TIP3   OH212872   4.682   2.191   1.700  0.2310  0.1943 -0.5759
 4303TIP3    H112873   4.593   2.164   1.677  0.6128 -0.4101 -1.4319
 4303TIP3    H212874   4.708   2.131   1.769  0.1403  0.0540 -0.6613
 4304TIP3   OH212875   3.144   3.301   1.925  0.0900  0.4127 -0.2415
 4304TIP3    H112876   3.128   3.289   1.831 -1.3454  2.0432 -0.2652
 4304TIP3    H212877   3.229   3.346   1.929 -0.8248  2.3202 -0.9585
 4305TIP3   OH212878   6.232   4.845   4.265  0.2845 -0.3250  0.5896
 4305TIP3    H112879   6.156   4.788   4.252 -0.0001 -0.0476  1.0245
 4305TIP3    H212880   6.303   4.801   4.218 -0.3837 -0.0472 -0.7228
 4306TIP3   OH212881   3.826   4.228   0.483  0.2541 -0.5201  0.1616
 4306TIP3    H112882   3.778   4.227   0.566  0.5305  1.5564  0.4102
 4306TIP3    H212883   3.761   4.255   0.418  0.7576  1.1961  0.3145
 4307TIP3   OH212884   4.109   4.757   3.107 -0.4444  0.1825  0.3590
 4307TIP3    H112885   4.099   4.684   3.167 -0.5298  0.1128  0.2610
 4307TIP3    H212886   4.154   4.720   3.031 -0.6314  0.1964  0.2426
 4308TIP3   OH212887   1.786   3.387   5.301 -0.2941  0.2999 -0.1884
 4308TIP3    H112888   1.865   3.426   5.336 -0.7139  1.0839 -0.0955
 4308TIP3    H212889   1.816   3.329   5.231  0.4341 -0.1722  0.4976
 4309TIP3   OH212890   2.246   2.418   2.084  0.2224 -0.4038  0.2652
 4309TIP3    H112891   2.224   2.353   2.018  0.9882  1.2047 -1.6851
 4309TIP3    H212892   2.330   2.389   2.119 -0.2125 -1.2941  0.5917
 4310TIP3   OH212893   1.674   2.827   2.644 -0.2592  0.0531 -0.2064
 4310TIP3    H112894   1.644   2.879   2.719  1.0592  0.2827  0.1915
 4310TIP3    H212895   1.601   2.769   2.625 -0.7818  0.2705  1.0058
 4311TIP3   OH212896   4.865   6.289   2.070 -0.1283  0.0505  0.3021
 4311TIP3    H112897   4.921   6.252   2.139  0.2877  0.3852  0.1496
 4311TIP3    H212898   4.911   6.369   2.043 -1.0805  0.7540  0.7186
 4312TIP3   OH212899   2.754   1.804   0.247 -0.0076 -0.2676  0.3967
 4312TIP3    H112900   2.691   1.875   0.232  1.3001  1.0521  0.8064
 4312TIP3    H212901   2.767   1.804   0.342 -0.5151 -1.5645  0.4828
 4313TIP3   OH212902   0.844   6.408   2.482  0.7962 -0.0993 -0.7430
 4313TIP3    H112903   0.859   6.502   2.471  2.1863 -0.1689  0.3051
 4313TIP3    H212904   0.760   6.392   2.440  0.2379  1.7219 -0.3798
 4314TIP3   OH212905   0.771   1.803   2.260  0.6019 -0.1207  0.0220
 4314TIP3    H112906   0.819   1.880   2.291 -0.2541  0.8185 -0.9186
 4314TIP3    H212907   0.728   1.768   2.338  0.3342  0.8416  0.3086
 4315TIP3   OH212908   1.976   2.028   3.671 -0.1717 -0.5796  0.4045
 4315TIP3    H112909   1.950   2.097   3.732  1.0753  0.2502  0.0411
 4315TIP3    H212910   1.945   2.059   3.586  1.2092  0.0228  0.0958
 4316TIP3   OH212911   3.370   6.002   1.464  0.1038 -0.3303 -0.3701
 4316TIP3    H112912   3.397   5.923   1.419 -0.6390 -0.2817 -0.9186
 4316TIP3    H212913   3.428   6.071   1.430  0.1377 -0.4638 -0.5809
 4317TIP3   OH212914   5.361   2.968   3.849  0.6053  0.7237 -0.1298
 4317TIP3    H112915   5.346   2.912   3.925  1.2956 -0.9124 -1.1417
 4317TIP3    H212916   5.278   3.013   3.836 -0.1335 -0.4168  0.4493
 4318TIP3   OH212917   1.643   5.975   3.626 -0.0775  0.0475 -0.2425
 4318TIP3    H112918   1.604   5.980   3.539 -0.2728  2.3832 -0.0844
 4318TIP3    H212919   1.735   6.000   3.613  0.6440 -2.2720 -0.1251
 4319TIP3   OH212920   5.952   5.130   3.004  0.3342  0.1471 -0.0431
 4319TIP3    H112921   5.978   5.038   2.995 -0.0577  0.0608 -0.3386
 4319TIP3    H212922   6.015   5.178   2.950 -0.0514 -0.0534 -0.6969
 4320TIP3   OH212923   6.949   6.749   2.604 -0.1782  0.0400 -0.3491
 4320TIP3    H112924   7.007   6.673   2.614  0.4373  0.3906 -1.1441
 4320TIP3    H212925   6.904   6.755   2.688 -0.7234 -1.5992 -0.4826
 4321TIP3   OH212926   2.446   4.919   2.505  0.6212  0.0082  0.2262
 4321TIP3    H112927   2.448   4.998   2.451 -0.1255  0.2550  0.5526
 4321TIP3    H212928   2.382   4.938   2.573 -0.5239 -1.3480 -0.4275
 4322TIP3   OH212929   1.647   5.899   3.943 -0.1831 -1.0382 -0.2310
 4322TIP3    H112930   1.592   5.943   3.878  0.3628 -2.9660 -2.0994
 4322TIP3    H212931   1.586   5.859   4.003 -0.7331  2.6513  1.9991
 4323TIP3   OH212932   5.097   5.681   3.583  0.2577 -0.3630  0.2690
 4323TIP3    H112933   5.086   5.775   3.573  0.1823 -0.2277  1.5425
 4323TIP3    H212934   5.047   5.643   3.510 -1.9225  0.4921  1.2533
 4324TIP3   OH212935   4.508   0.577   0.095 -0.3039 -0.2856  0.5119
 4324TIP3    H112936   4.461   0.633   0.157 -1.4423  0.3756 -0.8841
 4324TIP3    H212937   4.460   0.494   0.096 -1.6391  0.4052 -0.9504
 4325TIP3   OH212938   3.509   1.024   0.452  0.2614 -0.4075 -0.1320
 4325TIP3    H112939   3.563   1.048   0.527 -1.2496  0.4336  0.7548
 4325TIP3    H212940   3.491   0.930   0.464 -0.0045 -0.2705  0.6139
 4326TIP3   OH212941   7.092   2.540   4.615 -1.0596  0.1507  0.4170
 4326TIP3    H112942   7.006   2.581   4.625 -0.9825  0.6342 -0.7681
 4326TIP3    H212943   7.110   2.544   4.521  0.9275  1.4944  0.7864
 4327TIP3   OH212944   6.727   0.341   0.389  0.3637  0.2502  0.1464
 4327TIP3    H112945   6.684   0.257   0.404  0.8748 -0.4098 -1.8260
 4327TIP3    H212946   6.690   0.399   0.456 -1.0865 -1.1410  0.6151
 4328TIP3   OH212947   4.195   4.933   1.387 -0.2783  0.5209  0.3089
 4328TIP3    H112948   4.109   4.911   1.424 -0.3750  1.7608  0.8823
 4328TIP3    H212949   4.256   4.917   1.459 -0.1424  0.4216  0.1690
 4329TIP3   OH212950   5.992   0.174   2.677  0.0484 -0.2108  0.4657
 4329TIP3    H112951   5.980   0.262   2.713  1.5203 -0.3075  1.3126
 4329TIP3    H212952   5.943   0.173   2.596 -0.0958  1.3596  0.5138
 4330TIP3   OH212953   6.028   4.179   0.692  0.2309  0.3209 -0.0498
 4330TIP3    H112954   5.944   4.224   0.705 -0.5333 -0.3611 -2.1480
 4330TIP3    H212955   6.016   4.093   0.734 -0.7055 -0.3323 -1.5730
 4331TIP3   OH212956   3.604   3.383   0.452  0.0891  0.5013  0.3050
 4331TIP3    H112957   3.556   3.400   0.533 -0.0124  1.7273  0.0007
 4331TIP3    H212958   3.696   3.397   0.475  0.1534 -0.1565  0.4585
 4332TIP3   OH212959   3.348   6.553   5.093 -0.2248  0.6314  0.0735
 4332TIP3    H112960   3.311   6.499   5.163 -0.5790  0.1816 -0.4522
 4332TIP3    H212961   3.437   6.573   5.122  0.3087 -1.1789 -0.2317
 4333TIP3   OH212962   4.827   0.768   0.390  0.0475 -0.2891 -0.1758
 4333TIP3    H112963   4.739   0.805   0.401 -0.4041 -1.5402  0.8227
 4333TIP3    H212964   4.879   0.838   0.351 -1.0607  0.9216  0.4505
 4334TIP3   OH212965   6.438   0.720   2.307 -0.0101 -0.6641 -0.1017
 4334TIP3    H112966   6.389   0.668   2.371 -2.6223  2.0628  0.3003
 4334TIP3    H212967   6.484   0.785   2.359 -0.7476  0.4703 -0.8331
 4335TIP3   OH212968   2.826   5.581   2.295 -0.2945 -0.0576 -0.0720
 4335TIP3    H112969   2.897   5.641   2.320  0.1791 -1.1164  1.2569
 4335TIP3    H212970   2.746   5.630   2.312  0.0909  0.8979 -0.8963
 4336TIP3   OH212971   5.103   3.417   2.825  0.4795 -0.5812 -0.7455
 4336TIP3    H112972   5.097   3.363   2.904  1.7956 -0.9277 -0.8537
 4336TIP3    H212973   5.131   3.503   2.856 -0.9831 -0.1198 -0.6421
 4337TIP3   OH212974   0.069   3.264   4.155 -0.1591  0.2202  0.1367
 4337TIP3    H112975   0.059   3.179   4.197 -0.3101 -0.6355 -1.5241
 4337TIP3    H212976   0.157   3.293   4.178 -0.7902  0.5461  2.2918
 4338TIP3   OH212977   1.987   4.406   2.784 -0.1701 -0.1091  0.1273
 4338TIP3    H112978   2.021   4.382   2.870  0.1942 -0.2926 -0.0647
 4338TIP3    H212979   1.916   4.468   2.802 -0.5855 -0.7036  0.5956
 4339TIP3   OH212980   0.501   1.761   4.678 -0.0623  0.2567 -0.5768
 4339TIP3    H112981   0.456   1.715   4.748 -1.9377  0.8310 -1.3453
 4339TIP3    H212982   0.592   1.765   4.706 -0.1307 -2.4803  0.2219
 4340TIP3   OH212983   4.982   5.939   5.440  0.3531  0.1529 -0.3997
 4340TIP3    H112984   4.927   6.011   5.411  1.4459  0.9995 -0.4497
 4340TIP3    H212985   4.980   5.944   5.536 -1.0451 -0.9322 -0.3322
 4341TIP3   OH212986   5.020   5.560   5.500 -0.5744 -0.1926  0.4600
 4341TIP3    H112987   4.976   5.475   5.491 -1.3808 -0.0624  2.7275
 4341TIP3    H212988   5.049   5.581   5.411  1.1744 -3.6512  0.0504
 4342TIP3   OH212989   0.997   4.639   5.778  0.3584 -0.3790  0.2192
 4342TIP3    H112990   0.906   4.617   5.761  0.1865  0.1739  0.3810
 4342TIP3    H212991   1.026   4.685   5.699  0.4995 -0.5650  0.1627
 4343TIP3   OH212992   0.540   4.644   2.314 -0.6977 -0.4573 -0.4669
 4343TIP3    H112993   0.460   4.626   2.263  0.0882  1.0313 -2.3405
 4343TIP3    H212994   0.551   4.739   2.308  0.4063 -0.4630  1.0664
 4344TIP3   OH212995   0.384   4.392   2.358  0.4100 -0.2841 -0.0418
 4344TIP3    H112996   0.434   4.360   2.433 -0.0922  0.5528  0.6751
 4344TIP3    H212997   0.308   4.435   2.397 -0.0418 -0.1345 -1.0506
 4345TIP3   OH212998   6.836   5.355   5.449  0.1405  0.0786 -0.4401
 4345TIP3    H112999   6.864   5.432   5.500  0.1119  0.6473 -1.2610
 4345TIP3    H213000   6.903   5.289   5.466  1.7955  1.2505 -1.9866
 4346TIP3   OH213001   4.473   0.916   5.388  0.3724  0.2063  0.1993
 4346TIP3    H113002   4.469   0.967   5.469  2.0748  0.9322 -0.1278
 4346TIP3    H213003   4.493   0.980   5.320 -0.9429 -0.4079 -0.8062
 4347TIP3   OH213004   0.409   1.367   0.922  0.2673  0.1700  0.2723
 4347TIP3    H113005   0.385   1.425   0.994  0.6268  2.4464 -1.3670
 4347TIP3    H213006   0.502   1.349   0.937  0.6310  1.5525 -0.1994
 4348TIP3   OH213007   6.076   4.047   1.364 -0.6234 -0.7423 -0.0192
 4348TIP3    H113008   6.139   4.104   1.320 -1.1978 -0.4678 -0.4955
 4348TIP3    H213009   6.065   4.085   1.451 -0.4689 -0.5314 -0.0915
 4349TIP3   OH213010   5.320   2.670   0.568  0.2018 -0.1153 -0.0963
 4349TIP3    H113011   5.285   2.586   0.536  0.9894 -0.7297  0.6151
 4349TIP3    H213012   5.286   2.677   0.657 -0.7738  0.8755 -0.5277
 4350TIP3   OH213013   5.925   0.222   0.425 -0.3700 -0.1471 -0.2550
 4350TIP3    H113014   5.927   0.139   0.379  0.3603 -1.0307  1.2808
 4350TIP3    H213015   5.836   0.229   0.459  0.1131 -1.4092  1.4292
 4351TIP3   OH213016   2.126   0.755   2.959  0.2960  0.1782 -0.0115
 4351TIP3    H113017   2.108   0.680   3.015  1.6771  0.3390  0.6966
 4351TIP3    H213018   2.060   0.751   2.890 -1.2068 -0.2617  1.3948
 4352TIP3   OH213019   2.737   5.602   5.724  0.3583  0.1290  0.1513
 4352TIP3    H113020   2.671   5.534   5.713  1.2207 -0.6966 -0.0231
 4352TIP3    H213021   2.812   5.557   5.762  0.0788  1.4675  2.4691
 4353TIP3   OH213022   5.284   4.986   1.088 -0.1551 -0.1365 -0.4499
 4353TIP3    H113023   5.379   4.996   1.088 -0.1275 -0.3551  0.4002
 4353TIP3    H213024   5.266   4.925   1.015  0.4249 -0.7001 -0.1252
 4354TIP3   OH213025   1.089   5.680   2.218 -0.5745  0.6776 -0.1634
 4354TIP3    H113026   1.091   5.739   2.293  0.5851  0.4883 -0.0274
 4354TIP3    H213027   1.132   5.729   2.148 -0.0966  0.2097 -0.2051
 4355TIP3   OH213028   5.916   4.676   2.268  0.4361 -0.3846 -0.2724
 4355TIP3    H113029   5.982   4.687   2.336  0.7769  0.4942 -0.7379
 4355TIP3    H213030   5.950   4.725   2.193 -0.5766 -0.2096 -0.6306
 4356TIP3   OH213031   1.382   5.884   0.807 -0.0113 -0.6596  0.2931
 4356TIP3    H113032   1.470   5.868   0.774 -0.1633 -0.0142 -0.4651
 4356TIP3    H213033   1.377   5.980   0.815 -0.9474 -0.6210 -0.5803
 4357TIP3   OH213034   3.326   3.500   1.384 -0.0293 -0.1224  0.6112
 4357TIP3    H113035   3.257   3.482   1.448 -0.8466  0.6310 -0.0316
 4357TIP3    H213036   3.293   3.574   1.334  1.4713  0.5499  0.5866
 4358TIP3   OH213037   5.294   0.068   3.157 -0.5520  0.2147  0.5152
 4358TIP3    H113038   5.215   0.048   3.107 -0.7419 -2.4724  1.7525
 4358TIP3    H213039   5.274   0.043   3.247  1.4046  0.3064  1.0336
 4359TIP3   OH213040   0.825   0.584   4.932 -0.1045 -0.2370 -0.1440
 4359TIP3    H113041   0.919   0.575   4.918  0.4389  1.6536  1.6644
 4359TIP3    H213042   0.791   0.616   4.849  1.1539  0.6158 -0.3627
 4360TIP3   OH213043   1.726   3.090   4.359  0.1918  0.4851  0.1800
 4360TIP3    H113044   1.686   3.018   4.311  0.0752  0.9160 -0.3837
 4360TIP3    H213045   1.663   3.162   4.352 -0.5577  0.1161  2.3044
 4361TIP3   OH213046   5.260   1.135   2.596  0.1331 -0.1248 -0.0683
 4361TIP3    H113047   5.315   1.161   2.669 -0.3294  0.5987  0.0255
 4361TIP3    H213048   5.188   1.086   2.635  0.7847 -1.2555 -0.2084
 4362TIP3   OH213049   4.723   0.280   0.628  0.5710 -0.5130 -0.0475
 4362TIP3    H113050   4.733   0.372   0.606 -0.2658 -0.7606 -1.6573
 4362TIP3    H213051   4.796   0.237   0.585  0.6187 -0.6736  0.1925
 4363TIP3   OH213052   6.119   6.601   3.608  0.0259  0.1014  0.1086
 4363TIP3    H113053   6.136   6.528   3.549  2.7306  2.9647 -3.0365
 4363TIP3    H213054   6.038   6.640   3.575  0.7963  0.8849 -0.9103
 4364TIP3   OH213055   0.890   2.861   0.042  0.8327  0.7438  0.0653
 4364TIP3    H113056   0.920   2.774   0.067  0.9926  1.1758  1.4853
 4364TIP3    H213057   0.825   2.846  -0.026  0.2515 -0.5406  0.8707
 4365TIP3   OH213058   5.417   0.533   5.296  0.0621  0.3034 -0.7496
 4365TIP3    H113059   5.430   0.584   5.376 -2.5735  0.1311 -0.1103
 4365TIP3    H213060   5.465   0.451   5.312  0.1386  0.5500  0.3837
 4366TIP3   OH213061   1.778   0.886   1.669 -0.1838  0.0679  0.4722
 4366TIP3    H113062   1.809   0.822   1.605  0.4365 -2.2125  2.8645
 4366TIP3    H213063   1.824   0.967   1.648  1.5434 -1.1692 -0.7023
 4367TIP3   OH213064   3.865   1.967   3.347  0.2959  0.2287 -0.2974
 4367TIP3    H113065   3.941   1.911   3.332  0.4912  0.6020 -0.7278
 4367TIP3    H213066   3.842   1.952   3.439  0.7071 -0.1093 -0.2457
 4368TIP3   OH213067   0.021   4.333   2.185  0.4369 -0.1026  0.0356
 4368TIP3    H113068   0.054   4.422   2.171  0.4922 -0.1377 -0.0572
 4368TIP3    H213069   0.095   4.286   2.222  1.1560 -0.7195 -2.0578
 4369TIP3   OH213070   5.194   3.754   4.699 -0.1009 -0.0821 -0.0882
 4369TIP3    H113071   5.162   3.843   4.679  1.0041  0.2234 -0.5871
 4369TIP3    H213072   5.121   3.697   4.677 -0.9114  0.7132  0.4432
 4370TIP3   OH213073   5.423   5.272   3.969  0.0715 -0.2403  0.0096
 4370TIP3    H113074   5.372   5.342   4.009 -0.8783 -1.4235  0.9317
 4370TIP3    H213075   5.361   5.225   3.913  1.0780  0.5870 -1.9041
 4371TIP3   OH213076   7.222   5.710   1.008 -0.3912 -0.0695  0.2246
 4371TIP3    H113077   7.195   5.742   0.921 -1.5444 -1.1477  0.1567
 4371TIP3    H213078   7.163   5.756   1.069 -1.5429 -1.4183  0.1841
 4372TIP3   OH213079   6.390   5.449   5.153  0.1297 -0.3757  0.2792
 4372TIP3    H113080   6.345   5.369   5.124  0.9731 -0.2323 -1.5279
 4372TIP3    H213081   6.468   5.417   5.199 -0.7987 -0.5905  1.7755
 4373TIP3   OH213082   6.559   6.233   4.934 -0.3139 -0.1031 -0.2164
 4373TIP3    H113083   6.596   6.232   4.846  0.6108  0.7622  0.1395
 4373TIP3    H213084   6.621   6.285   4.986 -0.7612 -0.7141  0.9826
 4374TIP3   OH213085   5.527   6.497   3.851 -0.3411 -0.1679  0.2627
 4374TIP3    H113086   5.458   6.499   3.784 -0.0111  0.7201 -0.0710
 4374TIP3    H213087   5.599   6.450   3.809  0.1632  1.0904 -0.3287
 4375TIP3   OH213088   3.365   2.460   4.728 -0.1338  0.3212 -0.1541
 4375TIP3    H113089   3.288   2.421   4.685 -1.2628  0.6031  1.4931
 4375TIP3    H213090   3.403   2.388   4.779 -0.2149  0.5395  0.2192
 4376TIP3   OH213091   0.971   2.669   4.029  0.8523 -0.0551 -0.4898
 4376TIP3    H113092   0.982   2.579   4.058  2.2832  0.5954  1.1770
 4376TIP3    H213093   1.031   2.719   4.084 -1.1573  2.1541 -0.1548
 4377TIP3   OH213094   6.668   1.531   3.954 -0.6831  0.7358 -0.2203
 4377TIP3    H113095   6.719   1.581   4.017  0.2955 -0.2593 -0.1827
 4377TIP3    H213096   6.725   1.525   3.877  0.0725 -1.8328  0.4164
 4378TIP3   OH213097   6.815   5.033   2.363  0.4955  0.2763  0.0848
 4378TIP3    H113098   6.811   5.127   2.383 -1.9396  0.3013 -0.1975
 4378TIP3    H213099   6.813   4.990   2.448  1.8388  0.4631  0.2234
 4379TIP3   OH213100   4.521   2.676   3.483  0.3826  0.1771  0.3238
 4379TIP3    H113101   4.576   2.677   3.405 -0.4911  1.6624 -0.3120
 4379TIP3    H213102   4.436   2.645   3.452  0.0321  0.7715  0.6603
 4380TIP3   OH213103   1.524   2.424   3.636  0.1411 -0.0968  0.0670
 4380TIP3    H113104   1.538   2.402   3.728  1.9199 -0.2379 -0.2083
 4380TIP3    H213105   1.510   2.519   3.636 -2.0985 -0.3665  0.6719
 4381TIP3   OH213106   6.243   4.982   0.860 -1.0668  0.1105 -0.2664
 4381TIP3    H113107   6.220   5.061   0.909  0.0252  0.0150  0.4383
 4381TIP3    H213108   6.216   4.910   0.917 -2.0264 -0.0447 -0.8902
 4382TIP3   OH213109  -0.033   2.820   4.802  0.0492 -0.1144 -0.4234
 4382TIP3    H113110   0.025   2.761   4.754  0.7171 -0.1721  0.4267
 4382TIP3    H213111   0.022   2.857   4.871 -0.3989  1.4122 -0.8544
 4383TIP3   OH213112   3.269   3.179   2.223  0.4151  0.1059  0.3565
 4383TIP3    H113113   3.352   3.143   2.191 -0.6947 -1.0604 -1.3066
 4383TIP3    H213114   3.292   3.219   2.308  2.0195 -3.2353  1.6596
 4384TIP3   OH213115   0.988   0.128   4.217  0.5440 -0.0874  0.0200
 4384TIP3    H113116   1.031   0.086   4.142 -0.3484 -1.6622  0.3557
 4384TIP3    H213117   0.953   0.210   4.182 -0.0367 -0.8913 -1.3514
 4385TIP3   OH213118   3.562   2.355   0.229  0.2355  0.0984  0.3759
 4385TIP3    H113119   3.536   2.359   0.322 -0.6623 -1.5073  0.2344
 4385TIP3    H213120   3.656   2.371   0.230  0.4283 -0.8616  1.6944
 4386TIP3   OH213121   5.390   6.263   0.761  0.4154 -0.3725  0.2457
 4386TIP3    H113122   5.368   6.291   0.672  0.2154 -1.2476  0.0090
 4386TIP3    H213123   5.485   6.256   0.761  0.3417 -1.7434 -0.3461
 4387TIP3   OH213124   2.651   2.648   2.555  0.0872 -0.3870  0.3865
 4387TIP3    H113125   2.644   2.738   2.585 -1.7205 -0.6629  0.9191
 4387TIP3    H213126   2.615   2.649   2.466  1.0947 -0.4083 -0.0384
 4388TIP3   OH213127   4.259   6.087   2.750 -0.5614 -0.1336  0.2680
 4388TIP3    H113128   4.195   6.146   2.789 -1.1348 -0.4284 -0.2293
 4388TIP3    H213129   4.320   6.067   2.822 -1.8521 -1.0278  1.1466
 4389TIP3   OH213130   6.019   4.418   0.992 -0.0437  0.0040 -0.2371
 4389TIP3    H113131   6.050   4.408   0.902  0.1026 -1.5454 -0.0383
 4389TIP3    H213132   6.095   4.396   1.046 -0.8102 -1.5447  0.2475
 4390TIP3   OH213133   6.643   2.364   3.274  0.2114  0.2112  0.4191
 4390TIP3    H113134   6.592   2.291   3.309  0.8229  0.5765  2.1262
 4390TIP3    H213135   6.578   2.432   3.257 -0.6537 -1.2185 -2.8940
 4391TIP3   OH213136   4.286   6.329   3.588 -0.2381  0.3115  0.0407
 4391TIP3    H113137   4.292   6.419   3.619 -0.0751  0.7312 -1.1470
 4391TIP3    H213138   4.219   6.289   3.643  0.5249  0.8054  1.3633
 4392TIP3   OH213139   1.800   3.957   1.744 -0.0130  0.2782 -0.2399
 4392TIP3    H113140   1.783   3.935   1.653 -1.9585 -0.0795  0.1711
 4392TIP3    H213141   1.816   4.052   1.743 -1.9367  0.6309 -0.7430
 4393TIP3   OH213142   5.780   2.965   2.452  0.6193 -0.3911  0.1763
 4393TIP3    H113143   5.858   3.011   2.484 -0.1871  0.0899  1.5140
 4393TIP3    H213144   5.707   3.023   2.476 -0.1955 -1.0322 -0.6806
 4394TIP3   OH213145   4.863   1.322   2.246  0.1840 -0.1500  0.1213
 4394TIP3    H113146   4.880   1.413   2.271 -1.6601  0.6829 -1.3736
 4394TIP3    H213147   4.806   1.288   2.315 -1.5911  0.8387 -0.8059
 4395TIP3   OH213148   5.852   0.620   5.540 -0.0508  0.5127  0.6271
 4395TIP3    H113149   5.827   0.695   5.486 -0.4202  0.9864  1.4311
 4395TIP3    H213150   5.942   0.601   5.515  0.8844  2.7028  2.0060
 4396TIP3   OH213151   3.251   6.319   1.260 -0.0809 -0.1357 -0.4177
 4396TIP3    H113152   3.239   6.239   1.209  0.0881  0.5914 -1.6293
 4396TIP3    H213153   3.346   6.327   1.270 -0.1357 -0.7469  0.8224
 4397TIP3   OH213154   2.888   2.184   5.083 -0.2580 -0.0828  0.6973
 4397TIP3    H113155   2.836   2.110   5.114  0.8499 -0.8179  0.8463
 4397TIP3    H213156   2.978   2.151   5.078  0.2195  1.1674  0.4935
 4398TIP3   OH213157   1.206   5.381   1.226 -0.1946  0.2247  0.1654
 4398TIP3    H113158   1.233   5.317   1.292  0.5990 -0.1505 -0.4901
 4398TIP3    H213159   1.243   5.464   1.256 -0.0741  0.1080  0.3412
 4399TIP3   OH213160   1.863   2.835   2.391 -0.4539 -0.2253 -0.3410
 4399TIP3    H113161   1.832   2.861   2.478 -1.1894 -1.4144 -0.2198
 4399TIP3    H213162   1.853   2.914   2.338 -1.4786  0.0959  0.2871
 4400TIP3   OH213163   4.248   0.132   1.123  0.3672  0.2429 -0.1839
 4400TIP3    H113164   4.300   0.194   1.174  0.3856  1.2728 -1.4098
 4400TIP3    H213165   4.309   0.096   1.059  0.3112 -0.9388  0.3969
 4401TIP3   OH213166   6.386   0.710   0.300 -0.0518 -0.6463 -0.2154
 4401TIP3    H113167   6.449   0.777   0.325 -1.0052 -0.1973  1.0977
 4401TIP3    H213168   6.399   0.639   0.363 -3.5410  1.1357  2.9512
 4402TIP3   OH213169   3.454   0.899   1.047  0.4198 -0.3362  0.0474
 4402TIP3    H113170   3.486   0.931   1.131  2.1849 -1.3537 -0.1873
 4402TIP3    H213171   3.367   0.862   1.066  1.5795 -2.3168  1.8665
 4403TIP3   OH213172   1.201   2.257   3.213 -0.5228  0.3635 -0.2236
 4403TIP3    H113173   1.283   2.223   3.176 -1.3916 -0.0857 -1.8521
 4403TIP3    H213174   1.186   2.204   3.292 -0.3816 -1.1453 -1.1546
 4404TIP3   OH213175   5.526   6.182   1.287 -0.5581 -0.1224  0.0321
 4404TIP3    H113176   5.496   6.115   1.226 -0.0213 -0.5058  0.1745
 4404TIP3    H213177   5.562   6.252   1.232 -3.8073  1.4654 -0.2631
 4405TIP3   OH213178   6.642   1.853   3.768  0.7612  0.1491 -0.2826
 4405TIP3    H113179   6.686   1.928   3.726  0.5526  0.4318  0.0009
 4405TIP3    H213180   6.626   1.792   3.696 -0.5960  1.1028 -0.8434
 4406TIP3   OH213181   0.976   5.853   1.030  0.4904  0.3822 -0.8729
 4406TIP3    H113182   1.031   5.865   0.953  0.5594  2.1462 -0.6124
 4406TIP3    H213183   0.960   5.943   1.061 -1.7379 -0.1377 -0.3874
 4407TIP3   OH213184   6.231   0.149   1.786 -0.1378 -0.1229  0.1772
 4407TIP3    H113185   6.210   0.133   1.878  0.5895  1.1156  0.5842
 4407TIP3    H213186   6.296   0.218   1.788  1.9838 -1.9338 -1.1393
 4408TIP3   OH213187   5.101   5.841   4.912  0.1575  0.0259 -0.4254
 4408TIP3    H113188   5.048   5.876   4.983  0.1213  0.7755 -0.8125
 4408TIP3    H213189   5.184   5.816   4.954  0.4210  1.1617 -0.2380
 4409TIP3   OH213190   1.799   5.567   1.236  0.0960  0.1184  0.0616
 4409TIP3    H113191   1.882   5.609   1.258 -1.3002  3.0772  0.1471
 4409TIP3    H213192   1.757   5.552   1.321 -0.1605  0.1470 -0.0605
 4410TIP3   OH213193   6.381   0.477   4.871 -0.3454  0.3043 -0.2185
 4410TIP3    H113194   6.433   0.399   4.888 -1.6200 -0.6859 -0.6179
 4410TIP3    H213195   6.291   0.444   4.863 -1.1020  1.9752  0.8146
 4411TIP3   OH213196   3.031   3.835   0.225 -0.0589  0.1908 -0.1870
 4411TIP3    H113197   3.108   3.861   0.275 -1.0572  0.1560  1.4486
 4411TIP3    H213198   3.028   3.896   0.151  1.9163 -0.2845 -0.7255
 4412TIP3   OH213199   6.046   3.654   4.294 -0.8537  0.3055 -0.2022
 4412TIP3    H113200   6.077   3.697   4.374 -2.0713 -0.9014  0.9770
 4412TIP3    H213201   5.951   3.662   4.298 -0.8987  1.1030 -2.0769
 4413TIP3   OH213202   2.966   0.407   2.836  0.5496 -0.2551  0.4251
 4413TIP3    H113203   3.049   0.405   2.789  0.2945  1.1257 -0.1273
 4413TIP3    H213204   2.901   0.385   2.770  0.3901 -0.5965  0.6881
 4414TIP3   OH213205   3.401   4.706   2.145 -0.1290  0.2472  0.2768
 4414TIP3    H113206   3.325   4.753   2.179 -0.0639  0.8831 -0.4081
 4414TIP3    H213207   3.473   4.769   2.152 -0.2839  0.7427 -1.7683
 4415TIP3   OH213208   1.622   6.441   4.919 -0.2818  0.1969  0.3558
 4415TIP3    H113209   1.635   6.384   4.995  1.7027 -0.9744 -0.7764
 4415TIP3    H213210   1.667   6.522   4.941 -0.7475  0.3191  0.8847
 4416TIP3   OH213211   6.218   6.196   5.104  0.0773  0.1479  0.1090
 4416TIP3    H113212   6.231   6.134   5.176 -0.1032 -0.1882 -0.1432
 4416TIP3    H213213   6.306   6.225   5.082  0.0996  0.6179  0.7763
 4417TIP3   OH213214   2.299   3.755   2.577  0.1961 -0.0745  0.1050
 4417TIP3    H113215   2.323   3.719   2.662 -0.8157  0.3531  0.5852
 4417TIP3    H213216   2.318   3.685   2.515 -1.7074 -1.4547  1.0069
 4418TIP3   OH213217   4.328   4.921   1.733 -0.1216  0.6683 -0.0014
 4418TIP3    H113218   4.264   4.891   1.669  2.2630 -2.2278 -1.2779
 4418TIP3    H213219   4.345   5.012   1.709 -0.8673  0.3032 -2.1538
 4419TIP3   OH213220   6.632   3.289   0.712 -0.5106 -0.2761  0.7716
 4419TIP3    H113221   6.615   3.205   0.668  0.0799 -0.7897  1.4854
 4419TIP3    H213222   6.623   3.269   0.805 -1.1621  0.6571  0.9106
 4420TIP3   OH213223   0.756   0.744   0.719  0.0451  0.0761  0.3826
 4420TIP3    H113224   0.727   0.802   0.789 -0.4841  1.8067 -1.2012
 4420TIP3    H213225   0.748   0.796   0.640 -0.3913 -2.1724 -1.1277
 4421TIP3   OH213226   2.362   6.667   0.611 -0.5543  0.1416  0.1874
 4421TIP3    H113227   2.403   6.691   0.693 -0.4896  0.6962 -0.0064
 4421TIP3    H213228   2.336   6.575   0.623 -1.2751  0.4624  1.1094
 4422TIP3   OH213229   4.091   0.050   3.702  0.0863 -0.2948  0.3808
 4422TIP3    H113230   4.104  -0.023   3.641  0.4123  1.1369 -1.3372
 4422TIP3    H213231   3.999   0.043   3.728 -0.1168 -0.8097 -0.4328
 4423TIP3   OH213232   0.738   5.356   1.997  0.1537  0.1159  0.3089
 4423TIP3    H113233   0.726   5.395   2.084  1.4115 -3.3270  2.2376
 4423TIP3    H213234   0.796   5.417   1.952 -0.4612  1.9895  1.8663
 4424TIP3   OH213235   3.122   3.338   0.975 -0.3676 -0.4465  0.0072
 4424TIP3    H113236   3.095   3.363   0.887  0.5105  0.6494  0.0228
 4424TIP3    H213237   3.213   3.311   0.965 -0.8807 -2.3968  0.2437
 4425TIP3   OH213238   4.253   3.733   0.381 -0.5349  0.1495  0.2238
 4425TIP3    H113239   4.309   3.805   0.350 -0.3503 -0.1942 -0.2596
 4425TIP3    H213240   4.186   3.724   0.313  0.7873 -1.6593 -0.9399
 4426TIP3   OH213241   3.348   4.104   0.168  0.1302 -0.1069  0.3373
 4426TIP3    H113242   3.255   4.118   0.183 -0.3784 -0.9147 -1.7335
 4426TIP3    H213243   3.379   4.187   0.132 -0.1733 -0.3798 -0.5613
 4427TIP3   OH213244   1.639   2.531   2.061 -0.2605  0.3975  0.5011
 4427TIP3    H113245   1.625   2.602   2.123 -2.3330  0.9876 -0.5462
 4427TIP3    H213246   1.569   2.468   2.080  0.1481 -0.2504 -0.0829
 4428TIP3   OH213247   7.201   4.864   5.350 -0.1326 -0.0311 -0.3515
 4428TIP3    H113248   7.164   4.858   5.262  0.1706 -0.1920 -0.4703
 4428TIP3    H213249   7.201   4.958   5.370  0.3787  0.0608 -0.7747
 4429TIP3   OH213250   4.699   1.203   5.259  0.2247  0.0851 -0.3786
 4429TIP3    H113251   4.776   1.184   5.206  0.3000 -2.0224  0.3873
 4429TIP3    H213252   4.629   1.152   5.218 -0.1421 -0.1128  0.4715
 4430TIP3   OH213253   1.025   2.731   3.271 -0.1495 -0.1060 -0.4727
 4430TIP3    H113254   0.985   2.733   3.184  0.7711 -1.2220 -0.9530
 4430TIP3    H213255   1.088   2.659   3.267 -1.6826 -1.7192  1.8276
 4431TIP3   OH213256   0.126   4.971   1.544  0.7103  0.3001 -0.8980
 4431TIP3    H113257   0.167   5.054   1.566 -0.3824  0.2378  1.6945
 4431TIP3    H213258   0.191   4.905   1.571  0.6244  0.2690 -0.7691
 4432TIP3   OH213259   5.135   3.524   5.493 -0.3363 -0.2146  0.0236
 4432TIP3    H113260   5.067   3.470   5.453  0.7618  0.0855 -2.3897
 4432TIP3    H213261   5.127   3.506   5.587 -2.9799 -1.0278 -0.2675
 4433TIP3   OH213262   1.712   4.842   2.641  0.2305  0.0602  0.5569
 4433TIP3    H113263   1.788   4.885   2.681  0.5984 -0.8999  0.9055
 4433TIP3    H213264   1.720   4.862   2.547 -0.3518  1.8808  0.8571
 4434TIP3   OH213265   3.605   5.322   5.630 -0.0564  0.1008 -0.4132
 4434TIP3    H113266   3.578   5.261   5.699 -2.0342  0.1539 -1.0664
 4434TIP3    H213267   3.617   5.266   5.553 -2.3049  0.4917 -1.1293
 4435TIP3   OH213268   5.342   4.878   3.354  0.2462  0.0072  0.1017
 4435TIP3    H113269   5.271   4.931   3.317  0.8532  1.4370  0.8785
 4435TIP3    H213270   5.302   4.833   3.428  0.4441  2.0499  1.5390
 4436TIP3   OH213271   2.869   3.787   3.226  0.5190 -0.4568  0.2615
 4436TIP3    H113272   2.810   3.855   3.192  0.2622  0.5738  2.6039
 4436TIP3    H213273   2.839   3.706   3.184 -1.5211  0.2988  0.1579
 4437TIP3   OH213274   6.464   1.491   1.389  0.2973 -0.2974  0.6308
 4437TIP3    H113275   6.392   1.498   1.327 -0.5053 -2.1160  1.3032
 4437TIP3    H213276   6.432   1.532   1.469  0.3135 -0.3625  0.6712
 4438TIP3   OH213277   3.050   6.731   2.887 -0.4153  0.5687  0.4604
 4438TIP3    H113278   3.039   6.704   2.796  0.7618  1.4567  0.0402
 4438TIP3    H213279   3.001   6.813   2.895  0.3765  1.0562  0.3380
 4439TIP3   OH213280   6.012   3.407   4.922 -0.1303  0.0099 -0.3389
 4439TIP3    H113281   5.968   3.474   4.974 -0.5620 -0.9581  0.5751
 4439TIP3    H213282   6.093   3.389   4.970 -0.7918 -1.2880  0.3565
 4440TIP3   OH213283   3.796   4.497   1.736  0.4520 -0.5158  0.4220
 4440TIP3    H113284   3.743   4.420   1.758 -1.4554  0.5724 -0.1441
 4440TIP3    H213285   3.871   4.461   1.688  0.5754 -2.1650  1.7485
 4441TIP3   OH213286   2.805   2.497   3.065  0.0494  0.3335 -0.1843
 4441TIP3    H113287   2.861   2.423   3.086 -2.3197 -2.6175 -3.2434
 4441TIP3    H213288   2.828   2.521   2.976 -1.0806  1.4848 -0.1997
 4442TIP3   OH213289   2.251   0.227   1.381 -0.3676 -0.3516  0.3488
 4442TIP3    H113290   2.175   0.269   1.421  1.2371  1.1345  2.0837
 4442TIP3    H213291   2.270   0.152   1.437  0.0295 -0.1130  0.5415
 4443TIP3   OH213292   2.557   4.518   0.407 -0.0295  0.7055  0.0062
 4443TIP3    H113293   2.503   4.488   0.333  0.6252  2.7100 -1.3739
 4443TIP3    H213294   2.497   4.523   0.481 -0.9376 -0.3568 -0.6244
 4444TIP3   OH213295   3.016   1.797   5.596 -0.1780 -0.0371 -0.2063
 4444TIP3    H113296   3.094   1.750   5.625  0.0543  0.7021  0.4154
 4444TIP3    H213297   2.980   1.744   5.525  1.4967  0.1643 -1.2527
 4445TIP3   OH213298   5.478   0.785   1.144 -0.7225 -1.2373 -0.4846
 4445TIP3    H113299   5.394   0.809   1.184 -0.7037  1.7543 -1.9271
 4445TIP3    H213300   5.454   0.744   1.061 -0.8315 -0.0556 -1.0656
 4446TIP3   OH213301   0.724   4.370   4.987  0.0717  0.1552 -0.3208
 4446TIP3    H113302   0.746   4.427   4.914  1.6697  1.4973  1.1219
 4446TIP3    H213303   0.650   4.414   5.030 -1.3357 -0.9944 -1.4527
 4447TIP3   OH213304   2.614   0.888   5.348  0.5854 -0.7233 -0.1127
 4447TIP3    H113305   2.628   0.963   5.291  1.7521 -0.9030 -0.0773
 4447TIP3    H213306   2.575   0.822   5.290  1.8420 -0.9373 -0.7524
 4448TIP3   OH213307   2.710   2.542   3.352 -0.9879  0.4101  0.0993
 4448TIP3    H113308   2.722   2.609   3.419 -0.9145  0.0914  0.4079
 4448TIP3    H213309   2.798   2.521   3.322 -1.0559  0.9297 -0.4742
 4449TIP3   OH213310   7.192   3.666   4.717 -0.2569 -0.4212  0.5732
 4449TIP3    H113311   7.152   3.669   4.804 -0.9046 -1.8046  0.3480
 4449TIP3    H213312   7.128   3.620   4.663  0.0274  0.6386 -0.7104
 4450TIP3   OH213313   0.292   0.694   2.357  0.1209  0.1541 -0.0971
 4450TIP3    H113314   0.208   0.725   2.324 -1.1937 -1.5146  1.4969
 4450TIP3    H213315   0.318   0.759   2.422 -1.1345 -0.4660  1.0813
 4451TIP3   OH213316   5.550   4.638   2.634 -0.0699 -0.4353 -0.3705
 4451TIP3    H113317   5.483   4.670   2.695  1.0322  0.8308  0.2463
 4451TIP3    H213318   5.533   4.686   2.553 -1.4809 -2.0539 -1.0882
 4452TIP3   OH213319   1.409   4.904   5.054  0.2160  0.1416  0.5093
 4452TIP3    H113320   1.377   4.815   5.039 -0.6256  0.7472 -1.7842
 4452TIP3    H213321   1.502   4.900   5.032 -0.0009 -0.0340 -0.4427
 4453TIP3   OH213322   4.094   3.173   2.427 -0.2838  0.2741 -0.5184
 4453TIP3    H113323   4.159   3.195   2.360  0.5800 -0.1767  0.1326
 4453TIP3    H213324   4.130   3.211   2.508 -0.6250 -0.3258 -0.0755
 4454TIP3   OH213325   5.667   1.661   2.961  0.1505  0.2131  0.3211
 4454TIP3    H113326   5.688   1.679   3.052  2.6028 -1.5959  0.2242
 4454TIP3    H213327   5.729   1.714   2.911  1.4199 -1.5939 -0.1295
 4455TIP3   OH213328   1.684   4.321   3.558  0.1710  0.4818 -0.3499
 4455TIP3    H113329   1.595   4.343   3.582  0.2695  2.5004 -1.6303
 4455TIP3    H213330   1.738   4.392   3.593  1.0278  0.2889 -1.2196
 4456TIP3   OH213331   1.369   0.106   1.368  0.1101  0.3967 -0.7606
 4456TIP3    H113332   1.448   0.158   1.383  0.8055 -0.4007 -1.5268
 4456TIP3    H213333   1.400   0.016   1.361 -0.8182  0.1088 -1.4541
 4457TIP3   OH213334   0.782   1.618   2.062 -0.1218  0.5053 -0.5444
 4457TIP3    H113335   0.818   1.670   2.134  0.5526 -0.7534  0.0627
 4457TIP3    H213336   0.690   1.644   2.058  0.0540  1.2838  0.1451
 4458TIP3   OH213337   4.437   1.120   4.113 -0.4453  0.0083  0.1875
 4458TIP3    H113338   4.480   1.198   4.150 -1.1102 -0.2698  1.6135
 4458TIP3    H213339   4.462   1.049   4.172 -0.3206 -0.7585 -0.7766
 4459TIP3   OH213340   1.760   5.979   5.291 -0.5262  0.2595 -0.9792
 4459TIP3    H113341   1.751   6.074   5.288  0.7791  0.4066 -0.6157
 4459TIP3    H213342   1.850   5.964   5.320 -0.8848 -1.0906 -0.5141
 4460TIP3   OH213343   2.244   2.626   5.369 -0.3081 -0.5246 -0.5861
 4460TIP3    H113344   2.170   2.610   5.428  0.8885  0.4025  1.2715
 4460TIP3    H213345   2.304   2.554   5.387 -0.1198 -0.4715 -1.0029
 4461TIP3   OH213346   7.150   0.101   1.116  0.2497  0.3418 -0.1459
 4461TIP3    H113347   7.070   0.142   1.149  0.5988 -0.3321  1.6128
 4461TIP3    H213348   7.146   0.115   1.021 -1.6128  0.9093 -0.0280
 4462TIP3   OH213349   1.542   0.630   4.402 -0.0153 -0.1057  0.3809
 4462TIP3    H113350   1.598   0.552   4.402  0.4674  0.2047  1.6678
 4462TIP3    H213351   1.479   0.613   4.472  0.3630  0.8316  0.9689
 4463TIP3   OH213352   4.182   1.158   1.995 -0.2512  0.0486  0.3428
 4463TIP3    H113353   4.123   1.104   1.943  0.9640 -0.3859 -0.6389
 4463TIP3    H213354   4.181   1.243   1.952 -0.4972  0.1840  0.6064
 4464TIP3   OH213355   2.013   3.537   0.466  0.1615 -0.1011  0.3926
 4464TIP3    H113356   1.921   3.517   0.481  0.2014 -1.0227 -0.5085
 4464TIP3    H213357   2.058   3.453   0.474  0.5094 -0.2465 -2.1739
 4465TIP3   OH213358   0.062   6.405   2.999 -0.5261 -0.3595  0.3433
 4465TIP3    H113359   0.017   6.345   3.059  0.8754 -1.4736  0.3291
 4465TIP3    H213360   0.074   6.485   3.050 -0.7584 -0.7419  1.0155
 4466TIP3   OH213361   5.149   0.173   5.204  0.0635 -0.1190  0.1574
 4466TIP3    H113362   5.112   0.249   5.250  0.1975  1.0849 -1.6388
 4466TIP3    H213363   5.228   0.206   5.161  0.6130 -1.5045  0.0427
 4467TIP3   OH213364   2.774   2.898   4.677  0.1217 -0.1556 -0.1594
 4467TIP3    H113365   2.761   2.954   4.754 -0.1330  0.7687 -0.8624
 4467TIP3    H213366   2.868   2.902   4.659 -0.0390  1.0095 -0.8924
 4468TIP3   OH213367   7.004   1.521   3.010 -0.1087 -0.6824  0.1904
 4468TIP3    H113368   7.052   1.548   2.932 -0.5002  0.3999  0.3029
 4468TIP3    H213369   6.924   1.481   2.977 -0.4124  0.0444  0.0306
 4469TIP3   OH213370   5.587   3.394   5.170 -0.1247  0.0119 -0.0621
 4469TIP3    H113371   5.515   3.352   5.216  1.6678 -2.8132  0.4775
 4469TIP3    H213372   5.557   3.403   5.080 -0.6402 -2.8006 -0.2705
 4470TIP3   OH213373   3.745   1.272   3.223 -0.1364 -0.2538 -0.4732
 4470TIP3    H113374   3.823   1.303   3.178  0.1025  0.3947  0.3579
 4470TIP3    H213375   3.769   1.271   3.315 -0.8822 -0.7526 -0.2688
 4471TIP3   OH213376   3.033   5.201   0.354  0.4022 -0.1569  0.2876
 4471TIP3    H113377   3.078   5.138   0.298  0.1258 -1.7766  1.7870
 4471TIP3    H213378   3.062   5.180   0.443  1.4646  2.8539  0.7764
 4472TIP3   OH213379   0.284   3.157   0.841  0.0930  0.3812  0.0022
 4472TIP3    H113380   0.216   3.202   0.790  0.4305  1.0852  0.1562
 4472TIP3    H213381   0.248   3.151   0.930  0.0703  0.3931 -0.0063
 4473TIP3   OH213382   1.419   1.946   2.604 -0.6043  0.6854  0.6345
 4473TIP3    H113383   1.443   1.870   2.550 -4.6042 -0.9812  0.9043
 4473TIP3    H213384   1.483   1.946   2.675  1.9200  0.1005 -1.4868
 4474TIP3   OH213385   1.514   0.972   0.497 -0.1664 -0.6594  0.1076
 4474TIP3    H113386   1.449   1.034   0.530  0.1990 -1.3137  2.2708
 4474TIP3    H213387   1.467   0.890   0.489 -0.4841 -0.3136 -2.0931
 4475TIP3   OH213388   5.135   4.554   0.241  0.3785  0.3939  0.2327
 4475TIP3    H113389   5.133   4.647   0.217  0.7630 -0.0718 -1.7502
 4475TIP3    H213390   5.212   4.546   0.298  1.5411  0.9695 -1.1927
 4476TIP3   OH213391   4.759   1.243   1.098 -0.2213 -0.2213 -0.6980
 4476TIP3    H113392   4.682   1.200   1.061 -0.5478  0.5282 -0.9095
 4476TIP3    H213393   4.750   1.335   1.072  1.5301 -0.3714 -2.0478
 4477TIP3   OH213394   0.193   2.044   0.280  0.0785  0.0622  0.2852
 4477TIP3    H113395   0.168   2.107   0.347 -0.7706 -0.4354  0.4404
 4477TIP3    H213396   0.161   1.960   0.312 -1.7788  0.0345 -1.4628
 4478TIP3   OH213397   3.743   0.887   1.925  0.0945 -0.5645  0.0586
 4478TIP3    H113398   3.776   0.801   1.954  1.9616 -1.4012 -3.8810
 4478TIP3    H213399   3.672   0.866   1.865 -0.9245  0.8149  0.7398
 4479TIP3   OH213400   2.082   2.363   3.920  0.0363  0.0950 -0.2686
 4479TIP3    H113401   2.133   2.442   3.936 -0.8231  1.0649 -2.0098
 4479TIP3    H213402   2.095   2.344   3.827  0.4519 -2.0226  0.1585
 4480TIP3   OH213403   6.319   2.446   2.622  0.5704 -0.3168 -0.0677
 4480TIP3    H113404   6.300   2.524   2.570 -0.4524 -0.0841  0.6278
 4480TIP3    H213405   6.341   2.480   2.709 -1.7129 -0.8222  0.7768
 4481TIP3   OH213406   0.354   5.146   2.565  0.1228  0.0029  0.4146
 4481TIP3    H113407   0.353   5.197   2.484 -1.2440 -0.5892  0.0282
 4481TIP3    H213408   0.295   5.073   2.549 -1.0689  0.4610  2.3181
 4482TIP3   OH213409   6.182   2.031   4.833 -0.5528  0.3629  0.0409
 4482TIP3    H113410   6.160   1.960   4.893 -0.2111 -0.4649 -0.7846
 4482TIP3    H213411   6.222   2.098   4.888  3.3271 -1.8947  0.3293
 4483TIP3   OH213412   4.388   5.976   1.732 -0.3060  0.0664 -0.9844
 4483TIP3    H113413   4.344   6.031   1.796 -1.0166 -0.7486 -0.7538
 4483TIP3    H213414   4.471   5.952   1.774 -1.2375 -1.3587  0.1254
 4484TIP3   OH213415   3.091   0.224   5.026  0.7275  0.5933  0.3906
 4484TIP3    H113416   3.173   0.175   5.024  0.0717 -0.5274 -0.1660
 4484TIP3    H213417   3.082   0.261   4.938 -0.3887 -1.1047 -0.2619
 4485TIP3   OH213418   4.753   1.940   0.142 -0.1068 -0.3810 -0.8373
 4485TIP3    H113419   4.767   2.002   0.070  0.6943 -0.4681 -0.7696
 4485TIP3    H213420   4.753   1.995   0.220  0.4396 -0.4386 -0.7914
 4486TIP3   OH213421   3.588   3.991   0.004 -0.3135 -0.4042 -0.3895
 4486TIP3    H113422   3.604   3.897   0.015 -0.0432 -0.5761 -2.0029
 4486TIP3    H213423   3.499   4.005   0.037  0.3790 -0.8073  1.8156
 4487TIP3   OH213424   2.657   1.507   0.496 -0.5360  0.2889  0.1230
 4487TIP3    H113425   2.713   1.574   0.457 -0.5453  0.2212 -0.0065
 4487TIP3    H213426   2.686   1.501   0.587 -0.2816  0.1969  0.0347
 4488TIP3   OH213427   4.584   0.311   1.556  0.8463  0.1138  0.5632
 4488TIP3    H113428   4.626   0.397   1.559 -0.2233  0.9590 -3.4347
 4488TIP3    H213429   4.493   0.328   1.579  0.7127 -0.0032  0.1300
 4489TIP3   OH213430   3.683   0.460   1.571 -0.0733 -0.2424 -0.3452
 4489TIP3    H113431   3.606   0.405   1.586 -0.4494  0.5803  0.8302
 4489TIP3    H213432   3.754   0.414   1.616 -0.4914  0.4535  1.0795
 4490TIP3   OH213433   4.412   2.874   4.275  0.3963 -0.2652 -0.4500
 4490TIP3    H113434   4.440   2.827   4.353  0.5178  1.5604  0.6584
 4490TIP3    H213435   4.320   2.897   4.292  1.2318  2.7121  0.5544
 4491TIP3   OH213436   5.705   2.891   1.175  0.1143 -0.3389  0.5257
 4491TIP3    H113437   5.659   2.812   1.203  0.7194 -0.5787  0.8808
 4491TIP3    H213438   5.643   2.962   1.187 -0.2586 -0.6946  0.7087
 4492TIP3   OH213439   4.770   2.270   1.391  0.3178  0.1986 -0.1418
 4492TIP3    H113440   4.735   2.319   1.465 -0.0783  0.3256 -0.4138
 4492TIP3    H213441   4.712   2.290   1.318 -1.0625 -2.1848  0.1721
 4493TIP3   OH213442   4.041   2.315   5.373  0.3911 -0.2081  0.4088
 4493TIP3    H113443   3.947   2.318   5.391  0.4716 -0.5114  0.9170
 4493TIP3    H213444   4.064   2.404   5.349  0.0789 -0.0070  0.8468
 4494TIP3   OH213445   1.327   1.605   5.270  0.0087  0.3985 -0.6282
 4494TIP3    H113446   1.298   1.616   5.361  1.7532 -0.5677  0.1015
 4494TIP3    H213447   1.255   1.560   5.227 -0.3323 -0.3094  0.6366
 4495TIP3   OH213448   4.021   0.988   1.845  0.0550  0.6771 -0.5934
 4495TIP3    H113449   3.929   0.992   1.872  0.7243  0.3353  2.0554
 4495TIP3    H213450   4.037   0.896   1.826 -0.1244  0.7294 -1.0098
 4496TIP3   OH213451   4.345   1.208   1.751  0.3480 -0.1249  0.0273
 4496TIP3    H113452   4.403   1.227   1.825  1.5478 -1.8478 -0.4129
 4496TIP3    H213453   4.335   1.292   1.706  3.4986  0.0477 -0.5473
 4497TIP3   OH213454   2.535   4.670   5.371  0.6605 -0.4534 -0.0988
 4497TIP3    H113455   2.619   4.681   5.327  0.4044  0.1072 -0.4687
 4497TIP3    H213456   2.551   4.700   5.461  0.8898 -0.4728 -0.1331
 4498TIP3   OH213457   1.059   3.339   1.894  0.3181 -0.2479 -0.5294
 4498TIP3    H113458   1.090   3.429   1.901  0.1339 -0.1123 -1.3079
 4498TIP3    H213459   1.085   3.298   1.976 -0.8741  0.8971  0.4706
 4499TIP3   OH213460   3.867   5.936   4.104 -0.6081  0.0109  0.0170
 4499TIP3    H113461   3.818   6.018   4.096 -0.8854 -0.2664 -1.3854
 4499TIP3    H213462   3.839   5.900   4.187 -2.0036  0.3770 -0.2647
 4500TIP3   OH213463   3.321   2.055   5.630 -0.1567 -0.1962  0.0600
 4500TIP3    H113464   3.272   2.035   5.551 -0.4584 -0.3425  0.2826
 4500TIP3    H213465   3.412   2.038   5.606  0.1155  2.4743 -1.1308
 4501TIP3   OH213466   6.208   3.958   0.575  0.8190  0.3332  0.0034
 4501TIP3    H113467   6.124   3.998   0.599  0.4069 -0.5446  0.0898
 4501TIP3    H213468   6.255   4.026   0.528 -0.8781  0.1397 -2.0932
 4502TIP3   OH213469   7.218   5.246   0.620  0.4913 -0.2339  0.0499
 4502TIP3    H113470   7.159   5.180   0.583  0.7610 -0.4349 -0.0275
 4502TIP3    H213471   7.195   5.250   0.713  0.1326 -0.0703 -0.0475
 4503TIP3   OH213472   0.538   3.538   1.044 -0.4778  0.3823  0.1053
 4503TIP3    H113473   0.547   3.468   0.979  1.7073  1.4923 -0.9062
 4503TIP3    H213474   0.617   3.530   1.098 -1.7575  0.1271  2.0502
 4504TIP3   OH213475   7.158   0.348   3.420 -0.1159  0.2430 -0.1101
 4504TIP3    H113476   7.139   0.355   3.327 -1.1433 -0.6735  0.0064
 4504TIP3    H213477   7.072   0.359   3.463  0.3701  0.8744  0.7473
 4505TIP3   OH213478   3.120   6.543   4.500  0.4367 -0.0833  0.2887
 4505TIP3    H113479   3.027   6.527   4.518 -0.2212  2.7793 -0.0258
 4505TIP3    H213480   3.155   6.576   4.583  0.2471  2.1204 -0.4398
 4506TIP3   OH213481   1.549   0.258   4.022 -0.2145 -0.4569 -0.7526
 4506TIP3    H113482   1.527   0.217   3.938 -0.5826  0.3988 -1.0814
 4506TIP3    H213483   1.643   0.274   4.017 -0.2297 -0.4378 -0.9879
 4507TIP3   OH213484   2.783   5.503   3.362  0.8311 -0.3519  0.4352
 4507TIP3    H113485   2.691   5.478   3.360  0.9441 -1.0373  1.9368
 4507TIP3    H213486   2.806   5.504   3.456  2.7127 -1.7235  0.0720
 4508TIP3   OH213487   1.351   2.507   4.662 -0.3032  0.4193 -0.2237
 4508TIP3    H113488   1.317   2.538   4.746  1.7802 -0.8746  1.2034
 4508TIP3    H213489   1.275   2.475   4.615 -1.2798 -1.0099  2.1801
 4509TIP3   OH213490   0.320   2.944   4.156  0.0978 -0.1447 -0.2411
 4509TIP3    H113491   0.227   2.936   4.134 -0.0283  0.4454  0.0614
 4509TIP3    H213492   0.363   2.878   4.102 -0.4470 -0.1162 -0.7196
 4510TIP3   OH213493   2.358   2.254   4.136 -0.5247  0.0496 -0.1660
 4510TIP3    H113494   2.335   2.248   4.044  0.1097  0.5523 -0.3656
 4510TIP3    H213495   2.426   2.187   4.149 -0.1427  0.4189 -0.2249
 4511TIP3   OH213496   1.321   0.197   5.803  0.3176 -0.4801 -0.6040
 4511TIP3    H113497   1.344   0.128   5.741 -1.2233  0.1110 -1.8844
 4511TIP3    H213498   1.305   0.274   5.749 -0.9344  0.0839  0.5100
 4512TIP3   OH213499   2.847   5.077   3.839  0.1270 -0.1369 -0.3115
 4512TIP3    H113500   2.901   5.091   3.761 -1.6397  2.3940 -1.1925
 4512TIP3    H213501   2.775   5.021   3.808 -0.7544  1.1391 -0.6453
 4513TIP3   OH213502   5.838   4.509   5.477  0.2388 -0.3082  0.3887
 4513TIP3    H113503   5.886   4.576   5.526 -0.5995  0.8946 -0.3712
 4513TIP3    H213504   5.750   4.509   5.515 -0.8237  1.5364 -1.7717
 4514TIP3   OH213505   5.896   0.273   0.817  0.5160  0.4991 -0.0756
 4514TIP3    H113506   5.960   0.215   0.858 -0.4052 -0.7812 -0.3854
 4514TIP3    H213507   5.812   0.248   0.856 -0.1390  0.4344 -1.4562
 4515TIP3   OH213508   0.312  -0.010   3.518 -0.1399  0.0826 -0.5517
 4515TIP3    H113509   0.225   0.027   3.530  0.4399  1.0807  0.9043
 4515TIP3    H213510   0.344   0.028   3.436 -0.9238 -0.0123 -0.9078
 4516TIP3   OH213511   0.090   5.661   2.484  0.0589 -0.3451  0.2919
 4516TIP3    H113512   0.184   5.675   2.485 -0.1480  1.1690 -0.0431
 4516TIP3    H213513   0.069   5.633   2.574  0.5196  1.5816  1.0376
 4517TIP3   OH213514   3.601   5.084   3.207 -0.2937 -0.4797 -0.1153
 4517TIP3    H113515   3.516   5.056   3.173 -1.0230 -0.5438  1.6226
 4517TIP3    H213516   3.644   5.003   3.234  0.5301 -0.4881 -1.3710
 4518TIP3   OH213517   4.385   5.792   5.325 -0.4114 -0.5139 -0.0187
 4518TIP3    H113518   4.476   5.763   5.332 -0.3413 -0.3675 -0.3129
 4518TIP3    H213519   4.382   5.872   5.377 -0.2251 -0.1845 -0.5158
 4519TIP3   OH213520   6.577   2.917   2.282  0.0219  0.4608  0.4599
 4519TIP3    H113521   6.540   2.963   2.357  1.6129  0.1264  1.5126
 4519TIP3    H213522   6.584   2.826   2.311  0.1422  0.2247 -0.2929
 4520TIP3   OH213523   1.361   0.014   0.286 -0.2628  0.0012  0.0775
 4520TIP3    H113524   1.437   0.072   0.284 -1.9877  2.3812 -0.8716
 4520TIP3    H213525   1.397  -0.073   0.273  2.1656  1.2062 -2.0151
 4521TIP3   OH213526   3.428   2.213   4.929  0.0344  0.4556 -0.2512
 4521TIP3    H113527   3.395   2.127   4.902 -0.3953  0.6759 -0.4458
 4521TIP3    H213528   3.453   2.201   5.020  2.3802 -0.5467 -0.9558
 4522TIP3   OH213529   6.876   6.145   1.584  0.1256  0.0455 -0.2388
 4522TIP3    H113530   6.796   6.101   1.555  0.6908 -1.6098  0.5630
 4522TIP3    H213531   6.916   6.178   1.503 -0.4625 -0.7124 -0.8540
 4523TIP3   OH213532   5.358   3.457   0.305 -0.4206  0.5205  0.0155
 4523TIP3    H113533   5.438   3.476   0.257 -0.1655 -1.9873 -0.7087
 4523TIP3    H213534   5.298   3.422   0.238 -2.5071  3.1302  0.3618
 4524TIP3   OH213535   2.256   5.129   2.942  0.6863 -0.2724  0.3445
 4524TIP3    H113536   2.332   5.070   2.940  0.6822 -0.2500 -1.2305
 4524TIP3    H213537   2.237   5.147   2.850  0.5199  1.9937  0.7766
 4525TIP3   OH213538   0.124   3.610   4.273 -0.0824  0.1063  0.4399
 4525TIP3    H113539   0.216   3.637   4.272  0.1256 -0.5230  1.1564
 4525TIP3    H213540   0.095   3.617   4.183  1.5161 -2.4398 -0.3909
 4526TIP3   OH213541   4.320   0.922   0.469 -0.2064  0.4597 -0.1913
 4526TIP3    H113542   4.249   0.947   0.410 -0.8180 -1.1528 -0.1833
 4526TIP3    H213543   4.275   0.893   0.549  0.3541 -1.4992 -0.5235
 4527TIP3   OH213544   0.572   4.579   0.213  0.2546 -0.3083  0.0819
 4527TIP3    H113545   0.488   4.537   0.195  0.6462 -2.6855  3.0815
 4527TIP3    H213546   0.560   4.621   0.298  2.0789 -0.7236  0.5868
 4528TIP3   OH213547   6.823   5.554   2.959 -0.4260  0.4240  0.2283
 4528TIP3    H113548   6.802   5.589   2.872  0.6619  0.9830  0.1806
 4528TIP3    H213549   6.750   5.494   2.978  0.4554 -1.5696 -2.0812
 4529TIP3   OH213550   1.276   6.647   0.638  0.2511 -0.2208  0.7877
 4529TIP3    H113551   1.232   6.569   0.673 -1.3284  0.1203 -0.3297
 4529TIP3    H213552   1.207   6.713   0.635  1.0223  0.5497 -0.3926
 4530TIP3   OH213553   2.081   3.806   0.484  0.3596 -0.5220 -0.1802
 4530TIP3    H113554   2.163   3.827   0.439  0.5813 -0.3381  0.3099
 4530TIP3    H213555   2.086   3.711   0.499  1.4082 -0.2252  1.6426
 4531TIP3   OH213556   5.505   6.549   5.200 -0.4577  0.8858  0.6173
 4531TIP3    H113557   5.563   6.598   5.259  0.5649  0.8918 -0.3600
 4531TIP3    H213558   5.487   6.610   5.129  2.5072 -0.6889 -1.7092
 4532TIP3   OH213559   2.553   3.565   5.089  0.3035  0.0434  0.0112
 4532TIP3    H113560   2.547   3.469   5.085 -0.7373  0.0713  0.4017
 4532TIP3    H213561   2.530   3.585   5.180 -4.4996  0.9101 -1.1318
 4533TIP3   OH213562   1.504   4.978   5.562  0.0657 -0.0664 -0.3748
 4533TIP3    H113563   1.533   4.899   5.516  1.5255  0.0394  0.3064
 4533TIP3    H213564   1.418   4.955   5.598  0.2001 -1.1350 -0.7059
 4534TIP3   OH213565   0.569   0.773   3.942  0.3907 -0.4095 -0.1774
 4534TIP3    H113566   0.480   0.755   3.911 -0.2865  1.6463  0.3505
 4534TIP3    H213567   0.577   0.721   4.022 -0.4255 -0.4706 -0.1195
 4535TIP3   OH213568   5.935   6.579   4.047  0.8850 -0.5039  0.6101
 4535TIP3    H113569   5.845   6.610   4.047  1.5506  1.6129  0.3186
 4535TIP3    H213570   5.947   6.540   3.960  1.2063  2.5191 -0.8378
 4536TIP3   OH213571   2.491   1.100   1.207  0.0663  0.2957 -0.6184
 4536TIP3    H113572   2.484   1.107   1.112  2.8264 -0.0340 -0.9215
 4536TIP3    H213573   2.530   1.183   1.235 -0.6102  0.3430  0.2381
 4537TIP3   OH213574   4.219   3.316   2.637  0.2054  0.1147  0.1001
 4537TIP3    H113575   4.222   3.305   2.732  0.2371  0.2698  0.1183
 4537TIP3    H213576   4.211   3.411   2.624  1.3975  0.2203 -0.0636
 4538TIP3   OH213577   4.133   6.486   2.973 -0.0644  0.7950  0.0468
 4538TIP3    H113578   4.080   6.428   2.919  0.5472  0.2775 -0.0151
 4538TIP3    H213579   4.222   6.476   2.938  0.1440  1.3247  0.4153
 4539TIP3   OH213580   2.305   2.126   3.866 -0.2986  0.1748 -0.3958
 4539TIP3    H113581   2.388   2.078   3.872  0.8942  2.1372 -0.2923
 4539TIP3    H213582   2.305   2.160   3.776 -1.5711 -0.7312 -0.7672
 4540TIP3   OH213583   1.693   0.733   0.031  0.4437  0.1140 -0.3274
 4540TIP3    H113584   1.738   0.736  -0.053 -0.6369  1.0503 -0.8981
 4540TIP3    H213585   1.752   0.683   0.088  2.0702  1.0746 -1.1049
 4541TIP3   OH213586   6.524   5.562   0.520 -0.0251 -0.2342 -0.2581
 4541TIP3    H113587   6.505   5.624   0.590 -2.6560 -1.0519 -0.1253
 4541TIP3    H213588   6.562   5.487   0.565 -1.9179 -0.8527  0.4244
 4542TIP3   OH213589   0.967   2.078   5.632  0.2545 -0.3934  0.2391
 4542TIP3    H113590   1.062   2.071   5.640  0.4570  0.3908 -1.0865
 4542TIP3    H213591   0.953   2.159   5.583 -1.0348 -1.1255 -0.6866
 4543TIP3   OH213592   1.810   3.662   5.642 -0.4131  0.2936 -0.1638
 4543TIP3    H113593   1.871   3.633   5.710  0.5709  1.3478 -0.5509
 4543TIP3    H213594   1.728   3.618   5.663 -0.5915  1.7009  2.5839
 4544TIP3   OH213595   5.598   0.796   4.337  0.0268 -0.3878 -0.3853
 4544TIP3    H113596   5.556   0.748   4.265  0.8051 -1.2278 -0.2984
 4544TIP3    H213597   5.583   0.741   4.414  2.1363 -1.2748 -0.5249
 4545TIP3   OH213598   3.852   0.679   2.055 -0.0919 -0.6116 -0.7366
 4545TIP3    H113599   3.831   0.716   2.140 -0.2639  1.8675 -1.7622
 4545TIP3    H213600   3.808   0.595   2.053 -1.5600  0.0658  0.9486
 4546TIP3   OH213601   5.154   1.971   0.390 -0.0733  0.0917 -0.1276
 4546TIP3    H113602   5.196   2.036   0.447  0.0839 -0.4456  0.3857
 4546TIP3    H213603   5.063   2.000   0.383 -0.0920  0.1734  0.3937
 4547TIP3   OH213604   3.029   0.445   0.141  0.8397 -0.4180  0.0839
 4547TIP3    H113605   3.104   0.432   0.082  0.3707 -2.0709 -0.1761
 4547TIP3    H213606   2.956   0.463   0.082  0.6813 -0.4810  0.2634
 4548TIP3   OH213607   4.468   0.919   4.583 -0.1068  0.0746 -0.1364
 4548TIP3    H113608   4.421   0.836   4.590  2.1253 -1.1495  1.3151
 4548TIP3    H213609   4.539   0.902   4.520  1.4925  0.2577  1.5356
 4549TIP3   OH213610   0.603   1.304   2.780  0.3412 -0.1593  0.4010
 4549TIP3    H113611   0.654   1.277   2.857 -2.7269  0.4627  2.8908
 4549TIP3    H213612   0.515   1.269   2.797 -0.6936  0.8429 -2.4085
 4550TIP3   OH213613   4.102   4.672   0.612 -0.5520 -0.1105  0.3448
 4550TIP3    H113614   4.025   4.720   0.582  0.6201  0.8438 -1.2915
 4550TIP3    H213615   4.080   4.580   0.595 -0.4485  0.2872 -2.5101
 4551TIP3   OH213616   0.743   2.940   3.186  0.3127  0.0027  0.3103
 4551TIP3    H113617   0.805   2.894   3.129  0.1150 -0.8612  0.7821
 4551TIP3    H213618   0.680   2.874   3.212 -0.0391  0.5662  0.9252
 4552TIP3   OH213619   5.153   2.976   5.565 -0.1640 -0.1489 -0.3504
 4552TIP3    H113620   5.191   3.052   5.610 -0.4672  0.1584 -0.5990
 4552TIP3    H213621   5.142   3.005   5.475  1.6579 -1.2009 -0.9602
 4553TIP3   OH213622   2.671   0.682   3.223 -0.6538  0.6468 -0.0685
 4553TIP3    H113623   2.685   0.697   3.316 -3.3609  3.8091  0.0011
 4553TIP3    H213624   2.592   0.628   3.219 -0.7266  0.7789 -0.5214
 4554TIP3   OH213625   3.294   5.877   0.848 -0.1120  0.4754 -0.1049
 4554TIP3    H113626   3.300   5.867   0.752  0.4111 -1.3285  0.0771
 4554TIP3    H213627   3.208   5.915   0.863 -0.5887 -0.0978 -1.2467
 4555TIP3   OH213628   3.661   3.987   5.643 -0.2117  0.0167  0.4130
 4555TIP3    H113629   3.611   3.943   5.575 -1.2592  0.4145  0.9043
 4555TIP3    H213630   3.614   4.069   5.659  0.0652 -0.0213  1.5388
 4556TIP3   OH213631   6.907   0.416   3.501 -0.1414 -0.3603  0.2418
 4556TIP3    H113632   6.856   0.381   3.428 -0.5400  0.2758  0.2004
 4556TIP3    H213633   6.842   0.464   3.554  0.3130 -0.0263  0.5026
 4557TIP3   OH213634   4.623   0.608   4.175 -0.4055 -0.2348  0.2243
 4557TIP3    H113635   4.560   0.592   4.104 -0.1353  1.2335 -0.3819
 4557TIP3    H213636   4.708   0.611   4.132 -0.1631  0.0184  0.7122
 4558TIP3   OH213637   2.848   0.776   2.527 -0.3223  0.6852 -0.3621
 4558TIP3    H113638   2.832   0.807   2.616 -0.4216  0.3070 -0.2431
 4558TIP3    H213639   2.933   0.731   2.533 -0.9682 -0.5668 -0.1221
 4559TIP3   OH213640   3.958   4.664   0.866  0.4129  0.4710  0.1222
 4559TIP3    H113641   4.025   4.702   0.924  4.0301 -3.3719 -1.0057
 4559TIP3    H213642   3.982   4.695   0.779 -1.6168  1.8505 -0.0023
 4560TIP3   OH213643   6.029   0.559   2.655  0.2756 -0.2151  0.2227
 4560TIP3    H113644   5.991   0.589   2.572  1.4501  0.3016 -0.1520
 4560TIP3    H213645   5.978   0.603   2.722  1.1789  1.7525 -0.2955
 4561TIP3   OH213646   4.528   6.276   5.686 -0.4906 -0.1239  0.6935
 4561TIP3    H113647   4.624   6.271   5.685 -0.4721  0.1806  0.8015
 4561TIP3    H213648   4.506   6.324   5.606 -0.5805 -0.6131  0.4221
 4562TIP3   OH213649   6.778   2.084   2.948  0.3927  0.1727 -0.1764
 4562TIP3    H113650   6.753   1.995   2.972  2.3572 -0.3173  0.2551
 4562TIP3    H213651   6.869   2.092   2.978  0.7841  1.7783 -1.6146
 4563TIP3   OH213652   6.194   0.752   4.834 -0.2419 -0.1659  0.2323
 4563TIP3    H113653   6.104   0.777   4.857 -0.7759 -1.2870 -0.5025
 4563TIP3    H213654   6.240   0.747   4.917 -0.4824  1.7387  0.5268
 4564TIP3   OH213655   0.941   1.321   1.215  0.1674  0.4741  0.0698
 4564TIP3    H113656   1.016   1.363   1.173  0.0998  0.0427 -0.4817
 4564TIP3    H213657   0.952   1.228   1.197  0.8101  0.1190  2.0576
 4565TIP3   OH213658   4.261   3.232   2.219 -0.2765 -0.9027 -0.0492
 4565TIP3    H113659   4.220   3.258   2.137  1.5585 -1.9466 -1.3674
 4565TIP3    H213660   4.336   3.290   2.228  0.9740 -2.3735 -0.4621
 4566TIP3   OH213661   6.286   0.710   0.917 -0.7538  0.0904  0.1017
 4566TIP3    H113662   6.312   0.718   0.825  0.1638 -3.0498 -0.0239
 4566TIP3    H213663   6.367   0.722   0.965 -1.1627  1.3022  0.5340
 4567TIP3   OH213664   7.060   3.679   3.002  0.2444 -0.3145  0.2880
 4567TIP3    H113665   7.060   3.596   2.954 -0.3270 -1.4362  2.1113
 4567TIP3    H213666   6.974   3.683   3.043  0.0465  1.4909 -0.2262
 4568TIP3   OH213667   3.902   2.880   5.599  0.2849  0.2646 -0.1509
 4568TIP3    H113668   3.911   2.827   5.520  0.7599 -1.8395  1.2301
 4568TIP3    H213669   3.820   2.851   5.638 -0.5818  2.1800 -0.4558
 4569TIP3   OH213670   6.438   2.656   0.787 -0.4148  0.1863  0.4356
 4569TIP3    H113671   6.422   2.729   0.847 -1.3265  1.0759 -0.8405
 4569TIP3    H213672   6.507   2.687   0.729 -0.8790  0.0885 -0.1793
 4570TIP3   OH213673   4.512   5.263   0.471  0.2260  0.1123  0.0753
 4570TIP3    H113674   4.548   5.352   0.474 -0.6397  0.5190 -1.2384
 4570TIP3    H213675   4.532   5.227   0.558 -0.6789  2.0816  1.1749
 4571TIP3   OH213676   1.277   0.938   1.046  0.6001 -0.6246 -0.0271
 4571TIP3    H113677   1.350   0.972   1.097  1.9671 -1.3557 -1.4137
 4571TIP3    H213678   1.294   0.845   1.037 -0.9296 -0.9666  0.2662
 4572TIP3   OH213679   6.530   1.588   3.605  0.1979  0.5741  0.5460
 4572TIP3    H113680   6.439   1.588   3.635 -0.2323 -1.1567 -0.6196
 4572TIP3    H213681   6.524   1.572   3.511  1.6608  2.1750  0.1365
 4573TIP3   OH213682   6.126   5.900   2.379 -0.0027  0.0921 -0.3306
 4573TIP3    H113683   6.190   5.829   2.382  0.0013  0.1052 -0.0941
 4573TIP3    H213684   6.172   5.972   2.337  0.6083  0.5739  1.0906
 4574TIP3   OH213685   0.349   5.356   4.662  0.1906  0.3422  0.8526
 4574TIP3    H113686   0.350   5.440   4.616 -0.0584  0.6665  1.4254
 4574TIP3    H213687   0.357   5.290   4.593  1.7030  0.8638  0.5082
 4575TIP3   OH213688   4.921   6.028   2.833  0.5799  0.0138  0.2473
 4575TIP3    H113689   5.011   6.016   2.800  0.6212  0.8025  0.0528
 4575TIP3    H213690   4.883   5.940   2.830  1.1648 -0.2339 -0.2063
 4576TIP3   OH213691   1.978   1.280   2.823 -1.1783  0.0290  0.0262
 4576TIP3    H113692   1.984   1.224   2.900 -1.5386 -0.4429 -0.2875
 4576TIP3    H213693   1.885   1.279   2.799 -0.9232 -0.6407 -1.0091
 4577TIP3   OH213694   2.698   5.374   4.255  0.0922 -0.0262 -0.5700
 4577TIP3    H113695   2.764   5.316   4.216 -1.7323 -2.8076  0.1291
 4577TIP3    H213696   2.704   5.357   4.349 -0.0289  1.5381 -0.2534
 4578TIP3   OH213697   0.590   3.042   2.389 -0.1002 -0.0023  0.4774
 4578TIP3    H113698   0.633   2.988   2.323 -1.1146 -2.0895  1.4313
 4578TIP3    H213699   0.523   3.090   2.340  1.7068  1.5067 -0.6202
 4579TIP3   OH213700   0.014   2.243   4.876 -0.3166 -0.2370  0.1804
 4579TIP3    H113701  -0.048   2.172   4.858 -2.8500  2.1251 -1.3216
 4579TIP3    H213702   0.084   2.230   4.812 -0.3704 -1.7199  0.3828
 4580TIP3   OH213703   0.877   3.457   1.025  0.0999 -0.2302 -0.2802
 4580TIP3    H113704   0.847   3.406   1.101  0.8662  0.8125  0.7651
 4580TIP3    H213705   0.869   3.396   0.951 -1.5838 -0.9750  0.4498
 4581TIP3   OH213706   3.937   4.320   3.311 -0.2084  0.0093  0.2358
 4581TIP3    H113707   3.975   4.239   3.276  0.6688  0.2705  0.5509
 4581TIP3    H213708   3.843   4.312   3.293  0.2354  0.5511 -3.0704
 4582TIP3   OH213709   4.998   2.014   0.782  0.0754  0.6090  0.6600
 4582TIP3    H113710   4.935   2.040   0.714 -1.1716  1.2376  2.0061
 4582TIP3    H213711   4.972   2.065   0.859  0.5500 -1.1269  2.0269
 4583TIP3   OH213712   1.920   4.418   4.364 -0.1526 -0.4311 -0.1771
 4583TIP3    H113713   1.952   4.398   4.276  0.3123  2.1699 -0.6752
 4583TIP3    H213714   1.824   4.417   4.355 -0.1040  0.5097 -0.8991
 4584TIP3   OH213715   0.550   0.950   2.013  0.2316 -0.1193 -0.4684
 4584TIP3    H113716   0.470   0.967   1.964 -0.4216 -0.7898  0.3504
 4584TIP3    H213717   0.531   0.872   2.065  1.2285  0.0243  0.1380
 4585TIP3   OH213718   1.890   5.519   0.415 -0.2792  0.0095  0.3168
 4585TIP3    H113719   1.945   5.566   0.478 -0.0502 -2.4235  2.0639
 4585TIP3    H213720   1.800   5.540   0.441 -0.2175  1.5322 -0.6035
 4586TIP3   OH213721   2.676   4.175   4.693 -0.9436 -0.2021 -0.2184
 4586TIP3    H113722   2.718   4.151   4.775 -0.2609 -0.7999 -0.7232
 4586TIP3    H213723   2.732   4.244   4.657 -1.5067  0.3982  0.0390
 4587TIP3   OH213724   0.632   2.584   3.045  0.4078  0.2882 -0.3065
 4587TIP3    H113725   0.696   2.648   3.014  3.6474 -2.1828  0.6727
 4587TIP3    H213726   0.657   2.567   3.135 -1.3107 -1.2528 -0.0643
 4588TIP3   OH213727   0.262   3.577   1.062  0.8810 -0.6011  0.3727
 4588TIP3    H113728   0.219   3.545   0.983  0.0183 -0.5325  0.8088
 4588TIP3    H213729   0.354   3.555   1.049  0.5917 -1.5556 -0.1809
 4589TIP3   OH213730   5.061   2.791   3.913  0.0313  0.0687  0.1686
 4589TIP3    H113731   5.018   2.843   3.845 -1.2318 -0.0320  0.8553
 4589TIP3    H213732   5.144   2.765   3.874 -0.0097  1.2441 -0.7869
 4590TIP3   OH213733   1.780   0.666   4.056  0.6017  0.2304  0.3357
 4590TIP3    H113734   1.743   0.734   4.112 -0.0588 -0.0508  0.2559
 4590TIP3    H213735   1.759   0.694   3.967 -0.7214 -0.6440  0.3429
 4591TIP3   OH213736   0.205   1.954   3.502  0.6307 -0.1712 -0.9081
 4591TIP3    H113737   0.141   1.904   3.552 -0.0385  1.3719 -0.1753
 4591TIP3    H213738   0.178   2.045   3.511  1.7641  0.3470 -2.2786
 4592TIP3   OH213739   0.098   2.841   5.061 -0.0430  0.4243 -0.9699
 4592TIP3    H113740   0.153   2.906   5.104  0.4206 -1.1259  0.9388
 4592TIP3    H213741   0.020   2.835   5.116  0.1034 -0.8776 -0.8609
 4593TIP3   OH213742   6.384   4.218   4.018  0.5596  0.2972 -0.4185
 4593TIP3    H113743   6.309   4.224   3.959  0.4641  0.2712 -0.2981
 4593TIP3    H213744   6.368   4.140   4.071  0.8084  0.1288 -0.5851
 4594TIP3   OH213745   5.166   2.801   2.712  0.2424 -0.4424  0.2421
 4594TIP3    H113746   5.124   2.821   2.628 -0.1852 -1.7724  0.1153
 4594TIP3    H213747   5.143   2.875   2.768  0.3573  0.3679 -0.7410
 4595TIP3   OH213748   2.795   5.236   4.993  0.1088 -0.2070  0.0555
 4595TIP3    H113749   2.844   5.266   4.917  0.5669  0.2452  0.5284
 4595TIP3    H213750   2.850   5.257   5.068 -0.7596  0.2299  0.5927
 4596TIP3   OH213751   0.378   2.763   3.452 -0.5818 -0.0289 -0.1707
 4596TIP3    H113752   0.367   2.717   3.369  0.0154  0.2932 -0.4383
 4596TIP3    H213753   0.325   2.842   3.443 -0.7859 -0.1604 -0.1155
 4597TIP3   OH213754   3.633   0.717   3.933 -0.0417  0.3714  0.4862
 4597TIP3    H113755   3.653   0.692   4.023  1.9740  0.5439  0.1256
 4597TIP3    H213756   3.696   0.786   3.912  0.3472 -0.4919 -1.4348
 4598TIP3   OH213757   6.691   1.200   3.467 -0.1068 -0.3711 -0.6025
 4598TIP3    H113758   6.783   1.175   3.473  0.2644  1.1590  1.6094
 4598TIP3    H213759   6.682   1.271   3.531 -2.7484 -0.2388 -1.0181
 4599TIP3   OH213760   1.882   0.214   5.825  0.4198  0.6809 -0.0417
 4599TIP3    H113761   1.935   0.289   5.856  1.0629 -0.0406  0.6565
 4599TIP3    H213762   1.802   0.219   5.877  0.6924  0.5788  0.3961
 4600TIP3   OH213763   1.834   2.679   3.668  0.2655 -0.1107 -0.1799
 4600TIP3    H113764   1.753   2.681   3.618 -0.2048 -1.4578  0.4935
 4600TIP3    H213765   1.816   2.622   3.743  1.6413  0.0595  0.3273
 4601TIP3   OH213766   0.616   5.995   2.886  0.1535  0.0395 -0.4117
 4601TIP3    H113767   0.677   6.066   2.907 -1.8449  1.7294  0.1350
 4601TIP3    H213768   0.562   6.031   2.816  0.5182 -1.8739 -1.7376
 4602TIP3   OH213769   6.582   0.528   0.129 -0.1618 -0.1605 -0.1865
 4602TIP3    H113770   6.530   0.451   0.154 -0.1402 -0.4295 -0.9395
 4602TIP3    H213771   6.579   0.529   0.033  0.0392  0.6456 -0.1911
 4603TIP3   OH213772   4.198   2.218   2.561  0.4887  0.0778  0.0944
 4603TIP3    H113773   4.158   2.305   2.559  2.7597  1.1985  0.4213
 4603TIP3    H213774   4.198   2.190   2.470  1.8040  1.4815 -0.3826
 4604TIP3   OH213775   3.848   0.701   4.850  0.0980  0.5471  0.1110
 4604TIP3    H113776   3.917   0.682   4.786  1.4788  1.0510  1.3909
 4604TIP3    H213777   3.808   0.782   4.819  1.2850  1.2237  0.2614
 4605TIP3   OH213778   7.151   1.082   4.640  0.0516 -0.2210  0.0512
 4605TIP3    H113779   7.231   1.084   4.587 -1.0845  2.5947 -1.7890
 4605TIP3    H213780   7.100   1.010   4.604  2.0647 -2.8572  2.0169
 4606TIP3   OH213781   6.975   3.022   1.364 -0.0857  0.0892 -0.2572
 4606TIP3    H113782   6.999   3.064   1.282 -1.1511  3.2949  0.8976
 4606TIP3    H213783   6.892   3.063   1.389 -0.1988 -1.3382  2.0465
 4607TIP3   OH213784   6.801   1.593   5.231  0.2078 -0.2312  0.2035
 4607TIP3    H113785   6.884   1.636   5.210  0.5715 -1.4923 -1.1540
 4607TIP3    H213786   6.765   1.644   5.304  1.6292  1.0140  0.0908
 4608TIP3   OH213787   1.743   6.583   1.492 -0.3987 -0.0029  1.0560
 4608TIP3    H113788   1.808   6.591   1.422 -0.6103 -0.6470  0.7805
 4608TIP3    H213789   1.791   6.542   1.564 -0.1713  0.6947  1.3055
 4609TIP3   OH213790   0.348   4.593   4.133  0.1876 -0.1777 -0.1770
 4609TIP3    H113791   0.415   4.581   4.066  0.6700  0.2933  0.2257
 4609TIP3    H213792   0.336   4.687   4.139  1.9858 -0.0327  2.2050
 4610TIP3   OH213793   3.709   4.150   1.085  0.1561  0.1533  0.1876
 4610TIP3    H113794   3.676   4.231   1.124 -0.5080 -0.7479  1.5777
 4610TIP3    H213795   3.771   4.116   1.150 -0.4995 -1.0744  0.1983
 4611TIP3   OH213796   2.852   5.634   4.037  0.0113  0.2673 -0.1551
 4611TIP3    H113797   2.935   5.605   4.000  1.7253  2.7811  1.3799
 4611TIP3    H213798   2.817   5.695   3.972 -0.0288  0.1095 -0.2815
 4612TIP3   OH213799   5.366   6.118   4.536 -0.2060  0.0004 -0.2723
 4612TIP3    H113800   5.374   6.203   4.580  0.8300  0.3181 -1.0240
 4612TIP3    H213801   5.295   6.074   4.582 -2.5302  2.2550 -1.4101
 4613TIP3   OH213802   1.967   1.450   4.777  0.1651 -0.4566  0.2489
 4613TIP3    H113803   2.055   1.475   4.807 -0.0730 -1.2283  1.6621
 4613TIP3    H213804   1.977   1.359   4.748 -0.3994 -0.9761  1.5965
 4614TIP3   OH213805   1.133   4.709   2.688 -0.2630 -0.1391 -0.0797
 4614TIP3    H113806   1.059   4.649   2.677 -0.6721  0.0580  1.3712
 4614TIP3    H213807   1.098   4.794   2.665 -0.0391 -0.2619 -0.8997
 4615TIP3   OH213808   7.008   0.082   3.515  0.0800 -0.8796  0.1729
 4615TIP3    H113809   6.916   0.054   3.507 -0.5171  0.9280  0.3764
 4615TIP3    H213810   7.016   0.112   3.605  0.7091 -0.4292 -0.0288
 4616TIP3   OH213811   5.229   4.925   4.694  1.0058 -0.6759 -0.1451
 4616TIP3    H113812   5.295   4.986   4.728  0.7983  0.9043 -2.3924
 4616TIP3    H213813   5.148   4.950   4.739  0.7265  1.4126 -1.6310
 4617TIP3   OH213814   6.584   0.489   0.585 -0.1583  0.2552  0.0532
 4617TIP3    H113815   6.586   0.476   0.680 -0.9694  2.2923  0.3925
 4617TIP3    H213816   6.493   0.506   0.564  0.0706  0.2353 -1.0418
 4618TIP3   OH213817   2.665   1.305   5.531 -0.5412 -0.1768  0.6196
 4618TIP3    H113818   2.583   1.307   5.482 -0.8273  1.1704  1.1138
 4618TIP3    H213819   2.639   1.295   5.622 -0.3069  2.0272  0.9847
 4619TIP3   OH213820   6.094   1.894   0.516  0.1247 -0.1463 -0.3937
 4619TIP3    H113821   6.025   1.880   0.581  0.3276 -2.4105 -0.5858
 4619TIP3    H213822   6.174   1.903   0.567 -0.2269  2.5284 -0.1671
 4620TIP3   OH213823   4.972   1.420   2.624 -0.1997  0.0531  0.2230
 4620TIP3    H113824   5.060   1.449   2.599 -0.9155  0.0574 -2.5466
 4620TIP3    H213825   4.981   1.395   2.716  1.9397  3.0004  0.9914
 4621TIP3   OH213826   4.423   0.306   1.299  0.4400  0.7000  0.0892
 4621TIP3    H113827   4.340   0.352   1.313 -1.0007 -0.4633 -3.4310
 4621TIP3    H213828   4.429   0.244   1.371 -0.8086  2.0212  1.3905
 4622TIP3   OH213829   4.459   2.785   2.490 -0.1231  0.3685 -0.3916
 4622TIP3    H113830   4.505   2.757   2.411  1.1350  0.0199  0.4302
 4622TIP3    H213831   4.398   2.853   2.460 -0.8958 -0.9344 -1.9064
 4623TIP3   OH213832   1.176   1.424   2.072 -0.4348 -0.7706  0.3157
 4623TIP3    H113833   1.099   1.369   2.058 -1.6916  0.6041  1.4314
 4623TIP3    H213834   1.169   1.492   2.005 -1.0092  0.1552  1.2790
 4624TIP3   OH213835   1.051   1.438   4.170  0.0700  0.5364  0.1176
 4624TIP3    H113836   0.997   1.490   4.111  0.7151  1.3150  0.2041
 4624TIP3    H213837   1.141   1.465   4.151  0.4913 -1.0551 -0.3290
 4625TIP3   OH213838   0.191   6.318   3.571  0.6750  0.0477  0.0135
 4625TIP3    H113839   0.128   6.370   3.521  0.8087  0.4418  0.2550
 4625TIP3    H213840   0.230   6.380   3.633  1.4820 -0.1349 -0.2983
 4626TIP3   OH213841   2.990   4.983   1.004  0.1387  0.1432  0.8872
 4626TIP3    H113842   3.052   4.913   1.027  2.2244  1.5025 -0.3273
 4626TIP3    H213843   2.927   4.941   0.946  0.8832 -0.8986  0.8023
 4627TIP3   OH213844   1.147   2.873   2.862 -0.1529 -0.2744  0.0710
 4627TIP3    H113845   1.067   2.827   2.889  0.1182 -0.3671  0.7318
 4627TIP3    H213846   1.137   2.883   2.768  0.0132 -2.1508 -0.1943
 4628TIP3   OH213847   5.454   1.256   5.843 -0.7586  0.4325  0.8352
 4628TIP3    H113848   5.533   1.269   5.791 -1.9072  0.2896 -1.0250
 4628TIP3    H213849   5.487   1.228   5.929  1.2066  0.7402  0.2400
 4629TIP3   OH213850   0.967   0.656   3.944  0.2359  0.1355  0.1060
 4629TIP3    H113851   1.033   0.711   3.901 -0.9889  0.1123 -1.9516
 4629TIP3    H213852   1.017   0.591   3.993  1.7509 -0.0350 -1.5854
 4630TIP3   OH213853   3.393   6.022   5.783  0.0628 -0.1448  0.0016
 4630TIP3    H113854   3.330   5.952   5.768  0.9360 -0.9801  0.1074
 4630TIP3    H213855   3.354   6.099   5.741  0.1371 -1.2284 -2.2264
 4631TIP3   OH213856   1.770   4.260   1.718  0.0400  0.0028 -0.1779
 4631TIP3    H113857   1.711   4.279   1.644  0.7560 -1.9240 -1.3378
 4631TIP3    H213858   1.841   4.324   1.709 -0.1490  0.1321 -0.8449
 4632TIP3   OH213859   2.202   5.877   2.251  0.5456 -0.0769 -0.4523
 4632TIP3    H113860   2.171   5.820   2.181  0.4097  2.2627 -2.4339
 4632TIP3    H213861   2.125   5.928   2.277  1.0609  0.5792 -0.1659
 4633TIP3   OH213862   5.140   0.266   3.547  0.2708  0.5586  0.3992
 4633TIP3    H113863   5.048   0.253   3.527  0.7629 -0.1904 -1.6747
 4633TIP3    H213864   5.161   0.197   3.610  0.1827 -1.6661 -1.8350
 4634TIP3   OH213865   5.000   0.380   1.970  0.3442 -1.0753 -0.2246
 4634TIP3    H113866   4.909   0.386   1.940 -0.3783 -2.1296  1.5494
 4634TIP3    H213867   5.051   0.426   1.904 -1.8826  3.3778  0.7478
 4635TIP3   OH213868   3.021   6.630   0.951  0.2581 -0.5167 -0.2668
 4635TIP3    H113869   2.986   6.542   0.938  2.5521 -1.6860  0.9042
 4635TIP3    H213870   3.086   6.641   0.882  0.6494 -0.1122  0.1579
 4636TIP3   OH213871   3.305   2.938   5.852 -0.1977  0.3581  0.2729
 4636TIP3    H113872   3.252   2.967   5.926 -0.0436  1.8878 -0.1648
 4636TIP3    H213873   3.245   2.937   5.778 -0.4884 -1.7268  0.4758
 4637TIP3   OH213874   5.803   2.707   2.576 -0.2545  0.4631  0.2145
 4637TIP3    H113875   5.793   2.790   2.528 -1.5769  0.5899  0.6654
 4637TIP3    H213876   5.883   2.718   2.626 -0.0824  1.2339 -0.2055
 4638TIP3   OH213877   5.765   6.069   3.683  0.1077  0.5307  0.0606
 4638TIP3    H113878   5.753   6.098   3.593  0.9915 -0.7773 -0.5148
 4638TIP3    H213879   5.836   6.005   3.678 -1.0980 -1.0071  1.3716
 4639TIP3   OH213880   1.945   0.301   2.432 -0.0550 -0.3897 -0.1712
 4639TIP3    H113881   1.942   0.395   2.450  1.0749 -0.3275 -0.2360
 4639TIP3    H213882   1.899   0.260   2.506 -1.4130  0.2566 -0.6330
 4640TIP3   OH213883   4.696   4.051   4.382 -0.2520  0.0806 -0.6434
 4640TIP3    H113884   4.720   4.133   4.426  1.5046 -0.0449 -1.2843
 4640TIP3    H213885   4.766   3.990   4.405  0.2528 -0.2437 -2.8776
 4641TIP3   OH213886   4.015   1.301   3.185  0.0732  0.1960 -0.1020
 4641TIP3    H113887   4.021   1.215   3.226 -0.3008 -0.4072 -1.2685
 4641TIP3    H213888   4.098   1.344   3.208 -0.2972  0.0768  1.6193
 4642TIP3   OH213889   0.647   4.501   2.951 -0.4974  0.7720 -0.2478
 4642TIP3    H113890   0.630   4.419   2.905 -0.4789  1.7139 -2.0726
 4642TIP3    H213891   0.560   4.541   2.961 -0.5545  0.3671  1.0089
 4643TIP3   OH213892   5.630   1.277   2.028  0.5038  0.0685 -0.0260
 4643TIP3    H113893   5.613   1.205   1.967 -2.7268  1.4932 -1.0161
 4643TIP3    H213894   5.624   1.236   2.115 -2.8000 -0.7422 -0.4944
 4644TIP3   OH213895   2.477   0.581   2.898 -0.0174 -0.2552 -0.5541
 4644TIP3    H113896   2.551   0.640   2.881  0.4705 -0.7301 -0.1292
 4644TIP3    H213897   2.518   0.500   2.928 -0.7907  0.2053  1.9175
 4645TIP3   OH213898   5.291   6.289   3.126  0.2296  0.1087  0.2170
 4645TIP3    H113899   5.333   6.277   3.211  1.3392  1.0506 -0.1775
 4645TIP3    H213900   5.357   6.261   3.062 -0.1556  0.5076 -0.3718
 4646TIP3   OH213901   0.100   2.976   1.749  0.3457  0.4735  0.2008
 4646TIP3    H113902   0.040   3.013   1.684  1.2483 -1.2887 -1.7467
 4646TIP3    H213903   0.045   2.917   1.801 -0.0852  0.6582 -0.0359
 4647TIP3   OH213904   2.481   5.910   4.214  0.0552 -0.1282  0.1562
 4647TIP3    H113905   2.388   5.887   4.209  0.1841 -0.5208 -0.4580
 4647TIP3    H213906   2.523   5.833   4.252  0.1752 -0.0579  0.1675
 4648TIP3   OH213907   5.689   1.370   5.749 -0.2248 -0.3538  0.6281
 4648TIP3    H113908   5.719   1.375   5.658 -1.7381 -1.0652  0.0637
 4648TIP3    H213909   5.770   1.370   5.801  0.7284 -1.4640 -0.7829
 4649TIP3   OH213910   1.239   3.129   4.308  0.2856 -0.1820  0.1392
 4649TIP3    H113911   1.221   3.203   4.250  1.9741  0.6679  0.6386
 4649TIP3    H213912   1.246   3.168   4.395 -2.3629 -1.4569  1.0384
 4650TIP3   OH213913   6.351   6.065   3.965 -0.9681 -0.2260  0.0214
 4650TIP3    H113914   6.397   6.051   3.882 -3.3714 -0.6457 -1.3182
 4650TIP3    H213915   6.313   6.153   3.957  0.0671  0.3952  1.3943
 4651TIP3   OH213916   2.032   1.102   0.616  0.1720 -0.2563 -0.0354
 4651TIP3    H113917   2.032   1.096   0.521 -0.0072  1.3968 -0.1851
 4651TIP3    H213918   1.950   1.060   0.643 -0.3441  0.2887 -0.7183
 4652TIP3   OH213919   3.418   5.073   1.024  0.9143  0.2193  0.1538
 4652TIP3    H113920   3.400   5.018   1.100 -0.5719 -0.0461 -0.3658
 4652TIP3    H213921   3.403   5.162   1.055 -0.5854  0.0531 -0.0488
 4653TIP3   OH213922   0.736   2.341   3.411  0.4924  0.4440  0.0546
 4653TIP3    H113923   0.658   2.393   3.430  0.0504 -1.0353  2.7677
 4653TIP3    H213924   0.722   2.308   3.322 -0.4947  2.6278 -0.6706
 4654TIP3   OH213925   5.143   5.439   1.789 -0.0753  0.2030  0.6878
 4654TIP3    H113926   5.094   5.440   1.872 -0.7400  2.2448  0.3428
 4654TIP3    H213927   5.079   5.468   1.724  0.9799  0.6302 -0.1821
 4655TIP3   OH213928   2.017   4.348   4.131  0.0850 -0.0775 -0.0039
 4655TIP3    H113929   1.991   4.259   4.105 -0.8395  1.0367 -3.4340
 4655TIP3    H213930   2.112   4.342   4.142  0.1219 -1.4126 -0.7256
 4656TIP3   OH213931   0.418   5.624   4.544 -0.7832 -0.0418  0.5622
 4656TIP3    H113932   0.456   5.711   4.528  3.6920 -2.1451 -1.9301
 4656TIP3    H213933   0.374   5.601   4.462  0.1698 -1.0189  0.3058
 4657TIP3   OH213934   6.892   3.086   5.893  0.5765  0.1303  0.4132
 4657TIP3    H113935   6.936   3.048   5.817 -2.3887 -1.9362 -0.4402
 4657TIP3    H213936   6.833   3.152   5.856 -1.7350 -1.6739  0.6229
 4658TIP3   OH213937   2.880   4.643   1.066  0.1523 -0.6410  0.3917
 4658TIP3    H113938   2.792   4.609   1.086  0.4601 -0.5374  2.0503
 4658TIP3    H213939   2.911   4.679   1.149  1.3210  0.3703 -0.4534
 4659TIP3   OH213940   1.567   6.429   0.864 -0.0372 -0.6773  0.7799
 4659TIP3    H113941   1.572   6.525   0.863  0.2539 -0.6890 -0.3851
 4659TIP3    H213942   1.650   6.400   0.827 -1.3177 -1.2926 -1.8345
 4660TIP3   OH213943   5.584   0.395   3.230 -0.1484 -0.6820  0.3911
 4660TIP3    H113944   5.556   0.462   3.293  1.8299  1.3373 -0.7427
 4660TIP3    H213945   5.534   0.317   3.255 -2.9641  1.2951  1.4615
 4661TIP3   OH213946   2.423   6.649   2.277 -0.1786 -0.3370  0.1283
 4661TIP3    H113947   2.396   6.738   2.253 -0.6288 -0.8035 -1.1491
 4661TIP3    H213948   2.518   6.656   2.287  0.0594 -0.1102 -1.9160
 4662TIP3   OH213949   3.600   2.638   2.621 -0.3637  0.1842  0.3202
 4662TIP3    H113950   3.546   2.559   2.622  0.1090 -0.1542 -0.1689
 4662TIP3    H213951   3.541   2.708   2.594 -0.6102 -0.1385  0.0280
 4663TIP3   OH213952   1.639   5.693   2.638  0.5970 -0.1595  0.0918
 4663TIP3    H113953   1.731   5.671   2.652  0.4778  0.1288  1.5208
 4663TIP3    H213954   1.638   5.741   2.555  2.0413  1.4869  0.9427
 4664TIP3   OH213955   3.517   5.123   4.868 -0.1064 -0.3374  0.1873
 4664TIP3    H113956   3.586   5.188   4.860 -1.4115  1.2090  0.8974
 4664TIP3    H213957   3.462   5.137   4.791 -1.7594  1.1624  1.5549
 4665TIP3   OH213958   6.928   3.206   0.618  0.0531 -0.2298  0.5069
 4665TIP3    H113959   6.848   3.250   0.648  1.1742  0.9688  1.9064
 4665TIP3    H213960   6.984   3.278   0.588  1.1050 -0.9103  0.7948
 4666TIP3   OH213961   0.543   2.760   5.556 -0.0995 -0.3009 -0.0030
 4666TIP3    H113962   0.570   2.671   5.534 -3.0271 -1.0047 -1.2215
 4666TIP3    H213963   0.624   2.811   5.554  1.6438 -2.8458  0.5455
 4667TIP3   OH213964   0.525   3.790   2.858  0.2864 -0.9822  0.1128
 4667TIP3    H113965   0.556   3.699   2.861 -0.5523 -1.2935 -0.1636
 4667TIP3    H213966   0.572   3.829   2.785  0.8976 -1.0983  0.4424
 4668TIP3   OH213967   4.492   4.388   4.088  0.4039  0.3796 -0.1218
 4668TIP3    H113968   4.521   4.299   4.067  0.1996  0.3235 -0.1726
 4668TIP3    H213969   4.438   4.414   4.013  0.0042  0.3322  0.1433
 4669TIP3   OH213970   4.850   5.193   4.918 -0.7428 -0.5256  0.0711
 4669TIP3    H113971   4.845   5.274   4.867  1.8832 -1.4500 -1.8592
 4669TIP3    H213972   4.867   5.222   5.008  2.0471  1.1513 -0.8706
 4670TIP3   OH213973   6.556   5.401   2.813 -0.0809  0.0953 -0.3129
 4670TIP3    H113974   6.491   5.364   2.752  0.1830 -1.5078  0.3212
 4670TIP3    H213975   6.517   5.388   2.899  1.3471 -1.5465  0.1333
 4671TIP3   OH213976   0.766   1.824   2.932 -0.0518 -0.2531  0.0838
 4671TIP3    H113977   0.836   1.792   2.989 -1.3572 -0.7115  1.5025
 4671TIP3    H213978   0.812   1.862   2.857  1.6639 -2.0559  0.1314
 4672TIP3   OH213979   4.299   4.555   4.787  0.3012  0.5962 -0.1197
 4672TIP3    H113980   4.320   4.538   4.695  0.7560  0.1208  0.0668
 4672TIP3    H213981   4.273   4.647   4.789  1.1898  0.8765 -0.5821
 4673TIP3   OH213982   3.518   5.612   5.621  0.2762  0.0762 -0.3858
 4673TIP3    H113983   3.489   5.655   5.541  1.4910  0.4261 -0.6534
 4673TIP3    H213984   3.527   5.520   5.596 -0.1901  0.0323 -0.4055
 4674TIP3   OH213985   1.986   3.315   3.963 -0.3594 -0.1296 -0.3347
 4674TIP3    H113986   1.920   3.305   4.031 -0.8123  0.6127 -0.6477
 4674TIP3    H213987   2.068   3.285   4.003 -0.4348  1.1689  0.8678
 4675TIP3   OH213988   6.544   0.768   1.127 -0.5362  0.5166  0.5339
 4675TIP3    H113989   6.496   0.703   1.179 -0.2529 -0.4152 -0.3262
 4675TIP3    H213990   6.506   0.852   1.152 -3.4771 -0.2355 -0.9114
 4676TIP3   OH213991   6.183   0.470   4.411  0.0438  0.4288 -0.3371
 4676TIP3    H113992   6.167   0.490   4.503 -0.4782  0.5625 -0.4535
 4676TIP3    H213993   6.097   0.475   4.370  0.1448 -0.4364 -0.6782
 4677TIP3   OH213994   2.365   1.661   3.378  0.1133 -0.1544 -0.6596
 4677TIP3    H113995   2.360   1.582   3.325  1.1932 -0.7881  0.1345
 4677TIP3    H213996   2.359   1.733   3.316 -1.2558 -0.8422 -1.3628
 4678TIP3   OH213997   5.094   3.212   4.158 -0.2626  0.0836 -0.0565
 4678TIP3    H113998   5.152   3.144   4.124  1.5877  1.4025  0.3223
 4678TIP3    H213999   5.094   3.200   4.253 -0.4524  0.2275 -0.0365
 4679TIP3   OH214000   1.421   3.349   3.815 -0.1508 -0.3775  0.3703
 4679TIP3    H114001   1.396   3.387   3.731  0.5286 -0.2667  0.2163
 4679TIP3    H214002   1.398   3.256   3.808  1.5288 -0.7390 -0.5921
 4680TIP3   OH214003   0.551   1.371   3.569  0.4959  0.1436  0.2338
 4680TIP3    H114004   0.516   1.293   3.527  0.6176 -0.5615  1.3907
 4680TIP3    H214005   0.589   1.423   3.497 -0.8603 -0.1596 -0.7238
 4681TIP3   OH214006   1.502   0.604   3.204 -0.0298 -0.0332 -0.0975
 4681TIP3    H114007   1.509   0.691   3.245  0.5652  0.3283 -0.9310
 4681TIP3    H214008   1.413   0.575   3.224  0.0695  0.3649  0.9762
 4682TIP3   OH214009   2.674   0.961   0.606 -0.3842  0.3147  0.1840
 4682TIP3    H114010   2.616   1.029   0.641  0.7114  2.4880 -1.9834
 4682TIP3    H214011   2.715   1.001   0.530  2.0975 -2.0208  0.1611
 4683TIP3   OH214012   3.635   5.773   2.505  0.0017 -0.0804  0.0401
 4683TIP3    H114013   3.725   5.752   2.529  0.1237 -0.0273 -0.3544
 4683TIP3    H214014   3.596   5.688   2.485  0.5823  0.0419 -1.8504
 4684TIP3   OH214015   4.200   6.075   0.052  0.0113 -0.1484  0.0186
 4684TIP3    H114016   4.281   6.125   0.061 -0.0262  0.0436 -0.6410
 4684TIP3    H214017   4.138   6.120   0.109  0.1789  0.1171 -0.0074
 4685TIP3   OH214018   2.072   2.113   0.695 -0.1721 -0.7034 -0.2469
 4685TIP3    H114019   2.002   2.047   0.697 -1.2774  0.2949 -2.3294
 4685TIP3    H214020   2.095   2.127   0.787 -2.4809 -1.3304  0.4906
 4686TIP3   OH214021   3.826   0.693   5.361 -0.4919  0.2673  0.6312
 4686TIP3    H114022   3.787   0.670   5.276  0.9534  0.6151 -0.1563
 4686TIP3    H214023   3.781   0.773   5.387  0.8228  1.6821 -1.1271
 4687TIP3   OH214024   1.881   4.514   0.543 -0.3444  0.0094 -0.0513
 4687TIP3    H114025   1.954   4.514   0.482 -0.4169  0.7233 -0.1440
 4687TIP3    H214026   1.808   4.475   0.494  0.0205 -0.9122  0.1145
 4688TIP3   OH214027   5.768   2.848   4.753  0.5297  0.7011 -0.0949
 4688TIP3    H114028   5.691   2.800   4.723 -0.2422 -0.7221  3.6084
 4688TIP3    H214029   5.736   2.935   4.776 -0.5830 -0.3731  3.0186
 4689TIP3   OH214030   5.392   5.592   4.334  0.2888 -0.0866  0.4825
 4689TIP3    H114031   5.473   5.640   4.351  0.2857 -0.5239  1.8041
 4689TIP3    H214032   5.339   5.606   4.412 -0.1984 -1.2423  0.3824
 4690TIP3   OH214033   4.550   4.174   2.050 -0.5549 -0.0311  0.2115
 4690TIP3    H114034   4.476   4.122   2.082 -0.2773  0.2957  1.4014
 4690TIP3    H214035   4.614   4.173   2.121  0.6169 -0.3198 -0.7976
 4691TIP3   OH214036   4.117   2.830   2.393 -0.1118  0.2495  0.6390
 4691TIP3    H114037   4.045   2.858   2.337 -0.3439  2.2317  1.8298
 4691TIP3    H214038   4.174   2.907   2.400 -0.3041  0.2305  3.3704
 4692TIP3   OH214039   4.788   5.782   4.168 -0.6904  0.1505  0.1640
 4692TIP3    H114040   4.749   5.738   4.244 -3.0853 -1.9892 -2.0923
 4692TIP3    H214041   4.720   5.841   4.137 -1.2624 -1.5937 -2.2456
 4693TIP3   OH214042   6.645   6.260   4.678  0.1260 -0.1051  0.4511
 4693TIP3    H114043   6.642   6.249   4.583  0.5262  0.0249  0.4249
 4693TIP3    H214044   6.699   6.337   4.693  0.9704 -0.7580  0.8293
 4694TIP3   OH214045   3.588   5.059   2.781  0.1592 -0.2250 -0.4894
 4694TIP3    H114046   3.513   5.002   2.797 -0.1806  0.1115 -0.8637
 4694TIP3    H214047   3.551   5.146   2.773  0.6886  0.0678  0.1591
 4695TIP3   OH214048   2.944   0.570   5.557  0.8346 -0.0146 -0.3902
 4695TIP3    H114049   2.936   0.511   5.482  3.4782 -0.9110 -0.0526
 4695TIP3    H214050   2.901   0.651   5.529 -1.3676 -1.4580 -1.5077
 4696TIP3   OH214051   3.328   6.330   3.962 -0.3482 -0.8167  0.0049
 4696TIP3    H114052   3.418   6.301   3.946  0.1509  1.1562 -1.1870
 4696TIP3    H214053   3.290   6.337   3.874 -0.9500  0.4568  0.3499
 4697TIP3   OH214054   1.859   1.503   3.546  0.4712 -0.2422  0.4394
 4697TIP3    H114055   1.880   1.587   3.505 -1.0653  0.0988  0.2565
 4697TIP3    H214056   1.774   1.518   3.589  0.6283 -1.4359  1.2176
 4698TIP3   OH214057   6.376   2.475   4.400  0.1864  0.0691 -0.1689
 4698TIP3    H114058   6.315   2.470   4.326 -2.1915 -1.3823  1.7603
 4698TIP3    H214059   6.447   2.415   4.375 -1.4274 -1.7636 -0.6215
 4699TIP3   OH214060   6.681   2.795   1.220 -0.2048  0.3993 -1.0848
 4699TIP3    H114061   6.623   2.751   1.158 -0.1179 -3.0165  0.9860
 4699TIP3    H214062   6.769   2.769   1.194 -0.0636  0.2809 -0.4990
 4700TIP3   OH214063   6.110   1.069   3.301  0.5685  0.3613  0.2135
 4700TIP3    H114064   6.160   1.136   3.348 -0.1924 -0.6923  2.7249
 4700TIP3    H214065   6.164   0.991   3.307 -1.2042 -0.8014  2.9844
 4701TIP3   OH214066   5.755   3.259   0.089 -0.6513  0.1787  0.2765
 4701TIP3    H114067   5.850   3.264   0.088 -0.6691  0.5121 -0.8407
 4701TIP3    H214068   5.726   3.336   0.040 -1.5639  1.2024  2.2632
 4702TIP3   OH214069   3.335   2.342   5.617 -0.1861 -0.3972  0.3515
 4702TIP3    H114070   3.336   2.247   5.608  0.9157 -0.2337 -1.9592
 4702TIP3    H214071   3.428   2.367   5.617 -0.3780  0.5842  2.8669
 4703TIP3   OH214072   4.745   5.057   5.237  0.3312 -0.3767  0.0709
 4703TIP3    H114073   4.762   5.024   5.325  0.6669 -1.3869 -0.3665
 4703TIP3    H214074   4.810   5.126   5.224 -1.0699  1.2884  1.3981
 4704TIP3   OH214075   3.280   3.953   3.470  0.2182 -0.5838 -0.3264
 4704TIP3    H114076   3.321   3.959   3.556  0.7576  1.3758 -0.6761
 4704TIP3    H214077   3.195   3.913   3.487  1.0065 -1.8341  0.8494
 4705TIP3   OH214078   2.386   0.798   5.154 -0.2971  0.4283  0.0989
 4705TIP3    H114079   2.357   0.711   5.127  0.7457 -0.1437  0.7589
 4705TIP3    H214080   2.314   0.832   5.207 -1.4246  0.6734 -1.5230
 4706TIP3   OH214081   1.522   2.224   4.627  1.1353  0.4059  0.1325
 4706TIP3    H114082   1.488   2.256   4.544  2.6431  1.8699  0.0222
 4706TIP3    H214083   1.524   2.128   4.617 -1.5247  0.3138 -0.3265
 4707TIP3   OH214084   1.172   5.063   5.369  0.1187 -0.6671 -0.1696
 4707TIP3    H114085   1.184   4.968   5.369 -0.1204 -0.6971 -0.3275
 4707TIP3    H214086   1.082   5.076   5.340 -0.2795 -0.4324  1.1226
 4708TIP3   OH214087   5.722   3.219   3.432 -0.2016  0.2570 -0.3633
 4708TIP3    H114088   5.765   3.228   3.517 -0.4926 -0.3456 -0.1429
 4708TIP3    H214089   5.699   3.308   3.406  0.9243  0.5569 -0.3589
 4709TIP3   OH214090   0.743   2.283   1.281  0.0638 -0.0485 -0.2391
 4709TIP3    H114091   0.806   2.214   1.300 -0.7901 -0.3904  1.6465
 4709TIP3    H214092   0.678   2.241   1.224 -1.1534 -1.2789  1.9376
 4710TIP3   OH214093   3.897   0.884   3.243 -0.4690  0.2907 -0.0920
 4710TIP3    H114094   3.826   0.875   3.306  0.2461 -0.4273  0.6297
 4710TIP3    H214095   3.903   0.798   3.201  1.1297 -0.2484  1.1349
 4711TIP3   OH214096   1.150   0.474   4.072  0.3373 -0.6436 -0.0959
 4711TIP3    H114097   1.116   0.408   4.012  0.1355 -1.7523  1.1954
 4711TIP3    H214098   1.236   0.441   4.098  2.2582  1.7306 -2.7039
 4712TIP3   OH214099   5.773   0.797   3.350  0.2955 -0.6599 -0.0695
 4712TIP3    H114100   5.791   0.884   3.315  1.7392 -1.2093 -0.7833
 4712TIP3    H214101   5.729   0.813   3.433 -0.2980  0.7268 -0.6247
 4713TIP3   OH214102   4.261   0.443   3.787 -0.1664  0.2468 -0.2243
 4713TIP3    H114103   4.168   0.424   3.770 -0.4903  1.9237 -0.5069
 4713TIP3    H214104   4.285   0.385   3.858 -1.2803 -0.6182 -0.5271
 4714TIP3   OH214105   5.669   6.409   1.728  0.1686  0.1149  0.2523
 4714TIP3    H114106   5.763   6.390   1.719  0.6346  2.2237 -0.0039
 4714TIP3    H214107   5.628   6.359   1.658  1.0272 -1.2285  0.6728
 4715TIP3   OH214108   3.877   1.854   2.079 -0.0608  0.0505  0.5066
 4715TIP3    H114109   3.876   1.948   2.062 -0.6310  0.0026  0.2633
 4715TIP3    H214110   3.792   1.823   2.048 -0.2304 -0.4030  1.3768
 4716TIP3   OH214111   0.341   4.394   2.055 -0.3528  0.2660 -0.3902
 4716TIP3    H114112   0.327   4.358   2.142  0.2030 -0.9788 -0.7963
 4716TIP3    H214113   0.311   4.326   1.995  0.0507  0.7595 -1.1811
 4717TIP3   OH214114   4.779   0.341   1.825  0.3643 -0.1796 -0.9353
 4717TIP3    H114115   4.697   0.307   1.862  0.7206  0.2120  0.2815
 4717TIP3    H214116   4.763   0.435   1.814  0.4562 -0.1995 -1.2324
 4718TIP3   OH214117   2.704   1.520   3.193  0.0467  0.0214 -0.5882
 4718TIP3    H114118   2.639   1.454   3.168  0.3905 -0.0307 -1.3875
 4718TIP3    H214119   2.712   1.510   3.288 -0.7439 -0.3053 -0.5398
 4719TIP3   OH214120   5.915   6.252   1.893 -0.1399  0.2171 -0.0189
 4719TIP3    H114121   5.874   6.327   1.938 -2.1335 -0.4224 -0.6701
 4719TIP3    H214122   5.922   6.185   1.961 -2.9661 -0.6782 -0.5081
 4720TIP3   OH214123   4.759   1.570   3.529 -0.6057  0.1348  0.2538
 4720TIP3    H114124   4.683   1.570   3.472  0.4570 -0.3292 -1.2337
 4720TIP3    H214125   4.817   1.636   3.491  1.0834 -1.7439 -0.6358
 4721TIP3   OH214126   0.304   3.724   2.396  0.9390 -0.7035  0.4200
 4721TIP3    H114127   0.246   3.741   2.471  0.0429 -0.4456 -0.3078
 4721TIP3    H214128   0.369   3.794   2.400 -0.0432  0.2660  0.0671
 4722TIP3   OH214129   5.242   1.821   0.763  0.3160 -0.0708 -0.0202
 4722TIP3    H114130   5.197   1.861   0.837 -0.8970  0.1863 -0.8738
 4722TIP3    H214131   5.334   1.843   0.777 -0.0190  0.8430  0.8602
 4723TIP3   OH214132   4.398   5.677   0.826  0.4645  0.3181 -0.0210
 4723TIP3    H114133   4.460   5.706   0.759 -1.0907 -0.4448 -1.8749
 4723TIP3    H214134   4.414   5.583   0.835 -1.1100 -0.1161 -1.3472
 4724TIP3   OH214135   4.804   6.003   0.723  0.3267 -0.8706  0.5265
 4724TIP3    H114136   4.720   5.957   0.722 -0.4852  0.5581  0.2306
 4724TIP3    H214137   4.800   6.062   0.648  1.8652 -1.1891  0.1510
 4725TIP3   OH214138   4.910   0.408   0.260 -0.1554  0.2488  0.5131
 4725TIP3    H114139   4.842   0.353   0.222 -2.4047  4.1956 -1.7753
 4725TIP3    H214140   4.979   0.411   0.193 -1.3694  2.3138 -0.7672
 4726TIP3   OH214141   6.918   3.850   4.983 -0.1311  0.3711  0.1529
 4726TIP3    H114142   6.983   3.900   4.934 -2.0729  0.8928 -2.1382
 4726TIP3    H214143   6.871   3.915   5.035 -0.7064  0.4838 -0.4943
 4727TIP3   OH214144   5.159   5.481   4.549 -0.4323 -0.8152  0.0033
 4727TIP3    H114145   5.218   5.413   4.583 -0.1993 -1.0095 -0.7623
 4727TIP3    H214146   5.108   5.508   4.624  2.1567  0.9624  1.2893
 4728TIP3   OH214147   6.413   0.381   2.416  0.0024  0.0235  0.1904
 4728TIP3    H114148   6.384   0.425   2.496 -0.2530 -2.5630  1.6463
 4728TIP3    H214149   6.503   0.353   2.435 -0.3042 -1.2473 -0.0819
 4729TIP3   OH214150   3.380   6.425   5.699 -0.0839  0.0508  0.0070
 4729TIP3    H114151   3.444   6.448   5.766  0.9753 -1.7775 -0.3166
 4729TIP3    H214152   3.414   6.345   5.660 -1.3602  0.3353 -1.8195
 4730TIP3   OH214153   2.347   4.602   4.838 -0.2765  0.3843 -0.7200
 4730TIP3    H114154   2.322   4.543   4.909  1.0384  1.0396  0.3242
 4730TIP3    H214155   2.342   4.690   4.876 -0.5886  0.8280 -1.7537
 4731TIP3   OH214156   6.382   6.063   4.492 -0.4262 -0.3423  0.0986
 4731TIP3    H114157   6.396   5.973   4.466  1.6156 -0.4258  1.3090
 4731TIP3    H214158   6.378   6.112   4.410  1.4957 -1.1433 -0.5188
 4732TIP3   OH214159   5.242   0.967   4.471  0.0341  0.4466  0.1519
 4732TIP3    H114160   5.196   0.903   4.524 -0.7818  0.1935 -0.8333
 4732TIP3    H214161   5.330   0.971   4.509 -0.6692  0.7062  1.8635
 4733TIP3   OH214162   3.405   2.182   5.228  0.4152  0.8960 -0.3618
 4733TIP3    H114163   3.465   2.153   5.297  0.7987 -0.3947 -1.2171
 4733TIP3    H214164   3.339   2.233   5.275 -0.1489 -1.1372  1.2259
 4734TIP3   OH214165   1.465   0.833   1.960  0.4328 -0.2808  0.0938
 4734TIP3    H114166   1.432   0.751   1.998 -0.9931  0.1780 -0.1104
 4734TIP3    H214167   1.459   0.819   1.865 -0.7674  0.4078  0.0524
 4735TIP3   OH214168   2.391   0.663   3.786  0.5848 -0.3999 -0.1755
 4735TIP3    H114169   2.432   0.580   3.763  0.6036 -0.3887 -0.1819
 4735TIP3    H214170   2.307   0.638   3.825  0.2127 -0.3930 -0.9487
 4736TIP3   OH214171   3.396   4.385   3.452  0.1015  0.0432 -0.2292
 4736TIP3    H114172   3.331   4.319   3.430 -0.7035  1.4206 -2.3516
 4736TIP3    H214173   3.386   4.452   3.384  2.3744  1.2867  0.5533
 4737TIP3   OH214174   1.640   4.616   5.586  0.0260 -0.7762 -0.4735
 4737TIP3    H114175   1.556   4.654   5.610 -1.0986 -3.3415  0.0343
 4737TIP3    H214176   1.634   4.601   5.491  0.9310  1.2232 -0.8969
 4738TIP3   OH214177   5.991   0.953   1.668 -0.1485 -0.6741  0.6986
 4738TIP3    H114178   5.936   0.991   1.737  0.4224  2.2052 -0.2646
 4738TIP3    H214179   6.075   0.935   1.712 -0.0069  0.4822  0.9401
 4739TIP3   OH214180   3.432   6.278   2.842  0.1275 -0.1769 -0.5236
 4739TIP3    H114181   3.444   6.373   2.843  0.3555 -0.1961 -1.0317
 4739TIP3    H214182   3.506   6.244   2.892 -0.6766 -0.0315  0.8355
 4740TIP3   OH214183   3.416   1.346   5.079 -0.2432 -0.0195  0.3747
 4740TIP3    H114184   3.409   1.253   5.055 -1.2087 -0.6984  3.0048
 4740TIP3    H214185   3.497   1.351   5.130 -0.7304  0.3771  1.1138
 4741TIP3   OH214186   4.261   5.834   2.912  0.0529 -0.3586  0.8553
 4741TIP3    H114187   4.329   5.767   2.920 -1.9561 -2.6771 -0.0374
 4741TIP3    H214188   4.264   5.860   2.820 -0.3782 -0.5964  0.7745
 4742TIP3   OH214189   4.815   6.111   4.085 -0.2957  0.4036 -0.4736
 4742TIP3    H114190   4.866   6.188   4.111  0.4044 -0.6187  1.3850
 4742TIP3    H214191   4.748   6.146   4.025  0.5345  2.2949 -0.3893
 4743TIP3   OH214192   1.129   6.719   2.470  0.0271 -0.4682 -0.4209
 4743TIP3    H114193   1.037   6.705   2.447  0.4398 -1.3350 -1.6699
 4743TIP3    H214194   1.139   6.680   2.557 -0.5726 -1.2519 -0.6930
 4744TIP3   OH214195   3.256   2.900   4.034  0.2090  0.6332 -0.1962
 4744TIP3    H114196   3.296   2.870   3.953 -1.6028 -0.1248 -0.8555
 4744TIP3    H214197   3.260   2.825   4.093 -1.9368 -0.1507 -0.9487
 4745TIP3   OH214198   2.092   3.555   3.883 -0.0202 -0.6848 -0.1991
 4745TIP3    H114199   2.041   3.490   3.932 -0.7996 -2.0377 -2.6587
 4745TIP3    H214200   2.039   3.635   3.889 -1.0512 -1.3355 -0.4060
 4746TIP3   OH214201   0.464   6.147   2.708  0.5206  0.1108  0.2556
 4746TIP3    H114202   0.468   6.208   2.634 -1.0947 -0.3288 -0.2401
 4746TIP3    H214203   0.377   6.161   2.745  0.2537 -1.6069  0.3592
 4747TIP3   OH214204   1.553   3.302   0.224 -0.4061 -0.5837  0.7285
 4747TIP3    H114205   1.554   3.347   0.139 -1.3076  0.3581  1.2052
 4747TIP3    H214206   1.515   3.217   0.204 -1.0383 -0.2008  0.2654
 4748TIP3   OH214207   0.979   3.757   1.704  0.0675 -0.3741 -0.3249
 4748TIP3    H114208   1.054   3.816   1.707 -0.9541  1.0597  3.2348
 4748TIP3    H214209   0.994   3.701   1.628  3.8938  0.8762 -0.6808
 4749TIP3   OH214210   5.360   0.886   0.464 -0.1147 -0.4860 -0.2245
 4749TIP3    H114211   5.443   0.870   0.509 -0.0079  0.4609 -0.0786
 4749TIP3    H214212   5.294   0.847   0.521  0.2974 -2.2169 -0.8581
 4750TIP3   OH214213   3.080   0.865   0.708  0.0567 -0.3050 -1.1315
 4750TIP3    H114214   3.173   0.885   0.722  0.0797 -0.7188 -0.6451
 4750TIP3    H214215   3.046   0.942   0.662  0.2454  0.6249  0.2272
 4751TIP3   OH214216   0.943   5.547   4.590 -0.0704  0.1851 -0.5506
 4751TIP3    H114217   0.884   5.606   4.542  1.4486  1.1713 -1.2874
 4751TIP3    H214218   0.905   5.542   4.678 -0.2487  2.3241 -0.4503
 4752TIP3   OH214219   5.156   4.811   3.810 -0.3205 -0.0066  0.0083
 4752TIP3    H114220   5.176   4.870   3.737 -1.1853 -2.2150 -2.1816
 4752TIP3    H214221   5.162   4.723   3.772  0.2030 -1.3433  2.9101
 4753TIP3   OH214222   1.079   3.919   1.092  0.4179 -0.1106 -0.7134
 4753TIP3    H114223   1.052   3.943   1.004  1.0973 -4.1433 -2.2116
 4753TIP3    H214224   1.169   3.889   1.082  0.6567 -0.2827  1.4540
 4754TIP3   OH214225   4.821   5.627   5.675  0.0775 -0.3094  0.1043
 4754TIP3    H114226   4.878   5.654   5.603 -0.5720  2.3943  0.4850
 4754TIP3    H214227   4.881   5.603   5.745  0.7055 -1.5264 -0.8068
 4755TIP3   OH214228   4.949   0.444   4.193  0.2092 -0.0789  0.2779
 4755TIP3    H114229   4.918   0.504   4.125  2.2841  0.2744 -0.4365
 4755TIP3    H214230   4.913   0.358   4.168 -1.6061  0.5813  0.5148
 4756TIP3   OH214231   0.026   6.287   0.303 -0.2820  0.2188  0.2713
 4756TIP3    H114232  -0.016   6.362   0.260 -0.4478 -0.4497 -0.7740
 4756TIP3    H214233   0.002   6.212   0.249  0.6688 -0.4577  0.7596
 4757TIP3   OH214234   1.970   3.570   1.288 -0.4221  0.2321  0.5329
 4757TIP3    H114235   1.914   3.499   1.320  1.9614 -0.5192  3.5444
 4757TIP3    H214236   2.048   3.526   1.256  0.5937  1.4125  1.2971
 4758TIP3   OH214237   3.702   3.300   1.612  0.2019  0.4659  0.3397
 4758TIP3    H114238   3.750   3.284   1.531 -0.5056  0.3890 -0.0722
 4758TIP3    H214239   3.753   3.256   1.680  1.3421  1.3861  0.0973
 4759TIP3   OH214240   3.989   5.488   1.173 -0.1922  0.5325  0.0866
 4759TIP3    H114241   3.961   5.442   1.253 -0.5510  1.7357  0.6755
 4759TIP3    H214242   4.007   5.418   1.111 -1.7486 -0.3929  0.6089
 4760TIP3   OH214243   6.716   3.911   4.082 -0.0593 -0.1771 -0.2194
 4760TIP3    H114244   6.771   3.957   4.146  0.1827  1.1130 -1.3155
 4760TIP3    H214245   6.643   3.876   4.133  0.5486  0.1306  0.8840
 4761TIP3   OH214246   3.610   2.393   3.079  0.2182 -0.3273 -0.0778
 4761TIP3    H114247   3.555   2.348   3.016 -0.1065  0.2456 -0.2079
 4761TIP3    H214248   3.699   2.378   3.048  0.2637 -2.3026  0.8072
 4762TIP3   OH214249   4.369   4.409   1.592  0.2715 -0.1220 -0.0592
 4762TIP3    H114250   4.433   4.349   1.630  0.8297  0.8344  0.5525
 4762TIP3    H214251   4.315   4.437   1.666 -0.5843 -0.5783 -0.4991
 4763TIP3   OH214252   4.060   0.955   4.845  0.6898  0.2019 -0.3285
 4763TIP3    H114253   4.040   0.978   4.936  0.3151  0.9566 -0.5968
 4763TIP3    H214254   4.100   0.868   4.851  1.2776  0.5196  0.6212
 4764TIP3   OH214255   0.690   3.954   4.092 -0.1395 -0.0059 -0.7049
 4764TIP3    H114256   0.780   3.986   4.092 -1.3543  4.1012  1.4296
 4764TIP3    H214257   0.683   3.901   4.171  0.3112  0.0457 -0.6287
 4765TIP3   OH214258   3.150   1.597   4.598  0.4786  0.0683 -0.6000
 4765TIP3    H114259   3.055   1.603   4.585 -0.2869 -0.3927  3.4391
 4765TIP3    H214260   3.184   1.677   4.558 -1.9632  1.4986 -0.0523
 4766TIP3   OH214261   0.617   0.099   0.756  0.2913 -0.2261 -0.0489
 4766TIP3    H114262   0.532   0.056   0.762 -0.0143  0.1444 -1.4115
 4766TIP3    H214263   0.630   0.114   0.663  0.7421  1.9383  0.2952
 4767TIP3   OH214264   0.411   3.960   2.261 -0.2418 -0.3267 -0.0201
 4767TIP3    H114265   0.482   4.008   2.303 -0.6173 -1.1859  1.7152
 4767TIP3    H214266   0.451   3.878   2.231 -0.7442 -1.6843  2.6527
 4768TIP3   OH214267   4.259   0.613   5.127 -0.6185 -0.0010 -0.4391
 4768TIP3    H114268   4.224   0.696   5.160 -2.1947 -0.7349 -0.1934
 4768TIP3    H214269   4.293   0.568   5.204  0.4626  0.4971 -0.6076
 4769TIP3   OH214270   6.608   2.269   3.650  0.1844 -0.5990  0.1506
 4769TIP3    H114271   6.522   2.238   3.621 -0.0634 -0.1951  0.4388
 4769TIP3    H214272   6.613   2.359   3.617  0.3683 -0.5199  0.3918
 4770TIP3   OH214273   4.703   0.266   4.443  0.1098 -0.4621  0.3595
 4770TIP3    H114274   4.704   0.218   4.360 -0.1475  0.1921 -0.0327
 4770TIP3    H214275   4.754   0.212   4.503  0.9285 -0.5881 -0.4303
 4771TIP3   OH214276   7.089   3.826   2.461 -0.1046  0.4299 -0.0851
 4771TIP3    H114277   7.112   3.762   2.394 -1.1374 -0.0677  0.0337
 4771TIP3    H214278   7.011   3.792   2.503  1.1530  0.1127  2.2077
 4772TIP3   OH214279   4.861   5.202   2.203  0.8439 -0.6117 -0.3576
 4772TIP3    H114280   4.870   5.152   2.121  0.2854  0.9591 -1.4182
 4772TIP3    H214281   4.831   5.288   2.175 -1.7209 -0.7345  1.6888
 4773TIP3   OH214282   6.177   4.302   2.698 -0.7508  0.1179 -0.1670
 4773TIP3    H114283   6.195   4.292   2.791 -0.4665  0.6274 -0.1661
 4773TIP3    H214284   6.261   4.322   2.658 -0.9259  0.2252 -0.4898
 4774TIP3   OH214285   5.143   1.234   2.244 -0.1232 -0.3538 -0.7369
 4774TIP3    H114286   5.050   1.258   2.247 -0.1463 -0.3805 -1.2588
 4774TIP3    H214287   5.163   1.226   2.151  0.1251 -1.4265 -0.6064
 4775TIP3   OH214288   3.440   0.545   4.847 -1.0830  0.1122 -0.0905
 4775TIP3    H114289   3.530   0.528   4.818 -1.3467 -0.7676 -0.4343
 4775TIP3    H214290   3.441   0.635   4.878 -0.6544  1.0143 -2.4608
 4776TIP3   OH214291   3.656   5.892   4.519 -0.6008 -0.2937  0.0755
 4776TIP3    H114292   3.626   5.876   4.609  1.4630  1.4437  1.1746
 4776TIP3    H214293   3.578   5.884   4.466 -2.2556  0.3700  2.2537
 4777TIP3   OH214294   0.661   4.114   2.390 -0.2329 -0.4135  0.7010
 4777TIP3    H114295   0.732   4.072   2.342  0.3798  1.2964  0.0436
 4777TIP3    H214296   0.698   4.196   2.422 -1.5975  0.0149  1.2793
 4778TIP3   OH214297   0.616   1.984   2.731 -0.2415 -0.5031 -0.1667
 4778TIP3    H114298   0.527   1.962   2.704 -1.0333  0.8083  1.1527
 4778TIP3    H214299   0.672   1.950   2.662 -1.8033 -0.9679 -1.2582
 4779TIP3   OH214300   3.412   0.122   1.771 -0.0329  0.0928  0.0404
 4779TIP3    H114301   3.423   0.215   1.752 -0.4746  0.5248  1.6948
 4779TIP3    H214302   3.476   0.104   1.840 -0.1129 -0.7833 -0.1004
 4780TIP3   OH214303   5.698   3.727   3.399  0.4635 -0.2980 -0.4557
 4780TIP3    H114304   5.693   3.823   3.398  3.6778  0.1292  2.9049
 4780TIP3    H214305   5.627   3.700   3.457  0.7032  0.2523  0.1087
 4781TIP3   OH214306   6.369   1.942   3.764  0.0921 -0.1732 -0.3421
 4781TIP3    H114307   6.455   1.902   3.778 -0.1496 -0.6769 -0.2822
 4781TIP3    H214308   6.318   1.914   3.840 -0.3266 -0.4340 -0.7181
 4782TIP3   OH214309   4.181   4.823   4.827  0.2581 -0.3341 -0.4126
 4782TIP3    H114310   4.087   4.829   4.842  0.1336 -0.6034 -1.0463
 4782TIP3    H214311   4.221   4.864   4.903 -0.4194  3.2253 -1.7795
 4783TIP3   OH214312   1.142   3.739   2.255  0.6399 -0.6111  0.2243
 4783TIP3    H114313   1.144   3.805   2.186 -1.8073 -1.1146 -0.3887
 4783TIP3    H214314   1.155   3.789   2.336  1.6419  0.2155 -0.4152
 4784TIP3   OH214315   1.597   3.683   5.345 -0.1347 -0.1660 -0.0401
 4784TIP3    H114316   1.582   3.750   5.279  0.9875  1.8582  1.6103
 4784TIP3    H214317   1.692   3.685   5.359 -0.4317  0.2973  2.3472
 4785TIP3   OH214318   1.584   4.611   3.225  0.2239 -0.5380 -0.0912
 4785TIP3    H114319   1.579   4.676   3.155  0.3918  1.1497  1.3633
 4785TIP3    H214320   1.508   4.629   3.280  0.6136 -1.1480  0.6738
 4786TIP3   OH214321   2.205   3.194   4.045 -0.0812 -0.1875  0.4445
 4786TIP3    H114322   2.230   3.146   3.966 -0.5631 -0.5589  0.5115
 4786TIP3    H214323   2.288   3.207   4.092 -0.0456 -1.8325  0.9060
 4787TIP3   OH214324   0.126   6.678   4.640 -0.2706  0.0880 -0.1656
 4787TIP3    H114325   0.046   6.628   4.624  0.3350 -0.7431 -0.6177
 4787TIP3    H214326   0.187   6.615   4.677  0.8935  0.1879 -1.8148
 4788TIP3   OH214327   6.397   0.370   1.082 -0.5589  0.4331 -0.0114
 4788TIP3    H114328   6.355   0.284   1.081 -0.4177  0.3648 -0.7918
 4788TIP3    H214329   6.409   0.392   0.990  2.3039 -0.1255  0.1508
 4789TIP3   OH214330   3.845   4.717   5.205 -0.0233  0.0625  0.0486
 4789TIP3    H114331   3.769   4.666   5.233  0.2129  0.3314  1.2409
 4789TIP3    H214332   3.891   4.738   5.286  0.5223  1.1675 -0.5274
 4790TIP3   OH214333   6.485   2.710   3.424 -0.7433 -0.2129 -0.0710
 4790TIP3    H114334   6.433   2.778   3.469 -0.3120  1.3214 -1.7825
 4790TIP3    H214335   6.427   2.679   3.355  0.0078  0.3579 -0.9745
 4791TIP3   OH214336   1.547   0.889   2.872  0.1592 -0.3323 -0.4337
 4791TIP3    H114337   1.519   0.879   2.781 -1.3564  0.7198 -0.1287
 4791TIP3    H214338   1.565   0.799   2.901 -1.5903 -0.9728 -1.1198
 4792TIP3   OH214339   3.516   4.100   2.884 -0.2350  0.3722  0.1238
 4792TIP3    H114340   3.510   4.013   2.924  0.8716  0.1625 -0.1350
 4792TIP3    H214341   3.432   4.141   2.904 -2.2429 -1.9691 -2.6808
 4793TIP3   OH214342   3.486   6.607   2.255 -0.2329  0.3158  0.3273
 4793TIP3    H114343   3.498   6.689   2.303 -1.3097  1.2494 -0.9176
 4793TIP3    H214344   3.571   6.589   2.216  0.6881 -0.4975  2.5470
 4794TIP3   OH214345   2.752   0.476   1.388 -0.6091  0.0454 -0.2861
 4794TIP3    H114346   2.822   0.432   1.340 -0.4771  0.8165 -0.8237
 4794TIP3    H214347   2.789   0.492   1.475  0.4656  1.7740 -1.0110
 4795TIP3   OH214348   5.304   1.226   4.397  0.0126  0.5939  0.0155
 4795TIP3    H114349   5.238   1.287   4.430 -1.5575 -0.0552 -1.7488
 4795TIP3    H214350   5.273   1.140   4.424  1.3893  0.3968  1.1235
 4796TIP3   OH214351   1.394   3.238   5.739 -0.1630 -0.3877  0.4194
 4796TIP3    H114352   1.418   3.155   5.780 -0.0471 -0.5029  0.1247
 4796TIP3    H214353   1.410   3.224   5.646  1.7449  0.6145  0.5583
 4797TIP3   OH214354   4.555   2.853   0.886 -0.5325  0.1394  0.4086
 4797TIP3    H114355   4.549   2.942   0.853 -2.1238 -0.4430 -0.9756
 4797TIP3    H214356   4.646   2.827   0.868 -0.9130  0.3767 -2.2667
 4798TIP3   OH214357   3.175   4.774   1.109  0.6522 -0.4594  0.3761
 4798TIP3    H114358   3.136   4.730   1.186 -0.0500  1.5471  1.2297
 4798TIP3    H214359   3.269   4.776   1.128  0.5605 -0.5715  0.8722
 4799TIP3   OH214360   0.935   6.465   0.994  0.4971 -0.6280  0.4633
 4799TIP3    H114361   1.021   6.498   1.017  0.2279  0.7005 -0.3219
 4799TIP3    H214362   0.887   6.464   1.076  0.9621 -0.4423  0.7392
 4800TIP3   OH214363   6.477   4.038   1.779 -0.3447  0.5751  0.2115
 4800TIP3    H114364   6.490   4.132   1.770 -0.0753  0.9589  3.4066
 4800TIP3    H214365   6.552   4.008   1.829 -1.0119 -1.1263  0.2545
 4801TIP3   OH214366   3.024   5.071   2.117 -0.5729  0.2451 -0.0032
 4801TIP3    H114367   3.001   5.142   2.178 -2.2953  0.7616 -1.1748
 4801TIP3    H214368   3.031   5.115   2.032  1.3047 -0.5471 -0.3106
 4802TIP3   OH214369   1.087   2.237   5.130 -0.0146  0.0897  0.4770
 4802TIP3    H114370   1.107   2.226   5.037  0.0695  2.5184  0.1353
 4802TIP3    H214371   1.005   2.286   5.131  0.0927  0.2587  1.6706
 4803TIP3   OH214372   6.589   0.904   2.420  0.5632  0.0700  0.0367
 4803TIP3    H114373   6.631   0.938   2.500  1.5549  0.3093 -0.5727
 4803TIP3    H214374   6.550   0.981   2.379 -0.7607 -0.1951  0.7462
 4804TIP3   OH214375   6.598   0.607   3.178 -0.0640  0.0436  0.7035
 4804TIP3    H114376   6.561   0.693   3.197  0.2214  1.0167 -2.6070
 4804TIP3    H214377   6.691   0.622   3.163 -0.1368 -0.7059 -0.6195
 4805TIP3   OH214378   2.534   5.152   5.539 -0.1308 -0.2784 -0.3986
 4805TIP3    H114379   2.607   5.144   5.477 -0.4853 -0.6433 -0.7755
 4805TIP3    H214380   2.486   5.069   5.530  0.4372 -0.8108  1.1666
 4806TIP3   OH214381   5.307   1.566   0.859  0.1420 -0.0428  0.2909
 4806TIP3    H114382   5.278   1.654   0.836 -1.0965 -0.3975  0.3917
 4806TIP3    H214383   5.234   1.530   0.910  1.0046 -0.8062  1.0158
 4807TIP3   OH214384   1.941   4.148   5.840 -0.1283  0.8155  0.3087
 4807TIP3    H114385   1.957   4.110   5.927 -0.9576  0.3482  0.2717
 4807TIP3    H214386   1.892   4.080   5.793  0.2452  1.0989 -0.5046
 4808TIP3   OH214387   6.959   5.550   2.634  0.7168  0.3708 -0.2171
 4808TIP3    H114388   7.036   5.502   2.664  0.6945 -0.9064 -2.0607
 4808TIP3    H214389   6.994   5.635   2.607  1.1356  0.5498  0.8295
 4809TIP3   OH214390   4.190   5.019   5.018  0.9108  0.1971  0.1629
 4809TIP3    H114391   4.225   5.063   4.940 -0.5005  0.3317 -0.4215
 4809TIP3    H214392   4.118   5.076   5.047  0.8433 -0.3170  1.0295
 4810TIP3   OH214393   2.034   6.444   0.514  0.1231 -0.4168 -0.4982
 4810TIP3    H114394   2.053   6.416   0.425  0.3780  0.8326 -0.8616
 4810TIP3    H214395   2.112   6.422   0.564  0.3436 -0.3006 -0.7895
 4811TIP3   OH214396   1.844   6.236   0.947 -0.3912 -0.3136  0.2031
 4811TIP3    H114397   1.801   6.242   0.862 -1.0705 -2.0190  0.3731
 4811TIP3    H214398   1.936   6.258   0.930 -0.5540 -0.4722 -0.9500
 4812TIP3   OH214399   2.319   1.858   3.183  0.3160  0.2959 -0.2215
 4812TIP3    H114400   2.268   1.783   3.153 -0.2792 -0.0722  1.5966
 4812TIP3    H214401   2.269   1.934   3.153  0.1849 -0.0321 -0.8593
 4813TIP3   OH214402   2.943   0.480   1.585 -0.0732  0.0072 -0.5725
 4813TIP3    H114403   2.997   0.556   1.604 -0.3634  0.4125 -1.3569
 4813TIP3    H214404   2.976   0.412   1.644  2.0924 -0.1142 -1.8127
 4814TIP3   OH214405   4.846   2.795   0.840  0.3540  0.2222 -0.0941
 4814TIP3    H114406   4.820   2.796   0.747  1.9878 -2.1539 -0.6918
 4814TIP3    H214407   4.900   2.873   0.850 -0.4952  0.9479 -0.9105
 4815TIP3   OH214408   4.886   1.580   2.915  0.3501 -0.3151 -0.1410
 4815TIP3    H114409   4.835   1.568   2.835  2.5115  1.1028 -1.8697
 4815TIP3    H214410   4.941   1.501   2.920 -1.1750 -1.3735  1.1760
 4816TIP3   OH214411   2.921   4.300   4.569 -0.3903  0.4824  0.5808
 4816TIP3    H114412   2.995   4.347   4.531 -0.6049 -0.7543 -1.5360
 4816TIP3    H214413   2.949   4.208   4.570 -1.3643  0.1783  1.1056
 4817TIP3   OH214414   6.555   4.557   4.538  0.3458  0.0616 -0.6284
 4817TIP3    H114415   6.525   4.561   4.629 -0.3463 -1.8315 -0.7448
 4817TIP3    H214416   6.650   4.551   4.545  0.1881 -2.5682  0.1119
 4818TIP3   OH214417   0.908   5.154   2.523  0.4836 -0.4330 -0.0130
 4818TIP3    H114418   0.822   5.190   2.541 -0.2521 -0.7353 -2.5374
 4818TIP3    H214419   0.967   5.229   2.526 -0.0094 -0.0611  0.6819
 4819TIP3   OH214420   4.852   4.981   3.731  0.0688 -0.4318  0.6669
 4819TIP3    H114421   4.791   5.044   3.771  1.1475  1.1604 -0.0661
 4819TIP3    H214422   4.804   4.946   3.656  0.5206  2.0522 -0.9061
 4820TIP3   OH214423   5.897   1.314   5.545  0.1132  0.1325  0.3945
 4820TIP3    H114424   5.943   1.235   5.517  0.6515  0.6702 -0.2620
 4820TIP3    H214425   5.952   1.351   5.614  0.1892  0.2817  0.2531
 4821TIP3   OH214426   1.494   4.821   4.536  0.2779  0.3245 -0.3073
 4821TIP3    H114427   1.564   4.874   4.576  0.5996 -0.5297  0.2997
 4821TIP3    H214428   1.416   4.877   4.540  0.3501  0.3574  1.3375
 4822TIP3   OH214429   0.408   5.915   0.482 -0.5781 -0.2020 -0.1168
 4822TIP3    H114430   0.503   5.917   0.488 -0.5829 -0.7221  0.1530
 4822TIP3    H214431   0.388   5.831   0.442 -0.9997 -0.8473  1.3809
 4823TIP3   OH214432   0.709   5.182   1.783  0.0693  0.3449  0.7972
 4823TIP3    H114433   0.771   5.113   1.810 -1.1952 -0.3661  2.0050
 4823TIP3    H214434   0.704   5.241   1.858 -1.0163  0.1662  0.8785
 4824TIP3   OH214435   6.007   0.564   4.973 -0.2245 -0.1739 -0.0070
 4824TIP3    H114436   5.949   0.619   4.921 -1.5641 -0.3108  1.2607
 4824TIP3    H214437   5.952   0.532   5.045  1.0975 -1.3625  0.5388
 4825TIP3   OH214438   0.712   2.116   4.215 -0.5181 -0.6481  0.1000
 4825TIP3    H114439   0.797   2.082   4.243 -0.1411 -0.8471 -1.2292
 4825TIP3    H214440   0.723   2.132   4.121 -2.1194 -1.2065 -0.2018
 4826TIP3   OH214441   4.419   0.075   3.318 -0.2184  0.1375 -0.1215
 4826TIP3    H114442   4.407   0.152   3.374  2.3314  0.3921  0.1579
 4826TIP3    H214443   4.492   0.097   3.261 -0.8924 -1.2530 -1.6142
 4827TIP3   OH214444   6.087   5.934   0.364 -1.0018  0.3079  0.0684
 4827TIP3    H114445   6.053   5.912   0.277  0.7143  0.6002 -0.6966
 4827TIP3    H214446   6.092   6.029   0.364 -1.1029  0.3140  0.5502
 4828TIP3   OH214447   6.233   4.651   5.628 -0.5490 -0.1001 -0.0421
 4828TIP3    H114448   6.184   4.568   5.630  0.9098 -1.0334 -0.9754
 4828TIP3    H214449   6.324   4.625   5.612 -0.4761  1.7742 -3.8585
 4829TIP3   OH214450   1.617   5.741   0.170  0.5090  0.7890 -0.4032
 4829TIP3    H114451   1.659   5.760   0.086 -0.1389  2.3211 -0.4179
 4829TIP3    H214452   1.636   5.818   0.223 -0.8235  0.7528  0.1531
 4830TIP3   OH214453   1.888   0.548   5.543 -0.7898  0.3728 -0.0195
 4830TIP3    H114454   1.856   0.503   5.621 -0.2899 -0.0390 -0.0417
 4830TIP3    H214455   1.983   0.532   5.544 -0.9371 -0.7897 -1.4240
 4831TIP3   OH214456   2.599   4.040   1.277 -0.3949  0.3666  0.1978
 4831TIP3    H114457   2.659   3.966   1.289  0.7224  1.3985  1.2536
 4831TIP3    H214458   2.512   4.001   1.282  0.1697 -0.8844  0.6988
 4832TIP3   OH214459   1.086   2.465   1.399  0.3149  0.0229 -0.1409
 4832TIP3    H114460   1.167   2.460   1.349 -0.6798 -0.2067 -1.8013
 4832TIP3    H214461   1.017   2.455   1.334 -1.1108  1.8684  0.9822
 4833TIP3   OH214462   1.034   2.739   1.446  0.3868  0.1454 -0.9419
 4833TIP3    H114463   1.056   2.647   1.432  0.2023  0.1044 -0.9609
 4833TIP3    H214464   1.103   2.787   1.401 -0.1203  0.0179 -1.8720
 4834TIP3   OH214465   0.861   0.413   2.892 -0.2585 -1.1428 -0.5605
 4834TIP3    H114466   0.773   0.381   2.913  0.0347 -1.0036  0.9925
 4834TIP3    H214467   0.915   0.385   2.965  0.8993 -0.7935 -1.2542
 4835TIP3   OH214468   3.980   1.659   5.524 -0.9397 -0.4835 -0.2735
 4835TIP3    H114469   3.953   1.588   5.581 -1.0209  0.3096  0.7142
 4835TIP3    H214470   4.060   1.627   5.481 -0.1955 -0.6711  1.1896
 4836TIP3   OH214471   1.863   4.110   2.642 -0.0259 -0.1195 -0.4172
 4836TIP3    H114472   1.816   4.061   2.709  3.1201 -0.2864  1.9071
 4836TIP3    H214473   1.869   4.199   2.677  2.3571 -0.3928  0.0590
 4837TIP3   OH214474   4.660   4.218   1.375 -0.5543 -0.2619 -0.0653
 4837TIP3    H114475   4.693   4.248   1.459  0.4914 -0.7551 -0.2861
 4837TIP3    H214476   4.678   4.124   1.374  1.8121  0.1092 -1.8363
 4838TIP3   OH214477   2.939   4.113   0.449  0.6083 -0.3316 -0.1372
 4838TIP3    H114478   2.858   4.066   0.431  1.0480 -0.3181 -2.5488
 4838TIP3    H214479   2.996   4.048   0.490  0.7207 -1.5752 -2.1239
 4839TIP3   OH214480   6.244   5.362   3.564 -0.7497 -0.1661  0.4089
 4839TIP3    H114481   6.339   5.350   3.560 -0.8198 -0.5299 -0.3742
 4839TIP3    H214482   6.217   5.314   3.642 -0.2445  0.2929  0.8772
 4840TIP3   OH214483   6.457   3.116   2.489  0.4462  0.0363 -0.2897
 4840TIP3    H114484   6.455   3.040   2.549  0.3696 -0.1156 -0.4829
 4840TIP3    H214485   6.466   3.191   2.547 -3.0114  0.2315  0.2375
 4841TIP3   OH214486   0.098   1.107   2.035  0.0615  0.4431 -0.0144
 4841TIP3    H114487   0.097   1.170   2.106  0.0253  0.0255  0.3603
 4841TIP3    H214488   0.015   1.119   1.990 -1.6591 -1.7838  2.2465
 4842TIP3   OH214489   2.939   4.307   2.622  0.0251 -0.4810  0.1252
 4842TIP3    H114490   2.998   4.358   2.567  0.2666 -0.4855  0.3736
 4842TIP3    H214491   2.854   4.349   2.613 -0.1942 -1.1472 -1.1235
 4843TIP3   OH214492   3.188   3.396   3.399  0.5190 -0.4114 -0.9219
 4843TIP3    H114493   3.191   3.456   3.324  0.6305  1.3959  0.4491
 4843TIP3    H214494   3.100   3.359   3.398  0.6826 -0.7897 -2.2169
 4844TIP3   OH214495   6.846   5.255   0.140  0.2004  0.4442 -0.0648
 4844TIP3    H114496   6.826   5.298   0.223 -1.3918 -0.8998  0.2892
 4844TIP3    H214497   6.821   5.319   0.074 -0.3742  0.7896  0.4740
 4845TIP3   OH214498   3.494   5.256   0.195 -0.3683 -0.0783 -0.4271
 4845TIP3    H114499   3.513   5.217   0.281 -1.3664  0.4754  0.0631
 4845TIP3    H214500   3.580   5.278   0.160  0.0473  0.0204  0.5960
 4846TIP3   OH214501   0.600   1.117   0.559 -0.2637 -0.1866  0.4749
 4846TIP3    H114502   0.506   1.125   0.543 -0.2706  1.3829  1.0926
 4846TIP3    H214503   0.638   1.101   0.472 -0.9808  0.6824 -0.0176
 4847TIP3   OH214504   2.386   1.732   4.453 -0.4175  0.4172 -0.9236
 4847TIP3    H114505   2.352   1.816   4.483 -1.4061 -0.9893  2.4900
 4847TIP3    H214506   2.310   1.689   4.413 -1.4170 -0.6218  1.8149
 4848TIP3   OH214507   5.740   4.273   3.529 -0.1792 -0.3636  0.2498
 4848TIP3    H114508   5.810   4.258   3.465 -1.3703 -1.4284 -0.8568
 4848TIP3    H214509   5.745   4.367   3.548  0.1390  0.0133 -1.4930
 4849TIP3   OH214510   3.043   1.245   2.983 -0.1057  0.4007  0.5856
 4849TIP3    H114511   3.008   1.158   2.965  0.4980 -0.1443  1.9198
 4849TIP3    H214512   3.107   1.232   3.053 -0.1094  1.9456  0.9265
 4850TIP3   OH214513   6.882   6.562   4.403 -0.1914  0.3114 -0.2131
 4850TIP3    H114514   6.877   6.576   4.309 -2.2466  0.5189 -0.1219
 4850TIP3    H214515   6.818   6.494   4.421  0.1343  0.3113  1.0502
 4851TIP3   OH214516   3.125   2.641   3.853  0.2111 -0.1473  0.7959
 4851TIP3    H114517   3.182   2.642   3.930  1.3894 -0.2212 -0.0512
 4851TIP3    H214518   3.148   2.561   3.806 -0.9072 -0.4052  0.6442
 4852TIP3   OH214519   0.215   1.992   0.918 -0.1191  0.0100 -0.5293
 4852TIP3    H114520   0.233   2.028   0.831  0.1288 -0.0475 -0.5041
 4852TIP3    H214521   0.282   2.032   0.974 -0.9367  0.8778 -0.1446
 4853TIP3   OH214522   4.157   3.833   4.920 -0.2294 -0.3146  0.0401
 4853TIP3    H114523   4.152   3.763   4.984  0.7163  1.0351  1.6651
 4853TIP3    H214524   4.084   3.891   4.942  0.4597  0.4683  0.2904
 4854TIP3   OH214525   2.994   4.725   2.650  0.2479  0.0658  0.0078
 4854TIP3    H114526   3.026   4.811   2.677  3.5101 -0.8314 -0.4977
 4854TIP3    H214527   2.983   4.733   2.555 -3.3620  0.9443  0.3833
 4855TIP3   OH214528   5.877   0.383   1.992 -0.1005  0.4836 -0.9394
 4855TIP3    H114529   5.894   0.290   1.978 -0.6651  0.4897 -1.7040
 4855TIP3    H214530   5.891   0.424   1.907 -1.9701  0.7630 -1.1613
 4856TIP3   OH214531   6.374   0.080   2.391 -0.9467  0.2488 -0.3104
 4856TIP3    H114532   6.381   0.106   2.483 -1.8006 -1.4613  0.2840
 4856TIP3    H214533   6.417   0.151   2.343  1.3889  0.2265  1.5210
 4857TIP3   OH214534   4.664   2.604   0.349 -0.3695 -0.4124  0.0168
 4857TIP3    H114535   4.618   2.521   0.337 -2.1848  0.3476  1.2635
 4857TIP3    H214536   4.630   2.661   0.281 -1.0335  0.0301  0.6972
 4858TIP3   OH214537   3.068   1.784   3.988  0.0992  0.6130 -0.3654
 4858TIP3    H114538   3.075   1.699   3.945 -0.9148 -0.7691  1.9886
 4858TIP3    H214539   3.126   1.778   4.064 -1.8607  0.9746  1.2655
 4859TIP3   OH214540   1.872   2.957   1.363 -0.0956  0.2735 -0.0084
 4859TIP3    H114541   1.956   2.969   1.407 -0.8191  1.7697  1.0276
 4859TIP3    H214542   1.808   2.951   1.434 -1.0045  0.3053 -0.8043
 4860TIP3   OH214543   4.281   2.837   4.541 -0.2790  0.4304 -0.6253
 4860TIP3    H114544   4.207   2.832   4.481 -1.6878  1.1520  0.9447
 4860TIP3    H214545   4.275   2.758   4.594  0.4263  0.2171 -0.8543
 4861TIP3   OH214546   4.603   4.292   3.397  0.4636 -0.5738 -0.2096
 4861TIP3    H114547   4.538   4.223   3.382 -0.0735 -0.2430  0.5333
 4861TIP3    H214548   4.589   4.354   3.326 -1.3571  0.4660  0.9774
 4862TIP3   OH214549   1.708   1.197   1.108  0.1401 -0.7399  0.3201
 4862TIP3    H114550   1.624   1.186   1.064 -0.2979 -1.9153  1.3850
 4862TIP3    H214551   1.694   1.161   1.195  1.0645  1.2838  1.3571
 4863TIP3   OH214552   3.468   5.412   2.043  0.9525  0.0686  0.2741
 4863TIP3    H114553   3.431   5.491   2.003 -0.4256  0.3629  1.9971
 4863TIP3    H214554   3.462   5.345   1.975 -0.5019  0.7655 -0.3230
 4864TIP3   OH214555   4.221   0.618   5.581 -0.1366  0.1056  0.0379
 4864TIP3    H114556   4.287   0.607   5.650 -0.9887  0.6352  0.9772
 4864TIP3    H214557   4.146   0.568   5.612 -0.6049  0.5281 -0.3977
 4865TIP3   OH214558   6.600   0.733   2.709  0.1523 -0.0565 -0.5428
 4865TIP3    H114559   6.632   0.823   2.704  1.6945 -0.2451  2.8949
 4865TIP3    H214560   6.676   0.680   2.685 -0.4895 -0.4797 -1.6821
 4866TIP3   OH214561   6.474   6.290   2.334  0.3001 -0.1309  0.0749
 4866TIP3    H114562   6.504   6.284   2.425 -1.2799 -1.9247  0.5611
 4866TIP3    H214563   6.531   6.229   2.286  1.1270  0.8073 -0.1587
 4867TIP3   OH214564   5.639   4.406   2.553  0.6171  0.2929 -0.5294
 4867TIP3    H114565   5.651   4.345   2.626 -0.2731  0.3796 -0.2996
 4867TIP3    H214566   5.606   4.486   2.594 -1.3054 -0.1279 -1.1465
 4868TIP3   OH214567   0.369   1.594   4.094  0.1535 -0.4333 -0.3517
 4868TIP3    H114568   0.412   1.658   4.152  0.4451 -0.8966 -0.0478
 4868TIP3    H214569   0.437   1.528   4.078 -0.8924 -2.0267  1.4169
 4869TIP3   OH214570   3.338   1.561   2.063  0.4928  0.3300 -0.0161
 4869TIP3    H114571   3.365   1.648   2.094 -1.3150  0.5806  0.9813
 4869TIP3    H214572   3.300   1.519   2.140 -2.8283  0.4103 -1.4533
 4870TIP3   OH214573   2.833   1.314   2.562 -0.3378  0.1065 -0.2170
 4870TIP3    H114574   2.786   1.236   2.532 -0.2052  0.4696 -1.3957
 4870TIP3    H214575   2.821   1.313   2.657  0.0909 -1.6310 -0.1432
 4871TIP3   OH214576   5.011   5.983   4.246 -0.1596 -0.1294 -0.5825
 4871TIP3    H114577   4.934   5.943   4.205  0.2010 -0.7784 -0.6443
 4871TIP3    H214578   4.975   6.041   4.313 -0.6931 -0.7775 -0.2935
 4872TIP3   OH214579   0.032   3.497   0.581 -0.0537  0.1804 -0.2229
 4872TIP3    H114580   0.073   3.447   0.510 -0.6682 -1.0474  0.2610
 4872TIP3    H214581  -0.048   3.533   0.542  0.0605  0.2418 -0.3995
 4873TIP3   OH214582   1.774   2.479   5.778 -0.3042  0.5195 -0.0970
 4873TIP3    H114583   1.797   2.547   5.842  1.4164  1.0663 -1.2300
 4873TIP3    H214584   1.747   2.527   5.700 -1.3038 -0.1400 -0.1809
 4874TIP3   OH214585   5.833   2.123   0.642  0.2187 -0.2200 -0.2664
 4874TIP3    H114586   5.897   2.191   0.619 -0.9336  0.5385 -1.3292
 4874TIP3    H214587   5.756   2.143   0.589 -1.1504 -0.7348  1.4274
 4875TIP3   OH214588   3.816   3.686   2.877  0.2919 -0.5480  0.6097
 4875TIP3    H114589   3.905   3.692   2.842  1.0761  0.1619  2.5739
 4875TIP3    H214590   3.767   3.753   2.829  1.2891  0.3082  0.7353
 4876TIP3   OH214591   5.774   4.308   0.474  0.4159  0.3844  0.3705
 4876TIP3    H114592   5.762   4.214   0.473  0.8675  0.3252  0.0901
 4876TIP3    H214593   5.719   4.341   0.402 -0.1199  0.3848  0.7801
 4877TIP3   OH214594   3.027   2.965   2.048  0.0697 -0.7304  0.1792
 4877TIP3    H114595   2.996   2.938   1.962 -0.5710 -0.5832  0.3627
 4877TIP3    H214596   3.012   2.888   2.104  0.3040 -0.7588  0.2041
 4878TIP3   OH214597   4.603   5.513   1.085 -0.1440 -0.1298  0.3193
 4878TIP3    H114598   4.571   5.484   1.170  0.9165 -1.9275  0.1584
 4878TIP3    H214599   4.685   5.558   1.103  0.6375 -1.4432  0.2179
 4879TIP3   OH214600   3.050   6.189   4.974  0.3796  0.8741  0.0657
 4879TIP3    H114601   2.966   6.156   4.942  1.4741 -2.3716  0.1492
 4879TIP3    H214602   3.087   6.237   4.900 -0.2014 -0.3731 -1.0599
 4880TIP3   OH214603   3.052   0.043   2.324 -0.4536 -0.2501 -0.4522
 4880TIP3    H114604   3.119   0.055   2.392  0.9763  0.1985 -1.8907
 4880TIP3    H214605   3.065   0.115   2.264 -0.8895 -1.2959 -1.8503
 4881TIP3   OH214606   2.463   1.012   0.124 -0.7729 -0.4211 -0.0754
 4881TIP3    H114607   2.504   1.086   0.168  0.3230 -0.9240 -0.2132
 4881TIP3    H214608   2.455   1.041   0.032  0.8724 -0.9280 -0.4132
 4882TIP3   OH214609   5.847   0.104   4.670 -0.3497 -0.0214  0.2093
 4882TIP3    H114610   5.857   0.024   4.618 -0.8448  1.5405 -2.4895
 4882TIP3    H214611   5.754   0.105   4.694 -0.6307  0.3189 -0.8369
 4883TIP3   OH214612   4.032   5.218   0.173 -0.1027  0.2331 -0.3163
 4883TIP3    H114613   4.082   5.170   0.107 -0.4037  0.1912 -0.5174
 4883TIP3    H214614   4.098   5.256   0.231  0.1830  0.5544 -0.8420
 4884TIP3   OH214615   3.365   2.374   1.275 -0.0396  0.0305  0.0507
 4884TIP3    H114616   3.304   2.368   1.349 -2.1225  0.0408 -1.5941
 4884TIP3    H214617   3.406   2.288   1.271 -0.1597 -0.0841  0.9710
 4885TIP3   OH214618   5.784   6.523   1.456 -0.6252  0.1678  0.0143
 4885TIP3    H114619   5.802   6.612   1.428 -1.0752 -0.0068 -0.8673
 4885TIP3    H214620   5.692   6.524   1.481 -0.4684  0.0965  0.6029
 4886TIP3   OH214621   6.661   4.706   2.218  0.1120 -0.0541 -0.3293
 4886TIP3    H114622   6.666   4.742   2.129 -1.6300  1.2069  0.0368
 4886TIP3    H214623   6.749   4.717   2.253  0.5376  0.5027 -1.5159
 4887TIP3   OH214624   1.521   0.300   5.365 -0.4274  0.2704  0.3374
 4887TIP3    H114625   1.607   0.341   5.372  0.0323 -0.6002 -0.0969
 4887TIP3    H214626   1.466   0.367   5.324  0.3867  0.3467 -0.6525
 4888TIP3   OH214627   5.213   5.311   5.265 -0.1904  0.6720  0.0347
 4888TIP3    H114628   5.181   5.344   5.181 -1.0788 -0.7414 -0.2140
 4888TIP3    H214629   5.308   5.314   5.257 -0.2017 -1.4151 -1.8956
 4889TIP3   OH214630   3.055   5.132   2.520  0.1443  0.5331  0.1572
 4889TIP3    H114631   3.002   5.207   2.491  0.4198  1.2705  1.4633
 4889TIP3    H214632   3.140   5.145   2.479 -0.0354  0.5368 -0.2139
 4890TIP3   OH214633   1.269   4.778   3.079 -0.3971 -0.1741  0.2481
 4890TIP3    H114634   1.284   4.684   3.071  1.0758  0.0696 -0.0761
 4890TIP3    H214635   1.181   4.791   3.043 -0.9648 -1.5166  1.0643
 4891TIP3   OH214636   0.248   4.998   5.477 -0.2615  0.4131  0.2018
 4891TIP3    H114637   0.218   5.025   5.564 -0.7010  0.9254 -0.0994
 4891TIP3    H214638   0.318   5.061   5.456 -0.0992  0.2384  0.2166
 4892TIP3   OH214639   0.916   5.593   5.291  0.0925 -0.6486 -0.3158
 4892TIP3    H114640   0.876   5.507   5.284 -1.9850  0.2586 -0.1357
 4892TIP3    H214641   0.856   5.644   5.346  2.0358  0.4945  0.8886
 4893TIP3   OH214642   3.435   6.760   4.338  0.3376 -0.2847  0.5072
 4893TIP3    H114643   3.493   6.831   4.310  1.8766 -1.5792  0.2807
 4893TIP3    H214644   3.437   6.697   4.266 -0.8304 -0.6678  0.7931
 4894TIP3   OH214645   4.947   6.277   0.820  0.2505 -0.4545  0.1647
 4894TIP3    H114646   5.021   6.221   0.843 -0.1122 -0.6353  0.9107
 4894TIP3    H214647   4.924   6.250   0.731 -0.3446 -1.9765  0.7492
 4895TIP3   OH214648   6.388   3.036   0.212  0.2707  0.1918  0.1728
 4895TIP3    H114649   6.478   3.004   0.222  0.3893  0.7869  1.1663
 4895TIP3    H214650   6.341   2.996   0.285 -0.5178 -0.8880 -0.8881
 4896TIP3   OH214651   2.541   3.706   0.245 -0.5486  0.4886  0.0912
 4896TIP3    H114652   2.635   3.723   0.251 -0.4052 -0.1699 -0.1678
 4896TIP3    H214653   2.519   3.729   0.154 -1.0055  2.3326  0.6276
 4897TIP3   OH214654   1.242   1.194   4.564  0.0506 -0.4772 -0.2069
 4897TIP3    H114655   1.271   1.246   4.639 -1.6869  0.0892  0.1167
 4897TIP3    H214656   1.304   1.217   4.494  1.5298 -0.8087  0.9406
 4898TIP3   OH214657   5.349   1.063   0.857 -0.5568  0.0523 -0.0435
 4898TIP3    H114658   5.386   0.975   0.853  0.9790  0.6620 -0.4326
 4898TIP3    H214659   5.404   1.109   0.921 -0.4653  1.0850 -0.8359
 4899TIP3   OH214660   0.787   6.704   2.659 -0.0438  0.3670 -0.1465
 4899TIP3    H114661   0.799   6.618   2.699 -0.4358 -0.0085 -0.8299
 4899TIP3    H214662   0.719   6.745   2.712  0.7044  0.5819  0.6778
 4900TIP3   OH214663   1.671   1.608   2.282 -0.1898 -0.5029  0.6732
 4900TIP3    H114664   1.685   1.513   2.287  1.1428 -0.3363  0.5410
 4900TIP3    H214665   1.695   1.632   2.193 -3.9489 -0.4957 -0.4921
 4901TIP3   OH214666   4.290   4.678   5.757 -0.3813 -0.3226 -0.5584
 4901TIP3    H114667   4.303   4.640   5.671 -0.2235 -2.2231  0.2476
 4901TIP3    H214668   4.244   4.610   5.807  1.9011 -0.4183  1.6423
 4902TIP3   OH214669   5.264   0.507   0.916  0.1159 -0.0275  0.2443
 4902TIP3    H114670   5.259   0.478   0.825 -1.4374  0.3760  0.1832
 4902TIP3    H214671   5.216   0.590   0.918  2.1844  1.2291  0.9590
 4903TIP3   OH214672   5.486   4.597   3.460 -0.0746  0.3375 -0.4494
 4903TIP3    H114673   5.536   4.665   3.505 -1.1144  1.4361 -0.8921
 4903TIP3    H214674   5.526   4.591   3.373  0.3600 -0.0106 -0.2274
 4904TIP3   OH214675   1.292   1.341   2.550  0.1153 -0.3999  0.3043
 4904TIP3    H114676   1.245   1.268   2.590 -0.6810 -0.1178 -0.0980
 4904TIP3    H214677   1.347   1.375   2.620 -0.0832 -0.8955  0.7128
 4905TIP3   OH214678   2.429   4.893   4.916 -0.0513 -0.0107 -0.1208
 4905TIP3    H114679   2.338   4.866   4.928  0.3367 -1.2386  0.2533
 4905TIP3    H214680   2.464   4.899   5.005 -0.0949  1.7072 -0.2008
 4906TIP3   OH214681   3.888   5.688   3.999 -0.0309 -0.0190 -0.1148
 4906TIP3    H114682   3.975   5.698   3.960 -0.7303  0.0052 -1.7721
 4906TIP3    H214683   3.862   5.778   4.022 -1.2975  0.6751 -3.6121
 4907TIP3   OH214684   3.114   0.984   3.344  0.7506 -0.4003  0.2149
 4907TIP3    H114685   3.059   0.944   3.276  0.1368 -0.4420  0.7244
 4907TIP3    H214686   3.119   0.917   3.413  0.6613 -0.0385  0.5783
 4908TIP3   OH214687   4.129   3.142   4.531  0.2047 -0.2192  0.0333
 4908TIP3    H114688   4.161   3.106   4.448  1.0899  2.5077 -0.9290
 4908TIP3    H214689   4.088   3.225   4.506  0.9044  0.8892  2.3501
 4909TIP3   OH214690   2.366   4.505   5.138  0.7032 -0.6947  0.7093
 4909TIP3    H114691   2.298   4.437   5.132  0.7972 -0.7527  0.2743
 4909TIP3    H214692   2.447   4.458   5.119  0.6440 -0.2387 -0.7654
 4910TIP3   OH214693   4.253   0.097   2.814 -0.7196 -0.2358 -0.2071
 4910TIP3    H114694   4.249   0.011   2.856 -0.5191 -1.1519 -1.9685
 4910TIP3    H214695   4.342   0.129   2.834 -0.1790 -1.2184 -0.9506
 4911TIP3   OH214696   5.070   3.902   2.370 -0.0675 -0.4022 -0.7737
 4911TIP3    H114697   5.086   3.960   2.445  0.2438 -0.4744 -0.7829
 4911TIP3    H214698   5.128   3.828   2.384 -0.6556 -0.8408 -0.6279
 4912TIP3   OH214699   1.879   6.077   3.589 -0.0751 -0.1044  0.1357
 4912TIP3    H114700   1.928   6.131   3.652  2.1640 -1.3340 -0.4373
 4912TIP3    H214701   1.946   6.022   3.548 -1.6536 -0.3456 -2.3200
 4913TIP3   OH214702   1.900   5.932   2.349 -0.6386  0.4277 -0.2935
 4913TIP3    H114703   1.879   5.844   2.318  0.2174  0.0193  0.2300
 4913TIP3    H214704   1.842   5.946   2.424 -0.2369 -0.0175  0.1101
 4914TIP3   OH214705   0.764   2.649   3.645  0.7175 -0.2121 -0.4198
 4914TIP3    H114706   0.843   2.599   3.625  0.5990 -0.3171 -0.6339
 4914TIP3    H214707   0.777   2.734   3.602  1.2546  0.2294  0.5868
 4915TIP3   OH214708   5.705   5.293   5.679  0.3220 -0.1033 -0.4463
 4915TIP3    H114709   5.624   5.339   5.701  0.8991  0.2330  1.1071
 4915TIP3    H214710   5.676   5.204   5.657 -0.5284  0.2094 -0.6518
 4916TIP3   OH214711   5.347   2.512   1.028  0.7125  0.2195  0.1725
 4916TIP3    H114712   5.310   2.492   1.114 -0.5091 -0.2327 -0.4241
 4916TIP3    H214713   5.279   2.563   0.984  1.2209  0.2358 -0.6148
 4917TIP3   OH214714   0.259   5.085   0.279 -0.3801  0.4213 -0.2191
 4917TIP3    H114715   0.322   5.014   0.267  1.0009  1.4423  0.7348
 4917TIP3    H214716   0.273   5.142   0.204 -0.5724  0.3717 -0.2944
 4918TIP3   OH214717   6.570   5.714   2.239  0.0797 -0.3654  0.3027
 4918TIP3    H114718   6.648   5.662   2.217  0.2116  0.2105 -0.6736
 4918TIP3    H214719   6.585   5.746   2.327  1.4034  0.5312 -0.2276
 4919TIP3   OH214720   2.798   2.308   2.020  0.5950  0.3080 -0.0291
 4919TIP3    H114721   2.736   2.250   1.976 -1.0894 -0.1095  2.6190
 4919TIP3    H214722   2.837   2.254   2.088  0.2275  1.7796  1.4244
 4920TIP3   OH214723   3.790   0.569   1.093 -0.2967  0.2717  0.1792
 4920TIP3    H114724   3.786   0.649   1.146  0.1319  0.1225  0.4424
 4920TIP3    H214725   3.812   0.500   1.155 -1.4863 -0.2075  0.1012
 4921TIP3   OH214726   1.318   3.926   0.309  0.2396 -0.0515  0.3689
 4921TIP3    H114727   1.409   3.898   0.318  0.4975  0.5095 -0.3582
 4921TIP3    H214728   1.267   3.852   0.342  0.9185 -1.0243 -0.6894
 4922TIP3   OH214729   5.520   4.464   2.969  0.3733  0.0118  0.6287
 4922TIP3    H114730   5.499   4.546   3.014 -0.5083  1.3093 -1.9213
 4922TIP3    H214731   5.602   4.484   2.922 -1.4455  0.7057 -2.5850
 4923TIP3   OH214732   0.193   2.990   3.178  0.3141 -0.2002  0.4237
 4923TIP3    H114733   0.215   2.976   3.270  0.3629 -0.2118  0.4104
 4923TIP3    H214734   0.099   3.008   3.178 -0.2998 -2.9315  0.1991
 4924TIP3   OH214735   4.332   0.515   2.397 -0.2600  0.0700 -0.0351
 4924TIP3    H114736   4.425   0.501   2.415 -0.6600 -1.6500  0.8982
 4924TIP3    H214737   4.301   0.569   2.471 -0.2338 -0.2881  0.2382
 4925TIP3   OH214738   2.914   4.143   1.955  0.0249 -0.3481  0.5155
 4925TIP3    H114739   3.007   4.143   1.935 -0.0825  1.0346 -0.1249
 4925TIP3    H214740   2.906   4.199   2.033 -0.2772 -0.4074  0.5317
 4926TIP3   OH214741   5.805   4.185   0.998 -0.2685  0.3545  0.2090
 4926TIP3    H114742   5.783   4.209   0.908  0.2334 -2.2700 -0.7102
 4926TIP3    H214743   5.877   4.244   1.022 -0.3662  1.0471 -1.1351
 4927TIP3   OH214744   1.372   4.403   2.198 -0.4159 -0.5469  0.4121
 4927TIP3    H114745   1.321   4.336   2.153 -0.2972  1.0733 -2.3436
 4927TIP3    H214746   1.307   4.471   2.221  0.0636  0.3953 -0.8938
 4928TIP3   OH214747   1.496   2.563   5.311 -0.9159 -0.5248 -0.0315
 4928TIP3    H114748   1.510   2.595   5.222 -1.0814  1.1094  0.5027
 4928TIP3    H214749   1.473   2.471   5.299  0.5431 -0.7594 -1.5694
 4929TIP3   OH214750   5.381   4.579   1.173  0.2811 -0.0744  0.6057
 4929TIP3    H114751   5.394   4.583   1.268  1.4564 -0.4386  0.4793
 4929TIP3    H214752   5.287   4.597   1.161  0.1454  0.1391  1.8144
 4930TIP3   OH214753   3.167   2.494   0.691  0.6178  0.3487 -0.3224
 4930TIP3    H114754   3.156   2.404   0.659 -1.6775  0.8131 -1.0248
 4930TIP3    H214755   3.223   2.536   0.627 -1.1128  0.3113 -1.9297
 4931TIP3   OH214756   0.814   1.486   2.531 -0.0711 -0.0056 -0.3066
 4931TIP3    H114757   0.846   1.443   2.611 -2.1817 -2.2386 -0.5028
 4931TIP3    H214758   0.871   1.454   2.461  1.6055  1.7321  0.1838
 4932TIP3   OH214759   4.076   4.013   4.461 -0.5448 -0.0206  0.7226
 4932TIP3    H114760   3.997   4.065   4.443  0.0275  1.4710  2.2708
 4932TIP3    H214761   4.122   4.010   4.378 -1.2958  0.7607  0.2601
 4933TIP3   OH214762   6.805   2.290   1.230  0.0262 -0.1300 -0.7394
 4933TIP3    H114763   6.887   2.278   1.278  0.3883  0.6237 -1.1547
 4933TIP3    H214764   6.779   2.379   1.251 -0.7453 -0.3963 -0.5405
 4934TIP3   OH214765   2.899   0.966   4.968 -0.0952 -0.9397 -0.0945
 4934TIP3    H114766   2.929   1.044   4.921  0.0535 -0.6775  0.4263
 4934TIP3    H214767   2.851   0.915   4.903 -0.5201 -0.2279 -0.3452
 4935TIP3   OH214768   0.040   5.512   5.566 -0.2616 -0.7138  0.9618
 4935TIP3    H114769   0.109   5.529   5.502  0.6681 -0.8840  1.9019
 4935TIP3    H214770  -0.028   5.467   5.517  0.0017  0.0416 -0.1304
 4936TIP3   OH214771   1.882   3.937   5.448 -0.7406  0.0325  0.2117
 4936TIP3    H114772   1.827   3.993   5.393  0.4212  0.3135 -0.7192
 4936TIP3    H214773   1.868   3.849   5.414 -0.9235  0.0503  0.2415
 4937TIP3   OH214774   0.915   0.409   1.723 -0.0973  0.3525  0.2121
 4937TIP3    H114775   0.965   0.328   1.709 -0.2973  0.4598 -1.2759
 4937TIP3    H214776   0.909   0.417   1.819  2.4684  0.1989  0.4496
 4938TIP3   OH214777   2.502   6.362   0.064 -0.2412  0.9193 -0.6548
 4938TIP3    H114778   2.457   6.432   0.111  1.6656  1.6869  0.1335
 4938TIP3    H214779   2.573   6.335   0.123  1.3000  0.8616 -2.4319
 4939TIP3   OH214780   1.659   5.797   5.127 -0.0906 -0.4380  0.1181
 4939TIP3    H114781   1.684   5.814   5.036  0.5126 -0.2828  0.3101
 4939TIP3    H214782   1.696   5.870   5.176 -0.8153 -0.2750  0.4307
 4940TIP3   OH214783   2.139   5.634   5.473  0.3501 -0.3794  0.0744
 4940TIP3    H114784   2.155   5.710   5.417 -1.6481 -0.7190 -1.0420
 4940TIP3    H214785   2.225   5.611   5.507  1.0399  2.3076  0.3806
 4941TIP3   OH214786   3.390   3.996   1.148 -0.5604  0.4700 -0.3340
 4941TIP3    H114787   3.441   3.920   1.121  0.5403  1.1592 -0.2495
 4941TIP3    H214788   3.300   3.963   1.157  0.0820 -1.0840  0.8276
 4942TIP3   OH214789   2.701   0.535   4.659  0.2403 -0.2620 -0.0716
 4942TIP3    H114790   2.738   0.447   4.658 -1.2442 -0.9296  0.5670
 4942TIP3    H214791   2.762   0.587   4.607  1.0385 -1.7079 -0.6554
 4943TIP3   OH214792   3.381   1.196   2.862 -0.0374 -0.6215 -0.1256
 4943TIP3    H114793   3.469   1.230   2.849  0.9710 -2.7472  0.6963
 4943TIP3    H214794   3.349   1.240   2.941 -0.3944  1.3266 -1.2868
 4944TIP3   OH214795   1.711   2.606   5.554 -0.2067  0.3869 -0.2925
 4944TIP3    H114796   1.668   2.691   5.563 -2.4347 -0.5511 -1.1435
 4944TIP3    H214797   1.676   2.570   5.472 -1.5499 -2.4837  1.3610
 4945TIP3   OH214798   0.823   0.321   4.392  0.6362 -0.1755  0.1412
 4945TIP3    H114799   0.792   0.391   4.449  0.4080  0.3107 -0.5738
 4945TIP3    H214800   0.789   0.343   4.305  0.3786 -1.2725 -0.0602
 4946TIP3   OH214801   1.738   6.428   5.552  0.5508 -0.6159 -0.1230
 4946TIP3    H114802   1.691   6.511   5.553 -1.5053 -1.7046 -0.6272
 4946TIP3    H214803   1.757   6.410   5.644 -0.7489 -0.5108  0.1829
 4947TIP3   OH214804   1.109   6.404   1.214  0.1423  0.2149  0.4964
 4947TIP3    H114805   1.160   6.400   1.295  0.5658 -0.7072  0.1943
 4947TIP3    H214806   1.147   6.477   1.165  0.3627  0.3090  0.8084
 4948TIP3   OH214807   0.364   0.936   3.239 -0.1159  0.3091 -0.0297
 4948TIP3    H114808   0.453   0.905   3.222 -0.6526 -1.6240  0.4033
 4948TIP3    H214809   0.374   1.030   3.254  1.7542  0.2594 -0.6077
 4949TIP3   OH214810   2.611   6.553   4.202 -0.3032 -0.0560  0.0217
 4949TIP3    H114811   2.672   6.485   4.174  1.1916  0.8537  0.8790
 4949TIP3    H214812   2.559   6.511   4.271  0.4193 -0.4404  0.3540
 4950TIP3   OH214813   3.977   6.420   3.864 -0.0065 -0.5347  0.6445
 4950TIP3    H114814   4.061   6.466   3.871  0.3760 -0.9475 -0.7789
 4950TIP3    H214815   3.911   6.488   3.875  0.4909 -0.2658  2.1565
 4951TIP3   OH214816   6.801   4.672   5.326  0.2098 -0.0643 -1.1582
 4951TIP3    H114817   6.741   4.680   5.401  0.1332  1.7393 -1.3542
 4951TIP3    H214818   6.855   4.596   5.346 -1.3373 -1.0061 -0.3917
 4952TIP3   OH214819   6.244   1.257   2.855 -0.1313 -0.1814 -0.4060
 4952TIP3    H114820   6.241   1.224   2.766  2.1328 -1.3540 -0.1012
 4952TIP3    H214821   6.320   1.315   2.857  0.1487 -0.5519  0.8629
 4953TIP3   OH214822   6.398   6.349   2.690  0.6727 -0.3756 -0.1569
 4953TIP3    H114823   6.414   6.421   2.629 -1.7958  0.4495  0.0882
 4953TIP3    H214824   6.328   6.381   2.747  0.1319 -2.6479  0.5369
 4954TIP3   OH214825   3.598   5.532   2.890  0.0689  0.4187  0.2435
 4954TIP3    H114826   3.628   5.478   2.963 -0.0022  0.1931  0.1085
 4954TIP3    H214827   3.650   5.612   2.895  1.5082 -0.4223 -0.6656
 4955TIP3   OH214828   3.948   5.314   1.378  0.1080 -0.0062 -0.4430
 4955TIP3    H114829   3.877   5.339   1.437  1.3625  0.4177  0.9600
 4955TIP3    H214830   4.027   5.318   1.432  1.3589  0.5526 -2.2069
 4956TIP3   OH214831   6.404   6.144   1.631  0.1771 -0.6683  0.2638
 4956TIP3    H114832   6.393   6.190   1.548  3.0815  1.6303  1.0206
 4956TIP3    H214833   6.338   6.182   1.689  0.0353 -0.2238 -0.1863
 4957TIP3   OH214834   2.267   4.953   4.016  0.2639 -0.1627  0.2257
 4957TIP3    H114835   2.294   5.031   3.969 -0.4617  1.0880  1.7755
 4957TIP3    H214836   2.304   4.880   3.966  0.6765  1.1384 -1.4488
 4958TIP3   OH214837   2.257   1.267   1.521  0.8010 -0.4844  0.0073
 4958TIP3    H114838   2.251   1.318   1.440  2.0422  1.2975  0.9699
 4958TIP3    H214839   2.347   1.235   1.523  0.2118 -2.2683 -0.2703
 4959TIP3   OH214840   5.056   1.946   0.075 -0.3817  0.4040  0.0798
 4959TIP3    H114841   5.047   2.012   0.006 -0.8186 -0.1939 -0.4441
 4959TIP3    H214842   4.984   1.965   0.136  0.5466  1.5058  0.8821
 4960TIP3   OH214843   2.669   4.874   3.736 -0.0440 -0.1640 -0.3796
 4960TIP3    H114844   2.656   4.797   3.680 -0.4361 -0.1619 -0.2931
 4960TIP3    H214845   2.604   4.937   3.706  0.7809  0.4221 -0.9450
 4961TIP3   OH214846   4.994   1.819   5.898  0.2899 -0.0551 -0.4135
 4961TIP3    H114847   4.992   1.747   5.836 -0.0898  1.0053 -1.6681
 4961TIP3    H214848   4.925   1.878   5.869  0.7802  0.9648  0.4192
 4962TIP3   OH214849   1.863   0.989   4.812  0.4046 -0.3864  0.0246
 4962TIP3    H114850   1.869   0.934   4.734 -0.6157  1.4899 -1.4645
 4962TIP3    H214851   1.910   1.069   4.789 -3.1790  1.8224 -0.2415
 4963TIP3   OH214852   3.904   6.282   0.466 -0.4363 -0.2864  0.1763
 4963TIP3    H114853   3.925   6.369   0.500  0.1463 -0.0716 -0.6865
 4963TIP3    H214854   3.814   6.290   0.436 -1.4109 -0.8391  2.7341
 4964TIP3   OH214855   5.827   3.138   1.280  0.6460  0.8181 -0.2109
 4964TIP3    H114856   5.794   3.180   1.201 -0.1846  1.2869  0.3699
 4964TIP3    H214857   5.874   3.060   1.248  0.5110  1.1199 -1.1671
 4965TIP3   OH214858   5.106   0.569   2.133  0.4539  0.0284  0.4893
 4965TIP3    H114859   5.160   0.530   2.202  0.3437 -0.9447  0.0369
 4965TIP3    H214860   5.061   0.495   2.092 -0.0314  0.6662 -0.1641
 4966TIP3   OH214861   1.559   3.941   2.239 -0.5095 -0.5447 -0.0335
 4966TIP3    H114862   1.642   3.907   2.205  0.2340  0.4569  0.7209
 4966TIP3    H214863   1.576   4.034   2.255 -1.9424 -0.1990 -0.3552
 4967TIP3   OH214864   4.866   2.510   5.028  0.1745 -0.3029 -0.4678
 4967TIP3    H114865   4.790   2.461   4.997 -1.0373  1.1364  0.1496
 4967TIP3    H214866   4.902   2.456   5.099 -1.1907 -0.2673  0.2704
 4968TIP3   OH214867   2.970   0.142   3.519 -0.0921 -0.0634  0.0027
 4968TIP3    H114868   2.981   0.054   3.484  0.1253  0.0941 -0.3312
 4968TIP3    H214869   2.880   0.166   3.499  0.5020  0.6878 -1.9959
 4969TIP3   OH214870   6.665   6.569   5.418 -0.4530 -0.4555 -0.1000
 4969TIP3    H114871   6.743   6.523   5.388  1.1309  2.1206 -0.3018
 4969TIP3    H214872   6.660   6.550   5.512  0.7243 -0.3110  0.0045
 4970TIP3   OH214873   4.333   5.514   1.734 -0.2634 -0.1940 -0.3138
 4970TIP3    H114874   4.308   5.470   1.816 -0.3267  2.1241  0.9757
 4970TIP3    H214875   4.290   5.599   1.738  1.1852  0.6761 -1.9409
 4971TIP3   OH214876   1.426   1.556   1.514  0.1540 -0.3338  0.1133
 4971TIP3    H114877   1.495   1.622   1.519  1.7759 -1.5011 -3.5315
 4971TIP3    H214878   1.473   1.473   1.528  0.3984 -1.4252 -5.0491
 4972TIP3   OH214879   0.973   6.736   5.488 -0.0580  0.2992 -0.3358
 4972TIP3    H114880   0.957   6.820   5.445  1.8455  0.3908 -0.9982
 4972TIP3    H214881   0.997   6.677   5.416  0.2640 -0.3534  0.2966
 4973TIP3   OH214882   5.347   4.678   3.147  0.3018 -0.2308 -0.0252
 4973TIP3    H114883   5.299   4.613   3.197 -1.0404  0.5978 -0.1941
 4973TIP3    H214884   5.375   4.743   3.212 -0.5216  0.2957 -0.1840
 4974TIP3   OH214885   6.284   4.606   3.770  0.0215 -0.1920 -0.1713
 4974TIP3    H114886   6.203   4.591   3.722 -0.2938  0.8146  0.0211
 4974TIP3    H214887   6.344   4.538   3.739 -0.7931 -0.7620 -0.5345
 4975TIP3   OH214888   3.855   3.633   4.773 -0.3671  0.4851  0.4099
 4975TIP3    H114889   3.921   3.638   4.842  1.2327  0.0378 -1.0317
 4975TIP3    H214890   3.899   3.665   4.694 -1.6580 -0.4146 -0.7347
 4976TIP3   OH214891   4.560   5.049   1.580 -0.3468  0.4891  0.4247
 4976TIP3    H114892   4.643   5.037   1.535 -1.3093  2.4850 -2.0901
 4976TIP3    H214893   4.559   5.141   1.606 -1.9933  0.6653 -0.1433
 4977TIP3   OH214894   5.829   1.016   0.745  0.1879  0.0340 -0.4116
 4977TIP3    H114895   5.832   1.111   0.754  2.6542 -0.0402  0.2653
 4977TIP3    H214896   5.768   0.988   0.813  0.0380  1.0764 -0.0938
 4978TIP3   OH214897   3.863   3.327   4.569 -0.0778 -0.3177 -0.1973
 4978TIP3    H114898   3.839   3.359   4.482  0.1407 -0.9290 -0.4863
 4978TIP3    H214899   3.798   3.258   4.588 -0.8114  0.5582  0.5998
 4979TIP3   OH214900   4.312   2.632   3.291  0.5364  0.1329 -0.8649
 4979TIP3    H114901   4.355   2.584   3.220  1.5316 -2.5989  1.3879
 4979TIP3    H214902   4.238   2.576   3.317 -0.6919  1.7749 -0.6330
 4980TIP3   OH214903   0.432   4.651   2.002 -0.2772  0.3457 -0.4706
 4980TIP3    H114904   0.406   4.563   2.031 -1.1537  0.1879 -1.6683
 4980TIP3    H214905   0.400   4.708   2.072 -0.6369 -0.1895 -0.1849
 4981TIP3   OH214906   3.866   1.297   1.866 -0.2147 -0.1217  1.0938
 4981TIP3    H114907   3.833   1.379   1.902  0.9281  0.1586  1.5445
 4981TIP3    H214908   3.957   1.315   1.845  0.0444 -1.2748  1.1665
 4982TIP3   OH214909   2.332   4.748   3.861 -0.0692 -0.2894 -0.2124
 4982TIP3    H114910   2.400   4.706   3.808 -0.1283  0.2670 -0.7465
 4982TIP3    H214911   2.250   4.717   3.824 -0.1143  0.3009 -0.6375
 4983TIP3   OH214912   2.591   0.257   3.687 -0.4183 -0.4772 -0.7301
 4983TIP3    H114913   2.559   0.193   3.624 -2.6101  1.5575 -1.8783
 4983TIP3    H214914   2.515   0.314   3.704  0.6802  0.3138  2.1776
 4984TIP3   OH214915   2.551   5.189   5.188  0.1705 -0.6893 -0.5284
 4984TIP3    H114916   2.639   5.183   5.151  0.6140 -0.9105  0.5322
 4984TIP3    H214917   2.558   5.252   5.259 -0.6588 -0.3030 -0.7690
 4985TIP3   OH214918   1.852   0.108   3.280 -0.2557  0.4426  0.5064
 4985TIP3    H114919   1.828   0.034   3.335 -0.3214 -0.2078 -0.3890
 4985TIP3    H214920   1.898   0.168   3.339 -2.6071  0.9853  1.8996
 4986TIP3   OH214921   6.084   1.030   4.519  0.1946 -0.2397 -0.3632
 4986TIP3    H114922   6.030   1.032   4.440  1.1720 -0.4174 -1.0437
 4986TIP3    H214923   6.170   1.061   4.490  0.7134 -0.8352  0.5182
 4987TIP3   OH214924   2.949   5.318   2.769  0.1805 -0.0671 -0.0922
 4987TIP3    H114925   2.910   5.313   2.681 -0.4789  0.5298  0.1539
 4987TIP3    H214926   2.884   5.276   2.826  0.2002  0.3389  0.2320
 4988TIP3   OH214927   2.094   5.385   0.334 -0.1709  0.4613  0.0435
 4988TIP3    H114928   2.094   5.317   0.401  1.8626  1.9194  1.6591
 4988TIP3    H214929   2.025   5.446   0.362 -1.8686 -0.7512 -1.3055
 4989TIP3   OH214930   0.558   0.434   4.917  0.3305 -0.0028 -0.0585
 4989TIP3    H114931   0.531   0.525   4.930 -0.5728 -0.2776  0.0654
 4989TIP3    H214932   0.580   0.403   5.005 -1.5480 -0.5590  0.2544
 4990TIP3   OH214933   4.395   6.619   0.145  0.4116  0.4035  0.5573
 4990TIP3    H114934   4.341   6.691   0.111  1.1840  0.3784 -0.7837
 4990TIP3    H214935   4.434   6.580   0.068 -0.4852 -1.8929  1.1999
 4991TIP3   OH214936   0.775   0.824   5.143  0.1461  1.1866 -0.4523
 4991TIP3    H114937   0.860   0.779   5.152 -1.2702 -1.6947 -0.1429
 4991TIP3    H214938   0.762   0.832   5.049 -0.2468 -0.6158 -0.5888
 4992TIP3   OH214939   2.012   0.957   5.577 -0.2787 -0.2572  0.0807
 4992TIP3    H114940   1.998   0.976   5.484  0.8098  0.4322  0.0451
 4992TIP3    H214941   1.971   1.030   5.623  0.1442 -0.0293  0.0991
 4993TIP3   OH214942   4.717   1.763   5.124  0.3855  0.2815  0.2009
 4993TIP3    H114943   4.806   1.793   5.108  0.8829 -1.4028 -0.4100
 4993TIP3    H214944   4.665   1.801   5.052  0.7859  0.4858  0.0163
 4994TIP3   OH214945   0.689   3.594   1.302  0.1336  0.3112 -0.5718
 4994TIP3    H114946   0.710   3.601   1.395  0.2588  1.0016 -0.6463
 4994TIP3    H214947   0.750   3.655   1.259  0.1175 -0.0427 -1.1113
 4995TIP3   OH214948   6.129   0.151   0.059  0.4344  0.1925  0.3686
 4995TIP3    H114949   6.178   0.092   0.117 -1.1795  0.3968  2.0606
 4995TIP3    H214950   6.125   0.234   0.107 -2.6103 -0.1953  0.9910
 4996TIP3   OH214951   1.300   1.280   1.333  0.6555  0.0132 -0.3336
 4996TIP3    H114952   1.396   1.288   1.332  0.5797  1.3553  0.8137
 4996TIP3    H214953   1.278   1.273   1.426 -0.3047 -1.4140 -0.6386
 4997TIP3   OH214954   2.134   4.591   4.447 -0.0567  0.0350 -0.1864
 4997TIP3    H114955   2.150   4.620   4.357 -0.9746  0.2892 -0.2762
 4997TIP3    H214956   2.052   4.542   4.442 -0.1472  0.1061  0.5239
 4998TIP3   OH214957   0.870   2.950   1.701 -0.0036 -0.1694  0.4537
 4998TIP3    H114958   0.866   2.886   1.772  2.2444 -0.3540  0.5063
 4998TIP3    H214959   0.820   2.911   1.630 -0.5896 -0.9167  1.2637
 4999TIP3   OH214960   4.651   5.767   5.405 -0.0500 -0.6966  0.2176
 4999TIP3    H114961   4.734   5.739   5.367  0.4558  0.8443  0.0943
 4999TIP3    H214962   4.676   5.817   5.483 -0.8119  0.3609 -0.1910
 5000TIP3   OH214963   3.341   4.998   5.191  0.3409  0.6961  0.3589
 5000TIP3    H114964   3.359   4.925   5.252 -1.9718  0.8220  1.2711
 5000TIP3    H214965   3.269   4.967   5.137  1.4709  1.1321 -1.4918
 5001TIP3   OH214966   0.477   6.188   0.504  0.0553 -0.1326  0.2989
 5001TIP3    H114967   0.495   6.208   0.412  1.6994 -2.0444  0.1314
 5001TIP3    H214968   0.458   6.094   0.505  1.5506 -0.4764  2.0562
 5002TIP3   OH214969   4.689   4.325   5.102  0.3301  0.5071  0.1009
 5002TIP3    H114970   4.664   4.412   5.133 -1.5143  0.1774 -0.3357
 5002TIP3    H214971   4.669   4.326   5.009 -0.1410 -0.5054  0.1728
 5003TIP3   OH214972   7.168   3.394   3.945  0.1025 -0.1406  0.4280
 5003TIP3    H114973   7.211   3.478   3.963 -0.4621  0.1207  0.5976
 5003TIP3    H214974   7.218   3.331   3.996  0.3831  0.1346  0.4986
 5004TIP3   OH214975   2.440   0.104   4.784 -0.6178  0.3570 -0.3555
 5004TIP3    H114976   2.501   0.152   4.728  3.0906 -0.9666  2.1868
 5004TIP3    H214977   2.439   0.015   4.748  0.2863 -0.0196  0.5029
 5005TIP3   OH214978   1.190   2.266   3.954 -0.1769  0.0275 -0.1060
 5005TIP3    H114979   1.202   2.344   3.901 -0.2547 -0.4265 -0.8121
 5005TIP3    H214980   1.277   2.225   3.956 -0.1931  0.0005  0.0494
 5006TIP3   OH214981   6.805   3.666   0.562 -0.4936  0.5191  0.2087
 5006TIP3    H114982   6.723   3.638   0.521  0.0414  0.8353 -1.1092
 5006TIP3    H214983   6.822   3.599   0.629 -0.8941 -0.5351 -0.7230
 5007TIP3   OH214984   1.921   6.448   4.437  0.8759 -0.0185  0.0059
 5007TIP3    H114985   1.995   6.425   4.493  0.0756 -1.9077  0.3717
 5007TIP3    H214986   1.951   6.431   4.348  1.0108 -0.4283  0.1290
 5008TIP3   OH214987   6.996   1.396   5.591  0.3470 -0.1243 -0.4664
 5008TIP3    H114988   7.044   1.435   5.518 -1.3099  0.3169 -1.3929
 5008TIP3    H214989   6.997   1.463   5.660  0.0863  0.3630 -0.9248
 5009TIP3   OH214990   5.318   0.341   1.142 -0.1764 -0.3403 -0.4186
 5009TIP3    H114991   5.322   0.372   1.051 -1.2823  0.7713 -0.1184
 5009TIP3    H214992   5.275   0.256   1.136 -1.5732  0.3678 -0.8303
 5010TIP3   OH214993   1.772   4.449   1.444  0.3518 -0.3390  0.0891
 5010TIP3    H114994   1.731   4.516   1.390  0.0777  0.8492  1.7068
 5010TIP3    H214995   1.752   4.367   1.399  0.7823  0.6393 -1.9858
 5011TIP3   OH214996   4.625   5.171   0.753 -0.1286  0.1937  0.3425
 5011TIP3    H114997   4.680   5.178   0.831  1.5882 -0.1641 -0.7680
 5011TIP3    H214998   4.615   5.077   0.739  2.4549  0.0709 -1.6622
 5012TIP3   OH214999   4.445   2.483   4.260  0.2982 -0.2089  0.1077
 5012TIP3    H115000   4.359   2.464   4.297  0.6405 -1.0707  0.4858
 5012TIP3    H215001   4.434   2.471   4.165  0.1831 -1.0731  0.2249
 5013TIP3   OH215002   2.097   5.389   4.801  0.2023 -0.3266 -0.3479
 5013TIP3    H115003   2.167   5.432   4.751  0.9107 -0.8267  0.2055
 5013TIP3    H215004   2.132   5.303   4.824 -1.4579 -1.5333 -2.0286
 5014TIP3   OH215005   5.588   1.918   4.059 -0.1763  0.3894 -0.8274
 5014TIP3    H115006   5.567   1.984   3.992 -0.4450 -0.0033 -1.1313
 5014TIP3    H215007   5.588   1.967   4.141  0.7184  0.9948 -1.1701
 5015TIP3   OH215008   4.261   0.892   3.887  0.2433 -0.2290  0.3594
 5015TIP3    H115009   4.229   0.834   3.957  0.4746 -1.1771 -0.3106
 5015TIP3    H215010   4.238   0.847   3.806 -0.0872  0.9025 -0.1893
 5016TIP3   OH215011   6.876   0.049   2.590  0.1112  0.4148  0.0515
 5016TIP3    H115012   6.967   0.025   2.610 -0.7377 -2.7100  0.7472
 5016TIP3    H215013   6.852   0.111   2.658  1.1457 -0.2114  1.0186
 5017TIP3   OH215014   5.339   5.700   4.593  0.0109 -0.5148  0.4358
 5017TIP3    H115015   5.315   5.662   4.677  1.6609  0.1409  1.2263
 5017TIP3    H215016   5.283   5.778   4.585 -0.6221 -0.9442  0.5951
 5018TIP3   OH215017   1.279   6.329   0.977  0.3096 -0.2536 -0.1796
 5018TIP3    H115018   1.345   6.360   1.039  0.5013  0.7834 -0.8776
 5018TIP3    H215019   1.197   6.328   1.026  0.6730 -0.6812  0.4366
 5019TIP3   OH215020   1.867   4.861   0.192  0.2818 -0.0886 -0.0105
 5019TIP3    H115021   1.915   4.854   0.274 -0.2882  1.2135  0.4511
 5019TIP3    H215022   1.871   4.773   0.155 -0.8167 -1.1320  2.1721
 5020TIP3   OH215023   1.970   6.047   4.833 -0.2726 -0.2140 -0.3046
 5020TIP3    H115024   1.891   6.100   4.820  0.3345  0.9670  0.6398
 5020TIP3    H215025   2.040   6.100   4.795  0.2960 -0.5111  0.3261
 5021TIP3   OH215026   1.018   2.183   0.699  0.4065 -0.3925 -0.5273
 5021TIP3    H115027   1.068   2.111   0.738  0.0688  0.3614  1.4546
 5021TIP3    H215028   1.084   2.237   0.656  1.0288 -0.5230  0.2378
 5022TIP3   OH215029   6.058   1.292   0.571  0.0767 -0.0652  0.0055
 5022TIP3    H115030   6.040   1.285   0.477 -1.2411  0.7768  0.1613
 5022TIP3    H215031   6.083   1.384   0.584  1.4712 -0.4682  0.3100
 5023TIP3   OH215032   6.100   0.702   4.057 -0.3051 -0.1950  0.1923
 5023TIP3    H115033   6.116   0.769   4.123  2.7415 -0.0787 -0.5276
 5023TIP3    H215034   6.135   0.622   4.094  0.5465 -0.3304 -0.8706
 5024TIP3   OH215035   1.174   0.121   0.481 -0.3511  0.3680  0.7549
 5024TIP3    H115036   1.102   0.154   0.429 -1.4166  0.4644  2.2163
 5024TIP3    H215037   1.242   0.100   0.418 -1.6184  0.3595 -0.6597
 5025TIP3   OH215038   3.024   1.363   1.068  1.0603  0.2811  0.3900
 5025TIP3    H115039   2.953   1.338   1.010  1.3850  1.2664 -0.4694
 5025TIP3    H215040   2.981   1.394   1.148  0.5293  0.6862 -0.0503
 5026TIP3   OH215041   3.035   4.486   4.911 -0.0479  0.3732 -0.4618
 5026TIP3    H115042   3.095   4.531   4.971 -2.2768  2.4950  0.3517
 5026TIP3    H215043   2.999   4.414   4.962  2.0773 -1.2624 -1.1291
 5027TIP3   OH215044   6.004   5.721   0.006 -0.7347  0.8039 -0.6446
 5027TIP3    H115045   6.006   5.793   0.069  0.6857 -0.0451  0.3502
 5027TIP3    H215046   5.931   5.665   0.036 -0.3787  0.6586 -0.0279
 5028TIP3   OH215047   6.260   4.155   2.032 -0.0678 -0.2765  0.0503
 5028TIP3    H115048   6.218   4.212   2.097  1.5806  0.6315  0.3819
 5028TIP3    H215049   6.353   4.169   2.045  0.3369  0.1607 -2.7176
 5029TIP3   OH215050   6.524   2.078   5.050  0.4302  0.2909  0.1921
 5029TIP3    H115051   6.463   2.136   5.096 -0.4818 -0.6885  0.2432
 5029TIP3    H215052   6.526   2.111   4.960 -0.7978 -0.1489 -0.0087
 5030TIP3   OH215053   6.636   2.547   3.596  0.8945  1.1268  1.0693
 5030TIP3    H115054   6.723   2.526   3.563 -0.2193  0.1683 -1.5674
 5030TIP3    H215055   6.595   2.596   3.525 -2.0505 -1.9930  0.3645
 5031TIP3   OH215056   2.599   2.294   3.075 -0.4547  0.1105  0.1603
 5031TIP3    H115057   2.661   2.360   3.104 -0.2970 -0.3239  0.8371
 5031TIP3    H215058   2.551   2.335   3.003  0.4371  0.5319 -0.1934
 5032TIP3   OH215059   4.508   0.024   0.616 -0.3643 -0.7843 -0.4081
 5032TIP3    H115060   4.592  -0.022   0.615 -0.4477 -1.0691  1.8815
 5032TIP3    H215061   4.529   0.113   0.590  0.6341 -0.8831  0.0404
 5033TIP3   OH215062   3.282   3.886   0.349 -0.0565 -0.1884  0.6075
 5033TIP3    H115063   3.325   3.806   0.318 -0.3313  0.2535 -1.0312
 5033TIP3    H215064   3.323   3.956   0.299 -0.4890  0.5901  1.3316
 5034TIP3   OH215065   4.363   6.301   0.311  0.2845  0.5997  0.4383
 5034TIP3    H115066   4.402   6.355   0.379  1.2272  1.0431 -0.4299
 5034TIP3    H215067   4.287   6.351   0.281 -2.4682 -1.2394  3.6510
 5035TIP3   OH215068   1.148   3.954   1.355  0.2336  0.1636  0.6550
 5035TIP3    H115069   1.111   3.915   1.276  0.8703  0.9883 -0.0761
 5035TIP3    H215070   1.079   4.009   1.390  0.8473  2.1007 -0.9827
 5036TIP3   OH215071   4.201   6.218   2.179  0.1242 -0.1519 -0.6894
 5036TIP3    H115072   4.293   6.201   2.160  0.0174 -1.1217 -0.4387
 5036TIP3    H215073   4.181   6.301   2.136  1.1455  0.1221 -0.6397
 5037TIP3   OH215074   5.936   0.634   3.835  0.0840 -0.2153  0.7283
 5037TIP3    H115075   5.909   0.542   3.835 -0.4244 -0.0766  0.0494
 5037TIP3    H215076   5.964   0.651   3.925  1.3997 -1.3754  0.5829
 5038TIP3   OH215077   6.431   1.031   1.198 -0.8361  0.6998  0.0453
 5038TIP3    H115078   6.460   1.040   1.289 -1.6421  1.5813  0.2377
 5038TIP3    H215079   6.336   1.044   1.202 -1.2506 -1.7194 -0.6146
 5039TIP3   OH215080   4.389   4.346   2.634 -0.3971  0.5834  0.0349
 5039TIP3    H115081   4.436   4.337   2.551  2.0969  0.4187  1.3569
 5039TIP3    H215082   4.296   4.340   2.610  0.2653 -1.5938 -2.4669
 5040TIP3   OH215083   0.236   5.576   3.972 -0.3285  0.5708 -0.6290
 5040TIP3    H115084   0.241   5.672   3.968 -0.0381  0.5391 -1.0486
 5040TIP3    H215085   0.180   5.553   3.898  1.3831  0.2739 -1.8676
 5041TIP3   OH215086   5.740   1.196   4.120 -0.1220 -0.5594 -0.1063
 5041TIP3    H115087   5.677   1.262   4.091  1.5459  0.7161 -1.0653
 5041TIP3    H215088   5.770   1.155   4.039 -0.5395 -1.9510  0.4257
 5042TIP3   OH215089   0.972   0.834   4.199 -0.1889  0.1237 -0.2830
 5042TIP3    H115090   1.017   0.912   4.167 -1.2002  0.2320 -1.5332
 5042TIP3    H215091   1.041   0.768   4.209  0.2286  0.1307 -2.6090
 5043TIP3   OH215092   2.039   4.760   3.335  0.6785 -0.3911  0.4086
 5043TIP3    H115093   1.948   4.761   3.364  0.7554 -0.3246  0.6478
 5043TIP3    H215094   2.077   4.684   3.380  0.9110 -0.0275  0.8329
 5044TIP3   OH215095   3.772   4.875   2.625 -0.3839 -0.1651  0.0195
 5044TIP3    H115096   3.743   4.788   2.597 -1.2386  0.2565 -0.4490
 5044TIP3    H215097   3.695   4.914   2.666 -0.5412  0.9875 -1.2650
 5045TIP3   OH215098   4.189   2.865   1.996 -0.6511 -0.0830  0.5074
 5045TIP3    H115099   4.129   2.831   1.930 -1.0244 -0.3907  0.9946
 5045TIP3    H215100   4.162   2.821   2.077  1.3261 -1.5212  0.4312
 5046TIP3   OH215101   1.949   4.267   0.272 -0.2379  0.3335  0.2464
 5046TIP3    H115102   1.931   4.211   0.197  2.2584  1.7301 -1.5442
 5046TIP3    H215103   1.939   4.209   0.348 -0.2671 -1.8412 -1.3228
 5047TIP3   OH215104   0.766   5.202   5.505  0.8414 -0.3694  0.2347
 5047TIP3    H115105   0.685   5.168   5.542 -0.2942  0.0603 -1.7169
 5047TIP3    H215106   0.764   5.296   5.525  0.9581 -0.3972  0.3742
 5048TIP3   OH215107   4.892   6.187   3.281 -0.4822 -0.2419  0.1934
 5048TIP3    H115108   4.862   6.224   3.364 -0.4812 -0.1112  0.1343
 5048TIP3    H215109   4.823   6.126   3.255 -0.1103 -0.8973  0.7081
 5049TIP3   OH215110   5.610   1.311   1.219 -0.9309  0.1923 -0.3924
 5049TIP3    H115111   5.613   1.227   1.265 -1.0642 -0.1301 -0.9649
 5049TIP3    H215112   5.588   1.374   1.287  1.3491  0.1146  0.5205
 5050TIP3   OH215113   0.645   5.839   2.651 -0.3118  0.2550 -0.0957
 5050TIP3    H115114   0.673   5.888   2.728  1.1184  0.3438 -0.6419
 5050TIP3    H215115   0.706   5.866   2.582 -1.7637  0.4417 -1.3618
 5051TIP3   OH215116   6.654   4.389   4.765 -0.0366 -0.1609 -0.2972
 5051TIP3    H115117   6.576   4.371   4.712  1.8277 -2.6503 -2.4584
 5051TIP3    H215118   6.698   4.305   4.773  2.0822  1.0020  1.5277
 5052TIP3   OH215119   1.502   2.350   5.784 -0.0975 -0.1879 -0.2309
 5052TIP3    H115120   1.476   2.311   5.867 -0.7615 -2.2842 -1.3527
 5052TIP3    H215121   1.592   2.379   5.798 -0.0397 -0.9542  1.0769
 5053TIP3   OH215122   1.468   2.907   2.124  0.2651 -0.0178  0.2398
 5053TIP3    H115123   1.464   2.818   2.159 -1.3899  0.2129  0.7083
 5053TIP3    H215124   1.540   2.905   2.061  1.3255 -1.2453  1.4331
 5054TIP3   OH215125   1.243   1.423   0.770 -0.0893 -0.2180  0.2162
 5054TIP3    H115126   1.186   1.469   0.831  0.4641 -0.9325  1.3135
 5054TIP3    H215127   1.184   1.365   0.722 -0.4645 -0.0338  0.4490
 5055TIP3   OH215128   0.365   5.318   3.432 -0.2059  0.1323 -0.2048
 5055TIP3    H115129   0.289   5.260   3.430 -0.3488  0.1483  2.1098
 5055TIP3    H215130   0.351   5.373   3.508  1.5123  1.0327 -0.4927
 5056TIP3   OH215131   0.695   0.573   2.507 -0.9604  0.1867 -0.2532
 5056TIP3    H115132   0.647   0.632   2.448  0.4826  0.6349 -1.0474
 5056TIP3    H215133   0.785   0.574   2.473 -0.6515 -1.6079  0.4049
 5057TIP3   OH215134   2.854   3.223   2.662  0.0342  0.0732  0.5979
 5057TIP3    H115135   2.899   3.284   2.604  1.0377 -1.4043 -0.2520
 5057TIP3    H215136   2.780   3.190   2.611  1.0014 -1.3386  0.0506
 5058TIP3   OH215137   5.629   1.473   1.480 -0.3366 -0.1541 -0.5006
 5058TIP3    H115138   5.540   1.461   1.515  0.0434  0.4209  0.6895
 5058TIP3    H215139   5.684   1.416   1.533 -0.0054 -0.6652 -1.3683
 5059TIP3   OH215140   5.650   1.780   3.522 -0.7386 -0.2859 -0.5692
 5059TIP3    H115141   5.739   1.748   3.539 -0.2129  0.9081 -0.9760
 5059TIP3    H215142   5.606   1.774   3.607  0.2254  0.5850  0.0210
 5060TIP3   OH215143   6.295   1.083   0.881 -0.1842  0.1687  0.7448
 5060TIP3    H115144   6.388   1.064   0.887  0.3137  1.7393 -0.9832
 5060TIP3    H215145   6.284   1.167   0.926 -0.7449  0.0739  0.7970
 5061TIP3   OH215146   0.861   6.445   5.776  0.4048 -0.0715 -0.7071
 5061TIP3    H115147   0.820   6.375   5.826  0.3090 -0.3551 -1.1794
 5061TIP3    H215148   0.887   6.510   5.842  2.6588 -1.5946  0.0090
 5062TIP3   OH215149   3.826   2.760   4.243  0.2539  0.2900 -0.5719
 5062TIP3    H115150   3.834   2.665   4.237 -0.1592  0.3157 -1.9081
 5062TIP3    H215151   3.750   2.774   4.299  0.6271 -0.1551  0.0533
 5063TIP3   OH215152   7.124   4.726   5.599  0.1193  0.0327 -0.0122
 5063TIP3    H115153   7.180   4.649   5.591  0.4916  0.1783  1.0761
 5063TIP3    H215154   7.146   4.779   5.523  2.0022  0.4208  0.7516
 5064TIP3   OH215155   2.895   4.667   0.037 -0.3281 -0.0422  0.3073
 5064TIP3    H115156   2.845   4.670  -0.044  0.6893  0.1084 -0.3222
 5064TIP3    H215157   2.882   4.754   0.077  0.6605  0.5527 -0.6172
 5065TIP3   OH215158   2.065   3.568   3.007  0.3599  0.2621 -0.4977
 5065TIP3    H115159   2.014   3.490   3.028 -1.6428  1.7154  0.3963
 5065TIP3    H215160   2.079   3.610   3.092  1.1655  1.0124 -0.9913
 5066TIP3   OH215161   0.584   4.452   0.508  0.1625 -0.0659  0.2482
 5066TIP3    H115162   0.669   4.442   0.464  0.4996  2.3660  0.2247
 5066TIP3    H215163   0.552   4.537   0.479 -1.1413  0.1697  2.2199
 5067TIP3   OH215164   3.119   5.094   0.603 -0.3636 -0.0497  0.5043
 5067TIP3    H115165   3.198   5.043   0.620  0.8258  0.7128 -2.1250
 5067TIP3    H215166   3.107   5.146   0.682  2.6089  0.7850  0.5416
 5068TIP3   OH215167   0.892   3.876   5.710 -0.1268  0.5524  0.1524
 5068TIP3    H115168   0.926   3.862   5.798  0.5931  0.5208 -0.1203
 5068TIP3    H215169   0.891   3.971   5.699  0.5550  0.5372 -0.0891
 5069TIP3   OH215170   4.468   3.180   2.685 -0.9095  0.1163  0.1294
 5069TIP3    H115171   4.507   3.216   2.764  0.5494 -1.2511  0.0729
 5069TIP3    H215172   4.407   3.248   2.655 -2.0552  0.3770  2.7796
 5070TIP3   OH215173   2.930   5.939   1.595  0.2826 -0.4528 -0.4938
 5070TIP3    H115174   2.965   6.013   1.546  3.4977 -1.4627 -0.0035
 5070TIP3    H215175   2.845   5.968   1.627  0.9699  2.6257 -1.1680
 5071TIP3   OH215176   3.180   2.077   0.239  0.4654  0.2436 -0.1990
 5071TIP3    H115177   3.245   2.024   0.284  0.6338 -0.2824 -1.0412
 5071TIP3    H215178   3.152   2.024   0.164 -0.4591  0.7260 -0.2195
 5072TIP3   OH215179   5.860   2.734   0.545  0.5070 -0.0069  0.2798
 5072TIP3    H115180   5.803   2.679   0.490 -0.5049  0.6078  0.6962
 5072TIP3    H215181   5.803   2.764   0.616  1.4541  0.3215  0.9137
 5073TIP3   OH215182   3.065   4.131   0.186 -0.5887 -0.1649 -0.1058
 5073TIP3    H115183   3.047   4.125   0.279  0.6929 -0.2196  0.1618
 5073TIP3    H215184   2.988   4.174   0.149 -2.8576 -3.4926  0.3571
 5074TIP3   OH215185   2.893   3.733   4.537 -0.1857  0.3195  0.1429
 5074TIP3    H115186   2.918   3.641   4.548  0.8343  0.6365  0.6543
 5074TIP3    H215187   2.803   3.730   4.504  0.6687 -0.9097 -2.2926
 5075TIP3   OH215188   4.266   3.286   5.637  0.2916 -0.1692  0.5769
 5075TIP3    H115189   4.351   3.323   5.659 -0.0875  2.0882 -1.3101
 5075TIP3    H215190   4.205   3.333   5.694  0.0536  0.3796 -0.1112
 5076TIP3   OH215191   6.658   4.790   3.105 -0.4625 -0.1609 -0.1123
 5076TIP3    H115192   6.588   4.803   3.042 -1.4412 -2.7927  0.3413
 5076TIP3    H215193   6.626   4.830   3.186 -0.3090  0.8869 -0.5502
 5077TIP3   OH215194   2.295   4.789   5.279  0.2876 -0.2702  0.5468
 5077TIP3    H115195   2.242   4.869   5.280 -0.7511 -0.9011 -0.7871
 5077TIP3    H215196   2.363   4.807   5.214  0.1943 -0.3755  0.4188
 5078TIP3   OH215197   5.791   5.130   0.477  0.5163 -0.3015 -0.2596
 5078TIP3    H115198   5.874   5.083   0.480 -0.6420 -2.4407  1.4657
 5078TIP3    H215199   5.767   5.131   0.384  1.2967 -1.8582 -0.5107
 5079TIP3   OH215200   6.567   4.925   4.491 -0.0435  0.0308 -0.3142
 5079TIP3    H115201   6.544   5.016   4.474 -0.0482 -0.4748 -3.5701
 5079TIP3    H215202   6.593   4.890   4.406 -0.8338 -3.2416  0.6375
 5080TIP3   OH215203   5.462   5.542   4.982 -0.1145 -0.4829 -0.3254
 5080TIP3    H115204   5.469   5.449   5.003 -0.9215 -0.0836  2.0443
 5080TIP3    H215205   5.470   5.546   4.886  2.2104 -2.7211 -0.3253
 5081TIP3   OH215206   2.358   0.672   1.562  0.2644  0.2531 -0.7044
 5081TIP3    H115207   2.348   0.631   1.476  0.7451 -0.7136 -0.3198
 5081TIP3    H215208   2.451   0.664   1.582 -0.2928 -2.7731  1.3969
 5082TIP3   OH215209   6.120   2.588   3.876 -0.3143  0.0922  0.3841
 5082TIP3    H115210   6.115   2.642   3.955  1.0839  0.3481  0.3151
 5082TIP3    H215211   6.212   2.593   3.849 -0.6953 -0.2932 -1.0568
 5083TIP3   OH215212   7.073   5.974   4.567  0.1059 -0.2441  0.1274
 5083TIP3    H115213   6.998   5.994   4.623  0.1021  1.7700 -0.5182
 5083TIP3    H215214   7.143   5.951   4.628  0.0269  1.6433  1.0048
 5084TIP3   OH215215   6.378   1.160   3.869  0.0289  0.3609  0.1118
 5084TIP3    H115216   6.347   1.081   3.913 -1.9129  1.6229  1.1159
 5084TIP3    H215217   6.421   1.211   3.937  0.6523  0.5251 -0.3868
 5085TIP3   OH215218   1.483   0.101   2.266  0.3063  0.1310  0.0179
 5085TIP3    H115219   1.511   0.119   2.356  1.4691  0.1025 -0.3338
 5085TIP3    H215220   1.548   0.142   2.211 -0.6132  0.4750 -0.8367
 5086TIP3   OH215221   5.655   3.451   1.543 -0.7300  0.1646 -0.3067
 5086TIP3    H115222   5.614   3.474   1.460  1.4451 -0.5429 -1.6608
 5086TIP3    H215223   5.662   3.533   1.591 -0.8447  0.8068 -1.3706
 5087TIP3   OH215224   0.284   5.454   0.865  0.4506 -0.1823  0.0283
 5087TIP3    H115225   0.287   5.540   0.822  0.4907 -0.1060  0.1840
 5087TIP3    H215226   0.353   5.403   0.821  0.5888 -0.0587  0.1006
 5088TIP3   OH215227   2.980   6.219   1.539 -0.1080  0.2401 -0.2609
 5088TIP3    H115228   2.999   6.303   1.497  0.1983  0.4680  0.3111
 5088TIP3    H215229   2.926   6.242   1.614 -0.7623 -0.1743 -0.5992
 5089TIP3   OH215230   6.145   3.035   2.858  0.2412 -0.1913 -0.3651
 5089TIP3    H115231   6.148   2.944   2.830  0.4331  0.2179 -1.7392
 5089TIP3    H215232   6.053   3.051   2.879  0.4208 -1.0753  1.2905
 5090TIP3   OH215233   5.843   0.504   3.197  0.4507 -0.5817  0.7085
 5090TIP3    H115234   5.749   0.489   3.188  0.2536  0.3433  1.1106
 5090TIP3    H215235   5.883   0.426   3.158 -0.4791 -1.3365  1.2133
 5091TIP3   OH215236   4.735   2.585   0.968  0.0985  0.1217 -0.3137
 5091TIP3    H115237   4.799   2.546   1.027 -1.2609 -1.4983  0.1925
 5091TIP3    H215238   4.783   2.654   0.922  1.5347  0.6127  1.7637
 5092TIP3   OH215239   6.171   1.059   0.633  0.1624  0.1839  0.3332
 5092TIP3    H115240   6.116   1.135   0.617 -1.5403 -0.5867  2.1407
 5092TIP3    H215241   6.186   1.060   0.728  0.8278 -1.2569  0.2666
 5093TIP3   OH215242   6.347   5.925   2.874  0.0728  0.5026 -0.1449
 5093TIP3    H115243   6.271   5.881   2.834 -0.8152  1.3036  0.6087
 5093TIP3    H215244   6.383   5.978   2.803 -0.1727  0.2458 -0.4670
 5094TIP3   OH215245   3.824   2.284   4.344  0.4157 -0.1204  0.3281
 5094TIP3    H115246   3.787   2.325   4.266  1.0310 -0.6122 -0.2328
 5094TIP3    H215247   3.748   2.258   4.396  0.0110  1.5244  0.6042
 5095TIP3   OH215248   5.998   4.923   0.020 -0.1083  0.4898  0.2059
 5095TIP3    H115249   5.984   4.976   0.099  0.5065  1.0419 -0.0487
 5095TIP3    H215250   5.918   4.936  -0.031  0.5211  2.1814 -0.4172
 5096TIP3   OH215251   2.684   3.865   4.372 -0.5441  0.4501 -0.3566
 5096TIP3    H115252   2.628   3.814   4.430 -0.6217 -0.8880 -1.5559
 5096TIP3    H215253   2.657   3.839   4.284  1.3833  0.4006 -0.9695
 5097TIP3   OH215254   2.417   4.314   2.991  0.7321  0.2986  0.0092
 5097TIP3    H115255   2.467   4.363   2.926  0.0624  0.6214 -0.2647
 5097TIP3    H215256   2.468   4.322   3.072  1.1959  0.4983 -0.2996
 5098TIP3   OH215257   4.859   5.926   2.392  0.3010 -0.1585 -0.1196
 5098TIP3    H115258   4.925   5.926   2.462  1.3413 -3.1236 -0.9463
 5098TIP3    H215259   4.781   5.961   2.433  1.8729  1.7794  1.4229
 5099TIP3   OH215260   3.654   3.372   4.020  0.2422 -0.0049 -0.3554
 5099TIP3    H115261   3.732   3.332   3.982  0.9779  0.9783  0.0851
 5099TIP3    H215262   3.686   3.450   4.064 -1.1468  1.0448 -1.1361
 5100TIP3   OH215263   6.364   4.655   2.782 -0.3374  0.3221  0.3780
 5100TIP3    H115264   6.381   4.603   2.704 -0.9371  0.6128  0.0467
 5100TIP3    H215265   6.298   4.606   2.830  0.6921 -0.3145  1.1705
 5101TIP3   OH215266   7.055   4.045   3.814 -0.4917 -0.2441  0.3947
 5101TIP3    H115267   7.020   4.037   3.903 -1.6264 -1.9260 -0.1529
 5101TIP3    H215268   7.012   3.975   3.765  2.5341 -1.4726 -0.7459
 5102TIP3   OH215269   2.981   5.442   4.839  0.0392  0.4464 -0.4607
 5102TIP3    H115270   2.986   5.457   4.744 -0.0639 -1.4661 -0.8076
 5102TIP3    H215271   3.040   5.369   4.855  0.5499  1.1665  1.0851
 5103TIP3   OH215272   5.617   5.503   3.688 -0.0467 -0.3399  0.3716
 5103TIP3    H115273   5.657   5.446   3.753 -2.5275 -1.8203  0.7414
 5103TIP3    H215274   5.535   5.532   3.728 -0.8911 -0.0135 -1.4747
 5104TIP3   OH215275   3.600   6.476   2.002  0.5429 -0.2412  0.1043
 5104TIP3    H115276   3.580   6.453   1.912  0.1771 -0.0043  0.1232
 5104TIP3    H215277   3.653   6.555   1.996  0.3417 -0.1065  0.1050
 5105TIP3   OH215278   2.141   2.984   0.926  0.4379 -0.4076 -0.0896
 5105TIP3    H115279   2.101   3.018   0.846  2.6522  1.2203 -0.5913
 5105TIP3    H215280   2.111   2.893   0.931 -2.0434  0.2585 -1.1783
 5106TIP3   OH215281   7.168   1.853   2.617 -0.7669  0.4534 -0.1007
 5106TIP3    H115282   7.256   1.851   2.655 -0.1103 -1.0507 -1.5452
 5106TIP3    H215283   7.113   1.806   2.679 -0.1209 -0.3025 -0.0871
 5107TIP3   OH215284   3.148   2.976   0.235 -0.0014 -0.3385  0.4775
 5107TIP3    H115285   3.242   2.956   0.239  0.2782  0.8287  0.1189
 5107TIP3    H215286   3.117   2.960   0.324  0.3716 -1.4412  0.4267
 5108TIP3   OH215287   4.393   2.836   5.242 -0.5367 -0.3887  0.2637
 5108TIP3    H115288   4.369   2.794   5.325  0.0934  1.1358  1.2816
 5108TIP3    H215289   4.463   2.781   5.207 -1.6013 -1.7061  0.1263
 5109TIP3   OH215290   4.518   5.989   0.568  0.3109  0.6598  0.1736
 5109TIP3    H115291   4.599   5.972   0.520 -0.6411 -2.4585 -0.5376
 5109TIP3    H215292   4.450   5.988   0.501 -0.6845 -0.5674  1.1569
 5110TIP3   OH215293   2.453   3.319   2.312 -0.4868  0.1964 -0.1081
 5110TIP3    H115294   2.391   3.349   2.245 -1.1868 -3.0324 -1.0603
 5110TIP3    H215295   2.532   3.296   2.264  0.0630  0.5564  0.6002
 5111TIP3   OH215296   4.839   3.534   1.604 -0.0117 -0.0588 -0.2287
 5111TIP3    H115297   4.864   3.491   1.686  1.3882  2.8454  1.0413
 5111TIP3    H215298   4.778   3.603   1.631 -2.0530 -1.0048 -2.1211
 5112TIP3   OH215299   4.073   2.157   5.144  0.5167  0.0909  0.2245
 5112TIP3    H115300   4.073   2.187   5.235  1.2569 -1.1727  0.6655
 5112TIP3    H215301   4.018   2.078   5.145 -0.2096  0.5680 -0.6129
 5113TIP3   OH215302   6.669   2.578   2.654 -0.1310 -0.3566 -0.3073
 5113TIP3    H115303   6.669   2.502   2.712 -0.3496  1.0426  1.5977
 5113TIP3    H215304   6.651   2.653   2.711 -0.6698  1.0695 -2.2281
 5114TIP3   OH215305   2.742   4.515   4.564  0.0497 -0.1604  0.6770
 5114TIP3    H115306   2.818   4.572   4.563  0.0006 -0.1010 -0.2121
 5114TIP3    H215307   2.776   4.427   4.546 -0.1307 -0.0737 -0.1223
 5115TIP3   OH215308   1.690   2.882   5.696  0.6639  0.5663 -0.4325
 5115TIP3    H115309   1.724   2.802   5.735  1.5106  0.6034 -1.0777
 5115TIP3    H215310   1.608   2.899   5.743  0.4538 -0.6929 -0.3251
 5116TIP3   OH215311   2.640   5.198   1.452  0.0580  0.1557 -0.0408
 5116TIP3    H115312   2.637   5.222   1.544 -1.1299 -0.1765  0.0295
 5116TIP3    H215313   2.562   5.237   1.414  1.1448  1.3054 -1.1887
 5117TIP3   OH215314   4.999   3.718   0.472  0.1857  0.3616  0.4154
 5117TIP3    H115315   4.941   3.667   0.415 -0.7758  0.0068  1.6762
 5117TIP3    H215316   5.085   3.676   0.462  0.8515  2.2048 -3.1236
 5118TIP3   OH215317   0.725   4.428   3.501 -0.2097  0.1747  0.6267
 5118TIP3    H115318   0.799   4.476   3.537 -0.0609  0.3735  0.0590
 5118TIP3    H215319   0.749   4.410   3.411 -0.8856  0.3108  0.4118
 5119TIP3   OH215320   3.984   0.747   4.383  0.0944 -0.1066  0.4305
 5119TIP3    H115321   3.979   0.806   4.459 -1.2718  0.9075 -0.3993
 5119TIP3    H215322   4.076   0.723   4.377  0.8019  2.3606  0.5116
 5120TIP3   OH215323   4.040   1.937   4.436  0.0803  0.0121  0.3189
 5120TIP3    H115324   4.021   1.883   4.359  1.4730  1.1421 -0.8828
 5120TIP3    H215325   4.134   1.926   4.451 -0.0754  0.2253  1.5487
 5121TIP3   OH215326   0.618   2.846   0.582 -0.2811 -0.2334  0.1400
 5121TIP3    H115327   0.673   2.812   0.653  1.7364 -0.6654 -1.5449
 5121TIP3    H215328   0.616   2.941   0.596  0.0685 -0.3126  0.7607
 5122TIP3   OH215329   6.986   4.433   5.355 -0.0452  0.3211 -0.2662
 5122TIP3    H115330   7.035   4.437   5.272 -0.8589 -0.6262 -0.8194
 5122TIP3    H215331   6.900   4.400   5.330 -0.1849 -0.3514  1.0255
 5123TIP3   OH215332   2.427   1.610   2.836  0.0776  0.1515 -0.2251
 5123TIP3    H115333   2.339   1.586   2.866 -0.1056  1.4977  0.3855
 5123TIP3    H215334   2.428   1.586   2.743 -0.9486  0.1734 -0.2539
 5124TIP3   OH215335   5.577   0.122   4.763  0.4390  0.2123  0.2914
 5124TIP3    H115336   5.567   0.092   4.673  0.5431 -0.0544  0.3656
 5124TIP3    H215337   5.612   0.045   4.809 -0.1671  0.1606  0.6782
 5125TIP3   OH215338  -0.024   5.838   1.543 -0.1716  0.2894 -0.3730
 5125TIP3    H115339  -0.005   5.753   1.584 -0.3178  1.7032  2.8607
 5125TIP3    H215340   0.058   5.886   1.547 -0.7517  1.2533  0.3220
 5126TIP3   OH215341   4.316   5.989   5.728 -0.0526  0.5020  0.4511
 5126TIP3    H115342   4.328   6.071   5.775  0.9979  0.0944  0.8996
 5126TIP3    H215343   4.286   5.927   5.794 -1.8705  0.7433 -0.0749
 5127TIP3   OH215344   1.001   3.378   0.406 -0.3036 -0.2052  0.1273
 5127TIP3    H115345   1.078   3.328   0.379 -0.7177 -1.2770  0.8444
 5127TIP3    H215346   0.937   3.362   0.337 -0.3199 -0.3724  0.1819
 5128TIP3   OH215347   4.687   2.319   4.969 -0.1370 -0.1326 -0.0340
 5128TIP3    H115348   4.704   2.266   5.047  0.8807  3.0728  2.1397
 5128TIP3    H215349   4.605   2.365   4.989 -0.2389  0.2119 -1.1854
 5129TIP3   OH215350   1.796   4.516   3.725 -0.7400 -0.5728  0.1711
 5129TIP3    H115351   1.818   4.592   3.671 -0.0195  0.4975  1.8972
 5129TIP3    H215352   1.846   4.528   3.805 -1.7320 -2.1361  1.0726
 5130TIP3   OH215353   5.364   6.383   4.566  0.4344  0.5024  0.5163
 5130TIP3    H115354   5.271   6.404   4.578  0.1924 -0.6643  0.7698
 5130TIP3    H215355   5.403   6.399   4.652 -0.0474 -1.4878  1.1591
 5131TIP3   OH215356   4.869   4.423   1.561  0.2439 -0.2124  0.1016
 5131TIP3    H115357   4.926   4.500   1.569  2.7704 -1.6046 -2.4861
 5131TIP3    H215358   4.820   4.438   1.480 -0.4343 -0.6329  0.4318
 5132TIP3   OH215359   5.478   1.537   5.353  0.7060  0.6610 -0.1816
 5132TIP3    H115360   5.397   1.490   5.375  1.4635  0.2265  1.9935
 5132TIP3    H215361   5.503   1.504   5.267 -0.1363 -1.0447  0.1858
 5133TIP3   OH215362   1.323   2.371   0.103  0.0470  0.4089 -0.2653
 5133TIP3    H115363   1.379   2.297   0.078 -0.9381 -0.4295 -0.0727
 5133TIP3    H215364   1.267   2.385   0.026  0.9078  1.6320 -0.6872
 5134TIP3   OH215365   6.619   0.093   4.045  0.2417  0.1469  0.0352
 5134TIP3    H115366   6.662   0.017   4.085 -0.1396 -1.9130 -3.1325
 5134TIP3    H215367   6.556   0.122   4.111  1.5161 -1.2039  1.9877
 5135TIP3   OH215368   2.254   4.617   1.029  0.2610  0.5834 -0.0217
 5135TIP3    H115369   2.280   4.567   1.106 -1.9644 -1.2291 -0.3455
 5135TIP3    H215370   2.197   4.685   1.063  0.0223  0.3584  0.0326
 5136TIP3   OH215371   2.236   0.298   4.911 -0.7699 -0.4068 -0.1098
 5136TIP3    H115372   2.201   0.315   4.824 -0.4561  1.5474  0.1170
 5136TIP3    H215373   2.301   0.229   4.897 -0.6340 -0.0260 -1.4375
 5137TIP3   OH215374   6.440   2.830   3.685  0.4793 -0.1874 -0.1476
 5137TIP3    H115375   6.511   2.806   3.745 -0.5794 -0.8874  0.8692
 5137TIP3    H215376   6.373   2.763   3.699  0.4851 -0.7993 -2.6736
 5138TIP3   OH215377   0.060   3.265   0.725 -0.0881 -0.0493  0.2164
 5138TIP3    H115378  -0.005   3.199   0.704  0.7605 -0.6267 -0.6987
 5138TIP3    H215379   0.027   3.346   0.686  0.1077 -0.5133 -0.9591
 5139TIP3   OH215380   0.707   1.794   0.601 -0.3640  0.2526  0.8857
 5139TIP3    H115381   0.769   1.756   0.662 -1.4299 -2.0186  0.6760
 5139TIP3    H215382   0.695   1.885   0.631  0.8952 -0.1014  2.5897
 5140TIP3   OH215383   3.797   2.168   5.606 -0.4752  0.0855 -0.0100
 5140TIP3    H115384   3.834   2.221   5.677 -0.5053 -0.1149  0.1566
 5140TIP3    H215385   3.839   2.082   5.616 -0.5912  0.0128 -0.1446
 5141TIP3   OH215386   6.381   6.464   5.259 -0.0588  0.1088  0.1932
 5141TIP3    H115387   6.407   6.506   5.177  0.3332  1.1869  0.8511
 5141TIP3    H215388   6.413   6.374   5.251  2.0640  0.8171  0.0877
 5142TIP3   OH215389   4.372   6.167   1.080  0.1111  0.8902 -0.0587
 5142TIP3    H115390   4.329   6.186   1.163  0.1523 -0.0613  0.1983
 5142TIP3    H215391   4.464   6.155   1.102  0.2624  1.4451 -0.3735
 5143TIP3   OH215392   2.654   0.274   0.277  0.3190  0.1772  0.3199
 5143TIP3    H115393   2.573   0.318   0.251 -0.4441 -1.7059 -0.6574
 5143TIP3    H215394   2.629   0.218   0.350  1.1333  0.8033  1.1109
 5144TIP3   OH215395   4.877   4.246   3.618 -0.8480 -0.1524  0.2868
 5144TIP3    H115396   4.822   4.301   3.674 -1.3428 -1.2639  0.9448
 5144TIP3    H215397   4.953   4.225   3.673 -1.0636 -0.7852  0.3550
 5145TIP3   OH215398   1.002   4.359   5.609  0.0472 -0.1018  0.1938
 5145TIP3    H115399   1.039   4.402   5.532  0.1466 -1.5306 -0.5929
 5145TIP3    H215400   1.031   4.413   5.683  0.4226  0.9802 -0.7085
 5146TIP3   OH215401   6.700   5.818   2.477 -0.2721  0.2892  0.1557
 5146TIP3    H115402   6.629   5.823   2.541  0.2197  0.9692  0.6655
 5146TIP3    H215403   6.772   5.775   2.523 -0.1612  0.1083 -0.1782
 5147TIP3   OH215404   3.226   6.552   1.116 -0.1033 -0.1533  0.0079
 5147TIP3    H115405   3.216   6.474   1.170 -0.2996  0.4988  0.9327
 5147TIP3    H215406   3.155   6.547   1.052 -0.5054 -0.3998  0.4728
 5148TIP3   OH215407   2.380   6.076   2.269 -0.7982 -0.4401  0.2430
 5148TIP3    H115408   2.355   6.142   2.205 -0.5816 -2.1909 -1.7489
 5148TIP3    H215409   2.313   6.008   2.261  0.0946 -1.4079  0.7518
 5149TIP3   OH215410   4.254   2.700   0.101 -0.2728 -0.2007 -0.0641
 5149TIP3    H115411   4.267   2.648   0.180 -0.2291  2.1923  1.6230
 5149TIP3    H215412   4.312   2.775   0.112 -1.7377  1.1999 -1.4147
 5150TIP3   OH215413   2.730   4.967   1.326 -0.0469  0.1152 -0.8236
 5150TIP3    H115414   2.696   5.031   1.388  1.2817 -0.6366  0.7711
 5150TIP3    H215415   2.652   4.921   1.293 -0.7486 -0.2876  1.2427
 5151TIP3   OH215416   6.837   2.685   4.015  0.6842 -0.5112 -0.5143
 5151TIP3    H115417   6.852   2.602   3.971 -3.3180 -1.5282 -0.3198
 5151TIP3    H215418   6.807   2.744   3.946  1.4157  0.1426 -0.2897
 5152TIP3   OH215419   3.956   4.503   5.435  1.1268  0.4064 -0.6509
 5152TIP3    H115420   4.043   4.466   5.450  0.5478 -0.7618 -0.0875
 5152TIP3    H215421   3.920   4.453   5.362 -0.7587 -2.2323  1.8615
 5153TIP3   OH215422   5.794   6.017   5.686  0.0799 -0.5198 -0.2943
 5153TIP3    H115423   5.863   6.077   5.657 -0.0579 -0.2951 -0.1600
 5153TIP3    H215424   5.835   5.966   5.756 -0.1977  0.3264  0.5019
 5154TIP3   OH215425   1.636   0.359   1.930  0.1654 -0.3555 -0.4690
 5154TIP3    H115426   1.566   0.398   1.878  1.1097  1.0455 -0.7730
 5154TIP3    H215427   1.622   0.394   2.018 -1.0402 -2.1974  0.1277
 5155TIP3   OH215428   5.079   3.057   2.782  0.5357  0.6136 -0.3065
 5155TIP3    H115429   4.983   3.049   2.776  0.4915  1.2439 -0.5972
 5155TIP3    H215430   5.098   3.047   2.875  0.3502 -1.0491 -0.4230
 5156TIP3   OH215431   3.917   6.482   5.802 -0.1415 -0.4042  0.1540
 5156TIP3    H115432   3.862   6.484   5.724  1.9464 -0.6080 -1.4126
 5156TIP3    H215433   3.960   6.567   5.803 -0.7652 -0.0664  1.6252
 5157TIP3   OH215434   3.439   0.333   1.029 -0.2099  0.2417 -0.7014
 5157TIP3    H115435   3.361   0.278   1.028  0.4817 -0.7514 -0.6949
 5157TIP3    H215436   3.404   0.423   1.023 -1.4363 -0.0702  0.8222
 5158TIP3   OH215437   6.620   4.142   1.396  0.6364  0.0927 -0.0717
 5158TIP3    H115438   6.567   4.068   1.423  1.1599 -0.4347 -0.4649
 5158TIP3    H215439   6.689   4.104   1.341  1.3613  0.7721  0.3426
 5159TIP3   OH215440   5.650   5.296   0.008 -0.3692  0.0370  0.0263
 5159TIP3    H115441   5.595   5.323   0.082  1.0459  0.0256  1.1245
 5159TIP3    H215442   5.679   5.379  -0.031  1.3490  0.1498  1.4096
 5160TIP3   OH215443   5.243   1.649   2.851 -0.2065 -0.7843 -0.5853
 5160TIP3    H115444   5.311   1.613   2.793 -1.7485 -0.5865 -2.6381
 5160TIP3    H215445   5.272   1.738   2.869  1.4796 -1.5812  0.9761
 5161TIP3   OH215446   4.944   1.577   2.314 -0.2503 -0.1627  0.6644
 5161TIP3    H115447   4.950   1.630   2.234 -1.9027 -1.7632 -0.5728
 5161TIP3    H215448   5.035   1.569   2.344  0.2666  1.4922 -0.3202
 5162TIP3   OH215449   5.880   0.504   1.210 -0.4251  0.0640  0.1677
 5162TIP3    H115450   5.792   0.475   1.189 -0.3894 -0.1869  0.3628
 5162TIP3    H215451   5.876   0.600   1.204 -0.6338  0.0356 -0.1129
 5163TIP3   OH215452   2.097   3.609   0.032  0.0394  0.2459 -0.2147
 5163TIP3    H115453   2.101   3.580  -0.059  0.0493  2.4798 -0.9729
 5163TIP3    H215454   2.006   3.597   0.057  0.2523 -1.4096 -0.1209
 5164TIP3   OH215455   7.212   1.944   3.708 -0.8061  0.0389  0.2127
 5164TIP3    H115456   7.132   1.994   3.696 -1.0628 -0.7005 -1.3693
 5164TIP3    H215457   7.281   2.010   3.714 -1.3054  0.6215 -0.3548
 5165TIP3   OH215458   6.542   0.598   4.066  0.0785 -0.2855  0.6009
 5165TIP3    H115459   6.591   0.527   4.108 -0.4276 -0.1205  1.4795
 5165TIP3    H215460   6.462   0.607   4.117 -1.4442 -1.2817 -1.4352
 5166TIP3   OH215461   5.078   2.202   2.471 -0.6836  0.3988  0.0037
 5166TIP3    H115462   5.051   2.230   2.558 -0.7316  1.8237 -0.4456
 5166TIP3    H215463   5.174   2.198   2.476 -0.6031  1.6891 -0.2027
 5167TIP3   OH215464   0.182   0.217   0.274 -0.0921 -0.0854  0.1330
 5167TIP3    H115465   0.250   0.178   0.330  0.3710  1.7236  0.9001
 5167TIP3    H215466   0.230   0.243   0.195  0.0101  0.6731  0.4374
 5168TIP3   OH215467   6.017   1.232   5.194  0.1920  0.4874 -0.1915
 5168TIP3    H115468   5.997   1.297   5.261 -1.1568 -1.9273  1.9239
 5168TIP3    H215469   6.105   1.201   5.216 -0.2936 -0.3832  0.5946
 5169TIP3   OH215470   6.082   2.011   2.498  0.2542  0.6473 -0.5804
 5169TIP3    H115471   6.134   2.071   2.551  1.2178 -0.1133 -0.6250
 5169TIP3    H215472   6.001   2.058   2.480  0.1460  1.1320  1.0752
 5170TIP3   OH215473   5.005   6.559   4.352 -0.2254  0.4384  0.0447
 5170TIP3    H115474   5.042   6.567   4.264  0.0403 -2.0158 -0.1250
 5170TIP3    H215475   5.061   6.613   4.406  2.5563 -1.6467 -0.5443
 5171TIP3   OH215476   2.196   3.650   3.638  0.0040  0.2444 -0.5948
 5171TIP3    H115477   2.221   3.724   3.693  1.4572 -0.4066 -0.3565
 5171TIP3    H215478   2.171   3.582   3.700 -1.5523  0.5666 -0.8163
 5172TIP3   OH215479   1.113   5.674   1.180  0.4006 -0.2451 -0.2795
 5172TIP3    H115480   1.050   5.727   1.131  0.6055 -0.5972 -0.9416
 5172TIP3    H215481   1.196   5.687   1.134  1.1945  1.4734  1.5065
 5173TIP3   OH215482   3.249   6.596   4.786  0.3300 -0.2910 -0.3221
 5173TIP3    H115483   3.256   6.650   4.864 -3.1957 -2.5042  1.8143
 5173TIP3    H215484   3.322   6.534   4.792  2.5406  2.0277 -1.1796
 5174TIP3   OH215485   1.141   4.863   4.342  0.2831  0.1064 -0.2239
 5174TIP3    H115486   1.224   4.905   4.320  1.3804 -0.9531  1.5409
 5174TIP3    H215487   1.154   4.770   4.320 -1.2258  0.2415 -1.8694
 5175TIP3   OH215488   2.516   1.941   5.135  0.6526  0.2008  0.5018
 5175TIP3    H115489   2.567   1.882   5.079 -1.7952  0.0537 -1.7647
 5175TIP3    H215490   2.548   2.029   5.113  0.7248  0.0442 -0.0177
 5176TIP3   OH215491   5.595   1.186   0.974 -0.2185 -0.1030 -0.3336
 5176TIP3    H115492   5.604   1.216   1.065 -1.9963 -0.4009 -0.0098
 5176TIP3    H215493   5.602   1.266   0.922  0.2819  0.1431  0.1024
 5177TIP3   OH215494   5.126   2.481   0.244 -0.0704 -0.5383  0.0769
 5177TIP3    H115495   5.142   2.570   0.213  1.4233 -0.5644  0.6415
 5177TIP3    H215496   5.181   2.474   0.323 -2.0637 -1.1662  1.4846
 5178TIP3   OH215497   6.630   6.429   3.664  0.0185  0.1133  0.0301
 5178TIP3    H115498   6.636   6.505   3.723 -0.8937  0.1397  0.0906
 5178TIP3    H215499   6.624   6.354   3.723  1.1019 -0.0383 -0.0281
 5179TIP3   OH215500   6.707   1.355   5.747 -0.2409 -0.4934 -0.1862
 5179TIP3    H115501   6.660   1.429   5.710  0.0102 -0.3322 -0.1882
 5179TIP3    H215502   6.797   1.387   5.759 -0.1502 -0.7699 -0.1107
 5180TIP3   OH215503   1.711   1.926   1.699  0.1157  0.0240  0.0507
 5180TIP3    H115504   1.643   1.978   1.742  0.6785  2.2251 -1.5243
 5180TIP3    H215505   1.793   1.960   1.735  0.5070  0.3459 -1.1010
 5181TIP3   OH215506   0.807   3.704   3.014  0.0194  0.3586  0.1513
 5181TIP3    H115507   0.799   3.782   2.959  0.1658  0.0515 -0.3173
 5181TIP3    H215508   0.886   3.660   2.981 -0.4008 -0.2996  0.0026
 5182TIP3   OH215509   1.048   4.810   3.303 -0.2898 -0.0583 -0.4705
 5182TIP3    H115510   0.991   4.734   3.311 -1.0359  0.5494  0.1120
 5182TIP3    H215511   1.125   4.777   3.257 -1.2046 -0.8512 -1.5033
 5183TIP3   OH215512   0.928   4.377   1.179  0.3154 -0.0752  0.2504
 5183TIP3    H115513   0.973   4.413   1.103 -1.3306  0.4023 -0.5340
 5183TIP3    H215514   0.846   4.425   1.184  0.1869 -0.3950  2.0892
 5184TIP3   OH215515   5.243   2.555   2.490  0.2909  0.2579  0.2375
 5184TIP3    H115516   5.304   2.576   2.561 -0.9882  0.5950  1.2958
 5184TIP3    H215517   5.167   2.518   2.535 -0.4545  0.2385 -0.9964
 5185TIP3   OH215518   6.075   3.924   2.533 -0.3012 -0.6698  0.5026
 5185TIP3    H115519   5.985   3.891   2.536  0.1991 -2.1378  0.0281
 5185TIP3    H215520   6.107   3.901   2.446  0.9303 -1.2640  1.0874
 5186TIP3   OH215521   6.754   4.341   5.230 -0.6250  0.1570 -0.2900
 5186TIP3    H115522   6.677   4.332   5.287 -1.5022 -1.4648 -1.6395
 5186TIP3    H215523   6.717   4.362   5.144  0.5461  0.6252 -0.6906
 5187TIP3   OH215524   5.324   4.404   0.062 -0.2470  0.1493 -0.2561
 5187TIP3    H115525   5.312   4.486   0.015  1.1915  0.5678  0.0389
 5187TIP3    H215526   5.395   4.359   0.015 -1.0952 -0.9877 -0.4846
 5188TIP3   OH215527   5.855   6.344   5.178  0.4835  0.4009 -0.4507
 5188TIP3    H115528   5.937   6.391   5.193  0.4908 -0.0442  1.0395
 5188TIP3    H215529   5.876   6.252   5.197 -0.2268  0.1946 -0.6115
 5189TIP3   OH215530   1.652   1.784   0.850  0.2102 -0.5327 -0.5371
 5189TIP3    H115531   1.650   1.879   0.848  1.7323 -0.4768 -0.2081
 5189TIP3    H215532   1.592   1.757   0.780 -2.3514  0.6028  1.0681
 5190TIP3   OH215533   2.764   1.073   0.338 -0.0593 -0.4578  0.1759
 5190TIP3    H115534   2.791   1.160   0.308  3.6563 -1.1735  0.9830
 5190TIP3    H215535   2.773   1.017   0.261  2.2947 -0.9418  0.7460
 5191TIP3   OH215536   5.656   0.965   1.895 -0.0346  0.4741 -0.4318
 5191TIP3    H115537   5.698   0.948   1.980  0.1190  2.3015 -0.1054
 5191TIP3    H215538   5.627   0.879   1.865  0.3054 -0.2692  1.2633
 5192TIP3   OH215539   1.662   6.538   1.164 -0.6705  0.2761 -0.1423
 5192TIP3    H115540   1.697   6.549   1.075  1.0937  0.3396  0.5266
 5192TIP3    H215541   1.707   6.604   1.216  0.1987 -1.3689  1.2909
 5193TIP3   OH215542   6.016   1.454   2.724  0.4103 -0.2141  0.3290
 5193TIP3    H115543   5.970   1.371   2.735  1.4056 -1.2125 -2.1535
 5193TIP3    H215544   6.048   1.476   2.812 -1.0969 -1.6937  1.2999
 5194TIP3   OH215545   1.940   6.423   2.598  0.5322  0.7374 -0.2325
 5194TIP3    H115546   2.031   6.431   2.626  0.2528 -0.5616  1.1204
 5194TIP3    H215547   1.892   6.394   2.676 -1.0252  1.2090 -0.9594
 5195TIP3   OH215548   6.480   6.585   3.974  0.0395 -0.2669 -0.1139
 5195TIP3    H115549   6.403   6.613   3.925 -0.4516 -1.1396  0.1302
 5195TIP3    H215550   6.554   6.627   3.930 -0.4743 -0.3242 -1.0450
 5196TIP3   OH215551   2.810   5.066   1.724 -0.0773 -0.5769 -0.4407
 5196TIP3    H115552   2.869   5.097   1.656 -1.6096  0.0005 -1.5587
 5196TIP3    H215553   2.792   4.975   1.701 -0.5541 -0.3971 -0.7957
 5197TIP3   OH215554   6.862   4.523   4.125  0.4265  0.1985 -0.0306
 5197TIP3    H115555   6.831   4.436   4.152 -0.3402  0.8026  1.1321
 5197TIP3    H215556   6.827   4.534   4.037  1.5419 -1.1369 -0.6779
 5198TIP3   OH215557   7.210   2.631   4.377 -0.3407  0.2232 -0.3067
 5198TIP3    H115558   7.269   2.601   4.308 -1.0819  2.0267 -1.8286
 5198TIP3    H215559   7.134   2.664   4.329 -1.2740  0.7134  1.4528
 5199TIP3   OH215560   4.863   6.382   3.491 -0.1437  0.0538  0.1138
 5199TIP3    H115561   4.802   6.419   3.428 -0.3999 -1.5889 -0.6670
 5199TIP3    H215562   4.818   6.305   3.525  2.2935 -2.6916 -2.2982
 5200TIP3   OH215563   4.124   0.134   0.858  0.3337  0.1020  0.2467
 5200TIP3    H115564   4.155   0.133   0.948  0.2034  1.4320  0.3264
 5200TIP3    H215565   4.037   0.174   0.862 -0.4760 -1.4969 -0.2598
 5201TIP3   OH215566   0.518   6.587   3.978 -0.3329 -0.2445 -0.1310
 5201TIP3    H115567   0.519   6.527   4.053  0.8104 -0.6494 -0.4468
 5201TIP3    H215568   0.426   6.593   3.954 -0.6920 -0.3261  1.1279
 5202TIP3   OH215569   0.399   0.364   5.155 -0.6196  0.0052 -0.5207
 5202TIP3    H115570   0.421   0.406   5.238 -0.4382 -0.3977 -0.3598
 5202TIP3    H215571   0.433   0.275   5.164  0.0234  0.1697 -1.3045
 5203TIP3   OH215572   1.515   5.245   2.717  0.2081  0.7099 -0.0144
 5203TIP3    H115573   1.517   5.173   2.654 -2.2692  0.9823 -0.5052
 5203TIP3    H215574   1.436   5.294   2.694 -0.7374  0.8891  3.2382
 5204TIP3   OH215575   2.616   4.772   4.758 -0.3023 -0.7808  0.1000
 5204TIP3    H115576   2.672   4.758   4.834 -0.1036  1.6070  0.4898
 5204TIP3    H215577   2.545   4.828   4.790 -0.8781 -0.7226 -1.1883
 5205TIP3   OH215578   6.553   0.202   5.287 -0.0705 -0.2877  0.1959
 5205TIP3    H115579   6.600   0.203   5.203 -0.2094 -0.8204  0.1091
 5205TIP3    H215580   6.622   0.202   5.353  0.0405  0.1329  0.0858
 5206TIP3   OH215581   7.099   5.371   2.404 -0.7330  0.3337 -0.1957
 5206TIP3    H115582   7.141   5.401   2.484 -0.7104  2.4212 -0.9454
 5206TIP3    H215583   7.006   5.365   2.426 -0.4628 -1.6488  0.6746
 5207TIP3   OH215584   1.030   6.306   4.243  0.0856  0.2561 -0.3059
 5207TIP3    H115585   0.936   6.299   4.227  0.1491  0.4315 -0.7844
 5207TIP3    H215586   1.064   6.217   4.231 -0.1990 -0.0891  1.1857
 5208TIP3   OH215587   4.506   3.400   0.444  0.2702 -0.1615  0.5076
 5208TIP3    H115588   4.574   3.361   0.499  0.1064  0.0201  0.8388
 5208TIP3    H215589   4.449   3.446   0.505 -0.0101 -0.1034  0.2028
 5209TIP3   OH215590   5.563   5.017   1.114  0.0742  0.4269 -0.3781
 5209TIP3    H115591   5.640   5.065   1.145 -0.7555  1.9106 -0.5471
 5209TIP3    H215592   5.589   4.982   1.029  1.0189 -0.2941  0.1808
 5210TIP3   OH215593   0.330   2.042   4.563  0.1327 -0.0277  0.1355
 5210TIP3    H115594   0.400   1.992   4.605  1.1981  1.9241  0.8289
 5210TIP3    H215595   0.359   2.053   4.473  0.1638 -0.1666  0.1277
 5211TIP3   OH215596   1.213   6.042   5.325  0.7020 -0.2510  0.2319
 5211TIP3    H115597   1.239   5.954   5.352  1.4460 -0.3780 -0.8144
 5211TIP3    H215598   1.273   6.063   5.254  1.5264  1.7085  1.4293
 5212TIP3   OH215599   6.456   4.711   0.476  0.3207  0.0169  0.0346
 5212TIP3    H115600   6.431   4.790   0.428  0.3505 -0.8689 -1.4932
 5212TIP3    H215601   6.469   4.741   0.566  0.4451  1.7724 -0.5303
 5213TIP3   OH215602   2.919   2.253   3.103  0.1552 -0.2309  0.5159
 5213TIP3    H115603   3.003   2.237   3.059  0.6736  2.4572  0.3730
 5213TIP3    H215604   2.867   2.174   3.084  2.1557 -1.3789 -0.5365
 5214TIP3   OH215605   1.244   5.668   3.108 -0.3387 -0.1062  0.1069
 5214TIP3    H115606   1.205   5.659   3.021 -0.6132  0.6442  0.1436
 5214TIP3    H215607   1.231   5.760   3.130  2.2928  0.4411 -0.2654
 5215TIP3   OH215608   0.135   3.754   1.662  0.3448  0.7369 -0.2079
 5215TIP3    H115609   0.075   3.695   1.616  2.6425 -1.7507 -0.2910
 5215TIP3    H215610   0.207   3.767   1.600  0.8924  1.8830  0.6372
 5216TIP3   OH215611   6.518   1.381   2.191 -0.2535 -0.6463  0.1499
 5216TIP3    H115612   6.460   1.379   2.114 -0.4495  1.1234  0.2106
 5216TIP3    H215613   6.527   1.474   2.211  0.0159 -1.0652  2.1159
 5217TIP3   OH215614   3.750   1.946   3.099 -0.2323  0.4019  0.1006
 5217TIP3    H115615   3.782   1.944   3.189  0.1771 -4.5124  0.0669
 5217TIP3    H215616   3.828   1.936   3.045 -0.8264 -0.6291 -0.5804
 5218TIP3   OH215617   6.063   5.378   5.401  0.0677 -0.0546 -0.3728
 5218TIP3    H115618   6.043   5.362   5.308 -2.5023 -0.4119  0.1778
 5218TIP3    H215619   6.097   5.295   5.433  1.4024  0.1968 -1.0589
 5219TIP3   OH215620   3.125   2.194   3.937 -0.1869 -0.0128  0.2013
 5219TIP3    H115621   3.118   2.115   3.884  0.2588  0.5670 -0.7547
 5219TIP3    H215622   3.095   2.168   4.024 -0.8656 -1.0106 -0.3156
 5220TIP3   OH215623   5.152   6.293   2.812 -0.3740  0.0620  0.8513
 5220TIP3    H115624   5.207   6.215   2.822  0.1351  0.5497  2.0868
 5220TIP3    H215625   5.096   6.292   2.890 -0.5494  0.7809  0.7344
 5221TIP3   OH215626   5.379   4.379   0.371 -0.5751  0.0356 -0.5294
 5221TIP3    H115627   5.453   4.320   0.357 -1.4305 -1.5279  1.1634
 5221TIP3    H215628   5.334   4.382   0.287  1.0147  0.5318 -1.4235
 5222TIP3   OH215629   0.407   0.429   5.423  0.0687  0.2152  0.5787
 5222TIP3    H115630   0.346   0.503   5.430  0.5211  0.5239  1.3747
 5222TIP3    H215631   0.443   0.419   5.511 -0.1828 -1.1376  0.5574
 5223TIP3   OH215632   1.821   5.034   4.089 -0.6013 -0.4300 -0.4778
 5223TIP3    H115633   1.898   5.039   4.145 -1.8931 -0.2706  1.3900
 5223TIP3    H215634   1.850   4.987   4.011  1.9625  1.7052 -0.9354
 5224TIP3   OH215635   2.584   5.909   4.954  0.0119 -0.4134 -0.5397
 5224TIP3    H115636   2.538   5.959   4.887  1.2581 -0.6513 -1.6152
 5224TIP3    H215637   2.571   5.818   4.929 -1.0974 -0.6017  0.6366
 5225TIP3   OH215638   4.080   6.291   5.680  0.3639 -0.1698  0.4395
 5225TIP3    H115639   4.107   6.383   5.674 -0.7114  0.0593 -1.6803
 5225TIP3    H215640   3.997   6.293   5.726  0.5555 -0.1410  0.7891
 5226TIP3   OH215641   3.656   1.094   4.232 -0.3480 -0.0711  0.1937
 5226TIP3    H115642   3.700   1.169   4.191  0.8192 -0.9955 -0.2901
 5226TIP3    H215643   3.599   1.133   4.298  1.7411  1.1581  1.3933
 5227TIP3   OH215644   5.854   0.731   4.338  0.4587 -0.2560  0.1195
 5227TIP3    H115645   5.762   0.757   4.347  0.5494  0.1193  0.0075
 5227TIP3    H215646   5.888   0.734   4.427 -0.3098 -3.0649  0.5854
 5228TIP3   OH215647   2.980   0.070   3.227 -0.1259 -0.4227 -0.1917
 5228TIP3    H115648   2.909   0.030   3.276 -0.1103 -1.6233 -1.0910
 5228TIP3    H215649   3.058   0.058   3.282 -0.2490 -1.0138 -0.1425
 5229TIP3   OH215650   2.156   4.926   5.672  0.1161 -0.4124  0.4894
 5229TIP3    H115651   2.143   5.001   5.614 -1.2717  1.4551  3.0203
 5229TIP3    H215652   2.068   4.892   5.687  0.4697 -0.9314  1.4298
 5230TIP3   OH215653   6.018   5.603   5.136  0.1393 -0.0335  0.3708
 5230TIP3    H115654   5.944   5.642   5.182  1.8189 -0.5415  3.8791
 5230TIP3    H215655   5.984   5.522   5.099 -1.7822  1.3808 -1.1273
 5231TIP3   OH215656   3.928   1.049   0.585 -0.4963 -0.0763 -0.2819
 5231TIP3    H115657   4.012   1.026   0.625  0.0507  0.8528 -0.8653
 5231TIP3    H215658   3.908   0.976   0.527 -0.5996 -0.7684  0.5989
 5232TIP3   OH215659   6.853   3.108   2.972  0.1767  0.4023 -0.7661
 5232TIP3    H115660   6.818   3.108   2.883  1.0535  1.6155 -1.1413
 5232TIP3    H215661   6.794   3.050   3.021 -0.2538 -0.3762 -2.1463
 5233TIP3   OH215662   4.907   6.242   4.662  0.0286 -0.1272 -0.0031
 5233TIP3    H115663   4.923   6.158   4.618  0.7321  0.5628 -1.1168
 5233TIP3    H215664   4.840   6.222   4.728  0.2464 -1.5750 -0.1856
 5234TIP3   OH215665   7.193   6.240   4.739 -0.1001  0.0805  0.2201
 5234TIP3    H115666   7.193   6.147   4.761 -3.9356 -0.2322 -0.3357
 5234TIP3    H215667   7.238   6.283   4.811 -1.0457 -1.9938  2.1510
 5235TIP3   OH215668   2.194   1.891   3.637 -0.2021 -0.1441 -0.6096
 5235TIP3    H115669   2.218   1.851   3.721  2.9860  0.0213 -1.3037
 5235TIP3    H215670   2.110   1.932   3.653  0.4557  0.2176  2.6488
 5236TIP3   OH215671   2.139   0.751   1.945 -0.1294 -0.1076 -0.3666
 5236TIP3    H115672   2.190   0.686   1.898  0.0164 -0.6429  0.4965
 5236TIP3    H215673   2.093   0.701   2.013  0.1563  0.7075  0.4514
 5237TIP3   OH215674   1.733   3.853   4.350 -0.1646 -0.1401 -0.4662
 5237TIP3    H115675   1.753   3.947   4.349  0.4470 -0.2229 -2.9153
 5237TIP3    H215676   1.687   3.839   4.433  1.8678  1.8340  1.1258
 5238TIP3   OH215677   4.666   4.788   4.260  0.0313  0.2455 -0.4514
 5238TIP3    H115678   4.600   4.846   4.223 -1.1979 -0.8828 -0.1025
 5238TIP3    H215679   4.618   4.709   4.284  1.2238 -0.0165  1.2467
 5239TIP3   OH215680   5.909   6.771   5.253 -0.1761  0.1994 -0.0808
 5239TIP3    H115681   5.912   6.867   5.247  0.1885  0.1085 -2.3263
 5239TIP3    H215682   5.944   6.751   5.340 -1.0626  2.1162  0.7789
 5240TIP3   OH215683   2.618   6.238   2.040  0.2319  0.0578  0.0806
 5240TIP3    H115684   2.686   6.292   1.998  0.0069 -0.0645 -0.4473
 5240TIP3    H215685   2.555   6.220   1.970 -0.1490 -0.1522  0.4739
 5241TIP3   OH215686   4.483   4.575   4.314  0.6728 -0.0974  0.0848
 5241TIP3    H115687   4.418   4.578   4.383 -0.7627  1.8427 -1.2444
 5241TIP3    H215688   4.466   4.493   4.268 -1.0467  0.4965 -0.3995
 5242TIP3   OH215689   4.688   0.124   3.216 -0.3794  0.0969 -0.2695
 5242TIP3    H115690   4.762   0.136   3.156 -0.2629  1.0698  0.0501
 5242TIP3    H215691   4.700   0.192   3.282  0.2233 -1.7140  1.6216
 5243TIP3   OH215692   6.100   6.424   5.310 -0.3448 -0.1452  0.1119
 5243TIP3    H115693   6.087   6.335   5.342 -0.7033 -0.1709 -0.0894
 5243TIP3    H215694   6.194   6.431   5.292 -0.1756 -0.1906  0.9772
 5244TIP3   OH215695   1.040   5.587   3.810 -0.5657  0.3142 -0.3663
 5244TIP3    H115696   1.079   5.499   3.808  0.6062  0.8107 -0.6541
 5244TIP3    H215697   1.111   5.645   3.781 -1.9112  1.1431 -2.2305
 5245TIP3   OH215698   2.202   4.147   0.508  0.1587 -0.1650  0.0655
 5245TIP3    H115699   2.251   4.097   0.573 -0.5391 -0.6600  0.2178
 5245TIP3    H215700   2.223   4.106   0.425 -0.7604 -1.0223  0.2350
 5246TIP3   OH215701   5.347   4.508   2.188  0.4489  0.6759 -0.0883
 5246TIP3    H115702   5.282   4.519   2.119  0.5082 -0.7339 -0.4068
 5246TIP3    H215703   5.402   4.586   2.183  0.6807  0.4415 -1.8945
 5247TIP3   OH215704   7.084   3.843   0.043  0.7314 -0.0486 -0.1428
 5247TIP3    H115705   7.100   3.779  -0.026  0.7042 -0.2860  0.0677
 5247TIP3    H215706   7.067   3.925  -0.003  2.3136  0.1712 -0.3827
 5248TIP3   OH215707   2.454   6.444   4.935 -0.2486 -0.1033 -0.5706
 5248TIP3    H115708   2.468   6.440   5.030 -1.2357  2.9077 -0.1986
 5248TIP3    H215709   2.541   6.426   4.898  0.6444  0.7125  0.9911
 5249TIP3   OH215710   3.697   1.456   3.477  0.3049 -0.2237  0.2789
 5249TIP3    H115711   3.746   1.386   3.520  1.2866 -0.1568 -0.6904
 5249TIP3    H215712   3.609   1.419   3.465  1.3549 -2.1856 -2.1721
 5250TIP3   OH215713   1.365   5.177   5.763  0.0816  1.0651  0.2111
 5250TIP3    H115714   1.406   5.119   5.699 -0.9409 -0.9322  1.3042
 5250TIP3    H215715   1.328   5.248   5.710  1.6911  0.9707 -1.1224
 5251TIP3   OH215716   1.549   4.155   4.573 -0.1163 -0.2635  0.5277
 5251TIP3    H115717   1.617   4.132   4.637 -0.4764 -0.7621  0.7319
 5251TIP3    H215718   1.533   4.248   4.588  0.5533 -0.1285  0.4478
 5252TIP3   OH215719   1.630   1.703   0.198 -0.1566 -0.4733  0.2343
 5252TIP3    H115720   1.601   1.738   0.282  0.5786 -2.0060  1.1757
 5252TIP3    H215721   1.620   1.776   0.137 -1.6179  0.3931  1.4371
 5253TIP3   OH215722   4.279   5.294   1.415  0.0957  0.1637 -0.0478
 5253TIP3    H115723   4.331   5.214   1.403  0.9377  0.8712 -1.3070
 5253TIP3    H215724   4.288   5.341   1.333 -0.1692  1.7060  0.7684
 5254TIP3   OH215725   0.361   3.744   3.262 -0.0096 -0.2461  0.2417
 5254TIP3    H115726   0.334   3.823   3.308  2.0569 -0.2838  1.6764
 5254TIP3    H215727   0.282   3.690   3.258 -0.8834  0.8908  1.4171
 5255TIP3   OH215728   1.979   2.899   4.167 -0.0685  0.0670 -0.3318
 5255TIP3    H115729   2.001   2.840   4.094  0.2165  1.5545 -1.5001
 5255TIP3    H215730   1.899   2.861   4.204  0.2225 -1.1675 -0.8958
 5256TIP3   OH215731   2.776   0.132   0.077  0.4743 -0.3203  0.0775
 5256TIP3    H115732   2.730   0.187   0.140  1.6679  0.0670  0.6382
 5256TIP3    H215733   2.788   0.049   0.123  4.0457  0.8760  1.6894
 5257TIP3   OH215734   5.167   3.232   5.107  0.2951 -0.3909 -0.2639
 5257TIP3    H115735   5.143   3.320   5.077 -0.4716 -0.5026  0.0083
 5257TIP3    H215736   5.262   3.227   5.092  0.8639  1.4486  2.1534
 5258TIP3   OH215737   3.776   6.224   1.713  0.4245 -0.2282 -0.4027
 5258TIP3    H115738   3.818   6.171   1.780 -0.6654 -0.5934  0.0173
 5258TIP3    H215739   3.787   6.314   1.743 -1.3990 -0.4455  1.1454
 5259TIP3   OH215740   1.158   0.570   0.623  0.1569  0.2814  0.1726
 5259TIP3    H115741   1.195   0.488   0.654 -1.1818  0.6688  3.1083
 5259TIP3    H215742   1.064   0.561   0.638 -0.1997  1.7966 -0.8719
 5260TIP3   OH215743   5.691   5.900   1.426  0.3890 -0.0190  0.3026
 5260TIP3    H115744   5.746   5.967   1.386  0.2725  1.7904  2.9362
 5260TIP3    H215745   5.615   5.892   1.368  1.5299  0.3320 -1.3012
 5261TIP3   OH215746   2.717   6.675   2.312 -0.8329 -0.1976 -0.0572
 5261TIP3    H115747   2.806   6.698   2.286 -1.0221 -0.6883 -1.1680
 5261TIP3    H215748   2.678   6.636   2.235 -2.0105 -0.0381  0.4277
 5262TIP3   OH215749   1.793   1.737   5.875  0.1444 -0.0874  0.4939
 5262TIP3    H115750   1.781   1.794   5.799 -0.2273  0.4226  0.9332
 5262TIP3    H215751   1.873   1.768   5.917 -0.7344  0.9486  1.4523
 5263TIP3   OH215752   1.025   4.704   0.774  0.6079 -0.3020  0.2450
 5263TIP3    H115753   1.086   4.758   0.824  0.2389 -1.1878  1.7555
 5263TIP3    H215754   1.067   4.618   0.770 -0.6829 -1.0778  1.7776
 5264TIP3   OH215755   5.414   4.159   2.547 -0.1932 -0.1655 -0.4638
 5264TIP3    H115756   5.464   4.098   2.493 -1.9540 -0.1857 -2.1522
 5264TIP3    H215757   5.478   4.192   2.611  1.0279 -3.0587 -0.0456
 5265TIP3   OH215758   7.017   6.364   4.974  0.1973  0.8216 -0.0070
 5265TIP3    H115759   7.065   6.289   4.940 -1.4400  0.3296 -1.3895
 5265TIP3    H215760   7.073   6.399   5.044  0.3097 -2.6465  1.8849
 5266TIP3   OH215761   4.449   3.674   0.812  0.3916  0.0743  0.0968
 5266TIP3    H115762   4.479   3.744   0.869  0.3213 -0.3484  0.6616
 5266TIP3    H215763   4.528   3.646   0.765  0.2609  1.0794 -0.7498
 5267TIP3   OH215764   0.068   2.314   2.492 -0.0011  0.0915 -0.0512
 5267TIP3    H115765   0.133   2.303   2.423  0.1170  0.0197  0.0701
 5267TIP3    H215766  -0.015   2.323   2.446  0.3952  3.2495 -0.3848
 5268TIP3   OH215767   6.520   3.617   5.693 -0.3809 -0.1939  0.1611
 5268TIP3    H115768   6.591   3.655   5.642 -0.2745  1.4001  1.4178
 5268TIP3    H215769   6.454   3.686   5.698 -0.6648 -0.5298  1.6257
 5269TIP3   OH215770   1.982   2.878   3.779  0.0296  0.2661  0.0253
 5269TIP3    H115771   1.974   2.849   3.870  0.9855 -0.4721 -0.1065
 5269TIP3    H215772   1.933   2.813   3.729 -1.1490  1.0992  0.0621
 5270TIP3   OH215773   0.556   2.055   0.786  0.3769 -0.0326 -0.0221
 5270TIP3    H115774   0.611   2.120   0.741 -0.3329  0.5465 -0.0868
 5270TIP3    H215775   0.479   2.047   0.730 -0.9557  1.3878  1.5038
 5271TIP3   OH215776   4.639   1.156   3.778  0.0635  0.2042 -0.2460
 5271TIP3    H115777   4.588   1.224   3.822  0.5888  0.8674 -0.6504
 5271TIP3    H215778   4.709   1.203   3.734 -1.4856 -0.1806 -3.3938
 5272TIP3   OH215779   5.101   4.175   3.378  0.4996  0.2092 -0.0224
 5272TIP3    H115780   5.144   4.169   3.464 -1.4725 -1.3698  0.9350
 5272TIP3    H215781   5.113   4.088   3.340  2.5523  1.2677 -2.0626
 5273TIP3   OH215782   4.562   4.981   2.518  0.2001 -0.3494  0.1812
 5273TIP3    H115783   4.601   5.059   2.558  0.6045 -0.5029  0.0873
 5273TIP3    H215784   4.576   4.993   2.424  1.5951 -1.2320  0.2436
 5274TIP3   OH215785   6.870   2.743   0.406 -1.1104  0.3657 -0.0360
 5274TIP3    H115786   6.868   2.655   0.368  1.2688  0.5688 -0.8416
 5274TIP3    H215787   6.949   2.743   0.461 -0.9916  2.0333 -0.1600
 5275TIP3   OH215788   2.782   3.662   5.870 -0.3241  0.3207  0.3305
 5275TIP3    H115789   2.693   3.654   5.835  0.5394  0.5797 -2.1604
 5275TIP3    H215790   2.830   3.589   5.831  0.9620  1.2021  0.1885
 5276TIP3   OH215791   0.370   5.989   5.221 -0.5441 -0.3554  0.5510
 5276TIP3    H115792   0.331   6.074   5.201  1.8289  1.4183  2.7270
 5276TIP3    H215793   0.361   5.980   5.316  1.5758 -1.2103  0.7376
 5277TIP3   OH215794   0.038   0.703   5.187  0.1351 -0.0712  0.1018
 5277TIP3    H115795   0.032   0.796   5.163 -0.1196 -0.4780 -1.4970
 5277TIP3    H215796   0.075   0.660   5.110 -0.5515 -1.4230  0.4842
 5278TIP3   OH215797   4.238   2.523   2.933 -0.2836  0.2135 -0.0150
 5278TIP3    H115798   4.277   2.578   2.865 -2.8676  2.0094 -0.1933
 5278TIP3    H215799   4.156   2.492   2.895  0.5117 -2.8689  0.5625
 5279TIP3   OH215800   5.173   3.975   4.118 -0.8089  0.3873  0.0009
 5279TIP3    H115801   5.268   3.973   4.102 -0.7382 -0.6197  0.4256
 5279TIP3    H215802   5.135   3.950   4.034 -0.7892  2.2607 -0.6065
 5280TIP3   OH215803   5.844   5.887   3.047  0.3789 -0.6683  0.4857
 5280TIP3    H115804   5.867   5.910   2.957  0.1480 -0.5369  0.4588
 5280TIP3    H215805   5.859   5.793   3.052  0.4190 -0.6724  0.3169
 5281TIP3   OH215806   3.177   0.153   2.045  0.1629 -0.0686 -0.8042
 5281TIP3    H115807   3.113   0.213   2.083  1.0537  1.0313 -1.0003
 5281TIP3    H215808   3.237   0.209   1.996  2.7372 -0.7502  1.3467
 5282TIP3   OH215809   0.433   1.088   2.816 -0.0596  0.0813  0.3898
 5282TIP3    H115810   0.345   1.092   2.778  0.2084 -0.2454 -0.2765
 5282TIP3    H215811   0.476   1.015   2.771  1.6306  2.1540 -1.6034
 5283TIP3   OH215812   5.035   0.059   4.290  0.6702 -0.6196  0.6280
 5283TIP3    H115813   4.974   0.102   4.230  1.2808 -0.7084 -0.0755
 5283TIP3    H215814   5.072  -0.013   4.239  3.9616  1.4850 -0.2422
 5284TIP3   OH215815   1.429   3.405   4.959  0.3372  0.3924 -0.0607
 5284TIP3    H115816   1.486   3.329   4.973 -0.7985 -0.4980 -0.1504
 5284TIP3    H215817   1.405   3.434   5.048  1.6076  1.3234  0.0044
 5285TIP3   OH215818   3.745   5.090   1.004  0.1140  1.1041 -0.0267
 5285TIP3    H115819   3.669   5.057   1.052  0.8790 -0.9332 -0.1497
 5285TIP3    H215820   3.816   5.089   1.068  0.9049 -0.6741 -0.8608
 5286TIP3   OH215821   4.490   6.168   2.418 -0.3191  0.1583 -0.3451
 5286TIP3    H115822   4.486   6.196   2.326 -0.3628 -1.6035 -0.9212
 5286TIP3    H215823   4.583   6.178   2.441 -0.1635 -0.1055 -0.8300
 5287TIP3   OH215824   1.068   0.162   1.698  0.1490 -0.2256  0.1354
 5287TIP3    H115825   1.102   0.088   1.749 -1.0634 -0.4354  0.6800
 5287TIP3    H215826   1.000   0.124   1.643  0.6871  0.2002 -0.8419
 5288TIP3   OH215827   4.919   1.518   4.933 -0.5018 -0.1825 -0.1540
 5288TIP3    H115828   4.989   1.580   4.911 -0.8142 -0.1992 -1.2385
 5288TIP3    H215829   4.913   1.522   5.028 -0.9277  1.8901 -0.2369
 5289TIP3   OH215830   6.109   4.686   2.463  0.7232 -0.1188 -0.0110
 5289TIP3    H115831   6.169   4.626   2.419  0.8124 -0.0476  0.0116
 5289TIP3    H215832   6.157   4.770   2.465  0.2286  0.1907 -0.8756
 5290TIP3   OH215833   7.070   3.855   0.976  0.2083 -0.1950 -0.2749
 5290TIP3    H115834   7.162   3.828   0.979  0.0097 -0.8071  0.6564
 5290TIP3    H215835   7.073   3.950   0.979  0.7968 -0.2251  0.9040
 5291TIP3   OH215836   3.170   6.658   0.722 -0.6249  0.3301 -0.4643
 5291TIP3    H115837   3.241   6.626   0.667  0.1742  0.5471  0.4203
 5291TIP3    H215838   3.096   6.668   0.662 -0.0665 -0.3932 -1.3008
 5292TIP3   OH215839   2.587   5.372   2.398  0.4048 -0.5975 -0.9896
 5292TIP3    H115840   2.504   5.330   2.422 -0.9486  0.8609 -2.7843
 5292TIP3    H215841   2.572   5.465   2.412  2.3428 -0.3989  0.1688
 5293TIP3   OH215842   0.528   1.432   5.486  0.4201 -0.3864  0.2250
 5293TIP3    H115843   0.526   1.345   5.447 -1.7206 -0.0750 -0.4569
 5293TIP3    H215844   0.548   1.490   5.412 -0.5355 -0.0838  0.2007
 5294TIP3   OH215845   2.642   4.203   2.247  0.0669 -0.0179 -0.4614
 5294TIP3    H115846   2.581   4.276   2.261 -1.0029 -0.4890 -2.2869
 5294TIP3    H215847   2.672   4.215   2.157  2.1230 -0.2333  0.1567
 5295TIP3   OH215848   2.043   1.385   0.477  0.1084 -0.2999 -0.3108
 5295TIP3    H115849   2.035   1.311   0.537  2.2453 -1.1829 -0.9935
 5295TIP3    H215850   2.111   1.357   0.415  0.2196  1.8338 -1.2241
 5296TIP3   OH215851   5.903   6.486   2.076 -0.2630 -0.6441  0.6299
 5296TIP3    H115852   5.856   6.565   2.050 -0.2980 -0.3415  1.5851
 5296TIP3    H215853   5.837   6.430   2.116 -0.0961 -0.8642  0.6033
 5297TIP3   OH215854   0.838   1.223   1.437 -0.0251  0.1421 -0.0448
 5297TIP3    H115855   0.877   1.257   1.357  2.1207 -0.7646  0.5404
 5297TIP3    H215856   0.825   1.300   1.492 -1.2934  0.7417 -1.1317
 5298TIP3   OH215857   2.606   5.181   0.127 -0.3767  0.2683 -0.2598
 5298TIP3    H115858   2.682   5.186   0.069 -0.3641  0.5752 -0.2175
 5298TIP3    H215859   2.548   5.118   0.083  0.9083 -1.8646  0.9105
 5299TIP3   OH215860   1.838   3.102   3.488  0.1382 -0.9014 -0.6031
 5299TIP3    H115861   1.811   3.092   3.579  0.0175 -1.0574 -0.6558
 5299TIP3    H215862   1.916   3.157   3.492 -0.4950 -0.0013 -0.4974
 5300TIP3   OH215863   6.126   1.988   2.861  0.2334  0.0795  0.0634
 5300TIP3    H115864   6.209   1.939   2.860 -0.4994 -1.2065 -1.3046
 5300TIP3    H215865   6.139   2.058   2.797  0.3703  0.0521  0.0598
 5301TIP3   OH215866   6.597   6.432   5.684  0.3990  0.1619  0.0437
 5301TIP3    H115867   6.625   6.343   5.664  1.1100  0.4344 -0.1796
 5301TIP3    H215868   6.502   6.431   5.670  0.0576 -1.0997  2.0292
 5302TIP3   OH215869   4.729   4.659   0.746  0.5228 -0.0011 -0.0049
 5302TIP3    H115870   4.702   4.618   0.664  1.2492 -0.2151 -0.1467
 5302TIP3    H215871   4.677   4.739   0.751  0.3077 -0.1004 -0.5616
 5303TIP3   OH215872   4.521   5.353   1.560 -0.1142 -0.1731  0.4920
 5303TIP3    H115873   4.507   5.413   1.633  0.0583 -0.0755  0.4433
 5303TIP3    H215874   4.441   5.359   1.508 -0.8257 -1.2451  1.3966
 5304TIP3   OH215875   1.085   1.841   1.406 -0.3161 -0.3583 -0.2288
 5304TIP3    H115876   1.121   1.871   1.490 -1.3166  0.7880 -0.1781
 5304TIP3    H215877   1.094   1.746   1.409 -0.0460 -0.3151  1.0483
 5305TIP3   OH215878   0.721   4.510   5.728 -0.6137 -0.1888 -0.2796
 5305TIP3    H115879   0.643   4.547   5.688 -1.3280  0.4651  1.5872
 5305TIP3    H215880   0.706   4.416   5.729 -0.7995 -0.1701 -1.0677
 5306TIP3   OH215881   1.416   4.681   2.711  0.7316 -0.0811  0.5560
 5306TIP3    H115882   1.324   4.701   2.694  0.7354  0.2629  0.9321
 5306TIP3    H215883   1.465   4.743   2.657  0.7485  1.3803  2.1421
 5307TIP3   OH215884   2.675   6.629   0.978  0.0647  0.4094 -0.0874
 5307TIP3    H115885   2.634   6.594   1.057  1.0499  0.6912  0.5663
 5307TIP3    H215886   2.740   6.563   0.953  1.2700  1.2760  0.6142
 5308TIP3   OH215887   5.479   2.401   1.284 -0.2911 -0.3844 -0.4174
 5308TIP3    H115888   5.461   2.495   1.286  1.1801 -0.0557 -1.1952
 5308TIP3    H215889   5.395   2.360   1.301 -0.7640  1.0832  1.0490
 5309TIP3   OH215890   3.274   5.359   2.279  0.3783 -0.2016 -0.1109
 5309TIP3    H115891   3.260   5.417   2.204  0.7159 -0.2352 -0.2010
 5309TIP3    H215892   3.226   5.401   2.350 -0.9423 -0.7724 -0.6193
 5310TIP3   OH215893   4.117   5.875   0.377  0.3056  0.3645 -0.4199
 5310TIP3    H115894   4.131   5.780   0.375 -0.8246  0.1623  0.1187
 5310TIP3    H215895   4.109   5.896   0.470 -1.6418  0.6066 -0.5958
 5311TIP3   OH215896   5.210   3.034   5.928  0.4184 -0.3228 -0.1023
 5311TIP3    H115897   5.139   2.983   5.889  1.6857 -2.5029  0.3094
 5311TIP3    H215898   5.241   3.090   5.856 -2.4709  1.6791  0.0494
 5312TIP3   OH215899   3.364   0.337   3.501  0.3643  0.3481 -0.3893
 5312TIP3    H115900   3.272   0.320   3.522  0.1564  0.6296 -1.0408
 5312TIP3    H215901   3.412   0.311   3.580 -0.2351 -0.1691 -0.1896
 5313TIP3   OH215902   4.909   2.414   0.380 -0.0816 -0.0152  0.0548
 5313TIP3    H115903   4.851   2.466   0.324 -1.7636 -1.2760  0.5786
 5313TIP3    H215904   4.985   2.396   0.324 -0.1229  1.6997 -0.6320
 5314TIP3   OH215905   6.002   6.607   5.501  0.2564  0.2550 -0.2569
 5314TIP3    H115906   5.983   6.539   5.566 -0.1121 -0.5056 -1.1320
 5314TIP3    H215907   6.060   6.564   5.438 -0.1162  0.6982 -0.9116
 5315TIP3   OH215908   2.046   0.979   2.766 -0.3394  0.2812  0.3765
 5315TIP3    H115909   1.993   0.988   2.844  0.3327 -0.7283  0.9782
 5315TIP3    H215910   2.133   1.008   2.793 -0.1292  0.0371 -0.0261
 5316TIP3   OH215911   3.073   2.908   4.702  0.2619  0.2582  0.5353
 5316TIP3    H115912   3.136   2.945   4.764  2.5108 -1.5157 -0.5518
 5316TIP3    H215913   3.029   2.838   4.750 -1.2619  1.7296  1.4093
 5317TIP3   OH215914   4.014   6.723   4.221 -0.0741  0.7025  0.3434
 5317TIP3    H115915   3.977   6.634   4.229  0.2312  0.4491 -0.8129
 5317TIP3    H215916   3.938   6.778   4.204 -0.0754  0.3396 -0.9586
 5318TIP3   OH215917   1.969   5.978   1.189 -0.0650 -0.1857 -0.1178
 5318TIP3    H115918   2.052   5.948   1.151  0.4847  0.6454  0.3706
 5318TIP3    H215919   1.912   5.992   1.114  0.9494  1.2825 -0.6710
 5319TIP3   OH215920   1.672   5.038   2.916 -0.3003  0.2848  0.4678
 5319TIP3    H115921   1.667   4.982   2.838  2.4714  1.5374 -0.7286
 5319TIP3    H215922   1.589   5.086   2.915 -0.4082  0.1670 -1.6528
 5320TIP3   OH215923   5.465   6.011   0.052 -0.2079  0.3025 -0.2561
 5320TIP3    H115924   5.510   6.005   0.137 -0.4982 -2.0311 -0.2209
 5320TIP3    H215925   5.484   5.928   0.008 -2.8545  0.0309 -1.0587
 5321TIP3   OH215926   0.666   2.845   5.190 -0.6490  0.0386 -0.1422
 5321TIP3    H115927   0.720   2.891   5.126 -1.5892 -1.1053 -1.8676
 5321TIP3    H215928   0.715   2.764   5.209 -1.5764 -0.9071 -1.5603
 5322TIP3   OH215929   3.303   6.334   2.120  0.0116 -0.6554 -0.7692
 5322TIP3    H115930   3.363   6.263   2.098 -0.6483 -1.5988  0.3463
 5322TIP3    H215931   3.220   6.308   2.081 -0.1963 -0.4280 -0.4882
 5323TIP3   OH215932   4.666   0.152   3.924  0.0185 -0.5357 -0.3225
 5323TIP3    H115933   4.603   0.225   3.929 -1.0391 -1.3777 -0.8127
 5323TIP3    H215934   4.690   0.148   3.831 -0.3659 -1.1427 -0.4041
 5324TIP3   OH215935   6.617   6.116   0.448 -0.2523  0.3342  0.5336
 5324TIP3    H115936   6.534   6.073   0.424  0.0276 -0.3294  0.7503
 5324TIP3    H215937   6.631   6.180   0.378  0.2393 -1.1532 -0.8001
 5325TIP3   OH215938   2.383   5.188   0.279 -0.0467  0.5998 -0.0719
 5325TIP3    H115939   2.460   5.236   0.249  1.0386 -0.0463  1.5276
 5325TIP3    H215940   2.389   5.191   0.375  0.0877 -2.6551  0.1304
 5326TIP3   OH215941   1.124   2.703   0.847  0.2537 -0.1506  0.2555
 5326TIP3    H115942   1.164   2.624   0.882  1.4303  0.1169 -0.4279
 5326TIP3    H215943   1.118   2.763   0.922 -0.5435 -0.8399  0.7488
 5327TIP3   OH215944   7.134   3.166   2.938 -0.8542 -0.2160  0.1156
 5327TIP3    H115945   7.039   3.151   2.937 -1.2176  1.6255  1.5678
 5327TIP3    H215946   7.160   3.147   3.028 -0.2292  1.2748  0.2729
 5328TIP3   OH215947   5.725   5.352   2.006  0.2949  0.4801 -0.3375
 5328TIP3    H115948   5.705   5.415   2.076  0.3175 -1.3159  1.3647
 5328TIP3    H215949   5.767   5.279   2.050 -2.2346 -2.0188 -1.7234
 5329TIP3   OH215950   4.445   1.427   2.131  0.1480  0.6295 -0.4186
 5329TIP3    H115951   4.491   1.387   2.057  0.1940 -0.0556 -0.0250
 5329TIP3    H215952   4.514   1.455   2.190  0.1713  2.3863 -1.2231
 5330TIP3   OH215953   6.202  -0.011   5.285 -0.0596  0.0332  0.2584
 5330TIP3    H115954   6.189   0.075   5.245 -1.9013 -0.8204 -1.1727
 5330TIP3    H215955   6.281  -0.045   5.244  0.1430  0.6628  0.1194
 5331TIP3   OH215956   3.104   1.116   1.322 -0.4471  0.5326  0.2134
 5331TIP3    H115957   3.144   1.043   1.371  0.8910 -0.8696 -2.7258
 5331TIP3    H215958   3.148   1.194   1.356 -0.9250 -0.1121  2.4939
 5332TIP3   OH215959   4.030   6.727   0.761 -0.1890 -0.4212  0.5571
 5332TIP3    H115960   3.977   6.668   0.815 -1.8822  2.3387  2.1063
 5332TIP3    H215961   4.113   6.734   0.809 -0.2008 -0.9915  0.6770
 5333TIP3   OH215962   0.129   5.681   1.908 -0.2299  0.1357 -0.4322
 5333TIP3    H115963   0.100   5.647   1.993  0.1232  0.2929 -0.2454
 5333TIP3    H215964   0.134   5.776   1.920 -0.4880  0.1901 -0.7272
 5334TIP3   OH215965   5.840   1.652   0.410  0.3438 -0.4578 -0.0877
 5334TIP3    H115966   5.850   1.571   0.360 -0.4692 -0.1820 -0.7083
 5334TIP3    H215967   5.816   1.718   0.345  2.6790  0.7010  0.1234
 5335TIP3   OH215968   3.973   4.627   0.326 -0.0989  0.3042  0.3528
 5335TIP3    H115969   3.916   4.589   0.260 -0.5146 -0.2629  1.0229
 5335TIP3    H215970   3.914   4.676   0.383  0.4423  2.1122 -0.5687
 5336TIP3   OH215971   5.787   2.918   3.779  0.0376  0.7864 -0.3251
 5336TIP3    H115972   5.826   2.974   3.846  1.4712 -0.7881  0.2259
 5336TIP3    H215973   5.859   2.896   3.721 -0.4688 -0.4912 -0.5064
 5337TIP3   OH215974   0.055   4.694   0.823  0.1697 -0.4413  0.3507
 5337TIP3    H115975   0.018   4.762   0.879 -0.8186 -0.7292  0.0626
 5337TIP3    H215976   0.122   4.652   0.877 -0.6788 -0.6270  1.2764
 5338TIP3   OH215977   4.785   4.291   5.750  0.2366  0.0743 -1.0271
 5338TIP3    H115978   4.779   4.271   5.657  0.9325 -2.2661 -0.6521
 5338TIP3    H215979   4.856   4.235   5.782 -1.0877 -0.4905  1.1906
 5339TIP3   OH215980   0.102   5.680   4.886  0.4499 -0.1400  0.5651
 5339TIP3    H115981   0.164   5.721   4.946  1.0452 -0.4489  0.1671
 5339TIP3    H215982   0.137   5.592   4.872 -0.5530 -0.6364  1.0327
 5340TIP3   OH215983   6.927   4.096   0.185  0.4078 -0.2595  0.7350
 5340TIP3    H115984   6.951   4.151   0.110 -0.2218  0.9566  1.4078
 5340TIP3    H215985   7.008   4.087   0.235  0.9481 -1.4561 -0.2937
 5341TIP3   OH215986   6.365   2.874   4.248 -0.0333  0.0454  0.0421
 5341TIP3    H115987   6.348   2.967   4.265  0.0135 -0.1338  1.1412
 5341TIP3    H215988   6.447   2.856   4.294 -0.5077 -0.7551  0.5887
 5342TIP3   OH215989   5.931   4.756   5.891 -0.0767 -0.1456  0.5043
 5342TIP3    H115990   6.005   4.771   5.833 -0.0344 -0.8012  0.3830
 5342TIP3    H215991   5.898   4.669   5.867 -2.4097  1.0573 -1.1281
 5343TIP3   OH215992   1.093   4.922   0.931  0.1105 -0.4007  0.1655
 5343TIP3    H115993   1.173   4.953   0.890  0.2449 -1.3360 -0.3091
 5343TIP3    H215994   1.032   4.995   0.924  1.1713  0.6465  1.3245
 5344TIP3   OH215995   6.064   1.933   0.259 -0.3314 -0.1005  0.0982
 5344TIP3    H115996   6.064   1.929   0.355  1.2958 -2.5899  0.0870
 5344TIP3    H215997   5.983   1.888   0.234 -0.7520  0.5387  0.2750
 5345TIP3   OH215998   2.526   1.874   2.792  0.0818  0.0083  0.4408
 5345TIP3    H115999   2.474   1.801   2.825  1.0935 -1.1129 -0.3689
 5345TIP3    H216000   2.601   1.878   2.850 -0.4279  1.0473  1.0606
 5346TIP3   OH216001   7.200   2.403   3.484  0.2048  0.2256 -0.3160
 5346TIP3    H116002   7.200   2.495   3.455  0.4538  0.4064  0.2421
 5346TIP3    H216003   7.119   2.367   3.449 -1.9595  1.7272  2.7591
 5347TIP3   OH216004   5.974   3.950   0.844 -0.4139  0.7473 -0.4695
 5347TIP3    H116005   6.005   3.937   0.933  2.7648  0.2994 -1.5255
 5347TIP3    H216006   5.882   3.924   0.846  0.0478 -0.9968  2.2704
 5348TIP3   OH216007   6.199   2.041   0.752  0.8060  0.3061 -0.3728
 5348TIP3    H116008   6.278   2.042   0.806 -0.0345  0.8986  0.8905
 5348TIP3    H216009   6.127   2.038   0.815 -0.2062  0.7412 -1.4750
 5349TIP3   OH216010   3.517   4.408   1.522  0.2272 -0.6029  0.2945
 5349TIP3    H116011   3.505   4.326   1.569  1.7676  0.0282  1.9043
 5349TIP3    H216012   3.587   4.391   1.460  0.6492 -0.4755  0.7326
 5350TIP3   OH216013   3.864   1.910   5.577 -0.1747 -0.5305 -0.0202
 5350TIP3    H116014   3.908   1.825   5.583 -0.7824 -0.9496 -1.0937
 5350TIP3    H216015   3.868   1.932   5.484 -2.1703 -0.5760 -0.1563
 5351TIP3   OH216016   6.320   2.715   2.525 -0.5709 -0.2886 -0.7903
 5351TIP3    H116017   6.248   2.761   2.480 -0.0559  0.2159 -1.1121
 5351TIP3    H216018   6.354   2.779   2.587 -1.4639 -1.0811  0.5572
 5352TIP3   OH216019   1.101   1.885   0.841  0.1396 -0.1117  0.1527
 5352TIP3    H116020   1.074   1.811   0.788  3.4135 -0.5037 -1.2089
 5352TIP3    H216021   1.128   1.847   0.924 -0.7331 -0.0523  0.4776
 5353TIP3   OH216022   6.793   1.405   4.759 -0.2901  0.5406 -0.8712
 5353TIP3    H116023   6.887   1.401   4.778 -0.5730  1.7144  1.1042
 5353TIP3    H216024   6.766   1.491   4.792 -2.6633 -1.0829  1.8624
 5354TIP3   OH216025   1.481   1.306   5.742  0.3932 -0.2546 -0.6348
 5354TIP3    H116026   1.523   1.221   5.755  1.1028  0.3079  0.8928
 5354TIP3    H216027   1.553   1.368   5.738 -0.1298  1.0966  4.6288
 5355TIP3   OH216028   6.615   5.809   1.156  0.4177  0.1633  0.3833
 5355TIP3    H116029   6.689   5.749   1.144 -0.6344 -1.1378  0.1112
 5355TIP3    H216030   6.628   5.876   1.089 -0.2846 -1.7838 -1.8626
 5356TIP3   OH216031   2.316   4.197   1.576 -1.2267 -0.1104  0.0123
 5356TIP3    H116032   2.402   4.160   1.595 -1.5911 -1.9309 -1.6056
 5356TIP3    H216033   2.308   4.271   1.636  1.9364  0.8471 -0.5383
 5357TIP3   OH216034   5.111   5.420   5.041 -0.5323 -0.1817 -0.0679
 5357TIP3    H116035   5.129   5.496   4.985 -0.0238 -1.3227 -1.5012
 5357TIP3    H216036   5.045   5.370   4.994  1.5355 -2.3467 -0.8452
 5358TIP3   OH216037   6.830   3.467   0.757  0.0750  0.0270  0.8982
 5358TIP3    H116038   6.869   3.412   0.825  1.5443 -1.3144 -0.9276
 5358TIP3    H216039   6.739   3.439   0.753  0.7544 -2.2724  0.1073
 5359TIP3   OH216040   3.965   2.617   3.331  0.0700 -0.4791 -0.0001
 5359TIP3    H116041   4.025   2.545   3.350  0.0607 -0.8567 -1.3523
 5359TIP3    H216042   4.000   2.691   3.380  0.7388 -1.0929  0.4688
 5360TIP3   OH216043   3.834   0.505   2.418  0.3478 -0.1140 -0.0960
 5360TIP3    H116044   3.778   0.581   2.398  1.9980  1.6944  1.6368
 5360TIP3    H216045   3.923   0.540   2.415  1.1069 -1.6613  1.9083
 5361TIP3   OH216046   2.655   2.665   4.134  0.8423  0.2627 -0.1616
 5361TIP3    H116047   2.738   2.667   4.087  1.7976  1.3232  1.4495
 5361TIP3    H216048   2.610   2.745   4.106  1.2519  0.7083  0.4306
 5362TIP3   OH216049   6.051   6.521   0.303 -0.4172 -0.4447  0.2855
 5362TIP3    H116050   6.007   6.534   0.387 -0.2921  0.1719  0.2606
 5362TIP3    H216051   6.139   6.491   0.327  0.5704  2.3338  0.5168
 5363TIP3   OH216052   1.066   4.149   4.950  0.8782 -0.2783 -0.4126
 5363TIP3    H116053   0.999   4.154   5.018  1.4863  0.9741  0.1148
 5363TIP3    H216054   1.019   4.114   4.874  0.0582 -1.1512  0.4650
 5364TIP3   OH216055   0.242   0.489   4.751 -0.0839 -0.6387  0.1169
 5364TIP3    H116056   0.212   0.525   4.668  0.5999 -1.3163 -0.4410
 5364TIP3    H216057   0.259   0.396   4.733 -3.1777 -1.7062  1.8614
 5365TIP3   OH216058   1.949   3.972   1.098 -0.3795  0.0524  0.0494
 5365TIP3    H116059   1.855   3.988   1.094 -0.2428  0.7082 -0.8753
 5365TIP3    H216060   1.988   4.059   1.091  0.2994 -0.1712  0.8811
 5366TIP3   OH216061   4.409   4.183   5.450 -0.7528 -0.1977 -0.2715
 5366TIP3    H116062   4.341   4.133   5.404 -0.9428  0.2091 -0.4302
 5366TIP3    H216063   4.391   4.166   5.543 -1.9933  1.0856 -0.2461
 5367TIP3   OH216064   1.504   1.674   5.054  0.1144 -0.0435  0.6330
 5367TIP3    H116065   1.439   1.667   5.124 -0.6283  1.7032  0.1787
 5367TIP3    H216066   1.575   1.725   5.093  1.2385 -1.9268  1.1201
 5368TIP3   OH216067   5.833   0.799   5.350 -0.0803 -0.4514 -0.1627
 5368TIP3    H116068   5.816   0.765   5.262  3.0403 -2.0551 -0.2837
 5368TIP3    H216069   5.859   0.890   5.336 -0.6271 -0.3854 -0.7765
 5369TIP3   OH216070   2.702   6.177   1.613  0.0547 -0.2385  0.7554
 5369TIP3    H116071   2.635   6.222   1.664  2.1539 -0.4137  3.9416
 5369TIP3    H216072   2.717   6.235   1.538 -1.5157  1.3068  1.5467
 5370TIP3   OH216073   6.675   2.462   0.592 -0.8483  0.4724  0.1259
 5370TIP3    H116074   6.633   2.441   0.509 -1.5907  1.0586  0.3374
 5370TIP3    H216075   6.680   2.558   0.593  0.8848  0.4165 -0.0716
 5371TIP3   OH216076   4.318   3.869   5.516 -0.6632  0.5643 -0.7336
 5371TIP3    H116077   4.280   3.782   5.503 -0.1030  0.4598 -1.7471
 5371TIP3    H216078   4.283   3.921   5.444 -0.8605  1.1427 -0.2252
 5372TIP3   OH216079   3.786   6.271   2.053 -0.1725  0.3599 -0.7758
 5372TIP3    H116080   3.727   6.346   2.041  0.6850  1.5877  1.9257
 5372TIP3    H216081   3.874   6.310   2.055  0.4209 -0.9266 -0.7187
 5373TIP3   OH216082   4.900   3.796  -0.007 -0.2020 -0.2128  0.7957
 5373TIP3    H116083   4.871   3.828   0.078  0.5602 -1.8982  1.7444
 5373TIP3    H216084   4.855   3.712  -0.017 -0.2383 -0.0611 -0.4447
 5374TIP3   OH216085   4.416   0.611   5.767 -0.6844  0.4124  0.8914
 5374TIP3    H116086   4.490   0.647   5.718 -1.2136 -0.2102 -0.4053
 5374TIP3    H216087   4.404   0.672   5.840 -0.2502  1.7025 -0.0753
 5375TIP3   OH216088   5.442   1.191   1.784  0.1862  0.2455 -0.7586
 5375TIP3    H116089   5.419   1.105   1.818  1.3932  0.3343  0.3444
 5375TIP3    H216090   5.514   1.175   1.723  2.2093  0.6742  1.3955
 5376TIP3   OH216091   6.533   0.859   3.213  0.0280  0.5058  0.0675
 5376TIP3    H116092   6.545   0.892   3.303 -3.1081  0.2764  0.6881
 5376TIP3    H216093   6.537   0.937   3.159  1.3638  0.7293  0.4593
 5377TIP3   OH216094   2.136   4.358   5.098  0.1375  0.2446 -0.6729
 5377TIP3    H116095   2.102   4.270   5.084 -1.6447  0.6906  0.4595
 5377TIP3    H216096   2.060   4.415   5.090  1.1068  1.6095 -0.5994
 5378TIP3   OH216097   4.913   2.794   5.324  0.3525 -0.1443  0.5550
 5378TIP3    H116098   4.935   2.872   5.272  2.5827 -0.4460  0.9460
 5378TIP3    H216099   4.821   2.805   5.346  0.3192  1.8142 -0.3664
 5379TIP3   OH216100   3.645   4.250   1.766 -0.3619 -0.0807 -0.5470
 5379TIP3    H116101   3.560   4.211   1.747 -0.1237 -1.3637  0.8668
 5379TIP3    H216102   3.708   4.195   1.719 -0.0070 -1.6388  1.6282
 5380TIP3   OH216103   4.312   1.022   2.429 -0.6507  0.0650  0.2111
 5380TIP3    H116104   4.401   1.014   2.464  0.1204 -1.1461 -1.8375
 5380TIP3    H216105   4.259   1.050   2.504  0.6326 -3.4523  2.6715
 5381TIP3   OH216106   3.419   0.010   4.669 -0.1070  0.1511  0.4479
 5381TIP3    H116107   3.395  -0.049   4.740 -0.3967  0.6352  0.7592
 5381TIP3    H216108   3.477   0.075   4.710  1.1287 -0.5459 -0.1234
 5382TIP3   OH216109   5.753   0.291   1.433 -0.4859  0.3028 -0.2450
 5382TIP3    H116110   5.704   0.358   1.386 -0.1560  1.3782  0.8930
 5382TIP3    H216111   5.801   0.243   1.365  0.8432  2.4917 -0.9296
 5383TIP3   OH216112   1.715   2.173   3.139  0.9190  0.3672 -0.5080
 5383TIP3    H116113   1.765   2.255   3.141  1.3500  0.1142 -0.6388
 5383TIP3    H216114   1.782   2.105   3.133  0.6038 -0.0415  0.4439
 5384TIP3   OH216115   5.760   2.179   2.093 -0.0772  0.2222  0.9249
 5384TIP3    H116116   5.758   2.132   2.009 -1.4776  2.2842 -0.2892
 5384TIP3    H216117   5.852   2.179   2.118  0.3015 -0.9394 -0.2911
 5385TIP3   OH216118   3.961   5.101   2.290  0.5718 -0.1504  0.2313
 5385TIP3    H116119   3.869   5.081   2.308  0.6715 -1.2540 -0.4404
 5385TIP3    H216120   3.966   5.197   2.294  0.0593 -0.1557  3.4591
 5386TIP3   OH216121   3.810   5.418   1.606 -0.0869  0.5445  0.1365
 5386TIP3    H116122   3.904   5.434   1.606  0.1371 -0.6794  0.6432
 5386TIP3    H216123   3.775   5.480   1.671  0.5605  0.0173  1.0087
 5387TIP3   OH216124   1.701   1.238   1.633 -0.2363  0.3127  0.9602
 5387TIP3    H116125   1.760   1.307   1.665 -1.0254  0.2547  2.6559
 5387TIP3    H216126   1.683   1.185   1.710 -2.0750  0.0197  0.3676
 5388TIP3   OH216127   5.008   2.818   5.877  0.4421 -0.0193 -0.1028
 5388TIP3    H116128   4.988   2.798   5.785 -0.2246  1.3819 -0.2968
 5388TIP3    H216129   5.050   2.739   5.911 -0.7705 -1.1615 -1.1625
 5389TIP3   OH216130   2.416   5.934   0.729 -0.2275 -0.0417  0.0754
 5389TIP3    H116131   2.457   5.847   0.728 -0.3393 -0.0908 -0.4467
 5389TIP3    H216132   2.490   5.995   0.733 -0.1441 -0.1583  0.3091
 5390TIP3   OH216133   1.658   1.634   1.727 -0.2948  0.1194  0.5248
 5390TIP3    H116134   1.751   1.635   1.751 -0.1922  1.4085  0.1452
 5390TIP3    H216135   1.648   1.707   1.666 -1.1592 -1.2415 -1.0470
 5391TIP3   OH216136   2.297   1.794   0.793  0.0787  0.2222 -0.0955
 5391TIP3    H116137   2.259   1.753   0.716  0.0660  1.1910 -0.6178
 5391TIP3    H216138   2.237   1.866   0.814  0.7156  0.7017  0.0991
 5392TIP3   OH216139   5.237   5.259   4.364 -0.8593 -0.6069  0.3410
 5392TIP3    H116140   5.251   5.353   4.372  0.6478 -0.5519 -2.0207
 5392TIP3    H216141   5.303   5.219   4.420 -1.1492 -0.2709  0.9266
 5393TIP3   OH216142   3.124   3.948   1.160 -0.3477 -0.0079  0.2713
 5393TIP3    H116143   3.077   3.992   1.089  1.4353  1.8082  0.1389
 5393TIP3    H216144   3.094   3.992   1.239  1.1371  1.2244  0.1776
 5394TIP3   OH216145   4.854   2.517   5.367  0.4213  0.1420 -0.4912
 5394TIP3    H116146   4.760   2.502   5.360  0.4516  0.3378 -1.4085
 5394TIP3    H216147   4.866   2.609   5.345  0.6630  0.5638  1.2729
 5395TIP3   OH216148   0.740   1.007   2.192 -0.7020  0.1591  0.2032
 5395TIP3    H116149   0.681   1.001   2.117  0.1362 -0.7850 -0.3914
 5395TIP3    H216150   0.821   0.968   2.163  0.1410  1.1430  1.1257
 5396TIP3   OH216151   7.127   0.253   4.738  0.2250  0.0376  0.3564
 5396TIP3    H116152   7.047   0.304   4.752 -0.1607 -1.0756  2.7963
 5396TIP3    H216153   7.178   0.266   4.819  1.5982 -0.8769 -0.3198
 5397TIP3   OH216154   4.835   4.697   0.188  0.3552 -0.4380 -0.0187
 5397TIP3    H116155   4.765   4.673   0.128  1.1813  0.5036 -1.4363
 5397TIP3    H216156   4.896   4.623   0.184 -0.4267 -1.1723  1.0702
 5398TIP3   OH216157   0.767   2.528   5.828 -0.3025 -0.5740 -0.1434
 5398TIP3    H116158   0.765   2.549   5.735  2.4150 -1.1107 -0.4218
 5398TIP3    H216159   0.853   2.559   5.857 -1.7111  1.1652  2.6356
 5399TIP3   OH216160   1.987   0.849   4.583 -0.1634  0.1394  0.5956
 5399TIP3    H116161   2.058   0.903   4.547 -2.9099  2.4996 -1.7192
 5399TIP3    H216162   2.028   0.763   4.597  3.5161  1.7676  0.9692
 5400TIP3   OH216163   1.997   5.158   5.092  0.7607 -0.4526 -0.4432
 5400TIP3    H116164   1.989   5.208   5.174 -1.8979 -0.7951 -0.4052
 5400TIP3    H216165   2.019   5.069   5.121  2.4611 -0.0367 -0.3272
 5401TIP3   OH216166   7.058   2.858   2.746  0.5463 -0.3800 -0.0267
 5401TIP3    H116167   7.005   2.844   2.824  1.1296 -0.6473  0.3228
 5401TIP3    H216168   7.143   2.887   2.778  0.8970 -0.8040 -0.5423
 5402TIP3   OH216169   6.063   0.575   5.277  0.5477  0.0879  0.2151
 5402TIP3    H116170   6.049   0.651   5.335 -0.9087 -0.4067  0.5657
 5402TIP3    H216171   6.083   0.614   5.192  2.2332  0.8352  0.9009
 5403TIP3   OH216172   2.511   3.744   0.974 -0.3332 -0.4702  0.2885
 5403TIP3    H116173   2.535   3.651   0.968 -0.3764 -0.4988  0.5882
 5403TIP3    H216174   2.426   3.745   1.017 -0.1378 -0.2674  0.6772
 5404TIP3   OH216175   4.801   0.560   1.472 -0.2130  0.4313  0.5904
 5404TIP3    H116176   4.752   0.575   1.391  0.3370  1.5334  0.4489
 5404TIP3    H216177   4.752   0.608   1.538 -0.6433 -0.4415  0.9303
 5405TIP3   OH216178   1.437   4.424   3.630  0.0180 -0.3893  0.5609
 5405TIP3    H116179   1.354   4.381   3.606  0.9558 -2.4803  0.8655
 5405TIP3    H216180   1.419   4.517   3.617 -2.1855 -0.8115  0.0094
 5406TIP3   OH216181   4.256   0.238   5.261 -0.1461  0.0371 -0.6444
 5406TIP3    H116182   4.332   0.250   5.204 -1.1427  1.4299 -1.7712
 5406TIP3    H216183   4.255   0.316   5.316  0.8397 -1.3229  1.4281
 5407TIP3   OH216184   4.438   2.433   5.005  0.1685  0.0493 -0.2642
 5407TIP3    H116185   4.405   2.343   5.003 -0.6234  0.3449 -0.9017
 5407TIP3    H216186   4.366   2.486   4.972  0.2451  1.0487  1.0700
 5408TIP3   OH216187   2.469   4.689   2.951 -0.6962  0.1753 -0.3100
 5408TIP3    H116188   2.375   4.692   2.966 -0.8422 -2.9683  0.0739
 5408TIP3    H216189   2.508   4.696   3.038 -0.8915 -3.1615  0.1767
 5409TIP3   OH216190   6.721   6.700   1.056  0.0932 -0.0139  0.6378
 5409TIP3    H116191   6.812   6.718   1.033  0.1064  1.1314  1.4760
 5409TIP3    H216192   6.711   6.735   1.144 -0.5730 -2.1278  1.4735
 5410TIP3   OH216193   4.594   1.858   1.024 -0.6123 -0.6088 -0.5932
 5410TIP3    H116194   4.632   1.814   1.100  0.5133  0.3613 -0.5633
 5410TIP3    H216195   4.637   1.817   0.949 -0.5270 -0.4521 -0.6293
 5411TIP3   OH216196   0.765   0.108   2.818 -0.1204  0.1800  0.1065
 5411TIP3    H116197   0.733   0.026   2.780  0.0272  0.2880 -0.2518
 5411TIP3    H216198   0.736   0.176   2.757  0.2162  0.3411  0.1229
 5412TIP3   OH216199   0.700   5.333   1.497 -0.2265  0.1679  0.2882
 5412TIP3    H116200   0.618   5.284   1.509 -0.9384  0.8603 -1.5030
 5412TIP3    H216201   0.718   5.370   1.584 -1.8617  0.0470  0.7166
 5413TIP3   OH216202   4.550   1.571   4.047 -0.1221 -0.1456  0.0237
 5413TIP3    H116203   4.609   1.577   3.972 -0.8538 -0.2582 -0.5646
 5413TIP3    H216204   4.583   1.637   4.108  0.7461 -0.3583 -0.1980
 5414TIP3   OH216205   1.555   1.290   1.407 -0.3836  0.1087 -0.0888
 5414TIP3    H116206   1.615   1.351   1.364  0.4350  0.9275  2.0446
 5414TIP3    H216207   1.602   1.263   1.486 -1.3514 -2.1451 -0.1938
 5415TIP3   OH216208   5.300   5.178   4.774 -0.1990  0.2908 -0.2318
 5415TIP3    H116209   5.373   5.235   4.748 -0.2505 -0.4392 -2.1247
 5415TIP3    H216210   5.222   5.228   4.751 -0.2797  0.3044  0.0653
 5416TIP3   OH216211   0.220   2.783   1.597  0.4765  0.1868  0.5018
 5416TIP3    H116212   0.187   2.853   1.654  2.3211  0.5888  1.1413
 5416TIP3    H216213   0.276   2.829   1.534  1.3196 -0.6415  0.6294
 5417TIP3   OH216214   5.345   4.627   5.491 -0.3254 -0.0245  0.2447
 5417TIP3    H116215   5.275   4.601   5.431  0.1669  1.5290 -1.0459
 5417TIP3    H216216   5.424   4.589   5.453 -0.0106  0.9713 -0.1220
 5418TIP3   OH216217   0.467   5.201   5.365 -0.0625  0.1273  0.0883
 5418TIP3    H116218   0.472   5.227   5.457  1.8229 -1.5382  0.5280
 5418TIP3    H216219   0.525   5.263   5.320  2.0983 -1.3679  0.6789
 5419TIP3   OH216220   1.027   2.351   5.574  0.1909 -0.6470  0.2379
 5419TIP3    H116221   1.116   2.332   5.545  0.4746 -0.3964  0.9253
 5419TIP3    H216222   1.037   2.388   5.662 -0.1320  4.4577 -1.5572
 5420TIP3   OH216223   2.715   4.676   4.205  0.0845  0.3166 -0.1459
 5420TIP3    H116224   2.774   4.707   4.273  0.1071 -0.5346  0.2412
 5420TIP3    H216225   2.732   4.733   4.130  1.7018 -0.1485 -0.1804
 5421TIP3   OH216226   2.870   2.142   4.160  0.1818  0.0911 -0.2155
 5421TIP3    H116227   2.834   2.079   4.098  2.3789  0.1261 -1.6201
 5421TIP3    H216228   2.848   2.227   4.121  0.4744  0.1331 -0.2866
 5422TIP3   OH216229   6.644   6.743   4.930  0.2169  0.3924 -0.2049
 5422TIP3    H116230   6.726   6.693   4.924  0.6341  0.7538  1.7575
 5422TIP3    H216231   6.613   6.749   4.840  1.4588 -1.2373 -0.7930
 5423TIP3   OH216232   4.714   4.492   1.878 -0.7433 -0.2427  0.3735
 5423TIP3    H116233   4.620   4.486   1.893 -1.1758  1.3386 -1.3352
 5423TIP3    H216234   4.733   4.422   1.815 -0.6593 -0.8764  1.0888
 5424TIP3   OH216235   6.576   1.282   4.062 -0.0770  0.1734  0.5974
 5424TIP3    H116236   6.613   1.368   4.039 -1.1214  0.6188  0.5292
 5424TIP3    H216237   6.639   1.219   4.026  0.8013  0.9032  0.8083
 5425TIP3   OH216238   5.158   2.272   4.060 -0.0183 -0.1554 -0.0763
 5425TIP3    H116239   5.173   2.180   4.081 -0.6030  0.0218  1.2095
 5425TIP3    H216240   5.091   2.271   3.992 -0.1754 -0.6849  0.0796
 5426TIP3   OH216241   5.396   5.956   3.074  0.6015 -0.0371 -0.3321
 5426TIP3    H116242   5.469   5.986   3.128  1.1347  1.3153 -1.7217
 5426TIP3    H216243   5.349   5.893   3.129  1.3604  0.9350  1.5009
 5427TIP3   OH216244   0.334   2.284   3.369  0.0960 -0.6438  0.3137
 5427TIP3    H116245   0.285   2.237   3.436  0.3672 -3.2800 -1.1917
 5427TIP3    H216246   0.268   2.309   3.304  0.4187 -3.5255 -1.3342
 5428TIP3   OH216247   4.425   0.631   2.793  0.2470 -0.4209  0.2972
 5428TIP3    H116248   4.382   0.610   2.875 -0.4475 -0.3427 -0.0366
 5428TIP3    H216249   4.354   0.658   2.735  0.7481 -0.2846 -0.2679
 5429TIP3   OH216250   3.427   3.337   1.632  0.2821 -0.2880  0.1805
 5429TIP3    H116251   3.426   3.387   1.715 -0.5406 -0.5121  0.3136
 5429TIP3    H216252   3.520   3.325   1.613  0.6132  2.7274 -0.7172
 5430TIP3   OH216253   1.032   2.553   4.354 -0.1919  0.2380 -0.7850
 5430TIP3    H116254   1.058   2.620   4.291 -0.8560  0.1690 -1.1500
 5430TIP3    H216255   0.998   2.482   4.300  0.6543 -0.4583 -0.4046
 5431TIP3   OH216256   7.041   0.386   1.305 -0.2236 -0.0367 -0.5034
 5431TIP3    H116257   6.986   0.401   1.229  1.2809  2.3413 -1.2155
 5431TIP3    H216258   6.982   0.396   1.380 -1.3275 -0.5697 -1.2625
 5432TIP3   OH216259   6.691   0.441   0.875 -0.1707 -0.6068 -0.1961
 5432TIP3    H116260   6.705   0.534   0.862 -0.8530 -0.7091 -1.8495
 5432TIP3    H216261   6.604   0.436   0.916 -0.3991 -0.5453 -0.6714
 5433TIP3   OH216262   1.041   2.319   0.140  0.2037 -0.6965  0.0599
 5433TIP3    H116263   1.135   2.314   0.153  0.5753  1.2532 -1.4526
 5433TIP3    H216264   1.018   2.409   0.166 -0.5792  0.0778 -2.9430
 5434TIP3   OH216265   3.750   1.324   4.103  0.4529  0.4643  0.5116
 5434TIP3    H116266   3.705   1.342   4.021 -0.6349 -1.2262  0.6673
 5434TIP3    H216267   3.834   1.370   4.096 -0.8447  2.8848 -0.2193
 5435TIP3   OH216268   4.762   2.016   5.436  0.3449  0.3077 -0.3437
 5435TIP3    H116269   4.806   1.932   5.424  0.2352 -0.3159  2.8494
 5435TIP3    H216270   4.829   2.074   5.472 -0.7131  0.0247  2.3105
 5436TIP3   OH216271   2.937   5.091   4.111 -0.2556 -0.6285 -0.4650
 5436TIP3    H116272   2.977   5.008   4.137  0.1074 -0.0745  0.8882
 5436TIP3    H216273   2.922   5.083   4.017  1.7596 -1.4165 -0.7739
 5437TIP3   OH216274   5.654   4.825   3.983  0.1646  0.1696 -0.0755
 5437TIP3    H116275   5.651   4.910   4.025  0.1753  0.5319 -0.7835
 5437TIP3    H216276   5.567   4.787   3.997 -0.0968  0.6306 -0.4175
 5438TIP3   OH216277   5.954   1.753   1.002  0.6583 -0.2019 -0.0522
 5438TIP3    H116278   5.998   1.838   1.000 -0.3243  0.3123 -1.4479
 5438TIP3    H216279   6.018   1.694   1.041  1.6671  1.0119  0.1945
 5439TIP3   OH216280   5.692   5.507   5.159 -0.5877  0.1231 -0.5206
 5439TIP3    H116281   5.687   5.431   5.217 -0.4465  0.5544  0.0580
 5439TIP3    H216282   5.613   5.502   5.105  0.3047 -1.4750 -1.7799
 5440TIP3   OH216283   0.371   6.455   5.145 -0.3752 -0.1881 -0.5248
 5440TIP3    H116284   0.335   6.366   5.153  0.4470 -0.3657  2.9792
 5440TIP3    H216285   0.464   6.441   5.128  0.2693 -0.2260  2.4637
 5441TIP3   OH216286   6.823   2.977   0.699  0.3565  0.1898  0.1108
 5441TIP3    H116287   6.758   2.977   0.629  1.3508  0.9193 -0.8466
 5441TIP3    H216288   6.878   3.053   0.681  2.5660 -1.3725 -0.1828
 5442TIP3   OH216289   1.952   5.833   4.977  0.1297 -0.4862 -0.1137
 5442TIP3    H116290   1.961   5.918   4.934  1.2563 -1.2128 -1.3981
 5442TIP3    H216291   1.880   5.791   4.930  1.9545 -1.6459 -2.0576
 5443TIP3   OH216292   0.481   5.521   2.599 -0.1425  0.1767 -0.1139
 5443TIP3    H116293   0.430   5.482   2.528  1.6184 -0.0186 -1.3390
 5443TIP3    H216294   0.433   5.602   2.621 -0.6866  0.2864 -1.5926
 5444TIP3   OH216295   2.771   3.756   0.132 -0.0183 -0.2502 -0.3824
 5444TIP3    H116296   2.740   3.845   0.115  1.8669  0.2661 -1.3651
 5444TIP3    H216297   2.830   3.765   0.207  0.5622 -0.5746 -0.7907
 5445TIP3   OH216298   2.320   1.732   4.769  0.3591 -0.1470 -0.1615
 5445TIP3    H116299   2.341   1.742   4.676 -2.5092  1.2184 -0.7814
 5445TIP3    H216300   2.300   1.640   4.780  0.7308 -0.3189 -0.8790
 5446TIP3   OH216301   6.864   3.349   4.390 -0.6533  0.1914 -0.1879
 5446TIP3    H116302   6.947   3.391   4.411  0.1380 -0.4945 -1.7755
 5446TIP3    H216303   6.819   3.411   4.332 -1.7264  0.9952  1.4352
 5447TIP3   OH216304   4.310   3.837   3.781 -0.6581 -0.1813  0.5957
 5447TIP3    H116305   4.382   3.815   3.840  0.5719  2.3878  0.2300
 5447TIP3    H216306   4.246   3.881   3.838  0.0580  1.3562  0.2760
 5448TIP3   OH216307   4.652   4.295   0.210  0.6157 -0.7078  0.5631
 5448TIP3    H116308   4.728   4.237   0.219  1.6750  0.7311  1.2318
 5448TIP3    H216309   4.668   4.366   0.271 -0.3172  0.6751 -0.7227
 5449TIP3   OH216310   2.416   6.327   3.921  0.2077  0.2155  0.2410
 5449TIP3    H116311   2.438   6.299   4.010  0.1917  0.8613  0.4591
 5449TIP3    H216312   2.461   6.411   3.911 -0.8131  0.7658  0.1092
 5450TIP3   OH216313   4.038   4.746   3.708 -0.1364  0.0421 -0.6271
 5450TIP3    H116314   3.997   4.691   3.642 -0.0021  0.1439 -0.7970
 5450TIP3    H216315   3.983   4.737   3.785 -0.8075  0.6378 -1.0307
 5451TIP3   OH216316   3.345   5.638   5.189  0.0103 -0.3519  1.1800
 5451TIP3    H116317   3.343   5.553   5.233 -2.8676 -0.3304  1.2615
 5451TIP3    H216318   3.299   5.624   5.106  4.0855 -0.0458 -1.3926
 5452TIP3   OH216319   6.004   0.490   1.465 -0.0438  0.0886  0.5801
 5452TIP3    H116320   6.071   0.558   1.465 -0.5422  0.5898  0.6177
 5452TIP3    H216321   5.965   0.495   1.377  0.4463 -0.6824  0.3152
 5453TIP3   OH216322   6.079   5.903   5.279  0.1676 -0.2089 -0.5099
 5453TIP3    H116323   6.008   5.843   5.257 -0.1662  0.0429 -0.1359
 5453TIP3    H216324   6.151   5.846   5.305 -0.9388 -0.4766  2.3002
 5454TIP3   OH216325   4.554   3.668   2.085 -0.2405 -0.2452 -0.0718
 5454TIP3    H116326   4.527   3.725   2.013  0.4708 -0.0594 -0.1987
 5454TIP3    H216327   4.497   3.693   2.158  0.6543  1.2797  0.1505
 5455TIP3   OH216328   4.611   5.722   1.489 -0.2380  0.0037  0.6303
 5455TIP3    H116329   4.567   5.797   1.449  1.3360  0.4888 -0.2974
 5455TIP3    H216330   4.650   5.675   1.415 -0.5426 -1.3137  1.2708
 5456TIP3   OH216331   6.278   0.047   0.278 -0.9523  0.1330 -0.9178
 5456TIP3    H116332   6.205   0.013   0.329 -0.7252  0.3141 -0.4729
 5456TIP3    H216333   6.315  -0.030   0.235 -0.7078 -0.1203 -0.2589
 5457TIP3   OH216334   0.290   0.507   2.671 -0.3530  0.0380  0.0186
 5457TIP3    H116335   0.379   0.544   2.675 -0.4187  0.3163 -0.8185
 5457TIP3    H216336   0.237   0.567   2.724  0.4070 -1.6426  2.9011
 5458TIP3   OH216337   2.509   4.306   1.917  0.3122 -0.1050  0.6043
 5458TIP3    H116338   2.531   4.344   2.002 -1.3168 -0.5239  1.2600
 5458TIP3    H216339   2.487   4.381   1.862  2.3391  0.2451  0.2113
 5459TIP3   OH216340   3.581   4.232   4.805  0.3392 -0.0153  0.1348
 5459TIP3    H116341   3.525   4.191   4.872 -0.0823  0.7202  0.2458
 5459TIP3    H216342   3.625   4.303   4.852 -0.5046  0.9595 -0.5389
 5460TIP3   OH216343   2.601   5.659   4.818 -0.2206  0.2724 -0.3977
 5460TIP3    H116344   2.665   5.715   4.773 -0.1788 -0.0456 -0.7419
 5460TIP3    H216345   2.599   5.579   4.765 -0.3974  0.0129  0.0023
 5461TIP3   OH216346   6.291   0.886   3.369 -0.9211 -0.1033  0.0355
 5461TIP3    H116347   6.332   0.825   3.308 -1.4177  1.3869 -1.9081
 5461TIP3    H216348   6.332   0.868   3.454  2.5802  0.2169 -1.4293
 5462TIP3   OH216349   3.853   3.870   0.678  0.1904  0.0346 -0.4890
 5462TIP3    H116350   3.818   3.954   0.649  1.4379  0.0391 -2.1294
 5462TIP3    H216351   3.779   3.810   0.673 -0.3887  0.7513 -0.5976
 5463TIP3   OH216352   0.379   6.800   2.648  0.1432  0.6227 -0.1220
 5463TIP3    H116353   0.362   6.707   2.634  0.4744  0.4914  0.3390
 5463TIP3    H216354   0.295   6.835   2.677 -0.5672  0.9067 -2.3814
 5464TIP3   OH216355   2.140   1.644   5.333 -0.2161 -0.1160  0.2532
 5464TIP3    H116356   2.191   1.716   5.370 -0.5968  0.4651 -0.3224
 5464TIP3    H216357   2.166   1.641   5.241 -0.0819 -0.8342  0.3027
 5465TIP3   OH216358   4.088   3.279   3.587 -0.3490  0.0428  0.7293
 5465TIP3    H116359   4.117   3.190   3.564 -0.5068  0.3871 -0.9519
 5465TIP3    H216360   4.169   3.326   3.607 -0.2276 -0.3467  1.1875
 5466TIP3   OH216361   2.348   2.199   1.339  0.2659  0.6373  0.8408
 5466TIP3    H116362   2.340   2.280   1.390 -0.4422  0.6425  0.7300
 5466TIP3    H216363   2.258   2.171   1.325  0.5210 -0.7925  1.8575
 5467TIP3   OH216364   2.100   3.859   2.326  0.5449 -0.1796 -0.0253
 5467TIP3    H116365   2.165   3.881   2.393 -0.4853 -0.3697  1.0731
 5467TIP3    H216366   2.118   3.920   2.255 -0.9039  2.9122  2.0337
 5468TIP3   OH216367   3.945   6.697   2.985  0.0891 -0.8746  0.5516
 5468TIP3    H116368   3.995   6.777   3.000  0.3548 -0.6053 -1.4861
 5468TIP3    H216369   4.011   6.628   2.976 -0.1132 -1.2321  1.5765
 5469TIP3   OH216370   3.667   4.085   3.934  0.3260  0.0230 -0.6782
 5469TIP3    H116371   3.579   4.110   3.907 -0.3023 -1.9726 -0.6370
 5469TIP3    H216372   3.717   4.081   3.852  0.6692  2.0581 -0.6117
 5470TIP3   OH216373   5.057   5.955   5.158  0.2272 -0.1485 -0.4700
 5470TIP3    H116374   5.047   5.951   5.253  1.0477  1.6051 -0.2562
 5470TIP3    H216375   5.136   6.007   5.145 -0.0783 -0.0389 -2.1191
 5471TIP3   OH216376   0.903   6.089   5.668 -0.3041 -0.2960  0.1845
 5471TIP3    H116377   0.915   6.017   5.606 -2.9890 -2.2606  1.7690
 5471TIP3    H216378   0.809   6.103   5.672 -0.1480  0.6486  2.7946
 5472TIP3   OH216379   6.272   5.866   5.790 -0.0775  0.2386  0.4118
 5472TIP3    H116380   6.350   5.919   5.808 -0.4093  0.4225  1.3691
 5472TIP3    H216381   6.281   5.790   5.848 -1.1135  0.7768  1.3225
 5473TIP3   OH216382   6.328   6.605   0.180  0.5095 -0.3878  0.5175
 5473TIP3    H116383   6.367   6.593   0.093  0.9136 -0.5724  0.7194
 5473TIP3    H216384   6.299   6.517   0.205  1.9354 -0.6863  1.2793
 5474TIP3   OH216385   5.760   0.044   5.333 -0.0121 -0.0348  0.0040
 5474TIP3    H116386   5.692   0.092   5.381  0.7503  1.2232 -0.1134
 5474TIP3    H216387   5.748  -0.047   5.358 -1.1209  0.2975  0.7423
 5475TIP3   OH216388   3.784   1.631   3.296 -0.6563  0.3110  0.3256
 5475TIP3    H116389   3.875   1.648   3.322 -1.1440  2.7044  0.7853
 5475TIP3    H216390   3.744   1.591   3.374 -0.9663  3.2523  1.8549
 5476TIP3   OH216391   0.304   3.943   5.880 -0.1894 -0.2632 -0.0569
 5476TIP3    H116392   0.220   3.987   5.893  0.2679  0.3966  0.7759
 5476TIP3    H216393   0.337   3.980   5.798 -0.4094 -0.0319 -0.0434
 5477TIP3   OH216394   5.178   5.764   3.926  0.3075  0.0651  0.3366
 5477TIP3    H116395   5.097   5.814   3.928 -0.2124 -0.7789  1.0172
 5477TIP3    H216396   5.186   5.728   4.014  1.1198 -0.3358  0.1113
 5478TIP3   OH216397   6.170   2.565   4.839  0.2220 -0.4022 -0.5001
 5478TIP3    H116398   6.198   2.594   4.752 -0.8234  1.5643 -0.2279
 5478TIP3    H216399   6.103   2.499   4.822 -0.0507  0.0398 -1.1947
 5479TIP3   OH216400   3.472   1.758   4.262  0.4090 -0.5049  0.6460
 5479TIP3    H116401   3.528   1.732   4.188 -0.7175 -0.6397 -0.1813
 5479TIP3    H216402   3.469   1.681   4.318  0.0373 -0.9462  0.0434
 5480TIP3   OH216403   3.571   2.249   3.528  0.1569  0.0375 -0.7181
 5480TIP3    H116404   3.530   2.162   3.522 -0.2174  0.2565 -1.4401
 5480TIP3    H216405   3.650   2.234   3.580 -0.2295 -0.6143 -0.2936
 5481TIP3   OH216406   2.761   5.672   4.530  0.4045  0.3167 -0.0960
 5481TIP3    H116407   2.717   5.675   4.445  0.0186 -0.3907  0.0701
 5481TIP3    H216408   2.850   5.702   4.511  0.2928  0.2740 -0.7362
 5482TIP3   OH216409   2.816   4.665   1.521 -0.2599 -0.2446 -0.8001
 5482TIP3    H116410   2.725   4.662   1.492 -0.4682 -1.2821 -0.0920
 5482TIP3    H216411   2.811   4.687   1.614  0.3256  1.4558 -1.1172
 5483TIP3   OH216412   4.034   0.643   2.756 -0.1943 -0.1985 -0.7478
 5483TIP3    H116413   4.007   0.552   2.765 -1.6523  0.2126 -0.7286
 5483TIP3    H216414   3.954   0.690   2.734  0.0620  1.4098  1.4405
 5484TIP3   OH216415   2.882   1.516   4.657 -0.0339  0.4225 -0.0328
 5484TIP3    H116416   2.884   1.444   4.594  0.3108  1.0974 -0.8011
 5484TIP3    H216417   2.870   1.473   4.742  0.1590 -0.5364 -0.4832
 5485TIP3   OH216418   3.663   5.466   5.134 -0.0061  0.0200 -0.5649
 5485TIP3    H116419   3.621   5.395   5.183  1.1835 -0.4190 -0.1481
 5485TIP3    H216420   3.657   5.438   5.042 -1.2787  0.3353 -0.6063
 5486TIP3   OH216421   2.744   3.591   2.547 -0.3343  0.4518  0.0303
 5486TIP3    H116422   2.683   3.649   2.501 -0.8569  1.0415  1.4057
 5486TIP3    H216423   2.773   3.642   2.622  0.0201 -0.6924  0.6905
 5487TIP3   OH216424   5.510   6.359   4.807 -0.1661  0.0267  0.4114
 5487TIP3    H116425   5.603   6.377   4.793 -0.2482  2.3842  2.1614
 5487TIP3    H216426   5.504   6.340   4.901 -1.5792  1.1354  0.5739
 5488TIP3   OH216427   6.682   0.811   3.993  0.5556 -0.2394  0.0588
 5488TIP3    H116428   6.712   0.828   4.082 -2.2757  1.6915  0.7724
 5488TIP3    H216429   6.612   0.746   4.003 -1.4178  1.7034 -0.3489
 5489TIP3   OH216430   3.466   3.728   0.070 -0.0377 -0.1577  0.8799
 5489TIP3    H116431   3.526   3.657   0.049 -0.0961 -0.4943  1.8171
 5489TIP3    H216432   3.439   3.711   0.160 -1.3985  0.0964  0.5346
 5490TIP3   OH216433   4.750   0.083   3.653 -0.0783 -0.2286  0.0562
 5490TIP3    H116434   4.784   0.161   3.609 -0.2883  0.3301  0.8504
 5490TIP3    H216435   4.702   0.036   3.585 -1.8931  1.4995  0.0320
 5491TIP3   OH216436   2.976   3.691   4.107 -0.2062 -0.4849  0.1241
 5491TIP3    H116437   3.020   3.607   4.094  1.4116  0.3952 -0.3643
 5491TIP3    H216438   3.008   3.722   4.191 -1.8293 -0.9261  0.9441
 5492TIP3   OH216439   7.149   5.418   0.280  0.0490 -0.5242  0.5708
 5492TIP3    H116440   7.064   5.397   0.318  0.8018 -0.4526  2.3917
 5492TIP3    H216441   7.190   5.334   0.264 -0.3604 -0.5597 -0.3336
 5493TIP3   OH216442   5.565   0.200   2.710 -0.2017 -0.0508  0.0675
 5493TIP3    H116443   5.528   0.228   2.794 -0.9785  0.6781 -0.5035
 5493TIP3    H216444   5.563   0.279   2.656  1.7971 -0.0824 -0.1407
 5494TIP3   OH216445   4.605   3.341   1.483 -0.0431  0.3918 -0.4308
 5494TIP3    H116446   4.630   3.389   1.561 -0.4000 -0.9369  0.5358
 5494TIP3    H216447   4.574   3.256   1.515  1.3045 -0.8133 -2.0979
 5495TIP3   OH216448   1.621   6.350   4.352 -0.2100 -0.0775 -0.4394
 5495TIP3    H116449   1.589   6.425   4.303  0.1963  0.0534 -0.5125
 5495TIP3    H216450   1.696   6.385   4.402  0.0001 -0.4376 -0.5006
 5496TIP3   OH216451   4.846   2.955   4.148 -0.0765  0.0383 -0.3281
 5496TIP3    H116452   4.855   2.868   4.108  0.5485  0.4560 -1.1215
 5496TIP3    H216453   4.752   2.969   4.153 -0.2458 -1.2350  1.0536
 5497TIP3   OH216454   2.805   5.756   0.061 -0.0607 -0.6223  0.6490
 5497TIP3    H116455   2.791   5.721   0.149  0.3861 -1.6596  0.3189
 5497TIP3    H216456   2.872   5.823   0.072  0.9938 -1.6922  0.9086
 5498TIP3   OH216457   0.037   2.078   2.022  0.2758 -0.6894  0.0680
 5498TIP3    H116458   0.087   1.998   2.039 -0.3510 -0.7853  1.6827
 5498TIP3    H216459  -0.029   2.052   1.958 -1.1676 -2.0470  1.9920
 5499TIP3   OH216460   0.018   3.518   2.042  0.4945 -0.1534 -0.0971
 5499TIP3    H116461   0.076   3.504   1.967  0.1038 -0.0858 -0.4160
 5499TIP3    H216462   0.014   3.433   2.086  1.9255  0.1649  0.7339
 5500TIP3   OH216463   5.085   2.888   0.344 -0.2736  0.3238  0.2931
 5500TIP3    H116464   5.160   2.933   0.305 -1.0653  0.9699 -0.5268
 5500TIP3    H216465   5.040   2.848   0.270 -0.4062 -0.5899  0.8511
 5501TIP3   OH216466   1.711   1.239   2.764  0.0790  0.1753 -0.4038
 5501TIP3    H116467   1.676   1.188   2.837  1.3138 -0.0490  0.0526
 5501TIP3    H216468   1.641   1.239   2.699 -0.3162 -1.2718 -0.0100
 5502TIP3   OH216469   5.985   5.594   5.727 -0.3543  0.5336 -0.2218
 5502TIP3    H116470   6.021   5.629   5.646  0.4238  1.8102  0.6440
 5502TIP3    H216471   5.992   5.499   5.718 -1.6752  0.5747 -2.2605
 5503TIP3   OH216472   4.321   5.270   3.773 -0.1815 -0.4921 -0.0085
 5503TIP3    H116473   4.413   5.263   3.749 -0.1394 -0.5669  0.1698
 5503TIP3    H216474   4.310   5.361   3.801  0.3304 -0.9649  1.9229
 5504TIP3   OH216475   6.103   2.371   0.856 -0.0804 -0.9313 -0.2985
 5504TIP3    H116476   6.029   2.352   0.799  0.8699 -2.7299 -1.0308
 5504TIP3    H216477   6.180   2.359   0.801  0.7912  0.7204  0.4851
 5505TIP3   OH216478   1.890   4.582   4.013 -0.0958 -0.3936  0.3206
 5505TIP3    H116479   1.870   4.632   4.092  0.4972 -0.0936  0.2894
 5505TIP3    H216480   1.936   4.504   4.044  1.7006  0.5514  0.1867
 5506TIP3   OH216481   5.402   4.057   5.677  0.3608 -0.1204  0.2434
 5506TIP3    H116482   5.486   4.034   5.636 -0.0679  0.1285 -0.8212
 5506TIP3    H216483   5.353   3.974   5.678  0.3385 -0.1098  0.1438
 5507TIP3   OH216484   0.545   3.428   2.592  0.0358 -0.2945  0.0064
 5507TIP3    H116485   0.532   3.335   2.613  1.8652 -0.5755  0.0139
 5507TIP3    H216486   0.532   3.433   2.498  0.9240 -0.7507 -0.1440
 5508TIP3   OH216487   2.542   6.794   0.118 -0.2073  0.2328  0.0332
 5508TIP3    H116488   2.491   6.824   0.193 -1.8283 -1.6032 -0.2589
 5508TIP3    H216489   2.477   6.779   0.050  1.2244  1.9398 -1.8322
 5509TIP3   OH216490   5.192   5.419   1.419 -0.0605 -0.1261 -0.3111
 5509TIP3    H116491   5.196   5.514   1.403  1.8087  0.0343  0.7917
 5509TIP3    H216492   5.176   5.381   1.333  2.3538  1.0491 -1.3623
 5510TIP3   OH216493   4.373   1.022   3.156  0.0682  0.4931  0.1671
 5510TIP3    H116494   4.376   1.086   3.085 -0.8891 -0.8792 -1.1783
 5510TIP3    H216495   4.464   0.994   3.168  0.1856  0.4070 -0.8580
 5511TIP3   OH216496   0.980   1.298   5.429 -0.1728  0.7731  0.0118
 5511TIP3    H116497   1.011   1.320   5.516 -0.4363  2.1418 -0.2210
 5511TIP3    H216498   0.979   1.202   5.427  0.9529  0.7183  1.0952
 5512TIP3   OH216499   5.767   6.169   2.886  0.1488 -0.8664 -0.3319
 5512TIP3    H116500   5.854   6.131   2.885 -0.0561 -1.3417 -0.4105
 5512TIP3    H216501   5.782   6.263   2.888  0.6630 -0.9113 -1.3874
 5513TIP3   OH216502   4.720   3.971   2.933  0.3047 -0.3215 -0.0983
 5513TIP3    H116503   4.681   3.887   2.909  1.2265 -0.5251 -0.9735
 5513TIP3    H216504   4.678   4.035   2.876  0.5462 -0.3993 -0.3688
 5514TIP3   OH216505   0.140   1.367   2.592 -0.3252  0.5842  0.4598
 5514TIP3    H116506   0.126   1.431   2.662 -1.8115 -0.1225  0.8582
 5514TIP3    H216507   0.074   1.389   2.526  0.4281  0.6394 -0.2925
 5515TIP3   OH216508   5.161   5.730   2.413 -0.1515  0.0492  0.1244
 5515TIP3    H116509   5.251   5.702   2.398  1.1388  3.2678  0.9435
 5515TIP3    H216510   5.127   5.750   2.325  0.1459 -0.5403 -0.1280
 5516TIP3   OH216511   0.197   6.619   2.069 -0.2147 -0.4554 -0.2146
 5516TIP3    H116512   0.286   6.636   2.100 -0.5692  0.8958  0.1182
 5516TIP3    H216513   0.198   6.526   2.045  1.9671  0.0547 -2.5605
 5517TIP3   OH216514   4.442   0.247   3.012  0.1310  0.2932  0.0876
 5517TIP3    H116515   4.528   0.291   3.007  1.1618 -1.6880 -0.9213
 5517TIP3    H216516   4.404   0.278   3.094  1.4165  1.9083  0.1287
 5518TIP3   OH216517   0.455   1.264   1.571 -0.6446  0.6240  0.4325
 5518TIP3    H116518   0.478   1.239   1.482 -1.0550 -0.3086  0.5789
 5518TIP3    H216519   0.437   1.182   1.616 -0.9206  1.1114  1.2484
 5519TIP3   OH216520   1.895   3.002   3.074 -0.3078 -0.3287  0.0476
 5519TIP3    H116521   1.957   2.939   3.112  0.0988 -0.3147 -0.5689
 5519TIP3    H216522   1.828   3.013   3.141 -0.2513 -1.2273  0.2691
 5520TIP3   OH216523   4.095   5.817   3.296 -0.1478  0.2193  0.1182
 5520TIP3    H116524   4.180   5.834   3.337 -0.1820 -1.0311  0.7649
 5520TIP3    H216525   4.098   5.864   3.213  1.4077 -0.2765 -0.1260
 5521TIP3   OH216526   3.577   0.816   4.694 -0.2922  0.2247  0.3524
 5521TIP3    H116527   3.637   0.888   4.715 -0.1913  0.5033 -0.7912
 5521TIP3    H216528   3.491   0.849   4.720 -0.0836  0.2546  1.0095
 5522TIP3   OH216529   0.789   5.197   0.112 -0.2557 -0.0093 -0.2356
 5522TIP3    H116530   0.868   5.183   0.165 -0.5557  0.9584  0.4923
 5522TIP3    H216531   0.816   5.177   0.023  1.0675  1.1253 -0.1193
 5523TIP3   OH216532   6.154   2.686   0.058  0.1959  0.8031  0.0299
 5523TIP3    H116533   6.078   2.706   0.114  0.3228  0.8215  0.1951
 5523TIP3    H216534   6.152   2.754  -0.010 -0.9040 -0.1511 -0.9476
 5524TIP3   OH216535   1.600   4.095   3.222 -0.0470  0.4872 -0.0572
 5524TIP3    H116536   1.546   4.173   3.209  0.2519  0.7880  0.4582
 5524TIP3    H216537   1.587   4.071   3.314  1.0637  0.8640  0.2154
 5525TIP3   OH216538   3.678   2.531   3.320 -0.0229  0.1197  0.1395
 5525TIP3    H116539   3.774   2.539   3.316 -0.1810  1.8336 -2.1464
 5525TIP3    H216540   3.653   2.496   3.234 -1.5155  0.6148  0.3453
 5526TIP3   OH216541   2.214   6.403   1.786  0.9077  0.1405 -0.3578
 5526TIP3    H116542   2.152   6.335   1.757  2.0080 -0.5182 -1.2119
 5526TIP3    H216543   2.260   6.430   1.707  0.7858  1.6092  0.0454
 5527TIP3   OH216544   3.947   0.336   1.908  0.9244 -0.1323  0.1708
 5527TIP3    H116545   3.858   0.305   1.925  0.0923  1.5501 -0.8409
 5527TIP3    H216546   3.970   0.387   1.986  0.3631  0.7386 -0.2226
 5528TIP3   OH216547   1.320   3.499   0.522 -0.2067  0.2025 -0.0658
 5528TIP3    H116548   1.328   3.461   0.435 -0.8022  0.5639 -0.2868
 5528TIP3    H216549   1.398   3.552   0.533 -0.5494  0.8669 -0.7443
 5529TIP3   OH216550   1.218   5.001   3.850  0.1326 -0.1374  0.0728
 5529TIP3    H116551   1.194   5.007   3.942  1.1417 -0.3881  0.3649
 5529TIP3    H216552   1.136   5.015   3.802 -0.4291 -0.1971  1.0072
 5530TIP3   OH216553   1.332   0.320   2.188  0.0890  0.1371 -0.5170
 5530TIP3    H116554   1.371   0.235   2.208 -1.5133 -0.5540 -0.1485
 5530TIP3    H216555   1.308   0.314   2.095 -2.4538 -0.9217  0.1069
 5531TIP3   OH216556   1.241   1.028   5.295 -0.0067 -0.3209  0.3384
 5531TIP3    H116557   1.153   1.043   5.330  0.1302  2.9445 -0.3793
 5531TIP3    H216558   1.296   1.091   5.341  1.5653 -0.8633 -0.7223
 5532TIP3   OH216559   6.989   3.377   1.602 -0.1053  0.6174  0.8958
 5532TIP3    H116560   7.019   3.467   1.585  0.9783  0.1505  0.1908
 5532TIP3    H216561   7.034   3.352   1.683  0.9465  0.1469  0.1918
 5533TIP3   OH216562   1.829   1.961   0.165  0.3771  0.0577 -0.0606
 5533TIP3    H116563   1.747   1.920   0.136  0.4229 -0.1196  0.0547
 5533TIP3    H216564   1.873   1.987   0.085  0.6491 -0.7068 -0.1720
 5534TIP3   OH216565   2.904   2.766   2.762  0.3210  0.1114 -0.2635
 5534TIP3    H116566   2.995   2.741   2.749  0.2774  0.4070 -1.1923
 5534TIP3    H216567   2.860   2.685   2.789  0.8081 -0.0828 -0.0524
 5535TIP3   OH216568   0.474   2.769   4.028  0.0347 -0.5640 -0.2522
 5535TIP3    H116569   0.567   2.744   4.034  0.4561  0.6760 -1.1962
 5535TIP3    H216570   0.457   2.776   3.934 -0.1018  2.3327 -0.0962
 5536TIP3   OH216571   5.866   1.365   0.974 -0.5131 -0.0014  0.2855
 5536TIP3    H116572   5.850   1.316   0.894  0.1749 -0.6897  0.5559
 5536TIP3    H216573   5.791   1.424   0.982 -0.0947  0.8274 -1.4137
 5537TIP3   OH216574   1.934   1.381   1.416  0.7413  0.2445 -0.4816
 5537TIP3    H116575   1.988   1.458   1.394  0.4123  0.3796 -0.8329
 5537TIP3    H216576   1.879   1.368   1.339 -0.3178  0.6169  0.1819
 5538TIP3   OH216577   6.585   0.929   5.369  0.5022  0.2801  0.3239
 5538TIP3    H116578   6.590   0.862   5.437  0.2149 -0.5571 -0.4656
 5538TIP3    H216579   6.521   0.992   5.402 -1.2739 -1.2291 -0.0938
 5539TIP3   OH216580   4.767   0.083   2.145  0.3937  0.0866 -0.4167
 5539TIP3    H116581   4.726   0.161   2.110  1.7988  0.2200 -1.8786
 5539TIP3    H216582   4.847   0.115   2.187  1.8709 -0.6414 -2.4961
 5540TIP3   OH216583   2.249   6.139   0.639 -0.1422  0.0077  0.3466
 5540TIP3    H116584   2.298   6.059   0.659  1.3419  1.2081  1.7641
 5540TIP3    H216585   2.163   6.107   0.610  0.6622 -2.1045  0.0839
 5541TIP3   OH216586   2.071   0.358   1.005  0.1855 -0.1052  0.4991
 5541TIP3    H116587   1.988   0.316   1.026 -0.6647 -0.1496 -2.4562
 5541TIP3    H216588   2.069   0.442   1.052  0.1677 -1.5639  3.3273
 5542TIP3   OH216589   4.162   3.922   4.222  0.5487 -0.1332  0.7620
 5542TIP3    H116590   4.147   3.827   4.224  0.0336 -0.1405 -1.1697
 5542TIP3    H216591   4.256   3.931   4.241  0.8722 -1.1487 -0.1786
 5543TIP3   OH216592   4.178   3.841   1.748  0.6425  0.2694  0.3739
 5543TIP3    H116593   4.120   3.837   1.672  1.2482  1.9854 -0.2340
 5543TIP3    H216594   4.171   3.931   1.779  2.5626  0.4007  0.5785
 5544TIP3   OH216595   0.667   0.777   1.044  0.3104 -0.0050 -0.8103
 5544TIP3    H116596   0.712   0.703   1.086 -0.7649 -1.1780 -1.6499
 5544TIP3    H216597   0.574   0.763   1.064  0.1695  1.7818 -0.0044
 5545TIP3   OH216598   2.448   5.267   0.874 -0.5287  0.3974 -0.2094
 5545TIP3    H116599   2.491   5.314   0.802 -0.9500  0.6209 -0.3190
 5545TIP3    H216600   2.519   5.218   0.917 -0.1293  0.9325 -0.2526
 5546TIP3   OH216601   1.075   0.482   1.110  0.3294  0.2270  0.0380
 5546TIP3    H116602   1.125   0.404   1.133 -0.9685 -0.2907  1.2114
 5546TIP3    H216603   1.129   0.555   1.141  0.3827 -0.3178  1.2619
 5547TIP3   OH216604   5.383   0.711   1.514  0.2495 -0.7251  0.0950
 5547TIP3    H116605   5.393   0.621   1.483  1.6853 -0.4660 -0.2829
 5547TIP3    H216606   5.357   0.760   1.436  0.6126 -0.6263  0.0333
 5548TIP3   OH216607   2.220   3.342   0.924  0.3331  0.0872 -0.0723
 5548TIP3    H116608   2.208   3.251   0.897  1.0036  0.3101 -1.1964
 5548TIP3    H216609   2.155   3.391   0.874  0.7863  0.3672 -0.3930
 5549TIP3   OH216610   0.247   0.799   1.185  0.1882 -0.5565  0.0464
 5549TIP3    H116611   0.165   0.758   1.213 -0.4344  0.7349  0.1915
 5549TIP3    H216612   0.230   0.893   1.192  2.2195 -0.2426  1.6579
 5550TIP3   OH216613   3.918   1.391   2.933  0.2063  0.1724  0.2403
 5550TIP3    H116614   3.982   1.458   2.911  0.4230  0.0505  0.4893
 5550TIP3    H216615   3.944   1.360   3.020 -2.4582  2.8835  2.2010
 5551TIP3   OH216616   4.049   2.306   4.009 -0.0804 -0.3561  0.7179
 5551TIP3    H116617   4.065   2.390   4.053 -0.2653 -1.0591  2.1801
 5551TIP3    H216618   4.129   2.256   4.022  0.7579  0.1874 -1.7210
 5552TIP3   OH216619   3.277   0.150   2.435  0.1777 -0.6908 -0.1784
 5552TIP3    H116620   3.299   0.176   2.525 -0.4785 -1.2927  0.1673
 5552TIP3    H216621   3.359   0.161   2.386 -0.0524  2.0147 -0.0806
 5553TIP3   OH216622   5.623   0.345   5.274  0.3856 -0.0452  0.0044
 5553TIP3    H116623   5.599   0.280   5.339 -0.1041  0.5935  0.4697
 5553TIP3    H216624   5.717   0.332   5.261  0.0585 -1.7610 -0.9500
 5554TIP3   OH216625   7.155   6.174   0.082  0.1735 -0.6025 -0.0123
 5554TIP3    H116626   7.226   6.227   0.045  0.3688 -1.6569 -1.2135
 5554TIP3    H216627   7.083   6.183   0.019 -0.9585  0.8048  1.4042
 5555TIP3   OH216628   0.412   4.856   2.694 -0.1916  0.3869  0.3643
 5555TIP3    H116629   0.357   4.889   2.622 -0.2515  0.6635  0.5358
 5555TIP3    H216630   0.364   4.879   2.773  1.0325  2.3030  0.6094
 5556TIP3   OH216631   3.342   4.214   2.361  0.0064  0.2650  0.7205
 5556TIP3    H116632   3.369   4.150   2.427  0.5980  0.1522  0.3793
 5556TIP3    H216633   3.424   4.257   2.334 -0.2500  0.4481  0.2148
 5557TIP3   OH216634   0.176   1.962   1.727  0.2185 -0.0347 -0.2106
 5557TIP3    H116635   0.254   1.984   1.676  0.9152 -2.4059 -0.2769
 5557TIP3    H216636   0.209   1.943   1.815 -0.6221  1.2472  0.4160
 5558TIP3   OH216637   0.814   1.202   2.947 -0.2446  0.6021  0.2298
 5558TIP3    H116638   0.796   1.110   2.964 -2.6677  0.8719 -0.4023
 5558TIP3    H216639   0.854   1.234   3.028 -1.3856 -0.5481  1.2978
 5559TIP3   OH216640   3.120   0.824   3.567  0.0548 -0.1775  0.1766
 5559TIP3    H116641   3.167   0.761   3.513 -0.8264 -1.2215  0.5856
 5559TIP3    H216642   3.125   0.788   3.656 -2.0310 -0.6969  0.1479
 5560TIP3   OH216643   6.511   4.563   4.116  0.0721  0.4063 -0.2535
 5560TIP3    H116644   6.482   4.476   4.088  1.7273  0.3489 -2.0291
 5560TIP3    H216645   6.433   4.605   4.151 -0.7134 -1.8725  0.9130
 5561TIP3   OH216646   5.112   2.049   2.758 -0.3241  0.3022  0.2125
 5561TIP3    H116647   5.023   2.015   2.762 -0.7344  1.0454 -1.6902
 5561TIP3    H216648   5.162   1.978   2.716  0.2224 -0.4959  2.1208
 5562TIP3   OH216649   4.990   3.292   3.331  0.6831  0.7351  0.1356
 5562TIP3    H116650   5.020   3.378   3.301  1.7309  0.5463  0.6042
 5562TIP3    H216651   5.054   3.230   3.295 -0.4254  0.0613 -0.7540
 5563TIP3   OH216652   3.349   1.569   4.949  0.0030 -0.2807  0.5233
 5563TIP3    H116653   3.339   1.631   5.021  0.0487  0.9561 -0.4948
 5563TIP3    H216654   3.391   1.493   4.988  1.1451  0.8453  1.5770
 5564TIP3   OH216655   2.103   1.895   5.525  0.5557 -0.1720  0.3323
 5564TIP3    H116656   2.064   1.945   5.596  0.2653 -2.2936  1.7314
 5564TIP3    H216657   2.031   1.883   5.462 -0.4168 -1.8630  1.6915
 5565TIP3   OH216658   0.899   2.060   3.196  0.3263  0.3386 -0.6474
 5565TIP3    H116659   0.816   2.097   3.224  1.3644  1.7666  0.7324
 5565TIP3    H216660   0.937   2.127   3.139  1.0680  0.2809 -0.2420
 5566TIP3   OH216661   4.603   0.778   0.820  0.2283  0.2167 -0.2626
 5566TIP3    H116662   4.599   0.700   0.764  0.3292 -1.0423  1.3724
 5566TIP3    H216663   4.688   0.817   0.800  0.6837 -0.7561 -0.3164
 5567TIP3   OH216664   3.188   0.235   3.720  0.3886 -0.0569 -0.1533
 5567TIP3    H116665   3.256   0.254   3.784 -0.4564  0.8955  0.4951
 5567TIP3    H216666   3.138   0.162   3.758  0.4662 -0.1238 -0.1800
 5568TIP3   OH216667   5.863   3.733   4.931  0.0513  0.0592  0.2005
 5568TIP3    H116668   5.880   3.677   4.855 -1.1710  0.3910 -0.3536
 5568TIP3    H216669   5.836   3.817   4.894 -0.6962  0.1888  0.9814
 5569TIP3   OH216670   4.740   3.436   4.911  0.0245 -0.1687  0.9057
 5569TIP3    H116671   4.729   3.479   4.827 -0.7756  0.1793  1.1773
 5569TIP3    H216672   4.715   3.503   4.975  0.8792 -0.3429  1.4359
 5570TIP3   OH216673   4.429   4.088   1.711 -0.2611 -0.2451  0.4369
 5570TIP3    H116674   4.342   4.105   1.749 -0.2011 -0.8936  0.8882
 5570TIP3    H216675   4.410   4.063   1.621 -0.4283  1.0037  0.1081
 5571TIP3   OH216676   5.618   5.411   3.432  0.4988  0.1403  0.4574
 5571TIP3    H116677   5.635   5.441   3.521 -0.0355  0.7943  0.3475
 5571TIP3    H216678   5.544   5.350   3.441  0.2401  0.4474  0.4252
 5572TIP3   OH216679   1.153   3.885   4.980  0.3510  0.1950  0.1027
 5572TIP3    H116680   1.136   3.979   4.981  0.8779  0.2893  0.1044
 5572TIP3    H216681   1.141   3.858   5.071 -1.4070 -0.0363 -0.1551
 5573TIP3   OH216682   5.216   1.874   1.056  0.2208  0.3275 -0.4194
 5573TIP3    H116683   5.305   1.853   1.085 -0.3654 -1.8457 -0.0325
 5573TIP3    H216684   5.161   1.852   1.132 -0.7134  1.1176 -0.8488
 5574TIP3   OH216685   1.334   1.278   1.673  0.0137  0.0677 -0.3403
 5574TIP3    H116686   1.402   1.316   1.729 -1.1198  1.2744  0.2772
 5574TIP3    H216687   1.254   1.283   1.725 -1.3087  2.2017 -2.3630
 5575TIP3   OH216688   1.314   1.162   2.095  0.3666 -0.0369  0.2380
 5575TIP3    H116689   1.292   1.251   2.067 -0.5771  0.2596  1.7996
 5575TIP3    H216690   1.410   1.159   2.090  0.3366  0.4701 -1.4679
 5576TIP3   OH216691   0.645   4.394   1.806 -0.2976 -0.1854 -0.2424
 5576TIP3    H116692   0.684   4.399   1.718 -0.2081  3.0883 -0.1338
 5576TIP3    H216693   0.720   4.390   1.865 -0.3322 -0.6922 -0.2225
 5577TIP3   OH216694   0.280   4.196   4.304  0.2302 -0.4642 -0.0526
 5577TIP3    H116695   0.291   4.106   4.334  0.4658  0.2035  2.0785
 5577TIP3    H216696   0.293   4.249   4.383 -1.2427  1.3764 -0.9629
 5578TIP3   OH216697   5.796   0.176   1.675  0.5122 -0.3915  0.1683
 5578TIP3    H116698   5.774   0.219   1.592  0.1923  0.3103  0.6014
 5578TIP3    H216699   5.878   0.217   1.701 -0.3294  0.7612  1.1095
 5579TIP3   OH216700   0.931   1.983   5.135  0.2399 -0.7816 -0.2739
 5579TIP3    H116701   0.995   1.939   5.190  2.4536  0.4835 -1.6707
 5579TIP3    H216702   0.948   2.077   5.149 -0.6587 -0.4269 -1.3748
 5580TIP3   OH216703   3.111   3.016   4.413  0.5089  0.3676 -0.3653
 5580TIP3    H116704   3.107   2.994   4.506 -1.9829 -0.5447 -0.6177
 5580TIP3    H216705   3.073   2.940   4.368 -0.6812  1.8120 -1.9224
 5581TIP3   OH216706   4.656   5.274   2.602  0.0989  0.2390  0.3965
 5581TIP3    H116707   4.743   5.234   2.595 -0.6750 -1.8678  1.6974
 5581TIP3    H216708   4.659   5.322   2.684 -0.0055  0.0757  0.4949
 5582TIP3   OH216709   0.651   3.599   4.240  0.0675  0.5941  0.3573
 5582TIP3    H116710   0.719   3.590   4.174  0.8554  1.7513  0.9647
 5582TIP3    H216711   0.657   3.519   4.293  0.9575  0.6815  0.3962
 5583TIP3   OH216712   5.996   6.285   2.502  0.0083 -0.2233  0.1405
 5583TIP3    H116713   6.053   6.305   2.428  0.3429 -0.2873  0.3786
 5583TIP3    H216714   6.012   6.356   2.565 -0.2927 -0.1543  0.1433
 5584TIP3   OH216715   2.956   4.708   4.420 -0.4601 -0.4409  0.6585
 5584TIP3    H116716   2.981   4.651   4.346 -0.5779 -2.2887  1.9632
 5584TIP3    H216717   3.016   4.682   4.490  0.8084  2.4820  0.7940
 5585TIP3   OH216718   0.240   5.493   1.281  0.7394  0.4923  0.3830
 5585TIP3    H116719   0.311   5.520   1.223  1.1977 -0.5065  0.4487
 5585TIP3    H216720   0.161   5.499   1.228  1.2030 -0.8307 -0.5140
 5586TIP3   OH216721   2.947   3.710   0.668 -0.3409 -0.2681  0.2220
 5586TIP3    H116722   2.879   3.731   0.732 -1.7313 -0.6780 -1.0595
 5586TIP3    H216723   2.982   3.795   0.641  0.7871 -0.1079  1.9977
 5587TIP3   OH216724   3.582   3.546   4.788 -0.4388 -0.2071 -0.1504
 5587TIP3    H116725   3.673   3.568   4.808  0.4580 -2.3815 -1.4594
 5587TIP3    H216726   3.574   3.562   4.694 -1.2208 -0.6426 -0.1643
 5588TIP3   OH216727   0.214   4.752   5.292  0.0048 -0.4708 -0.0570
 5588TIP3    H116728   0.276   4.816   5.326  1.2812  0.0628 -3.1201
 5588TIP3    H216729   0.128   4.787   5.317  0.7534  1.3117  0.1986
 5589TIP3   OH216730   0.797   6.666   1.412  0.4007 -0.5453 -0.3004
 5589TIP3    H116731   0.880   6.686   1.454  0.6163 -0.6700 -0.6715
 5589TIP3    H216732   0.750   6.613   1.477 -0.2398  1.2132  0.7692
 5590TIP3   OH216733   3.835   2.760   2.255 -0.3272 -0.4656  0.5181
 5590TIP3    H116734   3.863   2.707   2.180  1.0017  0.7537  0.1163
 5590TIP3    H216735   3.824   2.848   2.218 -1.1786 -0.1618  1.4563
 5591TIP3   OH216736   4.129   5.891   5.281 -0.1658  0.0629  0.7231
 5591TIP3    H116737   4.201   5.829   5.272  0.3271  0.7427 -0.2345
 5591TIP3    H216738   4.171   5.975   5.300 -0.8575  0.0046  2.7194
 5592TIP3   OH216739   4.562   4.470   0.887 -0.0396  0.2724  0.2708
 5592TIP3    H116740   4.592   4.457   0.797  0.0729  0.6673  0.2501
 5592TIP3    H216741   4.560   4.382   0.925 -2.2547 -0.2094 -0.7885
 5593TIP3   OH216742   3.452   3.374   5.346  0.2513  0.3994 -0.1913
 5593TIP3    H116743   3.517   3.439   5.373  1.4695 -0.1119 -1.7144
 5593TIP3    H216744   3.380   3.426   5.311  0.6881  0.9696 -0.2742
 5594TIP3   OH216745   3.333   4.530   4.818 -0.1431  0.1191  0.7169
 5594TIP3    H116746   3.308   4.445   4.780 -2.4064  1.7695 -1.9241
 5594TIP3    H216747   3.382   4.574   4.748  1.4924  0.8475  2.2339
 5595TIP3   OH216748   1.155   6.132   0.357  0.6772  0.5376 -0.3250
 5595TIP3    H116749   1.189   6.081   0.284  0.1128  0.5678 -0.6109
 5595TIP3    H216750   1.210   6.211   0.358  0.1322  0.9500 -1.2812
 5596TIP3   OH216751   4.362   4.490   0.393  0.0238 -0.1416  0.4107
 5596TIP3    H116752   4.359   4.583   0.372 -0.1863 -0.0026  1.0253
 5596TIP3    H216753   4.319   4.447   0.320 -0.6662  0.3189  0.5389
 5597TIP3   OH216754   7.044   1.802   0.222  0.0573  0.1094 -0.0619
 5597TIP3    H116755   6.966   1.791   0.277 -0.5835  1.4887 -0.6484
 5597TIP3    H216756   7.055   1.717   0.180  0.4080 -0.9114  1.9370
 5598TIP3   OH216757   5.805   5.595   0.157  0.2345 -0.2458  0.7998
 5598TIP3    H116758   5.729   5.558   0.203  0.4157 -0.2349  1.1086
 5598TIP3    H216759   5.802   5.688   0.177  0.7401 -0.3561  1.4079
 5599TIP3   OH216760   3.685   4.971   0.754  0.0471  0.6041 -0.7448
 5599TIP3    H116761   3.699   5.029   0.829  0.3551  1.1707 -1.2295
 5599TIP3    H216762   3.604   5.002   0.714  0.0616  0.5226 -0.8386
 5600TIP3   OH216763   2.703   6.003   3.931 -0.3718  0.0387 -0.3693
 5600TIP3    H116764   2.659   6.019   3.847 -0.1478 -1.5084 -0.8003
 5600TIP3    H216765   2.656   5.929   3.968  0.6643 -0.4057  0.0607
 5601TIP3   OH216766   1.102   0.885   1.363 -0.2405  0.0595  0.1195
 5601TIP3    H116767   1.078   0.945   1.434  1.4811  0.2734  0.5733
 5601TIP3    H216768   1.058   0.920   1.286  0.3083  1.6330  0.4775
 5602TIP3   OH216769   1.895   6.201   1.460 -0.0357 -0.3214 -0.4764
 5602TIP3    H116770   1.831   6.237   1.398 -1.2612  0.0331  0.9239
 5602TIP3    H216771   1.973   6.184   1.407 -0.5138  1.3496 -1.8263
 5603TIP3   OH216772   0.192   3.354   3.460  0.2092 -0.4907  0.6087
 5603TIP3    H116773   0.152   3.369   3.546 -0.2635  0.3524  0.2543
 5603TIP3    H216774   0.282   3.384   3.469 -0.3989  1.6164  0.2494
 5604TIP3   OH216775   1.480   6.179   1.821 -0.0808 -0.4524  0.3508
 5604TIP3    H116776   1.509   6.118   1.889 -0.8122  0.2256  1.2938
 5604TIP3    H216777   1.538   6.162   1.747  1.0405 -0.8750  1.3011
 5605TIP3   OH216778   3.890   4.243   5.308  0.2604 -0.4744 -0.0036
 5605TIP3    H116779   3.900   4.208   5.397 -0.5890  0.9700  0.6943
 5605TIP3    H216780   3.948   4.188   5.255 -0.4596 -2.4317  1.1287
 5606TIP3   OH216781   6.178   4.564   1.481  0.4964  0.2912  0.1000
 5606TIP3    H116782   6.202   4.535   1.393  1.0554  1.0518 -0.0085
 5606TIP3    H216783   6.170   4.484   1.531 -0.0610 -0.1718 -0.6996
 5607TIP3   OH216784   5.566   2.952   2.753  0.1006  0.4878 -0.5363
 5607TIP3    H116785   5.495   2.889   2.743 -0.2732  0.6214  1.0760
 5607TIP3    H216786   5.594   2.971   2.663 -1.6015  0.1096 -1.1725
 5608TIP3   OH216787   0.250   1.261   0.736 -0.0791 -0.1769  0.3423
 5608TIP3    H116788   0.299   1.311   0.801 -1.0112  0.5728  0.4877
 5608TIP3    H216789   0.265   1.306   0.653 -0.8286  0.2923  0.4540
 5609TIP3   OH216790   4.919   5.524   3.433 -0.1395  0.3061  0.0049
 5609TIP3    H116791   4.832   5.545   3.400  0.3537  1.7959 -0.4408
 5609TIP3    H216792   4.909   5.439   3.477 -2.0210  0.9211  0.8421
 5610TIP3   OH216793   4.830   2.692   4.029 -0.4421 -0.2139 -0.0658
 5610TIP3    H116794   4.912   2.698   3.979 -0.1946  2.5015  0.5170
 5610TIP3    H216795   4.856   2.653   4.112 -0.6757 -3.8009 -1.4976
 5611TIP3   OH216796   4.864   4.295   0.992 -0.1551 -0.7174  0.4359
 5611TIP3    H116797   4.879   4.283   0.898 -2.9016  2.6528 -0.6271
 5611TIP3    H216798   4.816   4.216   1.018  1.7368 -2.3047 -0.5910
 5612TIP3   OH216799   6.582   2.651   2.384  0.3775 -0.4619 -0.2385
 5612TIP3    H116800   6.621   2.616   2.464  1.2530  1.3930  0.2010
 5612TIP3    H216801   6.494   2.611   2.381  0.2111 -0.3865  1.7890
 5613TIP3   OH216802   0.466   2.650   4.587  0.5133 -0.5846 -0.2380
 5613TIP3    H116803   0.526   2.668   4.514 -0.3920 -1.2239 -1.1719
 5613TIP3    H216804   0.396   2.597   4.548 -1.3197  1.1401  0.5136
 5614TIP3   OH216805   0.205   0.372   0.861  0.6242  0.2601 -0.5392
 5614TIP3    H116806   0.158   0.371   0.945 -0.0619  1.8110 -0.8812
 5614TIP3    H216807   0.295   0.350   0.884  0.5740  1.2415  0.7138
 5615TIP3   OH216808   3.763   0.232   5.737  0.3022 -0.1776  0.1574
 5615TIP3    H116809   3.793   0.143   5.717 -1.1477 -0.4201 -1.1464
 5615TIP3    H216810   3.676   0.237   5.699 -0.4434  1.2020  1.8720
 5616TIP3   OH216811   4.062   6.174   5.107 -0.2837  0.1376 -0.2216
 5616TIP3    H116812   4.038   6.255   5.064  1.0780  1.1584  0.8534
 5616TIP3    H216813   3.982   6.147   5.154 -0.8652  0.6171 -0.9164
 5617TIP3   OH216814   4.483   3.402   3.767  0.2596  0.3943  0.0454
 5617TIP3    H116815   4.574   3.425   3.782  0.0419  0.8839  0.6581
 5617TIP3    H216816   4.475   3.394   3.672  1.0609 -0.1913  0.0246
 5618TIP3   OH216817   3.671   2.883   1.050 -0.0405  0.0398 -0.4211
 5618TIP3    H116818   3.702   2.810   0.996 -0.4032 -0.5780  0.1820
 5618TIP3    H216819   3.751   2.919   1.089  0.0205 -1.0673  0.5376
 5619TIP3   OH216820   1.912   4.804   5.722 -0.0240  0.1636  0.4168
 5619TIP3    H116821   1.906   4.709   5.706  2.3936 -0.2301  1.3036
 5619TIP3    H216822   1.869   4.817   5.806 -0.4947 -0.1222  0.2220
 5620TIP3   OH216823   2.137   2.847   4.816  0.1757  0.5587  0.0495
 5620TIP3    H116824   2.172   2.924   4.860  0.3535  1.3475 -1.4129
 5620TIP3    H216825   2.108   2.880   4.731 -0.6906 -0.8003 -0.2038
 5621TIP3   OH216826   3.320   3.336   4.396 -0.5836 -0.2875 -0.0709
 5621TIP3    H116827   3.365   3.332   4.312 -1.3193 -0.9062 -0.4435
 5621TIP3    H216828   3.381   3.295   4.458  0.3126  0.9259 -0.1280
 5622TIP3   OH216829   6.849   6.296   2.519 -0.5217 -0.3884  0.3401
 5622TIP3    H116830   6.879   6.387   2.525  0.1648 -0.5334 -0.7098
 5622TIP3    H216831   6.881   6.266   2.435 -1.0463 -1.5090  0.5293
 5623TIP3   OH216832   4.080   5.941   3.066 -0.3647 -0.2699 -0.3826
 5623TIP3    H116833   4.151   5.899   3.018 -1.0896 -1.1143 -0.7421
 5623TIP3    H216834   4.113   6.029   3.085  1.7267 -1.3277  1.4852
 5624TIP3   OH216835   6.052   5.403   2.482  0.4415  0.6416 -0.0660
 5624TIP3    H116836   6.080   5.492   2.465 -1.7497  1.3019 -0.6306
 5624TIP3    H216837   5.968   5.413   2.528 -1.4769 -1.0083 -2.9286
 5625TIP3   OH216838   5.511   4.787   3.705 -0.2428  0.0906 -0.1220
 5625TIP3    H116839   5.506   4.860   3.642 -2.1309  0.5744  0.5346
 5625TIP3    H216840   5.522   4.830   3.790 -2.7862 -0.2450  0.4480
 5626TIP3   OH216841   5.512   0.712   5.489 -0.6733  0.1749  0.0953
 5626TIP3    H116842   5.551   0.778   5.431 -2.4020  1.4244  0.2745
 5626TIP3    H216843   5.580   0.695   5.555  0.5591  0.2359 -1.1122
 5627TIP3   OH216844   2.977   3.555   1.899 -0.1491  0.6000 -0.5260
 5627TIP3    H116845   2.953   3.521   1.813  0.5502  1.2304 -0.9807
 5627TIP3    H216846   3.063   3.518   1.916  0.3320  1.5934 -0.7338
 5628TIP3   OH216847   4.128   4.584   5.064 -0.2947  0.2693 -0.3022
 5628TIP3    H116848   4.088   4.663   5.029  0.5578 -0.0066 -2.0302
 5628TIP3    H216849   4.055   4.531   5.094 -0.8508  1.9723  1.6013
 5629TIP3   OH216850   7.141   2.068   1.775 -0.1067  0.0616  0.1472
 5629TIP3    H116851   7.233   2.046   1.767 -0.3396 -0.9026  0.0427
 5629TIP3    H216852   7.099   2.021   1.703 -0.6672  0.6242  0.0919
 5630TIP3   OH216853   1.039   5.406   4.215  0.2367  0.6148  0.2764
 5630TIP3    H116854   1.052   5.451   4.299 -0.3815  0.5912  0.3893
 5630TIP3    H216855   0.988   5.468   4.163 -0.8427 -0.0376  0.5182
 5631TIP3   OH216856   5.264   4.105   3.585  0.4218  0.1728  0.2075
 5631TIP3    H116857   5.342   4.149   3.618  1.1351 -0.9043  0.0040
 5631TIP3    H216858   5.296   4.049   3.514 -0.3940 -0.9183  0.6678
 5632TIP3   OH216859   5.431   6.733   4.505 -0.3605  0.5747  0.0824
 5632TIP3    H116860   5.487   6.686   4.444 -0.1595  2.1466 -1.0102
 5632TIP3    H216861   5.485   6.806   4.535 -1.5536  1.6946 -0.4179
 5633TIP3   OH216862   1.791   3.293   2.141 -0.5780 -0.7525 -0.6233
 5633TIP3    H116863   1.759   3.384   2.138 -0.0178 -0.5170  0.2464
 5633TIP3    H216864   1.819   3.275   2.051 -1.1005 -0.2147 -0.9032
 5634TIP3   OH216865   5.327   2.789   2.017  0.5899  0.1167 -0.4850
 5634TIP3    H116866   5.321   2.705   1.972  1.1422  0.7872 -1.8715
 5634TIP3    H216867   5.326   2.767   2.110  1.6741 -1.4993 -0.8176
 5635TIP3   OH216868   1.299   3.942   5.775 -0.1390 -0.2603  0.3903
 5635TIP3    H116869   1.375   3.904   5.731 -1.5296 -1.4216 -1.1560
 5635TIP3    H216870   1.280   3.882   5.846 -1.6153 -1.9410 -1.3274
 5636TIP3   OH216871   1.196   2.682   2.158 -0.1145  0.3890  0.2752
 5636TIP3    H116872   1.202   2.738   2.080 -0.4728 -0.2133 -0.1889
 5636TIP3    H216873   1.204   2.593   2.125 -2.7983 -0.0549  0.5731
 5637TIP3   OH216874   5.455   5.044   2.151  0.0158  0.0814  0.0402
 5637TIP3    H116875   5.384   5.086   2.104  0.5290  1.8689  0.7843
 5637TIP3    H216876   5.449   4.951   2.126 -1.4531  0.4907 -1.2689
 5638TIP3   OH216877   1.404   5.926   3.116  0.0924 -0.1308 -0.0269
 5638TIP3    H116878   1.339   5.996   3.111  0.5733  0.4216  1.0133
 5638TIP3    H216879   1.442   5.922   3.029 -0.4005  0.4522 -0.2769
 5639TIP3   OH216880   3.987   3.673   2.320 -0.1217 -0.4700 -0.2506
 5639TIP3    H116881   4.024   3.608   2.260 -1.2427 -1.7307  0.3708
 5639TIP3    H216882   3.916   3.713   2.271 -0.2455 -0.6260 -0.2006
 5640TIP3   OH216883   3.879   3.321   4.888 -0.0342  0.2335 -0.5848
 5640TIP3    H116884   3.823   3.386   4.846 -0.6768  0.0250 -0.0595
 5640TIP3    H216885   3.960   3.323   4.837 -0.2526  1.0442 -0.9120
 5641TIP3   OH216886   2.868   0.778   0.537  0.1607 -0.3271  0.7122
 5641TIP3    H116887   2.951   0.817   0.563  0.2442  0.2175 -0.3379
 5641TIP3    H216888   2.803   0.848   0.550  0.0353 -0.4030  0.5022
 5642TIP3   OH216889   2.315   2.980   1.137  0.1272  0.3423 -0.0911
 5642TIP3    H116890   2.258   2.991   1.061 -0.2484  0.2228  0.1691
 5642TIP3    H216891   2.396   2.943   1.102 -0.5168 -0.9546 -0.2597
 5643TIP3   OH216892   0.665   1.566   0.983  1.0797 -0.6059 -0.0909
 5643TIP3    H116893   0.608   1.629   0.939  0.6283 -2.5471 -2.5523
 5643TIP3    H216894   0.749   1.575   0.938  0.7583 -2.2745 -1.1196
 5644TIP3   OH216895   0.106   4.110   5.865  0.2922 -0.1795  0.0342
 5644TIP3    H116896   0.145   4.188   5.826  0.0252  0.5571  1.1833
 5644TIP3    H216897   0.016   4.135   5.884  0.3951 -0.5315  1.0529
 5645TIP3   OH216898   4.543   6.420   1.179 -0.3053  0.8302 -0.2755
 5645TIP3    H116899   4.565   6.467   1.099 -1.9640  0.7230 -0.8228
 5645TIP3    H216900   4.601   6.344   1.179  0.3167  1.2988 -0.9100
 5646TIP3   OH216901   4.096   0.087   0.578 -0.4545  0.2501  0.0247
 5646TIP3    H116902   4.141   0.007   0.551 -0.9853  0.0605 -0.3118
 5646TIP3    H216903   4.114   0.094   0.672  0.5571  0.3649 -0.1584
 5647TIP3   OH216904   6.345   5.174   0.080 -0.1569  0.2785 -0.6626
 5647TIP3    H116905   6.293   5.248   0.110  1.3690  1.4545 -0.7671
 5647TIP3    H216906   6.305   5.098   0.122  1.2243  1.6531  3.7301
 5648TIP3   OH216907   4.598   3.166   2.961 -0.0195 -0.0319  0.2147
 5648TIP3    H116908   4.584   3.213   3.043 -1.5009  1.5538 -0.8803
 5648TIP3    H216909   4.552   3.083   2.973 -2.3780  1.1835  0.1679
 5649TIP3   OH216910   7.181   5.106   0.886  0.3980  0.0526 -0.4485
 5649TIP3    H116911   7.146   5.159   0.958  0.2947  1.7114 -1.6813
 5649TIP3    H216912   7.160   5.016   0.911 -1.1869  0.7091  0.7582
 5650TIP3   OH216913   4.835   2.074   2.421 -0.0100 -0.2912 -0.7389
 5650TIP3    H116914   4.842   1.988   2.462 -0.9076 -0.3612 -0.7153
 5650TIP3    H216915   4.917   2.118   2.442  0.4327 -1.1250 -0.7089
 5651TIP3   OH216916   6.752   3.532   3.208 -0.2093  0.0825  0.0170
 5651TIP3    H116917   6.754   3.474   3.132 -0.6746 -0.5348  0.4637
 5651TIP3    H216918   6.673   3.586   3.195 -0.0411  0.2855 -0.1608
 5652TIP3   OH216919   4.930   2.299   0.084  0.2754 -0.2304 -0.2496
 5652TIP3    H116920   4.999   2.364   0.099  0.1626  0.0881 -1.0868
 5652TIP3    H216921   4.956   2.254   0.005  0.1843 -0.9988  0.1516
 5653TIP3   OH216922   3.188   6.192   5.686 -0.2261  0.2070  0.1928
 5653TIP3    H116923   3.199   6.276   5.642 -1.5099  0.6195  0.6193
 5653TIP3    H216924   3.093   6.183   5.697 -0.0375 -0.7389  1.2300
 5654TIP3   OH216925   4.843   2.382   0.781 -0.7341 -0.3707  0.7969
 5654TIP3    H116926   4.781   2.455   0.784  0.3880  0.6001  1.4168
 5654TIP3    H216927   4.817   2.326   0.854 -1.6925 -0.6801  0.2325
 5655TIP3   OH216928   2.800   0.308   2.631 -0.0335 -0.0198 -0.4330
 5655TIP3    H116929   2.804   0.221   2.591 -1.2950 -0.7247  0.8952
 5655TIP3    H216930   2.767   0.365   2.561 -2.1342 -1.2205 -0.4948
 5656TIP3   OH216931   4.162   1.167   2.613 -0.2422  0.1182  0.0966
 5656TIP3    H116932   4.103   1.211   2.552 -1.1703  0.2645  1.0614
 5656TIP3    H216933   4.215   1.237   2.650 -1.2716  0.3882  1.1452
 5657TIP3   OH216934   1.024   2.737   5.190 -0.1366  0.4360 -0.4746
 5657TIP3    H116935   1.061   2.685   5.119 -0.1786  0.6352 -0.6405
 5657TIP3    H216936   1.091   2.736   5.258  0.1943  0.8391 -0.7913
 5658TIP3   OH216937   7.121   1.356   2.362 -0.2756 -0.0349  0.0025
 5658TIP3    H116938   7.211   1.371   2.333 -0.4051  1.2642  0.2073
 5658TIP3    H216939   7.075   1.327   2.283  0.4820 -1.5188  0.0812
 5659TIP3   OH216940   6.165   1.616   0.320 -0.2604  0.2251 -0.4129
 5659TIP3    H116941   6.183   1.615   0.413  1.2635  2.5977 -0.5898
 5659TIP3    H216942   6.079   1.657   0.312  0.9707  3.1422 -0.0684
 5660TIP3   OH216943   1.682   2.473   2.958  0.2072 -0.4548  0.2451
 5660TIP3    H116944   1.633   2.547   2.994  1.8577  0.5432  0.5088
 5660TIP3    H216945   1.616   2.422   2.911 -1.0701  0.8839  0.5092
 5661TIP3   OH216946   0.704   2.857   2.567  0.3476  0.3931  0.1158
 5661TIP3    H116947   0.642   2.911   2.519 -1.4385 -0.1950  1.6497
 5661TIP3    H216948   0.786   2.864   2.517 -1.0856  0.6558 -2.3490
 5662TIP3   OH216949   0.713   2.883   4.192  0.4279  0.0514  0.8494
 5662TIP3    H116950   0.801   2.847   4.204  0.4982  0.2268  0.8792
 5662TIP3    H216951   0.728   2.969   4.153  0.2253 -0.2651  0.0562
 5663TIP3   OH216952   4.695   1.217   0.330  0.0889  0.5278 -0.2692
 5663TIP3    H116953   4.652   1.137   0.359  0.3872  0.6867  0.6448
 5663TIP3    H216954   4.760   1.187   0.266  0.9204 -0.0953  0.8373
 5664TIP3   OH216955   2.358   0.569   2.238 -0.5475 -0.0164 -0.2816
 5664TIP3    H116956   2.355   0.531   2.150  1.6617  0.3453 -0.5716
 5664TIP3    H216957   2.303   0.648   2.232 -2.8691 -1.5552 -0.4462
 5665TIP3   OH216958   2.617   5.569   1.598  0.5154  0.4855 -0.4879
 5665TIP3    H116959   2.603   5.620   1.519  0.6188  0.9284 -0.2234
 5665TIP3    H216960   2.711   5.578   1.616  0.6325 -0.2055 -0.7149
 5666TIP3   OH216961   1.846   6.724   5.779  0.3046 -0.3710 -0.0775
 5666TIP3    H116962   1.939   6.730   5.757  0.8134  0.1268  2.0212
 5666TIP3    H216963   1.824   6.809   5.816 -0.0155 -1.5533  2.7195
 5667TIP3   OH216964   2.269   6.603   2.558  0.0867 -0.3852  0.3256
 5667TIP3    H116965   2.241   6.531   2.615  2.3214 -1.5189  0.0741
 5667TIP3    H216966   2.332   6.652   2.610 -1.0812  1.2024  0.3298
 5668TIP3   OH216967   5.326   1.769   4.200  0.0868  0.6550 -0.3118
 5668TIP3    H116968   5.364   1.733   4.280 -0.9140  0.1327 -0.0558
 5668TIP3    H216969   5.371   1.723   4.129  1.1656  1.3110 -0.0685
 5669TIP3   OH216970   6.613   1.773   5.647 -0.4156  0.1162 -0.1714
 5669TIP3    H116971   6.611   1.723   5.728 -1.4259 -0.0075 -0.2597
 5669TIP3    H216972   6.565   1.854   5.667  0.9581  0.9385 -0.1083
 5670TIP3   OH216973   5.481   6.463   2.870 -0.1319 -0.6246 -0.1656
 5670TIP3    H116974   5.510   6.379   2.906  0.9095  0.3503  1.4408
 5670TIP3    H216975   5.532   6.473   2.790  2.0007 -0.2621  1.1409
 5671TIP3   OH216976   2.564   1.531   0.962  0.1274 -0.0667  0.0464
 5671TIP3    H116977   2.554   1.607   1.019  1.6157  0.1019  0.1276
 5671TIP3    H216978   2.575   1.457   1.022  0.2464 -0.1046 -0.0210
 5672TIP3   OH216979   3.221   0.642   3.419  0.0053  0.6402 -0.3856
 5672TIP3    H116980   3.245   0.563   3.467  1.3342  1.8629  1.0696
 5672TIP3    H216981   3.216   0.614   3.328  0.8626 -1.0237  0.0272
 5673TIP3   OH216982   6.720   5.250   1.940 -0.0012  0.1672  0.3405
 5673TIP3    H116983   6.629   5.258   1.910  0.4024  2.0659 -0.5410
 5673TIP3    H216984   6.712   5.224   2.032 -1.3729 -1.4722 -0.1843
 5674TIP3   OH216985   5.690   5.127   4.655 -0.3016  0.0596  0.0959
 5674TIP3    H116986   5.711   5.179   4.578 -0.0635  0.9242  0.7183
 5674TIP3    H216987   5.649   5.048   4.621 -1.4422  1.0206 -0.8636
 5675TIP3   OH216988   2.259   1.902   0.388 -0.1965 -0.2392  0.4899
 5675TIP3    H116989   2.205   1.846   0.332  0.3865 -0.4672  0.1496
 5675TIP3    H216990   2.217   1.987   0.384  0.4776  0.0473 -1.2330
 5676TIP3   OH216991   4.305   1.147   3.696 -0.2981 -0.1476 -0.1184
 5676TIP3    H116992   4.378   1.145   3.635  0.3359  2.0324  0.4758
 5676TIP3    H216993   4.227   1.145   3.639  0.0197 -4.2068 -0.7107
 5677TIP3   OH216994   0.282   0.551   0.415  0.5841  0.3964  0.5181
 5677TIP3    H116995   0.199   0.548   0.367  0.4993 -0.4761  0.6885
 5677TIP3    H216996   0.275   0.480   0.478  1.1866  0.7615  1.0050
 5678TIP3   OH216997   2.518   0.054   1.992 -0.2762  0.0214  0.3372
 5678TIP3    H116998   2.568  -0.016   2.034 -0.1262 -0.0081  0.1096
 5678TIP3    H216999   2.436   0.058   2.041 -1.3168 -1.9239 -1.1212
 5679TIP3   OH217000   2.657   1.895   5.556  0.2944  0.1357 -0.7059
 5679TIP3    H117001   2.733   1.913   5.611 -0.9044 -0.8453  1.3764
 5679TIP3    H217002   2.692   1.840   5.486  2.0724  2.3330 -1.6911
 5680TIP3   OH217003   1.147   2.334   2.477 -0.2083  0.7263 -0.5361
 5680TIP3    H117004   1.132   2.249   2.520  0.0847  0.8525 -0.1762
 5680TIP3    H217005   1.076   2.390   2.508  1.6161  1.7084  2.1881
 5681TIP3   OH217006   6.403   5.906   5.243 -0.3480  0.0672  0.4990
 5681TIP3    H117007   6.475   5.895   5.181  1.9133  1.0948  2.7537
 5681TIP3    H217008   6.349   5.828   5.232  1.0604 -0.7097 -1.3589
 5682TIP3   OH217009   3.223   3.646   0.951  0.0507 -0.0126 -0.2049
 5682TIP3    H117010   3.138   3.608   0.930  0.6791 -1.8687  0.3731
 5682TIP3    H217011   3.236   3.626   1.044  1.0239  0.3873 -0.2451
 5683TIP3   OH217012   3.941   2.754   5.347  0.0610 -0.0910  0.4653
 5683TIP3    H117013   4.033   2.729   5.339 -0.1847 -1.5497  1.7539
 5683TIP3    H217014   3.894   2.691   5.292 -0.1661  0.9631 -0.6022
 5684TIP3   OH217015   1.893   5.694   2.189  0.0077 -0.0388 -0.2373
 5684TIP3    H117016   1.971   5.678   2.136 -0.5380 -1.6683 -0.6073
 5684TIP3    H217017   1.865   5.607   2.217 -1.4057  0.5567  0.2802
 5685TIP3   OH217018   3.529   3.630   4.252 -0.7572  0.1429  0.1281
 5685TIP3    H117019   3.505   3.607   4.162 -0.5941  1.0142 -0.1491
 5685TIP3    H217020   3.452   3.609   4.304 -0.3781 -1.6519  0.0100
 5686TIP3   OH217021   0.475   6.534   3.667  0.3038  0.1479  0.3122
 5686TIP3    H117022   0.556   6.525   3.717 -0.2184  0.0358  1.1514
 5686TIP3    H217023   0.413   6.571   3.729 -0.1633  0.6849 -0.4598
 5687TIP3   OH217024   6.093   5.311   4.478 -0.0615  0.3241  0.2442
 5687TIP3    H117025   6.039   5.382   4.442  0.4102  0.5448 -0.0306
 5687TIP3    H217026   6.176   5.352   4.499  0.4729 -0.2839 -0.6017
 5688TIP3   OH217027   4.309   1.204   4.402  0.1833 -0.2885  0.0726
 5688TIP3    H117028   4.289   1.272   4.338 -1.2838 -0.9785 -0.2467
 5688TIP3    H217029   4.403   1.215   4.420  0.5294  0.2635 -1.7874
 5689TIP3   OH217030   3.913   5.049   5.483  0.2091 -0.3427 -0.2323
 5689TIP3    H117031   3.936   4.964   5.444 -2.4627 -1.9926  1.4454
 5689TIP3    H217032   3.991   5.074   5.533  0.9898 -1.9141 -0.5883
 5690TIP3   OH217033   3.801   5.893   1.395 -0.7017 -0.1329  0.2906
 5690TIP3    H117034   3.743   5.949   1.447  1.1276  0.3194  2.0013
 5690TIP3    H217035   3.844   5.837   1.460  0.0222 -1.1494 -1.0197
 5691TIP3   OH217036   0.042   0.993   1.238 -0.5990  0.0652 -0.2292
 5691TIP3    H117037   0.014   1.050   1.310 -1.5178 -1.5175  0.7222
 5691TIP3    H217038  -0.022   1.008   1.169  0.6517  2.0779 -1.0593
 5692TIP3   OH217039   0.463   1.140   4.690  0.4846 -0.5706 -0.3202
 5692TIP3    H117040   0.483   1.087   4.612  1.5709 -0.0165 -0.4337
 5692TIP3    H217041   0.454   1.229   4.656 -1.5025 -0.6798 -0.1533
 5693TIP3   OH217042   2.781   6.204   2.993  0.0766 -0.3335  0.5588
 5693TIP3    H117043   2.727   6.139   3.037  2.6640 -2.3865  0.9581
 5693TIP3    H217044   2.853   6.221   3.053  0.1605  1.9763 -0.1006
 5694TIP3   OH217045   1.837   0.225   2.675  0.1151  0.4415  0.5842
 5694TIP3    H117046   1.861   0.293   2.738  0.4894  0.4177  0.4698
 5694TIP3    H217047   1.898   0.154   2.693 -0.1282  0.2248  0.5508
 5695TIP3   OH217048   0.596   3.175   1.134 -0.2768 -0.4319  0.8620
 5695TIP3    H117049   0.523   3.176   1.196  1.0837 -0.2789  2.5352
 5695TIP3    H217050   0.634   3.088   1.142  0.6984  0.0149  1.2171
 5696TIP3   OH217051   3.156   1.982   3.784 -0.8565  0.3998 -0.5479
 5696TIP3    H117052   3.118   1.919   3.845 -1.3009  0.9609 -0.2439
 5696TIP3    H217053   3.177   1.930   3.706  2.4306 -0.9611  1.0428
 5697TIP3   OH217054   3.979   3.413   4.057  0.4475  0.0744 -0.2094
 5697TIP3    H117055   4.071   3.427   4.034  0.2368 -0.2418 -1.3119
 5697TIP3    H217056   3.946   3.356   3.988 -0.3246 -0.6439  0.7365
 5698TIP3   OH217057   0.607   1.611   3.019 -0.0690 -0.0462 -0.0439
 5698TIP3    H117058   0.683   1.651   2.977 -0.5489 -0.4678 -1.3624
 5698TIP3    H217059   0.642   1.569   3.097  0.9033  0.5183 -0.1573
 5699TIP3   OH217060   0.740   5.806   5.365  0.5832 -0.3108 -0.2778
 5699TIP3    H117061   0.674   5.851   5.419 -0.2393  0.0645 -1.5633
 5699TIP3    H217062   0.821   5.855   5.381  0.4461 -0.4253  0.8841
 5700TIP3   OH217063   3.369   4.312   0.598  0.1087 -0.5516  0.6820
 5700TIP3    H117064   3.380   4.332   0.691  0.1915  0.0228  0.5536
 5700TIP3    H217065   3.309   4.379   0.566  3.6505  2.2615 -0.7030
 5701TIP3   OH217066   0.682   4.049   3.273  0.3354  0.0841  0.1455
 5701TIP3    H117067   0.703   4.102   3.350 -2.4439 -0.4847  1.3888
 5701TIP3    H217068   0.675   3.960   3.307 -1.0344 -0.1577 -0.7197
 5702TIP3   OH217069   4.962   1.207   4.623 -0.0259  0.0963  0.4643
 5702TIP3    H117070   4.988   1.295   4.595 -1.7532  0.5584  0.1835
 5702TIP3    H217071   4.915   1.172   4.547  1.3097 -1.4108  0.2845
 5703TIP3   OH217072   5.361   3.921   5.094 -0.0239  0.1760 -0.3338
 5703TIP3    H117073   5.289   3.865   5.066 -0.4444  0.2154  0.6196
 5703TIP3    H217074   5.353   4.000   5.041 -0.0300 -0.2499 -0.9794
 5704TIP3   OH217075   2.722   1.376   2.293 -0.1067  0.1004 -0.0246
 5704TIP3    H117076   2.660   1.448   2.280  0.5980  1.5191  3.3291
 5704TIP3    H217077   2.724   1.364   2.388  0.8072 -3.5268 -0.3765
 5705TIP3   OH217078   6.892   6.091   0.767 -0.1565 -0.6632  0.3242
 5705TIP3    H117079   6.905   6.055   0.679 -2.5799  0.9697 -0.8003
 5705TIP3    H217080   6.975   6.133   0.788  0.1515 -0.1861 -1.6474
 5706TIP3   OH217081   4.513   6.566   2.582 -0.0998 -0.1188  0.5512
 5706TIP3    H117082   4.469   6.651   2.582  0.0168 -0.0536  0.9717
 5706TIP3    H217083   4.604   6.587   2.602 -0.0539 -0.3337  0.5643
 5707TIP3   OH217084   2.960   4.363   3.359  0.2468 -0.4802  0.2433
 5707TIP3    H117085   2.920   4.422   3.295  1.1289 -1.8207 -1.6547
 5707TIP3    H217086   3.054   4.382   3.353  0.2824  0.0296  1.9022
 5708TIP3   OH217087   2.625   6.667   2.741  0.3329  0.0177  0.0383
 5708TIP3    H117088   2.685   6.714   2.684  1.4572 -1.5942 -0.1852
 5708TIP3    H217089   2.636   6.575   2.717 -3.1459 -0.3219 -0.8832
 5709TIP3   OH217090   1.747   6.263   4.023  0.1312  0.2465 -0.2086
 5709TIP3    H117091   1.694   6.194   4.063 -0.3546  0.4584 -0.4755
 5709TIP3    H217092   1.742   6.246   3.929  2.7189 -1.3192 -0.1569
 5710TIP3   OH217093   0.519   0.509   1.997 -0.1389  0.2881 -0.1031
 5710TIP3    H117094   0.432   0.472   2.006 -0.1290  0.1282 -0.6702
 5710TIP3    H217095   0.578   0.434   1.997  0.1044  0.4432  1.4019
 5711TIP3   OH217096   1.016   3.991   2.410  0.4268  0.0717 -0.0828
 5711TIP3    H117097   1.102   4.032   2.399  0.2896  0.1431 -1.0079
 5711TIP3    H217098   0.979   3.989   2.322 -0.6172  0.2484  0.3343
 5712TIP3   OH217099   6.138   3.000   3.162 -0.1790 -0.5108  0.2636
 5712TIP3    H117100   6.079   3.075   3.157 -0.7481 -0.9588  0.1303
 5712TIP3    H217101   6.080   2.924   3.159  0.3684 -0.9527  0.7082
 5713TIP3   OH217102   6.650   0.996   2.069  0.2798  0.1661  0.6510
 5713TIP3    H117103   6.623   1.046   1.992  0.2819 -1.3849 -0.4294
 5713TIP3    H217104   6.711   0.930   2.034  2.2761  0.9847  2.3829
 5714TIP3   OH217105   0.837   6.057   3.214  0.0698  0.6666  0.7131
 5714TIP3    H117106   0.869   5.967   3.209 -2.2072 -0.1711  0.1671
 5714TIP3    H217107   0.794   6.062   3.299 -0.0956  1.1573  0.6002
 5715TIP3   OH217108   2.055   3.850   1.947  0.5308 -0.2937 -0.8012
 5715TIP3    H117109   2.124   3.891   1.999  1.2426 -2.1897 -0.1372
 5715TIP3    H217110   2.086   3.760   1.934 -2.0397 -1.3662 -0.0374
 5716TIP3   OH217111   3.026   6.023   0.839  0.1370  0.4473 -0.2694
 5716TIP3    H117112   3.019   5.958   0.768 -0.3612  0.6933 -0.4534
 5716TIP3    H217113   2.970   5.988   0.908 -0.7625  1.0627 -0.6729
 5717TIP3   OH217114   1.696   1.759   2.526  0.3679 -0.6796 -0.7927
 5717TIP3    H117115   1.710   1.693   2.458  0.7663 -1.2453 -0.1747
 5717TIP3    H217116   1.728   1.718   2.607  0.6041  0.2565 -0.3908
 5718TIP3   OH217117   1.767   0.346   3.532  0.1045 -0.3100  0.3899
 5718TIP3    H117118   1.814   0.302   3.603  0.6534  0.5761  0.5999
 5718TIP3    H217119   1.770   0.439   3.556 -1.0658 -0.1604 -0.0132
 5719TIP3   OH217120   5.353   3.995   4.529 -0.5438 -0.1101 -0.3515
 5719TIP3    H117121   5.281   4.019   4.471 -0.2152  0.4862 -0.5139
 5719TIP3    H217122   5.334   4.040   4.611 -0.8103 -0.6542 -0.1033
 5720TIP3   OH217123   0.437   0.615   1.283  0.0706  0.2093  0.7438
 5720TIP3    H117124   0.431   0.531   1.238  1.1439  0.4345  0.1478
 5720TIP3    H217125   0.364   0.667   1.247 -1.3034 -0.8093  1.9407
 5721TIP3   OH217126   0.569   2.544   0.483  0.5201  0.7153  0.6820
 5721TIP3    H117127   0.497   2.487   0.456  0.7699  1.0134 -0.7325
 5721TIP3    H217128   0.530   2.603   0.547 -0.3424  0.4726  0.4008
 5722TIP3   OH217129   3.473   3.878   3.037 -0.2128 -0.2785  0.3370
 5722TIP3    H117130   3.557   3.846   3.071  0.9451  3.1948  1.1349
 5722TIP3    H217131   3.408   3.840   3.096  0.9762 -1.3656  1.0138
 5723TIP3   OH217132   0.278   5.349   4.100  0.1224 -0.2808 -0.4006
 5723TIP3    H117133   0.221   5.306   4.036 -1.5756  0.6472  0.4186
 5723TIP3    H217134   0.265   5.443   4.084 -0.0135 -0.0395  1.0132
 5724TIP3   OH217135   5.487   5.818   0.955 -0.3128  0.5599  0.0369
 5724TIP3    H117136   5.543   5.821   0.878  1.7169 -3.0972  1.1437
 5724TIP3    H217137   5.405   5.780   0.924  0.9921 -2.2940 -0.2511
 5725TIP3   OH217138   2.233   4.771   2.727 -0.1480 -0.1418 -0.5706
 5725TIP3    H117139   2.241   4.758   2.822  0.0133  1.1090 -0.4036
 5725TIP3    H217140   2.259   4.687   2.690 -0.0240 -0.5884  0.4871
 5726TIP3   OH217141   2.519   6.385   0.436  0.7040 -0.2254  0.2391
 5726TIP3    H117142   2.472   6.391   0.520 -0.0680 -1.0780 -0.1109
 5726TIP3    H217143   2.472   6.446   0.378  1.0252  0.1096  0.3294
 5727TIP3   OH217144   4.032   5.245   0.998  0.3711 -0.0020 -0.5176
 5727TIP3    H117145   3.954   5.280   0.955  0.4763  1.7442  0.6321
 5727TIP3    H217146   4.095   5.233   0.927 -0.4842 -0.1760 -1.2668
 5728TIP3   OH217147   4.768   5.505   0.343 -0.2915 -0.1499 -0.1139
 5728TIP3    H117148   4.721   5.451   0.280  2.2206 -0.1613 -2.1330
 5728TIP3    H217149   4.793   5.445   0.413 -2.0390 -0.4047  0.3276
 5729TIP3   OH217150   6.467   6.618   0.774  0.1505 -0.1282  0.2825
 5729TIP3    H117151   6.478   6.612   0.869  0.7244 -0.8828  0.1738
 5729TIP3    H217152   6.528   6.688   0.748  1.3363 -1.1259  0.2677
 5730TIP3   OH217153   4.721   1.775   0.526  0.3387  0.4851  0.2002
 5730TIP3    H117154   4.811   1.806   0.521  0.3944  0.1521 -1.3333
 5730TIP3    H217155   4.706   1.732   0.442 -1.3261  0.7334  0.3425
 5731TIP3   OH217156   4.444   4.346   3.724  0.0320 -0.3418 -0.1760
 5731TIP3    H117157   4.478   4.335   3.636  2.5660  0.5302  0.6007
 5731TIP3    H217158   4.506   4.298   3.780 -1.6123 -1.0332  1.1508
 5732TIP3   OH217159   6.869   3.118   5.138  0.2877  0.1146 -0.0957
 5732TIP3    H117160   6.786   3.148   5.102  0.7184  0.8056 -0.5466
 5732TIP3    H217161   6.852   3.105   5.231  0.0487  1.7200  0.1174
 5733TIP3   OH217162   4.443   3.266   3.994 -0.5247 -0.2102  0.2059
 5733TIP3    H117163   4.438   3.300   3.904  0.2194  1.4866  0.7693
 5733TIP3    H217164   4.353   3.245   4.017 -0.9896  1.2257 -0.2559
 5734TIP3   OH217165   2.644   2.376   5.721 -0.3650  0.4101 -0.0257
 5734TIP3    H117166   2.730   2.410   5.698  0.0387 -0.5340  0.0094
 5734TIP3    H217167   2.606   2.443   5.778  1.8277 -0.6457  2.9599
 5735TIP3   OH217168   6.788   2.522   0.901  0.2329 -0.1397  0.1767
 5735TIP3    H117169   6.742   2.503   0.983 -0.5089  1.2437  0.1193
 5735TIP3    H217170   6.758   2.454   0.841  1.5630 -1.7874  1.2769
 5736TIP3   OH217171   5.442   2.350   0.796 -0.1954 -0.1502 -0.6034
 5736TIP3    H117172   5.419   2.384   0.882  1.0017  0.4886 -0.5121
 5736TIP3    H217173   5.445   2.255   0.808  1.9233  0.0116  0.6236
 5737TIP3   OH217174   1.189   0.159   2.464 -0.2402 -0.4943  0.1561
 5737TIP3    H117175   1.113   0.217   2.461  0.0031 -0.0648  1.4575
 5737TIP3    H217176   1.231   0.170   2.379 -0.2557  1.1884  0.3253
 5738TIP3   OH217177   5.236   3.856   5.357  0.4232 -0.4870  0.1295
 5738TIP3    H117178   5.147   3.835   5.331 -1.3129  4.3739  1.1190
 5738TIP3    H217179   5.280   3.883   5.276 -0.4290  1.0756  0.1527
 5739TIP3   OH217180   1.835   3.084   3.989 -0.0665 -0.2355  0.2732
 5739TIP3    H117181   1.911   3.138   3.965 -0.2469 -0.8843 -1.8921
 5739TIP3    H217182   1.867   3.030   4.062  0.7815  1.1906  1.0200
 5740TIP3   OH217183   6.864   3.848   3.719  0.3406  0.0689  0.0711
 5740TIP3    H117184   6.793   3.886   3.769  0.7257 -0.5713  1.1407
 5740TIP3    H217185   6.854   3.884   3.631  1.2515  3.4085  1.1989
 5741TIP3   OH217186   3.632   3.053   3.285  0.3777  0.0343 -0.1897
 5741TIP3    H117187   3.570   3.000   3.236 -2.1354  1.0407  1.7052
 5741TIP3    H217188   3.677   3.106   3.218 -0.3446 -1.1524 -1.6649
 5742TIP3   OH217189   4.029   6.055   5.525  0.2838  0.2306 -0.0414
 5742TIP3    H117190   3.998   6.073   5.614  1.0722 -1.2140  0.5782
 5742TIP3    H217191   4.058   5.963   5.529  1.9848  0.6666 -1.3132
 5743TIP3   OH217192   4.953   3.331   1.472 -0.4359 -0.3018 -0.6806
 5743TIP3    H117193   4.890   3.289   1.414 -0.9601  1.1744 -1.2062
 5743TIP3    H217194   4.909   3.409   1.504  0.9956  0.5696 -0.7762
 5744TIP3   OH217195   3.225   1.329   1.437  0.2863  0.4860  0.2194
 5744TIP3    H117196   3.260   1.406   1.481  1.2893  0.3089 -0.2450
 5744TIP3    H217197   3.295   1.301   1.377 -0.2380 -0.5024  0.0421
 5745TIP3   OH217198   2.291   5.416   2.612 -0.4552  0.1753  0.2471
 5745TIP3    H117199   2.317   5.469   2.688 -0.4319 -0.3664  0.6284
 5745TIP3    H217200   2.282   5.478   2.541 -1.5231  0.8459  0.9472
 5746TIP3   OH217201   7.070   2.469   4.145  0.1521  0.2052 -0.3270
 5746TIP3    H117202   6.987   2.422   4.141 -1.2288  2.2275  1.8876
 5746TIP3    H217203   7.135   2.400   4.162 -0.9797 -1.4284 -2.1112
 5747TIP3   OH217204   1.295   6.034   4.036 -0.3225 -0.1885 -0.4336
 5747TIP3    H117205   1.323   6.024   3.946 -0.0539 -2.5939 -0.1519
 5747TIP3    H217206   1.306   6.127   4.055  0.8051  0.1434 -2.4696
 5748TIP3   OH217207   7.044   0.988   5.265  0.6657  0.0142  0.1601
 5748TIP3    H117208   7.018   1.077   5.240 -0.9823 -0.1398  1.1152
 5748TIP3    H217209   6.985   0.931   5.215 -0.1291 -0.4051  1.4986
 5749TIP3   OH217210   0.690   2.454   1.877 -0.3947 -0.0270 -0.2660
 5749TIP3    H117211   0.646   2.471   1.960  0.6884  0.3601  0.2345
 5749TIP3    H217212   0.662   2.365   1.853 -1.7021  0.3336 -0.1373
 5750TIP3   OH217213   5.545   5.512   1.172 -0.3430  0.1799  0.0441
 5750TIP3    H117214   5.601   5.519   1.095  0.4353  0.5265  0.6127
 5750TIP3    H217215   5.461   5.548   1.145  0.2226  1.2540 -0.3651
 5751TIP3   OH217216   3.669   1.602   3.049  0.3742 -0.0973 -0.6250
 5751TIP3    H117217   3.710   1.619   3.134 -0.3255 -1.1500 -0.0560
 5751TIP3    H217218   3.648   1.509   3.050  2.2811 -0.6528 -2.8193
 5752TIP3   OH217219   6.080   2.532   1.905  0.3692  0.1581 -0.3013
 5752TIP3    H117220   6.076   2.628   1.901  0.8563  0.2086  0.3492
 5752TIP3    H217221   6.139   2.513   1.978 -1.8393 -0.6713  1.3767
 5753TIP3   OH217222   3.814   1.924   1.369 -0.2148  0.1910 -0.2369
 5753TIP3    H117223   3.793   1.976   1.446 -0.7684 -0.6816  0.2112
 5753TIP3    H217224   3.730   1.901   1.331  0.0390  0.0928 -0.7494
 5754TIP3   OH217225   6.297   5.823   4.049  0.4471 -0.2412  0.2189
 5754TIP3    H117226   6.274   5.777   3.968 -1.0750  1.5713 -0.4395
 5754TIP3    H217227   6.286   5.916   4.028  0.9853  0.3220  2.2309
 5755TIP3   OH217228   1.309   6.042   5.056  0.3947 -0.1793 -0.5918
 5755TIP3    H117229   1.288   5.949   5.062  0.3821 -0.1276  0.2952
 5755TIP3    H217230   1.259   6.073   4.981 -0.8374 -0.5631  0.0454
 5756TIP3   OH217231   6.043   3.249   0.109  0.1669  0.5601  0.4073
 5756TIP3    H117232   6.089   3.284   0.185  2.3226  0.2868 -0.6835
 5756TIP3    H217233   6.112   3.227   0.047 -1.4068 -0.9314 -0.9366
 5757TIP3   OH217234   3.757   5.822   4.918 -0.1823  0.6416  0.1293
 5757TIP3    H117235   3.805   5.754   4.870  0.3018  0.9397  0.1899
 5757TIP3    H217236   3.791   5.818   5.007  0.7704  1.8054 -0.1551
 5758TIP3   OH217237   3.784   4.627   5.628  0.0145 -0.1572  0.3815
 5758TIP3    H117238   3.755   4.700   5.573  1.1739 -0.9696 -1.4193
 5758TIP3    H217239   3.868   4.601   5.590 -0.2228 -2.2234  1.1562
 5759TIP3   OH217240   5.922   1.053   5.482 -0.0567  0.0046  0.0076
 5759TIP3    H117241   6.001   1.002   5.499 -0.4838 -0.0435  2.0159
 5759TIP3    H217242   5.858   1.020   5.545 -1.9899 -0.5290 -2.0950
 5760TIP3   OH217243   4.241   4.059   5.694  0.0774  0.0563  0.1450
 5760TIP3    H117244   4.225   3.977   5.646  0.6356 -0.3411  0.6208
 5760TIP3    H217245   4.337   4.067   5.695  0.1137 -0.2616  1.6888
 5761TIP3   OH217246   5.252   5.482   4.115  0.4349  0.1974  0.0474
 5761TIP3    H117247   5.162   5.471   4.145  0.5517  0.2378  0.4084
 5761TIP3    H217248   5.289   5.549   4.172  0.3600  0.9970 -0.8136
 5762TIP3   OH217249   5.440   5.426   3.035 -0.0661 -0.1473 -0.0964
 5762TIP3    H117250   5.465   5.496   3.095 -3.0890  0.5044  0.5964
 5762TIP3    H217251   5.438   5.468   2.949  1.8026 -0.4244 -0.3078
 5763TIP3   OH217252   3.141   4.598   3.331  0.3065 -0.5265  0.2242
 5763TIP3    H117253   3.209   4.603   3.398  0.1381 -2.8940  0.6888
 5763TIP3    H217254   3.106   4.687   3.324  0.9817 -0.0136  2.6154
 5764TIP3   OH217255   3.443   4.258   4.315 -0.5274 -0.3085 -0.5392
 5764TIP3    H117256   3.355   4.233   4.290 -0.8269  0.6626 -0.5062
 5764TIP3    H217257   3.486   4.176   4.339 -0.9208 -0.9864 -2.0467
 5765TIP3   OH217258   0.925   1.463   3.476  0.0533  0.1649  0.3674
 5765TIP3    H117259   0.917   1.453   3.571  0.4168  0.4767  0.4367
 5765TIP3    H217260   0.911   1.556   3.461 -1.6696 -0.1414 -0.0767
 5766TIP3   OH217261   1.555   4.840   2.186  0.2444 -0.5273 -0.0889
 5766TIP3    H117262   1.552   4.756   2.140 -1.4165 -0.5911  0.0860
 5766TIP3    H217263   1.552   4.905   2.116  2.2780 -0.5520 -0.2732
 5767TIP3   OH217264   0.463   0.735   2.154  0.0421 -0.3384 -0.0220
 5767TIP3    H117265   0.416   0.687   2.222  0.9064  0.7924  1.4276
 5767TIP3    H217266   0.485   0.668   2.089  0.7223 -1.8295  1.6526
 5768TIP3   OH217267   0.284   6.257   0.769 -0.3653 -0.5867 -0.0903
 5768TIP3    H117268   0.369   6.213   0.767 -0.0945 -0.1068  0.5857
 5768TIP3    H217269   0.265   6.278   0.678  0.1832 -0.8091 -0.2577
 5769TIP3   OH217270   6.769   3.582   0.083 -0.1263  0.4190  0.0610
 5769TIP3    H117271   6.675   3.571   0.098 -0.0148 -0.6996  0.0519
 5769TIP3    H217272   6.775   3.632   0.001 -0.7354 -1.1005 -0.9597
 5770TIP3   OH217273   6.949   5.848   0.899 -0.8853 -0.5348 -0.3052
 5770TIP3    H117274   7.025   5.836   0.841 -0.3805 -0.3471  0.2976
 5770TIP3    H217275   6.914   5.934   0.874 -1.5750 -1.0979 -1.3307
 5771TIP3   OH217276   4.290   5.159   4.763  0.1172 -0.7942 -0.0788
 5771TIP3    H117277   4.269   5.177   4.672  0.6947 -1.6538 -0.3927
 5771TIP3    H217278   4.384   5.144   4.764 -0.0945 -2.1805  0.4137
 5772TIP3   OH217279   6.777   1.197   3.173 -0.5470  0.4392 -0.3780
 5772TIP3    H117280   6.747   1.166   3.258 -1.6786  0.6096 -0.7026
 5772TIP3    H217281   6.749   1.288   3.169  0.5361  0.7867 -0.4678
 5773TIP3   OH217282   2.103   3.290   0.503 -0.0848 -0.5798 -0.4990
 5773TIP3    H117283   2.087   3.233   0.578 -0.4564  1.0902  0.7497
 5773TIP3    H217284   2.198   3.306   0.505 -0.0181 -0.9477 -0.6974
 5774TIP3   OH217285   0.422   6.688   0.195 -0.1618  0.2041 -0.3470
 5774TIP3    H117286   0.509   6.685   0.236 -1.1209 -1.5711  1.7101
 5774TIP3    H217287   0.414   6.604   0.150 -0.0701  1.1929 -2.3223
 5775TIP3   OH217288   4.806   3.416   4.448 -0.7504 -0.1233  0.2496
 5775TIP3    H117289   4.816   3.401   4.354  1.6251 -0.7222  0.5227
 5775TIP3    H217290   4.757   3.341   4.479  0.4196 -1.1109 -0.2079
 5776TIP3   OH217291   0.583   1.875   3.400 -0.1648  0.3220  0.0773
 5776TIP3    H117292   0.545   1.913   3.479 -1.5084  0.6353 -0.6994
 5776TIP3    H217293   0.595   1.949   3.341  0.8803  0.0978 -0.0199
 5777TIP3   OH217294   3.014  -0.014   4.210 -0.5014 -0.1664  0.1148
 5777TIP3    H117295   3.048   0.069   4.177 -0.5249  0.3695  1.3805
 5777TIP3    H217296   2.950  -0.041   4.145 -0.1710  0.5758 -0.5391
 5778TIP3   OH217297   3.185   1.041   4.283 -0.2767  0.4660 -0.5749
 5778TIP3    H117298   3.177   0.964   4.227 -1.8255 -0.0131  0.2644
 5778TIP3    H217299   3.138   1.110   4.235 -2.1985 -0.1151  0.3631
 5779TIP3   OH217300   0.525   5.643   5.226 -0.4784 -0.2353  0.1007
 5779TIP3    H117301   0.567   5.729   5.227 -0.6751 -0.0772 -1.5699
 5779TIP3    H217302   0.431   5.663   5.222 -0.6715 -0.5741  2.0107
 5780TIP3   OH217303   2.499   1.265   0.451  0.2549 -0.2952 -0.3952
 5780TIP3    H117304   2.530   1.349   0.487 -0.5276 -0.8191  1.6083
 5780TIP3    H217305   2.536   1.263   0.362  0.9533  1.7997 -0.2235
 5781TIP3   OH217306   3.847   3.737   1.326 -0.0014  0.4505  0.3247
 5781TIP3    H117307   3.872   3.652   1.291  0.0882  0.1625  1.0761
 5781TIP3    H217308   3.772   3.719   1.382  0.4325  0.7603  1.0198
 5782TIP3   OH217309   6.870   0.868   5.102  0.2984  0.3240 -0.4089
 5782TIP3    H117310   6.784   0.908   5.112  1.5227  2.6463  2.0221
 5782TIP3    H217311   6.891   0.880   5.009 -2.7156 -2.1377 -1.5722
 5783TIP3   OH217312   4.912   6.801   1.295  0.4373  0.3445 -0.3668
 5783TIP3    H117313   4.859   6.843   1.227 -1.0582  1.0850  1.1747
 5783TIP3    H217314   4.864   6.721   1.316 -1.2421  1.8927  2.3129
 5784TIP3   OH217315   4.536   1.474   1.417 -0.0670 -0.3100  0.2732
 5784TIP3    H117316   4.504   1.499   1.504 -0.6316  0.8581 -0.2463
 5784TIP3    H217317   4.458   1.473   1.362  0.2733 -1.1374 -0.2092
 5785TIP3   OH217318   4.969   1.924   3.099  0.1376  0.4610  0.4501
 5785TIP3    H117319   5.010   1.971   3.027  1.4868 -1.7331 -0.2957
 5785TIP3    H217320   4.875   1.925   3.078  0.4560  0.2948 -1.0769
 5786TIP3   OH217321   6.964   2.268   0.433 -0.4370  0.5211  0.8002
 5786TIP3    H117322   6.905   2.201   0.396 -1.1849  1.5780  0.0132
 5786TIP3    H217323   7.028   2.218   0.483  0.7922 -1.0605 -2.0749
 5787TIP3   OH217324   0.304   2.303   4.637  0.4637  0.9793  0.1908
 5787TIP3    H117325   0.328   2.217   4.601 -0.4531  1.1555 -0.9060
 5787TIP3    H217326   0.386   2.353   4.636  0.6923  0.6208 -0.6859
 5788TIP3   OH217327   5.263   5.737   0.114  0.5138  0.0985  0.4207
 5788TIP3    H117328   5.250   5.798   0.187 -0.3931  0.6638 -0.1915
 5788TIP3    H217329   5.180   5.737   0.068  0.9535 -0.5505 -0.3971
 5789TIP3   OH217330   3.443   5.944   1.118  0.0254  0.4512  0.3976
 5789TIP3    H117331   3.510   5.885   1.151  0.8874  1.2673  0.1616
 5789TIP3    H217332   3.397   5.892   1.051  2.0324  0.6028 -1.2255
 5790TIP3   OH217333   6.139   4.943   2.933 -0.0450 -0.5614 -0.5285
 5790TIP3    H117334   6.163   5.023   2.885  0.6579  1.5473  2.9486
 5790TIP3    H217335   6.219   4.917   2.979 -0.6690 -2.4264 -0.4115
 5791TIP3   OH217336   4.730   1.477   5.415 -0.7386 -0.0039  0.7222
 5791TIP3    H117337   4.705   1.398   5.368  1.8823 -1.7684  2.1004
 5791TIP3    H217338   4.713   1.458   5.507  0.3588  0.8449  1.1226
 5792TIP3   OH217339   5.042   2.689   3.040  0.1193  0.2284  0.6496
 5792TIP3    H117340   5.016   2.632   3.112  0.1730  0.5138  0.8957
 5792TIP3    H217341   4.972   2.680   2.976 -0.6409  1.0270  1.3331
 5793TIP3   OH217342   4.378   1.165   0.296  0.1132 -0.3810  0.2013
 5793TIP3    H117343   4.396   1.146   0.388  0.4863 -0.5258  0.0977
 5793TIP3    H217344   4.325   1.092   0.265  0.6347 -0.7190  0.0953
 5794TIP3   OH217345   2.588   0.264   4.542  0.0434 -0.3706 -0.3851
 5794TIP3    H117346   2.665   0.231   4.588  1.4347  0.5919 -1.8862
 5794TIP3    H217347   2.620   0.286   4.455 -1.6522  1.3003 -0.6569
 5795TIP3   OH217348   2.569   1.760   2.542  0.5331 -0.4173  0.0661
 5795TIP3    H117349   2.555   1.819   2.616 -1.5391 -0.6085 -0.0985
 5795TIP3    H217350   2.482   1.724   2.524  1.0947 -0.8573 -2.0589
 5796TIP3   OH217351   4.879   1.822   2.484 -0.1408 -0.2611  0.4210
 5796TIP3    H117352   4.913   1.844   2.570  1.4462  0.5473 -0.3798
 5796TIP3    H217353   4.925   1.742   2.459 -0.0286 -0.0775  0.0187
 5797TIP3   OH217354   0.106   4.329   0.154 -0.6655  0.1546 -0.2467
 5797TIP3    H117355   0.094   4.288   0.069 -0.7334  1.7813 -1.0646
 5797TIP3    H217356   0.017   4.346   0.185 -0.6954 -1.7265  0.8629
 5798TIP3   OH217357   7.059   4.129   5.833 -0.0042  0.2983 -0.6933
 5798TIP3    H117358   7.006   4.091   5.902 -0.5963  0.9848 -0.7490
 5798TIP3    H217359   7.014   4.105   5.752 -0.9948  1.9496 -0.6850
 5799TIP3   OH217360   6.284   5.194   5.126 -0.4185 -0.2230  0.2141
 5799TIP3    H117361   6.319   5.147   5.050  0.0921 -1.2192  1.0457
 5799TIP3    H217362   6.271   5.126   5.192 -0.2049  0.7254  1.2514
 5800TIP3   OH217363   1.098   6.412   1.939 -0.2481 -0.0628 -0.2337
 5800TIP3    H117364   1.094   6.318   1.957 -1.8063  0.1571  0.7904
 5800TIP3    H217365   1.148   6.448   2.013 -1.6696  0.1616  0.6507
 5801TIP3   OH217366   6.737   6.232   0.233  0.3851  0.6639 -0.2688
 5801TIP3    H117367   6.818   6.282   0.241  1.8003 -1.3851 -0.9682
 5801TIP3    H217368   6.762   6.152   0.186 -1.6743 -0.8545  1.0079
 5802TIP3   OH217369   1.502   3.499   1.884  0.3935 -0.0442  0.4356
 5802TIP3    H117370   1.502   3.404   1.873  0.8901 -0.0642  0.5743
 5802TIP3    H217371   1.528   3.533   1.799 -0.6031  0.0038  0.1454
 5803TIP3   OH217372   6.378   0.593   1.237 -0.3930  0.2461  0.9379
 5803TIP3    H117373   6.413   0.580   1.325 -0.9410 -2.0085  0.8936
 5803TIP3    H217374   6.380   0.506   1.198  1.2841  1.4212 -1.8766
 5804TIP3   OH217375   4.788   5.404   0.072  0.1317  0.5807 -0.5591
 5804TIP3    H117376   4.810   5.361  -0.011  2.1224 -0.0297  0.2336
 5804TIP3    H217377   4.771   5.333   0.133  3.6738  0.7547  0.8312
 5805TIP3   OH217378   4.868   2.055   2.147  0.4227  0.4835 -0.0781
 5805TIP3    H117379   4.810   2.082   2.218 -0.5449  1.1448 -1.0834
 5805TIP3    H217380   4.935   2.124   2.144 -0.0418  0.9273 -0.3764
 5806TIP3   OH217381   4.792   3.660   0.287  0.2559  0.1919  0.7279
 5806TIP3    H117382   4.712   3.608   0.300  1.6722 -2.9599 -1.7830
 5806TIP3    H217383   4.761   3.744   0.254 -2.1046 -1.0168 -0.4045
 5807TIP3   OH217384   3.148   5.021   4.433 -0.2801 -0.1233 -0.2397
 5807TIP3    H117385   3.111   4.978   4.355  1.0011  1.4226 -1.7689
 5807TIP3    H217386   3.084   5.089   4.455 -0.8255 -0.8024  0.3122
 5808TIP3   OH217387   6.887   2.756   2.356 -0.3984  0.0881  0.1167
 5808TIP3    H117388   6.797   2.731   2.375 -0.4611  1.4728  1.9224
 5808TIP3    H217389   6.937   2.675   2.362 -1.4765 -0.6742 -0.8252
 5809TIP3   OH217390   3.809   5.055  -0.020  0.4762 -0.2943  0.4763
 5809TIP3    H117391   3.865   5.062   0.057  0.2369 -0.1078  0.6370
 5809TIP3    H217392   3.766   4.970  -0.011  0.2855 -0.1784  0.6616
 5810TIP3   OH217393   4.151   0.689   0.510  0.0455 -0.2274 -0.6555
 5810TIP3    H117394   4.087   0.745   0.466 -1.4844 -0.5016  1.0843
 5810TIP3    H217395   4.103   0.651   0.583  1.8584 -1.5315 -0.0699
 5811TIP3   OH217396   2.609   2.686   0.776  0.0627 -0.1638 -0.2295
 5811TIP3    H117397   2.639   2.613   0.831  0.8186 -0.3338 -0.8474
 5811TIP3    H217398   2.657   2.675   0.694 -0.0946  0.8246 -0.4640
 5812TIP3   OH217399   2.084   3.660   4.736  0.1727  0.0564  0.2618
 5812TIP3    H117400   2.130   3.743   4.725  1.7569 -0.9686 -1.4489
 5812TIP3    H217401   2.017   3.660   4.669  1.5696 -0.8782 -1.2073
 5813TIP3   OH217402   1.950   6.534   5.374  0.2435 -0.1345 -0.1583
 5813TIP3    H117403   1.869   6.567   5.415  1.6065  1.0056  1.7879
 5813TIP3    H217404   1.964   6.448   5.415  0.1534 -0.2224 -0.3110
 5814TIP3   OH217405   6.925   4.656   2.787  0.1102  0.7973 -1.0614
 5814TIP3    H117406   6.981   4.616   2.852  1.6038  0.1162 -2.6916
 5814TIP3    H217407   6.893   4.737   2.828  2.3952  1.2799 -0.1120
 5815TIP3   OH217408   2.643   1.616   5.672 -0.4822  0.5375 -0.2916
 5815TIP3    H117409   2.609   1.616   5.583 -0.6041  0.0333 -0.2462
 5815TIP3    H217410   2.566   1.628   5.728 -0.4226  0.7167 -0.2456
 5816TIP3   OH217411   3.081   5.230   0.845 -0.0816  0.6501 -0.2478
 5816TIP3    H117412   3.163   5.273   0.872 -0.0465  0.3856  0.0782
 5816TIP3    H217413   3.076   5.153   0.901 -0.5614  0.6725 -0.2607
 5817TIP3   OH217414   1.750   2.090   4.669 -0.4188 -0.5736  0.0644
 5817TIP3    H117415   1.804   2.107   4.746 -2.5711 -0.3068  1.6113
 5817TIP3    H217416   1.681   2.156   4.673 -1.8919 -1.9814 -0.7836
 5818TIP3   OH217417   1.176   0.281   3.250  0.2084 -0.5277 -0.3294
 5818TIP3    H117418   1.207   0.261   3.162  0.0244 -0.9654 -0.2965
 5818TIP3    H217419   1.220   0.217   3.306  0.8818  0.2097 -0.0069
 5819TIP3   OH217420   1.812   1.097   4.304 -0.0569 -0.0146  0.2939
 5819TIP3    H117421   1.803   1.065   4.215  2.0961  1.6964 -0.6655
 5819TIP3    H217422   1.752   1.172   4.309 -1.1785 -0.9270  0.7649
 5820TIP3   OH217423   0.352   2.244   4.087  0.0225 -0.1826 -0.0490
 5820TIP3    H117424   0.350   2.269   4.179 -2.5666 -0.0852 -0.0566
 5820TIP3    H217425   0.376   2.324   4.040  1.4594 -0.2629  0.5190
 5821TIP3   OH217426   6.926   0.139   5.672  0.0265  0.4417 -0.3080
 5821TIP3    H117427   6.980   0.206   5.631 -1.0506  1.0094 -0.8621
 5821TIP3    H217428   6.924   0.068   5.608  0.7565  0.0878  0.0588
 5822TIP3   OH217429   3.026   6.143   2.381  0.1561  0.7753  0.0962
 5822TIP3    H117430   2.975   6.105   2.452  1.9626  0.6180  1.3881
 5822TIP3    H217431   3.090   6.075   2.359  0.1715  1.1569 -1.0956
 5823TIP3   OH217432   5.055   1.750   4.853 -0.2019  0.3288  0.1464
 5823TIP3    H117433   5.148   1.732   4.840 -0.0568  1.0636  0.1010
 5823TIP3    H217434   5.050   1.793   4.938 -0.7665 -1.5771  1.1263
 5824TIP3   OH217435   7.212   6.320   2.303 -0.0665 -0.5893 -0.1330
 5824TIP3    H117436   7.273   6.339   2.232 -1.5345 -1.2259 -1.6591
 5824TIP3    H217437   7.126   6.321   2.261 -1.0371 -0.6579  1.7277
 5825TIP3   OH217438   5.939   2.592   4.443  0.5719  0.1798 -0.9153
 5825TIP3    H117439   5.963   2.652   4.513  1.7115  0.2173 -1.3220
 5825TIP3    H217440   5.997   2.517   4.455 -0.8974 -0.9407 -0.3395
 5826TIP3   OH217441   3.750   6.069   4.810 -0.0362  0.3917 -0.0572
 5826TIP3    H117442   3.776   5.982   4.842  0.4555  0.9017  0.9522
 5826TIP3    H217443   3.818   6.093   4.748 -1.1554 -0.7368 -1.8061
 5827TIP3   OH217444   5.303   4.053   1.231  0.3782 -0.0134 -0.6131
 5827TIP3    H117445   5.398   4.065   1.223  0.3438  3.0262  1.7771
 5827TIP3    H217446   5.283   4.081   1.320 -2.7193 -1.2862 -0.8009
 5828TIP3   OH217447   1.938   5.292   4.601  0.1405  0.2743 -0.7687
 5828TIP3    H117448   1.864   5.352   4.602  1.6930  2.2938  0.5581
 5828TIP3    H217449   1.987   5.312   4.681  0.5008 -3.1603  0.0618
 5829TIP3   OH217450   4.376   2.850   1.441 -0.6104 -0.0711 -0.1795
 5829TIP3    H117451   4.302   2.792   1.459 -0.5584  0.0596  0.4579
 5829TIP3    H217452   4.444   2.822   1.503 -0.8571  1.1962  0.6918
 5830TIP3   OH217453   3.219   6.290   0.929 -0.3201 -0.2516  0.0093
 5830TIP3    H117454   3.189   6.326   0.845  0.5902  1.0518  0.2073
 5830TIP3    H217455   3.196   6.198   0.925 -2.3440  0.2265 -0.7342
 5831TIP3   OH217456   2.311   2.592   0.552 -0.7406  0.3343 -0.2153
 5831TIP3    H117457   2.353   2.507   0.539  1.4180  1.1287  0.9253
 5831TIP3    H217458   2.298   2.626   0.464 -1.1343 -0.9180 -0.6653
 5832TIP3   OH217459   2.787   4.545   1.873  0.4545 -0.2499  0.1227
 5832TIP3    H117460   2.844   4.619   1.853 -1.1761  0.8390 -0.6986
 5832TIP3    H217461   2.846   4.469   1.875  1.9152  0.8165 -0.7214
 5833TIP3   OH217462   5.786   4.293   0.745 -0.1569 -0.0827  0.3776
 5833TIP3    H117463   5.780   4.375   0.793 -0.0442 -0.9859  2.0150
 5833TIP3    H217464   5.783   4.319   0.653 -1.2429  1.6622  0.8424
 5834TIP3   OH217465   4.423   6.595   5.276 -0.0725 -0.1809  0.2878
 5834TIP3    H117466   4.423   6.625   5.185 -0.4891  1.1457  0.7111
 5834TIP3    H217467   4.379   6.664   5.325 -0.5081 -1.2108  1.4052
 5835TIP3   OH217468   3.599   5.941   0.540 -0.4752 -0.1748 -0.5608
 5835TIP3    H117469   3.692   5.918   0.540 -0.5030 -0.2940 -0.3273
 5835TIP3    H217470   3.590   6.006   0.610 -0.4949  0.1465 -0.8575
 5836TIP3   OH217471   1.247   2.836   0.614  0.3490  0.4066  0.2805
 5836TIP3    H117472   1.204   2.776   0.675 -0.6492 -0.7914 -1.5195
 5836TIP3    H217473   1.240   2.922   0.656 -1.2219 -0.2233  1.3779
 5837TIP3   OH217474   4.191   6.383   0.706  0.0394 -0.0251 -0.3005
 5837TIP3    H117475   4.194   6.397   0.801 -2.0213  2.4515 -0.4644
 5837TIP3    H217476   4.160   6.293   0.696 -2.6475  0.5578  1.5279
 5838TIP3   OH217477   7.164   6.160   0.752 -0.2346  0.5211 -0.2346
 5838TIP3    H117478   7.194   6.204   0.832 -5.2534  0.6526  1.9779
 5838TIP3    H217479   7.135   6.231   0.695  0.6774  0.3008 -1.0047
 5839TIP3   OH217480   4.566   5.947   0.237  0.3819  0.7073  0.2743
 5839TIP3    H117481   4.476   5.956   0.268 -0.4882 -1.5786 -1.2879
 5839TIP3    H217482   4.586   6.031   0.196 -0.9004  1.3619  0.9344
 5840TIP3   OH217483   4.472   0.944   1.360 -0.3487 -0.6515  0.9113
 5840TIP3    H117484   4.429   1.020   1.320 -1.0198 -1.1383  0.6942
 5840TIP3    H217485   4.489   0.970   1.450  1.4024  0.5564  0.2703
 5841TIP3   OH217486   5.319   2.090   3.461 -0.6093  0.2755 -0.3109
 5841TIP3    H117487   5.289   1.999   3.455 -1.0986  0.4724 -0.8479
 5841TIP3    H217488   5.383   2.099   3.390  0.0235  0.1378  0.2244
 5842TIP3   OH217489   1.085   6.160   4.960 -0.3559  0.1193 -0.1675
 5842TIP3    H117490   1.028   6.084   4.953  0.9747 -0.8179 -1.6751
 5842TIP3    H217491   1.094   6.191   4.870  1.1486  0.4733  0.0751
 5843TIP3   OH217492   0.855   5.288   5.242 -0.4918 -0.3311  0.2708
 5843TIP3    H117493   0.777   5.324   5.200 -0.3998 -2.2693 -1.7865
 5843TIP3    H217494   0.822   5.239   5.317 -1.1236 -0.1775  0.1005
 5844TIP3   OH217495   5.996   0.797   0.674  0.3894  0.8654 -0.1439
 5844TIP3    H117496   6.004   0.805   0.579  3.1674 -0.1284 -0.0765
 5844TIP3    H217497   5.967   0.884   0.703  2.1813  2.0528 -1.6875
 5845TIP3   OH217498   4.356   2.863   3.141  0.4725 -0.7139 -0.3996
 5845TIP3    H117499   4.278   2.895   3.095  0.6479  0.3985  0.0515
 5845TIP3    H217500   4.322   2.798   3.203 -0.5615  1.7753  1.8586
 5846TIP3   OH217501   3.807   2.284   2.666 -0.2189  0.0132 -0.0832
 5846TIP3    H117502   3.827   2.361   2.613  1.7069  0.2289  0.8782
 5846TIP3    H217503   3.799   2.317   2.755 -0.1252 -0.7993  0.2334
 5847TIP3   OH217504   2.018   4.872   0.469  0.0047  0.2026  0.3912
 5847TIP3    H117505   2.058   4.850   0.553  0.0873  1.2388  0.6421
 5847TIP3    H217506   2.077   4.836   0.404  1.0343  1.1813  0.7623
 5848TIP3   OH217507   6.183   1.591   4.893 -0.4009 -0.2680  0.5242
 5848TIP3    H117508   6.229   1.529   4.948  2.4056  0.4117 -0.8676
 5848TIP3    H217509   6.233   1.672   4.900 -0.7894  0.2646 -1.7920
 5849TIP3   OH217510   3.185   2.671   5.029 -1.0658 -0.2206  0.1690
 5849TIP3    H117511   3.226   2.689   5.114 -0.9633 -0.1099  0.0972
 5849TIP3    H217512   3.091   2.671   5.046 -1.0318 -0.6835  0.3774
 5850TIP3   OH217513   6.322   1.132   4.467  0.0493 -0.1489 -0.4385
 5850TIP3    H117514   6.310   1.226   4.470 -2.6416 -0.3929  2.7987
 5850TIP3    H217515   6.416   1.119   4.458  0.4707  2.8071 -0.9909
 5851TIP3   OH217516   2.792   3.798   2.717 -0.3692 -0.1104 -0.1793
 5851TIP3    H117517   2.764   3.880   2.677 -0.1700 -0.2391 -0.5853
 5851TIP3    H217518   2.883   3.813   2.742 -0.5194  0.0016  0.3191
 5852TIP3   OH217519   6.718   3.026   4.115 -0.0252  0.2202  0.3980
 5852TIP3    H117520   6.768   3.105   4.096 -2.7322  2.4373  1.8030
 5852TIP3    H217521   6.705   3.028   4.210 -1.1886 -1.2541  0.3073
 5853TIP3   OH217522   0.711   6.463   1.196  0.6244 -0.0321  0.0515
 5853TIP3    H117523   0.704   6.415   1.279  1.3493  0.6978  0.5597
 5853TIP3    H217524   0.745   6.549   1.222  0.1144  0.4721 -0.9239
 5854TIP3   OH217525   7.188   4.738   4.819  0.1656 -0.1546 -0.1288
 5854TIP3    H117526   7.137   4.702   4.746 -1.7585 -0.3639  1.2428
 5854TIP3    H217527   7.277   4.745   4.785 -0.5880 -0.6243 -2.3516
 5855TIP3   OH217528   0.579   5.928   5.891  0.6447 -0.4859 -0.1971
 5855TIP3    H117529   0.609   5.994   5.828  2.3590 -0.4565  0.5856
 5855TIP3    H217530   0.537   5.979   5.960  0.2312 -0.3784 -0.5271
 5856TIP3   OH217531   2.894   3.210   5.252  0.0314  0.0194 -0.1383
 5856TIP3    H117532   2.946   3.178   5.179 -3.7178 -1.6110 -2.4063
 5856TIP3    H217533   2.914   3.304   5.257  1.3112 -0.0612 -2.4608
 5857TIP3   OH217534   3.883   4.371   3.579 -0.2287  0.2929  0.0921
 5857TIP3    H117535   3.923   4.356   3.493  0.9001 -0.6638  0.7396
 5857TIP3    H217536   3.944   4.330   3.640 -1.8668 -0.5958  1.2129
 5858TIP3   OH217537   2.669   5.944   1.993 -0.0458  0.3416  0.5664
 5858TIP3    H117538   2.649   6.035   2.015  1.4420  0.8396 -0.0303
 5858TIP3    H217539   2.670   5.942   1.897  0.3846 -0.1954  0.5798
 5859TIP3   OH217540   2.544   0.910   3.812 -0.1429 -0.3470  0.4219
 5859TIP3    H117541   2.509   0.821   3.799  2.5981 -1.6162  1.0192
 5859TIP3    H217542   2.549   0.919   3.908  0.3184  0.1302  0.3531
 5860TIP3   OH217543   6.176   4.601   4.539  0.5314 -0.0956  0.4220
 5860TIP3    H117544   6.188   4.696   4.541  1.0727 -0.1655  1.6672
 5860TIP3    H217545   6.104   4.587   4.478  0.4577  1.1092  0.2075
 5861TIP3   OH217546   5.297   2.134   1.278 -0.2071 -0.7025 -0.6159
 5861TIP3    H117547   5.217   2.186   1.286  0.5156  0.1794  1.4972
 5861TIP3    H217548   5.268   2.044   1.294 -0.8854 -0.4968 -0.6208
 5862TIP3   OH217549   0.069   6.354   2.554  0.3177  0.2886  0.0274
 5862TIP3    H117550  -0.016   6.386   2.524 -0.0740  0.6668  1.4615
 5862TIP3    H217551   0.114   6.326   2.474 -0.8397  0.8242 -0.8374
 5863TIP3   OH217552   1.734   3.107   3.734 -0.4723 -0.8819 -0.3050
 5863TIP3    H117553   1.747   3.069   3.821  0.1660 -1.7052 -0.7415
 5863TIP3    H217554   1.765   3.197   3.742 -0.4094 -0.9559  0.3128
 5864TIP3   OH217555   6.292   0.798   5.765 -0.6127 -0.1746  0.2057
 5864TIP3    H117556   6.236   0.787   5.842 -0.8006 -2.5783 -0.2056
 5864TIP3    H217557   6.311   0.709   5.736  1.0757  0.6362 -1.3880
 5865TIP3   OH217558   5.105   3.521   2.182  0.0887 -0.2139  0.0060
 5865TIP3    H117559   5.037   3.461   2.210 -0.6148  0.2634 -0.6319
 5865TIP3    H217560   5.058   3.598   2.150  0.9769  0.9566  1.3919
 5866TIP3   OH217561   4.660   3.970   2.487 -0.6520  0.9151 -0.3113
 5866TIP3    H117562   4.733   4.018   2.525 -1.3366  1.9265 -0.2399
 5866TIP3    H217563   4.694   3.934   2.405 -0.0243  1.2067 -0.1755
 5867TIP3   OH217564   1.412   3.610   2.256 -0.3894  0.4095  0.5034
 5867TIP3    H117565   1.382   3.684   2.308  0.3536  0.3972  0.9594
 5867TIP3    H217566   1.331   3.571   2.222 -0.9002  0.4021  1.6623
 5868TIP3   OH217567   6.967   6.207   4.402  1.0774 -0.0199 -0.3535
 5868TIP3    H117568   6.894   6.150   4.379  0.2204  0.9530 -0.0705
 5868TIP3    H217569   7.030   6.148   4.445  0.8295 -1.0183 -1.2892
 5869TIP3   OH217570   1.814   4.528   1.096 -0.6781 -0.0278 -0.0903
 5869TIP3    H117571   1.773   4.446   1.068  0.0894 -0.7940  0.9336
 5869TIP3    H217572   1.756   4.597   1.064 -0.3691 -0.8579 -2.6312
 5870TIP3   OH217573   4.502   4.545   5.005  0.5356 -0.5078  0.4309
 5870TIP3    H117574   4.470   4.591   5.082  2.4016  3.0362 -0.6872
 5870TIP3    H217575   4.427   4.544   4.945  0.3582  0.9567  0.5869
 5871TIP3   OH217576   1.526   5.583   3.855 -0.5396  0.0514  0.0082
 5871TIP3    H117577   1.485   5.538   3.929  1.1697 -1.4839  0.1058
 5871TIP3    H217578   1.531   5.516   3.787 -0.9092  1.0731 -1.0512
 5872TIP3   OH217579   2.189   2.143   3.150  0.6478  0.7867 -0.5807
 5872TIP3    H117580   2.203   2.110   3.062  0.4307  1.1067 -0.7364
 5872TIP3    H217581   2.246   2.220   3.156  1.4422  0.1746 -0.0925
 5873TIP3   OH217582   1.038   5.005   1.246 -0.0147  0.5332 -0.2772
 5873TIP3    H117583   1.015   5.042   1.161 -1.6240 -0.3420 -0.2710
 5873TIP3    H217584   0.954   4.999   1.293  0.8642  1.1392  1.4324
 5874TIP3   OH217585   4.297   5.625   0.095  0.1033  0.0148 -0.3184
 5874TIP3    H117586   4.276   5.714   0.064 -1.5732 -0.8245 -1.7340
 5874TIP3    H217587   4.392   5.618   0.083  0.0578  1.1165 -1.5734
 5875TIP3   OH217588   4.563   1.582   3.315  0.7171 -0.1888 -0.6382
 5875TIP3    H117589   4.606   1.598   3.231 -1.6030  0.7776 -1.7296
 5875TIP3    H217590   4.527   1.668   3.339  1.1869 -0.4916  1.2791
 5876TIP3   OH217591   2.003   0.559   2.088 -0.6862 -0.2492 -0.4040
 5876TIP3    H117592   1.936   0.501   2.054 -2.2740 -0.3418  2.5557
 5876TIP3    H217593   2.063   0.502   2.136 -0.5421  0.2280 -0.0024
 5877TIP3   OH217594   6.975   5.989   5.158  0.7450 -0.3723 -0.1353
 5877TIP3    H117595   7.057   6.020   5.118  0.9947 -0.6060  0.1913
 5877TIP3    H217596   6.975   5.895   5.142  1.8538 -0.8338  2.1538
 5878TIP3   OH217597   0.080   0.644   2.849  0.3633  0.1566 -0.4004
 5878TIP3    H117598   0.030   0.715   2.809 -4.4124 -1.8073  1.2895
 5878TIP3    H217599   0.123   0.684   2.925  0.3185  1.7341 -1.1850
 5879TIP3   OH217600   0.216   4.538   3.228 -0.0652  0.4077  0.1371
 5879TIP3    H117601   0.249   4.610   3.280  3.0702 -1.5256  1.0798
 5879TIP3    H217602   0.193   4.470   3.292  1.3091 -1.0315 -0.8255
 5880TIP3   OH217603   1.698   5.234   4.393 -0.2609  0.0022  0.4358
 5880TIP3    H117604   1.655   5.165   4.342  2.7797  0.0058 -2.4718
 5880TIP3    H217605   1.728   5.297   4.327 -0.2703  2.5999  2.7518
 5881TIP3   OH217606   3.066   2.626   3.510 -0.0403 -0.5305 -0.3076
 5881TIP3    H117607   3.041   2.582   3.429 -2.1924 -1.2183  0.6413
 5881TIP3    H217608   3.068   2.556   3.576  0.9810  0.1125  0.3791
 5882TIP3   OH217609   6.099   2.350   2.958 -0.4848  0.4436 -0.0426
 5882TIP3    H117610   6.022   2.401   2.985 -2.0422 -2.1793  0.9108
 5882TIP3    H217611   6.160   2.360   3.031 -0.9351  0.6487  0.3199
 5883TIP3   OH217612   2.435   0.140   2.606  0.2537 -0.6231 -0.0390
 5883TIP3    H117613   2.392   0.196   2.541  2.4843  0.6933 -0.4755
 5883TIP3    H217614   2.453   0.199   2.680  1.7010 -0.9795 -0.0790
 5884TIP3   OH217615   0.842   4.106   1.158  0.0428 -0.4092  0.0861
 5884TIP3    H117616   0.858   4.197   1.179 -1.1397  0.2801 -1.7663
 5884TIP3    H217617   0.929   4.068   1.146  0.6268 -0.0012  2.4300
 5885TIP3   OH217618   0.346   3.196   3.037 -0.2226  0.6031 -0.0072
 5885TIP3    H117619   0.438   3.180   3.059 -0.7216 -2.6289  0.2613
 5885TIP3    H217620   0.298   3.132   3.089 -2.8287  3.0821  0.8785
 5886TIP3   OH217621   4.695   3.182   5.553  0.2018 -0.5320  0.4801
 5886TIP3    H117622   4.606   3.162   5.524  0.0860  1.1510 -0.4732
 5886TIP3    H217623   4.751   3.130   5.495 -0.1220 -2.3427  1.7062
 5887TIP3   OH217624   6.554   5.218   5.502  0.0112  0.0839 -0.1367
 5887TIP3    H117625   6.627   5.156   5.503  0.2574  0.3723  0.3287
 5887TIP3    H217626   6.566   5.269   5.422 -1.2131 -1.6429 -1.4899
 5888TIP3   OH217627   0.210   6.350   3.913 -0.7047  0.0968  0.1735
 5888TIP3    H117628   0.176   6.381   3.997  1.4879  1.1526  0.7357
 5888TIP3    H217629   0.260   6.271   3.934  0.3917  0.7300 -0.0445
 5889TIP3   OH217630   0.240   0.874   0.190  0.3304  0.2477  1.1067
 5889TIP3    H117631   0.308   0.928   0.231  0.1624  0.4847  1.0734
 5889TIP3    H217632   0.279   0.847   0.106  0.0890  1.0257  0.7375
 5890TIP3   OH217633   6.753   4.531   3.821  0.0936  0.4306  0.1697
 5890TIP3    H117634   6.705   4.612   3.803  0.6525  1.2774  2.2215
 5890TIP3    H217635   6.687   4.471   3.857  0.2718  1.1437  1.7537
 5891TIP3   OH217636   5.622   4.759   4.788  1.0030  0.2901 -0.2025
 5891TIP3    H117637   5.606   4.812   4.709  1.5908  1.2814  0.3270
 5891TIP3    H217638   5.684   4.811   4.839  0.3930 -0.1981  1.0579
 5892TIP3   OH217639   7.170   5.555   4.244  0.4634 -0.2009  0.0929
 5892TIP3    H117640   7.132   5.628   4.292  2.2073  0.2670  0.8514
 5892TIP3    H217641   7.203   5.594   4.162  0.2526 -0.3908 -0.0841
 5893TIP3   OH217642   2.400   1.307   2.043  0.1468 -0.0859 -0.1546
 5893TIP3    H117643   2.345   1.257   2.104 -1.1003  1.1682 -0.1694
 5893TIP3    H217644   2.337   1.344   1.981  1.0867  0.9557 -0.5054
 5894TIP3   OH217645   2.328   1.278   4.139 -0.2746  0.1111  0.6988
 5894TIP3    H117646   2.417   1.259   4.111 -0.5731  0.0516 -0.2470
 5894TIP3    H217647   2.279   1.198   4.120 -1.0560  0.9747 -1.2042
 5895TIP3   OH217648   6.001   1.887   1.830  0.3691 -0.1757 -0.2137
 5895TIP3    H117649   5.940   1.961   1.827  1.2002  0.4957 -0.7267
 5895TIP3    H217650   5.978   1.841   1.911  0.0730  0.8425  0.2942
 5896TIP3   OH217651   2.291   2.553   5.056 -0.0220 -0.5942  0.4641
 5896TIP3    H117652   2.294   2.644   5.026 -2.2001  0.6761  3.5325
 5896TIP3    H217653   2.353   2.549   5.129 -2.1978 -0.5540  2.4284
 5897TIP3   OH217654   5.043   1.378   2.881 -0.2273  0.0345 -0.2820
 5897TIP3    H117655   5.119   1.435   2.871 -0.0714 -0.1961 -0.4023
 5897TIP3    H217656   5.079   1.294   2.909 -0.5905  0.5333  1.8854
 5898TIP3   OH217657   5.404   1.843   2.376  0.1552  0.0680 -0.1464
 5898TIP3    H117658   5.465   1.781   2.416 -0.2513 -0.0228  0.3557
 5898TIP3    H217659   5.445   1.928   2.386  1.1467 -0.1892 -1.6564
 5899TIP3   OH217660   1.257   2.535   2.882 -0.1082  0.3420  0.5499
 5899TIP3    H117661   1.173   2.569   2.851 -0.2863  1.0968  1.7914
 5899TIP3    H217662   1.322   2.573   2.823 -0.6066 -0.1616 -0.3529
 5900TIP3   OH217663   3.169   1.364   0.762 -0.3760  0.1035  0.3469
 5900TIP3    H117664   3.075   1.368   0.777 -0.0774  1.9832  2.1983
 5900TIP3    H217665   3.207   1.419   0.831  2.2012 -1.9434  0.7314
 5901TIP3   OH217666   0.688   5.426   4.125 -0.5164 -0.6667 -0.2372
 5901TIP3    H117667   0.775   5.448   4.093 -0.7985 -0.5119 -0.9339
 5901TIP3    H217668   0.649   5.510   4.148 -0.6313 -0.6953 -0.3262
 5902TIP3   OH217669   4.027   3.842   1.523  0.2345 -0.5343  0.2241
 5902TIP3    H117670   3.993   3.781   1.458 -0.7599 -0.6346  0.8117
 5902TIP3    H217671   4.018   3.928   1.483 -1.1348 -0.5211  0.5125
 5903TIP3   OH217672   2.113   6.125   5.777 -0.0150 -0.0769  0.3772
 5903TIP3    H117673   2.185   6.165   5.728 -0.9042 -0.0924 -0.9922
 5903TIP3    H217674   2.047   6.104   5.710 -1.5229  0.4152  1.6451
 5904TIP3   OH217675   2.540   3.711   2.750 -0.1087 -0.3234  0.0639
 5904TIP3    H117676   2.503   3.722   2.838 -0.9242  1.2007 -0.4488
 5904TIP3    H217677   2.635   3.707   2.765 -0.3283 -2.9187  1.2540
 5905TIP3   OH217678   5.153   0.358   0.665 -0.1982 -0.7081  0.1929
 5905TIP3    H117679   5.084   0.298   0.639 -0.4643 -0.5119  0.4355
 5905TIP3    H217680   5.213   0.305   0.718  1.0648 -1.4519 -1.8687
 5906TIP3   OH217681   2.515   2.789   0.051  0.0920 -0.5626 -0.2884
 5906TIP3    H117682   2.548   2.851   0.116  0.5208  0.0200 -1.0403
 5906TIP3    H217683   2.437   2.751   0.091 -0.2979  0.6122  0.1226
 5907TIP3   OH217684   4.705   6.623   1.346 -0.5210 -0.5791 -0.0174
 5907TIP3    H117685   4.636   6.564   1.315 -0.3290  0.1808 -2.0604
 5907TIP3    H217686   4.658   6.690   1.396 -0.8345 -1.9274  1.5780
 5908TIP3   OH217687   5.741   4.552   4.600  0.1529 -0.1929 -0.0944
 5908TIP3    H117688   5.749   4.646   4.582 -0.4414 -0.2525 -0.7146
 5908TIP3    H217689   5.647   4.539   4.616  0.5059 -0.3105  2.2263
 5909TIP3   OH217690   0.445   0.341   5.720 -0.6012  0.3345 -0.2034
 5909TIP3    H117691   0.453   0.333   5.815 -1.2283 -1.4854 -0.2841
 5909TIP3    H217692   0.372   0.285   5.696 -2.1591  2.7328 -1.5105
 5910TIP3   OH217693   6.279   6.684   3.838  0.0057 -0.1724 -0.2169
 5910TIP3    H117694   6.324   6.757   3.796 -0.9789  1.1909  1.0089
 5910TIP3    H217695   6.216   6.654   3.773 -1.8738  2.2619  0.3361
 5911TIP3   OH217696   4.615   2.145   2.855 -0.2395  0.1492 -0.3876
 5911TIP3    H117697   4.665   2.221   2.885 -0.9340  1.0818 -1.5270
 5911TIP3    H217698   4.602   2.093   2.934  0.6386  0.9823  0.3323
 5912TIP3   OH217699   2.716   1.741   3.035  0.3438 -0.2525 -0.5882
 5912TIP3    H117700   2.702   1.660   3.084  2.1260  0.2135  0.7948
 5912TIP3    H217701   2.648   1.800   3.068  1.1755 -0.1266  0.9956
 5913TIP3   OH217702   4.949   3.224   4.657  0.0644  0.0925  0.0598
 5913TIP3    H117703   4.955   3.142   4.706  0.8055  1.8657  3.2295
 5913TIP3    H217704   4.858   3.227   4.627  0.1880 -2.1189 -0.7194
 5914TIP3   OH217705   6.645   5.606   0.823 -0.0016 -0.1649  0.0461
 5914TIP3    H117706   6.586   5.574   0.892  0.4950  0.6395  0.8595
 5914TIP3    H217707   6.626   5.700   0.817  0.2358 -0.1559 -0.6487
 5915TIP3   OH217708   4.421   3.395   3.231  0.3178  0.4440  0.1301
 5915TIP3    H117709   4.458   3.309   3.250  1.0355  0.5912 -0.5717
 5915TIP3    H217710   4.411   3.436   3.317 -2.8726 -1.4376  0.8113
 5916TIP3   OH217711   4.702   3.598   0.626 -0.3432 -0.2954 -0.0225
 5916TIP3    H117712   4.756   3.538   0.573  2.1901  2.6376 -1.0743
 5916TIP3    H217713   4.659   3.654   0.562  0.7624  1.7046  0.9101
 5917TIP3   OH217714   7.109   4.079   3.027 -0.5642 -0.1148 -0.0809
 5917TIP3    H117715   7.109   4.096   2.932  0.8385  1.5725  0.1843
 5917TIP3    H217716   7.202   4.071   3.050 -0.8723 -0.0732  1.2342
 5918TIP3   OH217717   0.059   2.946   2.858 -0.5570 -0.7089  0.1256
 5918TIP3    H117718   0.130   2.955   2.922 -1.4842 -0.3213  1.1370
 5918TIP3    H217719   0.016   3.031   2.859 -1.3120 -1.0828 -0.1413
 5919TIP3   OH217720   2.953   0.781   1.627 -0.1838 -0.7302  0.1706
 5919TIP3    H117721   2.863   0.764   1.600 -0.2068 -0.2421 -0.0803
 5919TIP3    H217722   2.946   0.856   1.687 -0.0811 -1.4999  1.1729
 5920TIP3   OH217723   6.404   2.416   2.272 -0.4091  0.5984  0.4595
 5920TIP3    H117724   6.461   2.379   2.339 -0.3938 -1.7367 -0.7203
 5920TIP3    H217725   6.318   2.377   2.289 -0.5602  0.5069 -0.4613
 5921TIP3   OH217726   5.783   5.459   2.588  0.0475 -0.1547  0.5033
 5921TIP3    H117727   5.688   5.459   2.575  0.0864  0.0509  0.2145
 5921TIP3    H217728   5.798   5.391   2.654 -0.4861  1.0617  1.9408
 5922TIP3   OH217729   3.328   5.550   3.621  0.4280  0.2249  0.1053
 5922TIP3    H117730   3.378   5.518   3.546  1.2495 -0.2092  0.8105
 5922TIP3    H217731   3.371   5.510   3.697 -0.5125  0.4838  0.7939
 5923TIP3   OH217732   6.438   2.097   1.352  0.7594 -0.1648 -0.0972
 5923TIP3    H117733   6.501   2.052   1.409 -0.0918  1.1670  1.9963
 5923TIP3    H217734   6.365   2.118   1.409 -1.4797 -1.2937 -2.3715
 5924TIP3   OH217735   3.184   1.351   1.741 -0.3785 -0.2120 -0.4627
 5924TIP3    H117736   3.145   1.379   1.658  1.0147  2.0127 -0.4595
 5924TIP3    H217737   3.237   1.426   1.768  1.8502 -2.1220  0.7773
 5925TIP3   OH217738   1.138   6.281   2.776 -0.1263 -0.2162 -0.0269
 5925TIP3    H117739   1.075   6.348   2.801  0.8014  0.1394  1.4945
 5925TIP3    H217740   1.127   6.272   2.681 -2.2352  0.0249  0.1525
 5926TIP3   OH217741   3.533   2.835   5.737  0.1671 -0.1630 -0.3502
 5926TIP3    H117742   3.448   2.862   5.771  1.0685  3.0402 -0.2853
 5926TIP3    H217743   3.596   2.869   5.801  1.6439  1.2792 -2.4319
 5927TIP3   OH217744   2.577   2.686   2.299 -0.5460  0.3335  0.6531
 5927TIP3    H117745   2.644   2.661   2.236  0.0318  1.1119  0.9300
 5927TIP3    H217746   2.526   2.754   2.255  0.5108  1.6423  1.3413
 5928TIP3   OH217747   6.479   1.986   2.022 -0.3268  0.6581 -0.4407
 5928TIP3    H117748   6.438   2.004   2.107 -1.3919  0.3938 -0.8819
 5928TIP3    H217749   6.536   1.911   2.038 -0.1508  0.9188  0.1533
 5929TIP3   OH217750   4.236   0.715   2.583 -0.0753  0.2647  0.5160
 5929TIP3    H117751   4.198   0.784   2.529 -1.2780 -0.2704  0.6413
 5929TIP3    H217752   4.184   0.715   2.663  0.9763  0.3030  1.2245
 5930TIP3   OH217753   0.727   5.471   2.262  0.0840  0.3721 -1.0417
 5930TIP3    H117754   0.725   5.562   2.291 -0.3232 -0.0832  0.4552
 5930TIP3    H217755   0.820   5.451   2.249  0.4610  0.1923  1.4500
 5931TIP3   OH217756   4.579   5.506   3.388  0.4013  0.1976  0.4506
 5931TIP3    H117757   4.607   5.595   3.364  0.7766 -0.6663 -2.7610
 5931TIP3    H217758   4.514   5.483   3.322  0.8866 -2.2049  0.7464
 5932TIP3   OH217759   4.044   6.252   2.479 -0.2664  0.2699 -0.0324
 5932TIP3    H117760   4.042   6.179   2.418 -2.1150  1.7450 -1.8735
 5932TIP3    H217761   4.137   6.278   2.481  0.0679 -0.7447 -1.0601
 5933TIP3   OH217762   2.310   3.838   0.334  0.4770 -0.0990  0.1564
 5933TIP3    H117763   2.270   3.851   0.248 -0.3326 -0.0960  0.5279
 5933TIP3    H217764   2.395   3.797   0.314  0.0692 -0.6040 -0.6157
 5934TIP3   OH217765   6.866   1.071   4.407  0.3216  0.0773 -0.1711
 5934TIP3    H117766   6.875   1.101   4.497  0.1008  1.0127 -0.4525
 5934TIP3    H217767   6.881   1.149   4.354 -3.1836  0.4269 -0.8670
 5935TIP3   OH217768   6.927   2.395   2.805  0.0506 -0.0616  0.3389
 5935TIP3    H117769   6.869   2.388   2.881  0.1035  0.4463  0.4297
 5935TIP3    H217770   6.950   2.305   2.783 -1.2867 -0.3115 -0.0975
 5936TIP3   OH217771   1.680   2.395   4.911 -0.4973 -0.2983  0.2983
 5936TIP3    H117772   1.678   2.486   4.941  0.1180 -0.2179  0.1150
 5936TIP3    H217773   1.600   2.357   4.946  1.3953 -0.9691  4.5745
 5937TIP3   OH217774   1.632   4.929   3.790  0.3411  0.0288 -0.0021
 5937TIP3    H117775   1.603   5.016   3.815 -2.4829 -0.5606 -0.8561
 5937TIP3    H217776   1.723   4.941   3.762  0.4599  2.4059  1.1717
 5938TIP3   OH217777   2.438   2.190   5.645  0.4189 -0.4406 -0.4243
 5938TIP3    H117778   2.516   2.233   5.680  0.1711 -0.4164  0.1199
 5938TIP3    H217779   2.463   2.162   5.557  1.3520 -1.2429  0.0727
 5939TIP3   OH217780   6.408   1.966   5.603  0.1554  0.0430  0.2931
 5939TIP3    H117781   6.346   2.005   5.664 -0.1760 -0.1629  0.0881
 5939TIP3    H217782   6.359   1.953   5.522  0.5016  0.0120  0.0831
 5940TIP3   OH217783   2.594   3.916   5.010 -0.3318 -0.4596  0.7659
 5940TIP3    H117784   2.687   3.940   5.017 -0.7039  0.8865  1.4338
 5940TIP3    H217785   2.594   3.836   4.958  1.0989  0.2652 -0.4202
 5941TIP3   OH217786   1.127   1.784   1.082  0.1828 -0.2985 -0.3134
 5941TIP3    H117787   1.221   1.781   1.100 -0.0656 -0.6157  1.0489
 5941TIP3    H217788   1.087   1.802   1.167 -0.9224  1.3069 -1.1087
 5942TIP3   OH217789   1.546   2.187   1.779 -0.1918  0.5563  0.5750
 5942TIP3    H117790   1.484   2.254   1.750 -0.3573  0.6459  1.1278
 5942TIP3    H217791   1.499   2.137   1.846 -0.5928 -1.0484 -0.8445
 5943TIP3   OH217792   1.101   1.727   2.237  0.3492  0.2530  0.1821
 5943TIP3    H117793   1.093   1.638   2.202 -2.0552 -0.3987  2.1243
 5943TIP3    H217794   1.103   1.715   2.332 -1.3621  2.3108  0.5487
 5944TIP3   OH217795   2.646   3.660   3.531 -0.4599 -1.0898 -0.3128
 5944TIP3    H117796   2.730   3.613   3.533 -0.0394 -0.3943  1.6746
 5944TIP3    H217797   2.641   3.702   3.617 -1.2137  1.7911 -1.6329
 5945TIP3   OH217798   3.453   1.892   2.523 -0.8685  0.1219 -0.7539
 5945TIP3    H117799   3.401   1.903   2.602 -2.9076 -1.4192 -1.7602
 5945TIP3    H217800   3.390   1.900   2.451  0.5244 -0.5370 -2.1244
 5946TIP3   OH217801   5.076   3.196   0.387 -0.4750 -0.3800  0.8163
 5946TIP3    H117802   5.109   3.242   0.310 -0.6136 -1.3505  0.1544
 5946TIP3    H217803   5.154   3.181   0.440 -0.2111 -0.6068  0.3734
 5947TIP3   OH217804   6.319   3.670   1.034  0.3078  0.3425  0.4760
 5947TIP3    H117805   6.357   3.744   1.082 -0.2399  0.5524  0.5935
 5947TIP3    H217806   6.310   3.702   0.944 -0.6142  0.6912  0.6763
 5948TIP3   OH217807   2.325   6.467   3.371  0.2548 -0.4746  0.2720
 5948TIP3    H117808   2.262   6.534   3.395  0.9183 -0.5068  2.2955
 5948TIP3    H217809   2.275   6.404   3.320 -0.6996  0.8297 -0.4477
 5949TIP3   OH217810   0.668   1.095   0.290 -0.1297 -0.3046  0.2025
 5949TIP3    H117811   0.630   1.167   0.240 -0.4919  0.2823  1.3046
 5949TIP3    H217812   0.763   1.103   0.276 -0.2530 -0.5311 -0.8797
 5950TIP3   OH217813   2.253   1.154   2.892  0.1595 -0.1528 -0.7152
 5950TIP3    H117814   2.331   1.178   2.842  0.5352  1.1627  0.4485
 5950TIP3    H217815   2.208   1.237   2.909 -1.4660 -0.8755 -1.2787
 5951TIP3   OH217816   3.643   1.650   0.017 -0.3305 -0.2107 -0.1782
 5951TIP3    H117817   3.548   1.646   0.020 -0.3332 -1.4146 -1.0930
 5951TIP3    H217818   3.669   1.572  -0.032  1.1288  0.0921  0.0594
 5952TIP3   OH217819   4.931   5.641   0.096 -0.0743  0.4075 -0.0221
 5952TIP3    H117820   4.873   5.567   0.112  1.2924 -0.8576 -0.7349
 5952TIP3    H217821   4.872   5.713   0.073 -1.3453 -0.9661 -1.2514
 5953TIP3   OH217822   4.040   4.561   4.445 -0.8005  0.2840  1.1486
 5953TIP3    H117823   3.981   4.506   4.395  0.2171  0.9336 -0.8948
 5953TIP3    H217824   3.983   4.622   4.491 -1.7859 -0.3104  0.7413
 5954TIP3   OH217825   3.527   3.211   0.080 -0.1391 -0.0801  0.6242
 5954TIP3    H117826   3.518   3.272   0.007 -0.9075 -0.4888  0.3744
 5954TIP3    H217827   3.595   3.149   0.052 -1.3702 -1.0347 -0.3103
 5955TIP3   OH217828   4.391   5.086   5.823 -0.0322 -0.4974  0.0333
 5955TIP3    H117829   4.418   4.994   5.819  1.1267 -0.4268  3.0591
 5955TIP3    H217830   4.439   5.129   5.752  1.2286 -1.8788  0.0001
 5956TIP3   OH217831   1.483   3.236   1.452  0.2595  0.0844  0.1894
 5956TIP3    H117832   1.476   3.165   1.388  1.3178 -0.6976  0.9172
 5956TIP3    H217833   1.437   3.203   1.530  0.2031  0.4604  0.3207
 5957TIP3   OH217834   0.761   2.050   2.092  0.2946 -0.0771 -0.1582
 5957TIP3    H117835   0.832   2.047   2.156  1.1188 -3.1978 -1.0389
 5957TIP3    H217836   0.687   2.007   2.136 -0.1742  0.6780 -0.1981
 5958TIP3   OH217837   5.643   2.167   5.288 -0.2430 -0.1579  0.3720
 5958TIP3    H117838   5.601   2.251   5.271  0.2155 -0.0584 -0.3100
 5958TIP3    H217839   5.663   2.169   5.382 -0.4651  0.3850  0.4111
 5959TIP3   OH217840   0.666   0.160   0.488  0.3076 -0.0429  0.3695
 5959TIP3    H117841   0.714   0.241   0.469  1.0853 -0.1754  1.6238
 5959TIP3    H217842   0.655   0.118   0.403  0.7603  0.9072 -0.1790
 5960TIP3   OH217843   2.049   2.931   1.944  0.0437 -0.0989  0.1675
 5960TIP3    H117844   2.086   2.849   1.913  0.4928  0.6359 -1.3265
 5960TIP3    H217845   1.968   2.905   1.989  0.2196 -1.3611 -0.2048
 5961TIP3   OH217846   5.501   2.930   1.419  0.0536 -0.5517  0.1481
 5961TIP3    H117847   5.537   2.961   1.502 -0.3339 -0.0880  0.1481
 5961TIP3    H217848   5.489   3.009   1.366 -1.9640 -0.5172  0.5537
 5962TIP3   OH217849   3.501   0.743   0.405 -0.2238  0.0976 -0.3798
 5962TIP3    H117850   3.434   0.708   0.346 -0.3002 -0.7015  0.1587
 5962TIP3    H217851   3.563   0.670   0.415 -0.2473  0.2023  0.5656
 5963TIP3   OH217852   5.223   5.661   5.273  1.2314 -0.7513  0.4820
 5963TIP3    H117853   5.291   5.679   5.338  1.9040  0.0818 -0.4241
 5963TIP3    H217854   5.263   5.682   5.189 -0.7972  2.0846  0.0470
 5964TIP3   OH217855   1.094   5.935   4.431 -0.1986 -0.4469 -0.3611
 5964TIP3    H117856   1.083   5.977   4.346 -0.6181  0.2409  0.0237
 5964TIP3    H217857   1.020   5.966   4.483 -0.3650 -1.4566  0.0221
 5965TIP3   OH217858   5.893   0.371   2.267  0.1816  0.2177 -0.0838
 5965TIP3    H117859   5.868   0.374   2.175  2.9817  0.2638 -0.9331
 5965TIP3    H217860   5.983   0.401   2.268 -0.5319  2.7203  3.0551
 5966TIP3   OH217861   5.781   0.877   2.129  0.1966 -0.1251 -0.0342
 5966TIP3    H117862   5.874   0.865   2.146  0.5682 -1.0696 -2.3216
 5966TIP3    H217863   5.755   0.798   2.081 -1.3672  0.8896 -0.9661
 5967TIP3   OH217864   4.305   0.776   1.609  0.0565  0.0023 -0.6229
 5967TIP3    H117865   4.374   0.709   1.609 -0.1842 -0.2492 -1.5784
 5967TIP3    H217866   4.237   0.741   1.553 -0.5415  0.5851 -0.2764
 5968TIP3   OH217867   5.087   6.495   4.934 -0.1250  0.3782  0.0960
 5968TIP3    H117868   5.124   6.491   4.846  0.4125  0.6346  0.3063
 5968TIP3    H217869   5.099   6.407   4.969 -2.3418 -0.3886 -0.8658
 5969TIP3   OH217870   0.131   2.687   4.620 -0.0301 -0.0737  0.0562
 5969TIP3    H117871   0.070   2.694   4.546 -1.8229  1.2293  1.5502
 5969TIP3    H217872   0.201   2.749   4.598  0.1041 -0.6129 -1.0988
 5970TIP3   OH217873   6.364   0.867   3.922 -0.0060  0.2694  0.0906
 5970TIP3    H117874   6.356   0.775   3.946  2.3595 -0.1318 -0.4337
 5970TIP3    H217875   6.435   0.900   3.977  1.2449  0.9698 -1.8664
 5971TIP3   OH217876   7.148   3.349   5.839  0.5476 -0.5850  0.0669
 5971TIP3    H117877   7.072   3.331   5.785  0.5428  0.0543 -0.1441
 5971TIP3    H217878   7.222   3.345   5.779  0.4473  1.1154 -0.2048
 5972TIP3   OH217879   4.776   4.730   1.415 -0.6114  0.1264  0.0532
 5972TIP3    H117880   4.695   4.700   1.456 -1.2408  1.4827 -0.1512
 5972TIP3    H217881   4.767   4.706   1.323 -0.6832  0.1020  0.0668
 5973TIP3   OH217882   3.388   6.717   1.683  0.0692 -0.1729  0.3553
 5973TIP3    H117883   3.371   6.811   1.690  0.1013 -0.2105  1.0601
 5973TIP3    H217884   3.396   6.701   1.589  1.4652  0.7720  0.2856
 5974TIP3   OH217885   6.415   1.505   2.779  0.3775 -0.2033 -0.5480
 5974TIP3    H117886   6.377   1.477   2.696 -2.6159  1.0449  0.2409
 5974TIP3    H217887   6.449   1.593   2.761 -0.0043 -0.0500 -0.5253
 5975TIP3   OH217888   1.694   0.278   4.324  0.2684  0.0874  0.3917
 5975TIP3    H117889   1.712   0.281   4.418  0.8146  1.1998  0.2563
 5975TIP3    H217890   1.599   0.288   4.318  0.3702  1.4144  0.7685
 5976TIP3   OH217891   1.098   0.493   3.576 -0.2695 -0.1781  0.3780
 5976TIP3    H117892   1.069   0.472   3.665  1.3648 -2.2286  0.5093
 5976TIP3    H217893   1.176   0.439   3.563  0.6000  1.4311 -1.6680
 5977TIP3   OH217894   1.961   6.061   5.565 -0.2490 -0.1118  0.0507
 5977TIP3    H117895   2.000   6.004   5.498  2.8744  0.6927  1.0000
 5977TIP3    H217896   1.870   6.033   5.570  0.2699 -2.5939 -2.0267
 5978TIP3   OH217897   5.837   2.803   4.197  0.5647 -0.2169  0.4552
 5978TIP3    H117898   5.866   2.717   4.166 -0.5267 -0.0454 -1.1609
 5978TIP3    H217899   5.744   2.793   4.212  0.9816 -0.2047  3.6020
 5979TIP3   OH217900   5.758   6.306   4.614  0.4215 -0.0588  0.9820
 5979TIP3    H117901   5.790   6.305   4.704  2.2584 -5.1303  0.5789
 5979TIP3    H217902   5.827   6.351   4.565  1.3093 -0.6582  1.6577
 5980TIP3   OH217903   2.437   0.891   4.681 -0.2398  0.0578  0.2558
 5980TIP3    H117904   2.442   0.949   4.758  0.9566 -0.7006  0.7726
 5980TIP3    H217905   2.406   0.808   4.715  1.5274 -0.6805  0.1984
 5981TIP3   OH217906   0.868   6.465   2.781  0.1639 -0.5859 -0.0912
 5981TIP3    H117907   0.791   6.414   2.807  0.7885 -1.4104  0.1852
 5981TIP3    H217908   0.921   6.471   2.861  1.5210 -2.1018 -0.8052
 5982TIP3   OH217909   4.975   0.168   0.603  0.2157  0.5615  0.1832
 5982TIP3    H117910   5.023   0.118   0.668 -1.7843 -0.2394  1.1389
 5982TIP3    H217911   4.974   0.111   0.525  1.3780  0.8914 -0.0798
 5983TIP3   OH217912   5.417   3.670   0.036  0.4675  0.1419  0.3642
 5983TIP3    H117913   5.438   3.693  -0.055  0.1206  4.1302  1.1162
 5983TIP3    H217914   5.332   3.710   0.051  0.3763 -0.7242  2.3685
 5984TIP3   OH217915   0.523   6.401   1.014  0.0352  0.2957  0.8895
 5984TIP3    H117916   0.585   6.399   1.088  3.0949 -2.9774 -1.4000
 5984TIP3    H217917   0.573   6.440   0.943 -1.2978 -0.5034 -0.5376
 5985TIP3   OH217918   6.644   3.524   4.691  0.3247  0.0053  0.3167
 5985TIP3    H117919   6.550   3.535   4.710  0.3471 -1.1139  1.1859
 5985TIP3    H217920   6.686   3.530   4.776  0.9442 -0.3960  0.0454
 5986TIP3   OH217921   6.060   2.718   1.310  0.9008  0.1943 -0.1523
 5986TIP3    H117922   6.147   2.741   1.342 -0.2711  1.5576  2.3877
 5986TIP3    H217923   6.020   2.802   1.288  0.0557 -0.3742 -0.8711
 5987TIP3   OH217924   0.873   5.392   0.466 -0.7151  0.2497 -0.2887
 5987TIP3    H117925   0.901   5.442   0.543  0.9978 -1.9987  0.6569
 5987TIP3    H217926   0.793   5.348   0.494 -0.7439  0.3504 -0.2097
 5988TIP3   OH217927   5.334   5.329   0.060  0.0959  0.1281  0.1834
 5988TIP3    H117928   5.336   5.238   0.030 -1.6671  0.8394 -2.3996
 5988TIP3    H217929   5.263   5.370   0.011  0.4072  2.7878  1.7133
 5989TIP3   OH217930   6.060   2.070   3.876 -0.6167  0.0620  0.3810
 5989TIP3    H117931   6.071   2.162   3.851  1.0218 -0.4271 -0.9216
 5989TIP3    H217932   6.011   2.073   3.957 -1.1677  2.0619  0.0377
 5990TIP3   OH217933   6.676   5.381   0.640  0.2440 -0.1820  0.3625
 5990TIP3    H117934   6.667   5.447   0.709  2.3661  1.5714 -0.8906
 5990TIP3    H217935   6.745   5.323   0.671 -0.2544 -0.6490  0.6065
 5991TIP3   OH217936   1.517   1.524   2.641 -0.0247 -0.1214 -0.0725
 5991TIP3    H117937   1.488   1.573   2.564  1.6152  0.6514 -0.2285
 5991TIP3    H217938   1.451   1.544   2.708 -3.1107 -3.0190 -1.9132
 5992TIP3   OH217939   4.284   2.292   5.527  0.1756  0.1299  0.2329
 5992TIP3    H117940   4.313   2.203   5.541 -1.0248 -0.2050  0.7824
 5992TIP3    H217941   4.194   2.283   5.495 -0.4982  1.1418  1.7253
 5993TIP3   OH217942   3.109   5.894   2.107 -0.2171  0.1999  0.2950
 5993TIP3    H117943   3.050   5.920   2.037 -1.5309 -0.7693  0.9855
 5993TIP3    H217944   3.196   5.895   2.067 -0.7580  1.0799 -0.9208
 5994TIP3   OH217945   7.110   4.055   5.188  0.1100 -0.0881 -0.2584
 5994TIP3    H117946   7.183   4.067   5.127  0.7600 -2.1409  0.0172
 5994TIP3    H217947   7.113   3.961   5.209 -0.2248  0.4946  2.7272
 5995TIP3   OH217948   3.608   0.876   1.674 -0.3000  0.2125 -0.2449
 5995TIP3    H117949   3.627   0.833   1.591  1.0098  1.6707 -0.7271
 5995TIP3    H217950   3.647   0.962   1.667  1.0158 -0.0711  2.3703
 5996TIP3   OH217951   7.189   0.613   0.110  0.2950  0.2656 -0.6266
 5996TIP3    H117952   7.136   0.681   0.152 -0.3224 -0.5340 -0.0835
 5996TIP3    H217953   7.177   0.536   0.165  0.7964 -0.3543 -1.3665
 5997TIP3   OH217954   4.222   3.110   3.385  0.3655 -0.0143 -0.3447
 5997TIP3    H117955   4.196   3.036   3.330  0.1982  0.5425 -1.0399
 5997TIP3    H217956   4.316   3.119   3.370  0.7269 -1.1463  1.0758
 5998TIP3   OH217957   1.415   2.457   1.501  0.3977 -0.0959  0.5400
 5998TIP3    H117958   1.364   2.397   1.555 -0.2146  0.3123  0.4136
 5998TIP3    H217959   1.494   2.408   1.479  0.2559 -0.5733  1.0892
 5999TIP3   OH217960   5.105   3.816   1.660 -0.0499  0.1149 -0.2992
 5999TIP3    H117961   5.020   3.856   1.678 -0.3302 -0.5720 -0.0595
 5999TIP3    H217962   5.089   3.756   1.587 -0.0961 -1.0279  0.6162
 6000TIP3   OH217963   4.160   2.092   2.316 -0.5345 -0.0981 -0.4113
 6000TIP3    H117964   4.105   2.017   2.338 -0.7824 -0.0851 -0.9886
 6000TIP3    H217965   4.245   2.054   2.295 -0.4341 -0.1506  0.0868
 6001TIP3   OH217966   1.190   4.536   2.921  0.2873  0.1500  0.1714
 6001TIP3    H117967   1.221   4.592   2.850 -0.0656 -1.9321 -1.7213
 6001TIP3    H217968   1.095   4.546   2.919  0.3227  0.8448  1.0674
 6002TIP3   OH217969   2.062   3.204   1.339 -0.6021  0.0128  0.3649
 6002TIP3    H117970   1.967   3.203   1.331 -0.6063  1.0338  0.1916
 6002TIP3    H217971   2.086   3.112   1.350 -1.6606 -0.1883  1.1191
 6003TIP3   OH217972   4.961   6.683   4.695  0.1303  0.0202 -0.1563
 6003TIP3    H117973   4.876   6.709   4.661  0.7512  1.7711 -0.4763
 6003TIP3    H217974   5.024   6.714   4.629  1.1055  0.0940  0.7766
 6004TIP3   OH217975   4.034   2.079   0.314  0.1855  0.9427 -1.0070
 6004TIP3    H117976   4.069   1.994   0.338 -0.4337  0.8705 -0.3321
 6004TIP3    H217977   4.076   2.100   0.230 -1.0102 -0.8412 -2.1155
 6005TIP3   OH217978   7.022   2.764   1.576 -0.3518 -0.4176  0.1729
 6005TIP3    H117979   6.968   2.772   1.655 -1.5457  0.7677 -0.7168
 6005TIP3    H217980   7.002   2.842   1.525  0.0407 -1.3713 -1.5241
 6006TIP3   OH217981   3.060   4.087   5.464  0.1042 -0.0497  0.0648
 6006TIP3    H117982   3.076   4.147   5.537  1.6510 -0.3258 -0.0200
 6006TIP3    H217983   3.006   4.018   5.502  2.2222 -1.0494  1.4328
 6007TIP3   OH217984   6.196   0.846   4.336  0.2161 -0.0109 -0.3622
 6007TIP3    H117985   6.155   0.869   4.420 -0.3248 -0.9139 -0.3760
 6007TIP3    H217986   6.197   0.928   4.287  0.6795  0.5703  0.5766
 6008TIP3   OH217987   3.969   6.461   1.071 -0.5876 -0.7723 -0.9711
 6008TIP3    H117988   4.044   6.421   1.026 -0.3131 -0.2538 -0.9738
 6008TIP3    H217989   3.950   6.540   1.020  1.7712  1.6660  1.5649
 6009TIP3   OH217990   3.221   6.276   3.096 -0.0174  0.2428  0.2347
 6009TIP3    H117991   3.250   6.341   3.160 -0.9185  1.4684 -0.5536
 6009TIP3    H217992   3.204   6.327   3.017 -1.7959 -0.7944 -0.0884
 6010TIP3   OH217993   5.476   3.542   5.502 -0.3535  0.5573 -0.1219
 6010TIP3    H117994   5.399   3.530   5.447 -0.4041  2.7920 -0.6278
 6010TIP3    H217995   5.442   3.538   5.592 -0.9405  0.8643 -0.3266
 6011TIP3   OH217996   1.436   1.426   2.136  0.2616 -0.8519 -0.3308
 6011TIP3    H117997   1.450   1.521   2.139  1.8875 -1.0540 -0.9320
 6011TIP3    H217998   1.342   1.417   2.118 -0.0229  0.6215  0.2092
 6012TIP3   OH217999   3.747   3.467   5.343  0.0739  0.7387 -0.3014
 6012TIP3    H118000   3.786   3.393   5.295 -0.9695  0.4905 -0.7949
 6012TIP3    H218001   3.772   3.452   5.434 -2.4853 -1.8708  0.1050
 6013TIP3   OH218002   5.932   3.556   2.161 -0.3155 -0.1883  0.4856
 6013TIP3    H118003   5.871   3.616   2.204  2.4047  1.9875  1.6573
 6013TIP3    H218004   5.978   3.513   2.233  0.0290 -1.2660 -0.3509
 6014TIP3   OH218005   6.886   2.603   5.681  0.0082  0.2590  0.2770
 6014TIP3    H118006   6.966   2.562   5.647  0.1561  1.5914 -1.0643
 6014TIP3    H218007   6.862   2.548   5.756 -0.2346 -2.7301 -1.7962
 6015TIP3   OH218008   1.795   0.889   3.253 -0.2040  0.3320  0.0914
 6015TIP3    H118009   1.763   0.896   3.343 -0.4233  1.5305 -0.0619
 6015TIP3    H218010   1.720   0.858   3.203  0.2342 -1.4667  0.4804
 6016TIP3   OH218011   6.318   2.846   5.641 -0.5395 -0.0282 -0.3506
 6016TIP3    H118012   6.316   2.772   5.581 -1.1286  1.4542 -2.2623
 6016TIP3    H218013   6.385   2.823   5.705  0.8115 -1.2869 -2.1204
 6017TIP3   OH218014   4.669   5.903   2.917 -0.3370 -0.2775  0.1576
 6017TIP3    H118015   4.725   5.826   2.916 -1.3057 -0.9875 -0.4734
 6017TIP3    H218016   4.634   5.909   2.828  0.6036  1.5645 -0.1462
 6018TIP3   OH218017   0.214   3.590   0.792  0.3344 -0.1980 -0.1759
 6018TIP3    H118018   0.134   3.572   0.743  0.5020  0.5138 -0.7424
 6018TIP3    H218019   0.268   3.640   0.730  1.0808 -0.4001  0.3066
 6019TIP3   OH218020   5.563   4.141   3.918  0.2066  0.3256  0.3090
 6019TIP3    H118021   5.533   4.130   3.828 -1.5092  0.1104  0.8711
 6019TIP3    H218022   5.580   4.052   3.948 -0.4808  0.2818  0.5887
 6020TIP3   OH218023   0.706   6.454   0.314  0.3305  0.5389 -0.1071
 6020TIP3    H118024   0.786   6.485   0.356 -0.3093 -1.1423  2.6206
 6020TIP3    H218025   0.637   6.510   0.349 -0.0112  0.2125 -0.2478
 6021TIP3   OH218026   3.869   3.364   2.890  0.4797  0.0318  0.4731
 6021TIP3    H118027   3.784   3.352   2.846  2.0990 -1.2885 -2.5767
 6021TIP3    H218028   3.880   3.459   2.894 -0.6808  0.2173 -0.0440
 6022TIP3   OH218029   6.400   0.414   0.815  0.2360  0.4592  0.2971
 6022TIP3    H118030   6.385   0.327   0.779 -0.5051 -0.0577  1.7514
 6022TIP3    H218031   6.368   0.474   0.748 -1.8607 -0.4630  0.3824
 6023TIP3   OH218032   5.537   2.931   3.638 -0.2549 -0.2242 -0.6118
 6023TIP3    H118033   5.478   2.928   3.714  0.4349 -0.2695 -0.0764
 6023TIP3    H218034   5.625   2.932   3.675  0.0759  0.7466 -1.3882
 6024TIP3   OH218035   1.846   4.117   2.378  0.0450 -0.1673 -0.4065
 6024TIP3    H118036   1.868   4.119   2.471  0.5326 -2.9945 -0.3601
 6024TIP3    H218037   1.751   4.109   2.376  0.2044 -3.8395  0.1285
 6025TIP3   OH218038   0.990   5.433   2.213  0.0757  0.6589  0.5996
 6025TIP3    H118039   1.036   5.516   2.202  0.9975 -0.0179 -0.9971
 6025TIP3    H218040   1.031   5.374   2.149 -1.0723 -0.8108  1.1560
 6026TIP3   OH218041   4.314   1.319   4.824 -0.1782  0.3020 -0.2612
 6026TIP3    H118042   4.264   1.324   4.742  2.8124  1.0623 -2.2209
 6026TIP3    H218043   4.309   1.227   4.850 -1.6478  0.1552 -0.9716
 6027TIP3   OH218044   1.865   0.659   1.515  0.1283  0.7289 -0.1073
 6027TIP3    H118045   1.841   0.590   1.453 -0.6120  1.0459 -0.1946
 6027TIP3    H218046   1.936   0.706   1.472  0.7529 -0.0654  0.0235
 6028TIP3   OH218047   1.454   1.894   5.737  0.1126  0.1734  0.1549
 6028TIP3    H118048   1.522   1.877   5.672  1.0893 -0.9410  1.4181
 6028TIP3    H218049   1.432   1.808   5.772 -0.2324  0.7551  1.4443
 6029TIP3   OH218050   6.235   5.447   5.720  0.9805  0.4307  0.5194
 6029TIP3    H118051   6.204   5.400   5.642  0.3578  0.5346  0.6983
 6029TIP3    H218052   6.321   5.482   5.694 -0.6477  3.4626 -1.3952
 6030TIP3   OH218053   7.188   2.799   2.003  0.5146 -0.2368 -0.3225
 6030TIP3    H118054   7.167   2.713   2.037 -0.4409  0.7673  1.8049
 6030TIP3    H218055   7.283   2.798   1.991  0.4939 -1.6112 -0.5113
 6031TIP3   OH218056   5.706   1.700   1.290  0.2448  0.1161 -0.0763
 6031TIP3    H118057   5.689   1.774   1.349 -0.8493  0.0776 -0.3294
 6031TIP3    H218058   5.655   1.628   1.326  0.6940 -0.3034 -0.2735
 6032TIP3   OH218059   2.257   6.679   4.452 -0.2007 -0.3084  0.1692
 6032TIP3    H118060   2.201   6.740   4.500 -1.0164  0.3868 -1.5876
 6032TIP3    H218061   2.291   6.730   4.379 -2.3292 -2.2990 -2.4123
 6033TIP3   OH218062   2.525   6.485   1.566  0.0279  0.1477 -0.0287
 6033TIP3    H118063   2.607   6.460   1.521  0.0526 -0.3651  0.3064
 6033TIP3    H218064   2.525   6.581   1.561  0.4006  0.1311 -0.4783
 6034TIP3   OH218065   1.279   0.771   3.096  0.0576  0.0967  0.0863
 6034TIP3    H118066   1.345   0.718   3.051  0.2240  0.0456  0.3842
 6034TIP3    H218067   1.198   0.723   3.083  0.4872 -1.2664  1.9224
 6035TIP3   OH218068   1.802   5.153   1.747  0.2587  0.0749 -0.3685
 6035TIP3    H118069   1.797   5.107   1.663  0.7703  0.9150 -0.8632
 6035TIP3    H218070   1.714   5.188   1.760 -0.3142 -1.4838  0.2934
 6036TIP3   OH218071   4.772   2.025   1.900 -0.1312  0.3931 -0.0561
 6036TIP3    H118072   4.852   1.996   1.856 -0.1012  0.1957  0.1227
 6036TIP3    H218073   4.799   2.042   1.990 -0.1349  1.0666 -0.1825
 6037TIP3   OH218074   6.728   1.144   2.896 -0.1017 -0.1262  0.3260
 6037TIP3    H118075   6.788   1.117   2.966 -0.2597 -0.2776  0.4042
 6037TIP3    H218076   6.641   1.128   2.932 -0.1840 -2.0188 -0.5893
 6038TIP3   OH218077   4.583   6.157   5.148  0.0927  0.2774  0.0258
 6038TIP3    H118078   4.492   6.142   5.172 -0.2042  0.5794 -0.8749
 6038TIP3    H218079   4.600   6.247   5.177 -0.3958  0.7953 -1.2335
 6039TIP3   OH218080   4.422   1.446   5.166 -0.4811 -0.6267  0.4258
 6039TIP3    H118081   4.428   1.378   5.233  0.1315 -0.9416  0.0646
 6039TIP3    H218082   4.457   1.524   5.208 -0.2369 -0.7883  0.5287
 6040TIP3   OH218083   5.609   0.848   3.818  0.4589  0.1761  0.5683
 6040TIP3    H118084   5.704   0.856   3.805  0.3482  1.2095  0.2527
 6040TIP3    H218085   5.579   0.939   3.824 -0.3667 -0.1503  1.8124
 6041TIP3   OH218086   5.970   2.793   1.786 -0.3905 -0.3446  0.0884
 6041TIP3    H118087   5.899   2.753   1.736 -0.4371 -1.9529  1.3563
 6041TIP3    H218088   5.940   2.882   1.803 -2.3879 -1.1284  1.0446
 6042TIP3   OH218089   5.991   6.260   0.818  0.1394 -0.4607 -0.1632
 6042TIP3    H118090   6.012   6.348   0.848  0.8661 -0.3241 -1.0129
 6042TIP3    H218091   5.972   6.211   0.898  0.0571  0.3796  0.3413
 6043TIP3   OH218092   3.730   0.546   0.057 -0.3496 -0.2886 -0.1380
 6043TIP3    H118093   3.782   0.626   0.055 -0.1530 -0.3447  1.5774
 6043TIP3    H218094   3.717   0.528   0.150 -1.6052 -1.4695 -0.5089
 6044TIP3   OH218095   1.734   4.544   2.761 -0.1673 -0.6075  0.8153
 6044TIP3    H118096   1.709   4.465   2.714 -0.3200 -0.4655  0.6520
 6044TIP3    H218097   1.723   4.614   2.696  0.3076 -0.4975  0.8532
 6045TIP3   OH218098   4.151   0.844   1.332  0.0547  0.5130  0.9475
 6045TIP3    H118099   4.182   0.929   1.365 -1.9143  2.3138 -1.4736
 6045TIP3    H218100   4.179   0.843   1.240  2.4941 -2.8363  1.5434
 6046TIP3   OH218101   1.722   0.617   3.596 -0.0634 -0.1952  0.1464
 6046TIP3    H118102   1.703   0.669   3.518  2.7036  0.6868 -0.0294
 6046TIP3    H218103   1.740   0.681   3.665  0.0406 -0.9405  0.8348
 6047TIP3   OH218104   0.615   0.875   5.691  0.7463 -0.5348  0.2586
 6047TIP3    H118105   0.669   0.800   5.713 -0.0786 -1.3465 -0.4145
 6047TIP3    H218106   0.677   0.948   5.683  1.5332 -1.1031  1.0688
 6048TIP3   OH218107   5.980   5.455   3.519 -0.3846  0.0808 -0.1845
 6048TIP3    H118108   5.953   5.522   3.582  1.4856  0.1239  0.6114
 6048TIP3    H218109   6.049   5.406   3.563  0.1034 -0.6848 -1.7359
 6049TIP3   OH218110   5.500   4.221   0.788 -0.6247 -0.3115  0.1201
 6049TIP3    H118111   5.515   4.277   0.864 -1.7428 -1.8671  1.5595
 6049TIP3    H218112   5.587   4.185   0.768 -0.2605  0.3690  0.4368
 6050TIP3   OH218113   6.498   2.035   4.347  0.6326  0.5233 -0.0765
 6050TIP3    H118114   6.437   1.963   4.364  2.5556 -0.9961  0.8370
 6050TIP3    H218115   6.457   2.086   4.277 -0.6647 -1.6596 -0.9926
 6051TIP3   OH218116   5.659   3.698   3.105 -0.3593  0.3642  0.1412
 6051TIP3    H118117   5.609   3.780   3.107 -0.8282  0.1782 -1.8392
 6051TIP3    H218118   5.599   3.632   3.139 -0.5685  0.5658  0.1658
 6052TIP3   OH218119   2.283   0.563   5.030  0.1364 -0.0311 -0.5073
 6052TIP3    H118120   2.278   0.483   4.978  1.0672  0.9111 -2.1686
 6052TIP3    H218121   2.194   0.577   5.062 -0.1968 -1.3134 -0.8241
 6053TIP3   OH218122   5.160   3.041   0.644  0.2494 -0.2884  0.5462
 6053TIP3    H118123   5.180   3.134   0.650 -3.1585  0.8621 -2.2399
 6053TIP3    H218124   5.143   3.014   0.734  1.8194  1.6034  1.4683
 6054TIP3   OH218125   5.806   0.536   5.146  0.3277  0.0816  0.0098
 6054TIP3    H118126   5.856   0.494   5.215  0.9266  0.6445 -0.0671
 6054TIP3    H218127   5.715   0.513   5.165  0.3886  0.8535  1.4527
 6055TIP3   OH218128   1.717   0.937   4.518  0.0541  0.2178 -0.1950
 6055TIP3    H118129   1.730   1.008   4.456 -0.4114  0.0609 -0.4766
 6055TIP3    H218130   1.793   0.880   4.506  0.6411  0.8794  0.3285
 6056TIP3   OH218131   2.374   4.384   0.258 -0.0598  0.1642 -0.2089
 6056TIP3    H118132   2.308   4.445   0.225 -0.4586 -0.2013 -0.0937
 6056TIP3    H218133   2.329   4.335   0.327  0.2195 -0.3432 -0.3813
 6057TIP3   OH218134   4.580   5.864   4.716  0.6231  0.2928  0.0989
 6057TIP3    H118135   4.569   5.954   4.747  0.3682  0.2784  0.0498
 6057TIP3    H218136   4.629   5.820   4.786  1.0497  0.5578 -0.0283
 6058TIP3   OH218137   2.373   3.103   0.750 -0.0231  0.2583 -0.2826
 6058TIP3    H118138   2.293   3.056   0.772  1.4870 -2.0220  0.7569
 6058TIP3    H218139   2.411   3.054   0.678 -0.2523  2.2209 -1.8356
 6059TIP3   OH218140   6.530   6.690   0.329 -0.3294  0.1177  0.0492
 6059TIP3    H118141   6.503   6.677   0.420  0.5776  1.3670  0.5396
 6059TIP3    H218142   6.451   6.678   0.278 -0.7175 -1.2578  0.9405
 6060TIP3   OH218143   5.323   0.204   1.829  0.7130 -0.0947 -0.4591
 6060TIP3    H118144   5.408   0.214   1.872 -0.3693  0.1734  1.7241
 6060TIP3    H218145   5.261   0.189   1.900 -1.2037  0.3849 -1.9340
 6061TIP3   OH218146   6.977   1.320   2.609  0.2260  0.2851  0.0032
 6061TIP3    H118147   7.022   1.344   2.527  1.9677 -2.8774 -0.1203
 6061TIP3    H218148   6.895   1.280   2.580  1.1323 -1.4292 -0.3197
 6062TIP3   OH218149   1.083   2.355   2.214  0.0015 -0.0351  0.3002
 6062TIP3    H118150   1.102   2.354   2.307 -1.8458  0.9133  0.7296
 6062TIP3    H218151   0.991   2.380   2.208  0.6533  2.3213 -1.8579
 6063TIP3   OH218152   2.131   0.172   0.778 -0.2807  0.2897  0.6443
 6063TIP3    H118153   2.187   0.214   0.713 -0.3953  0.2971  0.5500
 6063TIP3    H218154   2.109   0.241   0.840  0.3011  0.1496  1.0124
 6064TIP3   OH218155   1.116   4.563   5.039 -0.3147  0.4592 -0.5816
 6064TIP3    H118156   1.072   4.648   5.043 -1.1297  0.0678  3.4615
 6064TIP3    H218157   1.080   4.514   5.113  4.7103 -0.9636  1.3673
 6065TIP3   OH218158   0.759   0.071   1.799  0.0108  0.0341 -0.2346
 6065TIP3    H118159   0.782   0.083   1.707 -0.8986  0.6234 -0.3984
 6065TIP3    H218160   0.724  -0.019   1.803 -1.6092  0.5991 -0.8424
 6066TIP3   OH218161   4.840   2.982   1.188 -0.0469 -0.0683 -0.2067
 6066TIP3    H118162   4.915   2.971   1.247  0.0959  1.5293 -0.0562
 6066TIP3    H218163   4.878   2.997   1.102 -0.2159 -0.2499 -0.3137
 6067TIP3   OH218164   0.261   6.497   2.738 -0.0470  0.6775  0.1708
 6067TIP3    H118165   0.235   6.407   2.715  1.4087  0.1977  0.3476
 6067TIP3    H218166   0.177   6.543   2.748 -0.8169 -0.5346 -0.3766
 6068TIP3   OH218167   5.055   0.459   1.456 -0.3558 -0.1277 -0.1495
 6068TIP3    H118168   5.115   0.523   1.418  0.4967 -1.1777 -0.6027
 6068TIP3    H218169   4.974   0.508   1.469  0.4925  1.2376  0.2016
 6069TIP3   OH218170   4.429   1.363   3.905 -0.0328  0.3248 -0.3865
 6069TIP3    H118171   4.367   1.427   3.869  0.4701  1.2390  0.3075
 6069TIP3    H218172   4.484   1.415   3.964 -0.5919 -1.0235  1.3971
 6070TIP3   OH218173   5.996   4.129   0.296 -0.1471 -0.8530  0.4785
 6070TIP3    H118174   6.002   4.210   0.247  0.8950 -1.3755 -0.2961
 6070TIP3    H218175   5.976   4.156   0.386 -1.5904  0.1349 -0.1114
 6071TIP3   OH218176   1.703   4.203   1.301 -0.3706  0.1651  0.1171
 6071TIP3    H118177   1.735   4.134   1.243 -0.1895 -0.7667  1.2871
 6071TIP3    H218178   1.644   4.255   1.246 -0.9597 -1.2588 -0.6586
 6072TIP3   OH218179   5.044   4.531   2.593  0.3423  0.0414 -0.2212
 6072TIP3    H118180   5.101   4.474   2.542 -2.7501 -2.4147 -1.2780
 6072TIP3    H218181   4.978   4.563   2.531  1.4307  4.3433  0.4987
 6073TIP3   OH218182   0.852   6.035   4.498 -0.3802  1.0781 -0.4109
 6073TIP3    H118183   0.823   5.983   4.572 -0.4579  0.5601 -0.8010
 6073TIP3    H218184   0.814   5.992   4.421 -1.1830  2.1984 -0.6826
 6074TIP3   OH218185   3.781   4.526   2.959  0.3341 -0.2189  0.3107
 6074TIP3    H118186   3.768   4.431   2.958  1.8141 -0.4851  1.6871
 6074TIP3    H218187   3.851   4.540   3.023  0.7170  1.7357 -0.4542
 6075TIP3   OH218188   4.922   1.095   1.250 -0.1274 -0.8499  0.6828
 6075TIP3    H118189   4.986   1.054   1.192  1.4099  2.5611 -0.2773
 6075TIP3    H218190   4.863   1.141   1.192 -0.1630  0.4777  1.7270
 6076TIP3   OH218191   0.339   4.719   1.131 -0.2670 -0.2336 -0.6242
 6076TIP3    H118192   0.277   4.793   1.132 -0.7901 -0.5861 -2.5639
 6076TIP3    H218193   0.361   4.706   1.223 -1.9092  0.8921 -0.0051
 6077TIP3   OH218194   6.118   4.168   5.413 -0.0328 -0.0360  0.1556
 6077TIP3    H118195   6.090   4.230   5.346 -0.2352  1.4049  1.5221
 6077TIP3    H218196   6.160   4.097   5.363  0.1796  1.1551 -1.4548
 6078TIP3   OH218197   1.414   4.448   0.636  0.1154 -0.3115 -0.1206
 6078TIP3    H118198   1.458   4.518   0.683 -0.5142  0.0230 -0.0084
 6078TIP3    H218199   1.396   4.485   0.550  2.9252 -1.5394 -1.3543
 6079TIP3   OH218200   3.726   5.707   5.251 -0.2124  0.0348 -0.2067
 6079TIP3    H118201   3.741   5.613   5.248 -0.4154 -0.0215  0.3821
 6079TIP3    H218202   3.790   5.744   5.190 -1.3840 -0.6134 -1.9224
 6080TIP3   OH218203   5.462   1.058   4.617  0.3888 -0.0870 -0.2089
 6080TIP3    H118204   5.532   1.072   4.681 -1.1961  0.7553  1.4025
 6080TIP3    H218205   5.382   1.085   4.662 -0.8937 -0.2231 -2.2850
 6081TIP3   OH218206   0.690   4.311   2.604 -0.0537 -0.0559  0.1043
 6081TIP3    H118207   0.649   4.356   2.679  1.5386  2.3179 -0.3279
 6081TIP3    H218208   0.660   4.361   2.528 -0.5443 -1.5911 -0.7416
 6082TIP3   OH218209   3.160   4.879   1.707 -0.1857  0.0040 -0.0384
 6082TIP3    H118210   3.146   4.970   1.733 -2.3622  0.0281 -1.0968
 6082TIP3    H218211   3.194   4.884   1.618 -0.1876 -0.2045 -0.0519
 6083TIP3   OH218212   1.379   1.711   2.086 -0.1241  0.3984  0.1926
 6083TIP3    H118213   1.295   1.720   2.041 -0.4019  0.7488  0.7801
 6083TIP3    H218214   1.442   1.752   2.026 -0.4495  0.6142 -0.0074
 6084TIP3   OH218215   1.359   6.419   5.527 -0.3774 -0.6388  0.3273
 6084TIP3    H118216   1.380   6.407   5.435  1.4037 -1.1327  0.7688
 6084TIP3    H218217   1.268   6.451   5.527 -1.0583 -2.3764 -1.4914
 6085TIP3   OH218218   5.712   5.386   0.537  0.5253 -0.5330  0.7663
 6085TIP3    H118219   5.796   5.430   0.524 -0.3993  1.2471  0.5560
 6085TIP3    H218220   5.733   5.293   0.533  2.7610 -0.1741  2.4129
 6086TIP3   OH218221   0.985   3.819   3.461 -0.7095 -0.5761  0.1587
 6086TIP3    H118222   0.925   3.749   3.488  0.4365 -1.9534 -0.7346
 6086TIP3    H218223   0.990   3.812   3.366 -2.5493  2.4333 -0.2847
 6087TIP3   OH218224   4.262   0.320   2.187  0.2929  0.2039 -0.0639
 6087TIP3    H118225   4.258   0.361   2.273 -0.2825  0.5017 -0.2217
 6087TIP3    H218226   4.203   0.372   2.133  0.3124 -0.2388 -0.5259
 6088TIP3   OH218227   4.479   6.249   3.429 -0.0545 -0.0607  0.5197
 6088TIP3    H118228   4.557   6.226   3.480  0.5867  0.3804 -0.2415
 6088TIP3    H218229   4.410   6.260   3.495  0.7649  0.5618  1.3049
 6089TIP3   OH218230   5.747   2.148   3.688 -0.4275  0.4254 -0.2609
 6089TIP3    H118231   5.685   2.077   3.705 -2.3481  2.1154  0.1402
 6089TIP3    H218232   5.754   2.151   3.592  0.6969 -1.0707 -0.2717
 6090TIP3   OH218233   7.214   2.622   3.148 -0.1912 -0.8344  0.3276
 6090TIP3    H118234   7.247   2.617   3.058 -1.0428 -1.7907  0.0589
 6090TIP3    H218235   7.121   2.641   3.139 -0.5401 -2.1229  0.9559
 6091TIP3   OH218236   3.322   0.456   2.439 -0.4066 -0.1266  0.0037
 6091TIP3    H118237   3.404   0.462   2.487  0.4365  0.7552 -1.4583
 6091TIP3    H218238   3.259   0.420   2.502  1.2580 -1.5160  0.9522
 6092TIP3   OH218239   6.303   3.426   2.159  0.3870 -0.3154 -0.5721
 6092TIP3    H118240   6.382   3.374   2.177  0.5800  0.3099  0.5056
 6092TIP3    H218241   6.252   3.372   2.099  1.5313 -0.8296 -1.1231
 6093TIP3   OH218242   6.216   3.138   0.554 -0.5223 -0.1891  0.3670
 6093TIP3    H118243   6.177   3.201   0.493  0.4596 -0.0404 -0.1185
 6093TIP3    H218244   6.154   3.064   0.554 -1.4494  0.5634  0.5960
 6094TIP3   OH218245   5.046   2.382   5.204 -1.4643  0.3933 -0.2052
 6094TIP3    H118246   5.007   2.439   5.270  1.6129  0.8781  1.3703
 6094TIP3    H218247   5.128   2.425   5.181 -1.6836 -0.5530 -3.3153
 6095TIP3   OH218248   1.209   3.454   4.405 -0.0989 -0.7219 -0.1446
 6095TIP3    H118249   1.247   3.398   4.473 -0.6712 -1.2318 -0.2400
 6095TIP3    H218250   1.265   3.532   4.404  0.8476 -1.3909 -0.1741
 6096TIP3   OH218251   3.757   2.638   0.890 -0.2920  0.1177 -0.2162
 6096TIP3    H118252   3.847   2.625   0.861 -0.3534 -0.1132 -0.3019
 6096TIP3    H218253   3.729   2.552   0.922 -0.4101  0.2385  0.0109
 6097TIP3   OH218254   3.043   3.403   3.161  0.0922  0.1359 -0.4829
 6097TIP3    H118255   2.949   3.387   3.156 -0.0560  0.9154 -0.3026
 6097TIP3    H218256   3.072   3.401   3.070  0.1595 -1.5062 -0.4539
 6098TIP3   OH218257   1.430   2.385   2.499 -0.0926 -0.1624  0.3301
 6098TIP3    H118258   1.486   2.345   2.433  0.2103  0.7667  0.0087
 6098TIP3    H218259   1.342   2.360   2.474  0.0212  0.1636 -0.4165
 6099TIP3   OH218260   1.835   5.778   3.505  0.3410 -0.2351  0.7883
 6099TIP3    H118261   1.851   5.848   3.442 -0.5587 -1.4163 -0.8004
 6099TIP3    H218262   1.897   5.796   3.576  2.8989  0.0055 -1.3315
 6100TIP3   OH218263   5.410   4.766   4.305 -0.1929  0.7430 -0.6275
 6100TIP3    H118264   5.386   4.853   4.275 -0.0728  1.1890  0.5212
 6100TIP3    H218265   5.505   4.769   4.315 -0.0704  0.1731 -1.4878
 6101TIP3   OH218266   4.807   4.273   4.489  0.6835  0.0016  0.3857
 6101TIP3    H118267   4.751   4.348   4.508  0.0819 -0.4672  0.4855
 6101TIP3    H218268   4.884   4.311   4.445  0.7372  0.7561  1.1117
 6102TIP3   OH218269   2.478   3.612   0.672  0.0193 -0.2892 -0.2040
 6102TIP3    H118270   2.386   3.640   0.668 -0.2410 -1.1798 -0.6819
 6102TIP3    H218271   2.479   3.546   0.740  0.1318 -0.8878 -0.7779
 6103TIP3   OH218272   5.384   2.750   5.744 -0.5390 -0.5494 -0.1357
 6103TIP3    H118273   5.338   2.721   5.823 -0.9627 -0.2046 -0.2570
 6103TIP3    H218274   5.319   2.799   5.694 -0.5358 -1.4990 -1.1224
 6104TIP3   OH218275   5.420   5.766   3.645  0.0085  0.5220 -0.2513
 6104TIP3    H118276   5.436   5.697   3.710  2.5908  1.4319  0.1875
 6104TIP3    H218277   5.395   5.843   3.697 -4.9932 -0.3569 -0.8161
 6105TIP3   OH218278   4.381   4.681   2.443  0.6324  0.0431 -0.8574
 6105TIP3    H118279   4.397   4.654   2.533 -1.5089 -3.0132 -1.2468
 6105TIP3    H218280   4.327   4.759   2.451  3.1261  1.7737  0.3833
 6106TIP3   OH218281   0.723   4.458   2.367 -0.1970  0.9695  0.3311
 6106TIP3    H118282   0.788   4.445   2.298  1.1028  1.3741  1.4354
 6106TIP3    H218283   0.662   4.523   2.331  0.6788  1.4564 -0.3117
 6107TIP3   OH218284   4.044   5.034   3.722  0.0517 -0.5254  0.0605
 6107TIP3    H118285   3.955   5.034   3.759 -0.4225  0.4547 -1.0271
 6107TIP3    H218286   4.072   4.942   3.728 -0.9201 -0.7960  0.6780
 6108TIP3   OH218287   5.298   1.555   3.172  0.5319  0.4556  0.1859
 6108TIP3    H118288   5.308   1.550   3.077 -0.1567  1.0355  0.0723
 6108TIP3    H218289   5.204   1.551   3.186  0.5851  1.1330  0.7919
 6109TIP3   OH218290   5.694   6.601   5.372 -0.8575 -0.5163 -0.0288
 6109TIP3    H118291   5.759   6.650   5.322 -0.9242  0.1460  0.5268
 6109TIP3    H218292   5.740   6.523   5.401  0.2119  0.7125  1.7683
 6110TIP3   OH218293   0.303   2.800   2.491  0.5786  0.0686  0.1990
 6110TIP3    H118294   0.219   2.766   2.520  0.4490 -2.1769 -2.4173
 6110TIP3    H218295   0.282   2.856   2.416  1.3881 -0.9345 -0.8118
 6111TIP3   OH218296   4.267   3.712   5.192  0.2628 -0.2797  0.0321
 6111TIP3    H118297   4.363   3.712   5.183  0.7306  0.7054  3.4908
 6111TIP3    H218298   4.245   3.624   5.222  0.2045 -0.2496  0.0782
 6112TIP3   OH218299   0.477   3.971   4.520 -0.2230 -0.0933  0.3012
 6112TIP3    H118300   0.497   3.921   4.599 -0.1503  1.9286  1.6597
 6112TIP3    H218301   0.405   3.924   4.478 -0.3794 -1.1262  1.6607
 6113TIP3   OH218302   6.756   5.872   3.959  0.5839  0.1144  0.7166
 6113TIP3    H118303   6.841   5.908   3.934  0.4950 -0.1972 -0.0447
 6113TIP3    H218304   6.697   5.899   3.889 -0.3487  1.8263  2.0710
 6114TIP3   OH218305   2.235   4.439   1.721  0.0620 -0.1983 -0.6793
 6114TIP3    H118306   2.140   4.439   1.734  0.1477 -0.9901  0.0168
 6114TIP3    H218307   2.271   4.455   1.808  0.6068 -2.5143 -0.4229
 6115TIP3   OH218308   2.035   0.583   5.058  0.8386  0.0131 -0.4327
 6115TIP3    H118309   1.996   0.669   5.074  0.3802 -0.1165 -0.8239
 6115TIP3    H218310   1.964   0.521   5.078  0.4506 -0.1826 -2.2605
 6116TIP3   OH218311   2.428   2.850   2.128  0.2461 -0.5652 -0.0704
 6116TIP3    H118312   2.358   2.787   2.145 -0.3955  0.5244  1.7014
 6116TIP3    H218313   2.457   2.832   2.039 -1.2076 -2.0871 -0.2743
 6117TIP3   OH218314   6.854   3.141   5.418  0.0748  0.1246  0.0294
 6117TIP3    H118315   6.924   3.204   5.434 -0.2472  0.7352 -0.8703
 6117TIP3    H218316   6.805   3.137   5.500  0.4824  0.5680  0.2971
 6118TIP3   OH218317   2.623   6.012   5.812  0.2682  0.4064 -0.6962
 6118TIP3    H118318   2.651   5.965   5.733  1.6252  2.1029 -1.2855
 6118TIP3    H218319   2.695   6.072   5.831  0.6628 -0.9412  2.7524
 6119TIP3   OH218320   0.350   3.766   0.644 -0.1197 -0.0287 -0.1000
 6119TIP3    H118321   0.424   3.760   0.583 -1.0601 -1.2002 -1.1903
 6119TIP3    H218322   0.281   3.810   0.595 -0.1749  1.0587  0.9059
 6120TIP3   OH218323   4.901   4.574   2.336 -0.5035  0.5412 -0.6920
 6120TIP3    H118324   4.815   4.608   2.360 -0.6648  0.1667 -0.7319
 6120TIP3    H218325   4.888   4.532   2.251 -0.8198 -1.5562  0.3478
 6121TIP3   OH218326   2.179   0.911   5.295 -0.3594  0.0607  0.5850
 6121TIP3    H118327   2.100   0.857   5.304  0.0963 -0.6331  0.4775
 6121TIP3    H218328   2.146   1.001   5.288 -1.1705 -0.2636  0.1014
 6122TIP3   OH218329   4.067   0.585   0.159 -0.4914  0.7997 -0.1997
 6122TIP3    H118330   3.996   0.627   0.208  0.7817  0.7070  1.8821
 6122TIP3    H218331   4.145   0.634   0.185  0.2112  1.1894 -2.7813
 6123TIP3   OH218332   2.732   5.803   2.541  0.4386  0.3112  0.1936
 6123TIP3    H118333   2.810   5.760   2.506 -0.1079 -1.1745  0.6857
 6123TIP3    H218334   2.724   5.884   2.492  1.6947 -0.0170 -0.5900
 6124TIP3   OH218335   5.632   0.477   4.928 -0.0533 -0.4048 -0.1054
 6124TIP3    H118336   5.703   0.539   4.944 -0.1277 -0.4994  0.6536
 6124TIP3    H218337   5.677   0.397   4.899  0.0934 -0.2151 -0.4005
 6125TIP3   OH218338   2.205   2.679   2.167  0.3094 -0.4492 -0.0141
 6125TIP3    H118339   2.122   2.689   2.212 -0.1970  1.4844 -1.2442
 6125TIP3    H218340   2.218   2.584   2.160 -1.1248 -0.7748  1.3214
 6126TIP3   OH218341   0.399   2.289   3.007 -0.2056 -0.0681 -0.3063
 6126TIP3    H118342   0.355   2.283   2.921 -1.4844  0.7559  0.2602
 6126TIP3    H218343   0.336   2.335   3.062 -0.2274 -2.2565  1.6288
 6127TIP3   OH218344   0.707   1.018   3.397  0.5907 -0.5559  0.4609
 6127TIP3    H118345   0.772   1.083   3.370  0.2344  0.0971  1.1302
 6127TIP3    H218346   0.744   0.980   3.477  0.9953 -1.4958 -0.1504
 6128TIP3   OH218347   4.537   3.589   1.361  0.4621 -0.0658 -0.2716
 6128TIP3    H118348   4.571   3.502   1.381  0.5274 -0.2757 -1.2403
 6128TIP3    H218349   4.446   3.574   1.337  0.6737  0.0204 -1.1746
 6129TIP3   OH218350   4.440   4.002   0.950  0.6045 -0.1460  0.0064
 6129TIP3    H118351   4.456   3.969   0.861 -0.5194  0.9987 -0.6653
 6129TIP3    H218352   4.345   3.991   0.962  1.0817 -3.3442  2.3954
 6130TIP3   OH218353   2.923   1.783   4.931  0.4297  0.1676 -0.0460
 6130TIP3    H118354   2.849   1.778   4.871 -0.5854  0.1814  1.1641
 6130TIP3    H218355   2.987   1.839   4.886  0.3212 -1.0021 -1.7180
 6131TIP3   OH218356   1.897   2.378   3.183  0.3414 -0.3806 -0.0026
 6131TIP3    H118357   1.942   2.354   3.101 -0.7639  0.6050 -0.9336
 6131TIP3    H218358   1.884   2.472   3.176 -1.8170 -0.6275  0.2585
 6132TIP3   OH218359   5.366   4.821   5.716  0.5685  0.3076 -0.3108
 6132TIP3    H118360   5.415   4.760   5.772  1.4480  0.3962 -0.9633
 6132TIP3    H218361   5.358   4.776   5.632  0.1753  0.6111 -0.4407
 6133TIP3   OH218362   1.251   4.443   1.405 -0.0782 -0.1692  1.1869
 6133TIP3    H118363   1.234   4.407   1.492 -1.3059 -0.6278  0.7868
 6133TIP3    H218364   1.237   4.369   1.345 -0.0076  0.3216  0.5476
 6134TIP3   OH218365   5.217   6.496   0.868  0.4771 -0.6772 -0.2002
 6134TIP3    H118366   5.303   6.536   0.858 -0.1335  0.5526 -0.7723
 6134TIP3    H218367   5.230   6.404   0.845  1.7027 -0.5935  0.0934
 6135TIP3   OH218368   2.104   3.228   3.507 -0.0816 -0.4202 -0.2920
 6135TIP3    H118369   2.140   3.139   3.507 -1.2680 -0.9493 -2.0944
 6135TIP3    H218370   2.138   3.268   3.427  1.1286  1.0995  0.9215
 6136TIP3   OH218371   4.979   0.771   5.784 -0.1617 -0.2389 -0.9170
 6136TIP3    H118372   5.001   0.681   5.761  3.0400  0.1939 -0.0948
 6136TIP3    H218373   5.039   0.825   5.732 -1.5893  1.3933 -0.9547
 6137TIP3   OH218374   0.695   0.475   5.391 -0.0447  0.0427 -0.0188
 6137TIP3    H118375   0.602   0.467   5.413 -0.1528  0.6993 -0.2235
 6137TIP3    H218376   0.703   0.429   5.308 -0.4332  1.0256 -0.6144
 6138TIP3   OH218377   6.093   4.793   1.588 -0.0590 -0.4817  0.3226
 6138TIP3    H118378   6.067   4.774   1.678 -3.9535 -0.3343 -0.5945
 6138TIP3    H218379   6.112   4.708   1.550  2.3723 -0.4898  1.3707
 6139TIP3   OH218380   4.305   5.186   5.451  0.7816  0.1830 -0.3039
 6139TIP3    H118381   4.391   5.214   5.484 -0.4554  1.9172  1.6992
 6139TIP3    H218382   4.294   5.233   5.369  1.9070 -0.4246 -0.8294
 6140TIP3   OH218383   1.196   6.092   3.588 -0.2568  0.1413 -0.6551
 6140TIP3    H118384   1.192   6.043   3.506 -1.7878  1.7955 -1.6517
 6140TIP3    H218385   1.109   6.130   3.597 -0.3404 -0.5744  2.1603
 6141TIP3   OH218386   6.565   3.928   3.220  0.2806  0.2880 -0.3247
 6141TIP3    H118387   6.608   3.956   3.302  0.0637 -0.4833  0.0634
 6141TIP3    H218388   6.544   3.836   3.235 -1.7379  0.6995 -0.4128
 6142TIP3   OH218389   5.882   3.088   3.268  0.3460  0.0649  0.3512
 6142TIP3    H118390   5.817   3.021   3.250  1.3916 -1.6505  2.5113
 6142TIP3    H218391   5.848   3.135   3.345  0.4681  0.8521 -0.0614
 6143TIP3   OH218392   1.269   5.305   5.509 -0.1996 -0.3330 -0.5269
 6143TIP3    H118393   1.219   5.235   5.468  0.9368 -1.1399 -0.5967
 6143TIP3    H218394   1.212   5.338   5.578 -0.4379 -1.9564  0.1101
 6144TIP3   OH218395   4.889   4.220   4.743 -0.0989  0.3242  0.5444
 6144TIP3    H118396   4.880   4.307   4.779  0.2479  0.5356  0.1326
 6144TIP3    H218397   4.839   4.223   4.661  0.8409  0.4810 -0.0362
 6145TIP3   OH218398   5.883   0.565   5.823 -0.4542  0.0207  0.0661
 6145TIP3    H118399   5.872   0.584   5.730  1.4715  0.2933 -0.1476
 6145TIP3    H218400   5.826   0.490   5.839 -1.7196  0.7045 -1.0396
 6146TIP3   OH218401   6.327   0.606   3.199  0.2624 -0.0660  0.3440
 6146TIP3    H118402   6.418   0.598   3.169 -0.2006  0.2254 -1.2195
 6146TIP3    H218403   6.333   0.599   3.294  2.1817  2.0467  0.4846
 6147TIP3   OH218404   2.973   0.277   2.197 -0.0825 -0.7426  0.0062
 6147TIP3    H118405   2.902   0.233   2.244  0.3471 -0.8563  0.5675
 6147TIP3    H218406   2.960   0.370   2.216 -0.8827 -0.6330 -1.0290
 6148TIP3   OH218407   2.043   4.901   1.950  0.4226 -0.1584  0.5852
 6148TIP3    H118408   2.107   4.896   2.021  1.1199 -0.1192 -0.0262
 6148TIP3    H218409   2.078   4.969   1.892 -0.6868  0.5559  0.7410
 6149TIP3   OH218410   2.009   4.180   2.163 -0.4742  0.3261 -0.4675
 6149TIP3    H118411   1.968   4.150   2.244 -0.1867  1.8269  0.2699
 6149TIP3    H218412   2.080   4.117   2.148 -1.3058 -0.6968 -0.2650
 6150TIP3   OH218413   5.695   6.683   2.023  0.2514 -0.1492  0.1110
 6150TIP3    H118414   5.634   6.756   2.014 -0.8650 -0.9505  0.8741
 6150TIP3    H218415   5.654   6.625   2.087  0.0515 -2.4911 -1.9591
 6151TIP3   OH218416   3.816   1.542   3.710 -0.6484 -0.3714  0.0133
 6151TIP3    H118417   3.885   1.480   3.688  0.4565  0.9517 -0.3622
 6151TIP3    H218418   3.774   1.563   3.627  0.3685  0.9493 -0.2046
 6152TIP3   OH218419   5.057   0.727   4.383  0.3093  0.2044 -0.3868
 6152TIP3    H118420   5.123   0.769   4.328  1.8983  0.5101  1.6372
 6152TIP3    H218421   5.074   0.633   4.373  0.2865  0.2312 -0.7160
 6153TIP3   OH218422   2.222   2.975   5.077  0.1283  0.4358  0.4564
 6153TIP3    H118423   2.227   3.067   5.102  0.9450  0.4521  0.2519
 6153TIP3    H218424   2.173   2.934   5.148  2.9167  0.3744  2.5102
 6154TIP3   OH218425   0.509   1.931   2.974 -0.3019 -0.0656 -0.6847
 6154TIP3    H118426   0.591   1.887   2.950 -0.2666  0.5900 -1.7966
 6154TIP3    H218427   0.537   2.004   3.029 -0.1303  0.1906 -1.1090
 6155TIP3   OH218428   0.464   3.266   5.726 -0.3490  0.5180  0.1723
 6155TIP3    H118429   0.460   3.173   5.705  0.4125  0.2175  1.2493
 6155TIP3    H218430   0.449   3.311   5.643  1.8205 -0.5772 -0.8751
 6156TIP3   OH218431   0.669   6.329   0.640  0.0864 -0.3314 -0.4080
 6156TIP3    H118432   0.585   6.298   0.605  0.1196 -0.3828 -0.4427
 6156TIP3    H218433   0.732   6.309   0.571  0.0563  0.1101 -0.5636
 6157TIP3   OH218434   4.730   2.472   5.776 -0.1008  0.1852  0.1831
 6157TIP3    H118435   4.691   2.559   5.772 -2.9555 -1.0181 -0.7354
 6157TIP3    H218436   4.812   2.480   5.727 -0.9925  2.0294 -1.1122
 6158TIP3   OH218437   1.361   3.708   4.362 -0.2343 -0.2044  0.1732
 6158TIP3    H118438   1.292   3.755   4.313 -0.8740 -1.9755 -0.7287
 6158TIP3    H218439   1.439   3.717   4.307 -0.2578  0.0897  0.1847
 6159TIP3   OH218440   5.016   1.472   4.587  0.3617 -0.2309 -0.2142
 6159TIP3    H118441   5.076   1.544   4.569  0.4728 -0.0119  0.9402
 6159TIP3    H218442   4.932   1.515   4.603  0.1633 -0.4493 -0.6566
 6160TIP3   OH218443   4.040   5.131   1.749  0.2686  0.5191  0.4330
 6160TIP3    H118444   4.031   5.113   1.842 -0.3434  0.0921  0.3013
 6160TIP3    H218445   3.999   5.055   1.706 -2.0093  1.9948 -0.1643
 6161TIP3   OH218446   5.496   6.596   0.775 -0.0928 -0.9219  0.2945
 6161TIP3    H118447   5.471   6.599   0.682 -2.1840  1.4799  0.8093
 6161TIP3    H218448   5.592   6.588   0.774 -0.1729 -2.6064 -1.9947
 6162TIP3   OH218449   5.706   3.680   2.271  0.1641 -0.8123  0.3478
 6162TIP3    H118450   5.671   3.616   2.333 -1.2588  1.1800  1.7250
 6162TIP3    H218451   5.646   3.677   2.197  0.4495 -1.4824  0.1414
 6163TIP3   OH218452   1.550   6.794   5.009 -0.1351 -0.2912  0.0104
 6163TIP3    H118453   1.524   6.717   5.060  1.0360 -0.5512  0.2340
 6163TIP3    H218454   1.535   6.768   4.918  0.2416 -0.7944  0.0843
 6164TIP3   OH218455   6.572   3.335   1.882  0.0773  0.2670 -0.2921
 6164TIP3    H118456   6.478   3.333   1.902  0.2059  0.0401  0.2996
 6164TIP3    H218457   6.587   3.424   1.848 -0.2707  0.4440  0.0041
 6165TIP3   OH218458   7.045   0.350   5.420 -0.4444  0.0450  0.4793
 6165TIP3    H118459   7.054   0.315   5.332 -1.1054 -0.8820  0.7553
 6165TIP3    H218460   7.101   0.427   5.422 -1.5242  0.9218 -1.1866
 6166TIP3   OH218461   1.982   2.644   0.571  0.6773 -0.1037 -0.0098
 6166TIP3    H118462   2.077   2.652   0.575  0.7935  0.0505 -1.9774
 6166TIP3    H218463   1.965   2.551   0.588  1.0755  0.0155  1.1747
 6167TIP3   OH218464   6.073   1.740   5.581 -0.3129  0.2300  0.5828
 6167TIP3    H118465   6.137   1.768   5.646 -0.4367  1.1764  0.3175
 6167TIP3    H218466   6.041   1.821   5.543  1.0840 -0.3004 -1.9578
 6168TIP3   OH218467   4.962   3.337   3.935 -0.5120  0.4149  0.3074
 6168TIP3    H118468   4.920   3.258   3.900  1.0921  0.1635 -1.1446
 6168TIP3    H218469   4.962   3.323   4.030  0.1773 -1.5936  0.0616
 6169TIP3   OH218470   2.595   5.748   3.975  0.4913 -0.6508 -0.2936
 6169TIP3    H118471   2.513   5.797   3.962  0.6519 -0.0249  0.9184
 6169TIP3    H218472   2.579   5.664   3.932 -0.5665 -0.3163 -0.6016
 6170TIP3   OH218473   3.688   0.488   4.774  0.1208  0.3359 -0.5323
 6170TIP3    H118474   3.757   0.423   4.789 -0.6658 -0.1637  1.1452
 6170TIP3    H218475   3.728   0.572   4.795  0.1515  0.0146  0.7946
 6171TIP3   OH218476   2.937   5.298   5.246  0.1045 -0.1284 -0.0101
 6171TIP3    H118477   3.021   5.276   5.207  0.3830 -0.6943  0.8636
 6171TIP3    H218478   2.926   5.391   5.230  0.4807 -0.2227 -0.8881
 6172TIP3   OH218479   4.980   2.519   1.127 -0.2761  0.2796  0.1428
 6172TIP3    H118480   5.061   2.535   1.175 -0.2848  0.8537 -0.0324
 6172TIP3    H218481   5.008   2.510   1.036 -0.3190 -0.3136  0.1846
 6173TIP3   OH218482   5.467   0.152   2.125  0.1478  0.2200  0.2915
 6173TIP3    H118483   5.494   0.211   2.054 -0.5587  0.2058  0.0038
 6173TIP3    H218484   5.404   0.203   2.175 -1.2226 -0.6078 -0.5317
 6174TIP3   OH218485   0.261   6.734   0.658  0.3467 -0.2363 -0.3065
 6174TIP3    H118486   0.339   6.774   0.695 -2.1076  2.3958  2.6293
 6174TIP3    H218487   0.231   6.673   0.726  0.5733 -2.4026 -2.0450
 6175TIP3   OH218488   3.838   2.814   1.534  0.3352  0.2108  0.7734
 6175TIP3    H118489   3.744   2.801   1.524  0.6610 -1.0400 -1.1517
 6175TIP3    H218490   3.846   2.895   1.585 -1.7725  2.2843 -1.9126
 6176TIP3   OH218491   0.663   3.865   4.339 -0.0507  0.2456  0.0085
 6176TIP3    H118492   0.592   3.868   4.403  0.1739 -0.4987  0.3134
 6176TIP3    H218493   0.669   3.772   4.315 -0.2802  0.5398 -1.2697
 6177TIP3   OH218494   1.304   2.852   3.106 -0.9550 -0.0702 -0.1240
 6177TIP3    H118495   1.227   2.888   3.150 -0.9443  0.5054 -0.5659
 6177TIP3    H218496   1.286   2.864   3.013  1.0371  3.0928 -0.2417
 6178TIP3   OH218497   2.727   2.075   5.827  0.2665  0.0550  0.0251
 6178TIP3    H118498   2.664   2.135   5.867  0.2598 -0.7340  1.2531
 6178TIP3    H218499   2.680   2.038   5.752  0.5948  2.2224 -1.3374
 6179TIP3   OH218500   0.524   1.277   2.350  0.0859 -0.5237 -0.3613
 6179TIP3    H118501   0.567   1.229   2.421  3.2740 -1.0160 -2.4238
 6179TIP3    H218502   0.450   1.221   2.326 -1.4221 -0.0801  2.7902
 6180TIP3   OH218503   3.526   6.312   5.283 -0.3764  0.2302  0.2823
 6180TIP3    H118504   3.575   6.378   5.235  0.3719 -0.9009 -0.5753
 6180TIP3    H218505   3.567   6.229   5.258 -3.1502 -0.8713 -1.0128
 6181TIP3   OH218506   5.445   1.641   4.404  0.0039  0.3433 -0.3317
 6181TIP3    H118507   5.463   1.549   4.384 -0.8881  0.2543 -0.7953
 6181TIP3    H218508   5.531   1.682   4.408  0.3656 -0.3174 -1.0712
 6182TIP3   OH218509   1.027   4.575   3.848 -0.1552  0.0289 -0.4645
 6182TIP3    H118510   0.988   4.488   3.854  2.1205 -1.0472 -0.2285
 6182TIP3    H218511   0.960   4.628   3.804 -1.2551 -2.0586 -1.4891
 6183TIP3   OH218512   4.783   2.399   2.857 -0.2032 -0.0387  0.1680
 6183TIP3    H118513   4.822   2.351   2.929  0.5611 -0.5215 -0.5485
 6183TIP3    H218514   4.778   2.489   2.887 -2.8215 -0.6931  2.0378
 6184TIP3   OH218515   3.309   1.912   4.886 -0.3505 -0.2684  0.4776
 6184TIP3    H118516   3.227   1.891   4.842 -0.2900  0.3748  0.0552
 6184TIP3    H218517   3.331   1.832   4.934 -1.6842 -0.1648  1.3319
 6185TIP3   OH218518   5.930   0.526   1.764  0.5055 -0.4757 -0.3160
 6185TIP3    H118519   5.981   0.448   1.741 -0.8040 -1.5145  0.1101
 6185TIP3    H218520   5.863   0.530   1.696 -0.1319 -0.4098  0.3064
 6186TIP3   OH218521   2.224   5.882   0.121 -0.1578  0.0586 -0.3212
 6186TIP3    H118522   2.282   5.916   0.052 -0.5917 -2.0888 -1.8316
 6186TIP3    H218523   2.281   5.874   0.197  1.5306 -1.6273 -1.6617
 6187TIP3   OH218524   6.114   2.664   3.141  0.3437 -0.3641 -0.4945
 6187TIP3    H118525   6.053   2.610   3.090  1.5249 -1.3006 -0.9728
 6187TIP3    H218526   6.197   2.656   3.094  1.3417 -0.8224  1.2754
 6188TIP3   OH218527   6.033   3.724   1.727 -0.0118  0.1671 -0.3290
 6188TIP3    H118528   5.992   3.777   1.659 -0.7723  1.0409  0.7667
 6188TIP3    H218529   6.106   3.778   1.758 -1.0166  0.7993  1.0527
 6189TIP3   OH218530   0.651   4.292   4.091 -0.3506  0.4759  0.8462
 6189TIP3    H118531   0.565   4.254   4.070 -0.4770  0.6473  1.0471
 6189TIP3    H218532   0.679   4.333   4.010  0.2526 -0.9097  0.3133
 6190TIP3   OH218533   5.647   3.903   4.628 -0.5819  0.5315 -0.2401
 6190TIP3    H118534   5.594   3.980   4.609  0.8241  1.3763 -0.9356
 6190TIP3    H218535   5.584   3.831   4.636 -1.9551  1.8016  0.7731
 6191TIP3   OH218536   1.561   1.520   1.025  0.3533 -0.1093 -0.0556
 6191TIP3    H118537   1.537   1.443   0.973 -1.4268 -0.5210  1.2590
 6191TIP3    H218538   1.604   1.579   0.963  1.6304 -2.0812 -1.1173
 6192TIP3   OH218539   5.733   5.608   1.764 -0.1828 -0.4564  0.0283
 6192TIP3    H118540   5.640   5.629   1.764 -0.2681 -0.7399  1.4746
 6192TIP3    H218541   5.773   5.678   1.712 -0.7610  1.9763  2.5961
 6193TIP3   OH218542   1.905   0.630   0.732  0.3015 -0.0763  0.4560
 6193TIP3    H118543   2.000   0.635   0.737  0.5601 -3.6283  1.3872
 6193TIP3    H218544   1.888   0.562   0.667 -1.6146  0.2214  0.5950
 6194TIP3   OH218545   0.823   5.980   2.505 -0.4269  0.2160 -0.1743
 6194TIP3    H118546   0.843   6.052   2.564 -1.0461  0.6318 -0.4683
 6194TIP3    H218547   0.825   6.019   2.417  0.9332 -0.4865 -0.4907
 6195TIP3   OH218548   6.519   0.565   5.117 -0.8745 -0.3615  0.2021
 6195TIP3    H118549   6.507   0.476   5.083 -2.7448 -0.5451  1.1992
 6195TIP3    H218550   6.601   0.561   5.166  0.5024 -0.7684 -2.0411
 6196TIP3   OH218551   5.251   0.615   5.548 -0.0781 -0.5308 -0.1160
 6196TIP3    H118552   5.331   0.669   5.546  0.1437 -0.8703 -0.9968
 6196TIP3    H218553   5.185   0.669   5.505 -0.7748  0.3878  1.9655
 6197TIP3   OH218554   6.079   0.892   2.154 -0.6971  0.0974 -0.8513
 6197TIP3    H118555   6.139   0.891   2.079  0.0724  0.4398 -0.2606
 6197TIP3    H218556   6.132   0.927   2.226 -1.0331 -1.4336  0.1727
 6198TIP3   OH218557   2.617   3.207   0.856 -0.1276  0.7384 -0.1814
 6198TIP3    H118558   2.687   3.223   0.793  0.2312  3.8129  0.8538
 6198TIP3    H218559   2.538   3.203   0.802  0.0984  3.9098 -0.9133
 6199TIP3   OH218560   2.330   4.019   1.351 -0.1412  0.4348 -0.1872
 6199TIP3    H118561   2.346   4.081   1.422  1.6770  0.4249 -0.5606
 6199TIP3    H218562   2.306   4.074   1.276 -0.5202  0.5358  0.0015
 6200TIP3   OH218563   6.054   4.187   3.540 -0.5280 -0.2125  0.4122
 6200TIP3    H118564   6.071   4.278   3.515  1.5464 -0.4826  0.6221
 6200TIP3    H218565   5.995   4.153   3.472  0.4189  0.6888 -0.9176
 6201TIP3   OH218566   4.660   5.599   1.756  0.3276  0.5667  0.3167
 6201TIP3    H118567   4.631   5.653   1.683 -0.7616  0.7150  0.8376
 6201TIP3    H218568   4.755   5.591   1.744  0.0029 -0.8185 -2.0510
 6202TIP3   OH218569   6.053   5.799   4.757  0.1367 -0.1727  0.4410
 6202TIP3    H118570   6.061   5.845   4.841  1.0863  0.3462  0.0935
 6202TIP3    H218571   6.140   5.761   4.742  0.2882  0.5849 -0.7678
 6203TIP3   OH218572   2.570   5.615   0.260  0.1485  0.6119 -0.1273
 6203TIP3    H118573   2.557   5.605   0.165 -0.0750 -1.0903  0.0421
 6203TIP3    H218574   2.645   5.558   0.279 -0.0154  0.6910  0.7660
 6204TIP3   OH218575   4.715   2.996   3.512 -0.8497  0.1878 -0.1496
 6204TIP3    H118576   4.759   2.933   3.570 -1.2515  0.5027  0.5108
 6204TIP3    H218577   4.622   2.985   3.532 -0.9679  0.5162 -0.5203
 6205TIP3   OH218578   5.284   5.791   3.243 -0.3939 -0.3340 -0.6305
 6205TIP3    H118579   5.210   5.821   3.296 -0.0307 -0.5941  0.0442
 6205TIP3    H218580   5.293   5.698   3.265  0.5320 -0.1586 -0.1987
 6206TIP3   OH218581   1.528   4.793   5.326  0.2412 -0.1077  0.0110
 6206TIP3    H118582   1.472   4.795   5.248 -0.9172  0.6059  0.8224
 6206TIP3    H218583   1.539   4.700   5.346 -0.1362 -0.2752 -0.5339
 6207TIP3   OH218584   1.061   6.476   4.456 -0.3214 -0.4053  0.0794
 6207TIP3    H118585   1.056   6.439   4.367 -1.0287  0.2538 -0.1729
 6207TIP3    H218586   0.969   6.493   4.479 -0.0114  1.5367  0.0183
 6208TIP3   OH218587   4.409   2.166   1.575  0.2083  0.0090 -0.0185
 6208TIP3    H118588   4.318   2.142   1.558 -0.3601  0.4793  2.0917
 6208TIP3    H218589   4.411   2.262   1.565  0.5004 -0.0111 -0.1717
 6209TIP3   OH218590   0.383   1.709   2.872 -0.4501 -0.5039  0.7019
 6209TIP3    H118591   0.400   1.797   2.904  0.1031 -0.1424 -0.5478
 6209TIP3    H218592   0.450   1.655   2.914  0.3495 -0.0138  0.0906
 6210TIP3   OH218593   1.029   1.203   3.913 -0.0792  0.6303  0.2360
 6210TIP3    H118594   0.969   1.214   3.988 -2.2513  1.5175 -1.5165
 6210TIP3    H218595   1.002   1.121   3.873  2.1981 -0.7277  1.2765
 6211TIP3   OH218596   6.872   6.556   3.255  0.4058  0.1371 -0.7576
 6211TIP3    H118597   6.833   6.485   3.305 -3.5039  0.6928 -2.6451
 6211TIP3    H218598   6.901   6.619   3.320  1.5880 -1.9330  0.8556
 6212TIP3   OH218599   7.040   5.148   4.210  0.0236 -0.2321 -0.3723
 6212TIP3    H118600   7.000   5.233   4.229  1.7826  1.0572 -2.0232
 6212TIP3    H218601   6.976   5.103   4.155 -0.4693  0.4944 -0.4048
 6213TIP3   OH218602   4.022   1.287   0.457  0.3729  0.0632 -0.2930
 6213TIP3    H118603   3.967   1.226   0.506  1.2278  0.2511  0.9410
 6213TIP3    H218604   4.099   1.300   0.512  1.8105 -0.4086 -2.0991
 6214TIP3   OH218605   1.490   6.305   2.160 -0.0657 -0.3586  0.0254
 6214TIP3    H118606   1.571   6.324   2.207  1.1177 -0.6027 -1.8416
 6214TIP3    H218607   1.442   6.388   2.162  1.0463  0.3125 -0.4015
 6215TIP3   OH218608   2.930   1.620   1.527  0.3456 -0.4281 -0.1253
 6215TIP3    H118609   2.930   1.631   1.622 -0.9314 -2.3631  0.1480
 6215TIP3    H218610   2.946   1.708   1.492  0.2251  0.4192  1.8620
 6216TIP3   OH218611   7.125   5.075   2.111 -0.0696  0.1465  0.2453
 6216TIP3    H118612   7.158   5.056   2.199  0.8312 -0.2126 -0.1508
 6216TIP3    H218613   7.059   5.008   2.096  0.4920 -0.4253  0.2715
 6217TIP3   OH218614   1.642   1.377   5.349  0.5562  0.2924 -0.3595
 6217TIP3    H118615   1.619   1.448   5.409  0.2093 -2.0371  2.5010
 6217TIP3    H218616   1.724   1.343   5.383 -1.1264 -3.0179  0.7942
 6218TIP3   OH218617   1.577   4.219   2.284 -0.0881 -0.0890 -0.5714
 6218TIP3    H118618   1.499   4.275   2.281 -0.8784 -1.1874 -1.0888
 6218TIP3    H218619   1.618   4.229   2.198  0.5916  0.8044 -0.1599
 6219TIP3   OH218620   3.062   3.423   2.225 -0.6835 -0.2542 -0.2715
 6219TIP3    H118621   2.981   3.409   2.274 -0.6932  0.7993  0.0413
 6219TIP3    H218622   3.063   3.517   2.207  0.9102 -0.0957  0.4971
 6220TIP3   OH218623   0.813   2.389   2.232 -0.1491  0.0188  0.0814
 6220TIP3    H118624   0.782   2.299   2.223  1.3189 -0.5427  0.2489
 6220TIP3    H218625   0.736   2.443   2.215 -1.4648 -1.2814  1.5794
 6221TIP3   OH218626   3.412   3.006   4.455 -0.3601  0.0122 -0.2764
 6221TIP3    H118627   3.320   2.986   4.439 -0.4572  0.6917 -0.6211
 6221TIP3    H218628   3.451   3.010   4.368  0.2676 -1.4292 -0.0894
 6222TIP3   OH218629   0.096   6.388   4.942 -0.1654 -0.2276  0.2987
 6222TIP3    H118630   0.107   6.415   5.033 -0.1947 -0.7194  0.4503
 6222TIP3    H218631   0.130   6.462   4.891  2.0285 -0.8825  0.7147
 6223TIP3   OH218632   0.447   6.665   1.422 -0.1690 -0.1460  0.8760
 6223TIP3    H118633   0.496   6.598   1.471  1.2838  0.1686 -0.0805
 6223TIP3    H218634   0.445   6.741   1.480  0.2454 -0.2529  1.0332
 6224TIP3   OH218635   5.698   1.750   5.762 -0.5636 -0.3569 -0.3669
 6224TIP3    H118636   5.659   1.698   5.691  0.2740 -0.6252 -0.6341
 6224TIP3    H218637   5.730   1.829   5.719 -0.7457 -0.1653 -0.1540
 6225TIP3   OH218638   3.858   3.461   1.288  0.3737 -0.1353 -0.5664
 6225TIP3    H118639   3.802   3.393   1.324  0.4364  0.6169  1.0102
 6225TIP3    H218640   3.942   3.450   1.333  0.0258  1.7052  0.6334
 6226TIP3   OH218641   1.830   3.820   0.776 -0.4344 -0.2309 -0.0867
 6226TIP3    H118642   1.894   3.890   0.764 -1.5822  1.5174  2.8961
 6226TIP3    H218643   1.882   3.742   0.795  0.8574 -0.1707 -2.9098
 6227TIP3   OH218644   2.190   3.766   5.597  0.1468  0.3408  0.3879
 6227TIP3    H118645   2.154   3.843   5.554 -0.9570 -0.1050  0.4677
 6227TIP3    H218646   2.218   3.797   5.683 -0.6158  0.5925  0.5547
 6228TIP3   OH218647   0.704   3.773   1.583  0.1277  0.1690  0.4345
 6228TIP3    H118648   0.787   3.805   1.620  0.4773  0.3196 -0.4583
 6228TIP3    H218649   0.651   3.750   1.660  1.5999 -1.5168  1.0260
 6229TIP3   OH218650   6.652   4.459   1.957 -0.6922 -0.3272 -0.1352
 6229TIP3    H118651   6.725   4.414   1.913 -0.8228 -1.0667  0.4010
 6229TIP3    H218652   6.685   4.548   1.972 -0.3426 -0.3061 -0.9799
 6230TIP3   OH218653   4.019   3.829   4.641 -0.2360 -0.2414  0.1520
 6230TIP3    H118654   4.068   3.833   4.723  0.8518 -1.3257 -0.3945
 6230TIP3    H218655   4.061   3.893   4.584  0.3502 -0.9186 -0.1998
 6231TIP3   OH218656   4.439   4.612   2.694  0.3670  0.1087  0.5120
 6231TIP3    H118657   4.509   4.619   2.759  0.6671 -0.8542  0.3013
 6231TIP3    H218658   4.399   4.527   2.710 -0.8978  0.7130  0.7499
 6232TIP3   OH218659   2.874   3.010   2.839 -0.2958 -0.2184  0.5641
 6232TIP3    H118660   2.899   2.922   2.809 -1.5586  0.0224 -1.3692
 6232TIP3    H218661   2.887   3.066   2.763 -0.4281  1.1193  1.4911
 6233TIP3   OH218662   2.413   5.151   2.386 -0.5187  0.1139 -0.4823
 6233TIP3    H118663   2.352   5.225   2.387 -1.0752 -0.3339  0.4248
 6233TIP3    H218664   2.408   5.117   2.297 -0.1175  1.2663 -0.9726
 6234TIP3   OH218665   4.884   3.246   2.929  0.0198 -0.0011  0.2392
 6234TIP3    H118666   4.805   3.210   2.888  0.4474  0.3307 -0.9249
 6234TIP3    H218667   4.855   3.329   2.967 -0.2835 -0.0717  0.1632
 6235TIP3   OH218668   2.756   0.100   3.029  0.2046  0.1137 -0.4107
 6235TIP3    H118669   2.835   0.147   3.055  0.6809 -0.4971 -0.7432
 6235TIP3    H218670   2.716   0.072   3.112 -0.8289  2.2487 -0.1170
 6236TIP3   OH218671   0.436   6.342   3.009  0.0671  0.4141 -0.0836
 6236TIP3    H118672   0.383   6.343   2.929  0.0755  0.5520 -0.0874
 6236TIP3    H218673   0.402   6.268   3.059 -0.4436  0.7839  0.1229
 6237TIP3   OH218674   2.876   2.258   0.896 -0.1642  0.4387  0.3521
 6237TIP3    H118675   2.961   2.299   0.880  0.1461 -0.4465 -0.3217
 6237TIP3    H218676   2.818   2.296   0.829 -0.0376  0.2757  0.1474
 6238TIP3   OH218677   6.534   0.683   1.676  0.2980  0.0877  0.4103
 6238TIP3    H118678   6.511   0.598   1.638 -0.2727 -0.0797  1.1293
 6238TIP3    H218679   6.605   0.715   1.620 -0.2021 -0.3775 -0.5117
 6239TIP3   OH218680   5.825   2.602   4.013  0.0188  0.1792 -0.3918
 6239TIP3    H118681   5.892   2.643   3.958 -0.3084  1.0756 -0.1377
 6239TIP3    H218682   5.742   2.636   3.979 -0.3372 -1.0569 -0.8158
 6240TIP3   OH218683   5.718   2.887   3.194  0.0916 -0.2239 -0.1146
 6240TIP3    H118684   5.720   2.810   3.251 -2.5720 -0.6612 -0.4600
 6240TIP3    H218685   5.726   2.852   3.106 -1.8473 -0.2541 -0.3209
 6241TIP3   OH218686   5.039   4.388   4.376  0.0095 -0.3425 -0.0108
 6241TIP3    H118687   5.024   4.337   4.296  0.7114 -1.6656  0.6840
 6241TIP3    H218688   5.050   4.478   4.345  1.4435 -1.0010 -1.5386
 6242TIP3   OH218689   3.910   4.778   4.964 -0.6123  0.0797 -0.2318
 6242TIP3    H118690   3.831   4.812   4.923  0.2126  0.8702 -1.2279
 6242TIP3    H218691   3.889   4.770   5.057 -1.4641  1.4406 -0.2892
 6243TIP3   OH218692   0.051   5.688   0.274 -0.5468 -0.1683 -0.1531
 6243TIP3    H118693   0.140   5.665   0.299 -0.5652  1.4362  1.6251
 6243TIP3    H218694  -0.005   5.630   0.325 -0.5556 -1.0483 -1.1302
 6244TIP3   OH218695   0.213   4.476   0.463  0.4651  0.3178  0.3265
 6244TIP3    H118696   0.159   4.531   0.407 -0.6542 -0.2596  0.8075
 6244TIP3    H218697   0.250   4.537   0.527  0.9611  0.8229 -0.4268
 6245TIP3   OH218698   0.848   6.114   1.092 -0.4005 -0.2609 -0.7402
 6245TIP3    H118699   0.769   6.108   1.146 -0.8584 -1.1897 -1.4725
 6245TIP3    H218700   0.816   6.149   1.008  0.1910  0.5843 -0.6167
 6246TIP3   OH218701   5.707   2.539   4.337  0.0411 -0.4031 -0.7353
 6246TIP3    H118702   5.703   2.444   4.329  1.8065 -0.4230 -2.0562
 6246TIP3    H218703   5.798   2.558   4.362 -0.3410  0.9216 -0.2449
 6247TIP3   OH218704   1.479   3.991   4.175  0.4981  0.1316  0.1165
 6247TIP3    H118705   1.456   3.985   4.268 -0.6386 -0.6619 -0.1924
 6247TIP3    H218706   1.532   3.913   4.158  3.2361  1.7240  0.7180
 6248TIP3   OH218707   6.629   5.728   5.140 -0.3991  0.4832 -0.3571
 6248TIP3    H118708   6.671   5.814   5.134  2.1846 -0.7048 -0.5503
 6248TIP3    H218709   6.701   5.666   5.143 -2.1837 -1.7172 -0.1711
 6249TIP3   OH218710   6.497   2.477   0.365  0.9683 -0.3740 -0.2018
 6249TIP3    H118711   6.491   2.561   0.319 -0.0806  0.8578  1.9920
 6249TIP3    H218712   6.414   2.471   0.412  2.2593 -1.1564  2.0849
 6250TIP3   OH218713   2.493   5.973   0.064 -0.0407  0.5388 -0.2581
 6250TIP3    H118714   2.541   5.904   0.019 -0.8566  0.1599 -0.5690
 6250TIP3    H218715   2.560   6.023   0.110  0.4854 -1.0319  0.7637
 6251TIP3   OH218716   5.899   0.106   1.297 -0.2469  0.2700  0.3185
 6251TIP3    H118717   5.905   0.084   1.204 -0.2565  1.7825 -0.0794
 6251TIP3    H218718   5.917   0.024   1.343 -0.1640 -0.4865 -1.0134
 6252TIP3   OH218719   0.096   5.635   2.221 -0.0569 -0.1436 -0.2658
 6252TIP3    H118720   0.153   5.711   2.206 -1.7692  0.8971 -2.0132
 6252TIP3    H218721   0.069   5.644   2.312 -1.6813  2.5058 -0.9006
 6253TIP3   OH218722   5.366   0.311   4.716  0.3622  0.7532 -0.1405
 6253TIP3    H118723   5.379   0.380   4.782  1.4749  1.5350 -1.1204
 6253TIP3    H218724   5.433   0.246   4.737 -1.8401 -1.0492  1.9184
 6254TIP3   OH218725   1.555   4.652   0.735  0.7587  0.0263 -0.1295
 6254TIP3    H118726   1.561   4.674   0.828  0.3384 -0.3439 -0.0151
 6254TIP3    H218727   1.610   4.718   0.692  0.7479  0.3583  0.3540
 6255TIP3   OH218728   6.117   2.174   4.398 -0.0572 -0.3219 -0.4135
 6255TIP3    H118729   6.182   2.244   4.392 -1.4546  0.9919 -0.6027
 6255TIP3    H218730   6.143   2.124   4.476  0.1858  1.2207  0.5247
 6256TIP3   OH218731   4.313   4.472   3.347 -0.0889  0.1765  0.3628
 6256TIP3    H118732   4.224   4.496   3.319 -0.3181 -0.9663  0.0648
 6256TIP3    H218733   4.300   4.414   3.422  0.4123  0.0368  0.3455
 6257TIP3   OH218734   0.558   0.462   4.482  0.0605 -0.1123 -0.5267
 6257TIP3    H118735   0.643   0.476   4.526  0.3105  0.5915 -1.2037
 6257TIP3    H218736   0.558   0.369   4.458  0.4374 -0.2255 -0.0963
 6258TIP3   OH218737   4.934   4.416   5.425  0.4095  0.6711 -0.2826
 6258TIP3    H118738   4.906   4.506   5.413  1.9155  1.0618 -1.1070
 6258TIP3    H218739   4.853   4.366   5.432 -0.4594  1.9575 -0.8518
 6259TIP3   OH218740   4.499   4.838   5.840 -0.0104  0.2849  0.1953
 6259TIP3    H118741   4.448   4.775   5.790  0.4271 -0.7720  1.0526
 6259TIP3    H218742   4.472   4.824   5.931  0.1226  1.3129  0.4041
 6260TIP3   OH218743   5.929   1.134   4.298  0.2879 -0.0834 -0.2220
 6260TIP3    H118744   5.871   1.136   4.222 -1.5353 -0.1321  1.1063
 6260TIP3    H218745   5.991   1.205   4.284 -0.5776  0.4669 -1.3337
 6261TIP3   OH218746   3.700   5.254   0.606  0.6219  0.4696 -0.2381
 6261TIP3    H118747   3.649   5.253   0.687  0.7056  0.6288 -0.1839
 6261TIP3    H218748   3.783   5.211   0.629  0.1686 -0.6268 -0.5543
 6262TIP3   OH218749   3.740   0.736   2.291 -0.3948  0.6277 -0.0219
 6262TIP3    H118750   3.731   0.822   2.331 -1.0209  1.5102 -1.9375
 6262TIP3    H218751   3.650   0.703   2.284 -0.3330  0.6379 -0.9630
 6263TIP3   OH218752   2.276   3.337   3.313 -0.0583 -0.5448 -0.1702
 6263TIP3    H118753   2.334   3.406   3.344 -1.5195  0.0764  1.3193
 6263TIP3    H218754   2.327   3.292   3.245  2.5277 -0.6559  1.7007
 6264TIP3   OH218755   5.925   1.508   0.198  0.1606  0.1533  0.0005
 6264TIP3    H118756   6.010   1.472   0.174  0.2969  0.9513 -0.7718
 6264TIP3    H218757   5.905   1.571   0.128 -0.9750  0.1159  0.2709
 6265TIP3   OH218758   4.691   6.119   4.778 -0.0447  0.2003 -0.6263
 6265TIP3    H118759   4.651   6.201   4.806  2.3398  1.3011 -0.1192
 6265TIP3    H218760   4.749   6.095   4.851 -0.4420 -1.7927 -0.9097
 6266TIP3   OH218761   3.736   0.528   3.506 -0.1796  0.3212 -0.5126
 6266TIP3    H118762   3.770   0.466   3.441 -0.5423  1.2727 -1.6530
 6266TIP3    H218763   3.641   0.522   3.499 -0.3162 -1.4771  1.8457
 6267TIP3   OH218764   4.187   0.457   4.900  0.0480 -0.0824  0.7312
 6267TIP3    H118765   4.122   0.389   4.918 -0.7066  0.7664  1.3042
 6267TIP3    H218766   4.199   0.501   4.984  0.6767  0.3771  0.4095
 6268TIP3   OH218767   3.794   4.093   3.130 -0.0684  0.4843 -0.2267
 6268TIP3    H118768   3.712   4.131   3.161 -0.6568 -0.3966 -0.6570
 6268TIP3    H218769   3.787   4.000   3.150  1.0806  0.4757  0.2416
 6269TIP3   OH218770   5.244   2.130   0.645  0.1306  0.0818  0.1522
 6269TIP3    H118771   5.324   2.086   0.674  0.4782  1.6693  1.8044
 6269TIP3    H218772   5.174   2.083   0.690  0.0948 -1.1408 -1.0897
 6270TIP3   OH218773   0.364   3.398   2.851 -0.0654 -0.0101 -0.1312
 6270TIP3    H118774   0.448   3.445   2.854  0.7612 -1.4285  0.0284
 6270TIP3    H218775   0.369   3.337   2.924 -0.3454 -1.5549 -1.3532
 6271TIP3   OH218776   3.035   6.067   5.429  0.6565  0.6340 -0.4202
 6271TIP3    H118777   3.128   6.046   5.432  0.3838 -0.6664 -0.4965
 6271TIP3    H218778   2.993   5.986   5.398 -0.4070  1.4873 -1.2819
 6272TIP3   OH218779   5.936   1.140   2.124  0.0361 -0.9102 -0.0379
 6272TIP3    H118780   5.877   1.089   2.180 -0.8134  1.2420  1.1424
 6272TIP3    H218781   6.023   1.103   2.142 -0.2387 -0.4767  2.5569
 6273TIP3   OH218782   2.815   1.133   1.231 -0.5831 -0.2540 -0.7889
 6273TIP3    H118783   2.769   1.146   1.313  0.1390  1.2558 -0.5703
 6273TIP3    H218784   2.906   1.115   1.257 -0.6351 -1.2274 -1.2409
 6274TIP3   OH218785   2.121   2.043   4.719  0.6589  0.2146  0.4267
 6274TIP3    H118786   2.085   2.028   4.806 -0.2542 -0.5011 -0.0577
 6274TIP3    H218787   2.110   2.137   4.704 -0.3401  0.1268  0.5895
 6275TIP3   OH218788   1.913   0.742   5.271  0.1472  0.6444  0.0802
 6275TIP3    H118789   1.889   0.751   5.363 -1.3678 -2.4772  0.1086
 6275TIP3    H218790   1.832   0.756   5.223  0.4071 -0.0262 -0.5813
 6276TIP3   OH218791   2.011   5.466   4.370  0.0993 -0.7668  0.6976
 6276TIP3    H118792   2.028   5.425   4.286 -3.0515  0.9869 -0.9760
 6276TIP3    H218793   1.953   5.405   4.415  1.4279 -1.4945  1.5077
 6277TIP3   OH218794   1.017   0.908   0.373  0.4790  0.0451  0.2442
 6277TIP3    H118795   1.106   0.882   0.348  0.2129 -1.8021  1.0677
 6277TIP3    H218796   0.975   0.827   0.400 -0.9974  1.1179  1.3219
 6278TIP3   OH218797   3.214   1.591   4.302  0.3679  0.1124  0.1840
 6278TIP3    H118798   3.222   1.672   4.353 -0.6007  0.3669 -0.0333
 6278TIP3    H218799   3.122   1.567   4.310  0.4103 -0.3705 -0.6529
 6279TIP3   OH218800   0.115   4.419   2.470  0.3175  0.0346  0.2153
 6279TIP3    H118801   0.058   4.368   2.413  2.2861 -2.7210  0.4941
 6279TIP3    H218802   0.084   4.400   2.559  0.1076  0.6021  0.2680
 6280TIP3   OH218803   0.025   2.522   4.835 -0.4924  0.3393 -0.1666
 6280TIP3    H118804  -0.032   2.535   4.759 -2.9658 -0.7112  1.3713
 6280TIP3    H218805   0.011   2.430   4.859 -2.7152  1.4278  3.6167
 6281TIP3   OH218806   2.628   0.699   0.707  0.2900  1.0780 -0.5179
 6281TIP3    H118807   2.637   0.789   0.677 -0.8249  2.0045  1.7129
 6281TIP3    H218808   2.712   0.678   0.746 -0.1677  2.0707  1.1106
 6282TIP3   OH218809   2.775   3.131   3.615  0.5282 -0.1861  0.5829
 6282TIP3    H118810   2.735   3.112   3.530 -1.5007 -0.5591  1.5381
 6282TIP3    H218811   2.806   3.046   3.647 -0.1897 -0.3433  0.8889
 6283TIP3   OH218812   7.081   2.567   1.751 -0.0504 -0.7673 -0.3442
 6283TIP3    H118813   7.123   2.484   1.727 -0.0071 -1.4911  1.9382
 6283TIP3    H218814   7.094   2.623   1.675  1.7104 -2.2056 -1.1980
 6284TIP3   OH218815   0.145   2.399   5.751 -0.1337 -0.2974 -0.2583
 6284TIP3    H118816   0.200   2.452   5.694  0.8473  1.2257  1.9557
 6284TIP3    H218817   0.200   2.324   5.776 -0.4707 -0.8236 -1.0535
 6285TIP3   OH218818   1.268   3.451   0.211 -0.3274  0.2621  0.9296
 6285TIP3    H118819   1.250   3.360   0.188  0.6687  0.3281 -0.1997
 6285TIP3    H218820   1.182   3.491   0.222 -1.0001  0.3424 -3.2797
 6286TIP3   OH218821   1.742   6.252   5.074  0.3904  0.3331  0.0554
 6286TIP3    H118822   1.707   6.249   5.163  2.5020 -0.8024  0.8974
 6286TIP3    H218823   1.688   6.190   5.024 -1.1084  1.3235  0.3630
 6287TIP3   OH218824   3.554   1.342   1.589  0.1459  0.0304 -0.1116
 6287TIP3    H118825   3.527   1.419   1.539  0.7857 -0.7412 -1.7004
 6287TIP3    H218826   3.505   1.349   1.671 -0.0947  1.9128 -0.3702
 6288TIP3   OH218827   4.505   4.453   0.614  0.4899 -0.2817 -0.0667
 6288TIP3    H118828   4.449   4.392   0.663  0.6007 -1.2523 -1.0935
 6288TIP3    H218829   4.453   4.477   0.537  1.1921 -0.6279 -0.6627
 6289TIP3   OH218830   0.611   5.012   2.084 -0.3026 -0.3376 -0.3449
 6289TIP3    H118831   0.630   5.106   2.074 -3.8313  0.5036 -0.5195
 6289TIP3    H218832   0.642   4.973   2.003 -1.0117  1.1544 -1.3913
 6290TIP3   OH218833   5.926   2.274   1.148 -0.1459  0.3261 -0.3460
 6290TIP3    H118834   5.930   2.360   1.190 -1.9417  1.5765 -2.4899
 6290TIP3    H218835   5.833   2.262   1.127  0.2610 -1.5211 -1.3142
 6291TIP3   OH218836   3.337   1.567   1.513  0.2296 -0.1554  0.0949
 6291TIP3    H118837   3.430   1.586   1.524  0.4999 -1.4313  0.2590
 6291TIP3    H218838   3.292   1.643   1.549  1.1982  1.1684 -1.3472
 6292TIP3   OH218839   0.941   2.129   4.407  0.0808 -0.4455 -0.3863
 6292TIP3    H118840   1.031   2.103   4.386  0.2785 -0.9498  0.9837
 6292TIP3    H218841   0.924   2.091   4.493 -0.6068  1.6338  0.4667
 6293TIP3   OH218842   3.838   2.831   3.983  0.3381  0.2073 -0.3100
 6293TIP3    H118843   3.857   2.738   3.971 -0.7593  0.1663 -2.1485
 6293TIP3    H218844   3.843   2.845   4.077  0.0030 -1.8381  0.0506
 6294TIP3   OH218845   2.923   1.259   1.910 -0.0951  0.4346 -0.3558
 6294TIP3    H118846   2.828   1.247   1.898 -0.4135  1.6517  0.6995
 6294TIP3    H218847   2.960   1.245   1.823 -1.4256  1.4203 -1.1245
 6295TIP3   OH218848   0.871   1.356   2.067 -0.2854  0.1669 -0.5879
 6295TIP3    H118849   0.837   1.315   2.147  1.4414  1.1105  0.7023
 6295TIP3    H218850   0.841   1.447   2.073  0.3627  0.3891 -0.6996
 6296TIP3   OH218851   0.272   2.035   0.647  0.0788  0.2008 -0.5121
 6296TIP3    H118852   0.234   2.099   0.585 -1.2957  0.8135  0.8923
 6296TIP3    H218853   0.321   1.975   0.591  0.8326  2.0535 -1.9770
 6297TIP3   OH218854   2.192   3.866   0.945  0.1486  0.7310 -0.2837
 6297TIP3    H118855   2.116   3.922   0.958  1.2331  2.3218 -0.5708
 6297TIP3    H218856   2.183   3.798   1.012 -0.7721  1.7057  0.6230
 6298TIP3   OH218857   2.795   6.446   3.530  0.8095  0.7265  0.0976
 6298TIP3    H118858   2.705   6.414   3.531  1.0470  0.0819  0.8336
 6298TIP3    H218859   2.823   6.436   3.439  1.6687 -3.4349  0.6467
 6299TIP3   OH218860   2.545   4.851   3.394 -0.4483 -0.0201  0.7680
 6299TIP3    H118861   2.457   4.866   3.360 -0.4135  2.5792  1.6028
 6299TIP3    H218862   2.602   4.899   3.335  0.4851 -1.7101  0.2120
 6300TIP3   OH218863   3.859   4.821   5.877  0.2524 -0.2800  0.0593
 6300TIP3    H118864   3.908   4.807   5.958  2.0048  0.7814 -0.7661
 6300TIP3    H218865   3.917   4.790   5.808 -0.3091  0.8590 -0.9494
 6301TIP3   OH218866   0.163   2.725   0.450  0.1116 -0.3183 -0.1763
 6301TIP3    H118867   0.189   2.695   0.537  0.3906 -1.1654 -0.5439
 6301TIP3    H218868   0.245   2.747   0.406  0.0907 -1.2862 -0.7234
 6302TIP3   OH218869   0.956   4.036   4.087 -0.4814  0.4288  0.5198
 6302TIP3    H118870   0.935   3.967   4.025 -2.0983 -0.5132  2.0372
 6302TIP3    H218871   1.044   4.065   4.062  0.3923 -2.3699  0.0102
 6303TIP3   OH218872   1.398   1.368   3.851  0.4211 -0.4160  0.0427
 6303TIP3    H118873   1.442   1.299   3.801  1.4350 -0.1283  0.5097
 6303TIP3    H218874   1.445   1.448   3.827 -1.5872  0.3726 -1.5315
 6304TIP3   OH218875   3.822   1.903   3.647  0.6132 -0.0375  0.2350
 6304TIP3    H118876   3.814   1.996   3.670 -0.4184 -0.2639  0.8310
 6304TIP3    H218877   3.734   1.868   3.657  0.8956 -0.9810 -0.4684
 6305TIP3   OH218878   1.198   2.139   1.840 -0.0334 -0.2413  0.4995
 6305TIP3    H118879   1.114   2.122   1.881  0.2027 -0.9578  0.6919
 6305TIP3    H218880   1.262   2.100   1.898  0.5088  0.9630  0.7468
 6306TIP3   OH218881   1.567   3.566   5.785  0.1674 -0.1120 -0.0696
 6306TIP3    H118882   1.561   3.473   5.767  0.8501  0.0909 -1.5477
 6306TIP3    H218883   1.531   3.608   5.707  0.2832  0.8559  0.3776
 6307TIP3   OH218884   0.435   3.321   4.819  0.0190  0.2659  0.2630
 6307TIP3    H118885   0.362   3.381   4.804  0.1615  1.0332  2.3347
 6307TIP3    H218886   0.455   3.286   4.732 -1.9424  1.0222 -0.5597
 6308TIP3   OH218887   3.997   3.575   0.049  0.3582 -0.4714 -0.1708
 6308TIP3    H118888   4.023   3.498   0.099  1.2031 -0.7719 -1.0475
 6308TIP3    H218889   3.910   3.553   0.014  0.3482 -0.7897  0.0520
 6309TIP3   OH218890   0.434   4.700   1.386  0.0507 -0.2365 -0.5407
 6309TIP3    H118891   0.504   4.662   1.438  0.2424  0.3974 -0.3343
 6309TIP3    H218892   0.451   4.794   1.386 -0.1333 -0.1866 -1.4698
 6310TIP3   OH218893   1.302   3.118   2.102  0.0083 -0.6522 -0.3173
 6310TIP3    H118894   1.372   3.055   2.119  0.5802 -0.5200 -2.0209
 6310TIP3    H218895   1.333   3.199   2.143  0.4861 -0.7991 -0.3758
 6311TIP3   OH218896   3.332   3.454   4.704  0.6551  0.4668 -0.0832
 6311TIP3    H118897   3.333   3.363   4.676  0.7612  0.0445  1.2177
 6311TIP3    H218898   3.424   3.473   4.727  0.1862 -0.1098  2.6208
 6312TIP3   OH218899   2.112   1.304   2.585 -0.2544  0.3903 -0.4576
 6312TIP3    H118900   2.092   1.285   2.677  0.4977  0.8994 -0.1831
 6312TIP3    H218901   2.031   1.345   2.552 -1.4858 -2.1060 -0.7618
 6313TIP3   OH218902   3.567   3.330   3.149  0.3603  0.1881  0.0060
 6313TIP3    H118903   3.661   3.311   3.158  0.3767  0.1620 -0.2171
 6313TIP3    H218904   3.557   3.359   3.059 -0.1808 -1.7846 -0.6144
 6314TIP3   OH218905   3.370   0.666   0.749 -0.3756  0.3299  0.3299
 6314TIP3    H118906   3.363   0.633   0.660 -0.5700 -1.3281  0.9158
 6314TIP3    H218907   3.448   0.624   0.784  0.1327  1.5727  0.7049
 6315TIP3   OH218908   4.740   4.053   4.884  0.0246 -0.1503  0.0476
 6315TIP3    H118909   4.801   4.118   4.848 -2.1101  2.4684  0.8681
 6315TIP3    H218910   4.663   4.058   4.828 -0.5833 -1.3149  0.7361
 6316TIP3   OH218911   6.162   2.595   3.388  0.4319 -0.1221  0.5936
 6316TIP3    H118912   6.197   2.678   3.422 -1.7767  0.2578  2.1902
 6316TIP3    H218913   6.131   2.616   3.300  0.7114  0.5051  0.6395
 6317TIP3   OH218914   0.126   3.796   2.602 -0.2784  0.2274  0.5390
 6317TIP3    H118915   0.037   3.804   2.570 -0.4720  0.7135  1.1861
 6317TIP3    H218916   0.118   3.797   2.698  0.4436  0.6335  0.6025
 6318TIP3   OH218917   5.028   0.866   3.972 -0.1855  0.1433 -0.0038
 6318TIP3    H118918   5.093   0.919   3.924  0.7317 -0.2071  0.8185
 6318TIP3    H218919   4.959   0.929   3.995  1.7588  1.5437  2.6211
 6319TIP3   OH218920   7.158   1.579   5.371  0.1273  0.1387  0.6556
 6319TIP3    H118921   7.094   1.643   5.340 -0.2204  0.2945  1.6614
 6319TIP3    H218922   7.187   1.534   5.292 -1.8012 -0.4936  0.2468
 6320TIP3   OH218923   0.181   3.830   2.125  0.2415 -0.7359 -0.4985
 6320TIP3    H118924   0.247   3.897   2.144  0.2825 -0.6744 -0.8546
 6320TIP3    H218925   0.175   3.778   2.205 -2.6092  2.0325  1.3388
 6321TIP3   OH218926   4.259   5.328   1.973 -0.2198  0.2113 -0.4456
 6321TIP3    H118927   4.335   5.323   2.030 -0.6378 -0.8282  0.0444
 6321TIP3    H218928   4.281   5.271   1.899  0.0207  0.9710 -0.9643
 6322TIP3   OH218929   4.239   1.449   3.078 -0.0866  0.1089  0.2531
 6322TIP3    H118930   4.197   1.486   3.001  2.0515 -0.7646 -1.4399
 6322TIP3    H218931   4.228   1.516   3.146 -0.1738  1.8612 -1.4084
 6323TIP3   OH218932   3.736   0.062   4.588  0.1726  0.0786  0.0754
 6323TIP3    H118933   3.717   0.113   4.509  1.4438  0.5293  0.0385
 6323TIP3    H218934   3.659   0.007   4.600 -0.1527  0.1858 -1.3307
 6324TIP3   OH218935   2.774   0.140   1.159  0.1922 -0.3133 -0.0458
 6324TIP3    H118936   2.724   0.161   1.080 -0.0581  0.6353  0.3517
 6324TIP3    H218937   2.707   0.128   1.226  0.4230 -0.7652  0.1066
 6325TIP3   OH218938   2.061   2.330   1.708 -0.1982  0.3608 -0.6073
 6325TIP3    H118939   1.969   2.345   1.730 -0.3874 -0.6214 -0.6900
 6325TIP3    H218940   2.058   2.275   1.630  0.4226 -0.9749  0.2649
 6326TIP3   OH218941   2.020   3.091   0.019 -0.0237  1.0948  0.1133
 6326TIP3    H118942   2.055   3.035   0.088 -0.9280  0.2709 -0.0867
 6326TIP3    H218943   2.098   3.135  -0.017  0.7559 -0.3248  0.0112
 6327TIP3   OH218944   2.719   4.599   2.403  0.0480 -0.1265 -0.2448
 6327TIP3    H118945   2.710   4.693   2.416 -1.2323 -0.0211 -1.6621
 6327TIP3    H218946   2.699   4.560   2.488 -0.8783  0.8115 -0.0225
 6328TIP3   OH218947   5.316   5.508   0.265 -0.4251 -0.5314 -0.7993
 6328TIP3    H118948   5.329   5.442   0.198  1.8176 -1.6350  0.6179
 6328TIP3    H218949   5.300   5.589   0.216  0.3811 -1.4279 -2.6402
 6329TIP3   OH218950   4.851   2.691   4.677 -0.2548 -0.1711  0.1142
 6329TIP3    H118951   4.921   2.638   4.715  0.8175 -0.0547 -1.6007
 6329TIP3    H218952   4.827   2.646   4.596 -1.2009  0.5529 -0.0357
 6330TIP3   OH218953   3.096   4.117   1.421  0.7647 -0.0899 -0.5411
 6330TIP3    H118954   3.083   4.036   1.470 -1.5982 -0.6308 -1.9408
 6330TIP3    H218955   3.081   4.186   1.485 -0.7805 -0.7790 -0.1098
 6331TIP3   OH218956   5.252   4.145   0.893  0.6513  0.2160 -0.3059
 6331TIP3    H118957   5.228   4.156   0.801  0.0631 -0.5510 -0.2465
 6331TIP3    H218958   5.339   4.184   0.900  0.5635  0.5650 -1.1162
 6332TIP3   OH218959   3.339   3.686   2.902  0.4592  0.4205  0.5772
 6332TIP3    H118960   3.366   3.777   2.909 -1.4118  1.3135 -2.1792
 6332TIP3    H218961   3.414   3.642   2.861  1.4689  0.5580  2.1527
 6333TIP3   OH218962   3.058   1.030   5.450 -0.2842 -0.5462  0.0564
 6333TIP3    H118963   3.004   1.009   5.525 -0.8459  0.7948  0.0581
 6333TIP3    H218964   3.123   1.092   5.483 -0.3100 -0.2257 -0.4701
 6334TIP3   OH218965   1.741   5.003   3.260 -0.4014 -0.3256  0.1045
 6334TIP3    H118966   1.658   4.959   3.280 -0.2583 -0.2595  0.8698
 6334TIP3    H218967   1.758   5.057   3.337 -0.4377  0.8803 -0.7075
 6335TIP3   OH218968   5.594   3.516   0.182 -0.3514  0.0148  0.0462
 6335TIP3    H118969   5.648   3.466   0.121  0.6468  1.3575 -0.2148
 6335TIP3    H218970   5.544   3.577   0.127  1.1859  1.8258  0.5637
 6336TIP3   OH218971   0.780   2.823   4.861 -0.0992 -0.1206 -0.2649
 6336TIP3    H118972   0.755   2.914   4.874 -0.2103 -0.2397  0.3869
 6336TIP3    H218973   0.707   2.773   4.896 -1.6246 -0.5090 -3.5562
 6337TIP3   OH218974   5.111   1.455   2.005 -0.0187 -0.3270 -0.0806
 6337TIP3    H118975   5.181   1.472   2.068 -0.4165 -1.0693  0.5874
 6337TIP3    H218976   5.132   1.370   1.967 -0.2198 -0.2566 -0.3522
 6338TIP3   OH218977   3.156   3.336   3.714 -0.7442 -0.1799 -0.2768
 6338TIP3    H118978   3.102   3.277   3.767  0.2661 -1.6989 -0.8528
 6338TIP3    H218979   3.127   3.322   3.624  0.6899 -1.2262 -0.6326
 6339TIP3   OH218980   1.125   5.754   5.345 -0.4900  0.4639 -0.2575
 6339TIP3    H118981   1.175   5.739   5.265  1.5563  0.4988  0.9389
 6339TIP3    H218982   1.085   5.669   5.365 -0.5363  0.3082 -1.0010
 6340TIP3   OH218983   5.666   1.398   1.751  0.3162  0.1546 -0.1923
 6340TIP3    H118984   5.591   1.369   1.803  1.0247  0.8294  1.2409
 6340TIP3    H218985   5.672   1.492   1.767  1.0466  0.2321 -0.8540
 6341TIP3   OH218986   3.202   2.367   5.854 -0.0548 -0.5541  0.0046
 6341TIP3    H118987   3.252   2.359   5.773 -1.0417  1.3172 -0.8542
 6341TIP3    H218988   3.265   2.400   5.918 -0.0017  1.2048 -0.9069
 6342TIP3   OH218989   1.713   3.047   1.153 -0.2629 -0.2002  0.4005
 6342TIP3    H118990   1.753   3.045   1.065 -0.0371  1.7547  0.4107
 6342TIP3    H218991   1.782   3.016   1.211 -0.3982 -1.4740 -0.0819
 6343TIP3   OH218992   4.235   6.780   4.831 -0.2193 -0.0905  0.0977
 6343TIP3    H118993   4.160   6.822   4.872  0.4339  0.2401  0.9931
 6343TIP3    H218994   4.222   6.686   4.847  0.7932  0.0976  2.5321
 6344TIP3   OH218995   5.263   6.166   5.512  0.0404 -0.0741  0.0728
 6344TIP3    H118996   5.322   6.236   5.483 -1.8902  0.8963 -1.7963
 6344TIP3    H218997   5.233   6.195   5.599  0.5442  0.5989  0.0341
 6345TIP3   OH218998   0.375   1.540   1.583 -0.2726  0.2889 -0.0337
 6345TIP3    H118999   0.302   1.484   1.558 -1.0081  2.4373 -3.1924
 6345TIP3    H219000   0.448   1.480   1.597 -1.3680 -1.5553 -1.8202
 6346TIP3   OH219001   3.530   5.503   3.428  0.3612 -0.8314 -0.5573
 6346TIP3    H119002   3.597   5.435   3.431  0.8644 -0.3548 -0.8111
 6346TIP3    H219003   3.558   5.561   3.357 -0.5087 -0.8193 -0.8984
 6347TIP3   OH219004   2.911   1.299   0.778  0.6053 -0.2082 -0.4981
 6347TIP3    H119005   2.844   1.367   0.773  0.6364 -0.1623 -0.2772
 6347TIP3    H219006   2.868   1.225   0.821  0.4650 -0.4600 -1.0518
 6348TIP3   OH219007   1.312   2.780   3.821 -0.5142  0.4475 -0.3704
 6348TIP3    H119008   1.399   2.820   3.812 -1.3078  2.0978 -1.3228
 6348TIP3    H219009   1.288   2.794   3.912 -0.0659  0.6496 -0.2817
 6349TIP3   OH219010   0.223   3.335   5.032 -0.5087  0.0505  0.3062
 6349TIP3    H119011   0.293   3.352   4.969 -1.4099 -0.6096 -0.8915
 6349TIP3    H219012   0.164   3.275   4.988 -1.3345 -0.1864  1.6694
 6350TIP3   OH219013   2.153   6.266   2.380  0.6523 -0.1262  0.0656
 6350TIP3    H119014   2.167   6.308   2.296  0.4782 -0.5723 -0.1891
 6350TIP3    H219015   2.190   6.328   2.444  0.3605  0.4288 -0.2935
 6351TIP3   OH219016   1.199   5.015   2.906 -0.2933 -0.5674 -0.2829
 6351TIP3    H119017   1.155   5.061   2.835  0.2935  0.1834 -0.1657
 6351TIP3    H219018   1.134   4.952   2.937 -0.5400 -0.9533 -1.5180
 6352TIP3   OH219019   5.099   3.069   3.767  0.1030 -0.8152  0.0773
 6352TIP3    H119020   5.019   3.102   3.809 -0.1677 -0.9946 -0.2914
 6352TIP3    H219021   5.131   3.142   3.714 -0.2607 -1.0024 -0.4041
 6353TIP3   OH219022   4.292   5.446   5.806  0.2248 -0.2188  0.3627
 6353TIP3    H119023   4.368   5.493   5.772  0.5492 -1.5129 -0.8023
 6353TIP3    H219024   4.217   5.485   5.762  0.3344  0.2395  0.5835
 6354TIP3   OH219025   5.069   5.906   2.591 -0.3354 -0.2306 -0.4601
 6354TIP3    H119026   5.012   5.862   2.653  1.0178  0.2527  1.1951
 6354TIP3    H219027   5.104   5.836   2.537  0.9886 -1.1317  1.4626
 6355TIP3   OH219028   2.651   5.883   2.788 -0.0302  0.3675 -0.0730
 6355TIP3    H119029   2.685   5.842   2.868 -0.6972  2.5931  1.4441
 6355TIP3    H219030   2.701   5.842   2.718  1.1999 -1.0705  1.5364
 6356TIP3   OH219031   4.851   1.771   5.435 -0.8285 -0.1059  0.2910
 6356TIP3    H119032   4.873   1.765   5.528 -1.0426 -0.2272  0.3361
 6356TIP3    H219033   4.775   1.713   5.425  0.2851 -1.5196 -0.3218
 6357TIP3   OH219034   4.944   3.725   5.543 -0.3316  0.3363  0.0819
 6357TIP3    H119035   4.914   3.765   5.461  0.0652  1.4891  0.4894
 6357TIP3    H219036   5.019   3.671   5.518  0.5408  1.6135 -0.1688
 6358TIP3   OH219037   4.890   3.659   4.804 -0.6540  0.0907  0.0838
 6358TIP3    H119038   4.825   3.712   4.757 -0.9223 -0.1465  0.1817
 6358TIP3    H219039   4.888   3.693   4.893  2.1250  2.7054 -0.7000
 6359TIP3   OH219040   7.099   2.575   2.691  0.4598  0.3008 -0.3994
 6359TIP3    H119041   7.066   2.661   2.717 -1.6549  0.1816 -2.4385
 6359TIP3    H219042   7.060   2.515   2.754  0.0902  0.5923 -0.3472
 6360TIP3   OH219043   5.410   5.392   2.105  1.1242  0.0037  0.5397
 6360TIP3    H119044   5.457   5.358   2.181  0.4595 -1.3821  0.3670
 6360TIP3    H219045   5.416   5.322   2.040 -0.7730 -0.0283  0.3473
 6361TIP3   OH219046   4.061   3.351   1.733  0.1454  0.0849 -0.1035
 6361TIP3    H119047   3.980   3.300   1.738  1.4876 -2.1766  0.4946
 6361TIP3    H219048   4.035   3.440   1.755 -2.1064 -0.6514  0.5275
 6362TIP3   OH219049   6.268   1.435   0.020 -0.2876 -0.4452 -0.3054
 6362TIP3    H119050   6.347   1.384   0.001  0.5082 -0.2424  2.1861
 6362TIP3    H219051   6.294   1.496   0.089 -1.8639  1.7441 -1.4982
 6363TIP3   OH219052   5.795   1.790   3.199 -0.2486 -0.4895  0.0474
 6363TIP3    H119053   5.808   1.864   3.141 -0.4942 -1.5972 -1.4715
 6363TIP3    H219054   5.877   1.784   3.249  0.7549 -0.6645 -1.5504
 6364TIP3   OH219055   1.220   3.640   3.340  0.0375 -0.9312 -0.0098
 6364TIP3    H119056   1.135   3.629   3.382 -1.1155 -2.0210 -2.4118
 6364TIP3    H219057   1.225   3.568   3.277  2.2256 -0.1864 -0.8002
 6365TIP3   OH219058   5.935   5.838   3.403 -0.2172 -0.6503  0.3158
 6365TIP3    H119059   5.918   5.924   3.365 -0.9344 -1.0209 -0.2335
 6365TIP3    H219060   5.855   5.817   3.452  0.5004 -0.3965  1.6622
 6366TIP3   OH219061   3.861   1.065   1.359  0.1470 -0.0527  0.1908
 6366TIP3    H119062   3.785   1.107   1.320 -1.4442 -0.6258  2.5211
 6366TIP3    H219063   3.889   1.125   1.428  0.1465 -1.0672  1.0906
 6367TIP3   OH219064   1.214   1.951   2.147  0.3314 -0.1209 -0.0844
 6367TIP3    H119065   1.140   1.977   2.093 -0.7552 -1.3180  0.7888
 6367TIP3    H219066   1.191   1.865   2.182  3.0869 -1.6231 -1.5868
 6368TIP3   OH219067   2.335   1.033   2.388 -0.5805  0.7917  0.1136
 6368TIP3    H119068   2.345   0.956   2.332 -1.4470 -0.1621  1.2028
 6368TIP3    H219069   2.290   1.097   2.334  1.1078  0.9521 -1.1553
 6369TIP3   OH219070   3.074   6.137   1.943 -0.2210  0.2330 -0.3418
 6369TIP3    H119071   3.140   6.121   1.876 -1.2082 -0.5368 -1.1637
 6369TIP3    H219072   3.005   6.072   1.926 -1.6957  1.6764 -0.1965
 6370TIP3   OH219073   2.527   6.375   3.557 -0.3968 -0.2533 -0.0122
 6370TIP3    H119074   2.471   6.382   3.480 -2.1693  0.4226  1.2421
 6370TIP3    H219075   2.496   6.445   3.615  0.7249 -0.8482  1.3761
 6371TIP3   OH219076   4.166   0.535   2.066  0.1329 -0.0420  0.5659
 6371TIP3    H119077   4.131   0.561   2.152  0.2068  0.5064  0.4343
 6371TIP3    H219078   4.141   0.607   2.008 -1.3116 -1.1380 -0.2283
 6372TIP3   OH219079   2.076   3.066   2.464 -0.8366 -0.0100 -0.5124
 6372TIP3    H119080   2.101   3.142   2.516 -1.5107  0.2645 -0.5763
 6372TIP3    H219081   2.049   3.102   2.380  1.1751 -0.5223 -1.4349
 6373TIP3   OH219082   4.192   2.250   0.158 -0.6528  0.5331  0.1894
 6373TIP3    H119083   4.109   2.263   0.111 -0.1632  1.5878 -0.4179
 6373TIP3    H219084   4.213   2.337   0.193  0.5612  0.4442 -0.2777
 6374TIP3   OH219085   2.316   4.543   3.618  0.5648  0.0840 -0.0920
 6374TIP3    H119086   2.233   4.562   3.575  0.8241 -0.0767 -0.6720
 6374TIP3    H219087   2.298   4.467   3.673 -0.2912  1.5007  1.6749
 6375TIP3   OH219088   1.222   5.648   2.658  0.3658  0.1360  0.5704
 6375TIP3    H119089   1.261   5.563   2.676 -0.2253 -0.3880 -0.5521
 6375TIP3    H219090   1.152   5.657   2.722 -0.1926 -0.6635  0.0866
 6376TIP3   OH219091   0.465   6.065   1.542  0.1301  0.4034 -0.1626
 6376TIP3    H119092   0.385   6.039   1.496 -0.7359 -1.4583  2.1715
 6376TIP3    H219093   0.436   6.134   1.602  0.0209 -0.8217  1.2541
 6377TIP3   OH219094   5.771   3.692   0.597  0.2822  0.0655 -0.2295
 6377TIP3    H119095   5.859   3.707   0.564  0.7678 -0.7502  0.6332
 6377TIP3    H219096   5.713   3.725   0.528  1.2229  2.8186  0.1706
 6378TIP3   OH219097   5.907   1.747   2.146  0.1606 -0.1159  0.0167
 6378TIP3    H119098   5.858   1.665   2.145  0.3686 -0.2921 -2.1876
 6378TIP3    H219099   5.875   1.794   2.222 -1.5327 -1.3382  0.1040
 6379TIP3   OH219100   2.589   4.458   3.816 -0.2023 -0.1360 -0.2948
 6379TIP3    H119101   2.495   4.456   3.831 -0.0712  0.1973  0.6532
 6379TIP3    H219102   2.602   4.411   3.733 -1.0863 -1.1329  0.1170
 6380TIP3   OH219103   2.722   2.546   2.103 -0.3456 -0.9118 -0.2839
 6380TIP3    H119104   2.779   2.602   2.052  0.3383 -1.6152 -0.3008
 6380TIP3    H219105   2.737   2.457   2.069  0.5856 -1.4881  1.4988
 6381TIP3   OH219106   5.508   2.060   4.810 -0.3098  0.0073 -0.0555
 6381TIP3    H119107   5.592   2.037   4.849  0.0713  0.0930 -0.8173
 6381TIP3    H219108   5.464   2.113   4.877 -0.0371 -0.5755  0.6023
 6382TIP3   OH219109   6.384   5.586   1.001  0.3384 -0.1499 -0.2631
 6382TIP3    H119110   6.293   5.572   1.027  0.1031  1.0388 -0.3665
 6382TIP3    H219111   6.436   5.536   1.064 -0.3506  0.1351  0.5485
 6383TIP3   OH219112   4.293   2.557   0.627 -0.3325  0.3936 -0.4745
 6383TIP3    H119113   4.242   2.495   0.575  0.1560 -0.2129 -0.2515
 6383TIP3    H219114   4.380   2.517   0.632 -0.2860  0.6016  0.5245
 6384TIP3   OH219115   5.431   6.097   0.997 -0.0193 -0.5954  1.0312
 6384TIP3    H119116   5.456   6.167   0.937 -1.5724  0.4659  1.5283
 6384TIP3    H219117   5.485   6.022   0.973  0.7793  0.4014 -0.3647
 6385TIP3   OH219118   3.062   0.059   1.608 -0.6870 -0.2303 -0.2700
 6385TIP3    H119119   3.058  -0.034   1.630 -2.2057 -0.1622 -0.1422
 6385TIP3    H219120   2.971   0.082   1.588 -0.1241  0.9072 -1.6541
 6386TIP3   OH219121   5.554   5.072   3.758  0.0459 -0.0262  0.4286
 6386TIP3    H119122   5.501   5.119   3.822  1.9215 -1.1091  2.9433
 6386TIP3    H219123   5.531   5.111   3.674 -0.4786  3.4852  2.0392
 6387TIP3   OH219124   0.092   4.039   2.780  0.3801 -0.0249  0.0988
 6387TIP3    H119125   0.095   3.952   2.819  0.4360 -0.0123  0.1248
 6387TIP3    H219126   0.005   4.046   2.741 -0.4965  0.7421  2.0407
 6388TIP3   OH219127   6.353   0.506   3.479  0.2060 -0.1491  0.0076
 6388TIP3    H119128   6.297   0.518   3.556 -2.0965 -1.9994 -1.2327
 6388TIP3    H219129   6.422   0.447   3.509 -0.7426 -0.9714  0.6781
 6389TIP3   OH219130   7.186   1.361   3.442  0.4869 -0.2335  0.0348
 6389TIP3    H119131   7.273   1.385   3.409  0.1633  1.1899  0.1625
 6389TIP3    H219132   7.125   1.397   3.377 -0.0669  0.5772  0.9810
 6390TIP3   OH219133   1.123   4.278   3.918  0.1654  0.1619 -0.0441
 6390TIP3    H119134   1.129   4.359   3.970  0.4389 -0.5208  1.0163
 6390TIP3    H219135   1.176   4.215   3.967  0.6298 -0.4421 -1.2960
 6391TIP3   OH219136   0.064   0.108   3.183  0.2766  0.0337 -0.7973
 6391TIP3    H119137   0.128   0.173   3.211  0.0451 -0.4176  0.8721
 6391TIP3    H219138   0.113   0.046   3.129  0.8232  0.7170 -1.0912
 6392TIP3   OH219139   1.677   4.986   0.372  0.4067 -0.2087 -0.9739
 6392TIP3    H119140   1.682   5.080   0.350  0.6271  0.0004 -0.0840
 6392TIP3    H219141   1.724   4.943   0.301 -1.2973  0.1628 -2.4083
 6393TIP3   OH219142   6.685   1.375   4.483 -0.1976  0.6139 -0.3669
 6393TIP3    H119143   6.727   1.380   4.569 -0.5777 -1.3767 -0.0261
 6393TIP3    H219144   6.758   1.377   4.421  0.1491  1.0042  0.0452
 6394TIP3   OH219145   7.095   3.221   1.203 -0.5308 -0.2113  0.5554
 6394TIP3    H119146   7.183   3.226   1.165 -0.6502 -0.7599  0.2001
 6394TIP3    H219147   7.079   3.309   1.236 -0.3536  0.2444 -0.5308
 6395TIP3   OH219148   6.099   1.238   3.939 -0.6873  0.0433  0.0563
 6395TIP3    H119149   6.114   1.201   4.026 -1.0408  1.0480  0.5580
 6395TIP3    H219150   6.184   1.232   3.895 -0.4198 -0.1464  0.5971
 6396TIP3   OH219151   1.525   0.822   0.216 -0.2088 -0.0203  0.2069
 6396TIP3    H119152   1.564   0.909   0.218 -1.2148  0.4432  0.0695
 6396TIP3    H219153   1.586   0.769   0.165  0.8980  0.3468  1.0897
 6397TIP3   OH219154   4.262   6.703   1.852 -0.2196  0.2574  0.0955
 6397TIP3    H119155   4.325   6.772   1.832  0.4453 -0.7350 -1.3908
 6397TIP3    H219156   4.248   6.657   1.769 -0.3265 -1.6430  1.1034
 6398TIP3   OH219157   5.119   4.800   0.183 -0.4409 -0.0647  0.4153
 6398TIP3    H119158   5.088   4.831   0.268  1.7128  2.2049  0.4812
 6398TIP3    H219159   5.067   4.848   0.119 -1.5730 -1.2481  0.4144
 6399TIP3   OH219160   4.876   2.972   3.004  0.5053 -0.2819 -0.4198
 6399TIP3    H119161   4.893   3.062   2.978  0.0401 -0.2279 -0.5302
 6399TIP3    H219162   4.964   2.934   3.015  0.7035 -0.1254 -1.4101
 6400TIP3   OH219163   1.800   3.845   2.116  0.2585 -0.1670 -0.2703
 6400TIP3    H119164   1.859   3.795   2.173  1.6803  1.1206 -0.5386
 6400TIP3    H219165   1.850   3.859   2.036 -0.0350  1.6979 -0.1799
 6401TIP3   OH219166   3.226   6.137   2.702  0.4863  0.0341  0.4914
 6401TIP3    H119167   3.262   6.176   2.781  0.5038  2.6667 -0.7158
 6401TIP3    H219168   3.135   6.117   2.723  0.3836  1.0732  1.0937
 6402TIP3   OH219169   4.454   3.442   2.217 -0.2175  0.7068 -0.1214
 6402TIP3    H119170   4.514   3.370   2.202 -2.0144 -1.2774  1.5410
 6402TIP3    H219171   4.445   3.484   2.131  0.3859 -1.4756 -1.3301
 6403TIP3   OH219172   4.879   2.812   0.555 -0.1692 -0.5828  0.0396
 6403TIP3    H119173   4.936   2.740   0.530 -0.2247 -1.0226  1.1037
 6403TIP3    H219174   4.795   2.793   0.513 -0.4975 -1.7189  1.1297
 6404TIP3   OH219175   2.490   5.508   3.846 -0.1379 -0.3782  0.3852
 6404TIP3    H119176   2.542   5.428   3.853 -1.7109 -1.4203  0.5598
 6404TIP3    H219177   2.458   5.507   3.756 -1.1020 -0.5711  0.7177
 6405TIP3   OH219178   1.151   1.468   3.001  0.3978  0.2753 -0.1379
 6405TIP3    H119179   1.245   1.480   3.014  0.4737  0.4075 -0.7839
 6405TIP3    H219180   1.139   1.476   2.906 -0.3720  1.0434  0.0140
 6406TIP3   OH219181   3.377   3.069   3.504  1.1729  0.7711 -0.5937
 6406TIP3    H119182   3.332   2.986   3.491  0.7444  1.2036 -2.0206
 6406TIP3    H219183   3.385   3.106   3.416  1.4621  2.1908  0.0053
 6407TIP3   OH219184   1.128   4.461   4.775 -0.4895  0.0273 -0.6151
 6407TIP3    H119185   1.113   4.491   4.865 -0.4689  0.0430 -0.6170
 6407TIP3    H219186   1.090   4.529   4.720 -2.8915 -1.2159 -0.5978
 6408TIP3   OH219187   0.532   6.584   4.567 -0.1505 -0.1232  0.5736
 6408TIP3    H119188   0.561   6.498   4.537  0.0670 -0.0425  0.5464
 6408TIP3    H219189   0.445   6.595   4.530 -0.3338 -0.4901  0.8813
 6409TIP3   OH219190   5.702   0.552   0.786  0.2521 -0.7942 -0.5880
 6409TIP3    H119191   5.769   0.501   0.740  0.7683 -0.1489 -0.5802
 6409TIP3    H219192   5.647   0.589   0.716  0.5891 -0.4160 -0.6591
 6410TIP3   OH219193   4.765   3.671   1.180  0.0137 -0.2422 -0.7183
 6410TIP3    H119194   4.725   3.718   1.107 -1.4770  0.1561  0.3216
 6410TIP3    H219195   4.692   3.644   1.234  0.9971 -1.8400 -0.1218
 6411TIP3   OH219196   6.262   2.890   3.412  0.6432 -0.2355 -0.0981
 6411TIP3    H119197   6.265   2.965   3.472 -1.1579 -0.0565 -0.1485
 6411TIP3    H219198   6.235   2.929   3.328 -1.1069 -0.9983  0.0718
 6412TIP3   OH219199   4.871   3.674   3.350 -0.2731  0.4374 -0.0471
 6412TIP3    H119200   4.938   3.622   3.306 -0.6492  0.5593 -0.7892
 6412TIP3    H219201   4.793   3.619   3.348 -0.3114  0.4758  0.4051
 6413TIP3   OH219202   5.488   4.176   0.123 -0.3856  0.5675  0.2786
 6413TIP3    H119203   5.472   4.123   0.044 -0.3676 -0.4241  0.9199
 6413TIP3    H219204   5.406   4.169   0.173 -0.7510  1.9869 -0.0858
 6414TIP3   OH219205   5.531   0.603   3.398 -0.7129  0.2718  0.8319
 6414TIP3    H119206   5.589   0.677   3.379  1.8219 -1.5256  1.0620
 6414TIP3    H219207   5.549   0.581   3.489 -0.7881 -1.1149  0.5298
 6415TIP3   OH219208   4.941   1.936   5.090  0.6663 -0.5686  0.1702
 6415TIP3    H119209   4.931   1.987   5.010 -1.2726  0.0026  0.7174
 6415TIP3    H219210   4.971   2.000   5.155 -2.6300  0.2549  1.0839
 6416TIP3   OH219211   6.483   6.191   5.255 -0.8924  0.3837 -0.4732
 6416TIP3    H119212   6.575   6.189   5.228 -0.4181 -0.4529  1.0630
 6416TIP3    H219213   6.463   6.100   5.279 -1.1401  1.0469  2.1460
 6417TIP3   OH219214   6.062   2.990   1.249 -0.1744  0.2353 -0.3289
 6417TIP3    H119215   6.096   3.060   1.305  1.2392 -0.7498  0.1110
 6417TIP3    H219216   6.129   2.979   1.182 -0.7436 -0.1959 -0.8372
 6418TIP3   OH219217   5.828   2.798   2.909  0.4846  0.3358 -0.0530
 6418TIP3    H119218   5.820   2.876   2.853  0.2023 -0.6055 -1.3646
 6418TIP3    H219219   5.913   2.761   2.888  0.3761 -0.0289  0.1344
 6419TIP3   OH219220   5.735   6.083   4.059  0.0229  0.0383  0.6703
 6419TIP3    H119221   5.767   6.066   4.147 -1.1004  2.2285  1.5931
 6419TIP3    H219222   5.658   6.140   4.072 -0.0792  0.5544 -1.7147
 6420TIP3   OH219223   6.502   3.990   2.601  0.3001  0.6925 -0.0215
 6420TIP3    H119224   6.495   3.908   2.551  2.7607 -0.5778  1.4758
 6420TIP3    H219225   6.451   3.974   2.680 -1.4180  1.6988 -0.8737
 6421TIP3   OH219226   5.667   3.748   0.344 -0.1525  0.2783  0.0517
 6421TIP3    H119227   5.641   3.727   0.254 -0.3723  2.1940 -0.3705
 6421TIP3    H219228   5.691   3.840   0.341  1.6272 -0.0707  1.5770
 6422TIP3   OH219229   5.582   2.379   5.554 -0.1513 -0.4239 -0.2959
 6422TIP3    H119230   5.560   2.429   5.632 -0.3007 -0.0071 -0.6040
 6422TIP3    H219231   5.528   2.417   5.485 -0.3946 -1.1213 -0.4967
 6423TIP3   OH219232   0.372   2.902   0.918  0.1741  0.5501 -0.2363
 6423TIP3    H119233   0.341   2.986   0.885 -2.0162  0.2144  0.7853
 6423TIP3    H219234   0.293   2.847   0.921  1.4180 -1.3130 -0.1776
 6424TIP3   OH219235   1.856   4.686   0.830 -0.2978 -0.4357  0.2347
 6424TIP3    H119236   1.817   4.662   0.746  0.0276 -0.1562  0.0036
 6424TIP3    H219237   1.891   4.604   0.865 -1.0858 -0.6907  0.4438
 6425TIP3   OH219238   1.370   4.660   5.621 -0.3349 -0.0886 -0.5372
 6425TIP3    H119239   1.332   4.748   5.631 -0.0298  0.0127 -0.2614
 6425TIP3    H219240   1.375   4.626   5.710  1.9351  0.6222 -0.3377
 6426TIP3   OH219241   1.667   6.274   5.336  0.4283 -0.5829  0.0488
 6426TIP3    H119242   1.575   6.297   5.327  0.0420 -1.6336  1.1478
 6426TIP3    H219243   1.694   6.315   5.419  1.4157  1.0726 -1.0166
 6427TIP3   OH219244   6.391   0.537   5.756  0.5054 -0.7609 -0.1580
 6427TIP3    H119245   6.478   0.517   5.790  0.0330 -1.5964  0.5788
 6427TIP3    H219246   6.352   0.452   5.738  0.0238 -0.3772 -0.9971
 6428TIP3   OH219247   4.760   4.046   4.010 -0.1697 -0.5873  0.0123
 6428TIP3    H119248   4.805   4.088   4.083  0.1473 -0.4605 -0.2507
 6428TIP3    H219249   4.777   3.952   4.022 -0.2324 -0.5787  0.1742
 6429TIP3   OH219250   5.471   3.689   3.532 -0.3119  0.7706  0.1690
 6429TIP3    H119251   5.379   3.663   3.520 -0.3644  0.9323  0.2214
 6429TIP3    H219252   5.470   3.747   3.608  0.4535 -2.7076  3.1082
 6430TIP3   OH219253   3.364   0.907   2.431 -0.4663  0.3855  1.0411
 6430TIP3    H119254   3.419   0.832   2.409  0.5937  1.1965  0.8561
 6430TIP3    H219255   3.380   0.971   2.361 -0.0261  1.4669  2.0874
 6431TIP3   OH219256   6.409   2.549   3.776 -0.4002 -0.3903 -0.1198
 6431TIP3    H119257   6.364   2.514   3.699  0.0520 -0.0678 -0.5364
 6431TIP3    H219258   6.498   2.566   3.745 -0.6004  1.1062  0.0859
 6432TIP3   OH219259   4.403   3.956   0.247 -0.1006 -0.2020  0.0668
 6432TIP3    H119260   4.374   4.038   0.286 -0.9211 -0.8503  0.8499
 6432TIP3    H219261   4.412   3.976   0.154 -0.4050  0.7369  0.2284
 6433TIP3   OH219262   5.422   4.675   0.734  0.5209 -0.0283 -0.2660
 6433TIP3    H119263   5.517   4.686   0.724  0.6738 -1.1494 -0.1821
 6433TIP3    H219264   5.404   4.588   0.699 -0.0388 -1.0234  2.2533
 6434TIP3   OH219265   3.803   5.943   2.320  0.3343 -0.4620 -0.1708
 6434TIP3    H119266   3.786   6.013   2.384 -2.6049  0.3511 -1.6768
 6434TIP3    H219267   3.898   5.938   2.316  0.7241  3.4328  0.0759
 6435TIP3   OH219268   1.056   3.241   4.099 -0.1826  0.1632 -0.0118
 6435TIP3    H119269   1.076   3.331   4.075  0.7047  0.1582  0.6405
 6435TIP3    H219270   1.112   3.188   4.042 -0.3929  0.0422 -0.1055
 6436TIP3   OH219271   0.580   0.572   0.332  0.3709  0.1608 -0.4199
 6436TIP3    H119272   0.498   0.613   0.359 -0.1722 -0.6411 -0.8160
 6436TIP3    H219273   0.615   0.630   0.264 -0.4059 -0.0455 -1.0023
 6437TIP3   OH219274   3.641   6.145   5.851 -0.0549 -0.1067 -0.2943
 6437TIP3    H119275   3.560   6.094   5.842 -0.5603  0.8993 -1.7308
 6437TIP3    H219276   3.671   6.160   5.761  1.6396 -0.2741  0.1956
 6438TIP3   OH219277   6.811   5.129   3.976 -0.0036 -0.4604 -0.0926
 6438TIP3    H119278   6.795   5.070   3.902  1.9027 -0.1749 -0.7936
 6438TIP3    H219279   6.763   5.209   3.955 -1.5193 -1.2541  0.2258
 6439TIP3   OH219280   4.668   2.719   5.139 -0.2514  0.0955 -0.4926
 6439TIP3    H119281   4.676   2.805   5.098 -0.4064  0.1785 -0.3513
 6439TIP3    H219282   4.723   2.662   5.085  1.1283  0.5920  0.3289
 6440TIP3   OH219283   0.015   0.494   0.447  0.4006  0.2340  0.3414
 6440TIP3    H119284   0.024   0.500   0.542 -2.4100 -0.4894  0.7228
 6440TIP3    H219285  -0.007   0.402   0.431 -1.8137  0.9022 -0.6959
 6441TIP3   OH219286   3.985   3.233   2.034  0.2439  0.3386  0.2618
 6441TIP3    H119287   3.936   3.213   1.954  0.8141  0.7385 -0.1895
 6441TIP3    H219288   4.077   3.223   2.009  0.4115 -0.2364  1.0576
 6442TIP3   OH219289   5.307   3.186   0.975 -0.1422  0.4206 -0.0055
 6442TIP3    H119290   5.223   3.138   0.971 -1.0987  2.0654 -0.6378
 6442TIP3    H219291   5.355   3.156   0.898  0.5289 -1.6524  1.1520
 6443TIP3   OH219292   5.819   4.194   5.226  0.2542 -0.7157 -0.7401
 6443TIP3    H119293   5.734   4.199   5.182  0.3420 -1.6966 -1.0545
 6443TIP3    H219294   5.863   4.121   5.183  0.2737 -1.8424  1.0725
 6444TIP3   OH219295   0.683   3.408   0.298  0.0322  0.2816 -0.0532
 6444TIP3    H119296   0.665   3.360   0.379  0.7515 -0.2873 -0.2253
 6444TIP3    H219297   0.610   3.386   0.240  0.0974 -0.2061  0.0486
 6445TIP3   OH219298   1.926   2.306   2.368 -0.0697  0.0717 -0.4645
 6445TIP3    H119299   1.940   2.367   2.296 -0.7464  1.5015  0.5537
 6445TIP3    H219300   1.842   2.264   2.348  0.9541 -1.4919 -1.7754
 6446TIP3   OH219301   0.668   5.911   0.553  0.3439 -0.1682  0.9426
 6446TIP3    H119302   0.665   5.816   0.568 -0.8450 -0.3333 -0.1205
 6446TIP3    H219303   0.724   5.944   0.623  0.6398 -1.6307  1.4511
 6447TIP3   OH219304   1.376   1.600   1.211  0.1624  0.8084  0.0656
 6447TIP3    H119305   1.409   1.609   1.300 -1.7173  0.2730  0.8616
 6447TIP3    H219306   1.455   1.588   1.158  1.3121  0.8759  1.6735
 6448TIP3   OH219307   3.820   6.613   0.883 -0.1046  0.3753  0.4695
 6448TIP3    H119308   3.757   6.684   0.900 -1.7046 -1.0269  0.6322
 6448TIP3    H219309   3.768   6.533   0.890  1.4197 -0.7764 -0.8080
 6449TIP3   OH219310   4.738   3.193   3.277 -0.1601  0.4921  0.0865
 6449TIP3    H119311   4.823   3.219   3.242 -0.1951  1.1995  0.5173
 6449TIP3    H219312   4.758   3.153   3.362 -0.1801 -0.1883 -0.2202
 6450TIP3   OH219313   3.418   2.036   3.426  0.3188  0.2062  0.7137
 6450TIP3    H119314   3.376   1.957   3.391 -1.1939  1.1533  0.2899
 6450TIP3    H219315   3.377   2.108   3.378  0.7125  1.3372  2.0099
 6451TIP3   OH219316   0.224   3.208   4.618  0.5919 -0.1765 -0.2445
 6451TIP3    H119317   0.185   3.283   4.663  2.1720 -0.4029  1.6297
 6451TIP3    H219318   0.163   3.188   4.547 -1.2788  1.1224  0.9146
 6452TIP3   OH219319   2.407   5.798   3.357  0.2829 -0.0728  0.3422
 6452TIP3    H119320   2.414   5.813   3.451  0.2557  0.2515  0.2938
 6452TIP3    H219321   2.495   5.816   3.323 -0.0283  1.1231  0.1297
 6453TIP3   OH219322   3.507   1.571   5.624  0.3149  0.5559 -0.3324
 6453TIP3    H119323   3.599   1.586   5.646  0.2918 -0.5064  0.6060
 6453TIP3    H219324   3.506   1.556   5.530  0.9879  1.3301 -0.4682
 6454TIP3   OH219325   4.654   2.585   0.625 -0.2386  0.0656 -0.3172
 6454TIP3    H119326   4.594   2.512   0.638 -0.1893 -0.4463 -2.4537
 6454TIP3    H219327   4.667   2.588   0.530 -0.0248  2.6944 -0.2804
 6455TIP3   OH219328   6.241   5.106   1.724  0.3316  0.5355 -0.2858
 6455TIP3    H119329   6.230   5.068   1.637  0.6951 -1.0724  0.3342
 6455TIP3    H219330   6.155   5.144   1.744 -0.0527  0.0468 -0.9485
 6456TIP3   OH219331   4.861   0.345   3.581  0.1529  0.3340  0.2015
 6456TIP3    H119332   4.906   0.429   3.576 -0.7333  0.9614  1.9345
 6456TIP3    H219333   4.807   0.341   3.502  0.6892  1.0953 -0.2144
 6457TIP3   OH219334   5.216   1.755   0.039  0.2147 -0.3247  0.0769
 6457TIP3    H119335   5.302   1.754   0.082 -0.0387 -2.4322  0.6435
 6457TIP3    H219336   5.179   1.840   0.063  1.0063 -0.4948  2.2124
 6458TIP3   OH219337   5.023   6.149   1.527  0.0218 -0.0672 -0.2884
 6458TIP3    H119338   5.055   6.234   1.497  1.9281 -0.8216 -0.5519
 6458TIP3    H219339   5.032   6.153   1.622 -1.1385  0.4666 -0.1819
 6459TIP3   OH219340   3.291   2.079   1.158  0.6531 -0.1557  0.2861
 6459TIP3    H119341   3.247   1.998   1.130  0.4382  0.2169 -0.4836
 6459TIP3    H219342   3.287   2.077   1.254 -0.0533 -0.6713  0.2501
 6460TIP3   OH219343   1.385   4.266   4.899 -0.2335 -0.3389 -0.3817
 6460TIP3    H119344   1.357   4.299   4.814  0.3339 -1.0039 -0.8439
 6460TIP3    H219345   1.307   4.225   4.936 -0.5565  0.2092 -0.4470
 6461TIP3   OH219346   2.567   4.098   1.615  0.2509 -0.4451 -0.4573
 6461TIP3    H119347   2.572   4.018   1.564  0.3981 -1.6823  1.4079
 6461TIP3    H219348   2.657   4.126   1.627  0.3469 -1.0902  0.4705
 6462TIP3   OH219349   1.352   5.660   1.796  0.1013  0.1912 -0.3685
 6462TIP3    H119350   1.314   5.582   1.756  0.2823 -0.5637  0.8838
 6462TIP3    H219351   1.446   5.651   1.783  0.2640 -0.6847  1.2748
 6463TIP3   OH219352   4.481   5.105   2.045  0.1185 -0.1386 -0.4728
 6463TIP3    H119353   4.478   5.036   1.980  0.5640 -0.8722  0.2692
 6463TIP3    H219354   4.536   5.173   2.006  2.0604 -1.4099 -0.0972
 6464TIP3   OH219355   0.903   6.243   3.946  0.4754  0.2583  0.7130
 6464TIP3    H119356   0.825   6.278   3.903  0.7716  0.9979  0.7638
 6464TIP3    H219357   0.873   6.164   3.991 -0.8373  1.9142  2.9415
 6465TIP3   OH219358   6.124   2.045   3.141 -0.0593  0.3174  0.3523
 6465TIP3    H119359   6.112   2.035   3.047 -1.1302  0.2961  0.4848
 6465TIP3    H219360   6.037   2.032   3.178  0.5511 -0.8509  1.4467
 6466TIP3   OH219361   1.548   3.933   5.592 -0.2334  0.5006 -0.3550
 6466TIP3    H119362   1.496   3.975   5.524 -1.4308  0.7678  0.6917
 6466TIP3    H219363   1.524   3.840   5.588  0.4468  0.3375 -0.9316
 6467TIP3   OH219364   4.302   4.819   3.711  0.0086  0.0257  0.9262
 6467TIP3    H119365   4.359   4.743   3.727  1.4355  0.1330 -2.6600
 6467TIP3    H219366   4.214   4.782   3.706  0.8226 -1.8145 -2.2628
 6468TIP3   OH219367   4.426   1.518   5.551  0.0721 -0.3899  0.0375
 6468TIP3    H119368   4.347   1.503   5.499  0.1867 -0.8168 -0.0166
 6468TIP3    H219369   4.491   1.547   5.488  0.4460 -1.7016 -0.2002
 6469TIP3   OH219370   3.301   5.868   0.556  0.2637  0.1721  0.2221
 6469TIP3    H119371   3.395   5.858   0.542  0.0705 -1.9638  0.1720
 6469TIP3    H219372   3.262   5.858   0.470 -0.0850 -0.1292  0.4114
 6470TIP3   OH219373   3.633   4.240   3.518  0.2872 -0.2951 -0.3646
 6470TIP3    H119374   3.563   4.296   3.487 -0.4717 -0.6969  0.5690
 6470TIP3    H219375   3.708   4.299   3.529 -0.6685  0.6969  1.1989
 6471TIP3   OH219376   2.375   0.605   5.570 -0.4504  0.4461  0.0768
 6471TIP3    H119377   2.321   0.562   5.636 -2.0435  0.7352 -0.9786
 6471TIP3    H219378   2.319   0.608   5.492  1.4637 -0.1032 -1.3739
 6472TIP3   OH219379   7.164   0.378   2.728  0.1180 -0.0735  0.0387
 6472TIP3    H119380   7.234   0.437   2.753  0.8847 -0.7868 -0.3724
 6472TIP3    H219381   7.160   0.313   2.798  0.1151 -0.2452 -0.1198
 6473TIP3   OH219382   7.039   5.012   3.009  0.0978  0.5739 -0.3569
 6473TIP3    H119383   7.052   5.100   3.044 -0.2879 -0.0656  1.5033
 6473TIP3    H219384   7.128   4.975   3.004  0.0394  0.0454  1.7765
 6474TIP3   OH219385   6.908   5.537   5.628 -0.2392  0.2787 -0.3340
 6474TIP3    H119386   6.916   5.622   5.584  0.6382 -0.1104 -0.9627
 6474TIP3    H219387   6.866   5.558   5.712  1.1362  1.5385  0.0994
 6475TIP3   OH219388   6.650   1.339   3.694  0.2196 -0.4696  0.3289
 6475TIP3    H119389   6.598   1.417   3.675 -2.6603 -2.1202  0.9024
 6475TIP3    H219390   6.727   1.372   3.740 -0.7575  2.0380  0.3072
 6476TIP3   OH219391   5.380   2.415   2.762 -0.5543 -0.0131 -0.7240
 6476TIP3    H119392   5.332   2.434   2.842  0.4106 -0.7579  0.0651
 6476TIP3    H219393   5.412   2.500   2.732  0.0233  0.1564  0.3247
 6477TIP3   OH219394   3.678   6.617   0.420  0.4581 -0.2465 -0.5092
 6477TIP3    H119395   3.662   6.685   0.486 -0.4497  0.4365 -1.4039
 6477TIP3    H219396   3.687   6.536   0.471  1.4941  0.5131  0.5744
 6478TIP3   OH219397   6.314   1.794   1.879  0.1394 -0.2603 -0.3793
 6478TIP3    H119398   6.246   1.737   1.913  2.0275 -1.9041  0.8582
 6478TIP3    H219399   6.285   1.883   1.902 -1.5815 -0.8930  0.0372
 6479TIP3   OH219400   3.823   2.877   3.129 -0.4488  0.0122 -0.0699
 6479TIP3    H119401   3.736   2.847   3.153 -1.0306  0.1617 -1.8096
 6479TIP3    H219402   3.817   2.895   3.035  1.1258  1.1873  0.0028
 6480TIP3   OH219403   4.925   5.042   0.292  0.0669 -0.3101 -0.0636
 6480TIP3    H119404   4.958   5.126   0.325 -0.5168 -0.2342  0.3561
 6480TIP3    H219405   4.938   4.981   0.365 -2.4211  0.1474  0.8720
 6481TIP3   OH219406   5.169   6.734   4.538  0.2048  0.2161 -0.0378
 6481TIP3    H119407   5.178   6.828   4.551 -1.2102  0.1041  2.3070
 6481TIP3    H219408   5.258   6.700   4.542  0.6583  1.3629 -0.1496
 6482TIP3   OH219409   2.684   3.272   0.149  0.3947  0.1159  0.2974
 6482TIP3    H119410   2.608   3.320   0.181  0.4306  0.0155  0.5404
 6482TIP3    H219411   2.649   3.210   0.086  0.2874  0.1401  0.3332
 6483TIP3   OH219412   6.437   1.247   1.595  0.0086 -0.5626 -0.2033
 6483TIP3    H119413   6.457   1.338   1.574  1.8608 -1.0967 -0.9344
 6483TIP3    H219414   6.342   1.239   1.579 -0.1624  1.1847 -0.2314
 6484TIP3   OH219415   4.129   6.634   3.950  0.4563 -0.2886  0.3038
 6484TIP3    H119416   4.063   6.704   3.954 -0.1202 -0.7530 -0.7348
 6484TIP3    H219417   4.194   6.659   4.016 -0.0078  0.9469  0.3259
 6485TIP3   OH219418   3.606   4.227   5.411  0.6681 -0.0918  0.3751
 6485TIP3    H119419   3.699   4.216   5.391  0.7182  0.5060  0.2757
 6485TIP3    H219420   3.602   4.307   5.463  0.0705  0.5605 -0.6429
 6486TIP3   OH219421   5.775   3.880   3.969 -0.3486 -0.2403  0.0571
 6486TIP3    H119422   5.856   3.932   3.964 -0.9556  0.6287 -1.6436
 6486TIP3    H219423   5.769   3.854   4.061  1.1847  0.7680  0.4869
 6487TIP3   OH219424   0.921   4.136   5.753  0.5382  0.6583 -0.2302
 6487TIP3    H119425   0.932   4.227   5.725  1.5433  0.3796 -0.8023
 6487TIP3    H219426   0.976   4.129   5.831  1.9314  0.1053 -1.2112
 6488TIP3   OH219427   6.652   5.775   0.392 -0.3141 -0.5838  0.1103
 6488TIP3    H119428   6.730   5.762   0.338  0.3601  1.8230  0.3946
 6488TIP3    H219429   6.627   5.686   0.419  1.7460 -1.5042 -0.7591
 6489TIP3   OH219430   6.490   4.536   0.941  0.2524 -0.1670 -0.4962
 6489TIP3    H119431   6.447   4.621   0.928  1.8177  0.8419  0.6226
 6489TIP3    H219432   6.583   4.556   0.939  0.6722 -2.0543 -1.2823
 6490TIP3   OH219433   4.368   6.063   4.004  0.1404 -0.4440  0.2954
 6490TIP3    H119434   4.278   6.065   4.037 -0.3961  0.5853 -1.1329
 6490TIP3    H219435   4.409   6.141   4.040  0.3244 -0.6518  0.5436
 6491TIP3   OH219436   4.403   6.567   0.914 -0.2749 -0.2125 -0.4806
 6491TIP3    H119437   4.487   6.605   0.937 -0.1295 -0.3433 -0.7876
 6491TIP3    H219438   4.350   6.642   0.884 -0.3183 -0.1093 -0.1494
 6492TIP3   OH219439   6.891   2.496   0.304 -0.6702  0.4024 -0.3293
 6492TIP3    H119440   6.909   2.445   0.382 -2.7229 -0.9576 -0.6479
 6492TIP3    H219441   6.968   2.485   0.249 -0.2130 -0.6693  0.4869
 6493TIP3   OH219442   6.651   5.613   4.398 -0.0654 -0.8629  0.3218
 6493TIP3    H119443   6.660   5.532   4.449 -0.3554 -1.1424 -0.0557
 6493TIP3    H219444   6.641   5.582   4.308 -3.1176 -0.5829  0.4617
 6494TIP3   OH219445   3.636   4.308   3.182 -0.4866 -0.5247 -0.6199
 6494TIP3    H119446   3.583   4.234   3.211 -1.1686 -0.7186 -2.2193
 6494TIP3    H219447   3.583   4.349   3.113 -0.1169  1.4611  0.2044
 6495TIP3   OH219448   3.698   4.623   0.383  0.4001  0.2623  0.0577
 6495TIP3    H119449   3.622   4.589   0.336 -0.3133 -0.7517  1.8198
 6495TIP3    H219450   3.678   4.606   0.475  2.2773  1.0089  0.6457
 6496TIP3   OH219451   5.704   5.761   3.568 -0.0042 -0.2280 -0.6258
 6496TIP3    H119452   5.680   5.679   3.611  0.2073  0.4749  0.9098
 6496TIP3    H219453   5.621   5.799   3.540 -0.0772 -1.0985 -1.6105
 6497TIP3   OH219454   6.059   4.628   5.034  0.6677  0.4528 -0.2568
 6497TIP3    H119455   6.020   4.585   4.958  1.2853  2.7880 -2.0520
 6497TIP3    H219456   6.150   4.599   5.034 -0.1935 -2.7962  2.2405
 6498TIP3   OH219457   1.513   0.511   1.276  0.3197 -0.1276  0.0905
 6498TIP3    H119458   1.452   0.488   1.206  1.1767  0.8163 -1.0113
 6498TIP3    H219459   1.537   0.602   1.258  2.0155 -0.4583  0.5153
 6499TIP3   OH219460   1.849   2.597   1.637  0.3563  0.5012  0.0392
 6499TIP3    H119461   1.854   2.607   1.542  2.3192 -1.8288 -0.2063
 6499TIP3    H219462   1.823   2.506   1.650 -0.1338  0.8551  1.7682
 6500TIP3   OH219463   6.639   5.365   3.933 -0.1373  0.6713 -0.2268
 6500TIP3    H119464   6.545   5.348   3.920 -0.4093  1.4660  0.5946
 6500TIP3    H219465   6.656   5.445   3.883  0.6139 -0.6495 -2.1713
 6501TIP3   OH219466   4.805   6.182   0.221 -0.3494 -0.2546  0.2330
 6501TIP3    H119467   4.719   6.186   0.179 -0.2820 -0.5168  0.0649
 6501TIP3    H219468   4.860   6.240   0.169  0.4032 -2.4781 -1.6656
 6502TIP3   OH219469   0.825   3.436   5.572 -0.0577 -0.0068 -0.0908
 6502TIP3    H119470   0.887   3.371   5.605 -0.5094 -1.5990 -2.1370
 6502TIP3    H219471   0.794   3.399   5.489 -0.0396  3.0458 -1.5857
 6503TIP3   OH219472   3.351   0.727   4.413 -0.1842  0.1031  0.9276
 6503TIP3    H119473   3.423   0.664   4.416 -1.8000 -1.8234  2.0344
 6503TIP3    H219474   3.300   0.709   4.493 -2.9674 -0.0155 -0.7467
 6504TIP3   OH219475   5.743   2.275   1.593  0.6371 -0.4371 -0.0336
 6504TIP3    H119476   5.686   2.225   1.536  1.1206 -0.4243 -0.5332
 6504TIP3    H219477   5.829   2.273   1.550  0.3773  1.9937 -0.8141
 6505TIP3   OH219478   4.959   0.580   0.729  0.2362  0.3281 -0.0881
 6505TIP3    H119479   4.912   0.553   0.650 -1.1836 -0.0764  0.8548
 6505TIP3    H219480   5.011   0.503   0.754 -2.3105 -1.0354  1.4980
 6506TIP3   OH219481   2.475   1.277   3.650  0.3539  0.0943 -0.0037
 6506TIP3    H119482   2.409   1.346   3.641  1.5980  1.1758 -1.1024
 6506TIP3    H219483   2.523   1.301   3.730 -0.7162 -0.8559  0.9644
 6507TIP3   OH219484   6.700   5.788   1.595  0.0674  0.3905 -0.7435
 6507TIP3    H119485   6.648   5.773   1.673 -1.9540  3.1933 -1.3703
 6507TIP3    H219486   6.790   5.790   1.626 -0.7405  2.6727  1.8726
 6508TIP3   OH219487   1.570   6.074   0.129  0.5464  0.3651 -0.0064
 6508TIP3    H119488   1.625   6.134   0.080 -0.0472  0.2430 -0.8331
 6508TIP3    H219489   1.623   6.051   0.206  1.9967 -0.3887 -1.1778
 6509TIP3   OH219490   5.560   1.056   0.362  0.1317 -0.0984  0.3081
 6509TIP3    H119491   5.478   1.006   0.359 -0.9135  1.5993 -1.0342
 6509TIP3    H219492   5.613   1.020   0.291 -1.9805  2.7434 -3.0002
 6510TIP3   OH219493   5.582   0.449   3.634 -0.5880 -0.4264 -0.0332
 6510TIP3    H119494   5.556   0.361   3.606 -1.0846  0.2615 -1.9369
 6510TIP3    H219495   5.550   0.456   3.724 -1.5765 -1.7858 -0.2367
 6511TIP3   OH219496   2.762   3.303   5.529 -0.1086  0.1593 -0.1839
 6511TIP3    H119497   2.851   3.269   5.519 -0.4804 -0.3858 -2.1069
 6511TIP3    H219498   2.727   3.256   5.604  1.3962  0.8434  1.0164
 6512TIP3   OH219499   4.848   4.367   2.119  0.0916 -0.4052 -0.6442
 6512TIP3    H119500   4.929   4.325   2.092  0.4780 -0.0488 -0.0671
 6512TIP3    H219501   4.794   4.369   2.040  0.9724  0.1233 -1.2497
 6513TIP3   OH219502   3.118   3.233   2.840 -0.1522  0.1739  0.5068
 6513TIP3    H119503   3.048   3.233   2.775  1.4494 -1.1586 -1.3084
 6513TIP3    H219504   3.179   3.300   2.809  1.4280 -1.5857 -0.3479
 6514TIP3   OH219505   1.491   6.560   4.253 -0.1165  0.0246 -0.0460
 6514TIP3    H119506   1.484   6.603   4.338 -1.6224 -0.2657 -0.0011
 6514TIP3    H219507   1.400   6.543   4.227  0.3274 -0.1266 -1.5903
 6515TIP3   OH219508   3.448   0.871   2.932  0.6296 -0.1761  0.5770
 6515TIP3    H119509   3.456   0.908   2.844  0.3983 -1.1564  0.1318
 6515TIP3    H219510   3.512   0.919   2.984 -1.2774  2.5314  0.6121
 6516TIP3   OH219511   1.737   5.014   5.858 -0.2046 -0.0054 -0.6719
 6516TIP3    H119512   1.679   4.992   5.785  0.8664 -1.9151 -1.0395
 6516TIP3    H219513   1.690   4.984   5.936 -0.1938 -0.5216 -0.8589
 6517TIP3   OH219514   3.249   1.054   3.644 -0.0524  0.2099 -0.8367
 6517TIP3    H119515   3.177   0.993   3.628  1.5940 -1.9262 -0.5443
 6517TIP3    H219516   3.327   1.006   3.617  1.4057  1.9149  0.1664
 6518TIP3   OH219517   3.390   6.491   0.252 -0.0354  0.9283 -0.3418
 6518TIP3    H119518   3.483   6.508   0.236 -0.4583  3.3009 -0.7223
 6518TIP3    H219519   3.376   6.402   0.221  2.6656 -0.5875  2.2767
 6519TIP3   OH219520   6.237   5.146   0.638 -0.1436  0.0120  0.0251
 6519TIP3    H119521   6.323   5.122   0.604 -0.1564 -1.2449  0.8127
 6519TIP3    H219522   6.248   5.146   0.733 -1.5077 -2.3653  0.2570
 6520TIP3   OH219523   1.405   2.063   4.030  0.0562  0.3008  0.5017
 6520TIP3    H119524   1.437   1.983   4.072  1.7169  0.4626 -0.3634
 6520TIP3    H219525   1.484   2.107   3.999 -0.9706  1.1360 -1.0687
 6521TIP3   OH219526   3.311   3.617   0.256  0.0708  0.0121  0.2848
 6521TIP3    H119527   3.217   3.609   0.238  0.4985 -0.8007 -1.8352
 6521TIP3    H219528   3.346   3.529   0.241  1.2948  0.4911  0.2130
 6522TIP3   OH219529   0.836   5.849   1.343  0.4741 -0.1436  0.0609
 6522TIP3    H119530   0.909   5.853   1.282  0.7671  0.3251  0.4368
 6522TIP3    H219531   0.823   5.755   1.359 -1.6689 -0.5562 -3.1521
 6523TIP3   OH219532   5.296   5.612   0.995 -0.1617  0.8233 -0.7495
 6523TIP3    H119533   5.245   5.533   0.976  0.2460  0.4640 -0.3998
 6523TIP3    H219534   5.234   5.670   1.040 -0.3070  0.4622 -0.4791
 6524TIP3   OH219535   2.026   6.410   3.422 -0.6230 -0.0124  0.5776
 6524TIP3    H119536   1.943   6.369   3.446 -1.5565  0.6455 -1.2834
 6524TIP3    H219537   2.000   6.493   3.381  0.9463  0.1058 -0.2424
 6525TIP3   OH219538   2.854   4.614   2.880  0.0479  0.5294 -0.1129
 6525TIP3    H119539   2.857   4.702   2.918  1.5820  0.6461 -0.4699
 6525TIP3    H219540   2.875   4.626   2.788  3.9487 -0.5109  0.4645
 6526TIP3   OH219541   1.868   6.685   1.290  0.4772  0.3404  0.3085
 6526TIP3    H119542   1.948   6.666   1.242 -0.4780  1.0849 -1.7033
 6526TIP3    H219543   1.860   6.781   1.286 -1.3201  0.1927 -1.0133
 6527TIP3   OH219544   1.305   0.362   3.734 -0.4821  0.1129 -0.0263
 6527TIP3    H119545   1.359   0.441   3.725  0.1546 -0.1630  1.1329
 6527TIP3    H219546   1.339   0.303   3.667  2.0761 -0.7893  1.8860
 6528TIP3   OH219547   2.143   2.979   1.468 -0.0826  0.6385 -0.1502
 6528TIP3    H119548   2.207   2.910   1.483 -1.6990 -1.0088 -0.3958
 6528TIP3    H219549   2.112   3.002   1.555 -0.5209  0.0343 -0.1362
 6529TIP3   OH219550   5.596   3.955   2.456 -0.0877  0.2288 -0.1875
 6529TIP3    H119551   5.573   3.963   2.364 -0.6728  3.7784  0.1341
 6529TIP3    H219552   5.683   3.995   2.463 -0.0445 -0.0004  0.7879
 6530TIP3   OH219553   7.054   2.303   5.397 -0.0656  0.4988 -0.3835
 6530TIP3    H119554   7.076   2.325   5.488 -2.1262  0.6590  0.1222
 6530TIP3    H219555   7.047   2.208   5.397 -3.3480  0.6337  0.5298
 6531TIP3   OH219556   2.441   5.294   3.118  0.3890  0.2910  0.2501
 6531TIP3    H119557   2.449   5.200   3.134 -1.1301  0.0847 -0.0560
 6531TIP3    H219558   2.397   5.300   3.033 -0.1905  1.2593  0.6036
 6532TIP3   OH219559   5.260   2.704   0.172  0.1369 -0.5359  0.0241
 6532TIP3    H119560   5.224   2.787   0.143  0.3779 -0.2442  0.5463
 6532TIP3    H219561   5.355   2.714   0.164  0.1316 -1.5306 -1.9705
 6533TIP3   OH219562   4.068   3.468   2.159  0.6546 -0.1638 -0.3433
 6533TIP3    H119563   4.104   3.479   2.071  2.3098 -1.4482  0.1257
 6533TIP3    H219564   4.042   3.376   2.163 -0.2289  0.0993  0.2327
 6534TIP3   OH219565   7.036   0.505   3.825 -0.6692  1.0245  0.0671
 6534TIP3    H119566   6.991   0.465   3.751 -1.0014 -0.3451  0.9786
 6534TIP3    H219567   7.129   0.504   3.799 -0.6268 -0.6351  0.1682
 6535TIP3   OH219568   6.089   5.191   3.243 -0.4250 -0.6425 -0.2764
 6535TIP3    H119569   6.030   5.168   3.172  0.1460 -2.2470 -0.2658
 6535TIP3    H219570   6.034   5.192   3.321 -1.2330  1.9699 -0.7849
 6536TIP3   OH219571   1.482   4.331   3.164  0.4071  0.0708  0.2753
 6536TIP3    H119572   1.511   4.422   3.170 -0.6176  0.3360  2.2239
 6536TIP3    H219573   1.389   4.335   3.187  0.7015 -1.6192  2.0000
 6537TIP3   OH219574   3.337   6.609   1.964 -0.1506 -0.2236 -0.8101
 6537TIP3    H119575   3.334   6.597   1.869  1.2983  1.8095 -1.1627
 6537TIP3    H219576   3.373   6.526   1.997  1.2864 -0.2332 -2.2565
 6538TIP3   OH219577   4.356   0.336   5.743 -0.4916  0.4651  0.4384
 6538TIP3    H119578   4.265   0.353   5.719  0.0820  1.3684 -1.2805
 6538TIP3    H219579   4.394   0.423   5.757  0.4985  0.2056 -0.4862
 6539TIP3   OH219580   2.149   4.807   0.711  0.3891 -0.1655  0.3474
 6539TIP3    H119581   2.101   4.758   0.778  2.1270 -1.8984  0.4250
 6539TIP3    H219582   2.206   4.865   0.761 -2.7858  3.3779  0.2742
 6540TIP3   OH219583   3.344   3.230   5.642  0.2464  0.2510  0.5436
 6540TIP3    H119584   3.409   3.300   5.645  1.5490 -0.9383  1.0738
 6540TIP3    H219585   3.393   3.153   5.613 -0.7770 -0.8385  1.5964
 6541TIP3   OH219586   3.497   1.567   5.355  0.6696 -0.0201  0.4080
 6541TIP3    H119587   3.434   1.617   5.303  0.8065 -0.3018 -0.0272
 6541TIP3    H219588   3.542   1.511   5.292 -0.7436 -2.0759  1.1092
 6542TIP3   OH219589   0.556   3.652   4.574  0.2573  0.6909 -0.3954
 6542TIP3    H119590   0.636   3.600   4.584 -0.4742 -0.1556  1.5108
 6542TIP3    H219591   0.526   3.668   4.663 -1.5360  1.2644 -1.0475
 6543TIP3   OH219592   0.216   6.216   5.638  0.0596  0.3229  0.4518
 6543TIP3    H119593   0.196   6.243   5.548 -0.5140  0.2061  0.5403
 6543TIP3    H219594   0.237   6.298   5.683  0.9716  0.3146  0.0624
 6544TIP3   OH219595   3.814   5.370   0.878  0.2172 -0.0787  0.4080
 6544TIP3    H119596   3.742   5.429   0.902  1.3916  0.4326  2.9173
 6544TIP3    H219597   3.780   5.282   0.897 -0.7163 -0.1127 -1.1903
 6545TIP3   OH219598   5.904   4.042   3.728 -0.2627 -0.2917  0.4285
 6545TIP3    H119599   5.974   4.083   3.677 -0.3281  0.1717  0.7079
 6545TIP3    H219600   5.949   3.992   3.795 -0.1918  1.0918  1.4612
 6546TIP3   OH219601   0.555   1.486   0.672 -0.3306 -0.0950  0.1706
 6546TIP3    H119602   0.576   1.579   0.662 -0.4933 -0.0118  0.5805
 6546TIP3    H219603   0.506   1.481   0.754 -0.7077 -0.4830 -0.0786
 6547TIP3   OH219604   0.434   6.159   1.999  0.1155 -0.0989  0.0535
 6547TIP3    H119605   0.391   6.142   2.083 -0.8477 -0.7792 -0.5488
 6547TIP3    H219606   0.525   6.131   2.013 -0.4311 -1.9007  0.3796
 6548TIP3   OH219607   4.249   0.879   5.718  0.3921  0.1734  0.0371
 6548TIP3    H119608   4.223   0.862   5.809  1.2433  0.3110  0.3149
 6548TIP3    H219609   4.220   0.801   5.670  0.2006 -0.0273  0.4755
 6549TIP3   OH219610   5.848   5.196   3.459 -0.4366  0.2883 -0.3424
 6549TIP3    H119611   5.822   5.172   3.548 -0.7151 -0.9382 -0.7428
 6549TIP3    H219612   5.819   5.287   3.449  0.0531  0.6042  0.9860
 6550TIP3   OH219613   2.864   0.084   5.143  0.6147  0.0655 -0.4062
 6550TIP3    H119614   2.920   0.156   5.115  0.7867  0.0138 -0.2014
 6550TIP3    H219615   2.775   0.119   5.141  0.5522 -0.1480 -1.6861
 6551TIP3   OH219616   4.112   0.779   5.352 -0.1231 -0.0371 -0.3342
 6551TIP3    H119617   4.149   0.717   5.415  0.5211  0.2964 -0.3819
 6551TIP3    H219618   4.022   0.748   5.338 -0.1951 -0.2440  0.5645
 6552TIP3   OH219619   3.440   1.098   2.238  0.4733 -0.3961 -0.1744
 6552TIP3    H119620   3.472   1.188   2.242  0.0379 -0.2272 -0.4000
 6552TIP3    H219621   3.386   1.096   2.159  0.6388 -0.9083 -0.2734
 6553TIP3   OH219622   4.964   3.749   3.968 -0.4021 -0.1811  0.4849
 6553TIP3    H119623   4.890   3.691   3.989  0.4243 -1.6993 -0.6287
 6553TIP3    H219624   5.023   3.695   3.916  0.1461  1.8482 -1.1337
 6554TIP3   OH219625   0.700   1.206   1.715 -0.1101  0.5108 -0.5049
 6554TIP3    H119626   0.721   1.125   1.668 -2.2037  0.2110 -1.0312
 6554TIP3    H219627   0.663   1.264   1.648 -0.5726  1.1090  0.2423
 6555TIP3   OH219628   3.175   4.946   0.316 -0.7437  1.2183  1.0595
 6555TIP3    H119629   3.143   4.863   0.279 -0.5087  2.6387 -2.8508
 6555TIP3    H219630   3.270   4.940   0.311 -0.7150  1.5050  1.2350
 6556TIP3   OH219631   1.529   6.759   4.438  0.0122  0.5125  0.2933
 6556TIP3    H119632   1.479   6.809   4.503  1.1529  0.7888  1.0032
 6556TIP3    H219633   1.595   6.714   4.490 -0.2152 -0.7532 -0.4938
 6557TIP3   OH219634   1.583   0.182   0.274 -0.0825  0.3703 -1.0168
 6557TIP3    H119635   1.538   0.266   0.271  0.0112  0.4680 -0.0427
 6557TIP3    H219636   1.673   0.201   0.248  0.6967  1.1448  1.8624
 6558TIP3   OH219637   7.133   3.610   2.287  0.1555 -0.1179 -0.3913
 6558TIP3    H119638   7.185   3.587   2.210  0.6787  0.1003 -0.1067
 6558TIP3    H219639   7.069   3.539   2.295  1.7714 -1.5435  0.4897
 6559TIP3   OH219640   3.773   0.086   4.058  0.1935 -0.6448  0.0676
 6559TIP3    H119641   3.716   0.156   4.090  1.2052  0.3779 -0.2967
 6559TIP3    H219642   3.750   0.010   4.112  0.5942  0.5442  2.0252
 6560TIP3   OH219643   4.101   6.458   0.234 -0.7100  0.3284 -0.6449
 6560TIP3    H119644   4.074   6.368   0.249 -2.5487  0.7874 -0.8959
 6560TIP3    H219645   4.097   6.499   0.320  1.1487 -0.0489 -0.3478
 6561TIP3   OH219646   1.301   0.855   3.358 -0.0422 -0.2261 -0.2154
 6561TIP3    H119647   1.227   0.849   3.419  0.1584 -1.4942 -0.0573
 6561TIP3    H219648   1.272   0.807   3.281  0.1456  0.3836 -0.6733
 6562TIP3   OH219649   6.199   1.942   4.578  0.1415 -0.2844 -0.6528
 6562TIP3    H119650   6.289   1.931   4.547 -0.1964  0.1035 -1.8316
 6562TIP3    H219651   6.208   1.988   4.662  1.0797 -1.2513 -0.2089
 6563TIP3   OH219652   7.131   1.073   4.235 -0.1003 -0.5760  0.9259
 6563TIP3    H119653   7.099   1.104   4.320  1.1962  1.0393  0.8662
 6563TIP3    H219654   7.064   1.101   4.173  0.8228  1.8683  0.9349
 6564TIP3   OH219655   3.162   5.764   5.462  1.0716  0.1059 -0.1351
 6564TIP3    H119656   3.132   5.757   5.371  0.6232 -1.7427  0.1174
 6564TIP3    H219657   3.215   5.844   5.463 -0.2381  1.0718 -1.6231
 6565TIP3   OH219658   6.389   6.551   1.989  1.0790 -0.0051  0.3785
 6565TIP3    H119659   6.374   6.632   1.940  0.5648  0.0271  0.5847
 6565TIP3    H219660   6.365   6.572   2.079 -1.2270 -0.9780  0.0625
 6566TIP3   OH219661   4.860   2.582   4.418 -0.1743  0.3239 -0.4207
 6566TIP3    H119662   4.775   2.605   4.380 -0.2938 -0.6696 -0.7822
 6566TIP3    H219663   4.885   2.501   4.373  1.2158  0.8757 -0.6938
 6567TIP3   OH219664   5.921   6.109   1.054  0.9631  0.0301  0.0714
 6567TIP3    H119665   5.868   6.029   1.062  0.8364  0.2448  1.6091
 6567TIP3    H219666   5.868   6.177   1.095  1.3766  0.7750 -0.6058
 6568TIP3   OH219667   6.913   1.318   4.291 -0.9793  0.7090  0.3522
 6568TIP3    H119668   6.916   1.385   4.222 -1.3707  2.8067  2.2721
 6568TIP3    H219669   6.962   1.356   4.364 -0.7566 -1.3575  1.3349
 6569TIP3   OH219670   6.998   1.316   1.174  0.0539 -0.1201 -0.2799
 6569TIP3    H119671   7.060   1.386   1.193  0.8254 -0.7118 -0.5783
 6569TIP3    H219672   6.984   1.320   1.079 -1.0575  0.5689 -0.1058
 6570TIP3   OH219673   3.943   0.429   5.420 -0.0316  0.5429 -0.6806
 6570TIP3    H119674   3.893   0.371   5.361 -0.9386  1.9704 -1.3817
 6570TIP3    H219675   3.892   0.510   5.423 -1.0232 -0.0078  3.5614
 6571TIP3   OH219676   2.013   0.226   1.781  0.1148  0.1921 -0.1262
 6571TIP3    H119677   2.003   0.322   1.782 -0.4694  0.1329  0.7873
 6571TIP3    H219678   2.093   0.211   1.731  0.5211  1.1917  0.1994
 6572TIP3   OH219679   5.439   4.693   0.011  0.5117 -0.4105 -0.6778
 6572TIP3    H119680   5.479   4.770  -0.031 -1.4928  1.4505  0.5934
 6572TIP3    H219681   5.435   4.717   0.104 -2.0460 -1.1444 -0.5392
 6573TIP3   OH219682   2.313   3.788   5.850 -0.1251 -0.1707 -0.3027
 6573TIP3    H119683   2.308   3.729   5.925 -1.6438 -0.0170 -0.2641
 6573TIP3    H219684   2.295   3.875   5.887  2.6085  0.4743 -0.2524
 6574TIP3   OH219685   6.451   6.286   2.009 -0.7443  0.2638  0.0951
 6574TIP3    H119686   6.452   6.374   1.970 -1.7908  0.3790  0.3046
 6574TIP3    H219687   6.361   6.256   1.999 -0.1967 -1.1990 -0.8459
 6575TIP3   OH219688   3.325   5.046   3.527 -0.1797  0.3047  0.3126
 6575TIP3    H119689   3.383   5.111   3.487  0.4615 -1.2900 -1.4660
 6575TIP3    H219690   3.322   4.974   3.464 -1.8584 -0.8778  1.6581
 6576TIP3   OH219691   2.092   6.087   0.341 -0.5179  0.1075  0.4439
 6576TIP3    H119692   2.156   6.019   0.363 -0.1392  0.5736  0.8030
 6576TIP3    H219693   2.087   6.085   0.246  1.2430  1.1294  0.2874
 6577TIP3   OH219694   1.849   0.641   1.844  0.2276  0.6602  0.3280
 6577TIP3    H119695   1.760   0.659   1.813  0.3370 -1.2386 -1.3612
 6577TIP3    H219696   1.866   0.707   1.911 -2.0268  1.7670 -0.1053
 6578TIP3   OH219697   4.782   3.400   0.812  0.6416 -0.4853 -0.3444
 6578TIP3    H119698   4.759   3.421   0.903  0.6304  1.3135 -0.7172
 6578TIP3    H219699   4.753   3.477   0.762  0.9788 -1.2884 -1.8255
 6579TIP3   OH219700   1.743   5.576   4.358 -0.5129 -0.2812 -0.5987
 6579TIP3    H119701   1.829   5.562   4.317 -0.4308 -1.2665 -0.1252
 6579TIP3    H219702   1.733   5.672   4.360  1.1212 -0.0821  0.4111
 6580TIP3   OH219703   1.780   0.799   2.609  0.7153 -0.9283  0.5112
 6580TIP3    H119704   1.705   0.805   2.550 -0.5276 -0.4764  2.0723
 6580TIP3    H219705   1.818   0.887   2.608 -0.2824 -0.4561  1.5698
 6581TIP3   OH219706   0.320   3.324   5.466 -0.4919 -0.0936  0.0462
 6581TIP3    H119707   0.399   3.378   5.458 -0.2843 -0.4454 -0.3990
 6581TIP3    H219708   0.257   3.364   5.406  0.7881 -2.2486 -3.0068
 6582TIP3   OH219709   2.886   5.192   1.161  0.6500 -0.1948 -0.1074
 6582TIP3    H119710   2.938   5.121   1.124 -0.4080 -0.5362 -0.9756
 6582TIP3    H219711   2.856   5.157   1.246 -0.9619 -1.3431 -1.0996
 6583TIP3   OH219712   0.236   0.152   5.762  0.0778 -0.2622  0.6469
 6583TIP3    H119713   0.205   0.222   5.819 -0.8328  0.3150 -0.5217
 6583TIP3    H219714   0.314   0.119   5.806  0.0482  0.9164  1.6490
 6584TIP3   OH219715   1.193   1.544   3.807  0.5500  0.4209  0.0973
 6584TIP3    H119716   1.144   1.553   3.725 -0.7438  0.3819  0.8307
 6584TIP3    H219717   1.263   1.483   3.787  0.2289  0.3937 -0.9817
 6585TIP3   OH219718   6.953   4.834   4.443  0.2403 -0.0069  0.1191
 6585TIP3    H119719   6.955   4.872   4.355 -0.0105 -0.3790 -0.0505
 6585TIP3    H219720   7.022   4.767   4.440 -0.0906 -0.3496  0.0494
 6586TIP3   OH219721   2.881   4.309   0.068  0.6371  0.2351 -0.1422
 6586TIP3    H119722   2.914   4.305  -0.022  0.5364  2.5818 -0.3336
 6586TIP3    H219723   2.799   4.358   0.061  0.6582  0.4962  1.2508
 6587TIP3   OH219724   4.727   3.202   5.837  0.0623  0.0399  0.0730
 6587TIP3    H119725   4.702   3.196   5.744 -0.4780 -0.5821  0.2573
 6587TIP3    H219726   4.765   3.290   5.845 -0.8149  0.4910 -0.5202
 6588TIP3   OH219727   2.527   2.983   1.616  0.1205 -0.0609  0.3056
 6588TIP3    H119728   2.588   3.004   1.544 -1.2373  0.0276 -0.8674
 6588TIP3    H219729   2.466   2.920   1.577  0.0382 -0.8964  1.7484
 6589TIP3   OH219730   3.918   1.312   4.687  0.3673 -0.2103  0.4658
 6589TIP3    H119731   3.860   1.289   4.615 -0.1508 -2.5438  1.5231
 6589TIP3    H219732   4.002   1.273   4.664  0.6554  0.4467  0.3877
 6590TIP3   OH219733   6.383   5.529   3.189  0.1753 -0.2847  0.6643
 6590TIP3    H119734   6.385   5.622   3.167 -2.0969 -0.7921 -2.3204
 6590TIP3    H219735   6.300   5.517   3.234  0.5369 -0.8578  1.1928
 6591TIP3   OH219736   6.527   1.669   2.037  0.5245  0.0548 -0.1310
 6591TIP3    H119737   6.468   1.659   2.112 -0.8672 -1.1505 -1.3160
 6591TIP3    H219738   6.474   1.713   1.971  2.2014  2.5413  0.0210
 6592TIP3   OH219739   0.455   5.015   4.392  0.6397  0.1504 -0.0355
 6592TIP3    H119740   0.548   5.036   4.392  1.2250 -2.0484 -1.8819
 6592TIP3    H219741   0.411   5.100   4.397  2.7471  1.3734 -1.0164
 6593TIP3   OH219742   2.981   1.939   0.093 -0.5349 -0.1371  0.2357
 6593TIP3    H119743   2.926   1.918   0.168 -2.6448 -0.1979 -1.2320
 6593TIP3    H219744   2.959   1.872   0.028  0.9082  0.1652 -0.6208
 6594TIP3   OH219745   5.181   3.773   0.123 -0.1046 -0.1461 -0.4704
 6594TIP3    H119746   5.124   3.696   0.130 -0.5924  0.2965  0.5900
 6594TIP3    H219747   5.153   3.816   0.042  0.3136 -1.1849 -1.1823
 6595TIP3   OH219748   6.784   0.315   2.241 -0.1930  0.4420  0.3964
 6595TIP3    H119749   6.701   0.354   2.215 -0.6497 -0.7055  0.0851
 6595TIP3    H219750   6.763   0.259   2.316  0.1546 -0.4398 -0.1532
 6596TIP3   OH219751   1.743   3.972   3.878 -0.5069  0.0969  0.1556
 6596TIP3    H119752   1.767   4.061   3.852  1.0284 -0.8434 -2.0141
 6596TIP3    H219753   1.648   3.973   3.885 -0.5075  1.9264  0.3114
 6597TIP3   OH219754   6.048   3.848   1.091  0.0244  0.1619 -0.1967
 6597TIP3    H119755   6.100   3.893   1.157 -1.2016 -0.5325  1.3147
 6597TIP3    H219756   6.097   3.769   1.071  0.8815  0.8479 -0.8812
 6598TIP3   OH219757   5.481   2.105   2.831  0.4832  0.3853  0.1317
 6598TIP3    H119758   5.514   2.156   2.904 -0.9881  0.8630  0.5046
 6598TIP3    H219759   5.444   2.169   2.770  2.2002  0.0490 -1.3630
 6599TIP3   OH219760   4.737   0.646   3.774  0.4076 -0.3058  0.4099
 6599TIP3    H119761   4.741   0.559   3.734 -0.2927  0.0775 -0.5321
 6599TIP3    H219762   4.651   0.680   3.748  1.0731  1.0567 -0.0684
 6600TIP3   OH219763   5.876   0.159   2.443  0.1842 -0.7111  0.1800
 6600TIP3    H119764   5.867   0.238   2.389 -2.0637 -1.0119  0.0441
 6600TIP3    H219765   5.827   0.092   2.396  0.7014 -1.7827  1.1186
 6601TIP3   OH219766   6.157   5.104   4.145  0.0799 -0.8491 -0.3417
 6601TIP3    H119767   6.190   5.023   4.183  1.1388  0.1581  0.9652
 6601TIP3    H219768   6.153   5.166   4.218 -0.3860  0.3920 -1.3635
 6602TIP3   OH219769   3.038   0.959   1.892 -0.3620  0.1172 -0.4966
 6602TIP3    H119770   2.957   1.008   1.880 -0.3587  0.8958  2.0793
 6602TIP3    H219771   3.103   1.025   1.915  0.0734 -0.8642  1.2566
 6603TIP3   OH219772   0.743   4.897   1.637 -0.3023  0.0395  0.2970
 6603TIP3    H119773   0.732   4.815   1.588 -1.8225  0.3993 -0.0222
 6603TIP3    H219774   0.746   4.870   1.729 -0.2224 -0.4323  0.1554
 6604TIP3   OH219775   4.602   0.525   2.319 -0.1311  0.4407  0.0407
 6604TIP3    H119776   4.674   0.582   2.293 -0.7844  1.0599 -0.4388
 6604TIP3    H219777   4.628   0.493   2.406  2.0605 -1.6177 -1.2404
 6605TIP3   OH219778   5.625   5.937   3.235 -0.5007 -0.4222  0.2561
 6605TIP3    H119779   5.710   5.936   3.190 -1.1186 -3.4888 -1.0461
 6605TIP3    H219780   5.645   5.972   3.322  1.5365  1.4881 -0.8619
 6606TIP3   OH219781   2.104   1.757   0.220  0.1749  0.1550  0.3488
 6606TIP3    H119782   2.139   1.671   0.245 -1.6961 -0.8809 -0.4224
 6606TIP3    H219783   2.069   1.744   0.132  0.3671  1.8837 -0.0190
 6607TIP3   OH219784   6.348   1.788   4.355 -0.3204  0.0268 -0.6162
 6607TIP3    H119785   6.398   1.711   4.382  2.4626  2.4382  1.9043
 6607TIP3    H219786   6.257   1.764   4.368  0.5309 -2.1063  2.3398
 6608TIP3   OH219787   6.485   6.502   4.743  0.0284  0.2826  0.5088
 6608TIP3    H119788   6.541   6.424   4.748  1.3397  1.1296 -0.1918
 6608TIP3    H219789   6.512   6.545   4.661 -0.8020  1.3717  0.7840
 6609TIP3   OH219790   3.151   5.955   3.942  0.2700  0.1697 -0.6535
 6609TIP3    H119791   3.244   5.933   3.944 -0.2300 -2.2469 -0.5904
 6609TIP3    H219792   3.113   5.891   3.881 -1.3948  0.9163 -0.4512
 6610TIP3   OH219793   3.684   0.261   1.142  0.0273 -0.4023  0.1399
 6610TIP3    H119794   3.665   0.172   1.172  1.1547 -0.9013 -0.5434
 6610TIP3    H219795   3.599   0.297   1.118 -0.9267 -0.1041  3.4652
 6611TIP3   OH219796   0.104   0.500   3.808  0.5031 -0.2565  0.5758
 6611TIP3    H119797   0.152   0.529   3.731 -0.5097  0.1751  0.1000
 6611TIP3    H219798   0.125   0.406   3.815  1.7685  0.0188  0.6552
 6612TIP3   OH219799   1.080   1.839   4.938  0.0230  0.1366  0.0916
 6612TIP3    H119800   1.026   1.894   4.994 -0.5280 -1.3980  1.1463
 6612TIP3    H219801   1.079   1.753   4.980  1.0916 -0.6236 -1.3184
 6613TIP3   OH219802   5.225   6.185   4.228 -0.3361  0.2174 -0.0479
 6613TIP3    H119803   5.275   6.225   4.299  3.1168 -4.0483  0.3433
 6613TIP3    H219804   5.181   6.110   4.268 -1.5114 -0.0328 -1.6936
 6614TIP3   OH219805   0.744   4.319   0.209  0.5500 -0.2455  0.0609
 6614TIP3    H119806   0.678   4.249   0.212  0.0467  0.1931  3.1954
 6614TIP3    H219807   0.695   4.397   0.184  0.5107 -0.4530 -0.5277
 6615TIP3   OH219808   6.444   6.083   5.797 -0.5560 -0.0694  0.6013
 6615TIP3    H119809   6.450   6.095   5.702  0.5887 -1.9968  0.3740
 6615TIP3    H219810   6.534   6.072   5.826 -0.8870  0.4530  1.9361
 6616TIP3   OH219811   1.533   5.749   2.377 -0.4712  0.2304 -0.3550
 6616TIP3    H119812   1.577   5.728   2.294 -0.0679 -2.2132  0.3714
 6616TIP3    H219813   1.483   5.670   2.397 -0.0020  0.4751  2.0624
 6617TIP3   OH219814   2.934   4.645   2.217  0.1700 -0.0097 -0.3296
 6617TIP3    H119815   2.860   4.631   2.276  1.4695  1.5105  1.7954
 6617TIP3    H219816   2.900   4.703   2.149 -1.2303 -1.3959 -0.8698
 6618TIP3   OH219817   7.203   6.597   5.720  0.1266 -0.0562 -0.2060
 6618TIP3    H119818   7.218   6.649   5.641  1.5764  1.5625  1.0466
 6618TIP3    H219819   7.113   6.567   5.713  0.2475 -0.0403 -2.4992
 6619TIP3   OH219820   4.434   5.478   4.498 -0.3378 -0.2055  0.6521
 6619TIP3    H119821   4.474   5.486   4.585  1.0413 -2.0812  0.2636
 6619TIP3    H219822   4.397   5.389   4.498 -0.4971 -0.1513 -0.6159
 6620TIP3   OH219823   7.012   5.274   4.479  0.4029 -0.0372 -0.1179
 6620TIP3    H119824   7.035   5.211   4.411  1.0015 -0.7348  0.7010
 6620TIP3    H219825   6.928   5.309   4.452  0.4333 -0.6070 -1.0029
 6621TIP3   OH219826   2.836   5.663   1.857 -0.0151  0.0104  0.2228
 6621TIP3    H119827   2.743   5.685   1.864 -0.1301 -0.7330  1.1908
 6621TIP3    H219828   2.848   5.639   1.765 -0.2941  2.1477 -0.4353
 6622TIP3   OH219829   6.282   5.705   3.809 -0.5933  0.4078  0.4989
 6622TIP3    H119830   6.242   5.618   3.806  3.2376 -1.5482  0.1150
 6622TIP3    H219831   6.248   5.750   3.732 -1.6317 -1.2787 -0.0829
 6623TIP3   OH219832   6.051   4.958   5.411  0.0957 -0.0940  0.1332
 6623TIP3    H119833   6.066   4.867   5.386 -2.0303 -0.0780 -1.4207
 6623TIP3    H219834   5.986   4.991   5.349 -0.6326  1.9228  1.8167
 6624TIP3   OH219835   2.395   6.487   1.987  0.7688  0.2934 -0.1678
 6624TIP3    H119836   2.366   6.570   2.024 -0.8682 -0.4152  0.2427
 6624TIP3    H219837   2.329   6.467   1.920  1.8810 -0.0373 -1.2007
 6625TIP3   OH219838   2.255   6.243   2.088  0.1552 -0.4331 -1.0646
 6625TIP3    H119839   2.283   6.333   2.073 -1.4526 -0.1017 -2.3086
 6625TIP3    H219840   2.272   6.198   2.006  1.0055 -1.2924 -0.4285
 6626TIP3   OH219841   5.121   3.558   3.880  0.0475  0.0738 -0.0589
 6626TIP3    H119842   5.216   3.549   3.879  0.1920  0.4863  2.5276
 6626TIP3    H219843   5.089   3.468   3.888  0.0405 -0.2718 -2.9468
 6627TIP3   OH219844   0.718   1.492   3.229  0.3765  0.3764  0.1669
 6627TIP3    H119845   0.788   1.429   3.213 -0.7276 -1.2635  1.3754
 6627TIP3    H219846   0.756   1.555   3.290  1.0996  0.0835  0.0244
 6628TIP3   OH219847   5.482   2.853   4.163 -0.1292 -0.2229 -0.0999
 6628TIP3    H119848   5.480   2.794   4.239 -1.2572  0.3411  0.3234
 6628TIP3    H219849   5.391   2.858   4.135 -0.0743  1.4264 -0.0403
 6629TIP3   OH219850   0.986   1.092   3.347  0.1224  0.4303  0.1319
 6629TIP3    H119851   1.054   1.118   3.285 -0.2797 -0.2821 -0.6450
 6629TIP3    H219852   1.000   1.147   3.424  1.5071  0.3629 -0.0468
 6630TIP3   OH219853   1.860   6.283   4.735 -0.2821 -0.2432  0.1340
 6630TIP3    H119854   1.941   6.333   4.726  0.1407 -1.1545 -1.4884
 6630TIP3    H219855   1.800   6.343   4.778  1.1598  0.5464  1.1471
 6631TIP3   OH219856   3.617   2.567   2.114  0.2761  0.0375 -0.0391
 6631TIP3    H119857   3.580   2.646   2.072 -0.2515 -0.6700 -0.9679
 6631TIP3    H219858   3.704   2.559   2.077  0.4838  0.4066  0.3652
 6632TIP3   OH219859   0.073   2.930   3.999  1.0279 -0.0830 -0.4023
 6632TIP3    H119860   0.053   2.862   3.934 -0.8042  1.7292 -1.8613
 6632TIP3    H219861   0.023   2.904   4.077 -0.2839 -0.0455 -1.1995
 6633TIP3   OH219862   6.698   4.500   2.780 -0.1175 -0.4209  0.4769
 6633TIP3    H119863   6.677   4.514   2.688 -1.1836  1.3092  0.9252
 6633TIP3    H219864   6.789   4.530   2.789 -0.4475  0.7443  0.2118
 6634TIP3   OH219865   0.111   4.143   4.595 -0.1153  0.8613 -0.1670
 6634TIP3    H119866   0.049   4.169   4.663  2.5549  3.7733  1.4034
 6634TIP3    H219867   0.170   4.081   4.638  2.1182  3.3753  0.6619
 6635TIP3   OH219868   1.889   5.166   2.718 -0.1861 -0.2092  0.8439
 6635TIP3    H119869   1.952   5.094   2.726  1.6407  1.2339  0.2921
 6635TIP3    H219870   1.869   5.191   2.808  1.9757  0.8528  1.0945
 6636TIP3   OH219871   0.725   6.177   4.228 -0.3166  0.5027  0.1431
 6636TIP3    H119872   0.701   6.085   4.239  0.3049  0.0636 -1.8615
 6636TIP3    H219873   0.642   6.221   4.206 -0.5827  0.4220  0.9407
 6637TIP3   OH219874   5.179   3.742   4.995  0.4642 -0.0550  0.7382
 6637TIP3    H119875   5.172   3.736   4.900  0.2310  3.2408  0.4429
 6637TIP3    H219876   5.099   3.789   5.022 -0.7769 -3.0723  2.9462
 6638TIP3   OH219877   6.115   3.454   2.388 -0.0896 -0.8060  0.1600
 6638TIP3    H119878   6.189   3.467   2.328 -0.9396  1.3029 -0.5166
 6638TIP3    H219879   6.145   3.493   2.471 -0.6599  0.7205 -0.3213
 6639TIP3   OH219880   6.384   5.110   2.692  0.6804 -0.3781 -0.1036
 6639TIP3    H119881   6.399   5.190   2.642 -0.4084 -0.7537 -1.0774
 6639TIP3    H219882   6.290   5.110   2.710  0.4817 -1.8857 -0.9675
 6640TIP3   OH219883   4.057   0.243   5.071 -0.4768  0.3116 -0.4103
 6640TIP3    H119884   4.047   0.150   5.048  4.3357 -0.2591 -1.2465
 6640TIP3    H219885   4.108   0.243   5.152 -2.1319  2.3438  0.7300
 6641TIP3   OH219886   4.190   0.518   3.513  0.1863  0.1209  0.2600
 6641TIP3    H119887   4.283   0.530   3.494  0.7130 -0.2320  2.3350
 6641TIP3    H219888   4.173   0.426   3.494 -0.6383  0.8594 -3.2676
 6642TIP3   OH219889   2.686   4.499   0.162  0.9053 -0.2458 -0.1206
 6642TIP3    H119890   2.744   4.566   0.127  0.7811  0.4487  0.9372
 6642TIP3    H219891   2.691   4.510   0.257 -1.1121  0.0021  0.0146
 6643TIP3   OH219892   5.105   5.574   4.817  1.0016 -0.3828 -0.6774
 6643TIP3    H119893   5.088   5.668   4.809  1.0180 -0.3909 -0.8209
 6643TIP3    H219894   5.020   5.532   4.802  0.7327 -0.3443  0.6338
 6644TIP3   OH219895   3.212   0.659   1.700 -0.6360 -0.5016  0.2294
 6644TIP3    H119896   3.244   0.738   1.743  0.3155 -0.7015 -0.0640
 6644TIP3    H219897   3.131   0.685   1.656 -0.6960  0.1292  0.7077
 6645TIP3   OH219898   6.170   2.316   3.264 -0.6067  0.2808  0.0135
 6645TIP3    H119899   6.135   2.236   3.226 -0.4582  0.0034  0.4582
 6645TIP3    H219900   6.099   2.349   3.319  0.1477 -0.8116  1.7096
 6646TIP3   OH219901   6.290   2.825   1.398  0.6848 -0.0513 -0.7166
 6646TIP3    H119902   6.305   2.862   1.485  1.0568 -2.0794  0.1356
 6646TIP3    H219903   6.308   2.731   1.408  0.5017 -0.3792 -2.9298
 6647TIP3   OH219904   2.108   2.205   2.535  0.3241 -0.3641  0.0517
 6647TIP3    H119905   2.063   2.161   2.607  2.6677 -0.6749  1.4204
 6647TIP3    H219906   2.037   2.234   2.477 -1.4932 -2.9518  0.7813
 6648TIP3   OH219907   0.216   5.131   4.974 -0.0045  0.4212 -0.1753
 6648TIP3    H119908   0.120   5.125   4.973 -0.1820  2.4506  0.4990
 6648TIP3    H219909   0.235   5.222   4.951  1.7159  0.3329  0.7070
 6649TIP3   OH219910   1.106   0.127   4.693 -0.3907  0.0134  0.1493
 6649TIP3    H119911   1.054   0.104   4.616  0.0566  0.1821 -0.2142
 6649TIP3    H219912   1.159   0.049   4.710  0.8123  0.5681 -0.8205
 6650TIP3   OH219913   2.708   4.728   3.168 -0.2322  0.0842 -1.0911
 6650TIP3    H119914   2.793   4.768   3.186 -0.5571  0.2070  0.2542
 6650TIP3    H219915   2.653   4.801   3.140  0.3802 -0.1674 -3.1778
 6651TIP3   OH219916   3.760   6.410   2.720  0.1082 -0.0972 -0.3111
 6651TIP3    H119917   3.716   6.493   2.737  0.3902  0.0541 -0.3219
 6651TIP3    H219918   3.781   6.413   2.626 -0.4680 -0.4641 -0.4623
 6652TIP3   OH219919   0.114   6.273   5.397 -0.6853 -0.5114 -0.2714
 6652TIP3    H119920   0.082   6.356   5.362 -0.6585 -1.0414 -1.6506
 6652TIP3    H219921   0.042   6.211   5.382 -0.1118 -1.0806 -0.7606
 6653TIP3   OH219922   6.919   6.315   5.711  0.0925  0.0446 -0.6029
 6653TIP3    H119923   7.002   6.268   5.697  0.0970 -0.0773 -0.1734
 6653TIP3    H219924   6.852   6.249   5.696  0.0928 -0.0419 -0.2296
 6654TIP3   OH219925   3.145   0.826   1.379  0.4172  0.3061  0.0592
 6654TIP3    H119926   3.101   0.831   1.464  1.7670  0.5228  0.7844
 6654TIP3    H219927   3.133   0.735   1.351  0.0872  0.1940  0.5513
 6655TIP3   OH219928   0.185   3.003   5.706  0.8770  0.0137 -0.2430
 6655TIP3    H119929   0.143   2.995   5.792  0.4209  0.1133 -0.4538
 6655TIP3    H219930   0.278   3.007   5.726  0.7037  1.8510  0.3862
 6656TIP3   OH219931   3.155   5.822   5.727 -0.0011 -0.2537 -0.2800
 6656TIP3    H119932   3.112   5.825   5.642 -1.5895 -1.6240  0.4124
 6656TIP3    H219933   3.163   5.728   5.747  0.1156  0.0374  1.1767
 6657TIP3   OH219934   3.367   5.758   2.293 -0.3090  0.1050 -0.4684
 6657TIP3    H119935   3.290   5.723   2.249 -1.6763  2.2324  0.0990
 6657TIP3    H219936   3.413   5.680   2.325 -1.9948 -1.2512 -1.1646
 6658TIP3   OH219937   4.064   3.440   5.751  0.1823 -0.6987 -0.0888
 6658TIP3    H119938   4.112   3.511   5.793  1.3627 -1.1373 -0.6623
 6658TIP3    H219939   3.974   3.450   5.783  0.6054  0.2451  0.8666
 6659TIP3   OH219940   6.534   3.588   2.645  0.6085  0.3591  0.5224
 6659TIP3    H119941   6.495   3.667   2.610  0.0663 -0.3118 -0.4189
 6659TIP3    H219942   6.602   3.565   2.582 -0.0420 -0.5810  0.1434
 6660TIP3   OH219943   3.075   3.826   2.777 -0.5400 -0.7275  0.9009
 6660TIP3    H119944   3.120   3.806   2.859 -0.9994 -0.6845  1.1680
 6660TIP3    H219945   3.113   3.908   2.748 -0.3771 -0.7404  1.0724
 6661TIP3   OH219946   1.870   0.229   0.265 -0.2345 -0.1403 -0.1680
 6661TIP3    H119947   1.894   0.148   0.219  0.1688 -0.7267  1.0416
 6661TIP3    H219948   1.868   0.204   0.357 -0.5060  1.1428  0.1816
 6662TIP3   OH219949   0.079   0.144   3.529 -0.8027  0.5865 -0.2484
 6662TIP3    H119950   0.073   0.221   3.472 -0.4106 -0.0945 -1.2431
 6662TIP3    H219951  -0.011   0.125   3.555 -1.0078  0.8202 -0.7808
 6663TIP3   OH219952   6.643   2.923   0.204 -0.2930  0.1189  0.5957
 6663TIP3    H119953   6.735   2.946   0.189 -0.1530  0.2869  1.6846
 6663TIP3    H219954   6.643   2.828   0.212 -0.4306 -0.0210 -0.8035
 6664TIP3   OH219955   4.458   3.052   4.632 -0.3259  0.6497  0.2525
 6664TIP3    H119956   4.406   2.999   4.571 -0.5975  1.5680 -0.3292
 6664TIP3    H219957   4.519   2.989   4.672  2.7683  0.5095 -3.9493
 6665TIP3   OH219958   1.816   0.958   1.031 -0.4022  0.9955 -0.0059
 6665TIP3    H119959   1.774   1.044   1.035  1.8781  2.1590  1.3372
 6665TIP3    H219960   1.905   0.974   1.063  0.9849 -1.3668 -2.3344
 6666TIP3   OH219961   2.489   4.779  -0.014  0.2794 -0.0064  0.1518
 6666TIP3    H119962   2.490   4.814   0.075 -0.1776 -1.0582  0.5856
 6666TIP3    H219963   2.400   4.745  -0.026  0.8871 -1.6933  0.0493
 6667TIP3   OH219964   5.248   1.398   5.416  0.0228  0.1489 -0.1494
 6667TIP3    H119965   5.157   1.367   5.412  0.0337  0.2322 -3.0627
 6667TIP3    H219966   5.301   1.319   5.410  0.1822  0.1360  1.1382
 6668TIP3   OH219967   5.577   0.902   5.189 -0.0412  0.1114 -0.1157
 6668TIP3    H119968   5.655   0.955   5.200 -0.0126  0.2723 -1.0270
 6668TIP3    H219969   5.590   0.857   5.105 -1.0442  0.3545 -0.4123
 6669TIP3   OH219970   2.118   2.245   5.388  0.2409  0.2684  0.3810
 6669TIP3    H119971   2.184   2.230   5.456 -0.7026 -1.5661  0.9439
 6669TIP3    H219972   2.139   2.182   5.319 -0.7176 -0.1226  0.4272
 6670TIP3   OH219973   2.347   5.745   1.605 -0.2747 -0.5839  0.0456
 6670TIP3    H119974   2.412   5.767   1.538  1.4056 -1.0876  1.4508
 6670TIP3    H219975   2.332   5.651   1.594 -0.6832 -0.4940 -0.1896
 6671TIP3   OH219976   7.020   5.693   1.334 -0.5008 -0.3875  0.4450
 6671TIP3    H119977   6.958   5.651   1.394  0.4980  0.1183  1.9150
 6671TIP3    H219978   7.103   5.690   1.382  0.5836 -0.8942 -1.3851
 6672TIP3   OH219979   2.782   5.122   5.404 -0.1940  0.2374 -0.1815
 6672TIP3    H119980   2.850   5.055   5.395 -0.6993 -0.1237 -1.4253
 6672TIP3    H219981   2.813   5.194   5.350 -0.2459  0.5374  0.1852
 6673TIP3   OH219982   0.183   0.224   4.158 -0.2131 -0.0751  0.0432
 6673TIP3    H119983   0.108   0.166   4.152  1.4504 -2.3286 -0.5100
 6673TIP3    H219984   0.192   0.261   4.069 -0.2586 -0.3399 -0.0706
 6674TIP3   OH219985   0.161   4.590   1.428 -0.0061 -0.7230  0.1847
 6674TIP3    H119986   0.178   4.566   1.519 -0.1863 -0.8559  0.1833
 6674TIP3    H219987   0.242   4.631   1.399 -0.0960 -0.2726  0.5440
 6675TIP3   OH219988   4.590   1.874   1.762  0.5581  0.8720  0.1957
 6675TIP3    H119989   4.558   1.799   1.812 -0.4842  0.6131 -0.8340
 6675TIP3    H219990   4.654   1.915   1.821 -0.3157  0.3406  1.5865
 6676TIP3   OH219991   5.129   1.715   1.597  0.5985  0.5941 -0.0015
 6676TIP3    H119992   5.090   1.717   1.684 -0.6783  0.4569 -0.5476
 6676TIP3    H219993   5.093   1.636   1.557  1.1552  0.6670 -0.6639
 6677TIP3   OH219994   0.834   0.165   5.518 -0.4806 -0.2446  0.1226
 6677TIP3    H119995   0.911   0.197   5.471 -0.5103 -0.3285  0.0150
 6677TIP3    H219996   0.851   0.186   5.609 -1.2396  1.5972 -0.1100
 6678TIP3   OH219997   0.277   3.468   3.855  0.4702 -0.0778 -0.1386
 6678TIP3    H119998   0.323   3.545   3.821 -0.7583  0.7712  0.0660
 6678TIP3    H219999   0.202   3.457   3.797  1.8303 -2.5832 -1.6274
 6679TIP3   OH220000   7.099   1.690   3.740 -0.4534 -0.1546  0.0981
 6679TIP3    H120001   7.164   1.643   3.792  1.6527  0.7918 -1.5349
 6679TIP3    H220002   7.137   1.777   3.728 -1.3031 -0.0545 -2.1881
 6680TIP3   OH220003   6.399   3.610   3.743 -0.1463  0.2495 -0.6262
 6680TIP3    H120004   6.456   3.616   3.666  0.9225  0.8056  0.1952
 6680TIP3    H220005   6.315   3.645   3.713  0.4576  1.1175 -1.3585
 6681TIP3   OH220006   0.184   0.236   3.858  0.2574 -0.0146 -0.1915
 6681TIP3    H120007   0.123   0.167   3.882 -0.7997  1.7621  2.7463
 6681TIP3    H220008   0.252   0.191   3.807 -0.2017 -3.2439  1.7625
 6682TIP3   OH220009   5.485   6.150   1.807 -0.1581  0.3790 -0.0952
 6682TIP3    H120010   5.512   6.059   1.791 -0.6554  0.2028  0.0564
 6682TIP3    H220011   5.562   6.191   1.847  0.2241  0.1456 -0.5747
 6683TIP3   OH220012   5.418   0.714   3.097  0.0498 -0.0831 -0.1696
 6683TIP3    H120013   5.384   0.629   3.124 -0.9248  0.4583  0.3365
 6683TIP3    H220014   5.361   0.778   3.140  0.3935  0.8240 -1.0308
 6684TIP3   OH220015   4.631   5.080   4.294 -0.1472 -0.5292  0.0016
 6684TIP3    H120016   4.657   5.091   4.385 -0.4958  1.4485 -0.0752
 6684TIP3    H220017   4.540   5.050   4.297  0.0999 -1.2646  0.2856
 6685TIP3   OH220018   4.037   6.112   1.884 -0.1191  0.1888 -0.0104
 6685TIP3    H120019   4.094   6.048   1.926  2.0405  0.8856 -1.6878
 6685TIP3    H220020   4.015   6.174   1.953  1.7919  0.3071  0.5505
 6686TIP3   OH220021   3.103   3.825   3.062  0.3565  0.1566  0.0697
 6686TIP3    H120022   3.031   3.783   3.108  0.1199  1.6096  1.1195
 6686TIP3    H220023   3.182   3.785   3.099  0.1704  1.3013  1.8270
 6687TIP3   OH220024   1.430   4.805   0.342 -0.5801  0.6787  0.0753
 6687TIP3    H120025   1.524   4.822   0.346 -0.5561  0.5428  0.0987
 6687TIP3    H220026   1.407   4.815   0.250 -0.3311 -0.3923 -0.1186
 6688TIP3   OH220027   4.216   0.754   3.622  0.4463 -0.0623 -0.2641
 6688TIP3    H120028   4.275   0.773   3.550  0.8912 -0.9754 -0.1552
 6688TIP3    H220029   4.199   0.660   3.615  2.5754 -0.7806  2.3018
 6689TIP3   OH220030   3.768   1.631   2.626 -0.4306  0.1190 -0.9825
 6689TIP3    H120031   3.674   1.627   2.608 -0.9346 -1.6911  1.6545
 6689TIP3    H220032   3.795   1.540   2.638  0.6132  0.7593  2.7825
 6690TIP3   OH220033   2.285   4.386   3.340 -0.2110  0.5351 -0.4601
 6690TIP3    H120034   2.321   4.299   3.329 -2.9897 -0.5327 -2.3073
 6690TIP3    H220035   2.230   4.380   3.418  0.1395  0.8351 -0.1900
 6691TIP3   OH220036   5.212   1.693   4.552 -0.6535  0.0225 -0.0842
 6691TIP3    H120037   5.241   1.690   4.643 -0.3876  1.3207 -0.1176
 6691TIP3    H220038   5.292   1.680   4.501 -0.3001  2.1869 -0.1546
 6692TIP3   OH220039   0.369  -0.008   1.411  0.0966  0.2652 -0.1157
 6692TIP3    H120040   0.366   0.084   1.436  2.2049  1.0831 -2.4326
 6692TIP3    H220041   0.280  -0.027   1.379  0.2190  2.2877 -1.8982
 6693TIP3   OH220042   6.466   6.178   3.341  0.0047 -0.2310  0.2402
 6693TIP3    H120043   6.434   6.253   3.391 -1.3501  0.1318 -1.0882
 6693TIP3    H220044   6.489   6.213   3.255 -0.0171 -1.2052 -0.1855
 6694TIP3   OH220045   4.006   4.299   1.770 -1.4490  0.0700 -0.3320
 6694TIP3    H120046   3.959   4.279   1.851 -1.3410 -0.3496 -0.3728
 6694TIP3    H220047   4.096   4.318   1.798 -1.6841  1.0941 -0.2290
 6695TIP3   OH220048   6.683   3.622   4.967 -0.2812 -0.1955  0.0332
 6695TIP3    H120049   6.735   3.661   5.037  0.9914 -1.8532  0.0711
 6695TIP3    H220050   6.615   3.686   4.950  0.1426  0.8368  1.8901
 6696TIP3   OH220051   5.775   3.337   5.724 -0.7430  0.6831  0.4505
 6696TIP3    H120052   5.824   3.401   5.776  0.6672  1.2733 -1.4794
 6696TIP3    H220053   5.828   3.257   5.729  0.4306  1.2772 -1.5165
 6697TIP3   OH220054   1.875   5.337   1.422 -0.0682 -0.2659 -0.2048
 6697TIP3    H120055   1.836   5.250   1.432  0.0504 -0.1547  1.4903
 6697TIP3    H220056   1.807   5.397   1.451  0.9526 -0.0244  1.9577
 6698TIP3   OH220057   3.858   0.415   1.335 -0.0811  0.6167  0.5873
 6698TIP3    H120058   3.792   0.408   1.405  0.4704 -0.8081  0.9960
 6698TIP3    H220059   3.828   0.353   1.268  0.0167  1.1285  0.0616
 6699TIP3   OH220060   3.496   0.688   5.068  0.3963  0.0212  0.4358
 6699TIP3    H120061   3.518   0.755   5.133  0.2377 -0.6337  1.1839
 6699TIP3    H220062   3.437   0.629   5.114 -3.4891  1.9403 -1.5652
 6700TIP3   OH220063   7.027   2.133   3.763  0.2901  0.2421  0.6793
 6700TIP3    H120064   7.074   2.213   3.787  1.3282 -0.2595  0.3624
 6700TIP3    H220065   7.012   2.089   3.847 -1.3364  1.2908  1.0009
 6701TIP3   OH220066   5.748   4.530   3.674  0.2909 -0.6661 -0.3337
 6701TIP3    H120067   5.662   4.515   3.714  1.4828 -1.0891  2.3391
 6701TIP3    H220068   5.745   4.620   3.642 -1.3992 -0.9484 -1.0725
 6702TIP3   OH220069   5.355   6.746   5.662 -0.3336 -0.1766  0.2174
 6702TIP3    H120070   5.354   6.778   5.753  2.5038 -0.0383  0.3103
 6702TIP3    H220071   5.327   6.655   5.669  1.1670 -0.5998  1.5147
 6703TIP3   OH220072   1.974   1.122   0.337  0.2875 -1.0823  0.5514
 6703TIP3    H120073   1.933   1.050   0.288  0.5752 -0.7305 -0.2265
 6703TIP3    H220074   1.942   1.201   0.293  2.7395 -0.8018 -0.8848
 6704TIP3   OH220075   2.226   2.006   4.487 -0.3283  0.0738  0.0457
 6704TIP3    H120076   2.256   2.094   4.463 -1.5204  0.2280 -0.9716
 6704TIP3    H220077   2.211   2.012   4.582  1.4729  0.3676  0.3533
 6705TIP3   OH220078   1.671   4.564   4.911  0.0087  0.1751  0.1729
 6705TIP3    H120079   1.578   4.544   4.921 -0.3328  1.3558 -0.4854
 6705TIP3    H220080   1.693   4.534   4.823  0.2523 -0.0952  0.3241
 6706TIP3   OH220081   4.613   3.194   2.186 -0.4080 -0.0847  0.5715
 6706TIP3    H120082   4.605   3.146   2.269 -1.0409 -0.0104  0.5600
 6706TIP3    H220083   4.677   3.144   2.135 -2.0434 -1.7396  0.0239
 6707TIP3   OH220084   3.175   5.658   3.134 -0.2847  0.8236  0.6956
 6707TIP3    H120085   3.208   5.718   3.201 -0.4723  1.3726  0.3033
 6707TIP3    H220086   3.081   5.673   3.132 -0.4102  0.1258  0.9654
 6708TIP3   OH220087   3.204   1.636   1.797  0.1997  0.0663  0.4924
 6708TIP3    H120088   3.253   1.616   1.877  3.9356 -2.1019 -2.0416
 6708TIP3    H220089   3.222   1.729   1.781  0.9926  0.0547  1.2011
 6709TIP3   OH220090   0.185   4.095   5.336  0.1758  0.7137  0.9554
 6709TIP3    H120091   0.272   4.072   5.304 -0.9503 -1.3857 -0.9034
 6709TIP3    H220092   0.160   4.021   5.392 -1.1680  0.2629 -0.1839
 6710TIP3   OH220093   7.172   3.985   4.877 -0.1938 -0.3039 -0.1301
 6710TIP3    H120094   7.209   4.074   4.880  0.3878 -0.5776  1.3685
 6710TIP3    H220095   7.246   3.928   4.895 -1.2602 -0.8685  3.0152
 6711TIP3   OH220096   5.274   4.410   2.803  0.3729  0.4348 -0.2556
 6711TIP3    H120097   5.274   4.411   2.708  1.5523  0.1495 -0.2704
 6711TIP3    H220098   5.359   4.447   2.828 -0.6615  2.2875  0.7275
 6712TIP3   OH220099   2.524   0.491   0.551  0.0387  0.6809 -0.1948
 6712TIP3    H120100   2.559   0.565   0.601 -0.1199  0.3088  0.4758
 6712TIP3    H220101   2.601   0.435   0.535  0.5679  1.9049 -2.4106
 6713TIP3   OH220102   0.913   1.197   4.159 -0.4982 -0.4840 -0.6721
 6713TIP3    H120103   0.938   1.285   4.187  1.9152 -0.6096 -2.1504
 6713TIP3    H220104   0.818   1.193   4.171 -0.5056  1.9208  0.4491
 6714TIP3   OH220105   2.292   0.536   2.665  0.0787 -0.3128  0.3990
 6714TIP3    H120106   2.363   0.556   2.726  0.1386  1.7540 -0.2700
 6714TIP3    H220107   2.245   0.618   2.655 -0.0418 -0.6013 -2.1612
 6715TIP3   OH220108   6.097   4.337   2.165  0.5257  0.0945 -0.2579
 6715TIP3    H120109   6.081   4.430   2.180  2.0589  0.5343 -1.0611
 6715TIP3    H220110   6.103   4.299   2.252 -0.4721  0.6746  0.0746
 6716TIP3   OH220111   5.488   2.803   4.666  0.6639  0.0152 -0.2276
 6716TIP3    H120112   5.424   2.756   4.719  2.3733 -0.0870  1.8721
 6716TIP3    H220113   5.460   2.894   4.668  0.3507 -0.0937  0.2962
 6717TIP3   OH220114   4.237   1.375   3.436  0.1192  0.4391  0.0965
 6717TIP3    H120115   4.268   1.461   3.408 -0.8744  0.5491 -0.7180
 6717TIP3    H220116   4.276   1.314   3.374 -0.7537  0.5116 -0.5327
 6718TIP3   OH220117   3.982   1.295   2.413  0.1540  0.0519 -0.3348
 6718TIP3    H120118   3.913   1.299   2.478 -0.8820 -0.3574 -1.3764
 6718TIP3    H220119   3.987   1.384   2.377  0.5637  0.2183  0.1180
 6719TIP3   OH220120   5.141   0.740   0.920 -0.2507 -0.2086 -0.1954
 6719TIP3    H120121   5.046   0.730   0.925 -0.1443 -1.7397 -0.5861
 6719TIP3    H220122   5.164   0.794   0.995 -1.5374  1.2187 -0.7746
 6720TIP3   OH220123   0.362   3.157   2.733  0.5024 -0.6624  0.1892
 6720TIP3    H120124   0.367   3.239   2.783  1.7955 -0.3106 -0.4890
 6720TIP3    H220125   0.323   3.183   2.649  0.8750 -0.7519 -0.0108
 6721TIP3   OH220126   5.780   3.580   0.895 -0.2312 -0.3290  0.2320
 6721TIP3    H120127   5.726   3.584   0.974 -1.3424 -0.6861 -0.4801
 6721TIP3    H220128   5.805   3.671   0.878 -1.4622 -0.0134  0.0239
 6722TIP3   OH220129   0.512   4.191   0.017  0.4244 -0.5780  0.5635
 6722TIP3    H120130   0.474   4.198  -0.070 -0.0196 -1.3870  0.6866
 6722TIP3    H220131   0.454   4.241   0.073  0.8439  0.1476  0.3638
 6723TIP3   OH220132   2.535   4.519   1.486  0.2720 -0.0118 -0.1295
 6723TIP3    H120133   2.586   4.439   1.479 -2.1787 -1.6640 -0.0621
 6723TIP3    H220134   2.510   4.524   1.578 -1.4789 -0.4452 -0.5532
 6724TIP3   OH220135   7.117   5.550   5.832 -0.0696 -0.1667  0.2836
 6724TIP3    H120136   7.026   5.562   5.858 -0.1942  1.5528 -0.7472
 6724TIP3    H220137   7.112   5.519   5.741  0.3775 -1.0801  0.5605
 6725TIP3   OH220138   2.532   5.412   1.130  0.2637  0.1923  0.4292
 6725TIP3    H120139   2.496   5.387   1.215 -0.1250 -0.1371  0.1746
 6725TIP3    H220140   2.544   5.328   1.085  0.0773  0.3911  0.0074
 6726TIP3   OH220141   4.370   0.942   1.815  0.0521 -0.7113  0.4688
 6726TIP3    H120142   4.325   1.025   1.799  1.5220  0.0413 -0.0416
 6726TIP3    H220143   4.366   0.896   1.731  0.7255 -0.3831  0.2530
 6727TIP3   OH220144   1.600   4.564   2.101  0.1542  0.1232  0.3756
 6727TIP3    H120145   1.537   4.518   2.156  0.3872  1.1918  1.5820
 6727TIP3    H220146   1.679   4.511   2.104  0.8257  1.1577  2.7629
 6728TIP3   OH220147   4.237   1.293   0.660 -0.2540  0.0558  0.3526
 6728TIP3    H120148   4.260   1.220   0.717 -0.3750 -1.1345 -1.0743
 6728TIP3    H220149   4.303   1.292   0.590 -1.0830  0.4010 -0.4661
 6729TIP3   OH220150   4.937   1.753   1.181  0.1956 -0.2002  0.1440
 6729TIP3    H120151   4.935   1.841   1.142  2.5706 -0.1006  0.0962
 6729TIP3    H220152   4.984   1.766   1.264  1.4682 -1.5659 -0.3304
 6730TIP3   OH220153   6.479   5.108   4.083 -0.6779  0.5666  0.1108
 6730TIP3    H120154   6.559   5.084   4.131 -0.0854 -0.0644 -1.1391
 6730TIP3    H220155   6.446   5.184   4.129  1.0544  1.2925  0.2540
 6731TIP3   OH220156   3.458   0.277   4.801  0.2824  0.0287  0.0758
 6731TIP3    H120157   3.447   0.371   4.816  0.8464 -0.0037  0.7633
 6731TIP3    H220158   3.503   0.246   4.880  0.7285 -0.6965 -0.4578
 6732TIP3   OH220159   3.412   5.938   3.935  0.1052  0.5759 -0.1702
 6732TIP3    H120160   3.487   5.889   3.902  0.2933  1.6951 -1.5102
 6732TIP3    H220161   3.435   6.030   3.922 -0.0409  1.1173  2.7035
 6733TIP3   OH220162   7.170   5.393   2.669 -0.1792 -0.3810  0.0067
 6733TIP3    H120163   7.222   5.459   2.716  1.2302 -0.2946 -1.5991
 6733TIP3    H220164   7.201   5.309   2.703  1.6115 -0.3615 -1.4587
 6734TIP3   OH220165   2.441   3.777   1.957 -0.0242 -0.0343 -0.0198
 6734TIP3    H120166   2.404   3.793   2.044 -1.4455  1.0961 -0.8024
 6734TIP3    H220167   2.530   3.811   1.962 -0.4739  1.0969  0.6691
 6735TIP3   OH220168   5.523   2.326   2.172 -0.8100 -0.7208 -0.1659
 6735TIP3    H120169   5.585   2.275   2.119 -0.8667  0.3386 -1.2845
 6735TIP3    H220170   5.576   2.399   2.206 -0.7746 -1.3731  1.2736
 6736TIP3   OH220171   3.891   1.244   4.958  0.0606 -0.0268 -0.6906
 6736TIP3    H120172   3.904   1.259   4.864 -0.3042 -1.1419 -0.9347
 6736TIP3    H220173   3.920   1.325   5.000 -1.0859  1.0404 -1.8620
 6737TIP3   OH220174   2.947   1.480   4.008  0.0194  0.6113 -0.2244
 6737TIP3    H120175   2.984   1.494   3.921 -1.1849  0.7034 -0.7439
 6737TIP3    H220176   2.910   1.391   4.004  1.2839  0.0134  0.7007
 6738TIP3   OH220177   3.880   1.949   5.277 -0.5330 -0.6645 -0.1793
 6738TIP3    H120178   3.826   2.019   5.242  0.5817  0.2867 -0.0593
 6738TIP3    H220179   3.821   1.875   5.285 -1.4232 -0.1662 -1.6518
 6739TIP3   OH220180   2.555   1.967   1.435  0.3293 -0.3723  0.0583
 6739TIP3    H120181   2.613   2.043   1.434  0.2374 -0.2957  0.2941
 6739TIP3    H220182   2.500   1.981   1.512  0.5765 -0.8773  0.3301
 6740TIP3   OH220183   5.021   1.583   3.272 -0.0208 -0.1006 -0.1025
 6740TIP3    H120184   5.034   1.657   3.331  0.0570  0.3513 -0.6896
 6740TIP3    H220185   4.950   1.611   3.214 -2.1944 -1.6507  1.6159
 6741TIP3   OH220186   3.702   0.767   4.427  0.3627  0.8121 -0.2141
 6741TIP3    H120187   3.760   0.734   4.496 -0.4918 -0.3118 -0.0141
 6741TIP3    H220188   3.652   0.837   4.470 -0.1785  0.1045  0.3368
 6742TIP3   OH220189   5.987   6.249   1.592 -0.2617  0.1685  0.2318
 6742TIP3    H120190   6.016   6.279   1.678 -0.1514 -1.7122  0.9148
 6742TIP3    H220191   6.016   6.316   1.531  0.6446  1.0087  1.5404
 6743TIP3   OH220192   5.912   3.258   1.765  0.1772 -0.0122 -0.6693
 6743TIP3    H120193   5.898   3.295   1.678 -2.6259  2.2266  0.5155
 6743TIP3    H220194   5.880   3.168   1.759  0.5368 -0.0643 -2.0462
 6744TIP3   OH220195   3.387   5.619   0.834 -0.4014 -0.1212 -0.0716
 6744TIP3    H120196   3.360   5.710   0.846  0.1915 -0.1325  1.6117
 6744TIP3    H220197   3.446   5.621   0.759 -0.4791  0.8757 -0.1140
 6745TIP3   OH220198   4.104   3.360   0.191  0.9760 -0.2160 -0.2535
 6745TIP3    H120199   4.054   3.309   0.254 -0.8415  1.5773 -0.1453
 6745TIP3    H220200   4.195   3.337   0.209  0.5187 -0.0033  2.8485
 6746TIP3   OH220201   3.935   0.916   0.946 -0.0179 -0.7998 -0.1248
 6746TIP3    H120202   3.988   0.843   0.980  1.3086 -0.4478 -1.3548
 6746TIP3    H220203   3.845   0.882   0.947  0.5630 -2.4761 -0.6758
 6747TIP3   OH220204   5.282   1.868   1.842  0.3321 -0.2538  0.1598
 6747TIP3    H120205   5.215   1.800   1.850  0.6711 -0.8900 -1.8044
 6747TIP3    H220206   5.294   1.902   1.931  0.6361 -3.2143  1.3450
 6748TIP3   OH220207   3.046   2.058   5.507 -0.6008 -0.2618  0.1326
 6748TIP3    H120208   3.019   1.968   5.527 -0.1110  0.0857  2.6018
 6748TIP3    H220209   3.061   2.098   5.592  0.3306  1.8373 -0.9561
 6749TIP3   OH220210   0.328   1.799   0.107 -0.1434 -0.4825  0.4882
 6749TIP3    H120211   0.372   1.763   0.030 -0.0965 -1.3759  0.9254
 6749TIP3    H220212   0.235   1.787   0.090 -0.1595 -0.1127  0.3021
 6750TIP3   OH220213   1.002   2.661   2.373 -0.3516 -0.2078  0.0987
 6750TIP3    H120214   0.980   2.753   2.356 -1.7482 -0.5482 -0.0479
 6750TIP3    H220215   1.073   2.642   2.311 -0.2045  0.6992 -0.0287
 6751TIP3   OH220216   0.089   5.921   4.734 -0.4735  0.1627  0.5951
 6751TIP3    H120217   0.157   5.978   4.771 -0.8092  1.8549 -1.2414
 6751TIP3    H220218   0.129   5.834   4.733  0.8868  0.7326  1.4472
 6752TIP3   OH220219   0.249   4.051   0.995 -0.1635  0.4350  0.7069
 6752TIP3    H120220   0.192   4.067   0.919  0.7580  1.2434  0.1614
 6752TIP3    H220221   0.332   4.023   0.957  0.2402  0.6276  1.4282
 6753TIP3   OH220222   4.028   2.796   1.782  0.0904  0.1795  0.5427
 6753TIP3    H120223   3.990   2.876   1.747  0.9468  2.2910  3.9939
 6753TIP3    H220224   4.081   2.760   1.710 -2.3723  1.1785 -1.9325
 6754TIP3   OH220225   2.688   3.316   0.597 -0.2803 -0.4034 -0.0204
 6754TIP3    H120226   2.748   3.264   0.543 -0.6899 -1.1785  0.2551
 6754TIP3    H220227   2.659   3.386   0.538 -0.3964 -0.9900 -0.6851
 6755TIP3   OH220228   1.838   2.796   4.511 -0.0420 -0.4156  0.1427
 6755TIP3    H120229   1.879   2.714   4.539  1.5331  0.1336 -0.4212
 6755TIP3    H220230   1.899   2.864   4.539 -0.9799  0.5159 -0.0328
 6756TIP3   OH220231   4.971   2.398   5.614 -0.2806 -0.2966  0.2737
 6756TIP3    H120232   4.939   2.427   5.529 -1.7066  1.4470  1.3213
 6756TIP3    H220233   5.063   2.425   5.616 -0.3708  0.0875 -0.5218
 6757TIP3   OH220234   2.127   5.348   0.050 -0.3534  0.3355 -0.4133
 6757TIP3    H120235   2.165   5.387   0.129  0.5436 -0.9327 -0.1939
 6757TIP3    H220236   2.102   5.259   0.076  0.8951 -0.4617 -1.7957
 6758TIP3   OH220237   2.409   4.448   1.237 -0.3148 -0.3486 -0.6345
 6758TIP3    H120238   2.466   4.451   1.313 -0.1135 -0.8543 -0.7595
 6758TIP3    H220239   2.326   4.485   1.267  0.3380  1.2194 -0.6947
 6759TIP3   OH220240   0.318   2.887   4.794 -0.1727 -0.8925 -0.2347
 6759TIP3    H120241   0.353   2.913   4.880 -1.5151 -0.7072  0.2791
 6759TIP3    H220242   0.279   2.801   4.809 -1.3061 -0.4260 -0.3910
 6760TIP3   OH220243   6.609   2.765   2.845 -0.7495  0.1441 -0.1264
 6760TIP3    H120244   6.523   2.741   2.879  0.4228 -1.8779  1.6234
 6760TIP3    H220245   6.644   2.827   2.909  0.0779 -0.9938  0.5494
 6761TIP3   OH220246   1.791   1.542   2.682 -0.3365 -0.2453  0.6604
 6761TIP3    H120247   1.817   1.504   2.598 -1.0367 -0.8630  0.7130
 6761TIP3    H220248   1.698   1.520   2.691 -0.4956  0.6109  1.1749
 6762TIP3   OH220249   1.685   5.442   4.602 -0.1506 -0.5909  0.4616
 6762TIP3    H120250   1.678   5.351   4.572 -0.5226 -0.4303  0.0444
 6762TIP3    H220251   1.696   5.492   4.521  0.0010 -0.2602  0.6874
 6763TIP3   OH220252   7.161   1.984   3.116  0.9084  0.2165 -0.1609
 6763TIP3    H120253   7.251   1.995   3.146  0.8073 -0.4266  0.4095
 6763TIP3    H220254   7.136   1.898   3.149 -1.1169  1.7812  2.8833
 6764TIP3   OH220255   5.348   2.377   3.827  0.1994 -0.0014  0.2092
 6764TIP3    H120256   5.280   2.380   3.895  0.3612 -1.2827  0.4544
 6764TIP3    H220257   5.320   2.307   3.768  1.0668 -0.2493  0.0686
 6765TIP3   OH220258   6.921   1.198   5.163  0.7200  0.4311 -0.3461
 6765TIP3    H120259   6.828   1.191   5.141  0.9630 -2.3637 -0.9908
 6765TIP3    H220260   6.952   1.273   5.113 -0.4505 -0.9536 -3.4585
 6766TIP3   OH220261   1.478   5.880   1.543 -0.0449  0.0436 -0.0704
 6766TIP3    H120262   1.391   5.920   1.548 -0.7353 -1.5212  1.5688
 6766TIP3    H220263   1.524   5.931   1.476 -1.8474  1.6014 -0.2096
 6767TIP3   OH220264   5.169   0.797   0.639 -0.5227  0.0773  0.7928
 6767TIP3    H120265   5.124   0.758   0.713 -2.0590  0.9832  0.3748
 6767TIP3    H220266   5.140   0.888   0.637 -0.7166  0.0238 -1.0396
 6768TIP3   OH220267   1.135   0.835   3.846 -0.1693 -0.2028  0.4323
 6768TIP3    H120268   1.167   0.840   3.936  2.3244  0.6018 -0.4372
 6768TIP3    H220269   1.158   0.920   3.808 -0.2862 -0.8961 -1.2554
 6769TIP3   OH220270   0.650   4.084   5.447  0.1171 -0.0873  0.3862
 6769TIP3    H120271   0.587   4.146   5.409 -1.0162 -0.7077  1.2033
 6769TIP3    H220272   0.736   4.120   5.424 -0.5224  1.3354  0.1396
 6770TIP3   OH220273   5.122   3.495   5.031 -0.6125  0.1527 -0.3123
 6770TIP3    H120274   5.133   3.588   5.014 -2.5865  0.8501  1.6810
 6770TIP3    H220275   5.046   3.470   4.979 -1.3111  0.1931  0.6476
 6771TIP3   OH220276   3.271   2.740   4.254 -0.1966  0.0464  0.1381
 6771TIP3    H120277   3.197   2.743   4.315 -0.3409  0.4473 -0.0547
 6771TIP3    H220278   3.336   2.687   4.299 -0.3903  0.1482  0.5489
 6772TIP3   OH220279   3.328   0.610   1.030  0.3759  0.1272 -0.2204
 6772TIP3    H120280   3.341   0.647   0.943 -1.2368 -0.8224 -0.9124
 6772TIP3    H220281   3.274   0.675   1.076 -0.1412 -0.0949 -0.5011
 6773TIP3   OH220282   2.634   0.100   5.905 -0.2711  0.2154  0.5277
 6773TIP3    H120283   2.541   0.116   5.918 -0.6395 -0.3655 -1.0454
 6773TIP3    H220284   2.652   0.136   5.818 -0.7709 -5.6954 -2.5224
 6774TIP3   OH220285   4.890   5.272   3.548 -0.6364 -0.1171  0.2851
 6774TIP3    H120286   4.863   5.240   3.635  1.1358 -0.9955  0.5386
 6774TIP3    H220287   4.813   5.258   3.493 -1.2848 -0.9740  1.3661
 6775TIP3   OH220288   5.779   4.696   2.927 -0.3792 -0.8167 -0.1363
 6775TIP3    H120289   5.801   4.616   2.879 -0.2748 -0.9480  0.1209
 6775TIP3    H220290   5.714   4.740   2.873  0.6077 -0.3546 -0.9877
 6776TIP3   OH220291   6.170   1.200   1.499  0.0840  0.1853 -0.2873
 6776TIP3    H120292   6.116   1.271   1.533  0.5597 -0.5903  2.2598
 6776TIP3    H220293   6.119   1.121   1.513  0.3514 -0.1858 -1.3322
 6777TIP3   OH220294   4.281   4.130   3.761 -0.1145 -0.0678 -0.4559
 6777TIP3    H120295   4.323   4.211   3.732 -0.9572  0.5282 -0.0672
 6777TIP3    H220296   4.354   4.074   3.788  0.4780  0.6359 -0.5436
 6778TIP3   OH220297   2.577   4.442   4.167 -0.4601 -0.3658 -0.4358
 6778TIP3    H120298   2.531   4.475   4.090  1.5405  1.3358 -1.0056
 6778TIP3    H220299   2.646   4.507   4.184  1.3397 -2.4142  0.6991
 6779TIP3   OH220300   5.199   1.424   1.744  0.1980 -0.4117  0.2390
 6779TIP3    H120301   5.154   1.505   1.770  0.4563 -0.8918  2.3621
 6779TIP3    H220302   5.286   1.433   1.783  0.1331 -1.8239  0.7462
 6780TIP3   OH220303   2.541   5.585   2.668  0.3609  0.1917  0.2704
 6780TIP3    H120304   2.634   5.606   2.675  0.1907  0.7402  1.0401
 6780TIP3    H220305   2.513   5.629   2.588  0.7417  0.1208  0.0966
 6781TIP3   OH220306   1.613   1.955   0.443  0.1834 -0.1948  0.0902
 6781TIP3    H120307   1.528   1.935   0.403  0.5224 -0.9942 -0.2504
 6781TIP3    H220308   1.610   2.049   0.459 -0.1794  0.0643 -1.3392
 6782TIP3   OH220309   6.583   0.952   4.706 -0.6249  0.1865 -0.0671
 6782TIP3    H120310   6.600   0.869   4.751  0.6751 -0.2799 -1.3273
 6782TIP3    H220311   6.491   0.972   4.725 -0.4925 -0.6386  1.6724
 6783TIP3   OH220312   6.544   4.733   1.317 -0.5851  0.0888  0.7073
 6783TIP3    H120313   6.576   4.821   1.338 -1.1338 -0.0340  2.1838
 6783TIP3    H220314   6.490   4.709   1.392 -1.0111 -1.2386  0.0051
 6784TIP3   OH220315   1.339   0.384   1.077  0.4084  0.2978 -0.6834
 6784TIP3    H120316   1.299   0.471   1.073 -1.1528 -0.3890 -0.4022
 6784TIP3    H220317   1.292   0.332   1.012  1.1678 -0.4149 -0.6771
 6785TIP3   OH220318   6.378   5.092   4.887  0.2856 -0.5045  0.5701
 6785TIP3    H120319   6.452   5.118   4.832  0.1884 -0.3034  0.5332
 6785TIP3    H220320   6.301   5.100   4.830  0.2105 -0.4992  0.6711
 6786TIP3   OH220321   1.130   2.036   2.470  0.0459  0.6664 -0.0917
 6786TIP3    H120322   1.138   2.040   2.565 -0.8334  1.0221 -0.0291
 6786TIP3    H220323   1.154   1.946   2.447  0.9508  0.7666  0.3864
 6787TIP3   OH220324   0.503   4.967   0.859  0.4499  0.3310 -0.1402
 6787TIP3    H120325   0.532   4.975   0.950  2.5807  0.2736 -0.7531
 6787TIP3    H220326   0.408   4.981   0.862  0.6753  1.7803  1.8809
 6788TIP3   OH220327   0.943   5.069   3.255 -0.3981 -0.0834 -0.3373
 6788TIP3    H120328   0.973   4.996   3.308  0.1055  0.0253 -0.4665
 6788TIP3    H220329   0.895   5.125   3.316  0.5753  0.2821  0.1249
 6789TIP3   OH220330   1.504   6.439   1.829 -0.5337 -0.3918  0.5665
 6789TIP3    H120331   1.508   6.348   1.860 -1.2486  0.6752  4.4082
 6789TIP3    H220332   1.460   6.486   1.901  0.0164  3.0501 -1.1557
 6790TIP3   OH220333   4.432   1.503   4.592  0.2046  0.2960  0.0115
 6790TIP3    H120334   4.428   1.426   4.535  1.0888 -0.0060  0.3469
 6790TIP3    H220335   4.341   1.517   4.618  0.2287 -1.8770  1.5542
 6791TIP3   OH220336   3.078   1.697   0.248  0.1505 -0.0013 -0.3541
 6791TIP3    H120337   3.106   1.610   0.275 -0.5048 -0.6668 -1.7320
 6791TIP3    H220338   3.036   1.684   0.163 -2.2506  1.2676  0.5500
 6792TIP3   OH220339   0.635   3.746   5.603 -0.2770 -0.7409  0.3278
 6792TIP3    H120340   0.693   3.821   5.593 -1.1888  0.1078  1.1128
 6792TIP3    H220341   0.630   3.732   5.697 -1.4018 -0.7122  0.2968
 6793TIP3   OH220342   1.378   5.410   5.229  0.4277  0.0327  0.0216
 6793TIP3    H120343   1.282   5.399   5.226  0.4927 -0.8181  0.5797
 6793TIP3    H220344   1.403   5.372   5.313  1.2590  0.2920 -0.1059
 6794TIP3   OH220345   0.879   6.290   4.598  0.3495 -0.4017  0.5446
 6794TIP3    H120346   0.972   6.306   4.614  0.4547  0.1017 -0.4911
 6794TIP3    H220347   0.877   6.223   4.530 -0.0557 -0.8335  0.9746
 6795TIP3   OH220348   6.470   3.782   4.922 -0.0722  0.0168 -0.2142
 6795TIP3    H120349   6.461   3.875   4.945 -2.3065  0.1805 -1.4810
 6795TIP3    H220350   6.395   3.764   4.865  1.2613 -2.1556 -1.3873
 6796TIP3   OH220351   4.037   6.230   3.693  0.5062 -0.5170 -0.3251
 6796TIP3    H120352   4.011   6.308   3.742  0.5977 -0.7467  0.0901
 6796TIP3    H220353   3.959   6.206   3.643 -0.4117 -1.7317  1.5991
 6797TIP3   OH220354   5.484   5.192   1.476 -0.2898 -0.0223  0.3869
 6797TIP3    H120355   5.522   5.278   1.496 -0.4671 -0.1039  1.0855
 6797TIP3    H220356   5.475   5.149   1.561 -2.8233  0.3577  0.3953
 6798TIP3   OH220357   5.448   5.916   2.177 -0.5613 -0.2420  0.4094
 6798TIP3    H120358   5.365   5.960   2.156  0.1748  1.1251  0.2668
 6798TIP3    H220359   5.490   5.901   2.093 -0.0513  0.3217  0.5568
 6799TIP3   OH220360   4.605   2.506   2.022 -1.0551  0.4255 -0.1261
 6799TIP3    H120361   4.569   2.419   2.007  0.7024 -0.2072 -0.9263
 6799TIP3    H220362   4.679   2.492   2.081 -1.5963  1.5928  0.8871
 6800TIP3   OH220363   3.734   2.212   1.086  0.8136 -0.0223  0.0432
 6800TIP3    H120364   3.655   2.184   1.040  0.2075  1.6420  0.0067
 6800TIP3    H220365   3.800   2.148   1.061 -0.5174 -1.4637  0.1063
 6801TIP3   OH220366   6.924   3.753   5.695 -0.1070  0.5280 -0.2034
 6801TIP3    H120367   7.013   3.770   5.664  0.1660  0.1638  0.3542
 6801TIP3    H220368   6.935   3.733   5.788 -0.7820  0.5353 -0.1175
 6802TIP3   OH220369   1.307   4.147   5.553 -0.6980 -0.7140 -0.2559
 6802TIP3    H120370   1.301   4.156   5.648  1.4817 -0.7382 -0.0633
 6802TIP3    H220371   1.235   4.088   5.530 -1.4851 -0.4284  1.3201
 6803TIP3   OH220372   4.712   6.162   4.362  0.1994 -0.1910  0.2914
 6803TIP3    H120373   4.721   6.175   4.267 -1.3881 -0.0388  0.1281
 6803TIP3    H220374   4.747   6.242   4.401  0.7865 -0.2185 -0.1689
 6804TIP3   OH220375   4.229   3.589   1.610 -0.3622  0.1107  0.3653
 6804TIP3    H120376   4.208   3.682   1.622  0.8992  0.4432  0.1165
 6804TIP3    H220377   4.292   3.570   1.680  1.0839  0.0367 -0.9135
 6805TIP3   OH220378   0.374   2.377   0.344  0.1567  0.9135  0.3894
 6805TIP3    H120379   0.393   2.375   0.250  1.8590  1.4670  0.6810
 6805TIP3    H220380   0.282   2.350   0.351  0.0471  0.7072 -1.4091
 6806TIP3   OH220381   3.544   2.541   5.629 -0.8355  0.0832 -1.0812
 6806TIP3    H120382   3.619   2.488   5.654 -1.2644 -0.2820 -0.5532
 6806TIP3    H220383   3.570   2.631   5.653 -1.8186 -0.3798  2.3331
 6807TIP3   OH220384   1.459   1.019   3.211  0.1299  0.1256 -0.7056
 6807TIP3    H120385   1.417   0.941   3.246  1.1067 -0.3938 -0.6622
 6807TIP3    H220386   1.387   1.071   3.176 -0.8455  0.3773  1.4664
 6808TIP3   OH220387   6.303   0.955   2.877 -0.1374  0.3466 -0.0705
 6808TIP3    H120388   6.219   0.942   2.923 -0.1427  0.6838  0.0185
 6808TIP3    H220389   6.283   1.019   2.809 -0.2656 -0.5961 -0.9350
 6809TIP3   OH220390   1.053   2.142   2.736  0.4515 -0.0127  0.3937
 6809TIP3    H120391   0.996   2.067   2.719  0.7418  0.1490 -1.3895
 6809TIP3    H220392   0.993   2.211   2.764 -0.1394 -0.1029 -0.6074
 6810TIP3   OH220393   1.969   4.556   3.089 -0.2721 -0.3798  0.1137
 6810TIP3    H120394   2.038   4.489   3.091  0.0351 -0.1259 -0.9828
 6810TIP3    H220395   1.906   4.527   3.154  1.6640  0.2739  2.4115
 6811TIP3   OH220396   1.216   0.889   2.075 -0.1851  0.3788  0.1010
 6811TIP3    H120397   1.225   0.980   2.102 -0.7536 -0.1565  2.2793
 6811TIP3    H220398   1.294   0.872   2.021  2.6385  0.8277  3.6852
 6812TIP3   OH220399   2.803   1.114   0.962  0.2366 -0.2742  0.0111
 6812TIP3    H120400   2.838   1.026   0.945  1.7415 -0.1436  2.0660
 6812TIP3    H220401   2.802   1.122   1.057 -0.2763  1.7989 -0.1146
 6813TIP3   OH220402   3.029   2.624   4.736 -0.2729  0.2013 -0.4063
 6813TIP3    H120403   2.934   2.637   4.734 -0.3224  0.1410  0.7781
 6813TIP3    H220404   3.046   2.588   4.823  0.9459  1.1138 -0.2431
 6814TIP3   OH220405   4.451   6.690   5.604 -1.2692 -0.0667 -0.1236
 6814TIP3    H120406   4.503   6.672   5.525 -1.9262 -0.5594 -0.4540
 6814TIP3    H220407   4.495   6.640   5.673  0.3542  1.7508  0.2403
 6815TIP3   OH220408   4.676   3.783   0.947 -0.4519 -0.0780  0.1819
 6815TIP3    H120409   4.741   3.777   0.877 -0.4053  1.5256  0.0574
 6815TIP3    H220410   4.691   3.868   0.987 -0.7798 -0.7792  1.8753
 6816TIP3   OH220411   1.864   6.496   4.105 -0.1004  0.4423  0.3219
 6816TIP3    H120412   1.940   6.484   4.048 -0.9443 -1.4321 -0.5139
 6816TIP3    H220413   1.824   6.409   4.110 -0.7074  0.7753  2.9150
 6817TIP3   OH220414   5.151   2.207   4.954 -0.1496 -0.1244 -0.3294
 6817TIP3    H120415   5.116   2.254   5.029 -0.2684  0.3036 -0.6452
 6817TIP3    H220416   5.073   2.184   4.902 -0.0680 -0.4117 -0.3255
 6818TIP3   OH220417   5.572   5.412   4.243  0.1239 -0.2873 -0.5607
 6818TIP3    H120418   5.479   5.422   4.264  0.0489 -0.8092 -0.6258
 6818TIP3    H220419   5.595   5.493   4.198 -0.0725  0.2196  0.2385
 6819TIP3   OH220420   0.837   5.822   2.960 -0.2180 -0.0011 -0.3608
 6819TIP3    H120421   0.800   5.752   3.013 -0.0759  0.5340  0.4737
 6819TIP3    H220422   0.761   5.866   2.922 -0.2975 -0.7358 -1.0684
 6820TIP3   OH220423   3.219   2.629   5.520  0.2929 -0.2635 -0.0646
 6820TIP3    H120424   3.264   2.551   5.551  0.6444  0.0590  0.2470
 6820TIP3    H220425   3.290   2.691   5.502  0.0075  0.0329 -0.1652
 6821TIP3   OH220426   3.962   5.343   3.176 -0.1190  0.5606  0.2369
 6821TIP3    H120427   4.057   5.348   3.187  0.1210 -0.9225 -0.8523
 6821TIP3    H220428   3.928   5.329   3.264  0.5103  2.5420  0.8568
 6822TIP3   OH220429   0.317   5.953   2.979 -0.3026 -0.0259  0.4084
 6822TIP3    H120430   0.339   5.907   3.060 -0.1422 -1.5315 -0.4423
 6822TIP3    H220431   0.400   5.958   2.931 -0.7571 -1.1194 -0.5726
 6823TIP3   OH220432   6.163   5.695   1.437  0.0220 -0.9402 -0.5503
 6823TIP3    H120433   6.255   5.711   1.457 -0.2067 -1.1372  0.6956
 6823TIP3    H220434   6.136   5.773   1.388  0.6980 -0.6184 -0.4220
 6824TIP3   OH220435   1.349   5.036   4.349  0.5468  0.2095 -0.0778
 6824TIP3    H120436   1.431   5.017   4.303  0.6309 -0.1539  0.2154
 6824TIP3    H220437   1.375   5.088   4.424  0.5283 -0.0196  0.0894
 6825TIP3   OH220438   3.470   0.449   5.248  0.3912 -0.2969 -0.0101
 6825TIP3    H120439   3.403   0.409   5.193  1.3955  0.2550 -1.7183
 6825TIP3    H220440   3.522   0.375   5.280 -2.0334 -0.9508  2.9578
 6826TIP3   OH220441   5.563   2.691   5.152  0.0730 -0.1990  0.0212
 6826TIP3    H120442   5.555   2.637   5.074 -0.9451  1.1320 -0.8375
 6826TIP3    H220443   5.541   2.779   5.123  2.2501  0.8437  1.2304
 6827TIP3   OH220444   4.149   5.515   4.387 -0.0926  0.3118  0.5702
 6827TIP3    H120445   4.218   5.582   4.397  2.1198 -1.2990 -2.3764
 6827TIP3    H220446   4.177   5.463   4.312 -5.0421  0.0218 -1.4047
 6828TIP3   OH220447   0.655   1.690   3.637  0.0917  0.2147  0.3680
 6828TIP3    H120448   0.666   1.761   3.701  3.1425  0.9964 -0.8440
 6828TIP3    H220449   0.638   1.735   3.554 -1.1653 -0.6603  0.1294
 6829TIP3   OH220450   0.072   2.469   0.391 -0.6142  0.1910  0.2173
 6829TIP3    H120451  -0.007   2.473   0.445 -1.9811 -0.2322 -1.6354
 6829TIP3    H220452   0.098   2.560   0.379 -1.6884  0.4562 -0.2914
 6830TIP3   OH220453   2.180   4.268   5.748 -0.1779  0.0354  0.3539
 6830TIP3    H120454   2.231   4.221   5.682  2.2163 -1.1485  2.8282
 6830TIP3    H220455   2.103   4.213   5.763 -0.5518  0.1247 -1.0789
 6831TIP3   OH220456   1.686   2.834   1.572  0.2887 -0.6906 -0.0863
 6831TIP3    H120457   1.609   2.786   1.541 -0.2762 -0.2750  0.6604
 6831TIP3    H220458   1.738   2.768   1.618 -0.2306 -0.7094  0.4846
 6832TIP3   OH220459   6.739   5.594   3.431 -0.0446 -0.0363 -0.0124
 6832TIP3    H120460   6.801   5.525   3.455  0.6562  0.6049  0.0718
 6832TIP3    H220461   6.783   5.643   3.362 -0.4884  0.3913 -0.0009
 6833TIP3   OH220462   6.748   3.445   5.365 -0.0433 -0.2320  0.2858
 6833TIP3    H120463   6.708   3.423   5.449  0.7152 -2.0655  0.2112
 6833TIP3    H220464   6.700   3.392   5.301  0.0457  0.3931 -0.3059
 6834TIP3   OH220465   1.516   6.724   2.139  0.0928  0.2082  0.6710
 6834TIP3    H120466   1.520   6.694   2.229 -0.7815  0.3158  0.7546
 6834TIP3    H220467   1.605   6.713   2.105  0.2581 -0.4865  1.3314
 6835TIP3   OH220468   0.039   2.974   0.600  0.0032  0.0775 -0.0817
 6835TIP3    H120469  -0.042   2.942   0.640  1.9055 -1.3453  3.0398
 6835TIP3    H220470   0.069   2.901   0.546  0.0602 -0.0923  0.1756
 6836TIP3   OH220471   2.163   1.478   4.066 -0.2818 -0.3838 -0.2291
 6836TIP3    H120472   2.114   1.499   4.146 -0.9936  1.0519 -1.0077
 6836TIP3    H220473   2.212   1.399   4.089 -1.6764 -0.9283  1.1241
 6837TIP3   OH220474   1.596   4.222   4.095 -0.2744 -0.9345 -0.3519
 6837TIP3    H120475   1.558   4.216   4.008 -1.7667 -1.5920  0.3121
 6837TIP3    H220476   1.571   4.140   4.138 -0.1429 -0.3303  0.9238
 6838TIP3   OH220477   2.773   5.917   2.297 -0.0571  0.0967 -0.2695
 6838TIP3    H120478   2.764   5.907   2.202  1.0885  1.0011 -0.4956
 6838TIP3    H220479   2.753   6.009   2.313 -0.9525 -0.2224  0.4685
 6839TIP3   OH220480   0.934   0.130   3.093  0.2848 -0.1377 -0.0647
 6839TIP3    H120481   1.018   0.153   3.054 -0.7230  2.1449 -1.1307
 6839TIP3    H220482   0.871   0.142   3.021 -1.1467 -0.1733  1.1358
 6840TIP3   OH220483   5.933   5.275   4.861  0.0007 -0.7418  0.0201
 6840TIP3    H120484   5.904   5.320   4.782 -1.0552 -1.4137  0.0039
 6840TIP3    H220485   5.857   5.223   4.888  0.2100 -0.2391  1.6826
 6841TIP3   OH220486   4.468   3.136   1.586 -0.3160 -0.4353  0.2816
 6841TIP3    H120487   4.452   3.098   1.673 -1.6435  0.7054  0.5638
 6841TIP3    H220488   4.382   3.138   1.544 -0.2832  2.0111  0.1948
 6842TIP3   OH220489   2.102   1.626   3.815 -0.4278  0.1150 -0.1005
 6842TIP3    H120490   2.029   1.685   3.830 -1.0473 -0.2499 -1.5197
 6842TIP3    H220491   2.117   1.583   3.899 -0.8996  1.2306  0.5659
 6843TIP3   OH220492   4.012   6.477   1.575 -0.0539  0.0373  0.2433
 6843TIP3    H120493   4.023   6.423   1.497 -1.4122  0.9366 -0.6075
 6843TIP3    H220494   4.092   6.528   1.580  0.1220 -0.1565 -0.4657
 6844TIP3   OH220495   0.957  -0.017   3.356  0.8188 -0.2281  0.6600
 6844TIP3    H120496   0.885  -0.021   3.419  1.5631 -1.0696  1.4799
 6844TIP3    H220497   0.945   0.067   3.311 -1.4769 -0.9532 -0.2177
 6845TIP3   OH220498   1.176   6.405   5.088  0.2833 -0.0624 -0.3831
 6845TIP3    H120499   1.221   6.456   5.021  0.0975  1.3666  0.5273
 6845TIP3    H220500   1.149   6.325   5.043  1.9821 -0.0844 -1.4532
 6846TIP3   OH220501   3.435   2.162   4.158 -0.1510  0.1986  0.3291
 6846TIP3    H120502   3.428   2.250   4.121  0.9482  0.1772  0.0369
 6846TIP3    H220503   3.417   2.174   4.252 -2.6793  0.2907 -0.0935
 6847TIP3   OH220504   6.249   1.112   4.151  0.0370  0.1889 -0.4119
 6847TIP3    H120505   6.325   1.059   4.174  0.6793  0.8972 -0.8852
 6847TIP3    H220506   6.277   1.203   4.165  0.1356  0.6277 -2.9878
 6848TIP3   OH220507   6.535   3.641   4.241 -0.7347  0.1876  0.0024
 6848TIP3    H120508   6.456   3.614   4.289 -1.8909  1.3347 -1.1744
 6848TIP3    H220509   6.589   3.687   4.305 -0.9835 -0.6562  0.8341
 6849TIP3   OH220510   0.913   4.276   4.243  0.1610 -0.0146  0.2505
 6849TIP3    H120511   1.008   4.265   4.245  0.0364 -1.6907 -0.8804
 6849TIP3    H220512   0.882   4.208   4.184 -1.9206 -0.5623  1.8450
 6850TIP3   OH220513   0.931   0.662   3.422 -0.3388 -0.2979  0.5645
 6850TIP3    H120514   0.913   0.590   3.361 -1.4604 -0.0905  0.6268
 6850TIP3    H220515   1.002   0.630   3.477 -0.3458 -1.0786  0.1393
 6851TIP3   OH220516   6.937   2.173   0.012  0.1132  0.2072 -0.8718
 6851TIP3    H120517   7.031   2.157   0.008  0.0006 -0.6171 -0.3777
 6851TIP3    H220518   6.897   2.091  -0.016 -0.4845 -0.4781  1.7143
 6852TIP3   OH220519   5.655   5.393   0.909  0.3556  0.5028  0.1994
 6852TIP3    H120520   5.630   5.443   0.832  2.8055  2.1260  0.3526
 6852TIP3    H220521   5.590   5.323   0.915 -0.6575  1.1117 -2.5462
 6853TIP3   OH220522   5.122   5.483   3.785  0.4768  0.4938 -0.7571
 6853TIP3    H120523   5.119   5.556   3.723 -2.2097  0.5708 -0.6783
 6853TIP3    H220524   5.046   5.498   3.842  1.2182 -1.1326  0.7242
 6854TIP3   OH220525   7.072   4.116   1.054  0.1349  0.3285  0.3908
 6854TIP3    H120526   7.077   4.134   1.147  0.3578 -0.9754  0.6422
 6854TIP3    H220527   7.134   4.177   1.014  1.0189 -0.0091  1.2290
 6855TIP3   OH220528   0.927   3.766   0.472 -0.5551  0.0148  0.4945
 6855TIP3    H120529   0.859   3.702   0.495  0.2080 -0.5019  1.4186
 6855TIP3    H220530   0.930   3.825   0.546 -0.1716  0.1886  0.3409
 6856TIP3   OH220531   0.611   5.394   0.127  0.7036  0.0843 -0.5797
 6856TIP3    H120532   0.537   5.353   0.172 -0.4877  1.5137 -1.1765
 6856TIP3    H220533   0.683   5.331   0.138 -0.3453 -0.9518  0.7491
 6857TIP3   OH220534   2.720   3.115   5.740  0.2453  0.3541 -0.3990
 6857TIP3    H120535   2.757   3.044   5.688  0.8494  0.7057 -0.4640
 6857TIP3    H220536   2.688   3.073   5.820  1.0111  0.0693 -0.2368
 6858TIP3   OH220537   2.698   4.022   0.075 -0.0233  0.3496 -0.1530
 6858TIP3    H120538   2.633   4.010   0.006  2.2955  0.9273 -2.5947
 6858TIP3    H220539   2.771   4.065   0.032  2.3787 -1.0457  2.2252
 6859TIP3   OH220540   7.060   6.341   1.400  0.1904  0.2982 -0.1593
 6859TIP3    H120541   7.073   6.377   1.312 -1.1014  1.6961  0.1750
 6859TIP3    H220542   7.068   6.417   1.458  0.0702 -0.4370  0.8443
 6860TIP3   OH220543   1.768   3.310   1.253  0.1184  0.3840 -0.5173
 6860TIP3    H120544   1.705   3.238   1.243  0.9944 -0.8411  1.8550
 6860TIP3    H220545   1.718   3.381   1.293 -1.2996  2.1120 -4.8439
 6861TIP3   OH220546   3.580   0.357   0.306 -0.3175  0.0501  0.7124
 6861TIP3    H120547   3.540   0.336   0.222  0.4788  0.8257  0.1168
 6861TIP3    H220548   3.585   0.274   0.352 -2.0183 -0.1663  0.5534
 6862TIP3   OH220549   4.754   0.886   3.461  0.6279 -0.3122 -0.1307
 6862TIP3    H120550   4.708   0.860   3.541 -0.6494 -1.2640 -1.1403
 6862TIP3    H220551   4.796   0.970   3.484 -2.3551  1.1235  0.6001
 6863TIP3   OH220552   3.668   5.036   2.388  0.3214  0.2874  0.1483
 6863TIP3    H120553   3.682   4.964   2.449 -0.4406 -0.3387 -0.4004
 6863TIP3    H220554   3.628   4.995   2.311 -0.3914  1.3379 -0.0595
 6864TIP3   OH220555   1.989   1.388   5.098  0.4790 -0.3223  0.5929
 6864TIP3    H120556   1.906   1.398   5.052 -0.3571  1.1615  2.3195
 6864TIP3    H220557   2.043   1.461   5.068 -0.6663  1.6866  3.0009
 6865TIP3   OH220558   6.083   6.422   3.823  0.0464  0.4925 -0.1743
 6865TIP3    H120559   6.020   6.350   3.817 -0.6851  1.1316 -0.2493
 6865TIP3    H220560   6.102   6.445   3.732  0.7266  0.0187 -0.1592
 6866TIP3   OH220561   5.033   4.536   5.146  0.1322 -0.0793 -0.5822
 6866TIP3    H120562   5.127   4.531   5.164  0.2204 -0.2051 -1.0773
 6866TIP3    H220563   5.012   4.451   5.106 -0.2368 -0.1388 -0.2669
 6867TIP3   OH220564   2.351   0.345   1.052 -0.1332 -0.2321 -0.7446
 6867TIP3    H120565   2.306   0.428   1.034 -0.9758 -0.2448  1.0418
 6867TIP3    H220566   2.288   0.295   1.104  0.7900 -1.5407 -0.8431
 6868TIP3   OH220567   2.658   3.067   3.389  0.3854 -0.1045  0.9587
 6868TIP3    H120568   2.618   3.097   3.308  1.1780  0.9148  0.9139
 6868TIP3    H220569   2.699   2.983   3.366  0.0704 -0.1284  0.4739
 6869TIP3   OH220570   0.892   3.723   0.987 -0.2422  0.5343 -0.0434
 6869TIP3    H120571   0.948   3.713   0.910 -0.4768  0.2982 -0.1865
 6869TIP3    H220572   0.882   3.634   1.021  1.4003  0.8279  1.3745
 6870TIP3   OH220573   4.672   6.714   0.528 -0.6560  0.0773 -0.4707
 6870TIP3    H120574   4.763   6.741   0.514  0.1288 -1.2328  1.5907
 6870TIP3    H220575   4.627   6.795   0.551  0.5160  0.4701  0.6214
 6871TIP3   OH220576   4.554   3.934   5.192  0.0552  0.4123 -0.2126
 6871TIP3    H120577   4.467   3.963   5.218 -0.2289 -0.8288  0.2944
 6871TIP3    H220578   4.554   3.940   5.096 -0.2859  1.2125 -0.1668
 6872TIP3   OH220579   2.947   3.117   2.298  0.6028  0.1495  0.6411
 6872TIP3    H120580   2.939   3.049   2.365  0.2913  0.6857  1.1607
 6872TIP3    H220581   2.857   3.134   2.270  0.7792 -0.4764 -0.3354
 6873TIP3   OH220582   4.503   5.438   5.268 -0.2358 -0.1171  0.9746
 6873TIP3    H120583   4.545   5.452   5.353 -0.6854  1.9727  0.9106
 6873TIP3    H220584   4.413   5.469   5.280 -0.9050 -1.6675  0.2598
 6874TIP3   OH220585   5.106   5.076   5.447  0.2893  0.1079  0.3702
 6874TIP3    H120586   5.111   5.154   5.393  0.9873 -0.9820 -1.2186
 6874TIP3    H220587   5.165   5.013   5.405 -1.7678 -1.9721  0.3710
 6875TIP3   OH220588   4.960   0.594   3.504 -0.1659  0.8554  0.1861
 6875TIP3    H120589   4.956   0.622   3.413  1.7596 -0.4705 -0.3498
 6875TIP3    H220590   5.050   0.610   3.532 -0.4771  0.4081  1.5733
 6876TIP3   OH220591   4.326   0.758   0.824 -0.0197  0.1407 -0.4182
 6876TIP3    H120592   4.307   0.666   0.807 -0.9174  0.3793 -0.7588
 6876TIP3    H220593   4.421   0.761   0.833  0.0700 -0.7403 -0.8992
 6877TIP3   OH220594   2.107   0.995   1.040  0.2574 -0.0062 -0.6942
 6877TIP3    H120595   2.161   0.923   1.008  0.0747 -0.7569  0.6090
 6877TIP3    H220596   2.171   1.059   1.073  0.4433  0.7601 -2.4474
 6878TIP3   OH220597   1.058   5.785   5.624 -0.1637 -0.2056  0.3593
 6878TIP3    H120598   1.136   5.740   5.656  0.1354  0.4781  0.6192
 6878TIP3    H220599   1.076   5.800   5.531  0.2014  0.3053  0.5043
 6879TIP3   OH220600   1.911   2.146   0.442 -0.3703  0.1433  0.0869
 6879TIP3    H120601   1.925   2.051   0.433  0.7081  0.2641  0.3122
 6879TIP3    H220602   1.939   2.166   0.531 -1.7494  0.5013  0.4655
 6880TIP3   OH220603   1.578   5.349   1.696 -0.0011  0.7989  0.2109
 6880TIP3    H120604   1.495   5.303   1.686  1.3807 -2.1061  1.0041
 6880TIP3    H220605   1.575   5.385   1.784 -0.4527  0.7640  0.2117
 6881TIP3   OH220606   4.675   3.683   1.766 -0.5563  0.4793  0.1184
 6881TIP3    H120607   4.744   3.669   1.831  0.5643  0.6709 -0.9946
 6881TIP3    H220608   4.691   3.771   1.733 -1.7800  0.7957  0.3414
 6882TIP3   OH220609   5.474   2.628   5.471  0.4007  0.4015 -0.3881
 6882TIP3    H120610   5.408   2.680   5.426 -0.8437  1.2545  2.2391
 6882TIP3    H220611   5.532   2.692   5.512 -0.0720 -0.2315  1.3739
 6883TIP3   OH220612   1.974   0.216   4.253  0.5824  0.5463  0.1773
 6883TIP3    H120613   2.004   0.298   4.293 -0.7151  0.8506  0.5725
 6883TIP3    H220614   1.881   0.211   4.275  0.0342  0.2468 -2.0253
 6884TIP3   OH220615   2.965   4.776   1.309 -0.4213  0.1093  0.0011
 6884TIP3    H120616   2.917   4.736   1.382 -1.4170  0.9001 -0.2052
 6884TIP3    H220617   2.921   4.860   1.295  0.8172  0.7003 -0.4268
 6885TIP3   OH220618   3.969   6.766   5.591  0.2627 -0.0655 -0.3143
 6885TIP3    H120619   4.054   6.809   5.590  0.2140  0.1842  1.6075
 6885TIP3    H220620   3.971   6.706   5.517  1.2839  1.4492 -1.5697
 6886TIP3   OH220621   5.635   6.757   3.721  0.2937  0.3400 -0.3811
 6886TIP3    H120622   5.651   6.673   3.765  1.4939  1.5435  1.6651
 6886TIP3    H220623   5.572   6.801   3.777  0.3541  1.1577 -0.9469
 6887TIP3   OH220624   2.915   1.834   1.378 -0.6243  0.2416 -0.1855
 6887TIP3    H120625   2.957   1.873   1.301  0.4960 -0.5219  0.0067
 6887TIP3    H220626   2.903   1.907   1.439  0.1133  0.5511 -0.3943
 6888TIP3   OH220627   7.143   3.231   5.095  0.2262  0.4704  0.8802
 6888TIP3    H120628   7.158   3.208   5.004 -0.1275  1.2847  0.6044
 6888TIP3    H220629   7.051   3.210   5.111 -0.7278  3.4111  0.0205
 6889TIP3   OH220630   2.007   1.115   1.490  0.9370  0.1988 -0.2469
 6889TIP3    H120631   1.989   1.209   1.495 -1.1191 -0.1267 -0.7279
 6889TIP3    H220632   2.098   1.107   1.520  2.7632  2.8453 -4.1807
 6890TIP3   OH220633   4.122   0.271   3.406 -0.1044 -0.6029 -0.6941
 6890TIP3    H120634   4.189   0.279   3.337 -0.1025 -0.8709 -0.7243
 6890TIP3    H220635   4.154   0.200   3.461 -0.0960 -0.3731 -0.4024
 6891TIP3   OH220636   6.764   1.676   4.856  0.2006 -0.3431  0.3759
 6891TIP3    H120637   6.731   1.719   4.935  0.2938 -0.2774  0.3796
 6891TIP3    H220638   6.725   1.725   4.783  0.8068  0.1476  0.3751
 6892TIP3   OH220639   0.282   0.758   3.912  0.2539 -0.3884 -0.5438
 6892TIP3    H120640   0.252   0.849   3.909 -0.9649 -0.7850 -0.6870
 6892TIP3    H220641   0.218   0.709   3.861  0.8146 -1.3619 -0.3508
 6893TIP3   OH220642   4.273   6.575   1.597  0.2617 -0.3080  0.1236
 6893TIP3    H120643   4.303   6.484   1.595 -0.1287 -0.4364  0.1262
 6893TIP3    H220644   4.326   6.619   1.530 -1.3459 -1.0906 -1.7563
 6894TIP3   OH220645   2.734   3.551   5.359  0.5910 -0.0756 -0.3746
 6894TIP3    H120646   2.697   3.636   5.381  2.7236  0.7660  0.2152
 6894TIP3    H220647   2.758   3.513   5.444 -0.7733 -1.5406 -0.5800
 6895TIP3   OH220648   3.328   4.298   2.829 -0.1032 -0.1052 -0.6826
 6895TIP3    H120649   3.278   4.362   2.778  1.3553  1.8162  0.1444
 6895TIP3    H220650   3.406   4.281   2.776 -0.4212 -1.1494 -0.8397
 6896TIP3   OH220651   1.338   1.167   4.029  0.1554 -0.3465 -0.3417
 6896TIP3    H120652   1.352   1.252   3.988  1.2977 -1.3091 -2.0601
 6896TIP3    H220653   1.420   1.119   4.015  0.1393 -1.1944  2.0148
 6897TIP3   OH220654   5.444   4.406   1.769 -0.2962 -0.0770 -0.5235
 6897TIP3    H120655   5.470   4.377   1.857 -2.2941 -0.1124  0.1091
 6897TIP3    H220656   5.434   4.325   1.720  1.2883 -0.0359 -0.9558
 6898TIP3   OH220657   0.197   0.862   1.501  0.1808 -0.1897 -0.2507
 6898TIP3    H120658   0.140   0.860   1.424  0.3234  0.6578 -0.3876
 6898TIP3    H220659   0.238   0.948   1.498  0.0112 -0.0492  0.9011
 6899TIP3   OH220660   3.435   2.662   2.920 -0.6302  0.7721 -0.0127
 6899TIP3    H120661   3.526   2.633   2.928 -0.5016  1.0044 -0.6191
 6899TIP3    H220662   3.405   2.672   3.011 -0.3116 -0.1069  0.2048
 6900TIP3   OH220663   3.958   5.426   2.589  0.0590 -0.2683  0.5801
 6900TIP3    H120664   3.985   5.394   2.676 -2.0849  0.1779  1.4797
 6900TIP3    H220665   3.996   5.514   2.584  2.0529 -1.0892  0.0670
 6901TIP3   OH220666   3.636   1.714   2.116  0.2245  0.2664  0.0834
 6901TIP3    H120667   3.697   1.687   2.185  0.4695  1.7314  0.4689
 6901TIP3    H220668   3.556   1.739   2.162 -0.2848 -0.5306 -0.3352
 6902TIP3   OH220669   5.815   4.155   2.496 -0.1984 -0.1260 -0.1300
 6902TIP3    H120670   5.876   4.140   2.424  0.3108 -0.1553  0.3088
 6902TIP3    H220671   5.777   4.240   2.476  0.2110  0.0345 -0.2390
 6903TIP3   OH220672   4.418   3.514   3.488  0.0308  0.2001 -0.0703
 6903TIP3    H120673   4.332   3.555   3.500  0.6243  1.1180  1.3611
 6903TIP3    H220674   4.481   3.582   3.514  1.1774 -0.5749 -0.7381
 6904TIP3   OH220675   3.870   3.965   1.762 -0.2338  0.3025 -0.0584
 6904TIP3    H120676   3.852   4.021   1.687  1.5646  0.2132 -0.6127
 6904TIP3    H220677   3.909   3.886   1.725 -0.1260 -0.1208  0.9067
 6905TIP3   OH220678   6.558   3.912   4.650  0.4225  0.3892 -0.5413
 6905TIP3    H120679   6.652   3.898   4.661  0.4142 -0.7710 -1.7415
 6905TIP3    H220680   6.527   3.936   4.737  1.7679  0.4206 -0.0531
 6906TIP3   OH220681   6.144   0.653   2.268  0.7308 -0.3809 -0.0997
 6906TIP3    H120682   6.125   0.714   2.197 -0.8953 -0.6414  0.0785
 6906TIP3    H220683   6.174   0.709   2.340  0.1874  0.1072 -0.2478
 6907TIP3   OH220684   4.739   3.269   1.257  0.4936 -0.2953 -0.1541
 6907TIP3    H120685   4.732   3.174   1.256 -2.9859 -0.2133 -2.2060
 6907TIP3    H220686   4.684   3.296   1.330  0.5740  0.1475 -0.2535
 6908TIP3   OH220687   1.942   1.640   1.688 -0.4610 -0.2319  0.2074
 6908TIP3    H120688   2.016   1.701   1.689 -0.6605 -0.0012  1.3064
 6908TIP3    H220689   1.976   1.560   1.728 -0.8930 -0.0175  1.0142
 6909TIP3   OH220690   0.190   1.911   2.713  0.6564 -0.2205  0.1031
 6909TIP3    H120691   0.253   1.948   2.652  0.8540 -2.1467 -0.9428
 6909TIP3    H220692   0.231   1.830   2.744  0.3316  0.4312  2.4389
 6910TIP3   OH220693   6.624   6.031   1.515  0.1734  0.5343 -0.3052
 6910TIP3    H120694   6.537   6.044   1.553  0.4541  0.3506  0.4209
 6910TIP3    H220695   6.643   5.939   1.531  0.7879  0.7375  0.1654
 6911TIP3   OH220696   1.580   6.088   4.947  0.1600  0.0214  0.4505
 6911TIP3    H120697   1.493   6.060   4.977  0.4720 -1.3073  0.1838
 6911TIP3    H220698   1.604   6.024   4.880  0.3578  1.7358 -1.1944
 6912TIP3   OH220699   0.080   2.214   1.435  0.0807 -0.3520  0.0966
 6912TIP3    H120700   0.143   2.146   1.459  2.1327  1.7546  1.0593
 6912TIP3    H220701   0.119   2.257   1.359 -0.3181  0.8121  0.5361
 6913TIP3   OH220702   2.542   1.502   4.742  0.0633  0.0934  0.1932
 6913TIP3    H120703   2.548   1.479   4.834  0.4107 -0.4385  0.0413
 6913TIP3    H220704   2.451   1.483   4.719 -0.7885  2.7498  1.0718
 6914TIP3   OH220705   0.985   2.080   1.313 -0.3839 -0.4345 -0.7363
 6914TIP3    H120706   1.040   2.006   1.339 -0.5602 -0.6811 -1.0569
 6914TIP3    H220707   1.011   2.100   1.223 -0.0449  0.1687 -0.5075
 6915TIP3   OH220708   1.898   6.226   3.045 -0.1319  0.2152 -0.1629
 6915TIP3    H120709   1.897   6.237   2.950  0.0959 -0.0497 -0.2000
 6915TIP3    H220710   1.861   6.139   3.059 -1.2483  0.7065  0.0714
 6916TIP3   OH220711   1.049   2.432   1.670  0.3105  0.2378  0.2322
 6916TIP3    H120712   1.093   2.485   1.736  0.9893  0.1624 -0.1492
 6916TIP3    H220713   1.057   2.483   1.589 -2.4576  1.4047  0.5960
 6917TIP3   OH220714   3.912   2.541   2.095  0.3809 -0.6172 -0.2139
 6917TIP3    H120715   3.941   2.468   2.150  1.8385 -0.0942 -0.2518
 6917TIP3    H220716   3.949   2.521   2.008  1.5124  0.5728 -0.0252
 6918TIP3   OH220717   0.333   4.165   3.582 -0.5927  0.0994  0.1075
 6918TIP3    H120718   0.321   4.084   3.632  0.5425  0.2813  0.7159
 6918TIP3    H220719   0.413   4.203   3.618 -0.5655  0.9887 -0.8611
 6919TIP3   OH220720   1.526   3.805   0.843  0.0360  0.1439 -0.2194
 6919TIP3    H120721   1.620   3.818   0.834  0.2897  0.0174  1.7744
 6919TIP3    H220722   1.488   3.891   0.826  0.7027  0.6693  0.8115
 6920TIP3   OH220723   5.410   5.317   5.599  0.2448  0.0670 -0.0120
 6920TIP3    H120724   5.356   5.361   5.664  0.5287 -2.0726  1.7679
 6920TIP3    H220725   5.348   5.289   5.531 -0.2711  0.9855  0.0550
 6921TIP3   OH220726   2.588   1.735   5.308  0.3683  0.2382 -0.0375
 6921TIP3    H120727   2.575   1.766   5.218 -1.5610 -1.6339 -0.4959
 6921TIP3    H220728   2.512   1.768   5.356 -0.1981 -1.2522  0.1433
 6922TIP3   OH220729   0.212   1.658   0.647 -0.0308  0.5074 -0.0333
 6922TIP3    H120730   0.192   1.741   0.691 -0.3242 -0.4649  1.7495
 6922TIP3    H220731   0.283   1.680   0.587  0.6038  1.8431  1.1412
 6923TIP3   OH220732   1.230   0.726   3.592  0.1738 -0.2665 -0.4692
 6923TIP3    H120733   1.181   0.774   3.659  1.5499 -3.5097  3.2253
 6923TIP3    H220734   1.172   0.654   3.567  0.6324 -0.4397 -1.0527
 6924TIP3   OH220735   5.143   1.587   5.589  0.3233 -0.2735 -0.3108
 6924TIP3    H120736   5.184   1.520   5.533 -0.8262  0.4672 -2.1520
 6924TIP3    H220737   5.190   1.667   5.567  0.3329 -0.0982  0.3451
 6925TIP3   OH220738   1.734   0.484   0.150 -0.2249 -0.8897 -0.1858
 6925TIP3    H120739   1.641   0.506   0.146 -0.2539 -1.1988 -1.9243
 6925TIP3    H220740   1.750   0.465   0.242 -1.9662 -1.1658  0.0962
 6926TIP3   OH220741   5.483   6.000   4.247  0.1463  0.0080  0.0295
 6926TIP3    H120742   5.412   5.949   4.286 -0.5839  1.0357  0.0813
 6926TIP3    H220743   5.472   5.989   4.153 -0.7250  0.9925  0.0048
 6927TIP3   OH220744   1.947   3.361   1.640 -0.0707 -0.4289 -0.4853
 6927TIP3    H120745   1.929   3.269   1.655 -0.5976 -0.4888 -1.3823
 6927TIP3    H220746   1.877   3.390   1.582 -0.5489  0.8203  0.6599
 6928TIP3   OH220747   2.190   1.661   5.067 -0.3086 -0.2515  0.2678
 6928TIP3    H120748   2.239   1.597   5.016 -0.7687 -0.4646  0.0915
 6928TIP3    H220749   2.158   1.724   5.003 -0.6584 -0.3709  0.3203
 6929TIP3   OH220750   6.760   0.558   1.368 -0.4972  0.5690 -0.4897
 6929TIP3    H120751   6.779   0.598   1.283 -0.3620 -0.2672 -0.8619
 6929TIP3    H220752   6.761   0.631   1.429 -0.6890  1.1972 -1.2213
 6930TIP3   OH220753   6.104   4.768   0.323  0.0858  0.2038  0.1335
 6930TIP3    H120754   6.106   4.745   0.415 -0.7952 -0.2680  0.0441
 6930TIP3    H220755   6.019   4.811   0.310  0.5803  1.0860 -0.2681
 6931TIP3   OH220756   0.095   1.564   4.039  0.6297 -0.2363  0.2604
 6931TIP3    H120757   0.190   1.573   4.040  0.5069  1.2394  0.4156
 6931TIP3    H220758   0.080   1.483   3.989  1.9510 -0.5779  0.3646
 6932TIP3   OH220759   2.835   4.713   4.952 -0.4147 -0.6566 -0.1308
 6932TIP3    H120760   2.873   4.801   4.951 -1.3731 -0.2271 -0.1159
 6932TIP3    H220761   2.908   4.655   4.933  0.2203  0.1505 -0.2080
 6933TIP3   OH220762   3.758   2.357   1.321 -0.4165  0.1796 -0.8885
 6933TIP3    H120763   3.801   2.339   1.237 -1.3303 -0.3571 -1.2695
 6933TIP3    H220764   3.717   2.273   1.345 -0.8514  0.5469 -0.3224
 6934TIP3   OH220765   0.789   3.200   1.880  0.8116 -0.1529 -0.1037
 6934TIP3    H120766   0.815   3.120   1.835  1.7762  0.2725 -0.3311
 6934TIP3    H220767   0.872   3.242   1.903  0.3381  0.1075  1.2289
 6935TIP3   OH220768   0.874   6.663   2.403  0.3277 -0.5568 -0.3026
 6935TIP3    H120769   0.808   6.675   2.472  1.7413  0.7100  0.9127
 6935TIP3    H220770   0.851   6.726   2.336  1.0057  0.8330  0.7242
 6936TIP3   OH220771   1.670   4.722   4.264 -1.0049  0.3359  0.1615
 6936TIP3    H120772   1.696   4.681   4.347  1.6590  0.5005 -0.4862
 6936TIP3    H220773   1.610   4.659   4.224  0.7417 -1.6727  0.4755
 6937TIP3   OH220774   6.443   3.029   4.023  0.4435  0.5911  0.0065
 6937TIP3    H120775   6.443   2.983   4.107  2.1062 -0.2475 -0.4168
 6937TIP3    H220776   6.511   3.096   4.032  1.2229 -0.0411 -0.9147
 6938TIP3   OH220777   7.099   4.871  -0.011 -0.7316 -0.0244  0.7380
 6938TIP3    H120778   7.069   4.962  -0.015 -3.3878 -0.8339  0.4377
 6938TIP3    H220779   7.149   4.866   0.070  2.6727  2.4716 -0.8925
 6939TIP3   OH220780   4.142   2.388   0.436 -0.0521  0.0188  0.6896
 6939TIP3    H120781   4.082   2.327   0.478 -1.7712  1.0041 -0.2020
 6939TIP3    H220782   4.089   2.467   0.422  2.0522  1.7180  1.7463
 6940TIP3   OH220783   5.498   2.662   2.656 -0.1292 -0.2888 -0.0231
 6940TIP3    H120784   5.590   2.650   2.635  0.3991  0.8688  1.4432
 6940TIP3    H220785   5.468   2.730   2.595  1.0331  2.0700  1.8675
 6941TIP3   OH220786   0.056   3.454   3.692 -0.4504  0.0233 -0.1117
 6941TIP3    H120787  -0.009   3.413   3.750 -0.8384 -1.3320 -1.4556
 6941TIP3    H220788   0.012   3.531   3.656 -0.4674  0.4421  0.7697
 6942TIP3   OH220789   4.715   4.926   1.119 -0.8264  0.0753 -0.0312
 6942TIP3    H120790   4.792   4.917   1.062  0.3784  0.0418  1.5319
 6942TIP3    H220791   4.645   4.880   1.072  0.4973 -1.2550 -0.7963
 6943TIP3   OH220792   6.232   4.315   0.375  0.1387 -0.0878  0.0153
 6943TIP3    H120793   6.171   4.323   0.301  0.1495  0.1008  0.0257
 6943TIP3    H220794   6.300   4.380   0.356 -0.8318  1.3084  1.1307
 6944TIP3   OH220795   1.145   1.734   2.772  0.2758 -0.2684 -0.0348
 6944TIP3    H120796   1.070   1.682   2.803 -0.3937 -0.3965 -1.7618
 6944TIP3    H220797   1.184   1.769   2.852 -2.5665  1.1323  0.8968
 6945TIP3   OH220798   5.993   5.704   4.464 -0.2465 -0.8947  0.5490
 6945TIP3    H120799   6.000   5.755   4.545  1.5363  0.7086 -0.5174
 6945TIP3    H220800   6.040   5.757   4.399 -0.1055 -2.9729 -1.1280
 6946TIP3   OH220801   4.278   4.879   4.557 -0.0793  0.2641  0.1758
 6946TIP3    H120802   4.362   4.923   4.574 -0.5217  0.9386  0.6736
 6946TIP3    H220803   4.250   4.848   4.643  0.0647 -0.7270 -0.1208
 6947TIP3   OH220804   1.095   3.932   3.740 -0.2635  0.1810 -0.1684
 6947TIP3    H120805   1.112   3.902   3.651 -1.0587 -0.5631 -0.0799
 6947TIP3    H220806   1.075   4.025   3.731  0.4248  0.2933 -0.6610
 6948TIP3   OH220807   1.809   2.482   3.886  0.0420 -0.1739  0.4385
 6948TIP3    H120808   1.818   2.481   3.982 -1.7848 -1.0223  0.6437
 6948TIP3    H220809   1.890   2.442   3.855  0.8870  0.5564  1.5893
 6949TIP3   OH220810   2.742   2.969   0.872 -0.1728 -0.0067 -0.1009
 6949TIP3    H120811   2.667   3.027   0.874  0.5209  0.9310 -0.6047
 6949TIP3    H220812   2.771   2.970   0.781  0.4525 -0.3571  0.0879
 6950TIP3   OH220813   5.576   3.520   2.484  0.2052 -0.2041 -0.2751
 6950TIP3    H120814   5.663   3.493   2.512  0.8059 -1.1748 -2.8184
 6950TIP3    H220815   5.523   3.441   2.491 -0.6376  0.4663  1.6113
 6951TIP3   OH220816   3.972   0.365   4.542  0.4466 -0.0506 -0.0364
 6951TIP3    H120817   3.952   0.281   4.501  0.2538  0.1321 -0.3254
 6951TIP3    H220818   3.971   0.347   4.636 -0.6635 -0.1551 -0.0472
 6952TIP3   OH220819   4.780   4.894   5.761 -0.3029 -0.4263  0.3272
 6952TIP3    H120820   4.695   4.862   5.791  0.0244 -0.2077  1.5866
 6952TIP3    H220821   4.805   4.959   5.827 -0.2586  1.3172 -1.3312
 6953TIP3   OH220822   1.342   5.839   2.120 -0.5029  0.1656  0.3475
 6953TIP3    H120823   1.292   5.824   2.040 -0.1158 -2.3194  0.5044
 6953TIP3    H220824   1.430   5.809   2.099 -0.7787 -2.2371  2.1369
 6954TIP3   OH220825   3.281   4.301   1.320  0.3109 -0.0538  0.4826
 6954TIP3    H120826   3.220   4.228   1.327  0.7625 -0.5773 -0.8059
 6954TIP3    H220827   3.363   4.268   1.355  0.3526  0.0469  0.4817
 6955TIP3   OH220828   5.484   6.730   1.025 -0.7161  0.5529 -0.0473
 6955TIP3    H120829   5.519   6.815   1.000  1.7344 -0.0133  1.1775
 6955TIP3    H220830   5.482   6.680   0.943  1.9945  0.4730 -0.1712
 6956TIP3   OH220831   5.960   3.605   5.483 -0.6267 -0.3477  0.1260
 6956TIP3    H120832   6.038   3.609   5.538 -1.1105  0.5641  0.7707
 6956TIP3    H220833   5.889   3.637   5.539 -1.5290 -1.4767 -0.3414
 6957TIP3   OH220834   3.142   5.588   0.401 -0.0106  0.9763  0.3329
 6957TIP3    H120835   3.130   5.559   0.491 -0.4098 -0.7640 -0.2200
 6957TIP3    H220836   3.220   5.541   0.371  0.3354  1.8272 -0.1190
 6958TIP3   OH220837   2.693   2.966   1.388 -0.6963 -0.0312 -0.4091
 6958TIP3    H120838   2.699   2.965   1.292  1.0787  3.5783 -0.4751
 6958TIP3    H220839   2.757   2.901   1.417 -0.4148 -0.3227 -1.6308
 6959TIP3   OH220840   3.693   6.220   2.882  0.3404  0.0267 -0.7176
 6959TIP3    H120841   3.760   6.216   2.951  0.6185  0.6400 -0.9457
 6959TIP3    H220842   3.710   6.303   2.837 -1.4283  0.8953  0.0938
 6960TIP3   OH220843   4.615   4.276   1.666  0.1544  0.1471 -0.3723
 6960TIP3    H120844   4.562   4.198   1.686  0.1987 -0.6480 -2.9959
 6960TIP3    H220845   4.705   4.248   1.684  0.0570  0.0382 -0.0393
 6961TIP3   OH220846   3.128   1.625   1.179 -0.4999 -0.2362 -0.0674
 6961TIP3    H120847   3.121   1.597   1.270 -3.7407  2.8209  0.8394
 6961TIP3    H220848   3.176   1.707   1.183  0.9314 -0.9592 -1.4338
 6962TIP3   OH220849   2.999   5.473   1.192  0.3449 -0.3508  0.2246
 6962TIP3    H120850   2.969   5.385   1.167  1.7104 -1.1433  1.2170
 6962TIP3    H220851   2.921   5.527   1.184 -0.3004 -1.4273 -1.3936
 6963TIP3   OH220852   5.343   0.888   2.452 -0.0639 -0.2165  0.0819
 6963TIP3    H120853   5.264   0.936   2.426 -0.8879 -0.9503  1.1202
 6963TIP3    H220854   5.365   0.923   2.539  0.1314 -0.7285  0.2460
 6964TIP3   OH220855   1.969   6.617   3.264 -0.7930 -0.1251 -0.4361
 6964TIP3    H120856   1.978   6.706   3.299  0.9538 -0.2615 -0.4477
 6964TIP3    H220857   1.886   6.618   3.217 -1.1129  1.3182  0.1172
 6965TIP3   OH220858   2.220   5.592   3.324 -0.2618 -0.0745  0.6299
 6965TIP3    H120859   2.262   5.677   3.308 -1.7711  0.6824  0.4815
 6965TIP3    H220860   2.226   5.580   3.419 -0.8762  0.6810  0.7783
 6966TIP3   OH220861   6.243   6.777   5.668 -0.4600 -0.3617 -0.3166
 6966TIP3    H120862   6.319   6.810   5.621 -0.1261 -1.1623 -0.3492
 6966TIP3    H220863   6.279   6.726   5.741 -0.9659  0.6964  0.7024
 6967TIP3   OH220864   1.036   3.109   3.107 -0.1946 -0.1228  0.2507
 6967TIP3    H120865   1.010   3.038   3.048  0.7391  0.4163 -0.8547
 6967TIP3    H220866   1.097   3.069   3.168  0.5027 -0.2529 -0.5053
 6968TIP3   OH220867   6.054   5.841   1.197 -0.0540  0.0181 -0.0839
 6968TIP3    H120868   6.068   5.934   1.218  1.7837  0.3528 -2.4459
 6968TIP3    H220869   5.959   5.833   1.190 -0.2840  1.5865  0.6791
 6969TIP3   OH220870   1.443   5.336   4.969  0.0250  0.1454 -0.1344
 6969TIP3    H120871   1.522   5.304   5.012  1.0549  2.2796 -0.3420
 6969TIP3    H220872   1.394   5.381   5.038 -0.6769 -0.5301 -0.1748
 6970TIP3   OH220873   1.294   3.170   0.524  0.2331 -0.4268  0.4298
 6970TIP3    H120874   1.246   3.194   0.444  1.6949  1.4078  0.0275
 6970TIP3    H220875   1.226   3.163   0.591 -1.1027 -2.6489 -1.0487
 6971TIP3   OH220876   6.953   0.555   2.245  0.1396 -0.0630 -0.0583
 6971TIP3    H120877   6.892   0.482   2.238 -0.0509  0.0947 -0.0508
 6971TIP3    H220878   6.900   0.632   2.224  0.6533 -0.0508 -1.4293
 6972TIP3   OH220879   7.122   4.896   3.648 -0.0898  0.4078 -0.1997
 6972TIP3    H120880   7.113   4.801   3.644  0.4962  0.3920 -2.5343
 6972TIP3    H220881   7.058   4.930   3.586  0.3038  1.4904 -0.0490
 6973TIP3   OH220882   2.470   3.415   0.212  0.0357 -0.2339  0.1158
 6973TIP3    H120883   2.477   3.508   0.193  1.0566 -0.2551  0.3191
 6973TIP3    H220884   2.377   3.395   0.200  0.1127  0.3717 -1.9554
 6974TIP3   OH220885   2.616   3.836   5.529 -0.6019 -0.0194  0.0108
 6974TIP3    H120886   2.532   3.800   5.500 -1.3131  0.8813  0.8638
 6974TIP3    H220887   2.599   3.866   5.618  0.5284  0.5255  0.0538
 6975TIP3   OH220888   4.204   1.867   1.416 -0.0943 -0.0550  0.4756
 6975TIP3    H120889   4.125   1.920   1.429 -1.0128 -0.2499 -3.3044
 6975TIP3    H220890   4.238   1.896   1.332  1.6295 -2.7541  0.1556
 6976TIP3   OH220891   4.222   5.299   0.391 -0.1062  0.0978  0.0123
 6976TIP3    H120892   4.151   5.285   0.454  0.3489 -0.3662  0.4336
 6976TIP3    H220893   4.301   5.278   0.440  0.3977  1.4114 -0.2028
 6977TIP3   OH220894   5.996   5.917   5.859 -0.6929 -0.1996 -0.0422
 6977TIP3    H120895   6.027   5.971   5.932 -1.1908 -0.0544  0.0643
 6977TIP3    H220896   6.074   5.902   5.806 -0.4587  0.2510  0.1672
 6978TIP3   OH220897   3.669   6.685   2.992 -0.3079  0.4165  0.2127
 6978TIP3    H120898   3.763   6.685   3.010 -0.4624 -1.4438  1.2147
 6978TIP3    H220899   3.655   6.766   2.942  1.7204  0.9956  0.4691
 6979TIP3   OH220900   0.162   2.989   3.443 -0.2235 -0.2435  0.3509
 6979TIP3    H120901   0.068   2.996   3.424 -0.0912 -0.0245 -0.2311
 6979TIP3    H220902   0.177   3.053   3.513 -0.1628  1.0400 -0.8066
 6980TIP3   OH220903   0.355   0.124   0.462 -0.2257 -0.6272 -0.4608
 6980TIP3    H120904   0.430   0.183   0.458 -0.2500 -0.5587  0.1235
 6980TIP3    H220905   0.380   0.057   0.526 -0.7793 -0.4423 -0.0451
 6981TIP3   OH220906   0.518   2.109   3.230 -0.0988 -0.2027  0.2679
 6981TIP3    H120907   0.519   2.176   3.162 -1.1522 -1.7344 -1.3458
 6981TIP3    H220908   0.449   2.137   3.291 -1.0881 -0.1970 -0.8231
 6982TIP3   OH220909   3.405   5.276   1.202 -0.0961 -0.0757 -0.8111
 6982TIP3    H120910   3.486   5.296   1.249 -1.2731  3.2319  0.1168
 6982TIP3    H220911   3.341   5.255   1.270 -1.0032  1.5664 -1.0854
 6983TIP3   OH220912   0.465   5.780   3.460 -0.2029  0.1911  0.1427
 6983TIP3    H120913   0.441   5.754   3.549  0.5783  0.1274  0.3440
 6983TIP3    H220914   0.523   5.711   3.429 -0.5237  0.1774 -0.4475
 6984TIP3   OH220915   6.438   0.341   1.845  0.5099 -0.2433 -0.5383
 6984TIP3    H120916   6.532   0.354   1.829  0.4879 -0.0010 -0.4797
 6984TIP3    H220917   6.419   0.398   1.920  0.2848 -0.1816 -0.6435
 6985TIP3   OH220918   2.924   3.351   3.495  0.0640  0.0568 -0.2811
 6985TIP3    H120919   2.881   3.431   3.526  0.2134 -0.4205  1.2525
 6985TIP3    H220920   2.864   3.281   3.522 -0.1336 -0.3670 -1.7303
 6986TIP3   OH220921   5.527   2.683   1.278 -0.3075 -0.0422 -0.1115
 6986TIP3    H120922   5.470   2.733   1.337 -0.8022 -1.3724  0.5695
 6986TIP3    H220923   5.594   2.645   1.334  0.8584  0.9103 -0.8156
 6987TIP3   OH220924   6.126   1.619   1.978 -0.0704  0.1903 -0.4145
 6987TIP3    H120925   6.087   1.572   2.052  0.5151  0.3489 -0.0032
 6987TIP3    H220926   6.059   1.616   1.910 -1.3044  1.5053  0.6773
 6988TIP3   OH220927   1.027   3.538   2.971 -0.3520  0.5351 -0.9240
 6988TIP3    H120928   1.095   3.489   2.924  0.7083 -0.1325  1.1564
 6988TIP3    H220929   1.036   3.509   3.062 -3.8884 -0.0786 -0.6340
 6989TIP3   OH220930   6.089   4.419   3.392 -0.2384  0.0713  0.3087
 6989TIP3    H120931   6.031   4.407   3.317  1.1489 -1.1379 -0.6349
 6989TIP3    H220932   6.079   4.511   3.415 -1.8948  0.0935 -0.3173
 6990TIP3   OH220933   2.657   4.271   3.190 -0.4874  0.3710  0.7643
 6990TIP3    H120934   2.714   4.345   3.166 -0.1910 -0.9020 -3.1720
 6990TIP3    H220935   2.715   4.209   3.233 -0.3059  1.5361  2.2764
 6991TIP3   OH220936   2.598   1.792   4.895 -0.2204 -0.2015 -0.4405
 6991TIP3    H120937   2.596   1.761   4.804  1.4587 -1.1002 -0.2172
 6991TIP3    H220938   2.506   1.793   4.922 -0.6489 -1.1319 -1.7575
 6992TIP3   OH220939  -0.005   4.201   3.663 -0.0115  0.3836  0.1455
 6992TIP3    H120940  -0.063   4.174   3.735 -0.3400 -0.0620 -0.2818
 6992TIP3    H220941   0.082   4.203   3.702 -0.1653  0.0082  0.5223
 6993TIP3   OH220942   2.989   0.065   4.486 -0.1581  0.1946  0.1611
 6993TIP3    H120943   2.940  -0.014   4.508 -4.2072  2.6703  1.0383
 6993TIP3    H220944   2.967   0.082   4.394  0.3577  0.5761  0.1037
 6994TIP3   OH220945   6.847   2.731   4.658  0.6141 -0.7371  0.0168
 6994TIP3    H120946   6.787   2.669   4.615  0.8561  0.2051 -1.7908
 6994TIP3    H220947   6.790   2.793   4.703  0.3493 -1.7679  1.1436
 6995TIP3   OH220948   5.844   0.015   0.253  0.0161  0.2608  0.0921
 6995TIP3    H120949   5.830   0.080   0.184  0.5836  0.2074 -0.0815
 6995TIP3    H220950   5.867  -0.065   0.206 -1.9568 -0.4363  0.2458
 6996TIP3   OH220951   5.395   0.430   1.381 -0.0602 -0.1828  0.3048
 6996TIP3    H120952   5.368   0.387   1.300  1.2228 -0.3634 -0.0444
 6996TIP3    H220953   5.362   0.372   1.450 -0.2925 -0.5605 -0.1145
 6997TIP3   OH220954   3.998   1.824   4.132  0.1118 -0.8123 -0.2332
 6997TIP3    H120955   3.980   1.793   4.043  2.3096 -2.1961 -0.2705
 6997TIP3    H220956   3.949   1.906   4.139 -0.4760 -0.8900 -2.5477
 6998TIP3   OH220957   4.511   6.324   2.702  0.5620  0.7017 -0.0499
 6998TIP3    H120958   4.517   6.389   2.632  0.8198  1.1498  0.3772
 6998TIP3    H220959   4.577   6.258   2.680 -1.0199 -0.4800 -1.5332
 6999TIP3   OH220960   5.441   5.902   3.946 -0.1936  0.1230  0.0225
 6999TIP3    H120961   5.438   5.959   3.869 -0.9181  0.4862  0.3057
 6999TIP3    H220962   5.361   5.850   3.940 -0.4515  0.4227  0.7171
 7000TIP3   OH220963   5.859   1.137   3.879  0.2305  0.4984 -0.1524
 7000TIP3    H120964   5.893   1.049   3.864  0.6940  0.5205  0.7300
 7000TIP3    H220965   5.932   1.195   3.857 -0.6389  0.8130 -2.6129
 7001TIP3   OH220966   6.183   0.544   3.719  0.0020  1.0635 -0.5351
 7001TIP3    H120967   6.217   0.493   3.792  0.3271  0.5658 -1.0237
 7001TIP3    H220968   6.112   0.596   3.756  1.0914  1.9104  0.4637
 7002TIP3   OH220969   5.987   5.386   0.027  0.2919  0.3281 -0.2070
 7002TIP3    H120970   6.061   5.446   0.035  0.2284  0.3606  0.2095
 7002TIP3    H220971   5.913   5.435   0.061 -0.4088  1.1054 -2.6956
 7003TIP3   OH220972   5.567   6.309   5.063  0.5769 -0.2978  0.1014
 7003TIP3    H120973   5.545   6.384   5.118 -0.4354 -0.5011  0.0059
 7003TIP3    H220974   5.608   6.246   5.123 -0.9939 -0.7362  0.7850
 7004TIP3   OH220975   4.229   0.407   2.942 -0.1430  0.2634  0.1139
 7004TIP3    H120976   4.160   0.381   2.882  0.0510  0.2415 -0.1007
 7004TIP3    H220977   4.295   0.338   2.935  0.9126  1.3573 -1.3294
 7005TIP3   OH220978   4.368   1.440   0.374 -0.6660 -0.4231  0.1192
 7005TIP3    H120979   4.385   1.351   0.340 -0.0423 -0.6318  0.9619
 7005TIP3    H220980   4.312   1.480   0.307  1.1235 -0.5706 -1.5368
 7006TIP3   OH220981   7.111   4.621   1.487  0.5059  0.3207 -0.2530
 7006TIP3    H120982   7.121   4.567   1.566 -0.1624 -1.6780 -1.4475
 7006TIP3    H220983   7.193   4.608   1.439 -0.0401 -0.4469 -1.0015
 7007TIP3   OH220984   1.319   1.124   0.570 -0.2282 -0.4217 -0.1346
 7007TIP3    H120985   1.291   1.057   0.631  0.2069 -0.5602 -0.0811
 7007TIP3    H220986   1.251   1.191   0.574 -1.0138 -1.1771 -0.7087
 7008TIP3   OH220987   0.553   5.182   1.213 -0.5051  0.2626  0.9555
 7008TIP3    H120988   0.581   5.243   1.144 -0.9262  0.4731  0.9688
 7008TIP3    H220989   0.635   5.145   1.245 -0.1820  1.2843  1.3708
 7009TIP3   OH220990   4.542   2.533   2.977  0.0816 -0.4645  0.9170
 7009TIP3    H120991   4.598   2.520   2.901 -1.3415  2.1127 -0.7211
 7009TIP3    H220992   4.453   2.520   2.945 -0.5540  0.4967  2.1446
 7010TIP3   OH220993   1.401   5.127   3.392  0.2898  0.5111 -0.1827
 7010TIP3    H120994   1.481   5.180   3.396 -0.1831  1.2458 -0.1731
 7010TIP3    H220995   1.387   5.098   3.483  0.0920  1.0872 -0.0234
 7011TIP3   OH220996   3.274   1.837   0.374  0.0147  0.1544  0.3172
 7011TIP3    H120997   3.193   1.795   0.345 -0.3284 -0.4369  2.0114
 7011TIP3    H220998   3.343   1.778   0.347 -0.2785 -0.2613  0.4646
 7012TIP3   OH220999   0.818   6.262   0.858 -0.0018  0.3237 -0.2115
 7012TIP3    H121000   0.782   6.292   0.775 -0.7018  0.8663  0.2820
 7012TIP3    H221001   0.859   6.339   0.897 -2.2218  0.8572  1.2763
 7013TIP3   OH221002   0.603   1.357   1.917 -0.2255  0.3292 -0.0593
 7013TIP3    H121003   0.627   1.301   1.843  2.2823  0.2904  0.7007
 7013TIP3    H221004   0.686   1.376   1.961 -1.5634  0.7547  2.4732
 7014TIP3   OH221005   2.795   2.604   4.387 -0.0463 -0.2962 -0.6978
 7014TIP3    H121006   2.851   2.681   4.398 -0.8608  0.0375  1.8321
 7014TIP3    H221007   2.727   2.632   4.326  0.2945  0.6305 -0.6666
 7015TIP3   OH221008   3.995   2.700   0.436  0.0475  0.3476  0.9548
 7015TIP3    H121009   3.906   2.728   0.414  0.5456 -0.2135 -2.2319
 7015TIP3    H221010   4.030   2.771   0.489 -1.0651  2.4324 -0.9375
 7016TIP3   OH221011   5.710   2.563   3.193 -0.1794  0.3605  0.2775
 7016TIP3    H121012   5.633   2.585   3.141  0.4430  1.0758 -0.3498
 7016TIP3    H221013   5.681   2.490   3.248 -0.8758 -0.3429 -0.9852
 7017TIP3   OH221014   2.022   1.556   2.890  0.3761  0.4550 -0.1774
 7017TIP3    H121015   2.099   1.500   2.902  1.2369  0.8336 -3.0846
 7017TIP3    H221016   1.958   1.500   2.846  0.0157  0.8675 -0.1888
 7018TIP3   OH221017   2.436   3.094   2.632  0.0330 -1.1367 -0.1135
 7018TIP3    H121018   2.432   3.104   2.537 -0.6829 -0.8702 -0.0606
 7018TIP3    H221019   2.463   3.181   2.663 -2.0120 -0.5253  0.0672
 7019TIP3   OH221020   4.484   2.189   4.158 -0.4616 -0.6178 -0.1674
 7019TIP3    H121021   4.567   2.151   4.127 -0.2730  0.2549 -0.7663
 7019TIP3    H221022   4.506   2.227   4.243 -0.4123 -0.9744 -0.0192
 7020TIP3   OH221023   6.118   4.516   2.934 -0.1352 -0.0813  0.1854
 7020TIP3    H121024   6.073   4.573   2.871  2.4164 -0.1056 -1.8398
 7020TIP3    H221025   6.115   4.564   3.017 -0.0833  1.9172 -0.9071
 7021TIP3   OH221026   1.161   2.517   0.467 -0.3400  0.5039  1.1947
 7021TIP3    H121027   1.194   2.587   0.411  0.0943  0.7891  1.7919
 7021TIP3    H221028   1.068   2.539   0.481 -0.4464  0.4311  0.5922
 7022TIP3   OH221029   1.423   0.276   4.403  0.3807 -0.0875 -0.3743
 7022TIP3    H121030   1.435   0.268   4.498  0.4696 -0.5582 -0.4234
 7022TIP3    H221031   1.329   0.280   4.390  0.3797  1.6904 -0.1377
 7023TIP3   OH221032   0.664   1.727   1.456  0.8266 -0.0949 -0.0736
 7023TIP3    H121033   0.729   1.683   1.401 -1.4207 -3.1311 -0.5564
 7023TIP3    H221034   0.687   1.701   1.546  0.7271 -0.5351 -0.1735
 7024TIP3   OH221035   5.864   0.112   1.992 -0.4799 -0.5522 -0.3175
 7024TIP3    H121036   5.823   0.092   2.076 -0.9365  1.1832 -0.0796
 7024TIP3    H221037   5.845   0.037   1.937 -2.0937 -0.7621  0.4743
 7025TIP3   OH221038   6.552   2.728   4.800 -0.9664  0.1785 -0.1215
 7025TIP3    H121039   6.615   2.800   4.800 -1.1696  0.3572 -0.0824
 7025TIP3    H221040   6.485   2.755   4.738 -0.5841 -0.3903 -0.7936
 7026TIP3   OH221041   7.129   6.558   0.212 -0.3978  0.3733 -0.5393
 7026TIP3    H121042   7.128   6.552   0.117 -0.1307  0.4708 -0.5490
 7026TIP3    H221043   7.216   6.592   0.233 -0.5462  0.5858 -0.2727
 7027TIP3   OH221044   1.637   2.682   2.284  0.6179 -0.1353 -0.2426
 7027TIP3    H121045   1.567   2.700   2.346  0.4245 -3.5299  0.7494
 7027TIP3    H221046   1.717   2.711   2.328  0.1821  0.2425  0.3002
 7028TIP3   OH221047   4.518   3.567   0.224 -0.7314 -0.1132 -0.0210
 7028TIP3    H121048   4.506   3.508   0.298  0.5483 -0.0434  0.2649
 7028TIP3    H221049   4.521   3.510   0.147  1.8908 -0.6240  0.3770
 7029TIP3   OH221050   3.220   3.526   4.948  0.5246  0.5885  0.2599
 7029TIP3    H121051   3.129   3.555   4.956  0.7004  1.4077 -0.5824
 7029TIP3    H221052   3.231   3.507   4.855  1.3191  0.8495  0.2960
 7030TIP3   OH221053   4.048   4.366   0.849  0.6220  0.4066 -0.0823
 7030TIP3    H121054   3.995   4.435   0.809  0.8345  0.2462 -0.6586
 7030TIP3    H221055   4.133   4.407   0.865 -0.1925  1.2063  2.5440
 7031TIP3   OH221056   5.251   5.564   2.830  0.5979  0.2959 -0.0412
 7031TIP3    H121057   5.173   5.580   2.882  1.3488  0.5857  1.0178
 7031TIP3    H221058   5.290   5.650   2.817  1.7574 -0.0402  1.0717
 7032TIP3   OH221059   6.473   3.177   2.147 -0.2986 -0.2976 -0.4438
 7032TIP3    H121060   6.562   3.201   2.172 -0.6046  0.2065  0.2014
 7032TIP3    H221061   6.465   3.085   2.171 -0.2864 -0.0673  0.5046
 7033TIP3   OH221062   5.353   3.847   3.208  0.8670  0.3797 -1.1202
 7033TIP3    H121063   5.262   3.874   3.222  1.3437  2.2943 -1.3743
 7033TIP3    H221064   5.351   3.752   3.215 -0.6652  0.5202  1.6141
 7034TIP3   OH221065   6.263   6.141   0.725  0.1676 -0.0730 -0.5729
 7034TIP3    H121066   6.178   6.177   0.699  0.1092  0.2487  0.0337
 7034TIP3    H221067   6.263   6.148   0.821  0.9424  0.0814 -0.5803
 7035TIP3   OH221068   0.325   4.924   3.915  0.4523  0.0222  0.1029
 7035TIP3    H121069   0.249   4.867   3.924  1.1306 -0.9510 -0.1440
 7035TIP3    H221070   0.350   4.945   4.005 -0.3283  0.6602  0.1760
 7036TIP3   OH221071   2.437   3.418   4.538 -0.0238 -0.1552  0.7514
 7036TIP3    H121072   2.362   3.359   4.529 -0.8589  0.7602  1.4737
 7036TIP3    H221073   2.467   3.405   4.628  1.1595 -1.0346  0.2585
 7037TIP3   OH221074   3.156   2.938   5.626  0.0727 -0.3964  0.6005
 7037TIP3    H121075   3.086   2.878   5.652 -2.2308  1.9073  0.2134
 7037TIP3    H221076   3.193   2.900   5.546 -1.3650 -1.2657  0.3206
 7038TIP3   OH221077   1.609   6.320   0.335  0.1098 -0.1457  0.1613
 7038TIP3    H121078   1.655   6.404   0.340  4.1474 -1.9961 -1.4081
 7038TIP3    H221079   1.661   6.261   0.388 -0.0146 -2.5637 -2.1898
 7039TIP3   OH221080   5.415   5.035   5.544  0.2409  0.1051 -0.0385
 7039TIP3    H121081   5.450   5.121   5.564 -0.1239  0.2590 -0.0484
 7039TIP3    H221082   5.440   4.980   5.618 -0.8345  0.5937  0.7184
 7040TIP3   OH221083   4.283   2.917   4.961 -0.5677 -0.3518  0.0232
 7040TIP3    H121084   4.257   2.983   4.898  1.0448 -1.5014 -1.9734
 7040TIP3    H221085   4.373   2.940   4.985 -1.0626 -0.0779  1.7646
 7041TIP3   OH221086   0.696   2.616   3.293  0.5241  0.2209 -0.0001
 7041TIP3    H121087   0.789   2.637   3.299  1.1745 -2.1252 -0.8270
 7041TIP3    H221088   0.670   2.592   3.382  1.0641 -0.3840 -0.0012
 7042TIP3   OH221089   3.225   2.937   4.903  0.5021 -0.5073 -0.4494
 7042TIP3    H121090   3.259   2.855   4.938 -0.4578  0.4587  3.2695
 7042TIP3    H221091   3.292   3.002   4.926 -0.4557  0.2898  0.1794
 7043TIP3   OH221092   4.660   5.844   1.880  0.3353 -0.5709  0.2636
 7043TIP3    H121093   4.725   5.886   1.823  1.5417 -0.2745  1.7986
 7043TIP3    H221094   4.635   5.765   1.832 -0.0744  0.5682 -1.4932
 7044TIP3   OH221095   6.626   0.416   4.600  0.0878 -0.7961 -0.5854
 7044TIP3    H121096   6.693   0.366   4.553  0.5401 -0.9539  0.2003
 7044TIP3    H221097   6.670   0.447   4.679  0.4805  2.6256 -1.9440
 7045TIP3   OH221098   3.340   5.012   4.659  0.4056 -0.1519 -0.3380
 7045TIP3    H121099   3.267   5.041   4.603 -2.1005  0.7445  3.0778
 7045TIP3    H221100   3.308   4.933   4.701  2.7947 -1.6351 -1.1106
 7046TIP3   OH221101   2.562   2.411   1.846 -0.1155  0.2507 -0.0176
 7046TIP3    H121102   2.500   2.411   1.773  1.0936  0.5731 -1.0746
 7046TIP3    H221103   2.576   2.319   1.866 -0.6553  0.1663 -0.0043
 7047TIP3   OH221104   7.009   1.434   3.268 -0.8286 -0.0719 -0.0867
 7047TIP3    H121105   7.042   1.434   3.178 -0.7422  0.1012 -0.0571
 7047TIP3    H221106   6.916   1.455   3.259 -2.0189 -4.5899 -0.5181
 7048TIP3   OH221107   5.370   3.547   5.766 -0.1980 -0.0814  0.0002
 7048TIP3    H121108   5.444   3.538   5.827 -0.6787 -0.0739  0.5993
 7048TIP3    H221109   5.293   3.544   5.822 -0.6529 -0.0106 -0.6120
 7049TIP3   OH221110   0.672   3.691   3.264 -0.1009  0.3338 -0.1460
 7049TIP3    H121111   0.584   3.667   3.235  0.2454 -0.0176 -0.9489
 7049TIP3    H221112   0.725   3.687   3.184  0.5669  0.9127  0.2569
 7050TIP3   OH221113   3.084   0.849   3.869 -0.2131  0.3656  0.2958
 7050TIP3    H121114   3.008   0.894   3.904 -0.2166  1.4074 -0.9791
 7050TIP3    H221115   3.114   0.793   3.940 -2.6268 -0.6697  0.5879
 7051TIP3   OH221116   4.857   4.243   1.806 -0.0506 -0.0594  0.0071
 7051TIP3    H121117   4.861   4.178   1.876  0.9948 -0.1368 -0.1056
 7051TIP3    H221118   4.931   4.301   1.823 -1.0053  1.1570  0.1456
 7052TIP3   OH221119   3.381   3.862   1.554  0.3057 -0.0039  0.6865
 7052TIP3    H121120   3.400   3.878   1.647  1.0236 -0.8961  0.7135
 7052TIP3    H221121   3.304   3.805   1.556  0.0010  0.4033  0.7102
 7053TIP3   OH221122   1.812   4.957   2.067  0.5942 -0.3929 -0.1517
 7053TIP3    H121123   1.884   4.934   2.008 -0.6056 -0.2401 -1.7621
 7053TIP3    H221124   1.797   4.878   2.119  2.0210 -0.3607  0.3469
 7054TIP3   OH221125   2.747   0.553   2.931 -0.1994  0.2091  0.0800
 7054TIP3    H121126   2.697   0.523   3.007  0.8654 -2.1845 -0.0783
 7054TIP3    H221127   2.823   0.495   2.927  1.0012  1.7528 -1.4970
 7055TIP3   OH221128   6.326   1.505   3.419 -0.0633 -0.0145  0.5215
 7055TIP3    H121129   6.243   1.494   3.466 -0.2947 -0.5613 -0.0055
 7055TIP3    H221130   6.321   1.593   3.382  0.6126  0.9080  2.4484
 7056TIP3   OH221131   0.477   2.779   3.744 -0.0559  0.1183 -0.3798
 7056TIP3    H121132   0.514   2.691   3.736 -1.2127 -0.4232 -0.1029
 7056TIP3    H221133   0.449   2.801   3.655 -0.0692  0.0659 -0.3888
 7057TIP3   OH221134   3.352   4.208   2.095  0.1645 -0.4726  0.3380
 7057TIP3    H121135   3.346   4.303   2.100 -2.9110 -0.4951 -0.9217
 7057TIP3    H221136   3.338   4.178   2.184 -0.7653  0.2277  0.4358
 7058TIP3   OH221137   2.781   0.800   2.797  0.2663 -0.1642  0.3768
 7058TIP3    H121138   2.731   0.737   2.849 -0.3342  1.5381  1.9837
 7058TIP3    H221139   2.872   0.772   2.806 -0.0237 -1.0234  0.7104
 7059TIP3   OH221140   3.848   0.879   3.914  0.3395  0.2611  0.1668
 7059TIP3    H121141   3.840   0.973   3.900 -1.5956  0.4907  2.1599
 7059TIP3    H221142   3.842   0.869   4.009 -1.6659 -1.9867 -0.0931
 7060TIP3   OH221143   5.286   6.583   2.439 -0.7207  0.7151 -0.1634
 7060TIP3    H121144   5.315   6.518   2.504  1.2242  0.3252 -1.3598
 7060TIP3    H221145   5.198   6.607   2.468 -1.0554 -1.5916  0.9977
 7061TIP3   OH221146   3.154   1.496   3.164  0.0707  0.3864  0.0458
 7061TIP3    H121147   3.226   1.558   3.167  1.4874 -1.2122  0.4985
 7061TIP3    H221148   3.175   1.438   3.090  1.1357 -2.1944  2.2237
 7062TIP3   OH221149   6.751   6.358   5.074  0.5103 -0.1469  0.3740
 7062TIP3    H121150   6.835   6.370   5.030 -0.2484 -1.8281 -1.6883
 7062TIP3    H221151   6.754   6.420   5.147  2.1835  2.2721 -1.5547
 7063TIP3   OH221152   7.069   0.292   0.563 -0.2797 -0.2466  0.5984
 7063TIP3    H121153   6.994   0.234   0.579 -0.3345 -0.0248  1.1763
 7063TIP3    H221154   7.030   0.379   0.554 -0.0870 -0.1240  0.9450
 7064TIP3   OH221155   3.623   3.780   5.409 -0.0954 -0.4753 -0.0807
 7064TIP3    H121156   3.650   3.723   5.481  0.4356 -1.7362 -1.2406
 7064TIP3    H221157   3.527   3.775   5.409 -0.2746  1.4981  2.0427
 7065TIP3   OH221158   1.749   5.945   1.838 -0.1095  0.0068  0.1450
 7065TIP3    H121159   1.709   6.022   1.798  0.2530  0.6467  0.9747
 7065TIP3    H221160   1.713   5.943   1.927  0.5635 -0.2556  0.4216
 7066TIP3   OH221161   1.948   5.051   4.689  0.6421 -0.5686 -0.1895
 7066TIP3    H121162   1.943   5.118   4.620 -0.9348 -0.8488 -0.3734
 7066TIP3    H221163   1.869   5.064   4.741 -0.1988 -2.8355 -0.7777
 7067TIP3   OH221164   2.274   3.830   3.419  0.3827 -0.3036 -0.3928
 7067TIP3    H121165   2.334   3.901   3.395 -0.5766  0.2773 -1.1558
 7067TIP3    H221166   2.289   3.817   3.512  0.8763  0.6073 -0.3293
 7068TIP3   OH221167   0.069   3.087   5.267 -0.1510  0.0710  0.2420
 7068TIP3    H121168   0.060   3.148   5.194 -0.0057 -0.2941 -0.0851
 7068TIP3    H221169   0.161   3.096   5.294 -0.7228  1.7801  1.7891
 7069TIP3   OH221170   0.523   4.949   5.247 -0.0022 -0.2448 -0.2942
 7069TIP3    H121171   0.473   4.950   5.166 -1.2667 -2.7195  0.3629
 7069TIP3    H221172   0.487   5.021   5.299  0.0377  0.6266 -1.4458
 7070TIP3   OH221173   3.483   1.584   2.670  0.1614  0.3416  0.5000
 7070TIP3    H121174   3.501   1.648   2.739  1.7536 -1.2694  1.6823
 7070TIP3    H221175   3.418   1.525   2.708  0.5987 -0.2073  0.4193
 7071TIP3   OH221176   2.654   6.595   2.052  0.0233 -0.3493  0.5298
 7071TIP3    H121177   2.575   6.544   2.036  0.8678 -0.9039 -2.4705
 7071TIP3    H221178   2.726   6.534   2.032  1.2259  0.4802  2.0721
 7072TIP3   OH221179   5.310   0.335   5.506 -0.0765  0.2561  0.1637
 7072TIP3    H121180   5.300   0.426   5.531 -1.0188  0.1479  0.2192
 7072TIP3    H221181   5.223   0.296   5.519 -0.4110 -0.0262 -2.3223
 7073TIP3   OH221182   0.506   2.014   0.315  0.0436  0.3865 -0.2310
 7073TIP3    H121183   0.592   2.007   0.274 -0.1028  1.3038 -0.7342
 7073TIP3    H221184   0.445   1.980   0.250 -0.0260  0.2828 -0.1107
 7074TIP3   OH221185   5.308   6.486   5.686 -0.3708  0.3839 -0.0641
 7074TIP3    H121186   5.360   6.440   5.752  1.7833  2.9406  0.2160
 7074TIP3    H221187   5.342   6.453   5.602 -0.7872 -0.4607  0.0850
 7075TIP3   OH221188   0.194   1.118   2.697 -0.0577  0.2948 -0.4117
 7075TIP3    H121189   0.201   1.207   2.663  0.6979  0.1580 -0.6301
 7075TIP3    H221190   0.108   1.115   2.741 -0.4069  0.9007 -1.0402
 7076TIP3   OH221191   3.020   1.543   5.045 -0.1605  0.1821 -0.4693
 7076TIP3    H121192   2.984   1.629   5.025  0.1673  0.6476  0.8571
 7076TIP3    H221193   3.049   1.509   4.960 -1.4473  0.8265 -1.1888
 7077TIP3   OH221194   4.290   1.489   4.296 -0.0308  0.5846  0.4275
 7077TIP3    H121195   4.268   1.522   4.209 -2.8772 -1.1524  0.3703
 7077TIP3    H221196   4.217   1.518   4.352  0.2587 -0.7662  1.5672
 7078TIP3   OH221197   7.089   1.760   3.461 -0.4655 -0.2140  0.0299
 7078TIP3    H121198   7.169   1.738   3.414 -0.7498 -0.3612 -0.3929
 7078TIP3    H221199   7.095   1.712   3.544  0.3050  0.4974  0.3950
 7079TIP3   OH221200   5.904   6.556   4.761  0.0355  0.7287  0.4560
 7079TIP3    H121201   5.865   6.491   4.818 -1.4750  0.9784 -0.2558
 7079TIP3    H221202   5.923   6.631   4.818  0.3401  0.2675  0.9704
 7080TIP3   OH221203   4.548   6.203   0.120 -0.0464 -0.6420 -0.0841
 7080TIP3    H121204   4.510   6.266   0.181  0.3894 -1.4671  1.0593
 7080TIP3    H221205   4.526   6.238   0.033  0.1765  1.0708  0.5098
 7081TIP3   OH221206   7.028   5.033   3.299  0.1741 -0.0909  0.0415
 7081TIP3    H121207   7.118   5.066   3.295  0.5234 -1.0986 -0.8636
 7081TIP3    H221208   6.976   5.097   3.250  0.2236  0.9720  1.3221
 7082TIP3   OH221209   0.704   5.693   4.890 -0.2014  0.0595  0.1968
 7082TIP3    H121210   0.711   5.618   4.830  1.0387 -0.6324  1.1604
 7082TIP3    H221211   0.637   5.667   4.953 -0.3581  0.1094  0.0510
 7083TIP3   OH221212   4.106   0.325   1.397  0.1218 -0.0838 -0.1710
 7083TIP3    H121213   4.128   0.252   1.454 -1.2803 -0.9210 -0.6573
 7083TIP3    H221214   4.021   0.356   1.429  0.4881  1.0473 -0.2564
 7084TIP3   OH221215   5.910   0.859   2.695 -0.5605 -0.8826  1.0330
 7084TIP3    H121216   5.906   0.784   2.755 -0.1327 -1.9821 -0.2747
 7084TIP3    H221217   5.911   0.820   2.608  1.8181  0.5207  0.3451
 7085TIP3   OH221218   2.204   5.102   1.486 -0.0552 -0.2210 -0.2326
 7085TIP3    H121219   2.138   5.052   1.535 -0.8117  2.9781  2.4502
 7085TIP3    H221220   2.281   5.101   1.543  1.1570 -1.2449 -1.8352
 7086TIP3   OH221221   5.279   2.510   5.123 -0.0896 -0.3181  0.3707
 7086TIP3    H121222   5.327   2.519   5.040 -0.5449 -0.3441  0.1036
 7086TIP3    H221223   5.279   2.598   5.160 -1.3153  0.0505 -0.4521
 7087TIP3   OH221224   1.065   3.965   2.064 -0.2715  0.0503 -0.2341
 7087TIP3    H121225   0.976   3.930   2.066 -0.5394  0.6526 -1.1443
 7087TIP3    H221226   1.105   3.925   1.986  0.7063 -1.2263  0.8592
 7088TIP3   OH221227   5.768   1.390   0.436 -0.1966  0.5718 -0.4290
 7088TIP3    H121228   5.710   1.321   0.403 -1.1235  0.3215  1.5695
 7088TIP3    H221229   5.714   1.469   0.435 -0.0054  0.7053 -0.2037
 7089TIP3   OH221230   3.711   2.330   1.833 -0.0583  0.3573 -0.2541
 7089TIP3    H121231   3.632   2.332   1.780 -1.4599 -0.2359  1.7189
 7089TIP3    H221232   3.719   2.419   1.868  0.6252  0.6324 -1.0701
 7090TIP3   OH221233   5.191   2.936   4.112  0.2309  0.0598 -0.3905
 7090TIP3    H121234   5.189   2.875   4.185 -0.3649  0.7331  0.1734
 7090TIP3    H221235   5.130   2.900   4.048 -0.9144  0.5718  0.3768
 7091TIP3   OH221236   2.905   3.638   3.626  0.0202  0.7704  0.2890
 7091TIP3    H121237   2.971   3.689   3.579  1.4235  0.2198  1.6045
 7091TIP3    H221238   2.867   3.700   3.689 -0.5064  0.9995 -0.2452
 7092TIP3   OH221239   4.049   4.652   2.676  0.4051 -0.0554  0.0435
 7092TIP3    H121240   3.968   4.603   2.695  1.2378 -1.2819  0.5884
 7092TIP3    H221241   4.102   4.591   2.624  1.2659  0.4586  0.3023
 7093TIP3   OH221242   6.363   2.806   4.635 -0.1836  0.6404 -0.3437
 7093TIP3    H121243   6.320   2.874   4.687 -1.9009 -1.2130  0.8106
 7093TIP3    H221244   6.305   2.793   4.560  1.0642  1.6339 -1.5321
 7094TIP3   OH221245   5.506   3.254   3.718 -0.0128  1.0272 -0.0975
 7094TIP3    H121246   5.480   3.247   3.626  1.2182  1.8307 -0.5317
 7094TIP3    H221247   5.554   3.173   3.735 -2.3640 -0.3215  0.6210
 7095TIP3   OH221248   3.750   4.767   4.244  0.1439  0.0028 -0.3062
 7095TIP3    H121249   3.795   4.703   4.190 -1.2965  1.4720 -3.5366
 7095TIP3    H221250   3.675   4.719   4.280 -0.2080 -0.4716 -1.6234
 7096TIP3   OH221251   4.786   0.757   2.995 -0.2647  0.0376 -0.3494
 7096TIP3    H121252   4.795   0.678   2.942  1.8108 -0.6217  0.8342
 7096TIP3    H221253   4.733   0.816   2.943 -0.2002 -1.4122 -2.1376
 7097TIP3   OH221254   4.975   2.973   4.722  0.6476 -0.0413  0.3094
 7097TIP3    H121255   4.910   2.906   4.700  0.1632  0.4309  0.3101
 7097TIP3    H221256   5.029   2.932   4.790 -0.2708 -0.0595  1.0402
 7098TIP3   OH221257   5.926   5.382   0.881 -0.2482  0.7140  0.1505
 7098TIP3    H121258   5.840   5.419   0.862  0.4499  3.3126  1.4923
 7098TIP3    H221259   5.920   5.352   0.972 -0.0313 -0.1113 -0.1008
 7099TIP3   OH221260   0.612   2.688   4.354  0.1449  0.1914 -0.3299
 7099TIP3    H121261   0.622   2.768   4.302 -2.1642  0.0300 -1.1149
 7099TIP3    H221262   0.635   2.618   4.293 -2.0483  0.0379 -1.0738
 7100TIP3   OH221263   3.656   0.039   0.376 -0.3771  0.4845 -0.4680
 7100TIP3    H121264   3.591   0.047   0.446 -1.9378  0.2570 -1.8302
 7100TIP3    H221265   3.607   0.005   0.301  1.5348 -0.6270 -1.2876
 7101TIP3   OH221266   5.879   3.831   0.075 -0.3043  0.2609  0.2312
 7101TIP3    H121267   5.859   3.924   0.067 -1.0860  0.1240  0.5366
 7101TIP3    H221268   5.847   3.792  -0.007  1.6515  0.5098 -0.7117
 7102TIP3   OH221269   5.079   2.584   0.865 -0.1857  0.1402 -0.4323
 7102TIP3    H121270   5.011   2.650   0.858 -1.3037 -1.0338 -0.9522
 7102TIP3    H221271   5.091   2.552   0.776 -0.5494 -1.2113 -0.0220
 7103TIP3   OH221272   5.858   5.886   1.876  0.7007  0.7937 -0.0264
 7103TIP3    H121273   5.932   5.937   1.844  0.3315  1.3512 -0.0126
 7103TIP3    H221274   5.895   5.830   1.945  0.9330  1.8058  0.7005
 7104TIP3   OH221275   3.902   2.612   3.077  0.0199  1.1492  0.2399
 7104TIP3    H121276   3.926   2.586   3.166 -3.2932  0.5589  1.1010
 7104TIP3    H221277   3.873   2.703   3.086 -2.0487  0.5334  0.2067
 7105TIP3   OH221278   2.831   0.260   4.645  0.0538 -0.0094  0.0432
 7105TIP3    H121279   2.893   0.217   4.587 -1.2838 -0.9839 -0.7053
 7105TIP3    H221280   2.880   0.274   4.726  1.8599  1.1064 -1.1746
 7106TIP3   OH221281   3.012   3.834   3.464 -0.3938  0.2730 -0.6004
 7106TIP3    H121282   2.947   3.827   3.395 -1.3415 -1.2284  0.3883
 7106TIP3    H221283   2.973   3.893   3.528  0.3471  1.4088 -1.1562
 7107TIP3   OH221284   2.433   0.483   1.368 -0.2024 -0.2039 -0.2685
 7107TIP3    H121285   2.374   0.409   1.351  0.2745 -1.0951  1.7658
 7107TIP3    H221286   2.515   0.443   1.397  0.4221  1.1073 -0.1439
 7108TIP3   OH221287   4.517   4.769   0.342 -0.1961  0.1734  0.1968
 7108TIP3    H121288   4.461   4.771   0.420 -0.2512  0.9417  0.1372
 7108TIP3    H221289   4.531   4.860   0.319  1.0517  0.0067  0.1861
 7109TIP3   OH221290   5.052   2.116   5.270 -0.1658  0.1182 -1.1689
 7109TIP3    H121291   5.064   2.204   5.232  0.6014 -0.0188 -1.2568
 7109TIP3    H221292   5.112   2.113   5.344 -0.7517 -0.0680 -0.6884
 7110TIP3   OH221293   5.987   3.347   3.245 -0.3148  0.5250  0.0019
 7110TIP3    H121294   5.960   3.336   3.336  0.4448  2.0436  0.4370
 7110TIP3    H221295   5.936   3.281   3.197 -2.5091  1.2456  1.1959
 7111TIP3   OH221296   5.259   5.880   5.502 -0.1269 -0.6873 -0.1025
 7111TIP3    H121297   5.186   5.840   5.455 -0.2895 -1.5071  0.8238
 7111TIP3    H221298   5.237   5.973   5.508 -1.1718 -0.9581  0.3234
 7112TIP3   OH221299   1.950   2.033   0.993  0.7469  0.3067 -0.5682
 7112TIP3    H121300   2.029   2.036   1.048 -0.1824 -0.3908  0.8749
 7112TIP3    H221301   1.929   1.939   0.987 -0.8725  0.5569  0.4857
 7113TIP3   OH221302   0.239   5.925   5.589  0.7263  0.1810  0.5005
 7113TIP3    H121303   0.245   6.019   5.603 -2.7751  1.1228 -2.7611
 7113TIP3    H221304   0.192   5.893   5.666  0.6767  1.3348  0.9712
 7114TIP3   OH221305   0.228   4.913   2.497  0.0969 -0.2576  0.3362
 7114TIP3    H121306   0.167   4.895   2.569 -0.4245  0.9758  0.2337
 7114TIP3    H221307   0.209   4.846   2.432 -2.3501  1.0363 -0.4005
 7115TIP3   OH221308   4.611   5.472   5.511 -0.1943  0.5501 -0.0816
 7115TIP3    H121309   4.640   5.540   5.572 -2.0056  0.3318  1.1028
 7115TIP3    H221310   4.599   5.395   5.566  2.6241 -1.0690 -1.5121
 7116TIP3   OH221311   0.135   5.202   3.535  0.0865  0.4093 -0.1723
 7116TIP3    H121312   0.156   5.199   3.629  0.4146 -2.2752 -0.2599
 7116TIP3    H221313   0.042   5.228   3.533 -0.5109 -1.4115  1.0666
 7117TIP3   OH221314   0.475   5.906   1.017 -0.3323 -0.2318  0.4597
 7117TIP3    H121315   0.392   5.863   0.996  1.1501 -2.0046 -2.4838
 7117TIP3    H221316   0.476   5.984   0.962 -0.6602  0.6985  1.7157
 7118TIP3   OH221317   1.422   6.586   3.293 -0.2353  0.0229  0.0928
 7118TIP3    H121318   1.421   6.491   3.280 -2.4172  0.0453 -0.1939
 7118TIP3    H221319   1.488   6.600   3.361  0.1480 -1.6783  0.1248
 7119TIP3   OH221320   0.907   4.835   2.311 -0.8215  0.0132 -0.4798
 7119TIP3    H121321   0.836   4.874   2.362 -0.3205 -0.8578  0.9602
 7119TIP3    H221322   0.865   4.805   2.231 -1.9050  0.3246 -0.0479
 7120TIP3   OH221323   0.187   0.098   1.631 -0.1168  0.2459  0.2477
 7120TIP3    H121324   0.127   0.134   1.566  0.5242 -0.8583 -1.0080
 7120TIP3    H221325   0.222   0.175   1.676 -0.9607  1.0118 -0.3654
 7121TIP3   OH221326   4.634   4.734   2.061 -0.5656  0.0038  0.3617
 7121TIP3    H121327   4.581   4.663   2.026 -0.6815  0.5412 -0.5992
 7121TIP3    H221328   4.637   4.799   1.990  3.0871 -0.8619 -0.5094
 7122TIP3   OH221329   5.510   3.859   0.996 -0.0629  0.5658  0.3706
 7122TIP3    H121330   5.419   3.868   0.969 -0.1553  0.0500  0.4886
 7122TIP3    H221331   5.531   3.942   1.037 -0.0105  1.2566 -1.0026
 7123TIP3   OH221332   2.191   0.587   5.331  0.4873  0.0976 -0.1143
 7123TIP3    H121333   2.123   0.615   5.270 -0.7214 -1.3645  0.5152
 7123TIP3    H221334   2.222   0.504   5.296  1.2176  0.2441  0.1743
 7124TIP3   OH221335   4.306   0.765   4.885  0.0206 -0.3115 -0.5142
 7124TIP3    H121336   4.285   0.705   4.957  1.6141 -1.5123 -1.0009
 7124TIP3    H221337   4.367   0.716   4.830 -2.2068  0.0315 -3.4905
 7125TIP3   OH221338   3.823   2.052   0.631 -0.1835  0.1480 -0.0545
 7125TIP3    H121339   3.861   1.966   0.644 -0.9158 -0.2588 -0.5533
 7125TIP3    H221340   3.762   2.041   0.558  0.4049  1.2976 -0.7384
 7126TIP3   OH221341   5.907   6.462   3.226  0.1870 -0.2465  0.2996
 7126TIP3    H121342   5.954   6.415   3.157 -0.2132 -0.7440  0.3566
 7126TIP3    H221343   5.870   6.538   3.183  1.7069  0.5971  0.4209
 7127TIP3   OH221344   2.259   6.667   4.743 -0.0388 -0.1396 -0.4657
 7127TIP3    H121345   2.209   6.746   4.721  0.4128 -0.2382 -1.9915
 7127TIP3    H221346   2.315   6.652   4.666  0.3203 -1.6025  0.0477
 7128TIP3   OH221347   0.539   1.016   1.135 -0.4106 -0.1461  0.5107
 7128TIP3    H121348   0.485   1.031   1.058  0.4222  0.0653 -0.0362
 7128TIP3    H221349   0.601   0.948   1.109  0.3115  0.4002  0.7725
 7129TIP3   OH221350   5.343   5.773   5.024 -0.6147 -0.1859 -0.3081
 7129TIP3    H121351   5.409   5.841   5.038 -2.8481  2.0240  0.2724
 7129TIP3    H221352   5.394   5.693   5.010  2.1632  0.9011  2.3161
 7130TIP3   OH221353   5.189   0.198   1.440  0.2980 -0.0032  0.5875
 7130TIP3    H121354   5.165   0.117   1.394  2.1259 -0.4207  0.2971
 7130TIP3    H221355   5.116   0.257   1.424  0.6834 -0.2257 -2.6215
 7131TIP3   OH221356   1.445   3.054   1.236 -0.0831 -0.1643  0.3984
 7131TIP3    H121357   1.424   3.119   1.170  2.3088  2.5150  2.0492
 7131TIP3    H221358   1.539   3.039   1.227 -0.1369 -1.6033  1.6367
 7132TIP3   OH221359   0.698   6.094   3.445  0.4048  0.3007  0.3723
 7132TIP3    H121360   0.612   6.116   3.409 -0.1370 -0.6292  1.0666
 7132TIP3    H221361   0.680   6.028   3.512  1.6972 -0.1319  0.3151
 7133TIP3   OH221362   0.654   4.025   2.994  0.2766  0.3953  0.4740
 7133TIP3    H121363   0.589   3.955   2.994  1.0805 -0.3654  0.5660
 7133TIP3    H221364   0.680   4.033   3.086  1.1581 -0.1099  0.2728
 7134TIP3   OH221365   4.224   2.058   0.869  0.5692 -0.5073 -0.2337
 7134TIP3    H121366   4.267   2.009   0.799  1.9437  0.7738 -0.3553
 7134TIP3    H221367   4.285   2.129   0.889 -0.0735 -0.4774  1.8491
 7135TIP3   OH221368   1.220   1.481   4.696  0.1358  0.0084  0.2329
 7135TIP3    H121369   1.283   1.420   4.733  1.1688  0.7153 -0.3298
 7135TIP3    H221370   1.135   1.444   4.720  0.7348 -1.5009  0.1461
 7136TIP3   OH221371   3.748   2.807   0.441  0.4230 -0.4440  0.2778
 7136TIP3    H121372   3.708   2.892   0.458 -0.5929 -0.9084  0.3468
 7136TIP3    H221373   3.730   2.756   0.520 -1.5721 -1.6216 -0.8478
 7137TIP3   OH221374   1.537   4.297   1.106 -0.0472 -0.0445  0.3084
 7137TIP3    H121375   1.470   4.242   1.063 -0.3157  0.1471  0.4774
 7137TIP3    H221376   1.511   4.387   1.085 -0.6557  0.0870  1.5440
 7138TIP3   OH221377   4.303   0.256   1.631 -0.0915  0.2673 -0.1725
 7138TIP3    H121378   4.267   0.318   1.693 -0.4432  1.2915 -1.3609
 7138TIP3    H221379   4.297   0.171   1.675 -3.6000  0.3942 -0.0935
 7139TIP3   OH221380   0.799   2.370   4.404 -0.0409  0.1593 -0.3319
 7139TIP3    H121381   0.847   2.288   4.390  0.5207  0.6307 -1.2413
 7139TIP3    H221382   0.766   2.393   4.318 -0.5924  0.6560  0.0063
 7140TIP3   OH221383   5.894   3.083   2.773 -0.1794  0.4425  0.0889
 7140TIP3    H121384   5.816   3.134   2.752 -0.0180  1.8787  2.5471
 7140TIP3    H221385   5.966   3.145   2.764  0.4087 -0.2428  0.0062
 7141TIP3   OH221386   2.783   6.495   0.409  0.4212  0.3546  0.0500
 7141TIP3    H121387   2.761   6.459   0.323  0.6917  0.0168  0.1162
 7141TIP3    H221388   2.776   6.420   0.469  3.3190 -0.2231 -0.1763
 7142TIP3   OH221389   4.109   3.176   1.058  0.0661 -0.3130  0.5916
 7142TIP3    H121390   4.034   3.158   1.115 -2.0861  0.3447 -1.8618
 7142TIP3    H221391   4.133   3.267   1.078 -1.2493  0.2113 -0.1174
 7143TIP3   OH221392   3.206   1.096   4.687  0.1330  0.0903 -0.7079
 7143TIP3    H121393   3.138   1.054   4.633 -1.7415  0.8331  0.9446
 7143TIP3    H221394   3.237   1.169   4.634 -1.4212  0.6084 -0.9592
 7144TIP3   OH221395   3.683   4.783   0.039  0.7491  0.3152 -0.0319
 7144TIP3    H121396   3.647   4.708   0.086  1.1035  1.2217  1.7606
 7144TIP3    H221397   3.746   4.744  -0.022  0.0235 -0.9168 -0.0417
 7145TIP3   OH221398   5.816   2.472   2.739 -0.1382  0.2700 -0.7266
 7145TIP3    H121399   5.823   2.559   2.700  2.0275  0.1411 -0.7500
 7145TIP3    H221400   5.878   2.419   2.688 -0.3167 -0.9123  0.2538
 7146TIP3   OH221401   5.930   3.114   5.627 -0.0067  0.7619  0.6789
 7146TIP3    H121402   5.879   3.033   5.632  2.6955 -1.0214  1.6024
 7146TIP3    H221403   5.952   3.123   5.534  0.5489 -0.1856  0.7079
 7147TIP3   OH221404   5.344   0.798   5.274 -0.1119 -0.2393  0.0224
 7147TIP3    H121405   5.348   0.703   5.258 -0.4004 -0.2038 -0.2834
 7147TIP3    H221406   5.431   0.829   5.250 -0.4206 -0.2431 -1.1901
 7148TIP3   OH221407   3.899   1.083   0.275 -0.1151 -0.0498  0.6418
 7148TIP3    H121408   3.823   1.088   0.217 -0.9155 -1.7124  1.5002
 7148TIP3    H221409   3.925   1.174   0.287 -1.7468  0.5402  0.0363
 7149TIP3   OH221410   3.886   2.118   1.901  0.0421 -0.1217 -0.5184
 7149TIP3    H121411   3.912   2.163   1.981  0.3079  0.3801 -0.8850
 7149TIP3    H221412   3.860   2.188   1.841  0.6128 -0.4346 -1.1492
 7150TIP3   OH221413   0.291   1.279   4.197 -0.0288 -0.3412  0.4595
 7150TIP3    H121414   0.364   1.341   4.191  0.5300 -1.0231  0.0477
 7150TIP3    H221415   0.298   1.225   4.118 -0.7321 -0.6847  0.6197
 7151TIP3   OH221416   0.743   1.387   0.489  0.3152  0.1165 -0.4437
 7151TIP3    H121417   0.750   1.296   0.518 -0.7743 -0.3110 -1.4539
 7151TIP3    H221418   0.686   1.428   0.555 -2.0042 -0.8077 -1.7470
 7152TIP3   OH221419   2.031   5.673   1.352  0.4499 -0.4045 -0.0678
 7152TIP3    H121420   2.014   5.761   1.386  0.3160 -0.1810 -0.6916
 7152TIP3    H221421   2.118   5.679   1.313  0.2921 -0.4521 -0.4273
 7153TIP3   OH221422   2.728   0.604   5.194 -0.0456  1.0243  0.3623
 7153TIP3    H121423   2.657   0.607   5.258 -0.6204  0.6690 -0.2616
 7153TIP3    H221424   2.686   0.613   5.109  0.4349 -1.0784 -0.1578
 7154TIP3   OH221425   6.732   3.557   2.075  0.0808 -0.6050  0.0980
 7154TIP3    H121426   6.710   3.464   2.076 -0.7207 -0.4875 -1.9049
 7154TIP3    H221427   6.824   3.560   2.046  0.2430 -0.7789  0.5901
 7155TIP3   OH221428   0.463   5.285   0.718  0.3572  0.3037  0.1226
 7155TIP3    H121429   0.502   5.270   0.632 -2.7085  0.6668 -1.4944
 7155TIP3    H221430   0.392   5.221   0.723 -1.4899  2.2856  0.9625
 7156TIP3   OH221431   5.801   4.541   0.868  0.5652  0.3326 -0.1999
 7156TIP3    H121432   5.881   4.593   0.869 -0.5778  2.1522  0.2702
 7156TIP3    H221433   5.766   4.547   0.957  0.6855 -1.7956  0.0619
 7157TIP3   OH221434   3.876   6.488   4.225 -0.3516 -0.3874 -0.0070
 7157TIP3    H121435   3.817   6.491   4.150 -0.9261 -2.7084  0.2923
 7157TIP3    H221436   3.818   6.496   4.302 -0.0197 -0.4150  0.2480
 7158TIP3   OH221437   4.825   0.238   4.715  0.2341 -0.4098 -0.2962
 7158TIP3    H121438   4.897   0.199   4.766  2.3890 -0.0699 -2.8581
 7158TIP3    H221439   4.840   0.332   4.723 -0.4769 -0.3084 -0.1499
 7159TIP3   OH221440   5.430   5.272   1.222 -0.3522 -0.0786  0.1867
 7159TIP3    H121441   5.489   5.346   1.212 -2.0224  1.4746  1.2836
 7159TIP3    H221442   5.447   5.239   1.310 -2.1797  1.4537  1.1945
 7160TIP3   OH221443   6.884   4.908   4.964 -0.0048  0.4026  0.5503
 7160TIP3    H121444   6.829   4.968   4.913 -0.6712  0.3309  1.1712
 7160TIP3    H221445   6.822   4.852   5.011  0.6061 -0.1561  0.7122
 7161TIP3   OH221446   1.362   3.860   2.389 -0.1229 -0.0443  0.0012
 7161TIP3    H121447   1.453   3.889   2.382 -0.0968  0.2309  1.2459
 7161TIP3    H221448   1.363   3.795   2.460 -0.8522 -0.2130 -0.1407
 7162TIP3   OH221449   0.257   2.939   2.236  0.5825 -0.1216  0.1091
 7162TIP3    H121450   0.342   2.979   2.217  1.0489 -1.0781  0.1091
 7162TIP3    H221451   0.209   2.946   2.154  1.6895 -2.0097 -0.7951
 7163TIP3   OH221452   4.807   2.281   2.597 -0.3006  0.6261 -0.0202
 7163TIP3    H121453   4.725   2.313   2.558  1.0875  3.6472 -0.7815
 7163TIP3    H221454   4.807   2.318   2.686 -0.7047 -1.2275  0.7987
 7164TIP3   OH221455   5.335   5.002   2.901  0.1834 -0.1653 -0.1991
 7164TIP3    H121456   5.308   4.982   2.990  0.6133  0.2081  0.0183
 7164TIP3    H221457   5.291   5.084   2.880 -1.5622 -1.2429 -1.0845
 7165TIP3   OH221458   1.768   3.849   2.471  0.1294 -0.5534  0.1077
 7165TIP3    H121459   1.698   3.897   2.516 -0.4267 -1.3786  0.1457
 7165TIP3    H221460   1.815   3.916   2.421  0.3950  0.2970  1.4292
 7166TIP3   OH221461   6.489   5.705   1.406 -0.2381 -0.0810 -0.6181
 7166TIP3    H121462   6.551   5.687   1.476  1.6663 -2.5972 -2.7587
 7166TIP3    H221463   6.541   5.745   1.337 -1.9991  2.0041 -0.8484
 7167TIP3   OH221464   4.924   1.177   0.120  0.0684 -0.2092  0.2139
 7167TIP3    H121465   4.934   1.152   0.028  1.4613  0.4571  0.1489
 7167TIP3    H221466   4.956   1.267   0.124  0.9773 -0.5584  1.5109
 7168TIP3   OH221467   4.750   5.454   1.419 -0.4631 -0.3889 -0.4217
 7168TIP3    H121468   4.677   5.399   1.448  0.5611 -0.6696  1.8157
 7168TIP3    H221469   4.808   5.394   1.372 -0.7735 -0.5689 -0.5782
 7169TIP3   OH221470   5.903   6.091   1.377  0.0094  0.0142 -0.1191
 7169TIP3    H121471   5.995   6.106   1.357 -0.0406  0.8456  0.2254
 7169TIP3    H221472   5.888   6.140   1.458 -0.5201 -0.8312  0.3101
 7170TIP3   OH221473   5.206   1.528   5.106  0.3978 -0.2933  0.6087
 7170TIP3    H121474   5.131   1.473   5.128  0.6534 -0.9281 -0.0576
 7170TIP3    H221475   5.213   1.589   5.179 -1.5688  0.6447  0.0805
 7171TIP3   OH221476   3.860   0.307   3.390  0.5167  0.6170  0.0932
 7171TIP3    H121477   3.954   0.305   3.411  0.2793 -1.8973  1.3069
 7171TIP3    H221478   3.822   0.238   3.445 -1.6095 -0.3619 -2.4000
 7172TIP3   OH221479   3.968   5.098   1.199  0.1501  0.1845 -0.5528
 7172TIP3    H121480   3.954   5.164   1.266 -3.3757  1.1821 -2.0353
 7172TIP3    H221481   4.006   5.146   1.126 -0.6408  0.2192 -0.9568
 7173TIP3   OH221482   1.345   5.720   1.012 -0.0757 -0.0502  0.4686
 7173TIP3    H121483   1.347   5.796   0.955  1.7815 -0.8275 -0.5874
 7173TIP3    H221484   1.432   5.717   1.052  0.2598 -2.1454 -0.2805
 7174TIP3   OH221485   0.585   5.369   4.406 -0.4161  0.7659 -0.0470
 7174TIP3    H121486   0.491   5.383   4.393 -0.4914  1.1083  0.7843
 7174TIP3    H221487   0.621   5.362   4.318 -1.0488  1.7996 -0.4029
 7175TIP3   OH221488   4.983   1.315   5.439 -0.7743 -0.0528 -0.5347
 7175TIP3    H121489   4.937   1.329   5.356 -0.1128  0.7523 -0.7816
 7175TIP3    H221490   4.939   1.374   5.501 -0.5493  0.1764 -0.5918
 7176TIP3   OH221491   2.936   0.765   5.145 -0.2747  0.4066  1.0109
 7176TIP3    H121492   2.853   0.718   5.157 -0.1935  0.4459  1.7540
 7176TIP3    H221493   2.911   0.844   5.096 -0.6120  0.2219  0.8788
 7177TIP3   OH221494   1.979   4.884   2.775 -0.3590 -0.1562 -0.3019
 7177TIP3    H121495   2.066   4.882   2.815 -0.7408  1.1131  0.6530
 7177TIP3    H221496   1.994   4.861   2.683  0.7192 -1.7584  0.2265
 7178TIP3   OH221497   4.535   1.356   4.245 -0.3791 -0.1242 -0.1678
 7178TIP3    H121498   4.455   1.405   4.262 -0.1632 -0.3455  1.6268
 7178TIP3    H221499   4.590   1.416   4.195  0.1548  1.7888  2.5130
 7179TIP3   OH221500   6.404   3.982   2.858 -0.2688 -0.2366  0.1171
 7179TIP3    H121501   6.477   3.991   2.919  0.3823 -2.4369 -0.2391
 7179TIP3    H221502   6.333   4.032   2.897  1.2204  1.4845  0.7783
 7180TIP3   OH221503   4.478   6.288   2.174 -0.1029  0.4187  0.1827
 7180TIP3    H121504   4.455   6.379   2.192  2.0605  0.9060  0.7471
 7180TIP3    H221505   4.522   6.291   2.089  0.6428  0.0201  0.5495
 7181TIP3   OH221506   6.968   1.624   0.740 -0.0570  0.4529 -0.7131
 7181TIP3    H121507   7.047   1.572   0.725 -0.1578  0.0933 -0.0301
 7181TIP3    H221508   6.904   1.562   0.774 -0.4441  0.8556 -0.6976
 7182TIP3   OH221509   5.553   1.564   5.626 -0.0943  0.2277 -0.2338
 7182TIP3    H121510   5.562   1.477   5.665 -0.0353  0.7887  1.0532
 7182TIP3    H221511   5.490   1.552   5.555  0.4126 -0.9877 -0.5097
 7183TIP3   OH221512   7.104   5.903   1.166  0.4312 -0.0863  0.3366
 7183TIP3    H121513   7.029   5.963   1.165 -0.6729 -1.4130  0.8134
 7183TIP3    H221514   7.111   5.876   1.257  2.6589  1.3821  0.6733
 7184TIP3   OH221515   1.616   2.739   3.522 -0.0058 -0.4868  0.0946
 7184TIP3    H121516   1.539   2.717   3.470  0.9688 -0.2597 -1.5135
 7184TIP3    H221517   1.591   2.818   3.570 -0.4366  0.2389 -1.2571
 7185TIP3   OH221518   6.015   0.868   0.262 -0.2109  0.2697 -0.2777
 7185TIP3    H121519   6.090   0.923   0.285 -0.4629 -0.2307  1.9605
 7185TIP3    H221520   5.981   0.906   0.181  1.7880  1.1682 -0.7467
 7186TIP3   OH221521   0.899   0.075   0.759 -0.0905  0.0899  0.4197
 7186TIP3    H121522   0.901   0.170   0.761 -1.6713  0.2808 -2.2281
 7186TIP3    H221523   0.806   0.053   0.764  0.2070 -1.2959  0.2904
 7187TIP3   OH221524   6.513   0.135   1.565  0.0895  0.3378 -0.0758
 7187TIP3    H121525   6.443   0.161   1.505 -0.4048 -0.5004  0.1131
 7187TIP3    H221526   6.477   0.059   1.611  0.5281  0.8433  1.1520
 7188TIP3   OH221527   2.194   3.900   2.885  0.6211  0.3994  0.4618
 7188TIP3    H121528   2.145   3.954   2.947 -0.7049 -1.1036  0.7934
 7188TIP3    H221529   2.139   3.822   2.873  1.5799 -0.0408 -1.4206
 7189TIP3   OH221530   5.388   2.144   3.169  0.2480 -0.1346  0.0145
 7189TIP3    H121531   5.428   2.058   3.184  0.4597  0.2215  1.7454
 7189TIP3    H221532   5.457   2.195   3.127  1.4113  0.1985  2.1514
 7190TIP3   OH221533   0.621   4.561   3.946 -0.3232  0.4647 -0.1505
 7190TIP3    H121534   0.691   4.625   3.930  2.4428 -2.1313  0.7228
 7190TIP3    H221535   0.653   4.479   3.909 -1.6809 -1.4713  2.5829
 7191TIP3   OH221536   1.232   0.536   3.274 -0.2190 -0.4875  0.1377
 7191TIP3    H121537   1.253   0.444   3.257 -0.3460 -0.7038  1.0952
 7191TIP3    H221538   1.148   0.533   3.321 -2.6931  0.3513 -3.7286
 7192TIP3   OH221539   1.106   4.451   4.444 -0.5309  0.1530  0.2004
 7192TIP3    H121540   1.018   4.416   4.453 -0.2851 -0.2763  1.1110
 7192TIP3    H221541   1.109   4.525   4.505 -0.9683  1.6429 -1.5268
 7193TIP3   OH221542   3.756   0.134   0.032  0.2163  0.4366  0.1135
 7193TIP3    H121543   3.759   0.160  -0.060  0.0370  2.1028  0.5473
 7193TIP3    H221544   3.665   0.149   0.059 -0.1376 -1.5246  0.1974
 7194TIP3   OH221545   3.784   5.329   4.327  0.0583 -0.5234  0.0581
 7194TIP3    H121546   3.803   5.269   4.256  1.2331 -0.5439  0.3594
 7194TIP3    H221547   3.782   5.416   4.286  1.8023 -0.4080  0.1158
 7195TIP3   OH221548   4.165   3.582   0.860  0.0297 -0.0900 -0.0067
 7195TIP3    H121549   4.114   3.655   0.825 -1.2165 -0.9341 -0.0158
 7195TIP3    H221550   4.256   3.604   0.839 -0.4333  0.8332 -1.1554
 7196TIP3   OH221551   0.134   0.876   2.185 -0.1501  0.2474 -0.4338
 7196TIP3    H121552   0.135   0.802   2.124  0.2506  0.4600 -0.6926
 7196TIP3    H221553   0.118   0.952   2.130 -1.0607  0.3041 -0.1037
 7197TIP3   OH221554   6.809   5.376   0.374 -0.3667  0.4265  0.8415
 7197TIP3    H121555   6.796   5.469   0.357  0.2066  1.0877  3.5822
 7197TIP3    H221556   6.770   5.361   0.460 -0.9509 -2.0316  0.2500
 7198TIP3   OH221557   4.997   6.290   3.052 -0.4401 -0.7762  0.3555
 7198TIP3    H121558   5.082   6.276   3.095 -0.2022  0.5603  0.3622
 7198TIP3    H221559   4.935   6.295   3.125 -0.0613  1.3158  0.5770
 7199TIP3   OH221560   5.574   1.759   2.165  0.3456 -0.3345 -0.2156
 7199TIP3    H121561   5.552   1.782   2.255  1.0373 -2.3864  0.5431
 7199TIP3    H221562   5.640   1.690   2.173  0.2285 -0.7643 -2.2876
 7200TIP3   OH221563   7.016   5.049   0.509  0.5270 -0.0069 -0.4153
 7200TIP3    H121564   7.040   4.957   0.519 -1.5636 -0.3608  2.8625
 7200TIP3    H221565   6.942   5.049   0.449  0.1211 -0.5912  0.0711
 7201TIP3   OH221566   5.915   4.755   5.574  0.0560  0.2461  0.1463
 7201TIP3    H121567   5.873   4.816   5.513 -0.5404 -0.8018 -0.5176
 7201TIP3    H221568   6.001   4.794   5.590 -0.2114  1.1305 -0.4594
 7202TIP3   OH221569   3.751   1.501   4.824 -0.1688  0.3691  0.0441
 7202TIP3    H121570   3.785   1.461   4.903 -0.4296 -0.4592 -0.2577
 7202TIP3    H221571   3.786   1.448   4.753  1.7653  2.2888 -0.5583
 7203TIP3   OH221572   3.708   0.444   2.064 -0.7891  0.3317 -0.0369
 7203TIP3    H121573   3.671   0.366   2.021  1.6457 -0.6401 -0.5078
 7203TIP3    H221574   3.651   0.458   2.141 -2.0426 -1.1078 -0.6495
 7204TIP3   OH221575   3.363   1.694   0.088  0.0559 -0.4366  0.4131
 7204TIP3    H121576   3.299   1.657   0.149 -0.6956  0.2670  0.0670
 7204TIP3    H221577   3.320   1.687   0.003  0.2164  0.5227  0.2487
 7205TIP3   OH221578   2.287   3.895   3.703  0.1443 -0.0116 -0.0742
 7205TIP3    H121579   2.243   3.980   3.702  0.8803  0.3696 -0.6119
 7205TIP3    H221580   2.380   3.915   3.700  0.3120 -0.8442 -1.1039
 7206TIP3   OH221581   0.520   2.668   2.396 -0.0318 -0.2762  0.2903
 7206TIP3    H121582   0.589   2.670   2.462  0.0979 -2.1709  0.2609
 7206TIP3    H221583   0.442   2.699   2.442  0.7401  1.7694  0.3559
 7207TIP3   OH221584   2.488   1.501   2.228 -0.1146 -0.0890  0.2510
 7207TIP3    H121585   2.408   1.478   2.276  0.3640 -2.4577  0.0571
 7207TIP3    H221586   2.482   1.450   2.147  1.0585  0.6182 -0.3033
 7208TIP3   OH221587   5.490   1.283   3.049 -0.3347 -0.2057 -0.8280
 7208TIP3    H121588   5.479   1.354   3.113 -2.1858 -0.9168 -0.2801
 7208TIP3    H221589   5.585   1.276   3.036  0.0476  0.5532  1.1928
 7209TIP3   OH221590   7.020   2.871   5.146 -0.1698  0.2841 -0.0062
 7209TIP3    H121591   7.001   2.820   5.225  0.6346  0.6819  0.4652
 7209TIP3    H221592   6.999   2.961   5.170  0.4219  0.4581 -0.1119
 7210TIP3   OH221593   4.440   2.667   1.684  0.3906  0.1557  0.1395
 7210TIP3    H121594   4.470   2.635   1.599 -0.4581  0.1654 -0.1802
 7210TIP3    H221595   4.369   2.607   1.707  0.9919 -0.1961  1.1203
 7211TIP3   OH221596   2.555   3.776   1.450 -0.3842 -0.5882 -0.4979
 7211TIP3    H121597   2.482   3.727   1.412 -0.9565 -0.6741  0.6908
 7211TIP3    H221598   2.589   3.719   1.519 -0.5556  0.3533  0.3820
 7212TIP3   OH221599   2.993   6.285   1.129 -0.0904 -0.0067 -0.0685
 7212TIP3    H121600   3.067   6.276   1.190 -0.5549 -1.9335  0.2593
 7212TIP3    H221601   3.034   6.286   1.043  0.3907  0.0823  0.1534
 7213TIP3   OH221602   4.416   3.060   1.914  0.2763 -0.6909  1.0431
 7213TIP3    H121603   4.453   3.020   1.992  1.0197 -1.2444  0.4223
 7213TIP3    H221604   4.337   3.010   1.895 -0.1539 -0.2675  1.6887
 7214TIP3   OH221605   5.216   1.298   0.226  0.3702  0.0309  0.0264
 7214TIP3    H121606   5.297   1.264   0.187  0.0728 -1.1762  0.4396
 7214TIP3    H221607   5.188   1.367   0.165  0.8527 -0.6282 -0.9746
 7215TIP3   OH221608   4.598   2.867   2.973  0.3308  0.5474 -0.1916
 7215TIP3    H121609   4.561   2.820   3.048 -1.2747  0.9230 -0.7172
 7215TIP3    H221610   4.687   2.891   3.001 -0.6574  1.8505  2.1285
 7216TIP3   OH221611   3.670   2.796   4.977 -0.0945 -0.2086 -0.0130
 7216TIP3    H121612   3.750   2.744   4.985  0.1977  0.3324  0.7242
 7216TIP3    H221613   3.700   2.881   4.943 -0.2252  0.2719  1.0267
 7217TIP3   OH221614   1.896   5.502   5.716  0.3523 -0.2778 -0.9431
 7217TIP3    H121615   1.831   5.500   5.647 -0.7941  1.8105 -0.0174
 7217TIP3    H221616   1.944   5.584   5.701  0.9838 -0.4663 -0.0453
 7218TIP3   OH221617   3.369   2.912   2.632 -0.0929  0.4024  0.3178
 7218TIP3    H121618   3.303   2.910   2.562 -1.9163  1.7869  1.8917
 7218TIP3    H221619   3.403   3.001   2.632 -0.3093  0.4991  1.3466
 7219TIP3   OH221620   4.351   1.822   4.944 -0.8410 -0.2200 -0.4618
 7219TIP3    H121621   4.419   1.888   4.932 -1.6489  1.1934  2.0450
 7219TIP3    H221622   4.399   1.742   4.966  0.0646  0.3027 -0.4810
 7220TIP3   OH221623   5.618   1.932   1.433  0.2724 -0.0312  0.0930
 7220TIP3    H121624   5.606   2.025   1.414  0.0797  0.1182  0.9195
 7220TIP3    H221625   5.551   1.912   1.498 -0.0574 -0.8889 -0.4899
 7221TIP3   OH221626   0.086   6.649   2.329  0.2943 -0.0992  0.2843
 7221TIP3    H121627   0.116   6.637   2.239  1.0659 -2.0699  0.7392
 7221TIP3    H221628   0.067   6.742   2.336 -0.1192  0.0546 -2.0076
 7222TIP3   OH221629   5.429   6.407   5.427  0.2983  0.2856  0.0922
 7222TIP3    H121630   5.453   6.472   5.361 -1.0774 -0.1852 -0.9409
 7222TIP3    H221631   5.465   6.325   5.393 -2.4885 -0.4174 -1.4504
 7223TIP3   OH221632   1.294   5.680   5.737  0.3768  0.6820 -0.3361
 7223TIP3    H121633   1.352   5.614   5.700  0.0268  0.8061 -1.1229
 7223TIP3    H221634   1.289   5.658   5.830 -1.3288 -1.6524 -0.8886
 7224TIP3   OH221635   4.690   6.663   2.884 -0.7867  0.3009  0.2004
 7224TIP3    H121636   4.636   6.690   2.958 -0.4591  0.0436  0.5324
 7224TIP3    H221637   4.754   6.602   2.921  0.9858  2.0618  0.1952
 7225TIP3   OH221638   3.911   5.903   5.130 -0.1804  0.6424 -0.0836
 7225TIP3    H121639   3.954   5.878   5.212 -1.4305 -1.4294 -0.0091
 7225TIP3    H221640   3.983   5.911   5.068  0.7159  1.5315  1.0135
 7226TIP3   OH221641   2.115   2.684   1.826  0.0915  0.4845  0.1662
 7226TIP3    H121642   2.034   2.651   1.787  1.2681 -0.5786 -1.5302
 7226TIP3    H221643   2.102   2.675   1.920 -1.1270 -1.2953 -0.1206
 7227TIP3   OH221644   2.237   3.998   2.111  0.5453 -0.1326  0.3572
 7227TIP3    H121645   2.259   4.041   2.028  0.2205  1.8628  1.2419
 7227TIP3    H221646   2.321   3.988   2.156  0.8103 -1.8077 -0.4177
 7228TIP3   OH221647   2.987   4.591   4.680 -0.4924 -0.2887 -0.2995
 7228TIP3    H121648   2.988   4.563   4.772  0.0979  1.2981  0.2048
 7228TIP3    H221649   3.048   4.530   4.637  0.8204  0.1944  0.7808
 7229TIP3   OH221650   6.405   6.635   5.835  0.1835 -0.6050  0.1448
 7229TIP3    H121651   6.468   6.672   5.896 -0.2375  0.8782 -0.2728
 7229TIP3    H221652   6.358   6.569   5.886  0.5905 -0.1757  1.0989
 7230TIP3   OH221653   6.749   3.944   0.536 -0.3808  0.7962 -0.3144
 7230TIP3    H121654   6.774   3.851   0.535 -0.2370  0.8388 -0.9237
 7230TIP3    H221655   6.682   3.950   0.605 -2.0181 -0.2023 -1.7309
 7231TIP3   OH221656   4.515   1.300   3.317 -0.0446  0.2109 -0.2003
 7231TIP3    H121657   4.564   1.264   3.242 -1.1892 -0.4379 -0.6561
 7231TIP3    H221658   4.515   1.395   3.301  1.3412  0.2733 -0.0029
 7232TIP3   OH221659   4.563   2.340   3.255 -0.3279 -0.0285  0.2049
 7232TIP3    H121660   4.502   2.392   3.203  0.2792 -1.0734 -1.6122
 7232TIP3    H221661   4.526   2.252   3.256  0.1001 -0.2150  0.8589
 7233TIP3   OH221662   0.503   4.399   1.475  0.0453 -0.3259  0.2227
 7233TIP3    H121663   0.569   4.469   1.475 -0.1786 -0.1115  0.3284
 7233TIP3    H221664   0.486   4.382   1.382  0.5328 -0.6553  0.1901
 7234TIP3   OH221665   0.762   1.901   3.763  0.0372 -0.8550  0.0163
 7234TIP3    H121666   0.849   1.941   3.761 -0.4989  0.4270  1.1870
 7234TIP3    H221667   0.705   1.967   3.723 -0.9370 -0.1679  2.3725
 7235TIP3   OH221668   1.473   0.992   4.376  0.2435  0.0171 -0.2669
 7235TIP3    H121669   1.380   0.984   4.395  0.3197  1.5347  0.8142
 7235TIP3    H221670   1.516   0.930   4.436 -0.0286 -0.5905 -0.6822
 7236TIP3   OH221671   1.878   0.703   2.846  0.7924  0.3197  0.0745
 7236TIP3    H121672   1.876   0.724   2.752 -1.5763 -0.1502 -0.0542
 7236TIP3    H221673   1.786   0.705   2.872  1.3591 -0.1679  2.2678
 7237TIP3   OH221674   3.218   3.941   5.316 -0.1672 -0.2775 -0.0281
 7237TIP3    H121675   3.157   3.965   5.385  0.0241 -1.0854  0.4281
 7237TIP3    H221676   3.282   4.012   5.314 -0.0924 -0.3226  0.7241
 7238TIP3   OH221677   3.846   3.989   1.258 -0.0056  0.1197 -0.4221
 7238TIP3    H121678   3.835   3.894   1.265  1.9976 -0.1491 -0.2254
 7238TIP3    H221679   3.818   4.023   1.343 -2.5618 -0.0262 -1.1190
 7239TIP3   OH221680   4.827   3.322   0.521 -0.6895  0.6716 -0.0191
 7239TIP3    H121681   4.843   3.278   0.604 -0.4902 -0.3670 -0.5914
 7239TIP3    H221682   4.847   3.256   0.454 -1.7560  1.1806 -0.8777
 7240TIP3   OH221683   4.223   4.235   4.532  0.0944  0.1726 -0.6823
 7240TIP3    H121684   4.293   4.187   4.487  0.9818 -0.2736  1.1137
 7240TIP3    H221685   4.156   4.168   4.548  0.0357  0.2028 -0.7992
 7241TIP3   OH221686   1.240   4.094   4.082 -0.7668  0.1552  0.3439
 7241TIP3    H121687   1.323   4.057   4.054 -0.2686  0.8919  0.8376
 7241TIP3    H221688   1.257   4.130   4.169 -1.5672  0.4191  0.4023
 7242TIP3   OH221689   0.028   0.334   5.891 -0.1719 -0.1473  0.1158
 7242TIP3    H121690   0.051   0.420   5.856  0.8772 -0.7524 -0.7660
 7242TIP3    H221691  -0.061   0.318   5.861 -0.0908  0.3072 -0.3791
 7243TIP3   OH221692   6.195   2.065   1.656 -0.0906  0.2409 -0.1548
 7243TIP3    H121693   6.119   2.107   1.617 -0.2104 -0.7673 -1.0327
 7243TIP3    H221694   6.160   2.016   1.731 -0.4954 -1.0487 -1.1520
 7244TIP3   OH221695   0.884   2.411   4.987 -0.6681  0.2313  0.5936
 7244TIP3    H121696   0.835   2.480   5.031 -0.3803  1.5000 -0.9836
 7244TIP3    H221697   0.953   2.457   4.940 -0.6019 -1.1081 -0.6910
 7245TIP3   OH221698   6.174   6.581   3.239 -0.1841  0.1320 -0.1595
 7245TIP3    H121699   6.089   6.556   3.274 -0.5698  0.6700 -0.6834
 7245TIP3    H221700   6.153   6.630   3.160  0.6555 -0.8458 -1.0173
 7246TIP3   OH221701   6.911   6.577   5.645  0.4905  0.3760  0.3333
 7246TIP3    H121702   6.910   6.483   5.663 -0.5779  0.5721  1.4023
 7246TIP3    H221703   6.838   6.612   5.695  2.1042  2.0783  1.6343
 7247TIP3   OH221704   3.581   4.495   0.619  0.0913  0.3339 -0.0719
 7247TIP3    H121705   3.627   4.456   0.693  1.4771 -0.2560 -1.1913
 7247TIP3    H221706   3.523   4.425   0.587  1.3312 -0.2994 -1.0365
 7248TIP3   OH221707   1.412   2.248   5.539  0.2160 -0.8802 -0.3755
 7248TIP3    H121708   1.450   2.267   5.625  1.2280  0.3193 -1.0402
 7248TIP3    H221709   1.370   2.330   5.513  2.4369 -0.2053 -2.2321
 7249TIP3   OH221710   1.847   0.306   0.641  0.3569  0.3648  0.3839
 7249TIP3    H121711   1.783   0.314   0.712  0.9328  0.1745  0.9323
 7249TIP3    H221712   1.835   0.217   0.607 -1.2670  1.0863 -1.0873
 7250TIP3   OH221713   6.337   1.254   4.829 -0.0617 -0.3795  0.1088
 7250TIP3    H121714   6.340   1.168   4.788  0.5960 -0.7613  0.9291
 7250TIP3    H221715   6.291   1.240   4.911  1.2351 -0.2440  0.8884
 7251TIP3   OH221716   3.180   1.103   1.630  0.2943 -0.2260 -0.1350
 7251TIP3    H121717   3.096   1.131   1.593 -0.2810 -0.0422  1.2491
 7251TIP3    H221718   3.198   1.165   1.700 -0.3533 -2.4043  2.1286
 7252TIP3   OH221719   2.633   4.080   5.351  0.2299  0.0717  0.1614
 7252TIP3    H121720   2.541   4.097   5.328  0.6075  0.6351 -1.0585
 7252TIP3    H221721   2.629   4.016   5.422 -1.1139  0.3555  0.3732
 7253TIP3   OH221722   6.274   4.858   3.598  0.1454  0.0595  0.6875
 7253TIP3    H121723   6.335   4.833   3.528  0.0397  0.4210  0.4646
 7253TIP3    H221724   6.312   4.821   3.677  0.8069  0.5266  0.5914
 7254TIP3   OH221725   6.287   0.244   5.193  0.0059 -0.2517  0.3299
 7254TIP3    H121726   6.371   0.222   5.232  0.3281 -1.3000 -0.9314
 7254TIP3    H221727   6.308   0.281   5.108 -0.8238 -1.5668 -0.4824
 7255TIP3   OH221728   1.525   5.588   4.774  0.1223  0.2377 -0.0829
 7255TIP3    H121729   1.580   5.538   4.714 -1.4968  0.2683 -1.6708
 7255TIP3    H221730   1.502   5.527   4.843 -0.5036 -0.7686 -1.1455
 7256TIP3   OH221731   1.964   4.743   4.235 -0.2501 -1.1376 -0.0301
 7256TIP3    H121732   1.869   4.745   4.248 -0.6115 -1.5793 -2.1234
 7256TIP3    H221733   1.987   4.832   4.210  0.2164 -0.6085  2.1087
 7257TIP3   OH221734   0.857   0.496   0.685  0.0165  0.2404 -0.1946
 7257TIP3    H121735   0.820   0.462   0.603  1.4805  2.1271 -1.7069
 7257TIP3    H221736   0.812   0.579   0.699 -1.0196 -0.5716  1.5726
 7258TIP3   OH221737   2.412   2.385   5.373  0.4215  0.2661  0.2193
 7258TIP3    H121738   2.507   2.397   5.378  0.3401  0.4694  1.8856
 7258TIP3    H221739   2.399   2.292   5.393  0.2687  0.1892 -0.2158
 7259TIP3   OH221740   4.549   0.516   4.834 -0.5251  0.0224 -0.2869
 7259TIP3    H121741   4.555   0.549   4.923  0.0868 -0.1721 -0.2512
 7259TIP3    H221742   4.577   0.424   4.840 -0.3684  0.0382 -0.6889
 7260TIP3   OH221743   5.330   3.091   4.852  0.4556  0.0137  0.0766
 7260TIP3    H121744   5.287   3.175   4.839  1.6580  0.7433  0.5818
 7260TIP3    H221745   5.360   3.065   4.765 -1.7634 -0.9977 -0.4690
 7261TIP3   OH221746   5.592   1.562   3.348  0.1140  0.2060 -0.0686
 7261TIP3    H121747   5.584   1.655   3.370 -1.3290 -0.2318  1.4881
 7261TIP3    H221748   5.504   1.526   3.363  1.2563 -1.9456  2.1898
 7262TIP3   OH221749   3.474   6.648   1.440  0.3973  0.4711 -0.1748
 7262TIP3    H121750   3.565   6.623   1.424  0.8172  0.6023  1.7393
 7262TIP3    H221751   3.422   6.588   1.387  1.5813  0.1728 -1.0260
 7263TIP3   OH221752   5.518   6.615   1.775 -0.1838 -0.0280  0.1333
 7263TIP3    H121753   5.581   6.544   1.789 -0.6160 -0.4595 -0.0440
 7263TIP3    H221754   5.472   6.590   1.695 -0.2182  0.5502 -0.0270
 7264TIP3   OH221755   5.469   3.586   1.983 -0.1030 -0.0082 -0.4057
 7264TIP3    H121756   5.511   3.508   1.946 -1.7810 -0.6443 -1.0427
 7264TIP3    H221757   5.459   3.646   1.909  0.2913  0.4269 -0.1161
 7265TIP3   OH221758   1.107   1.696   4.014 -0.1188 -0.2793  0.2880
 7265TIP3    H121759   1.165   1.634   3.971  1.2681  0.1517  1.4786
 7265TIP3    H221760   1.019   1.659   4.000  0.5018 -1.4767 -0.6718
 7266TIP3   OH221761   6.352   6.308   1.417 -0.4457  0.7045  0.2856
 7266TIP3    H121762   6.382   6.371   1.351 -1.3099 -0.2481 -1.0561
 7266TIP3    H221763   6.339   6.361   1.495  1.8805  1.6466  0.1272
 7267TIP3   OH221764   6.188   3.275   4.732  0.4042  0.3821 -0.2412
 7267TIP3    H121765   6.098   3.306   4.726  0.5342  0.8863  0.3100
 7267TIP3    H221766   6.237   3.330   4.672  0.3830  0.2564 -0.3741
 7268TIP3   OH221767   5.920   5.307   1.179 -0.4436  0.0764 -0.4655
 7268TIP3    H121768   5.860   5.253   1.230 -1.6529  1.1674 -0.6815
 7268TIP3    H221769   5.890   5.397   1.193 -0.0603  0.5028 -2.1187
 7269TIP3   OH221770   4.273   1.542   1.333  0.3255  0.7255  0.2514
 7269TIP3    H121771   4.207   1.472   1.340  0.6236  0.4072 -0.1439
 7269TIP3    H221772   4.225   1.622   1.356 -0.6407  0.7475 -1.6463
 7270TIP3   OH221773   1.175   3.182   0.273  0.2026 -0.7975  0.3255
 7270TIP3    H121774   1.237   3.140   0.214 -0.3132 -1.6009  0.3341
 7270TIP3    H221775   1.091   3.142   0.251 -0.6417  1.4731 -0.8711
 7271TIP3   OH221776   1.997   0.526   4.296  0.3931 -0.4914  0.1204
 7271TIP3    H121777   1.993   0.606   4.244  2.1236  0.0669  0.7922
 7271TIP3    H221778   2.083   0.527   4.337  0.4536 -2.6890  0.1951
 7272TIP3   OH221779   5.776   2.060   1.807 -0.1633  0.2766  0.4358
 7272TIP3    H121780   5.730   2.121   1.749 -1.0354 -0.8769 -0.1291
 7272TIP3    H221781   5.708   2.003   1.840  0.7348 -0.9142  0.2923
 7273TIP3   OH221782   5.554   6.261   4.154 -0.0872 -0.7061 -0.1379
 7273TIP3    H121783   5.581   6.318   4.226  0.8011 -1.1865 -0.0689
 7273TIP3    H221784   5.507   6.189   4.196 -4.1609  1.5069 -0.4604
 7274TIP3   OH221785   0.907   6.676   3.451  0.4514 -0.1627  0.9951
 7274TIP3    H121786   0.878   6.725   3.374 -1.1848 -1.8148  0.5068
 7274TIP3    H221787   0.973   6.615   3.419  0.2613 -0.3866  1.0275
 7275TIP3   OH221788   1.469   0.134   3.020  0.4963  0.6901 -0.1107
 7275TIP3    H121789   1.543   0.179   2.980  0.4710  2.0361  1.2555
 7275TIP3    H221790   1.394   0.191   3.004 -0.0047 -0.0081 -0.3227
 7276TIP3   OH221791   2.214   3.679   0.707 -0.2094 -0.3361  0.2767
 7276TIP3    H121792   2.129   3.640   0.727  0.0057 -0.6782  0.5277
 7276TIP3    H221793   2.218   3.757   0.763  0.1211 -0.9431  1.1184
 7277TIP3   OH221794   4.465   1.349   5.755  0.1661  0.4037  0.0147
 7277TIP3    H121795   4.425   1.416   5.699  0.4275  0.3861 -0.1920
 7277TIP3    H221796   4.512   1.399   5.822 -2.7552  0.4995  2.1838
 7278TIP3   OH221797   6.355   1.589   0.839  0.1174 -0.0291  0.4830
 7278TIP3    H121798   6.276   1.589   0.892  0.3439  0.0832  0.8277
 7278TIP3    H221799   6.417   1.536   0.889  0.2498 -0.1449  0.1991
 7279TIP3   OH221800   6.553   1.042   0.942 -0.4904  0.0790 -0.1175
 7279TIP3    H121801   6.626   1.104   0.941 -1.1257  0.8335 -1.0104
 7279TIP3    H221802   6.533   1.030   1.035  2.4174 -2.1787  0.3939
 7280TIP3   OH221803   6.297   5.665   0.729  0.2532 -0.0497  0.0658
 7280TIP3    H121804   6.383   5.705   0.734 -0.4030  1.3060  1.0157
 7280TIP3    H221805   6.273   5.647   0.820 -0.4448 -0.4825 -0.1916
 7281TIP3   OH221806   3.305   0.901   5.655  0.6233  0.3151  0.1459
 7281TIP3    H121807   3.233   0.839   5.664  0.1701  0.9103  0.7455
 7281TIP3    H221808   3.372   0.853   5.607 -0.8442  0.3170 -2.0728
 7282TIP3   OH221809   5.156   0.517   4.556 -0.0706 -0.0776  0.3296
 7282TIP3    H121810   5.169   0.433   4.513  0.5966 -0.4475  1.2293
 7282TIP3    H221811   5.083   0.501   4.616 -1.7742  0.7424 -1.3984
 7283TIP3   OH221812   3.172   4.422   4.543 -0.3103 -0.5639 -0.1128
 7283TIP3    H121813   3.247   4.460   4.499 -0.6167 -0.6273 -0.7025
 7283TIP3    H221814   3.207   4.348   4.593 -0.1757 -1.4570 -1.4865
 7284TIP3   OH221815   4.743   2.564   1.296  0.6411 -0.2356 -0.0808
 7284TIP3    H121816   4.825   2.581   1.251  0.3113  1.7229 -0.0105
 7284TIP3    H221817   4.725   2.644   1.346 -1.8748 -0.1343 -0.9948
 7285TIP3   OH221818   3.917   0.947   4.609 -0.6243  0.6916  0.3697
 7285TIP3    H121819   3.939   1.028   4.564  0.9973 -0.2550 -0.6212
 7285TIP3    H221820   3.980   0.941   4.681  0.5190 -0.5769 -0.6886
 7286TIP3   OH221821   5.798   5.862   0.162 -0.1945 -0.1870 -0.8085
 7286TIP3    H121822   5.864   5.926   0.136 -1.1760  1.0264 -0.3734
 7286TIP3    H221823   5.738   5.910   0.218 -0.1386 -1.8524  0.7966
 7287TIP3   OH221824   1.627   3.200   4.915 -0.0953  0.2443  0.3451
 7287TIP3    H121825   1.671   3.284   4.903 -2.8176  1.6419 -0.8730
 7287TIP3    H221826   1.630   3.158   4.829 -0.6375  0.1133  0.3841
 7288TIP3   OH221827   5.652   1.123   4.782 -0.1189  0.3451 -0.3004
 7288TIP3    H121828   5.631   1.158   4.869  0.2093  0.5413 -0.2980
 7288TIP3    H221829   5.746   1.104   4.786  0.3987  2.3734 -1.2777
 7289TIP3   OH221830   5.063   3.376   0.802  0.2506 -0.2699  0.0034
 7289TIP3    H121831   4.984   3.385   0.748  0.3490 -0.6777 -0.2118
 7289TIP3    H221832   5.061   3.286   0.834  1.3301 -0.7278 -1.1290
 7290TIP3   OH221833   6.966   5.323   3.120 -0.1625 -0.1115 -0.7809
 7290TIP3    H121834   6.888   5.303   3.069 -1.5040 -1.1766  1.5121
 7290TIP3    H221835   6.950   5.412   3.154 -1.2372 -0.9406  1.0227
 7291TIP3   OH221836   0.067   4.403   2.975 -0.3372 -0.2876 -0.3143
 7291TIP3    H121837   0.147   4.356   2.952  0.5264  0.0738  1.6577
 7291TIP3    H221838   0.080   4.426   3.067 -1.7653  1.6930 -0.5499
 7292TIP3   OH221839   5.226   2.542   1.288  0.3497 -0.6099  0.4232
 7292TIP3    H121840   5.191   2.517   1.373  1.6332 -2.9394  0.3438
 7292TIP3    H221841   5.234   2.638   1.292 -3.3983 -0.1603  1.3707
 7293TIP3   OH221842   5.423   3.369   3.462 -0.0613  0.0152  0.0821
 7293TIP3    H121843   5.364   3.444   3.462 -0.8961 -0.6231 -0.8684
 7293TIP3    H221844   5.502   3.402   3.419  0.3233  0.8696  1.3556
 7294TIP3   OH221845   0.808   1.498   5.720 -0.2473 -0.0559 -0.5866
 7294TIP3    H121846   0.818   1.517   5.814 -0.5596  1.5010 -0.8504
 7294TIP3    H221847   0.875   1.432   5.703 -1.3990 -1.7971  1.1148
 7295TIP3   OH221848   0.548   3.105   1.928 -0.2602  0.1124 -0.1147
 7295TIP3    H121849   0.570   3.013   1.940 -0.8669 -0.1182 -0.7414
 7295TIP3    H221850   0.633   3.149   1.923  0.0339 -0.4129  0.1187
 7296TIP3   OH221851   6.353   0.695   2.810 -0.0400 -0.5473  0.3803
 7296TIP3    H121852   6.448   0.700   2.799 -0.0994  1.2540  0.4677
 7296TIP3    H221853   6.324   0.786   2.815 -1.9559 -0.9960 -1.1888
 7297TIP3   OH221854   1.299   1.807   3.590  0.0112 -0.3191  0.2140
 7297TIP3    H121855   1.368   1.869   3.566 -0.9050  0.9262  0.6983
 7297TIP3    H221856   1.309   1.795   3.684 -0.5400  0.0231  0.3222
 7298TIP3   OH221857   0.116   0.597   5.754  0.0614 -0.0202  0.5319
 7298TIP3    H121858   0.088   0.685   5.728 -2.2777 -1.0210 -0.6279
 7298TIP3    H221859   0.172   0.567   5.683 -2.5501 -0.9690 -1.2903
 7299TIP3   OH221860   5.402   4.733   2.837 -0.7997 -0.2504 -0.4935
 7299TIP3    H121861   5.341   4.712   2.907  0.1941 -1.6368  0.0001
 7299TIP3    H221862   5.403   4.829   2.834 -0.7642 -0.1530  1.4893
 7300TIP3   OH221863   2.493   2.275   0.437  0.5337  0.2682 -0.1807
 7300TIP3    H121864   2.561   2.208   0.448 -1.1081 -1.4708 -0.0259
 7300TIP3    H221865   2.499   2.299   0.344  1.0280 -0.2496 -0.2939
 7301TIP3   OH221866   5.151   0.094   0.974 -0.4679 -0.3059  1.2347
 7301TIP3    H121867   5.079   0.149   0.943  0.8902 -0.0199 -1.6820
 7301TIP3    H221868   5.126   0.005   0.946 -0.0073 -0.3042  0.8138
 7302TIP3   OH221869   6.877   5.676   1.097 -0.1095 -0.1660 -0.2829
 7302TIP3    H121870   6.904   5.720   1.016 -0.0067 -0.2070 -0.2720
 7302TIP3    H221871   6.944   5.702   1.161 -0.7127  0.6340  0.0354
 7303TIP3   OH221872   1.217   4.241   4.637  0.7229 -0.0010 -0.1495
 7303TIP3    H121873   1.184   4.153   4.658  1.9784 -0.7377 -1.1398
 7303TIP3    H221874   1.158   4.300   4.684  0.5741 -1.3968  1.5461
 7304TIP3   OH221875   2.676   1.480   2.793  0.0257 -0.2296  0.0162
 7304TIP3    H121876   2.637   1.565   2.813  0.7102  0.1089 -0.0590
 7304TIP3    H221877   2.648   1.461   2.704 -0.2865 -0.1707  0.1018
 7305TIP3   OH221878   4.528   2.975   0.352  0.0926  0.1058  0.2504
 7305TIP3    H121879   4.560   3.007   0.268  2.6721  1.0659  1.5208
 7305TIP3    H221880   4.542   3.047   0.413 -1.1368 -0.7931  1.6780
 7306TIP3   OH221881   6.573   2.785   3.919 -0.2170 -0.2141 -0.4734
 7306TIP3    H121882   6.499   2.841   3.941  1.3214  1.9729 -0.5622
 7306TIP3    H221883   6.608   2.758   4.004  0.8260  1.5209 -0.2944
 7307TIP3   OH221884   4.424   5.888   2.016 -0.0457  0.1756 -0.6535
 7307TIP3    H121885   4.495   5.880   1.952  1.0079  1.7973  0.2558
 7307TIP3    H221886   4.464   5.865   2.100 -1.0829 -0.6669 -0.3600
 7308TIP3   OH221887   7.045   4.031   4.604 -0.7410 -0.0111 -0.0994
 7308TIP3    H121888   7.114   4.011   4.668 -1.3292  0.9979  0.8836
 7308TIP3    H221889   7.031   3.948   4.557  1.8887 -0.0093 -1.1139
 7309TIP3   OH221890   5.319   2.675   3.816  0.0150  0.6169 -0.8680
 7309TIP3    H121891   5.360   2.745   3.764 -1.3693  1.0261 -1.4393
 7309TIP3    H221892   5.336   2.595   3.766 -0.8317  0.9360 -1.7098
 7310TIP3   OH221893   1.041   3.413   3.632  0.0501 -0.3616 -0.5896
 7310TIP3    H121894   0.984   3.431   3.707 -0.5556  0.2123 -1.1753
 7310TIP3    H221895   0.983   3.379   3.565  0.4116  0.1179 -1.1555
 7311TIP3   OH221896   7.038   6.640   4.615  0.2879  0.4059 -0.3262
 7311TIP3    H121897   6.985   6.606   4.543  0.9015 -0.6572 -0.2930
 7311TIP3    H221898   6.980   6.636   4.691 -0.2202  1.1292 -0.6582
 7312TIP3   OH221899   2.936   6.117   0.036  0.4186 -0.1556 -0.2912
 7312TIP3    H121900   2.979   6.033   0.053  2.3233  0.6625 -0.7889
 7312TIP3    H221901   2.879   6.100  -0.039  0.1194 -1.1944  0.1466
 7313TIP3   OH221902   3.474   0.974   2.683  0.0535  0.3847  0.1807
 7313TIP3    H121903   3.428   0.958   2.600  1.7981  0.3162 -0.8295
 7313TIP3    H221904   3.532   1.048   2.664  1.2442 -0.3113  1.0207
 7314TIP3   OH221905   4.517   4.114   5.698 -0.1828 -0.0032 -0.1338
 7314TIP3    H121906   4.494   4.179   5.764 -0.1404 -0.5994  0.4850
 7314TIP3    H221907   4.606   4.087   5.721  0.1548  0.3877 -0.9452
 7315TIP3   OH221908   6.839   1.210   0.061 -0.2847 -0.1796 -0.1462
 7315TIP3    H121909   6.885   1.133   0.095  2.2879  0.6199 -1.5079
 7315TIP3    H221910   6.815   1.186  -0.029 -1.4934 -0.1462  0.1536
 7316TIP3   OH221911   3.732   3.262   3.442 -0.0940  0.3115  0.1766
 7316TIP3    H121912   3.674   3.198   3.400 -0.8659  0.2625  1.2807
 7316TIP3    H221913   3.819   3.241   3.408 -0.6140 -0.0452 -0.9953
 7317TIP3   OH221914   3.916   2.702   5.002  0.0717  0.0673  0.0716
 7317TIP3    H121915   3.922   2.647   4.923 -1.8779 -0.7487  0.4200
 7317TIP3    H221916   3.885   2.642   5.070  1.2753  0.8621  1.3715
 7318TIP3   OH221917   1.944   4.529   5.648 -0.3825  0.1625 -0.3860
 7318TIP3    H121918   2.002   4.453   5.646  1.1949  1.2594 -3.6658
 7318TIP3    H221919   1.860   4.494   5.677  1.0320 -2.1345  1.3169
 7319TIP3   OH221920   3.245   0.583   5.550  0.1014  0.1908  0.2024
 7319TIP3    H121921   3.168   0.641   5.556 -1.1594 -1.4231  0.3117
 7319TIP3    H221922   3.263   0.577   5.456  0.7952  1.4212  0.2372
 7320TIP3   OH221923   4.838   3.557   2.985 -0.8267  0.0356  0.2299
 7320TIP3    H121924   4.860   3.639   2.940 -0.6720  0.8125  1.6876
 7320TIP3    H221925   4.776   3.583   3.053 -3.0192 -1.4887 -1.0728
 7321TIP3   OH221926   6.985   0.878   1.595  0.1486  1.1023 -0.6023
 7321TIP3    H121927   6.992   0.973   1.605  0.5048  1.1397 -1.1626
 7321TIP3    H221928   7.031   0.842   1.671  1.5469  1.3758 -1.2953
 7322TIP3   OH221929   3.653   1.199   2.495  0.5966  0.1124  0.1322
 7322TIP3    H121930   3.675   1.133   2.430  0.5786  0.6437 -0.4260
 7322TIP3    H221931   3.557   1.200   2.496  0.5905 -0.5928  0.8964
 7323TIP3   OH221932   1.675   5.515   1.487 -0.1011 -0.7572  0.1675
 7323TIP3    H121933   1.626   5.597   1.499  2.2312  0.9695 -1.2210
 7323TIP3    H221934   1.663   5.468   1.569 -0.8992  1.3269  1.3322
 7324TIP3   OH221935   0.858   3.781   1.956 -0.0886 -0.0116  0.1869
 7324TIP3    H121936   0.778   3.737   1.927  0.0457 -0.7327  0.8947
 7324TIP3    H221937   0.911   3.789   1.876 -0.5376 -0.2107 -0.1379
 7325TIP3   OH221938   4.911   0.203   1.611  0.5021  0.2740  0.3166
 7325TIP3    H121939   4.853   0.127   1.617 -0.9587  1.1578 -1.4681
 7325TIP3    H221940   4.866   0.272   1.660 -0.6352  1.2780 -1.9629
 7326TIP3   OH221941   4.672   6.458   1.728 -0.4459  0.2037 -0.4570
 7326TIP3    H121942   4.590   6.446   1.679  0.7530 -0.7205 -2.3130
 7326TIP3    H221943   4.695   6.550   1.712 -1.5923  0.7675  0.9085
 7327TIP3   OH221944   5.742   6.017   5.134 -0.1513  0.0384 -0.4121
 7327TIP3    H121945   5.758   5.957   5.207 -0.0236  0.1545 -0.3438
 7327TIP3    H221946   5.829   6.047   5.108 -0.3064  1.3760  0.5512
 7328TIP3   OH221947   5.601   1.796   5.481  0.6172 -0.1300 -0.1525
 7328TIP3    H121948   5.547   1.720   5.502 -0.8279  1.0554  0.6215
 7328TIP3    H221949   5.621   1.785   5.388  2.9943 -2.9333  0.5181
 7329TIP3   OH221950   3.714   5.890   5.479 -0.1667  0.3682  0.0757
 7329TIP3    H121951   3.643   5.849   5.430 -1.1777  0.7965  1.1445
 7329TIP3    H221952   3.787   5.828   5.472 -0.7358 -0.2189 -0.7789
 7330TIP3   OH221953   2.611   6.221   3.220 -0.8159 -0.2136  0.1915
 7330TIP3    H121954   2.579   6.256   3.136  0.8851  0.8982 -0.0476
 7330TIP3    H221955   2.687   6.275   3.241 -0.6290 -1.1001  1.9945
 7331TIP3   OH221956   6.467   5.576   4.130  0.3729 -0.5952 -0.2854
 7331TIP3    H121957   6.484   5.601   4.039 -0.5161  1.9195  0.1470
 7331TIP3    H221958   6.377   5.603   4.146  0.7276 -0.3491  1.5399
 7332TIP3   OH221959   1.326   4.416   0.151  0.6889 -0.6927 -0.3719
 7332TIP3    H121960   1.243   4.407   0.197  0.3653  2.8230  0.0391
 7332TIP3    H221961   1.389   4.369   0.206 -0.0863  1.4099  2.5581
 7333TIP3   OH221962   4.270   1.769   4.526 -0.3375  0.0265 -0.0002
 7333TIP3    H121963   4.198   1.727   4.479 -0.5090  0.9382 -0.5754
 7333TIP3    H221964   4.348   1.744   4.477 -0.4240  0.2575 -0.2582
 7334TIP3   OH221965   6.195   1.494   5.534  0.0936  0.4890 -0.3288
 7334TIP3    H121966   6.157   1.578   5.561  1.9309  1.2456  0.0236
 7334TIP3    H221967   6.279   1.517   5.495  1.2261 -1.2520  0.9200
 7335TIP3   OH221968   5.909   6.779   5.734 -0.4855 -0.5364 -0.0605
 7335TIP3    H121969   5.822   6.740   5.727  0.1706 -2.0322 -0.2236
 7335TIP3    H221970   5.945   6.773   5.645 -0.8111  1.5848 -0.3772
 7336TIP3   OH221971   6.002   3.518   0.656 -0.2552  0.0529  0.3393
 7336TIP3    H121972   6.071   3.509   0.721  0.8744 -0.0651 -0.8485
 7336TIP3    H221973   6.047   3.548   0.577 -1.4039 -0.9998 -0.7586
 7337TIP3   OH221974   4.424   4.058   2.349  0.4323 -0.3617 -0.2257
 7337TIP3    H121975   4.513   4.047   2.382  0.8678  0.6430 -1.0092
 7337TIP3    H221976   4.425   4.015   2.264  0.1070 -0.5180 -0.1524
 7338TIP3   OH221977   2.544   6.144   3.721 -0.1613 -0.2760  0.4695
 7338TIP3    H121978   2.530   6.210   3.653  0.0820 -0.6711  0.0275
 7338TIP3    H221979   2.495   6.176   3.797  1.1876  1.1797  0.7596
 7339TIP3   OH221980   6.937   2.171   5.027  0.1033 -0.0015 -0.4190
 7339TIP3    H121981   6.894   2.202   4.948  0.4926  0.6295 -0.3874
 7339TIP3    H221982   6.942   2.248   5.084 -0.1056 -0.4291  0.1955
 7340TIP3   OH221983   2.501   3.396   1.991  0.1943 -0.4014 -0.1804
 7340TIP3    H121984   2.414   3.358   1.980 -0.0941  0.6900 -2.1303
 7340TIP3    H221985   2.522   3.433   1.905  1.4110  1.7839  0.9730
 7341TIP3   OH221986   4.840   6.360   1.052 -0.4385  0.0623 -0.0011
 7341TIP3    H121987   4.868   6.451   1.055  1.0105 -0.3754  0.7915
 7341TIP3    H221988   4.875   6.327   0.969 -0.8979  0.2025 -0.2524
 7342TIP3   OH221989   1.889   1.248   3.802  0.4743 -0.1818 -0.1209
 7342TIP3    H121990   1.859   1.336   3.824 -1.6172 -0.5796 -1.1178
 7342TIP3    H221991   1.944   1.260   3.724 -0.8265  0.1734 -1.0223
 7343TIP3   OH221992   3.960   1.834   1.167 -0.3051  0.5199  0.4388
 7343TIP3    H121993   3.996   1.918   1.136 -2.1797  0.9796 -0.6825
 7343TIP3    H221994   3.925   1.854   1.254  0.8911  0.4077  0.9597
 7344TIP3   OH221995   0.101   3.595   5.066  0.1410  0.2810  0.1143
 7344TIP3    H121996   0.012   3.604   5.033 -0.2760 -0.8847  0.8728
 7344TIP3    H221997   0.125   3.504   5.046  0.8334  0.3315  0.6672
 7345TIP3   OH221998   5.915   6.770   1.893 -0.2315  0.6865  0.3955
 7345TIP3    H121999   5.824   6.754   1.917 -0.5544  0.2641 -1.0225
 7345TIP3    H222000   5.956   6.801   1.974 -1.4762  0.2810  1.2109
 7346TIP3   OH222001   5.735   5.943   2.235 -0.1697  0.5368 -0.3106
 7346TIP3    H122002   5.642   5.943   2.212 -0.3187 -0.4944  0.2052
 7346TIP3    H222003   5.747   6.021   2.289 -1.0989 -0.1410  0.9217
 7347TIP3   OH222004   3.020   4.547   4.223 -0.1738  0.1297  0.4013
 7347TIP3    H122005   2.996   4.456   4.236 -0.8871  0.2820  0.2216
 7347TIP3    H222006   3.070   4.548   4.142  0.1527 -0.1464  0.5961
 7348TIP3   OH222007   6.563   2.581   1.096  0.1422  0.3723  0.0753
 7348TIP3    H122008   6.553   2.486   1.107  1.9709 -0.1618 -2.0349
 7348TIP3    H222009   6.476   2.611   1.070 -0.2080 -0.9522 -0.3897
 7349TIP3   OH222010   3.811   6.659   3.873 -0.0318 -0.3961  0.1239
 7349TIP3    H122011   3.783   6.717   3.944 -0.8878  0.3720 -0.7953
 7349TIP3    H222012   3.758   6.687   3.798  0.1074 -1.8624 -0.5547
 7350TIP3   OH222013   0.622   0.823   3.201  0.3171 -0.6496  0.2468
 7350TIP3    H122014   0.686   0.795   3.136 -0.4677 -0.0303 -0.8372
 7350TIP3    H222015   0.672   0.873   3.265  0.9049 -0.0766 -0.6404
 7351TIP3   OH222016   0.555   5.625   0.348 -0.1238 -0.5945  0.3047
 7351TIP3    H122017   0.595   5.554   0.297  1.3178 -0.2208  0.8530
 7351TIP3    H222018   0.533   5.583   0.432 -1.0007 -0.8271 -0.0378
 7352TIP3   OH222019   2.467   5.582   0.918  0.5949  0.1119  0.3008
 7352TIP3    H122020   2.519   5.522   0.972 -1.2704 -0.6193  1.3970
 7352TIP3    H222021   2.382   5.539   0.910 -0.0227  1.4821 -0.9988
 7353TIP3   OH222022   7.072   0.825   3.084 -0.2268  0.2881  0.5249
 7353TIP3    H122023   7.154   0.805   3.129  0.0707  1.8140  0.7152
 7353TIP3    H222024   7.079   0.917   3.061 -1.3745  0.1311 -0.5730
 7354TIP3   OH222025   6.662   5.086   5.163 -0.0380 -0.2387 -0.2715
 7354TIP3    H122026   6.575   5.045   5.161  0.6533 -1.7462 -0.7191
 7354TIP3    H222027   6.646   5.176   5.134 -1.4021 -0.5761 -0.6649
 7355TIP3   OH222028   2.086   3.473   4.252 -0.3055  0.0987  0.4722
 7355TIP3    H122029   2.059   3.558   4.287  0.9048  0.4110  0.7109
 7355TIP3    H222030   2.173   3.489   4.215 -0.0052 -1.0528  0.6314
 7356TIP3   OH222031   1.140   5.180   4.419 -0.4810  0.2319  0.3089
 7356TIP3    H122032   1.166   5.272   4.415 -0.8145  0.2988 -0.9245
 7356TIP3    H222033   1.218   5.132   4.393 -0.5979  0.2293 -0.0407
 7357TIP3   OH222034   2.672   5.631   5.255 -0.0593  0.4252  0.2844
 7357TIP3    H122035   2.729   5.583   5.196  0.9748  0.9130  0.8662
 7357TIP3    H222036   2.584   5.615   5.221  0.4689  0.3059 -1.1027
 7358TIP3   OH222037   4.063   2.127   1.160 -0.4433  0.2571 -0.2255
 7358TIP3    H122038   4.034   2.195   1.098  0.0219 -0.5437 -1.3573
 7358TIP3    H222039   4.159   2.132   1.158 -0.4180  0.5942  0.8892
 7359TIP3   OH222040   1.087   0.166   5.033  0.7940  0.2077  0.3651
 7359TIP3    H122041   0.992   0.173   5.022  0.8473  0.3667  0.0188
 7359TIP3    H222042   1.122   0.246   4.995  1.0535  0.2455  0.6801
 7360TIP3   OH222043   3.240   6.294   2.478  0.0578  0.1536  0.2642
 7360TIP3    H122044   3.154   6.252   2.468 -0.8188  2.2276 -2.0289
 7360TIP3    H222045   3.276   6.257   2.559 -2.6719 -1.3202  0.9239
 7361TIP3   OH222046   5.101   0.780   4.655  0.3823  0.0812  0.4187
 7361TIP3    H122047   5.088   0.730   4.575  1.0941  1.0325 -0.3096
 7361TIP3    H222048   5.012   0.794   4.689 -0.3046  2.3892 -1.9289
 7362TIP3   OH222049   2.272   2.592   1.608 -0.1001 -0.2203 -0.1189
 7362TIP3    H122050   2.218   2.630   1.676 -0.5528  1.1391 -1.1868
 7362TIP3    H222051   2.293   2.504   1.640  0.1086  0.5350  1.9590
 7363TIP3   OH222052   5.705   2.908   0.375  0.5564  0.2340 -0.3786
 7363TIP3    H122053   5.652   2.890   0.453  1.1965 -0.2198 -0.0455
 7363TIP3    H222054   5.642   2.907   0.303 -0.1725  1.3972  0.2030
 7364TIP3   OH222055   2.553   5.664   2.376  0.2995 -0.0626  0.7097
 7364TIP3    H122056   2.562   5.756   2.403 -1.2128 -0.2270  1.9091
 7364TIP3    H222057   2.513   5.669   2.290 -0.3019  0.4211  1.0027
 7365TIP3   OH222058   0.191   4.263   3.855 -0.2410 -0.5070 -0.6804
 7365TIP3    H122059   0.252   4.320   3.809 -1.2253  0.6272 -0.6269
 7365TIP3    H222060   0.183   4.302   3.942 -0.4632 -1.0910 -0.4317
 7366TIP3   OH222061   0.128   1.624   3.107 -0.3757  0.1332  1.0284
 7366TIP3    H122062   0.181   1.704   3.121 -0.2290  0.2581 -0.1459
 7366TIP3    H222063   0.043   1.645   3.144 -0.0836  0.5294  1.4899
 7367TIP3   OH222064   6.779   2.551   1.338  0.6420 -0.4668 -0.6813
 7367TIP3    H122065   6.696   2.593   1.314  1.4659  1.0213 -1.0122
 7367TIP3    H222066   6.783   2.560   1.433  0.5231 -0.3875 -0.6832
 7368TIP3   OH222067   0.672   3.202   3.072 -0.0056  0.1489 -0.1811
 7368TIP3    H122068   0.719   3.132   3.118 -0.4445 -0.8374 -1.1908
 7368TIP3    H222069   0.739   3.245   3.019 -0.4684 -2.6661 -3.3517
 7369TIP3   OH222070   2.228   2.312   4.667 -0.3281 -0.3895  0.0024
 7369TIP3    H122071   2.212   2.303   4.573 -0.4543  0.0349 -0.0168
 7369TIP3    H222072   2.296   2.247   4.686  0.5544  0.3257 -0.6053
 7370TIP3   OH222073   3.985   1.173   1.603  0.1352 -0.2594  0.0768
 7370TIP3    H122074   3.897   1.150   1.633  0.3854 -0.2354  0.8727
 7370TIP3    H222075   4.043   1.139   1.672  0.6837  0.4668 -0.0123
 7371TIP3   OH222076   7.172   0.037   4.314 -0.7789 -0.3098  0.1195
 7371TIP3    H122077   7.140   0.015   4.227  0.3099  0.1350 -0.4166
 7371TIP3    H222078   7.229  -0.037   4.338 -1.3735 -0.6152  0.6270
 7372TIP3   OH222079   2.516   2.346   2.144  0.6068 -0.2008 -0.0673
 7372TIP3    H122080   2.582   2.276   2.139  0.6309 -0.1144 -1.2064
 7372TIP3    H222081   2.563   2.425   2.117  0.1791 -0.0346 -0.3322
 7373TIP3   OH222082   2.215   3.362   1.523  0.2581  0.0683 -0.8052
 7373TIP3    H122083   2.192   3.312   1.444  0.4318 -1.7889  0.2827
 7373TIP3    H222084   2.134   3.367   1.573  0.3699  0.4194 -0.6554
 7374TIP3   OH222085   4.388   3.848   3.071  0.3916  0.1196 -0.4145
 7374TIP3    H122086   4.364   3.916   3.009  0.0871  0.5478  0.1604
 7374TIP3    H222087   4.316   3.847   3.134  1.4031  0.7693  0.8008
 7375TIP3   OH222088   6.346   1.840   4.989 -0.2058  0.4694 -0.1166
 7375TIP3    H122089   6.266   1.845   5.041 -0.0429  1.0729  0.0817
 7375TIP3    H222090   6.411   1.889   5.040  0.6012 -0.9817  0.2945
 7376TIP3   OH222091   0.532   4.153   1.966  0.0153  0.5007 -0.1951
 7376TIP3    H122092   0.437   4.143   1.966  0.0197  0.4402  0.0717
 7376TIP3    H222093   0.547   4.243   1.938 -0.0692  0.1247 -1.5057
 7377TIP3   OH222094   4.226   6.538   5.692 -0.4725  0.2274 -0.2054
 7377TIP3    H122095   4.209   6.608   5.755  1.4640  1.2140 -0.7023
 7377TIP3    H222096   4.316   6.511   5.709 -0.7133 -1.1830 -0.9725
 7378TIP3   OH222097   0.392   0.664   4.558 -0.3032  0.3613 -0.2915
 7378TIP3    H122098   0.400   0.644   4.651  0.7755  4.0865  0.5714
 7378TIP3    H222099   0.444   0.596   4.515  0.1770 -0.7543  1.8977
 7379TIP3   OH222100   0.946   5.511   0.163 -0.7403  0.5632  0.1747
 7379TIP3    H122101   0.936   5.583   0.225  0.2333  2.5763 -1.8730
 7379TIP3    H222102   0.856   5.483   0.145 -1.0557  0.0863  2.2190
 7380TIP3   OH222103   1.115   5.866   0.786 -0.0040 -0.0656  0.4381
 7380TIP3    H122104   1.103   5.872   0.691 -2.1683  0.0658  0.6762
 7380TIP3    H222105   1.209   5.852   0.797  0.2115 -0.7944 -1.7616
 7381TIP3   OH222106   2.270   4.369   2.202 -0.0888  0.1255 -0.1677
 7381TIP3    H122107   2.200   4.309   2.226  0.2987 -0.0771  0.4913
 7381TIP3    H222108   2.350   4.325   2.231  0.3501  0.1615 -1.2922
 7382TIP3   OH222109   2.414   4.130   3.289 -0.5081  0.2892 -0.2774
 7382TIP3    H122110   2.482   4.157   3.226  0.2529  0.4094  0.5716
 7382TIP3    H222111   2.448   4.049   3.327  0.7013  1.8845  2.3622
 7383TIP3   OH222112   3.056   3.069   3.515 -0.4203 -0.2833  0.0318
 7383TIP3    H122113   3.013   3.015   3.448 -2.8001  0.3275  0.9786
 7383TIP3    H222114   3.026   3.158   3.497 -1.9020 -0.2274  2.4467
 7384TIP3   OH222115   5.932   3.453   2.644 -0.2345  0.7417 -0.3231
 7384TIP3    H122116   5.933   3.490   2.732 -0.3854  0.4339 -0.1910
 7384TIP3    H222117   6.013   3.484   2.604  1.8916 -2.2691  1.2394
 7385TIP3   OH222118   2.502   4.413  -0.021 -0.5964 -0.5327  0.0219
 7385TIP3    H122119   2.569   4.432   0.044 -0.3651 -0.0861 -0.3421
 7385TIP3    H222120   2.421   4.445   0.018 -0.4039  0.0598 -0.0582
 7386TIP3   OH222121   7.021   5.447   3.925  0.1443  0.0567 -0.0911
 7386TIP3    H122122   7.011   5.358   3.959  0.2314 -0.0543 -0.3457
 7386TIP3    H222123   6.947   5.496   3.960 -0.6228 -0.4384 -0.9776
 7387TIP3   OH222124   3.066   5.771   2.339  0.1290  0.2846  0.1533
 7387TIP3    H122125   3.104   5.821   2.411  0.5669  1.0056 -0.5456
 7387TIP3    H222126   3.079   5.828   2.262  0.2945 -0.7520 -0.6049
 7388TIP3   OH222127   2.822   2.374   0.451  0.1640 -0.5383 -0.0351
 7388TIP3    H122128   2.779   2.415   0.375 -0.8704 -1.1652  0.1948
 7388TIP3    H222129   2.873   2.302   0.414 -0.0849 -0.6441 -0.1763
 7389TIP3   OH222130   2.781   1.433   3.445  0.5544  0.5249  0.1594
 7389TIP3    H122131   2.862   1.391   3.414  0.1817 -0.7247  0.7865
 7389TIP3    H222132   2.782   1.420   3.540 -1.1394 -1.0173  0.0422
 7390TIP3   OH222133   4.442   4.193   0.405  0.1159 -0.3723 -0.7482
 7390TIP3    H122134   4.465   4.266   0.348  0.9470 -0.8439 -1.0287
 7390TIP3    H222135   4.365   4.224   0.453  0.2403  0.5472 -1.1169
 7391TIP3   OH222136   2.219   0.993   2.050  1.0433  0.1983 -0.1826
 7391TIP3    H122137   2.293   0.991   2.111 -1.2316 -0.3418  2.7784
 7391TIP3    H222138   2.208   0.901   2.023  0.2834 -0.0638  0.9647
 7392TIP3   OH222139   0.843   2.688   1.826 -0.1654 -0.0802  1.1608
 7392TIP3    H122140   0.927   2.656   1.794  0.5179  1.2305  1.6065
 7392TIP3    H222141   0.798   2.609   1.857 -0.2623 -1.2128 -1.5789
 7393TIP3   OH222142   0.910   0.242   1.278 -0.3167  0.7305 -0.0899
 7393TIP3    H122143   1.004   0.256   1.286 -0.4912  2.0956 -0.2116
 7393TIP3    H222144   0.892   0.168   1.337  1.0800 -0.7699 -1.4359
 7394TIP3   OH222145   6.935   4.762   3.129 -0.4631  0.7537 -0.1081
 7394TIP3    H122146   6.845   4.789   3.144 -0.5668 -0.5382  2.0208
 7394TIP3    H222147   6.988   4.832   3.168 -0.5734  0.7487  0.0476
 7395TIP3   OH222148   1.034   1.057   1.126 -0.1731  0.2385  0.5276
 7395TIP3    H122149   0.968   1.016   1.069  0.4906  0.9877 -0.8129
 7395TIP3    H222150   1.118   1.025   1.093  0.3818  2.6567 -0.6325
 7396TIP3   OH222151   2.648   2.531   3.790 -0.2536  0.3607  0.2329
 7396TIP3    H122152   2.562   2.541   3.748  0.1016 -1.6221 -1.0812
 7396TIP3    H222153   2.638   2.454   3.847  1.0364 -0.8571 -1.1123
 7397TIP3   OH222154   3.593   2.103   5.431  0.2056 -0.3189  0.1760
 7397TIP3    H122155   3.667   2.130   5.486  0.9229  0.2670 -1.0309
 7397TIP3    H222156   3.594   2.007   5.435  1.3569 -0.3425 -0.2110
 7398TIP3   OH222157   6.329   0.155   3.760 -0.3637 -0.4438  0.7034
 7398TIP3    H122158   6.390   0.187   3.693 -0.9380 -0.4985  0.1509
 7398TIP3    H222159   6.386   0.131   3.834  0.2655 -0.2716  0.2859
 7399TIP3   OH222160   3.526   2.871   1.299 -0.6295 -0.1004 -0.3689
 7399TIP3    H122161   3.586   2.891   1.227  0.6165 -0.8257  0.4276
 7399TIP3    H222162   3.522   2.952   1.350  1.2617 -0.5649  0.6386
 7400TIP3   OH222163   2.822   2.035   0.684 -1.0488  0.5198  0.9827
 7400TIP3    H122164   2.802   2.109   0.742  0.1920  0.7991  1.0993
 7400TIP3    H222165   2.917   2.025   0.691 -0.9289  0.2514 -0.6329
 7401TIP3   OH222166   3.354   4.414   3.089  0.2827 -0.0286  0.1642
 7401TIP3    H122167   3.355   4.364   3.008  1.8486 -1.2442  0.8863
 7401TIP3    H222168   3.292   4.367   3.145 -0.6346  0.6870 -0.2234
 7402TIP3   OH222169   4.138   0.975   0.280  0.5239  0.0206  0.1383
 7402TIP3    H122170   4.051   1.013   0.289  1.0368  2.4006 -3.1151
 7402TIP3    H222171   4.137   0.932   0.194  1.8409 -2.3231  1.1822
 7403TIP3   OH222172   4.262   3.013   0.881  0.1684  0.2038 -0.0588
 7403TIP3    H122173   4.197   3.074   0.915 -0.5331 -0.3572 -0.3380
 7403TIP3    H222174   4.308   2.980   0.958  0.8015  1.3454  0.0590
 7404TIP3   OH222175   2.874   0.684   2.059  0.0820  0.1917 -0.6573
 7404TIP3    H122176   2.893   0.771   2.024  2.4604  0.5232  1.2204
 7404TIP3    H222177   2.954   0.634   2.042 -0.7609 -1.2343 -0.5323
 7405TIP3   OH222178   5.531   2.068   1.684 -0.2368  0.2563 -0.2826
 7405TIP3    H122179   5.451   2.122   1.679 -0.5897 -0.0546  1.5303
 7405TIP3    H222180   5.521   2.018   1.765  0.4833 -1.9354 -1.4746
 7406TIP3   OH222181   4.567   2.217   0.346 -0.8296  0.0702 -0.4520
 7406TIP3    H122182   4.474   2.223   0.369 -0.6906 -0.0341  0.1370
 7406TIP3    H222183   4.607   2.169   0.418 -0.0887  1.1754 -0.1024
 7407TIP3   OH222184   1.271   1.750   4.318  0.0933  0.2590 -0.2225
 7407TIP3    H122185   1.216   1.705   4.383  1.8111 -0.9747  0.4428
 7407TIP3    H222186   1.257   1.700   4.237  0.3928 -0.1970  0.0014
 7408TIP3   OH222187   3.762   0.902   3.458  0.4921  0.0400  0.1085
 7408TIP3    H122188   3.678   0.888   3.503 -0.0599 -0.3143 -0.9942
 7408TIP3    H222189   3.827   0.863   3.516 -0.0229  0.8412  1.2714
 7409TIP3   OH222190   5.630   4.028   3.380 -0.0848  0.1456 -0.3942
 7409TIP3    H122191   5.608   4.010   3.289 -0.8309 -0.0171 -0.1824
 7409TIP3    H222192   5.575   4.103   3.404  0.1638  0.2360 -0.0973
 7410TIP3   OH222193   0.856   4.280   1.416  0.7970 -0.8602 -0.2881
 7410TIP3    H122194   0.902   4.315   1.340  0.3629 -0.2709 -0.2842
 7410TIP3    H222195   0.779   4.236   1.380  0.5635 -0.5364 -0.1895
 7411TIP3   OH222196   1.316   1.265   4.822 -0.0863 -0.0238  0.5929
 7411TIP3    H122197   1.278   1.261   4.910 -1.4443 -2.9427  0.0107
 7411TIP3    H222198   1.380   1.194   4.820  0.9425  0.8791 -0.4026
 7412TIP3   OH222199   6.770   0.606   4.813 -0.6485 -0.1317 -0.2830
 7412TIP3    H122200   6.829   0.681   4.816  1.0940 -1.4720  0.6744
 7412TIP3    H222201   6.693   0.634   4.864 -1.2347  1.8775 -2.1003
 7413TIP3   OH222202   5.602   3.932   2.853  0.1400 -0.1624  0.3888
 7413TIP3    H122203   5.553   3.873   2.796 -0.2130 -0.8132  1.3469
 7413TIP3    H222204   5.678   3.958   2.800 -0.9517  0.4666 -0.9210
 7414TIP3   OH222205   4.259   3.415   4.292  0.5337 -0.6229  0.2721
 7414TIP3    H122206   4.258   3.457   4.206  2.0700 -0.7452  0.1771
 7414TIP3    H222207   4.214   3.477   4.349 -0.4077 -0.4918 -0.5833
 7415TIP3   OH222208   0.270   5.428   5.346  0.8230  0.8442 -0.3382
 7415TIP3    H122209   0.322   5.348   5.334 -1.0666 -0.4592 -0.3512
 7415TIP3    H222210   0.263   5.465   5.259  0.4873  0.2031 -0.5913
 7416TIP3   OH222211   0.033   1.192   0.929 -0.3164 -0.3313 -0.1090
 7416TIP3    H122212   0.058   1.222   1.016  1.2082 -1.0300 -0.2732
 7416TIP3    H222213   0.107   1.215   0.873 -0.6043 -1.2487 -0.9082
 7417TIP3   OH222214   6.141   6.227   3.299 -0.2909 -0.0442  0.5666
 7417TIP3    H122215   6.200   6.161   3.264 -0.1184  0.0180  0.7331
 7417TIP3    H222216   6.135   6.293   3.230 -1.8653 -1.0635 -0.3350
 7418TIP3   OH222217   7.081   2.228   5.821 -0.4626 -0.0978  0.2836
 7418TIP3    H122218   7.155   2.175   5.792 -1.0227  0.1922 -1.8097
 7418TIP3    H222219   7.118   2.316   5.834 -0.5690  0.2662 -1.6516
 7419TIP3   OH222220   0.810   4.408   3.229 -0.0701 -0.0185  0.3210
 7419TIP3    H122221   0.852   4.491   3.207 -0.9858  0.7248  1.2694
 7419TIP3    H222222   0.724   4.413   3.188  0.4320 -1.2021 -0.9566
 7420TIP3   OH222223   5.212   3.314   1.904  0.4214 -0.3207 -0.1298
 7420TIP3    H122224   5.277   3.377   1.935 -0.6798  0.6946  0.1914
 7420TIP3    H222225   5.217   3.319   1.808  0.7372 -0.1697 -0.1054
 7421TIP3   OH222226   2.069   1.155   4.413 -0.2792  0.1369 -0.2525
 7421TIP3    H122227   2.135   1.138   4.345 -0.3463  0.7076 -0.4613
 7421TIP3    H222228   1.990   1.112   4.380 -0.6938  1.5718 -1.2152
 7422TIP3   OH222229   2.633   4.064   0.723  0.2752  0.0182 -0.7003
 7422TIP3    H122230   2.600   4.154   0.728  0.2032 -0.0681  0.5539
 7422TIP3    H222231   2.572   4.020   0.664 -0.3604  0.5089 -0.4237
 7423TIP3   OH222232   0.788   5.099   1.336  0.8130 -0.2133 -0.1437
 7423TIP3    H122233   0.765   5.047   1.413 -2.3784 -1.1175 -1.5342
 7423TIP3    H222234   0.769   5.190   1.362 -0.8816 -0.5747 -0.0200
 7424TIP3   OH222235   4.517   1.614   4.963  0.3672 -0.3808  0.2382
 7424TIP3    H122236   4.502   1.520   4.955 -0.8025 -0.3141  1.3754
 7424TIP3    H222237   4.565   1.624   5.045 -1.1958  0.1342  1.1374
 7425TIP3   OH222238   0.593   3.041   5.374  0.0137 -0.0969  0.2556
 7425TIP3    H122239   0.624   2.965   5.325 -0.1455 -0.5208  0.7952
 7425TIP3    H222240   0.623   3.025   5.464  1.5615  1.3566  0.0473
 7426TIP3   OH222241   5.112   0.132   3.954  0.3420  0.0781 -0.1714
 7426TIP3    H122242   5.151   0.206   4.000  0.8652 -0.1252 -0.2757
 7426TIP3    H222243   5.187   0.078   3.928  0.0082 -0.1527 -0.6675
 7427TIP3   OH222244   4.922   1.366   3.462 -0.4224 -0.0262 -0.2084
 7427TIP3    H122245   4.863   1.431   3.501  1.8070  1.9478  0.1602
 7427TIP3    H222246   4.983   1.418   3.409  1.5579 -1.8013  0.1805
 7428TIP3   OH222247   1.376   6.179   3.333  0.2099 -0.2023 -0.4454
 7428TIP3    H122248   1.286   6.209   3.337 -0.1542 -1.1593 -1.1203
 7428TIP3    H222249   1.400   6.186   3.241  0.8696  0.1588 -0.2550
 7429TIP3   OH222250   6.372   1.884   2.510  0.4728  0.4455 -0.0883
 7429TIP3    H122251   6.306   1.878   2.579 -0.2783 -1.2474 -0.9130
 7429TIP3    H222252   6.448   1.922   2.554  0.1327 -0.8763  1.7873
 7430TIP3   OH222253   3.445   3.162   1.373  0.4801 -0.3505  0.3646
 7430TIP3    H122254   3.355   3.153   1.344  0.4043  0.0440  0.4577
 7430TIP3    H222255   3.438   3.204   1.459  0.7969  0.9448 -0.2149
 7431TIP3   OH222256   4.109   5.250   4.001 -0.3641  0.0292  0.1636
 7431TIP3    H122257   4.141   5.249   3.911  1.8158  1.9489  0.8204
 7431TIP3    H222258   4.021   5.288   3.996 -0.0374  0.6584 -1.0923
 7432TIP3   OH222259   1.375   4.053   1.663 -0.3770 -0.0411 -0.2316
 7432TIP3    H122260   1.407   4.088   1.580  2.5105  0.4622  0.9579
 7432TIP3    H222261   1.424   4.103   1.729 -1.1085 -1.7803  1.7032
 7433TIP3   OH222262   5.393   0.672   4.646  0.1286  0.1358 -0.1181
 7433TIP3    H122263   5.323   0.674   4.712  0.5587 -0.0094  0.3501
 7433TIP3    H222264   5.347   0.682   4.563 -0.5001 -0.3728  0.1499
 7434TIP3   OH222265   3.589   4.584   5.216 -0.2174  0.0637  0.2413
 7434TIP3    H122266   3.565   4.610   5.128  0.2088  0.4626  0.2405
 7434TIP3    H222267   3.515   4.531   5.246 -0.7416  0.6176 -0.0479
 7435TIP3   OH222268   4.381   4.801   1.176  0.5206 -0.6516  0.1170
 7435TIP3    H122269   4.378   4.791   1.271  0.9212 -1.8926  0.0165
 7435TIP3    H222270   4.351   4.890   1.161  1.9551  0.1173  1.5096
 7436TIP3   OH222271   1.878   5.732   0.841  0.1160 -0.3578 -1.4367
 7436TIP3    H122272   1.836   5.649   0.866 -1.1572  1.0623  1.6407
 7436TIP3    H222273   1.971   5.719   0.863 -0.3057 -0.5544  0.3680
 7437TIP3   OH222274   1.540   6.727   0.218  0.5993  0.4757 -0.2270
 7437TIP3    H122275   1.505   6.675   0.290  0.0619  1.5431  0.2997
 7437TIP3    H222276   1.464   6.775   0.184  0.9711  0.4596 -1.0935
 7438TIP3   OH222277   3.606   2.078   1.922 -0.2166 -0.0867 -0.0111
 7438TIP3    H122278   3.666   2.008   1.947  0.4664  0.6672  0.5145
 7438TIP3    H222279   3.663   2.148   1.891 -0.9751 -0.4364 -2.3254
 7439TIP3   OH222280   2.850   1.790   4.663  0.1366  0.9352  0.1294
 7439TIP3    H122281   2.896   1.706   4.665  0.7124  1.2598  1.0055
 7439TIP3    H222282   2.767   1.770   4.619  1.5358  0.5897 -2.5947
 7440TIP3   OH222283   6.521   5.113   0.843  0.2329 -0.0300 -0.1297
 7440TIP3    H122284   6.523   5.197   0.889  2.9035 -0.4228  0.6822
 7440TIP3    H222285   6.483   5.052   0.906 -0.6453  0.3380 -0.2931
 7441TIP3   OH222286   1.201   2.021   4.369  0.2797 -0.3410 -0.3787
 7441TIP3    H122287   1.162   1.959   4.307  1.5247 -1.9739  0.4069
 7441TIP3    H222288   1.254   1.967   4.427 -0.2099  1.2424  1.6497
 7442TIP3   OH222289   6.226   1.689   5.191 -0.5477  0.1681 -0.4079
 7442TIP3    H122290   6.305   1.638   5.171 -0.8406 -0.1655 -0.7431
 7442TIP3    H222291   6.160   1.622   5.213 -0.5061  0.4819  0.7136
 7443TIP3   OH222292   4.648   4.687   2.364 -0.7652 -0.2051 -0.1157
 7443TIP3    H122293   4.574   4.717   2.417 -2.0814 -1.3539 -1.2439
 7443TIP3    H222294   4.631   4.723   2.277 -0.2093 -0.8204 -0.4844
 7444TIP3   OH222295   3.690   1.015   2.282  0.0292 -0.0903  0.2045
 7444TIP3    H122296   3.744   1.068   2.224  1.4615  0.6695  2.1620
 7444TIP3    H222297   3.600   1.033   2.255  0.6158  1.0803 -1.0338
 7445TIP3   OH222298   3.285   3.242   4.953 -0.0075  0.0663  0.6945
 7445TIP3    H122299   3.290   3.336   4.970  0.6669 -0.0039  0.9180
 7445TIP3    H222300   3.194   3.219   4.970  0.5716 -0.0262  4.3270
 7446TIP3   OH222301   0.721   1.943   5.584  0.1252 -0.1058 -0.5099
 7446TIP3    H122302   0.683   2.020   5.542  0.1444 -0.5560 -1.3774
 7446TIP3    H222303   0.799   1.976   5.629  0.3904  0.3118 -1.2568
 7447TIP3   OH222304   2.022   5.756  -0.008  0.7111  0.3075  0.1705
 7447TIP3    H122305   2.057   5.818   0.056 -0.6007  0.6863  0.5460
 7447TIP3    H222306   2.094   5.694  -0.023  1.4821  0.9705  1.0184
 7448TIP3   OH222307   2.119   2.248   0.205 -0.6526  0.0482 -0.1657
 7448TIP3    H122308   2.042   2.201   0.236 -0.6625  0.1110 -0.0944
 7448TIP3    H222309   2.174   2.257   0.284 -0.5136 -0.1111 -0.2419
 7449TIP3   OH222310   2.059   6.083   2.819  0.0283  1.0678 -0.3758
 7449TIP3    H122311   2.119   6.121   2.884 -0.1840 -0.6991  0.9307
 7449TIP3    H222312   2.112   6.070   2.741  0.2386  3.4564 -0.7108
 7450TIP3   OH222313   0.674   6.306   1.417 -0.5906 -0.0064  0.6139
 7450TIP3    H122314   0.582   6.302   1.443 -0.5557 -0.7923  0.6427
 7450TIP3    H222315   0.718   6.244   1.475 -0.1819 -0.2406  0.0647
 7451TIP3   OH222316   6.410   2.005   3.157  0.0365 -0.1071  0.4789
 7451TIP3    H122317   6.436   2.083   3.207  0.2950 -0.0007  0.1821
 7451TIP3    H222318   6.322   2.025   3.126  0.0312 -0.0092  0.5549
 7452TIP3   OH222319   0.470   0.281   0.959  0.1807  0.1752 -0.1357
 7452TIP3    H122320   0.512   0.288   1.045  0.3943  0.9147 -0.2955
 7452TIP3    H222321   0.537   0.240   0.904  0.0578 -0.2631  0.0364
 7453TIP3   OH222322   1.691   5.481   1.975 -0.3418 -0.0815 -0.3103
 7453TIP3    H122323   1.634   5.437   2.039 -1.0685  1.7688  0.3783
 7453TIP3    H222324   1.778   5.445   1.992 -0.8707 -1.1272  0.3241
 7454TIP3   OH222325   1.757   3.358   3.375 -0.0165  0.4914 -0.2792
 7454TIP3    H122326   1.771   3.286   3.437 -1.7580  1.2149  1.0328
 7454TIP3    H222327   1.669   3.344   3.341  0.9734 -0.0180 -2.8583
 7455TIP3   OH222328   4.680   4.731   4.908  0.1872 -0.3292  0.2425
 7455TIP3    H122329   4.655   4.819   4.935  0.1163 -0.1806 -0.2984
 7455TIP3    H222330   4.636   4.673   4.971 -1.1356 -0.0487 -0.3676
 7456TIP3   OH222331   1.896   0.548   2.573 -0.2759  0.2069  0.3159
 7456TIP3    H122332   1.860   0.634   2.594 -0.4174  0.5265 -1.1079
 7456TIP3    H222333   1.975   0.541   2.627 -0.5617  1.0018  0.8492
 7457TIP3   OH222334   4.224   2.478   1.776 -0.3445 -0.3824  0.4552
 7457TIP3    H122335   4.146   2.461   1.827 -0.3334 -0.0879  0.5675
 7457TIP3    H222336   4.293   2.426   1.819 -0.0088  0.9469  1.5945
 7458TIP3   OH222337   2.781   2.619   0.580  0.4408  0.1138  0.1628
 7458TIP3    H122338   2.814   2.546   0.528 -1.5178  1.2290 -2.8955
 7458TIP3    H222339   2.772   2.691   0.518 -4.2717  0.9235  1.4088
 7459TIP3   OH222340   0.480   4.450   4.361 -0.3054 -0.0299 -0.0659
 7459TIP3    H122341   0.459   4.510   4.290  0.3385  0.4158  0.1106
 7459TIP3    H222342   0.396   4.434   4.404 -0.2472  2.1476  0.9747
 7460TIP3   OH222343   6.665   4.267   5.602 -0.0885 -0.8667  0.0017
 7460TIP3    H122344   6.759   4.264   5.589  0.1171  0.4965  0.9038
 7460TIP3    H222345   6.629   4.286   5.516  0.6279  0.5907 -0.0005
 7461TIP3   OH222346   3.171   0.593   2.246  0.1786 -0.0763 -0.6357
 7461TIP3    H122347   3.081   0.594   2.279  0.6755 -0.2576  0.7612
 7461TIP3    H222348   3.217   0.532   2.303  1.4177  0.7169 -0.7547
 7462TIP3   OH222349   4.682   2.787   1.867  0.0521  0.0176 -0.2244
 7462TIP3    H122350   4.619   2.762   1.800  1.3543 -1.9070 -0.7895
 7462TIP3    H222351   4.692   2.709   1.921  0.2527  1.0281  1.2493
 7463TIP3   OH222352   0.729   1.368   5.189 -0.0913  0.7312 -0.2480
 7463TIP3    H122353   0.763   1.431   5.252  1.3787  0.0167 -0.2756
 7463TIP3    H222354   0.731   1.414   5.105 -1.4128  1.4591  0.1049
 7464TIP3   OH222355   5.390   3.648   2.880 -0.7098  0.3591 -0.4104
 7464TIP3    H122356   5.401   3.705   2.804  1.9582  0.4386 -0.0732
 7464TIP3    H222357   5.426   3.564   2.853 -1.3613 -0.1439  0.2327
 7465TIP3   OH222358   3.844   4.140   4.440  0.3193  0.6352 -0.4144
 7465TIP3    H122359   3.776   4.193   4.483  0.7251  0.3633  0.6014
 7465TIP3    H222360   3.799   4.098   4.366 -0.6340  0.4624  0.2402
 7466TIP3   OH222361   1.809   3.763   0.500 -0.1806 -0.3140  0.6484
 7466TIP3    H122362   1.895   3.792   0.470 -0.4795 -0.5706 -0.5463
 7466TIP3    H222363   1.818   3.753   0.594  1.1191 -0.4215  0.5328
 7467TIP3   OH222364   0.301   1.561   1.886  0.0141  0.4210  0.4474
 7467TIP3    H122365   0.336   1.506   1.817 -0.7034  0.1675  0.2741
 7467TIP3    H222366   0.210   1.533   1.895  0.2409  0.0728  1.8793
 7468TIP3   OH222367   5.046   4.561   1.367  0.3290 -0.3684  0.1726
 7468TIP3    H122368   5.097   4.622   1.315  0.7160 -0.5988  0.2822
 7468TIP3    H222369   4.961   4.557   1.323  0.2107  0.4414  0.3031
 7469TIP3   OH222370   6.849   0.795   5.660  0.3249  0.2318  0.0080
 7469TIP3    H122371   6.868   0.888   5.674  0.5583  0.0351  1.0614
 7469TIP3    H222372   6.758   0.793   5.631  0.1490  0.7494  0.5009
 7470TIP3   OH222373   0.846   6.174   2.678 -0.6979 -0.5077 -0.2167
 7470TIP3    H122374   0.860   6.264   2.649  0.4788 -0.9475 -1.0910
 7470TIP3    H222375   0.788   6.182   2.754  1.6590  1.2324  1.5317
 7471TIP3   OH222376   6.278   5.611   0.270  0.5470  0.3599  0.2890
 7471TIP3    H122377   6.343   5.590   0.338  0.6006 -0.1185  0.0987
 7471TIP3    H222378   6.210   5.543   0.281  1.2151 -0.5592 -0.9981
 7472TIP3   OH222379   5.375   4.259   3.076  0.3540 -0.1013 -1.1262
 7472TIP3    H122380   5.408   4.255   3.166  0.6584 -0.0447 -1.2327
 7472TIP3    H222381   5.422   4.333   3.037  1.0856 -0.8355 -1.6706
 7473TIP3   OH222382   2.108   3.108   1.732 -0.0905 -0.0127  0.3973
 7473TIP3    H122383   2.077   3.059   1.808 -2.1699  1.0552  0.3111
 7473TIP3    H222384   2.170   3.171   1.767 -0.8092  0.2683  1.1878
 7474TIP3   OH222385   2.814   6.189   0.290  0.0780 -0.3044 -0.0604
 7474TIP3    H122386   2.840   6.175   0.199 -0.2771  0.5531 -0.2985
 7474TIP3    H222387   2.726   6.151   0.296  0.2174 -0.6219  0.0053
 7475TIP3   OH222388   2.131   1.653   3.163  0.9706  0.0417 -1.0445
 7475TIP3    H122389   2.184   1.574   3.151  3.1930  1.2188  0.3344
 7475TIP3    H222390   2.097   1.646   3.252  0.9925  0.5366 -0.9942
 7476TIP3   OH222391   4.100   5.935   3.682 -0.1323  0.4968  0.3974
 7476TIP3    H122392   4.110   6.030   3.669 -2.1163  0.7075  0.0696
 7476TIP3    H222393   4.034   5.927   3.751 -2.0376 -0.5684 -1.4099
 7477TIP3   OH222394   4.950   0.992   3.140 -0.1097  0.1493 -0.6726
 7477TIP3    H122395   4.921   0.908   3.174 -1.0581  0.0896 -1.5895
 7477TIP3    H222396   4.946   0.983   3.045  1.2766  0.7260 -0.8129
 7478TIP3   OH222397   2.473   3.133   3.161 -0.7357  0.3538  0.0006
 7478TIP3    H122398   2.394   3.086   3.134  0.1425 -0.1121 -1.9687
 7478TIP3    H222399   2.487   3.197   3.092  0.2909  0.8377  0.6379
 7479TIP3   OH222400   2.033   4.644   4.803  0.0374 -0.0934 -0.0928
 7479TIP3    H122401   2.122   4.634   4.769 -0.2778 -0.2106 -0.9088
 7479TIP3    H222402   1.982   4.674   4.728 -0.6908 -0.3915  0.2741
 7480TIP3   OH222403   0.400   6.170   4.619 -0.2235 -0.9071 -0.2571
 7480TIP3    H122404   0.372   6.256   4.589  0.4335 -0.3504  0.6624
 7480TIP3    H222405   0.437   6.186   4.706  0.2386 -2.0607 -0.2236
 7481TIP3   OH222406   6.579   3.637   1.474 -0.4470  0.5710  0.0259
 7481TIP3    H122407   6.644   3.572   1.447 -0.9322  0.0914 -0.0024
 7481TIP3    H222408   6.498   3.587   1.485 -1.0748  1.3224 -0.9717
 7482TIP3   OH222409   3.180   0.229   4.667  0.0449  0.0660 -0.0243
 7482TIP3    H122410   3.272   0.219   4.646 -0.2860 -0.5382 -1.2631
 7482TIP3    H222411   3.134   0.181   4.598 -1.0968 -2.2838  2.1640
 7483TIP3   OH222412   7.043   4.534   0.764 -0.0377  0.7817  0.2801
 7483TIP3    H122413   6.995   4.612   0.736 -0.8191 -0.2252 -1.3083
 7483TIP3    H222414   7.126   4.569   0.798  0.0037  2.2717 -1.1977
 7484TIP3   OH222415   1.305   5.026   1.440  0.6498 -0.3650 -0.2840
 7484TIP3    H122416   1.226   5.045   1.389  0.1769 -0.3598  0.4331
 7484TIP3    H222417   1.273   4.982   1.518  1.3933 -0.6536 -0.1292
 7485TIP3   OH222418   1.895   6.687   4.788 -0.2301  0.6036  0.0148
 7485TIP3    H122419   1.909   6.659   4.878  0.7471  2.1986  0.3879
 7485TIP3    H222420   1.900   6.782   4.791  0.9894  0.6529 -1.8997
 7486TIP3   OH222421   5.943   3.747   2.769 -0.1818  0.0114 -0.0970
 7486TIP3    H122422   6.032   3.779   2.753  0.2181 -0.5163  1.0134
 7486TIP3    H222423   5.887   3.816   2.732  0.6640  0.0465 -1.4066
 7487TIP3   OH222424   7.073   6.482   1.177 -0.0203 -0.1909 -0.0970
 7487TIP3    H122425   7.134   6.520   1.113  1.5186  0.2814  1.5770
 7487TIP3    H222426   6.989   6.522   1.156  1.1648  2.8721  0.4592
 7488TIP3   OH222427   3.807   4.925   1.450 -0.0547  0.3392 -0.0997
 7488TIP3    H122428   3.848   4.868   1.515 -1.9393  0.6664  1.4775
 7488TIP3    H222429   3.806   5.012   1.490 -0.6926  0.6856 -0.8252
 7489TIP3   OH222430   2.116   6.497   2.157  0.3431  0.3070  0.2900
 7489TIP3    H122431   2.149   6.550   2.085  1.6058 -0.3752  0.3337
 7489TIP3    H222432   2.144   6.544   2.236  1.7082 -0.5144  0.3318
 7490TIP3   OH222433   3.726   2.115   5.110 -0.0404  0.0484 -0.4163
 7490TIP3    H122434   3.789   2.086   5.043 -1.2205  0.8246 -1.9214
 7490TIP3    H222435   3.700   2.203   5.082 -0.8689  0.2340  0.8668
 7491TIP3   OH222436   6.823   5.861   2.813  0.1476  0.3235  0.3296
 7491TIP3    H122437   6.803   5.892   2.902  0.3758 -0.8265  0.7964
 7491TIP3    H222438   6.841   5.941   2.764  0.1726  0.9742  1.3594
 7492TIP3   OH222439   3.634   4.793   1.251 -0.6542  0.1600 -0.4384
 7492TIP3    H122440   3.677   4.708   1.259  0.5974  0.5444 -2.4161
 7492TIP3    H222441   3.666   4.843   1.326 -0.1522 -0.5977 -0.1379
 7493TIP3   OH222442   3.620   3.264   2.822  0.1666  0.1658  0.2208
 7493TIP3    H122443   3.555   3.320   2.781  1.4923  0.7022 -1.2593
 7493TIP3    H222444   3.621   3.184   2.768 -0.3761 -0.5072  1.1852
 7494TIP3   OH222445   5.687   3.272   2.795 -0.7475  0.8299  0.1867
 7494TIP3    H122446   5.704   3.366   2.791 -0.3861  0.7503 -0.2193
 7494TIP3    H222447   5.640   3.253   2.714 -0.4112  0.5791  0.0518
 7495TIP3   OH222448   6.683   2.793   0.864 -0.1720  0.1490  0.5747
 7495TIP3    H122449   6.756   2.854   0.854 -1.2020  1.4000  0.4518
 7495TIP3    H222450   6.724   2.711   0.894  1.6443 -0.1551 -2.3635
 7496TIP3   OH222451   6.040   6.816   3.994  0.4971  0.4535  0.3936
 7496TIP3    H122452   6.122   6.779   3.961 -0.2224 -0.9942  0.1846
 7496TIP3    H222453   5.988   6.741   4.021 -2.6181  0.7816 -3.6094
 7497TIP3   OH222454   6.519   5.617   5.386  0.6838 -0.3686  0.2998
 7497TIP3    H122455   6.462   5.675   5.436  0.2830 -1.3656  1.0511
 7497TIP3    H222456   6.530   5.660   5.302 -1.2192 -0.1337  0.1247
 7498TIP3   OH222457   6.828   2.967   2.561  0.0437  0.6128 -0.1311
 7498TIP3    H122458   6.915   2.989   2.596  0.6282  1.6920 -2.1672
 7498TIP3    H222459   6.845   2.895   2.500 -0.7583 -0.2058  0.5727
 7499TIP3   OH222460   0.481   3.791   1.250  0.1447  0.2278  0.1322
 7499TIP3    H122461   0.512   3.712   1.296 -1.2384  0.1819  1.0415
 7499TIP3    H222462   0.480   3.766   1.158 -0.0507 -0.7507  0.3882
 7500TIP3   OH222463   5.690   5.129   4.929  0.2687 -0.3495 -0.3002
 7500TIP3    H122464   5.680   5.136   4.834  0.1333 -0.1866 -0.2765
 7500TIP3    H222465   5.615   5.177   4.964  0.6447  0.1115 -0.1112
 7501TIP3   OH222466   4.671   3.917   3.321 -0.1670 -0.1285 -0.3443
 7501TIP3    H122467   4.751   3.918   3.267  0.7013 -1.4734  0.8482
 7501TIP3    H222468   4.643   3.826   3.320 -0.0594 -0.2160  1.5234
 7502TIP3   OH222469   2.640   0.889   5.734  0.0004 -0.0867 -0.4227
 7502TIP3    H122470   2.651   0.981   5.756 -0.3583  0.0189 -0.6849
 7502TIP3    H222471   2.565   0.887   5.674 -0.5105 -0.6406  0.2227
 7503TIP3   OH222472   3.411   2.942   0.266  0.2176  0.5542 -0.2973
 7503TIP3    H122473   3.471   2.980   0.201  2.4668  1.0837  1.9451
 7503TIP3    H222474   3.412   3.004   0.339 -0.9806 -0.7980  0.9307
 7504TIP3   OH222475   4.878   1.802   3.473 -0.5087 -0.0179  0.2614
 7504TIP3    H122476   4.910   1.880   3.426  1.0639 -0.3493  0.7398
 7504TIP3    H222477   4.792   1.829   3.507  0.2101  1.7097  0.8512
 7505TIP3   OH222478   6.729   0.344   3.960  0.0100 -0.2274  0.2333
 7505TIP3    H122479   6.677   0.266   3.979 -0.7866  0.1500 -0.3785
 7505TIP3    H222480   6.758   0.375   4.046 -0.2927 -0.7678  0.5332
 7506TIP3   OH222481   2.852   1.114   5.626  0.0789  0.1387  0.3185
 7506TIP3    H122482   2.790   1.147   5.690 -1.6118 -0.7108 -0.8110
 7506TIP3    H222483   2.838   1.169   5.549  0.8331  0.0193  0.0896
 7507TIP3   OH222484   4.515   1.784   4.399 -0.2911 -0.1474 -0.1409
 7507TIP3    H122485   4.578   1.717   4.374  0.1625 -0.2820  1.2717
 7507TIP3    H222486   4.557   1.831   4.471 -0.4233  1.9456 -1.3435
 7508TIP3   OH222487   4.098   2.906   2.772 -0.2780  0.3935  0.1420
 7508TIP3    H122488   4.038   2.963   2.820 -1.0536  0.7878 -1.2548
 7508TIP3    H222489   4.183   2.922   2.813 -0.9767  0.3767  1.6617
 7509TIP3   OH222490   6.672   2.092   0.770 -0.1139  0.1950 -0.0488
 7509TIP3    H122491   6.685   2.002   0.741 -1.7708 -0.0871 -0.0130
 7509TIP3    H222492   6.647   2.139   0.690 -3.4503 -0.3248  0.5391
 7510TIP3   OH222493   6.462   6.027   1.273  0.0986  0.4994 -0.0917
 7510TIP3    H122494   6.524   6.049   1.343  0.5535  2.1093 -0.9353
 7510TIP3    H222495   6.492   5.942   1.241  1.1852  0.7193  0.2752
 7511TIP3   OH222496   6.545   3.746   1.991  0.1141 -0.1653 -0.1773
 7511TIP3    H122497   6.505   3.673   1.945 -2.1217 -0.4762  2.0354
 7511TIP3    H222498   6.611   3.706   2.047 -0.5021 -0.4095  0.3868
 7512TIP3   OH222499   6.442   5.262   3.030  0.4899 -0.0816  0.5522
 7512TIP3    H122500   6.415   5.171   3.047  0.5559 -0.2621 -0.2801
 7512TIP3    H222501   6.418   5.309   3.110  0.2927 -0.7972  0.9242
 7513TIP3   OH222502   2.305   5.431   1.623 -0.6204 -0.2655  0.2785
 7513TIP3    H122503   2.310   5.354   1.679  1.8398 -1.7304 -1.7508
 7513TIP3    H222504   2.211   5.448   1.613 -1.2318 -2.8759  0.9509
 7514TIP3   OH222505   0.416   1.167   0.043 -0.3664  0.1850 -0.2157
 7514TIP3    H122506   0.472   1.245   0.040 -0.2946  0.1587  0.2794
 7514TIP3    H222507   0.335   1.193  -0.000  0.4454 -0.1364 -2.0093
 7515TIP3   OH222508   0.636   2.755   0.929 -0.2543  0.4004 -0.1678
 7515TIP3    H122509   0.580   2.678   0.922 -0.4409  0.4895  0.3150
 7515TIP3    H222510   0.576   2.829   0.917 -0.1611  0.4844 -0.1122
 7516TIP3   OH222511   0.075   4.904   3.100 -0.4081 -0.4121  0.1450
 7516TIP3    H122512   0.062   4.825   3.153  0.7444 -0.4135  0.4427
 7516TIP3    H222513   0.075   4.976   3.164 -0.9392 -0.2119 -0.0719
 7517TIP3   OH222514   2.333   5.834   1.872 -0.6418 -0.2576  0.4081
 7517TIP3    H122515   2.342   5.784   1.791  0.9476 -1.2508  1.1360
 7517TIP3    H222516   2.339   5.926   1.844  0.5853 -0.6004 -0.5595
 7518TIP3   OH222517   2.934   6.073   2.688  0.5425 -0.4887  0.1619
 7518TIP3    H122518   2.873   6.126   2.636 -0.0589 -1.4740 -0.1694
 7518TIP3    H222519   2.879   6.033   2.756  1.1721  0.1126  1.0485
 7519TIP3   OH222520   5.847   2.684   5.241 -0.0797  0.0003 -0.1200
 7519TIP3    H122521   5.753   2.665   5.250 -0.4783  2.3785  1.3670
 7519TIP3    H222522   5.865   2.669   5.148 -2.0552 -0.0087 -0.5471
 7520TIP3   OH222523   0.179   1.397   3.262 -0.6127  0.0032  0.0535
 7520TIP3    H122524   0.274   1.395   3.272 -0.8274  0.6923  3.2213
 7520TIP3    H222525   0.162   1.477   3.212  0.4060  1.5120  1.9656
 7521TIP3   OH222526   0.686   4.531   4.743 -0.3257 -0.3467  0.3077
 7521TIP3    H122527   0.647   4.615   4.721  0.5905 -0.4413 -1.9766
 7521TIP3    H222528   0.612   4.471   4.751 -0.8413 -0.0488 -1.6814
 7522TIP3   OH222529   6.579   5.378   3.355 -0.0966 -0.3070 -0.0660
 7522TIP3    H122530   6.624   5.439   3.413  0.2665  0.4302 -1.0924
 7522TIP3    H222531   6.529   5.434   3.296 -0.3179 -1.0306 -0.5728
 7523TIP3   OH222532   6.996   3.637   1.998  0.4142  0.6316  0.3913
 7523TIP3    H122533   7.083   3.599   2.011  0.3215  0.7183  1.2813
 7523TIP3    H222534   6.985   3.699   2.069  0.5744  2.4138 -1.0632
 7524TIP3   OH222535   3.989   3.372   0.770  0.4012 -0.1875  0.3413
 7524TIP3    H122536   3.934   3.430   0.719 -1.3148 -1.8893  0.1414
 7524TIP3    H222537   4.045   3.430   0.822  0.0877  1.5791 -1.2164
 7525TIP3   OH222538   3.011   4.037   2.598 -0.6441 -0.1667  0.1067
 7525TIP3    H122539   3.052   4.124   2.598  0.4161 -0.6487  0.1926
 7525TIP3    H222540   2.922   4.053   2.565 -0.2086  0.8344 -0.6706
 7526TIP3   OH222541   5.374   1.091   5.049  0.0143  0.0344  0.0809
 7526TIP3    H122542   5.457   1.042   5.052  0.3134  0.2883 -2.2701
 7526TIP3    H222543   5.317   1.037   4.994 -1.1862  0.1813  1.1543
 7527TIP3   OH222544   3.453   4.412   5.852 -0.4439 -0.1162 -0.6134
 7527TIP3    H122545   3.546   4.402   5.873 -0.5390  1.8434  1.0948
 7527TIP3    H222546   3.447   4.496   5.807 -1.6097  1.0444  1.5428
 7528TIP3   OH222547   0.943   1.870   4.604 -0.1188  0.2474  0.1079
 7528TIP3    H122548   0.996   1.792   4.585 -1.7544 -1.2154  1.1949
 7528TIP3    H222549   1.002   1.927   4.653  0.1524 -1.9809  2.6417
 7529TIP3   OH222550   2.641   2.212   1.596  0.0818  0.3459  0.3375
 7529TIP3    H122551   2.579   2.279   1.567 -1.4764 -1.0417  0.2803
 7529TIP3    H222552   2.600   2.175   1.674  1.4859  0.2316  1.0454
 7530TIP3   OH222553   2.327   6.327   1.248  0.3053  0.8237 -0.3493
 7530TIP3    H122554   2.293   6.238   1.257  2.0155  0.0190 -1.3239
 7530TIP3    H222555   2.274   6.365   1.177  1.0946 -0.2823 -1.5962
 7531TIP3   OH222556   0.482   2.284   3.795 -0.3032 -0.1464 -0.2072
 7531TIP3    H122557   0.390   2.302   3.814 -0.1816 -0.4828  0.8102
 7531TIP3    H222558   0.493   2.305   3.703 -1.4096 -0.1325 -0.3461
 7532TIP3   OH222559   2.725   2.440   4.886  0.1239 -0.3339 -0.1255
 7532TIP3    H122560   2.804   2.467   4.933  0.2065 -0.1530 -0.3720
 7532TIP3    H222561   2.723   2.494   4.807 -1.1426  0.9013  0.6959
 7533TIP3   OH222562   4.812   2.442   2.178 -0.0115 -0.4996  0.0167
 7533TIP3    H122563   4.890   2.390   2.192  0.1541 -0.0158  0.9395
 7533TIP3    H222564   4.747   2.405   2.238 -0.1528 -0.1858  0.0580
 7534TIP3   OH222565   0.448   4.376   1.219  0.4643  0.6727 -0.3020
 7534TIP3    H122566   0.458   4.390   1.125 -0.7806  1.1627 -0.3788
 7534TIP3    H222567   0.357   4.349   1.230  0.5101  0.9210  0.7961
 7535TIP3   OH222568   5.936   4.161   2.888 -0.3596 -0.5054 -0.2213
 7535TIP3    H122569   6.028   4.143   2.902 -0.3149 -0.2264 -0.1451
 7535TIP3    H222570   5.890   4.100   2.946 -0.1717  0.8463  1.4577
 7536TIP3   OH222571   3.109   0.689   4.897  0.4834  0.4602 -0.2965
 7536TIP3    H122572   3.031   0.711   4.947  1.4403  0.7172  1.1381
 7536TIP3    H222573   3.174   0.755   4.922  2.3616 -1.9045  1.5425
 7537TIP3   OH222574   6.532   1.418   0.963 -0.1096 -0.4429  0.3285
 7537TIP3    H122575   6.461   1.356   0.979 -1.5485  0.9381 -0.4565
 7537TIP3    H222576   6.599   1.366   0.918  0.2731 -2.2400  2.7795
 7538TIP3   OH222577   1.239   4.664   1.190 -0.1511 -0.2442  0.3437
 7538TIP3    H122578   1.147   4.667   1.163 -0.3442  0.3688  1.0350
 7538TIP3    H222579   1.238   4.626   1.277  0.5680 -3.1468 -0.8124
 7539TIP3   OH222580   2.016   4.631   1.996 -0.3161  0.0908  0.7988
 7539TIP3    H122581   2.015   4.716   1.952 -2.5871 -0.9674 -1.4895
 7539TIP3    H222582   2.103   4.596   1.978 -0.2352  0.8833 -0.4864
 7540TIP3   OH222583   0.081   6.693   2.776 -0.5208 -0.0178 -0.1308
 7540TIP3    H122584   0.042   6.766   2.728  1.9909  0.3732 -1.7110
 7540TIP3    H222585   0.036   6.694   2.861 -2.6552  1.4411 -1.1807
 7541TIP3   OH222586   0.220   5.566   5.755 -0.5544 -0.4356 -0.0083
 7541TIP3    H122587   0.159   5.526   5.693 -0.5791  0.6965 -0.7366
 7541TIP3    H222588   0.298   5.584   5.703 -0.4707  0.2697  0.3489
 7542TIP3   OH222589   4.320   1.976   1.777  0.0670  0.2638  0.0212
 7542TIP3    H122590   4.390   1.928   1.821  0.0811  0.4858  0.2457
 7542TIP3    H222591   4.360   2.009   1.696 -0.2096 -0.9178 -0.6224
 7543TIP3   OH222592   2.515   1.348   5.804  0.1646 -0.3790 -0.3484
 7543TIP3    H122593   2.508   1.428   5.855 -0.9296 -0.2679 -0.6666
 7543TIP3    H222594   2.430   1.306   5.812  0.4763 -1.1305 -0.8238
 7544TIP3   OH222595   6.546   4.650   5.832  0.2653  0.0811 -1.0634
 7544TIP3    H122596   6.502   4.577   5.789  1.3437 -1.6824  0.6786
 7544TIP3    H222597   6.478   4.690   5.886  0.2937 -1.5576  0.2807
 7545TIP3   OH222598   6.369   3.291   3.799 -0.1239  0.2575  0.2958
 7545TIP3    H122599   6.281   3.328   3.801  0.6829  2.5985 -2.1761
 7545TIP3    H222600   6.408   3.319   3.882 -0.6073  2.2937 -0.1151
 7546TIP3   OH222601   6.561   3.213   5.332 -0.0280  0.4856  0.0775
 7546TIP3    H122602   6.554   3.165   5.415 -1.2531 -1.8827 -1.2837
 7546TIP3    H222603   6.483   3.268   5.329 -0.6260 -0.3508 -0.0151
 7547TIP3   OH222604   3.003   2.089   4.436  0.6849 -0.0213  0.3320
 7547TIP3    H122605   2.943   2.110   4.365 -0.1915 -0.5018  0.9163
 7547TIP3    H222606   3.016   2.172   4.482 -1.3782 -0.3337  1.5784
 7548TIP3   OH222607   2.093   3.560   5.228 -0.7966  0.6012 -0.3962
 7548TIP3    H122608   2.128   3.599   5.148  0.0300 -3.6241 -2.3483
 7548TIP3    H222609   2.171   3.544   5.282 -1.1575  1.7206  0.5024
 7549TIP3   OH222610   4.666   2.374   0.142 -0.4586  0.1044 -0.4662
 7549TIP3    H122611   4.628   2.328   0.217 -0.2194  2.0453  0.9075
 7549TIP3    H222612   4.750   2.330   0.126 -0.2803 -0.0106  0.7511
 7550TIP3   OH222613   2.542   3.372   3.974 -0.1329 -0.0479 -0.1939
 7550TIP3    H122614   2.574   3.348   4.061  0.9208 -0.2423 -0.6274
 7550TIP3    H222615   2.603   3.331   3.913 -0.4751  0.6405 -1.0179
 7551TIP3   OH222616   1.338   5.925   0.207 -0.0898 -0.0504  0.3931
 7551TIP3    H122617   1.298   5.886   0.130 -0.3453  0.9476  0.0084
 7551TIP3    H222618   1.403   5.986   0.173 -0.6444  0.8714  0.9389
 7552TIP3   OH222619   6.019   0.504   0.801 -0.2544 -0.3041 -0.2585
 7552TIP3    H122620   6.036   0.501   0.707  0.3048 -1.4026 -0.1322
 7552TIP3    H222621   5.979   0.420   0.822  0.1505 -0.2996  0.5886
 7553TIP3   OH222622   2.947   1.256   4.545  0.2800  0.1416  0.3317
 7553TIP3    H122623   3.010   1.304   4.491 -1.7436  1.1847 -1.2012
 7553TIP3    H222624   2.969   1.164   4.532 -0.0686  0.3691 -2.2217
 7554TIP3   OH222625   2.231   3.328   2.145  0.5068 -0.1449  0.7224
 7554TIP3    H122626   2.174   3.390   2.189 -0.2832  0.2714 -0.8190
 7554TIP3    H222627   2.184   3.244   2.150  0.0364  0.0644  0.0257
 7555TIP3   OH222628   0.038   2.678   3.818  0.5670 -0.1852 -0.5733
 7555TIP3    H122629   0.110   2.678   3.756  1.1836  2.5287  0.0219
 7555TIP3    H222630  -0.040   2.692   3.764  0.8827  0.3166 -0.9021
 7556TIP3   OH222631   0.190   4.537   0.995  0.2322  0.0129  0.7352
 7556TIP3    H122632   0.256   4.471   0.977 -0.2468 -0.5975  1.1472
 7556TIP3    H222633   0.230   4.594   1.062  0.9928  0.7063 -0.2841
 7557TIP3   OH222634   5.788   1.052   5.140  0.2013  0.0004  0.1815
 7557TIP3    H122635   5.874   1.093   5.145  0.9685 -0.9515 -3.0190
 7557TIP3    H222636   5.730   1.123   5.110 -0.0620  0.4391  1.6010
 7558TIP3   OH222637   3.743   5.135   5.894  0.0610 -0.0909 -0.0888
 7558TIP3    H122638   3.816   5.082   5.925 -0.5714 -1.3145 -0.6274
 7558TIP3    H222639   3.725   5.102   5.806 -1.1232  0.2160  0.0227
 7559TIP3   OH222640   1.224   3.567   5.532  0.0198  0.0194 -0.2113
 7559TIP3    H122641   1.139   3.589   5.494  0.6995 -1.5547 -2.9230
 7559TIP3    H222642   1.203   3.518   5.611 -1.5989  0.2927 -0.4425
 7560TIP3   OH222643   6.174   0.884   2.420 -0.0856  0.4595  0.2871
 7560TIP3    H122644   6.225   0.834   2.483  0.0419  0.2294  0.0073
 7560TIP3    H222645   6.160   0.969   2.461  0.0495  0.3321  0.5957
 7561TIP3   OH222646   5.144   1.845   3.367  0.0471 -0.8616  0.3868
 7561TIP3    H122647   5.185   1.850   3.281 -0.3901  0.0674  0.2326
 7561TIP3    H222648   5.109   1.932   3.383 -1.1928 -1.4179  0.8615
 7562TIP3   OH222649   5.670   4.702   0.609 -0.0973  0.9603 -0.6180
 7562TIP3    H122650   5.755   4.741   0.590  0.6406 -0.5550 -0.5694
 7562TIP3    H222651   5.689   4.611   0.633 -1.5444  1.0705  1.2538
 7563TIP3   OH222652   0.670   0.007   3.223 -0.1613 -0.4792 -0.0300
 7563TIP3    H122653   0.735   0.078   3.217 -0.8924  0.2302  0.2543
 7563TIP3    H222654   0.674  -0.021   3.315  1.4539 -2.1151 -0.5450
 7564TIP3   OH222655   6.405   5.371   2.016 -0.4669 -0.3474  0.3357
 7564TIP3    H122656   6.392   5.285   1.976 -0.7514  0.5294 -1.6053
 7564TIP3    H222657   6.317   5.401   2.038 -0.5455  0.1049 -0.5359
 7565TIP3   OH222658   2.922   2.893   2.474 -0.4736  0.1891 -0.0373
 7565TIP3    H122659   2.917   2.803   2.443 -3.7283  0.8155 -1.7024
 7565TIP3    H222660   2.866   2.895   2.552  0.0662  0.6798  0.3506
 7566TIP3   OH222661   0.095   3.632   3.273  0.6059 -0.3577 -0.2715
 7566TIP3    H122662   0.028   3.700   3.271  0.7662 -0.1947 -2.5518
 7566TIP3    H222663   0.049   3.552   3.250  0.7768 -0.7091  0.5524
 7567TIP3   OH222664   3.492   1.826   1.064 -0.0232  0.4289 -0.2867
 7567TIP3    H122665   3.527   1.822   0.975 -1.6581 -0.7029 -0.9375
 7567TIP3    H222666   3.397   1.828   1.052 -0.2856 -0.0789  1.4321
 7568TIP3   OH222667   0.532   1.761   4.264  0.4837 -0.4720 -0.0089
 7568TIP3    H122668   0.617   1.758   4.309 -0.0204  0.6685  1.0767
 7568TIP3    H222669   0.516   1.854   4.250 -0.4052 -0.7013 -0.5861
 7569TIP3   OH222670   2.799   4.843   0.787 -0.0823 -0.7175 -0.9217
 7569TIP3    H122671   2.711   4.881   0.783 -0.5062 -1.4329  0.9037
 7569TIP3    H222672   2.837   4.864   0.701 -2.0695 -0.5293 -1.8286
 7570TIP3   OH222673   6.165   3.284   2.730 -0.4957  0.4814 -0.1047
 7570TIP3    H122674   6.170   3.202   2.780  1.7730  1.2591  1.1113
 7570TIP3    H222675   6.124   3.346   2.790 -0.7674  0.6161 -0.4287
 7571TIP3   OH222676   0.309   1.224   3.050 -0.2505  0.0194 -0.1855
 7571TIP3    H122677   0.353   1.305   3.073 -0.1238  0.1597 -0.8948
 7571TIP3    H222678   0.376   1.171   3.008 -0.1404 -0.7618  0.9409
 7572TIP3   OH222679   4.243   0.376   4.566  0.0112 -0.7929 -0.4304
 7572TIP3    H122680   4.289   0.457   4.589 -0.1167 -0.9705  0.5006
 7572TIP3    H222681   4.185   0.401   4.495  0.1905 -0.1310 -0.3534
 7573TIP3   OH222682   1.826   6.697   0.272 -0.7104 -0.4999  0.4772
 7573TIP3    H122683   1.747   6.708   0.218 -0.0287 -2.0121 -0.9230
 7573TIP3    H222684   1.802   6.629   0.335 -1.1754  0.5521  1.4800
 7574TIP3   OH222685   4.659   5.448   2.811 -0.1580 -0.2062 -0.4523
 7574TIP3    H122686   4.716   5.524   2.798 -0.4880  0.0092 -0.6607
 7574TIP3    H222687   4.692   5.407   2.891  0.0825  0.1018 -0.3906
 7575TIP3   OH222688   4.686   4.918   0.181  0.3470 -0.1880 -0.4466
 7575TIP3    H122689   4.744   4.938   0.108  3.2550 -0.1177  1.7119
 7575TIP3    H222690   4.731   4.849   0.229 -2.2179 -1.3273  0.4925
 7576TIP3   OH222691   3.686   0.718   1.442 -0.1909  0.1423  0.4762
 7576TIP3    H122692   3.760   0.715   1.381  0.0475  0.6889  0.7270
 7576TIP3    H222693   3.703   0.647   1.503 -1.2386 -1.4196 -0.9741
 7577TIP3   OH222694   4.221   5.363   5.244  1.3227 -0.0243  0.2249
 7577TIP3    H122695   4.135   5.333   5.214  2.0019 -0.7902 -1.0317
 7577TIP3    H222696   4.269   5.382   5.164  2.2931  0.5227  0.9155
 7578TIP3   OH222697   4.191   2.402   1.515 -0.3228  0.4590  0.3369
 7578TIP3    H122698   4.214   2.427   1.604  3.9817 -0.5411 -0.2768
 7578TIP3    H222699   4.260   2.440   1.461 -1.4124 -1.0184 -2.2661
 7579TIP3   OH222700   1.661   1.092   1.857  0.6016  0.2562 -0.0225
 7579TIP3    H122701   1.622   1.077   1.944 -0.4286  0.3402 -0.4545
 7579TIP3    H222702   1.652   1.009   1.812 -1.1908  0.8935 -0.9176
 7580TIP3   OH222703   3.849   5.037   4.165 -0.0342 -0.2594  0.0821
 7580TIP3    H122704   3.852   5.012   4.073  0.9629  0.3620 -0.0589
 7580TIP3    H222705   3.775   4.988   4.200  0.8238 -2.1338 -0.5795
 7581TIP3   OH222706   0.625   5.002   3.478  0.0717 -0.2212 -0.5235
 7581TIP3    H122707   0.625   5.077   3.419  0.5758  0.4419  0.2996
 7581TIP3    H222708   0.582   5.033   3.558  0.6079 -0.6867 -0.0386
 7582TIP3   OH222709   2.083   2.651   2.447  0.2847  0.5781  0.0154
 7582TIP3    H122710   2.014   2.716   2.432 -1.7294 -1.5488 -0.6350
 7582TIP3    H222711   2.164   2.700   2.440 -1.1161  2.9953 -0.5198
 7583TIP3   OH222712   2.747   3.811   0.831 -0.6422 -0.8515  0.5981
 7583TIP3    H122713   2.657   3.804   0.862 -1.2702 -0.0842 -0.9318
 7583TIP3    H222714   2.750   3.894   0.783  0.6226 -1.2910 -0.1467
 7584TIP3   OH222715   1.499   0.136   1.048  0.7835  0.1267 -0.0927
 7584TIP3    H122716   1.508   0.178   0.962  1.2928  0.0812 -0.0621
 7584TIP3    H222717   1.501   0.209   1.110  1.9340  0.0498 -0.0214
 7585TIP3   OH222718   3.463   1.982   3.015  0.3850 -0.1093  0.4640
 7585TIP3    H122719   3.504   2.007   2.932 -1.2107 -1.5995 -0.8367
 7585TIP3    H222720   3.534   1.990   3.080  1.4418  1.9900 -0.8223
 7586TIP3   OH222721   5.835   1.255   1.448 -0.2710 -0.1599  0.0026
 7586TIP3    H122722   5.866   1.165   1.435 -0.7390 -0.2599 -0.4358
 7586TIP3    H222723   5.897   1.292   1.510  0.4191 -0.5277 -0.4452
 7587TIP3   OH222724   1.471   5.903   5.335  0.0028  0.7498 -0.4690
 7587TIP3    H122725   1.550   5.873   5.290  0.4129  0.6898  0.2756
 7587TIP3    H222726   1.498   5.983   5.380 -0.2994  0.6170 -0.0400
 7588TIP3   OH222727   6.452   4.872   5.076 -0.3292  0.1155  0.1603
 7588TIP3    H122728   6.436   4.903   4.987 -0.8403 -2.1797 -0.5917
 7588TIP3    H222729   6.540   4.834   5.073 -0.7291 -0.8380  0.3819
 7589TIP3   OH222730   6.481   6.169   5.542 -0.3760 -0.2463 -0.3176
 7589TIP3    H122731   6.459   6.226   5.469 -0.4401  1.4662  0.9682
 7589TIP3    H222732   6.538   6.102   5.505  0.9383  1.5205 -1.6379
 7590TIP3   OH222733   4.047   6.536   4.563  0.0561 -0.4347  0.1983
 7590TIP3    H122734   3.983   6.477   4.524 -0.9857  2.0762 -2.2729
 7590TIP3    H222735   3.994   6.607   4.600  1.2693 -0.6134  2.3897
 7591TIP3   OH222736   3.194   6.541   5.836 -0.2636  0.3349 -0.0996
 7591TIP3    H122737   3.159   6.604   5.773 -0.8346 -0.2447 -0.3709
 7591TIP3    H222738   3.273   6.507   5.795 -1.0664 -0.6390 -0.8891
 7592TIP3   OH222739   4.110   3.845   0.735 -0.5050  0.4891 -0.6436
 7592TIP3    H122740   4.148   3.894   0.662 -0.3163 -1.7130 -2.1340
 7592TIP3    H222741   4.015   3.850   0.721 -0.4732  0.1710 -0.9812
 7593TIP3   OH222742   6.123   3.284   5.712  0.7769  0.2627 -0.4391
 7593TIP3    H122743   6.129   3.241   5.797 -0.4529  2.4690  0.8887
 7593TIP3    H222744   6.057   3.234   5.665  0.8339 -0.4858  0.2454
 7594TIP3   OH222745   4.883   4.767   3.294  0.1160  0.0001  0.2123
 7594TIP3    H122746   4.938   4.755   3.371 -2.5622  2.8277  2.8503
 7594TIP3    H222747   4.932   4.828   3.239  1.2493 -0.5957  0.5209
 7595TIP3   OH222748   3.606   4.158   0.640 -0.1290  0.3597 -0.0983
 7595TIP3    H122749   3.585   4.168   0.733  1.6147  1.1515  0.2519
 7595TIP3    H222750   3.545   4.216   0.595 -1.1668 -0.2320  0.5193
 7596TIP3   OH222751   1.161   6.180   5.698  0.2177 -0.2132  0.0915
 7596TIP3    H122752   1.077   6.137   5.715 -0.3867  0.9304  0.1228
 7596TIP3    H222753   1.139   6.253   5.640  0.9522  0.9617  1.2347
 7597TIP3   OH222754   5.329   5.578   3.456 -0.1434  0.1457 -0.3740
 7597TIP3    H122755   5.248   5.565   3.506 -0.4339  2.0931 -0.2689
 7597TIP3    H222756   5.370   5.655   3.495  0.9363  0.1691 -1.4822
 7598TIP3   OH222757   6.910   5.420   1.774  0.1585 -0.4429  0.2272
 7598TIP3    H122758   7.001   5.405   1.799 -0.1506 -1.2180  0.9456
 7598TIP3    H222759   6.859   5.371   1.839 -0.7397 -0.7916 -0.7171
 7599TIP3   OH222760   3.871   5.942   0.194 -0.4113 -0.3952  0.1260
 7599TIP3    H122761   3.818   5.866   0.168 -0.7215 -0.1659  0.0777
 7599TIP3    H222762   3.925   5.910   0.266 -1.0652 -0.4739  0.5967
 7600TIP3   OH222763   2.700   0.793   2.287 -0.1670 -0.1518  0.3334
 7600TIP3    H122764   2.745   0.788   2.372  0.0379  0.1858  0.2434
 7600TIP3    H222765   2.762   0.755   2.225 -0.1643 -0.0476  0.2725
 7601TIP3   OH222766   0.364   6.212   1.748 -0.1542 -0.3262 -0.1392
 7601TIP3    H122767   0.309   6.287   1.727  0.5200 -0.1345 -1.3318
 7601TIP3    H222768   0.376   6.217   1.843 -3.5593 -1.3639  0.4680
 7602TIP3   OH222769   3.651   6.399   0.830  0.4448 -0.2933  0.0362
 7602TIP3    H122770   3.619   6.311   0.850 -0.5729 -0.0049 -0.2772
 7602TIP3    H222771   3.638   6.408   0.735  0.9522  0.0450 -0.0060
 7603TIP3   OH222772   1.400   5.130   3.687  0.0902 -0.6564 -0.5927
 7603TIP3    H122773   1.461   5.152   3.757 -1.3713  3.4414 -0.3505
 7603TIP3    H222774   1.329   5.083   3.730  0.9945 -1.6025 -0.0964
 7604TIP3   OH222775   3.277   6.490   3.258  0.0953  0.6664 -0.2099
 7604TIP3    H122776   3.225   6.566   3.232 -0.9898  0.6043  1.5879
 7604TIP3    H222777   3.365   6.523   3.269 -0.2641  1.5530  0.0564
 7605TIP3   OH222778   1.087   6.280   2.506  0.5072  0.0621  0.1369
 7605TIP3    H122779   1.082   6.233   2.423 -0.5496 -1.3534  0.9580
 7605TIP3    H222780   1.036   6.361   2.491  1.4043  0.4448 -0.9520
 7606TIP3   OH222781   3.018   4.146   5.165 -0.0224  0.4885  0.1226
 7606TIP3    H122782   3.072   4.124   5.241 -0.8717 -2.2095  0.0238
 7606TIP3    H222783   3.080   4.148   5.092  0.4979  1.2629  0.5598
 7607TIP3   OH222784   1.235   3.540   2.004 -0.9295  0.5215  0.3823
 7607TIP3    H122785   1.252   3.634   2.006  0.5100  0.2898  0.1440
 7607TIP3    H222786   1.306   3.504   1.951 -0.6901 -0.8445  1.5620
 7608TIP3   OH222787   5.864   3.247   0.570  0.6707 -0.6203 -0.4377
 7608TIP3    H122788   5.820   3.247   0.485 -1.1606 -1.0116  0.4479
 7608TIP3    H222789   5.955   3.266   0.550  0.6906 -2.5510 -2.6895
 7609TIP3   OH222790   6.250  -0.009   5.843  0.0989 -0.3552 -0.2204
 7609TIP3    H122791   6.285   0.010   5.756  0.0642 -0.4304 -0.2509
 7609TIP3    H222792   6.255   0.075   5.890  0.1510 -0.3234 -0.2832
 7610TIP3   OH222793   2.897   5.686   3.203  0.1995  0.7300 -0.3870
 7610TIP3    H122794   2.851   5.614   3.247  1.0876 -0.3731 -1.1790
 7610TIP3    H222795   2.915   5.749   3.272 -0.6879  0.2344  0.3181
 7611TIP3   OH222796   3.927   0.648   3.113 -0.0979  0.2364  0.3117
 7611TIP3    H122797   3.859   0.581   3.119 -0.1622  0.2615 -0.1268
 7611TIP3    H222798   3.956   0.645   3.021  2.4997 -1.7870  1.0582
 7612TIP3   OH222799   5.313   4.962   2.599 -0.5088  0.0419 -0.1429
 7612TIP3    H122800   5.220   4.938   2.594 -0.7070  0.0016  2.4895
 7612TIP3    H222801   5.346   4.914   2.674  1.6393  0.2364 -0.9014
 7613TIP3   OH222802   0.967   3.515   4.504 -0.5802 -0.2567  0.3401
 7613TIP3    H122803   1.048   3.492   4.458  0.5858  0.5321  1.8936
 7613TIP3    H222804   0.966   3.611   4.503 -1.4690 -0.2591  0.4170
 7614TIP3   OH222805   1.729   3.423   3.060 -0.8801  0.0048 -0.6635
 7614TIP3    H122806   1.814   3.383   3.043 -1.2734 -1.0511 -0.2162
 7614TIP3    H222807   1.684   3.361   3.118 -2.1139  0.3341 -1.2275
 7615TIP3   OH222808   2.117   6.162   1.675  0.8687  0.3222  0.0637
 7615TIP3    H122809   2.136   6.079   1.630 -1.8290 -0.9308  0.9869
 7615TIP3    H222810   2.031   6.187   1.642  0.3436  1.1772  1.9459
 7616TIP3   OH222811   2.620   3.712   2.338  0.0714  0.7195 -0.3742
 7616TIP3    H122812   2.603   3.807   2.338 -1.3395  0.4900 -0.7375
 7616TIP3    H222813   2.537   3.673   2.311  0.7364 -0.6165 -0.5667
 7617TIP3   OH222814   4.807   3.023   2.060 -0.1410  0.6927 -0.0983
 7617TIP3    H122815   4.895   3.060   2.055  0.7182 -1.3395 -1.3156
 7617TIP3    H222816   4.801   2.987   2.149  0.3882  0.5713 -0.1077
 7618TIP3   OH222817   4.922   3.382   5.399  0.0910  0.0309  0.2593
 7618TIP3    H122818   4.858   3.454   5.396 -0.3323 -0.3477 -0.0211
 7618TIP3    H222819   4.868   3.303   5.390  0.4950 -0.3472  1.1300
 7619TIP3   OH222820   0.309   6.663   4.426  0.3442 -0.1227  0.8367
 7619TIP3    H122821   0.317   6.739   4.369  2.2967  1.6726  3.3245
 7619TIP3    H222822   0.224   6.673   4.469  0.0006 -0.1230  0.1696
 7620TIP3   OH222823   6.756   6.373   3.426  0.3181  0.5519  0.2358
 7620TIP3    H122824   6.810   6.300   3.456  1.0221  0.4933 -1.0875
 7620TIP3    H222825   6.715   6.406   3.505  1.1382 -0.3480  1.0726
 7621TIP3   OH222826   6.466   4.023   5.149  0.2779 -0.2323  0.1149
 7621TIP3    H122827   6.466   4.059   5.238 -0.9925 -0.3049  0.1557
 7621TIP3    H222828   6.377   4.038   5.116  1.3007  1.9472 -2.0302
 7622TIP3   OH222829   5.258   2.843   1.295  0.0195  0.1184  0.1569
 7622TIP3    H122830   5.327   2.908   1.292  0.8190 -0.7298 -0.3908
 7622TIP3    H222831   5.178   2.893   1.315  0.6131  1.2364 -0.2011
 7623TIP3   OH222832   3.542   6.302   2.328 -0.4397  0.3732  0.3646
 7623TIP3    H122833   3.539   6.277   2.420 -1.0829  0.8249  0.4738
 7623TIP3    H222834   3.595   6.234   2.287  1.3467  1.1294  1.3438
 7624TIP3   OH222835   1.826   0.183   4.571 -0.0719 -0.4136  0.4965
 7624TIP3    H122836   1.761   0.121   4.605 -1.7295  0.7978 -0.3655
 7624TIP3    H222837   1.889   0.127   4.526 -1.8174 -1.5049 -0.7430
 7625TIP3   OH222838   3.558   5.534   1.507 -0.4360  0.0310 -0.3253
 7625TIP3    H122839   3.576   5.545   1.600  0.4037  0.7467 -0.5583
 7625TIP3    H222840   3.641   5.505   1.469 -1.1717 -1.8012 -0.6275
 7626TIP3   OH222841   5.046   1.710   4.154 -0.8300  0.1969 -0.7369
 7626TIP3    H122842   5.018   1.802   4.149 -0.5608  0.4439  1.3707
 7626TIP3    H222843   5.138   1.715   4.182 -0.0560 -0.7104 -2.8653
 7627TIP3   OH222844   1.898   5.492   0.029 -0.7120 -0.8386 -0.0673
 7627TIP3    H122845   1.937   5.572  -0.008 -0.9140 -0.6005  0.2308
 7627TIP3    H222846   1.973   5.435   0.046 -0.6502 -1.1391 -1.2812
 7628TIP3   OH222847   5.967   5.326   5.757  0.0554 -0.2017 -0.3248
 7628TIP3    H122848   6.005   5.241   5.734 -1.2189 -1.0730  0.6804
 7628TIP3    H222849   5.882   5.327   5.713 -0.0714  0.4357 -0.0720
 7629TIP3   OH222850   5.929   6.379   1.164  0.6437 -1.0746  0.1382
 7629TIP3    H122851   5.988   6.436   1.115 -0.3545  1.2726  1.5295
 7629TIP3    H222852   5.982   6.349   1.238  1.6355 -3.2971 -1.3618
 7630TIP3   OH222853   1.737   5.350   4.130  0.0881  0.0894  0.4250
 7630TIP3    H122854   1.642   5.349   4.146  0.0516 -1.4922  0.2430
 7630TIP3    H222855   1.748   5.305   4.047  0.9516  1.0916 -0.0330
 7631TIP3   OH222856   6.842   5.633   0.249  0.5939 -0.2740 -0.0948
 7631TIP3    H122857   6.816   5.623   0.158  0.0972  1.4700 -0.1693
 7631TIP3    H222858   6.932   5.667   0.245 -0.3097  2.3234 -0.0464
 7632TIP3   OH222859   1.005   2.043   0.199 -0.0100 -0.0547 -0.8991
 7632TIP3    H122860   1.019   2.137   0.190  0.8320 -0.1321 -0.5576
 7632TIP3    H222861   1.085   2.004   0.164  0.9023 -0.5352  1.4877
 7633TIP3   OH222862   6.436   6.594   5.003 -0.2462 -0.2169  0.5417
 7633TIP3    H122863   6.437   6.556   4.915  0.2716  2.0006 -0.4853
 7633TIP3    H222864   6.519   6.640   5.010 -1.2734  1.6379  1.2462
 7634TIP3   OH222865   3.934   4.421   5.074  0.4727  0.3119 -0.1107
 7634TIP3    H122866   3.861   4.428   5.014 -0.0485  0.2793  0.5129
 7634TIP3    H222867   3.904   4.362   5.143  0.9186  0.6503  0.3855
 7635TIP3   OH222868   3.213   4.898   2.201 -0.4528 -0.2416 -1.0072
 7635TIP3    H122869   3.266   4.957   2.147 -0.0615 -0.1603 -0.5454
 7635TIP3    H222870   3.123   4.923   2.182 -0.2946  1.4948  0.2348
 7636TIP3   OH222871   2.560   0.884   2.984  0.6452  0.0576  0.2423
 7636TIP3    H122872   2.593   0.805   3.028 -0.2757 -1.2862 -1.3517
 7636TIP3    H222873   2.472   0.895   3.018  0.7215  0.3325  0.3541
 7637TIP3   OH222874   5.080   5.975   3.543 -0.5583  0.0667  0.2883
 7637TIP3    H122875   5.127   5.995   3.462  0.1233 -0.1607  0.6149
 7637TIP3    H222876   5.120   6.032   3.609  0.0723 -0.9394  0.8092
 7638TIP3   OH222877   0.154   1.272   1.156  0.2902 -0.5186 -0.4291
 7638TIP3    H122878   0.224   1.334   1.177  0.1327 -0.3588 -0.3820
 7638TIP3    H222879   0.086   1.290   1.220 -0.5580  0.5569 -1.5931
 7639TIP3   OH222880   2.061   4.998   4.186  0.3212  0.0511 -0.3439
 7639TIP3    H122881   2.105   4.987   4.270  1.6023 -0.0920 -1.0183
 7639TIP3    H222882   2.127   4.977   4.121 -0.6184  0.2851 -1.4035
 7640TIP3   OH222883   0.878   5.019   1.962 -0.4832 -0.1171  0.3999
 7640TIP3    H122884   0.897   4.931   1.995 -0.9175  0.0620  1.1621
 7640TIP3    H222885   0.888   5.075   2.038 -1.6661  0.2952  0.2692
 7641TIP3   OH222886   5.886   4.975   3.273  0.3607  0.1240 -0.0626
 7641TIP3    H122887   5.838   5.003   3.195 -0.5625  0.2418  0.5241
 7641TIP3    H222888   5.877   5.048   3.334 -3.1843 -1.7057  1.9809
 7642TIP3   OH222889   3.970   3.328   5.156  0.1545 -0.5347  0.0631
 7642TIP3    H122890   3.932   3.264   5.216  1.3052  0.9736  2.5349
 7642TIP3    H222891   3.929   3.309   5.072 -0.9385 -3.2768  1.1017
 7643TIP3   OH222892   4.157   1.625   3.282  0.1522  0.4029 -0.3187
 7643TIP3    H122893   4.230   1.685   3.297 -1.3314  2.2397 -0.0420
 7643TIP3    H222894   4.102   1.634   3.360  0.2262 -1.9228  0.0737
 7644TIP3   OH222895   6.588   4.526   3.043 -0.0488 -0.0968 -0.0154
 7644TIP3    H122896   6.632   4.531   2.957  1.4670 -1.0738  0.6672
 7644TIP3    H222897   6.627   4.598   3.093 -1.5838  1.0459 -0.3862
 7645TIP3   OH222898   2.810   2.495   2.759  0.0244 -0.0626 -0.7657
 7645TIP3    H122899   2.775   2.508   2.671  0.6046  0.6078 -0.8997
 7645TIP3    H222900   2.839   2.404   2.760  2.6281  0.6572 -2.2300
 7646TIP3   OH222901   2.154   0.235   5.410  0.4347  0.2913 -0.3775
 7646TIP3    H122902   2.095   0.177   5.457  0.1607  1.0530  0.2409
 7646TIP3    H222903   2.115   0.244   5.323 -0.1882  0.5283 -0.0793
 7647TIP3   OH222904   5.092   0.264   2.864 -0.3026 -0.7496 -0.2777
 7647TIP3    H122905   5.136   0.330   2.918 -0.2059 -0.3218 -0.8651
 7647TIP3    H222906   5.126   0.280   2.776 -2.3528  0.2581 -0.9488
 7648TIP3   OH222907   2.527   2.640   1.255 -0.2486  0.1736 -0.0956
 7648TIP3    H122908   2.622   2.635   1.242 -0.1880 -2.0801  0.7736
 7648TIP3    H222909   2.490   2.593   1.181 -0.6213  0.0128  0.1903
 7649TIP3   OH222910   6.698   2.669   0.083 -0.3408 -0.1743  0.1028
 7649TIP3    H122911   6.620   2.686   0.029 -0.4311 -0.6021  0.0926
 7649TIP3    H222912   6.771   2.684   0.024 -0.4344 -0.4118 -0.0778
 7650TIP3   OH222913   3.831   1.211   0.882  0.4990 -0.5802  0.0925
 7650TIP3    H122914   3.842   1.151   0.809  0.7900 -0.0099 -0.3312
 7650TIP3    H222915   3.915   1.256   0.891  0.3592 -0.3982  0.5570
 7651TIP3   OH222916   6.048   0.975   3.003  0.1457  0.9586 -0.0246
 7651TIP3    H122917   6.064   1.056   3.053 -0.6638  0.5580  0.9129
 7651TIP3    H222918   5.969   0.994   2.952  1.7767  1.9052 -2.4150
 7652TIP3   OH222919   5.636   3.438   0.470 -0.3032 -0.4778  0.3897
 7652TIP3    H122920   5.589   3.496   0.411  0.9233  0.3812  0.2099
 7652TIP3    H222921   5.648   3.357   0.420  0.7696  0.2578 -0.6072
 7653TIP3   OH222922   7.171   0.424   4.951  0.1103 -0.5714  0.2447
 7653TIP3    H122923   7.121   0.496   4.912 -0.4280 -0.6943  0.6981
 7653TIP3    H222924   7.253   0.465   4.980 -0.1650 -0.1549  0.4425
 7654TIP3   OH222925   0.291   1.553   5.219  0.1297 -0.1566  0.2196
 7654TIP3    H122926   0.368   1.607   5.240  0.1634 -0.7757  1.8552
 7654TIP3    H222927   0.325   1.464   5.215 -0.1312 -0.2073 -1.3117
 7655TIP3   OH222928   1.905   5.584   4.097  0.1104 -0.4997 -0.1202
 7655TIP3    H122929   1.875   5.493   4.109  0.3064 -0.6967 -1.0000
 7655TIP3    H222930   1.865   5.611   4.014  0.6408 -0.0339 -0.2311
 7656TIP3   OH222931   4.345   4.235   0.718 -0.2482  1.0582  0.1420
 7656TIP3    H122932   4.328   4.310   0.775  0.4207  1.0090  0.4185
 7656TIP3    H222933   4.259   4.206   0.690 -0.5036  2.3475 -0.5191
 7657TIP3   OH222934   5.299   3.034   0.252 -0.8807 -0.3286 -0.0095
 7657TIP3    H122935   5.260   3.075   0.175 -0.3560  1.0610  0.4269
 7657TIP3    H222936   5.374   2.986   0.218 -0.9592 -0.1569 -0.4271
 7658TIP3   OH222937   4.052   3.718   2.746  0.2028  0.7396  0.6644
 7658TIP3    H122938   4.111   3.690   2.816  2.0277  3.0085  0.1836
 7658TIP3    H222939   4.098   3.698   2.665 -1.1938 -0.4167  0.1056
 7659TIP3   OH222940   2.254   0.559   4.363 -0.6588 -0.1994  0.5401
 7659TIP3    H122941   2.262   0.653   4.381 -0.1785 -0.4071  1.4728
 7659TIP3    H222942   2.328   0.519   4.410 -1.1180 -1.0872  0.5343
 7660TIP3   OH222943   1.534   5.138   3.913  0.3618  0.1992 -0.6637
 7660TIP3    H122944   1.623   5.169   3.896  0.6309 -0.0040  0.2867
 7660TIP3    H222945   1.491   5.211   3.957  0.2299  0.1038 -0.6338
 7661TIP3   OH222946   7.060   6.364   1.790  0.1775  0.1650  0.1597
 7661TIP3    H122947   7.007   6.402   1.720  1.0058  1.0787  0.0194
 7661TIP3    H222948   6.999   6.306   1.837 -0.2888 -0.8178 -1.5669
 7662TIP3   OH222949   2.259   1.449   3.067  0.1586  0.9629 -0.2933
 7662TIP3    H122950   2.221   1.392   3.134 -0.9177  1.8984 -0.0656
 7662TIP3    H222951   2.353   1.431   3.070  0.0126  0.2947  0.8079
 7663TIP3   OH222952   3.773   2.025   0.243 -0.2206  0.0072 -0.4366
 7663TIP3    H122953   3.850   2.045   0.296 -0.6044 -1.3729  0.6995
 7663TIP3    H222954   3.803   1.956   0.183  0.3410  1.8652 -2.4346
 7664TIP3   OH222955   4.594   4.955   2.249 -0.5622 -0.1492  0.0367
 7664TIP3    H122956   4.683   4.933   2.221  0.4035  2.5242  0.6437
 7664TIP3    H222957   4.561   5.011   2.178 -0.9127  0.6378  0.8100
 7665TIP3   OH222958   5.377   5.633   2.292  0.2787  0.4798  0.6498
 7665TIP3    H122959   5.367   5.704   2.229  1.4249 -0.2033 -0.3436
 7665TIP3    H222960   5.378   5.553   2.239  2.5888 -0.0384  1.3420
 7666TIP3   OH222961   5.294   0.878   4.898  0.0382  0.0499  0.2082
 7666TIP3    H122962   5.274   0.896   4.806  3.0722 -2.3442 -1.1036
 7666TIP3    H222963   5.235   0.805   4.921 -0.1891  0.1325 -0.0978
 7667TIP3   OH222964   5.465   1.678   3.999 -0.1743  0.2354  0.0186
 7667TIP3    H122965   5.423   1.679   3.913 -3.3155 -0.9453  1.3972
 7667TIP3    H222966   5.507   1.764   4.006 -1.1890  0.9589 -2.0580
 7668TIP3   OH222967   7.063   5.739   4.933 -0.1167 -0.9054  0.8427
 7668TIP3    H122968   7.069   5.813   4.873 -0.1287 -1.2323  0.4367
 7668TIP3    H222969   7.154   5.709   4.943 -0.1307 -0.9340  0.8826
 7669TIP3   OH222970   4.813   5.921   3.607 -0.1870  0.0577 -0.2525
 7669TIP3    H122971   4.802   5.863   3.683 -0.2062  0.7807  0.3026
 7669TIP3    H222972   4.904   5.949   3.611 -0.4208  0.7944  0.0113
 7670TIP3   OH222973   5.529   0.138   1.232 -0.2673 -0.2880  0.2220
 7670TIP3    H122974   5.457   0.075   1.226 -0.4661 -0.3150  2.2741
 7670TIP3    H222975   5.503   0.198   1.301  0.5969  1.1908 -0.6874
 7671TIP3   OH222976   1.439   5.930   0.501  0.2099  0.2525  0.5508
 7671TIP3    H122977   1.427   5.925   0.407 -0.9233 -0.0248  0.6955
 7671TIP3    H222978   1.489   6.011   0.515 -1.1777  1.2789 -0.1679
 7672TIP3   OH222979   6.284   5.847   1.007  0.1416  0.0812 -0.3172
 7672TIP3    H122980   6.230   5.813   1.077 -0.7469 -0.4281 -1.2231
 7672TIP3    H222981   6.348   5.778   0.989 -0.2893 -0.2286 -0.6924
 7673TIP3   OH222982   2.426   1.005   1.750 -0.7193  0.0106  0.4596
 7673TIP3    H122983   2.435   1.076   1.687 -0.5983  0.6052  1.1301
 7673TIP3    H222984   2.359   0.948   1.713  1.5593 -1.4034 -1.8014
 7674TIP3   OH222985   6.765   6.542   0.664  0.0171 -0.4902 -0.3778
 7674TIP3    H122986   6.698   6.474   0.650  0.4348 -1.2687  1.2229
 7674TIP3    H222987   6.806   6.553   0.578 -1.4836 -0.7113 -1.1619
 7675TIP3   OH222988   2.802   2.773   3.480 -0.1870 -0.6570 -0.2132
 7675TIP3    H122989   2.868   2.809   3.421 -1.4785 -0.3690 -1.5330
 7675TIP3    H222990   2.848   2.762   3.564  1.1722  0.7252 -0.7384
 7676TIP3   OH222991  -0.025   0.224   2.950 -0.6461  0.3648  0.3025
 7676TIP3    H122992   0.053   0.189   2.907 -2.0281 -1.4938 -0.8681
 7676TIP3    H222993  -0.008   0.213   3.044 -0.1106 -1.5621  0.0335
 7677TIP3   OH222994   0.883   4.566   2.622 -0.0084  0.1262  0.1655
 7677TIP3    H122995   0.803   4.617   2.633  0.9767  2.4963 -2.4856
 7677TIP3    H222996   0.869   4.516   2.541  1.3659  1.0440 -0.6702
 7678TIP3   OH222997   1.259   1.062   2.643 -0.5013 -0.1677  0.6090
 7678TIP3    H122998   1.207   0.989   2.675 -0.2687 -1.1277 -1.0571
 7678TIP3    H222999   1.271   1.043   2.550  1.6966  0.6973  0.6613
 7679TIP3   OH223000   3.674   3.160   2.577 -0.0188  0.2259 -0.4395
 7679TIP3    H123001   3.737   3.224   2.543 -0.1413 -0.6804 -2.5733
 7679TIP3    H223002   3.718   3.076   2.568 -0.6078 -0.1825  0.4044
 7680TIP3   OH223003   2.872   1.026   4.188  0.2481 -0.4724 -0.5833
 7680TIP3    H123004   2.834   1.086   4.253 -2.0068 -0.4624 -1.7885
 7680TIP3    H223005   2.902   0.951   4.239  1.3112  0.8240  0.7490
 7681TIP3   OH223006   5.517   1.822   0.887 -0.3228 -0.5642  0.0192
 7681TIP3    H123007   5.568   1.842   0.965 -0.5113  0.0461 -0.0044
 7681TIP3    H223008   5.486   1.733   0.900  0.6703 -0.9053  0.0747
 7682TIP3   OH223009   2.005   2.117   2.803 -0.6774 -0.2765  0.2693
 7682TIP3    H123010   2.007   2.198   2.853 -1.2960  0.1253 -0.3327
 7682TIP3    H223011   1.912   2.098   2.791 -0.6313 -2.4442  2.5290
 7683TIP3   OH223012   3.527   0.381   0.684 -0.2584 -0.4687  0.5018
 7683TIP3    H123013   3.619   0.401   0.666 -0.0777 -2.3025 -0.9267
 7683TIP3    H223014   3.479   0.424   0.613 -0.4952  0.2799  1.1061
 7684TIP3   OH223015   4.424   3.836   1.874 -0.3707  0.5684 -0.3513
 7684TIP3    H123016   4.397   3.906   1.934 -1.7399 -0.5368  0.3837
 7684TIP3    H223017   4.345   3.816   1.824  0.4095  0.5668 -1.6431
 7685TIP3   OH223018   1.639   6.038   1.366 -0.4452  0.2471 -0.1005
 7685TIP3    H123019   1.569   6.096   1.397 -0.2057  0.0648  0.7963
 7685TIP3    H223020   1.687   6.090   1.302 -0.5073  0.8753  0.3603
 7686TIP3   OH223021   2.590   5.851   0.398  0.3578 -0.2914  0.3471
 7686TIP3    H123022   2.606   5.788   0.468 -1.2521 -1.3859 -0.2059
 7686TIP3    H223023   2.578   5.798   0.319 -0.8958  0.6808 -0.1597
 7687TIP3   OH223024   4.728   0.256   5.700 -0.3318  0.8621 -0.2616
 7687TIP3    H123025   4.764   0.332   5.653  1.2226  0.7204  0.6461
 7687TIP3    H223026   4.796   0.189   5.694 -0.5280  0.4816  1.2841
 7688TIP3   OH223027   4.145   3.919   2.430 -0.1265  0.2057  0.1918
 7688TIP3    H123028   4.218   3.974   2.401  0.7841 -0.8789  0.3454
 7688TIP3    H223029   4.157   3.837   2.382  0.1932 -0.8724  2.0449
 7689TIP3   OH223030   6.583   1.081   1.435  0.0890  0.1842 -0.2425
 7689TIP3    H123031   6.560   1.144   1.504  0.8939  0.5935 -0.3287
 7689TIP3    H223032   6.655   1.124   1.387 -0.2722 -0.2122 -1.1649
 7690TIP3   OH223033   6.765   1.799   0.037  0.4602  0.5880  0.1462
 7690TIP3    H123034   6.713   1.875   0.062  0.9158  1.1187 -0.4860
 7690TIP3    H223035   6.700   1.734   0.010  0.1147  1.4954 -1.3348
 7691TIP3   OH223036   1.462   3.671   5.572 -0.2547  0.2848  0.3460
 7691TIP3    H123037   1.501   3.669   5.485  0.2528 -0.8335  0.5839
 7691TIP3    H223038   1.372   3.640   5.559 -0.3015  0.4885  0.1746
 7692TIP3   OH223039   2.740   2.119   2.514 -0.5243 -0.0095 -0.1980
 7692TIP3    H123040   2.758   2.196   2.459 -0.4785  1.5871  1.9055
 7692TIP3    H223041   2.793   2.049   2.475  2.3372  1.9490 -0.1642
 7693TIP3   OH223042   0.474   5.711   0.779 -0.3101 -0.6307 -0.3962
 7693TIP3    H123043   0.538   5.731   0.848 -0.4066 -2.0109  0.1179
 7693TIP3    H223044   0.390   5.740   0.816 -0.2578 -0.6517 -0.2602
 7694TIP3   OH223045   1.320   2.497   5.621  0.0810 -0.3062 -0.6675
 7694TIP3    H123046   1.387   2.463   5.679 -0.7922 -0.4068  0.3181
 7694TIP3    H223047   1.283   2.572   5.668  0.1507  0.3478 -1.6176
 7695TIP3   OH223048   2.844   6.403   0.881  0.5040  0.1056  0.9961
 7695TIP3    H123049   2.779   6.412   0.810 -0.7337 -2.5745  1.6836
 7695TIP3    H223050   2.926   6.382   0.836  0.8532  2.8521  0.1588
 7696TIP3   OH223051   1.430   4.608   4.727 -0.1989 -0.0185  0.0560
 7696TIP3    H123052   1.429   4.651   4.641 -3.3829  0.6358  0.2960
 7696TIP3    H223053   1.385   4.524   4.712 -2.5464  0.9174  1.3369
 7697TIP3   OH223054   1.442   2.956   4.210  0.7327  0.1747  0.1388
 7697TIP3    H123055   1.364   3.001   4.243  0.4196  0.1928 -0.6209
 7697TIP3    H223056   1.472   2.903   4.285 -0.4335 -0.4123  0.2166
 7698TIP3   OH223057   3.453   2.945   2.929  0.0113  0.6641  0.0797
 7698TIP3    H123058   3.382   2.998   2.962 -0.3519 -0.5879  1.4128
 7698TIP3    H223059   3.410   2.872   2.884  0.4420 -0.0430  0.7989
 7699TIP3   OH223060   5.688   5.822   3.996  0.4903 -0.2730 -0.2086
 7699TIP3    H123061   5.720   5.908   4.022  2.2535 -1.2254  0.9391
 7699TIP3    H223062   5.596   5.836   3.975  0.6492  1.8123  0.3044
 7700TIP3   OH223063   2.604   1.112   2.668  0.4279  0.5323  0.0591
 7700TIP3    H123064   2.632   1.078   2.583 -0.6217 -0.6729  0.1685
 7700TIP3    H223065   2.522   1.157   2.651 -1.1939 -1.9436  0.7600
 7701TIP3   OH223066   5.110   3.802   2.106  0.1156  0.4437 -0.0549
 7701TIP3    H123067   5.171   3.863   2.064  0.1219  0.2277 -0.3587
 7701TIP3    H223068   5.079   3.849   2.183 -0.8576  1.3470 -0.9592
 7702TIP3   OH223069   4.768   5.746   4.906  0.3373  0.1511 -0.4815
 7702TIP3    H123070   4.794   5.787   4.989  0.8037 -1.5933  0.2768
 7702TIP3    H223071   4.789   5.654   4.917 -2.0655 -0.6193 -1.5408
 7703TIP3   OH223072   7.077   3.624   4.944 -0.7491  0.1713 -0.7261
 7703TIP3    H123073   7.013   3.675   4.994 -1.5358  0.1614 -1.6904
 7703TIP3    H223074   7.031   3.543   4.921  0.2463 -0.6676  0.1555
 7704TIP3   OH223075   0.995   1.288   4.540 -0.2101  0.0612 -0.0072
 7704TIP3    H123076   0.927   1.222   4.525 -2.0347  0.9664  3.2934
 7704TIP3    H223077   1.074   1.238   4.558 -0.4521 -1.0728 -1.8276
 7705TIP3   OH223078   1.104   1.654   4.516  0.1049  0.0051  0.3112
 7705TIP3    H123079   1.152   1.574   4.540 -0.3770 -0.2172  0.5447
 7705TIP3    H223080   1.026   1.622   4.471  0.2299  0.3699 -0.1639
 7706TIP3   OH223081   2.868   3.440   0.008 -0.3398 -0.0559 -0.0428
 7706TIP3    H123082   2.940   3.482   0.055  0.2871 -1.0044 -0.1357
 7706TIP3    H223083   2.825   3.386   0.074 -1.9463  1.6463  0.4053
 7707TIP3   OH223084   6.782   0.250   5.439  0.1607  0.0194 -0.3531
 7707TIP3    H123085   6.866   0.256   5.392  0.5400 -3.8381 -0.5607
 7707TIP3    H223086   6.793   0.306   5.515  2.4731  0.5961 -1.0134
 7708TIP3   OH223087   2.595   6.746   5.168  0.0950 -0.2211  0.0952
 7708TIP3    H123088   2.664   6.811   5.183  0.4415 -0.3267 -0.9831
 7708TIP3    H223089   2.530   6.764   5.236  0.2938  1.1161 -0.0430
 7709TIP3   OH223090   5.035   0.266   5.551 -0.6075  0.3577  0.5579
 7709TIP3    H123091   4.967   0.297   5.491 -1.0471  1.2684  1.4977
 7709TIP3    H223092   4.998   0.186   5.590  0.5656 -1.5629 -1.9388
 7710TIP3   OH223093   5.948   2.901   3.537 -0.6419 -0.0110  0.4778
 7710TIP3    H123094   6.026   2.956   3.549 -1.0126  0.8834 -0.9492
 7710TIP3    H223095   5.904   2.939   3.461 -1.8683 -1.2151  0.5580
 7711TIP3   OH223096   6.782   1.083   5.816 -0.4411 -0.0359 -0.5620
 7711TIP3    H123097   6.738   1.104   5.898  0.7433  1.2013 -0.2118
 7711TIP3    H223098   6.781   1.164   5.766 -2.5137 -1.1505 -2.4939
 7712TIP3   OH223099   2.960   1.944   2.365  0.4011 -0.3554  0.2502
 7712TIP3    H123100   2.915   1.882   2.423 -1.1239  1.3397  0.9783
 7712TIP3    H223101   2.974   1.895   2.284  0.4840 -2.0571  1.2555
 7713TIP3   OH223102   0.108   5.799   4.397  0.1017 -0.0853 -0.0837
 7713TIP3    H123103   0.048   5.791   4.323 -1.0059  1.6133  0.5633
 7713TIP3    H223104   0.111   5.893   4.415  1.1785 -0.3661  1.3612
 7714TIP3   OH223105   6.043   0.516   0.519 -0.2849  0.4470  0.5361
 7714TIP3    H123106   6.007   0.586   0.464  0.2164  0.8558  0.7190
 7714TIP3    H223107   5.984   0.443   0.506  0.0157  0.4118 -0.8583
 7715TIP3   OH223108   0.542   5.639   4.259  0.2896 -0.7634 -0.0666
 7715TIP3    H123109   0.544   5.667   4.168  0.1939 -0.5792 -0.0121
 7715TIP3    H223110   0.449   5.635   4.281  0.3188  1.3947  0.6935
 7716TIP3   OH223111   5.859   5.088   4.238  0.1339 -0.1177  0.4983
 7716TIP3    H123112   5.791   5.072   4.173  0.5744 -0.0272  0.0075
 7716TIP3    H223113   5.902   5.168   4.209  1.0935 -0.7070  0.2361
 7717TIP3   OH223114   4.684   0.749   4.468 -0.1631  0.4708  0.4834
 7717TIP3    H123115   4.661   0.665   4.509 -1.1904  1.2850  1.6402
 7717TIP3    H223116   4.739   0.724   4.393  0.6855 -1.1592  1.5659
 7718TIP3   OH223117   5.958   2.409   4.811  0.2434 -0.2040 -0.0950
 7718TIP3    H123118   5.935   2.334   4.757  0.5215  0.2840 -0.9131
 7718TIP3    H223119   5.881   2.466   4.807 -0.4971 -0.9986  1.5900
 7719TIP3   OH223120   6.807   0.143   1.843 -0.2010  0.5510  0.3232
 7719TIP3    H123121   6.773   0.223   1.804 -0.3826  0.6229  0.6253
 7719TIP3    H223122   6.852   0.171   1.922 -1.3363  0.2520  1.1102
 7720TIP3   OH223123   4.736   2.749   3.625  0.0868 -0.0066  0.1957
 7720TIP3    H123124   4.665   2.718   3.569  0.1307 -0.0168  0.1463
 7720TIP3    H223125   4.814   2.705   3.593  0.2966  0.8061 -0.4306
 7721TIP3   OH223126   1.415   3.926   1.181 -0.0105 -0.1678 -0.0411
 7721TIP3    H123127   1.427   3.996   1.245  0.2204  0.4360 -0.7243
 7721TIP3    H223128   1.372   3.856   1.229  1.9396 -0.5334  1.3167
 7722TIP3   OH223129   2.305   3.411   4.974  0.4004 -0.5548 -0.4838
 7722TIP3    H123130   2.244   3.354   5.022 -2.0104  1.2202 -1.2047
 7722TIP3    H223131   2.275   3.500   4.996  1.7844  0.3608 -2.1259
 7723TIP3   OH223132   0.848   0.107   1.527 -0.0156 -0.6876 -0.6095
 7723TIP3    H123133   0.780   0.172   1.511  0.4260 -0.1409 -0.3074
 7723TIP3    H223134   0.821   0.031   1.477 -0.8029 -0.4444 -0.5597
 7724TIP3   OH223135   6.460   4.373   1.407 -0.0460 -0.0499 -0.5048
 7724TIP3    H123136   6.507   4.292   1.430  0.2495  0.3843  0.4855
 7724TIP3    H223137   6.523   4.443   1.424 -0.1842  0.3841 -1.6950
 7725TIP3   OH223138   2.024   0.839   0.420 -0.2188  0.2776 -0.3356
 7725TIP3    H123139   1.978   0.887   0.488 -2.4781 -1.5856 -0.4196
 7725TIP3    H223140   1.967   0.847   0.343  0.8197 -0.1262 -1.1700
 7726TIP3   OH223141   6.275   6.710   4.498  0.0854  0.9809  0.2103
 7726TIP3    H123142   6.218   6.640   4.466  1.5813 -0.6913  0.9637
 7726TIP3    H223143   6.303   6.756   4.419  1.2582 -1.0830 -0.6686
 7727TIP3   OH223144   3.511   4.098   3.255  0.0559  0.2918 -0.0167
 7727TIP3    H123145   3.420   4.088   3.283  0.4063  0.3019  1.1730
 7727TIP3    H223146   3.553   4.017   3.281  1.0278  1.4097  2.0810
 7728TIP3   OH223147   4.485   6.676   3.112 -0.4099 -0.7835  0.0293
 7728TIP3    H123148   4.563   6.678   3.167  0.7630 -3.2824 -1.3701
 7728TIP3    H223149   4.469   6.768   3.089  1.4167 -0.1090  1.2814
 7729TIP3   OH223150   5.948   4.479   3.986 -0.1646 -0.1343 -0.0563
 7729TIP3    H123151   5.954   4.560   3.935 -0.7574  1.2546  1.9752
 7729TIP3    H223152   5.891   4.422   3.934 -3.1682  2.2967  0.2925
 7730TIP3   OH223153   6.464   5.233   1.784 -0.9622  0.1016  0.6433
 7730TIP3    H123154   6.522   5.225   1.708  1.2305  0.5202  2.1553
 7730TIP3    H223155   6.391   5.175   1.765 -0.1885 -0.2638 -1.5111
 7731TIP3   OH223156   3.898   5.639   4.781  0.4841 -0.0905 -0.2282
 7731TIP3    H123157   3.957   5.580   4.734  1.3496  0.7191 -0.1900
 7731TIP3    H223158   3.923   5.727   4.751 -0.7563  0.2626 -0.2636
 7732TIP3   OH223159   5.153   2.254   3.133 -0.1363  0.2366  0.0604
 7732TIP3    H123160   5.179   2.343   3.107  0.4616 -0.2855 -1.2065
 7732TIP3    H223161   5.235   2.206   3.142 -0.3186  0.3019  2.8070
 7733TIP3   OH223162   1.190   0.040   3.458  0.3230 -0.2377 -0.3927
 7733TIP3    H123163   1.135  -0.009   3.397 -0.0099 -0.1557 -0.1585
 7733TIP3    H223164   1.129   0.076   3.522  0.6270  0.0281 -0.2510
 7734TIP3   OH223165   3.091   6.549   4.204  0.2722  0.0960 -0.1493
 7734TIP3    H123166   3.095   6.563   4.299  0.4763  1.1116 -0.2957
 7734TIP3    H223167   3.096   6.454   4.194  1.5014  0.0352  0.7964
 7735TIP3   OH223168   0.807   3.121   4.071  0.5978 -0.5110  0.5033
 7735TIP3    H123169   0.743   3.147   4.005 -0.8109 -0.8143  1.6976
 7735TIP3    H223170   0.874   3.189   4.067  0.8436 -0.8320 -1.5990
 7736TIP3   OH223171   4.980   1.254   0.697 -0.0432 -0.4313 -0.0759
 7736TIP3    H123172   4.955   1.347   0.701  1.4382 -0.0567  1.2508
 7736TIP3    H223173   5.057   1.252   0.641  1.7713 -0.3625  2.2727
 7737TIP3   OH223174   1.310   3.782   3.980 -0.2412  0.4355  0.0174
 7737TIP3    H123175   1.264   3.825   4.053 -0.2390  0.6031 -0.0801
 7737TIP3    H223176   1.242   3.733   3.935 -0.1674  0.0000  0.3744
 7738TIP3   OH223177   0.158   0.243   4.612  0.2563  0.1307 -0.1749
 7738TIP3    H123178   0.128   0.256   4.523 -1.2758 -1.6810  0.0201
 7738TIP3    H223179   0.079   0.248   4.666  1.3641  3.3463  1.4555
 7739TIP3   OH223180   2.215   6.717   3.455 -0.3572 -0.0045 -0.7084
 7739TIP3    H123181   2.132   6.739   3.498 -0.3112 -0.7659 -0.2165
 7739TIP3    H223182   2.213   6.766   3.373 -0.9848  0.5252 -0.3869
 7740TIP3   OH223183   1.599   0.120   3.768  0.1657 -0.1447 -0.2249
 7740TIP3    H123184   1.566   0.174   3.696 -2.9245  1.8200  2.4012
 7740TIP3    H223185   1.694   0.130   3.765  0.0716  0.6527 -3.3247
 7741TIP3   OH223186   2.380   1.375   3.326 -0.2741 -0.6971 -0.4739
 7741TIP3    H123187   2.449   1.309   3.321  0.3752  0.0275 -1.6463
 7741TIP3    H223188   2.300   1.329   3.302  0.0517 -1.2144 -0.5777
 7742TIP3   OH223189   2.643   4.160   1.024  0.3690  0.7046  0.6181
 7742TIP3    H123190   2.646   4.140   1.117 -1.4612  1.0452  0.7958
 7742TIP3    H223191   2.633   4.074   0.981  0.9370  0.5720  0.7432
 7743TIP3   OH223192   0.048   0.800   4.374  0.2722 -0.3882  0.4694
 7743TIP3    H123193  -0.002   0.865   4.324 -0.9460 -0.2473  1.8019
 7743TIP3    H223194   0.096   0.751   4.308  0.0612  0.9031 -0.6901
 7744TIP3   OH223195   0.032   2.458   2.923  0.3924 -0.7615  0.6017
 7744TIP3    H123196   0.045   2.451   2.829  0.2647 -1.3636  0.6252
 7744TIP3    H223197  -0.040   2.399   2.942 -0.8660  0.7830  0.8177
 7745TIP3   OH223198   5.864   0.786   4.854 -0.0682 -0.3001  0.1647
 7745TIP3    H123199   5.890   0.878   4.847  0.4903 -0.4821 -0.1584
 7745TIP3    H223200   5.778   0.789   4.897 -0.5359  0.4387 -0.7795
 7746TIP3   OH223201   4.595   0.953   0.368  0.1848  0.5052  0.3881
 7746TIP3    H123202   4.506   0.933   0.398 -0.4277  1.0320 -0.9951
 7746TIP3    H223203   4.585   0.976   0.275  1.6652  1.2833  0.3847
 7747TIP3   OH223204   2.145   6.507   5.829 -0.3083  0.7885 -0.2195
 7747TIP3    H123205   2.206   6.527   5.757 -0.9552 -0.1196 -1.0471
 7747TIP3    H223206   2.067   6.474   5.785 -0.5320 -0.2656  0.9361
 7748TIP3   OH223207   5.889   3.168   4.763  0.2589  0.1493 -0.0399
 7748TIP3    H123208   5.874   3.186   4.670 -3.5493  0.3898  0.4551
 7748TIP3    H223209   5.906   3.254   4.802 -0.7516  0.4293 -0.1810
 7749TIP3   OH223210   4.719   4.171   2.268  0.2000 -0.0750  0.4337
 7749TIP3    H123211   4.768   4.091   2.249  0.7817 -0.1327  2.0531
 7749TIP3    H223212   4.780   4.242   2.249 -0.1345 -0.0137 -0.4735
 7750TIP3   OH223213   0.839   2.525   4.644 -0.2415  0.0421 -0.2284
 7750TIP3    H123214   0.852   2.494   4.555 -1.0560 -2.8607  0.5211
 7750TIP3    H223215   0.763   2.475   4.676  0.9267 -0.1781  2.5364
 7751TIP3   OH223216   1.704   6.631   1.848 -0.4648 -0.1485 -0.3206
 7751TIP3    H123217   1.730   6.626   1.941 -1.0017  2.5858  0.0569
 7751TIP3    H223218   1.630   6.572   1.841 -2.0362  1.4061  1.6918
 7752TIP3   OH223219   1.533   6.773   4.743 -0.3512  0.2906 -0.0888
 7752TIP3    H123220   1.582   6.693   4.725 -0.6601  0.0956 -0.0725
 7752TIP3    H223221   1.455   6.766   4.687 -0.4090  0.5502 -0.0409
 7753TIP3   OH223222   6.038   1.532   5.282 -0.0355 -0.3200  0.0261
 7753TIP3    H123223   5.948   1.560   5.299 -0.5251 -0.6114 -1.8334
 7753TIP3    H223224   6.069   1.496   5.365 -2.5464 -2.6132  0.0940
 7754TIP3   OH223225   4.466   0.236   5.091  0.4723 -0.4988  0.0886
 7754TIP3    H123226   4.548   0.258   5.047  0.5152 -1.4875 -0.3533
 7754TIP3    H223227   4.468   0.141   5.099 -0.5765 -0.5227  0.1828
 7755TIP3   OH223228   6.471   2.255   5.284 -0.1489  0.0222 -0.4333
 7755TIP3    H123229   6.381   2.279   5.307 -0.1033  0.9580 -1.1898
 7755TIP3    H223230   6.505   2.331   5.238  1.9247  0.7974  2.1209
 7756TIP3   OH223231   2.321   3.677   1.705  0.5547 -0.5999 -0.1473
 7756TIP3    H123232   2.297   3.745   1.641  0.4014 -1.2868 -0.8426
 7756TIP3    H223233   2.357   3.725   1.779 -1.4998  0.4059  0.2903
 7757TIP3   OH223234   3.220   1.183   3.177  0.2529  0.0119 -0.3986
 7757TIP3    H123235   3.178   1.127   3.241 -0.4469  0.9311 -0.0319
 7757TIP3    H223236   3.311   1.188   3.206  0.1132 -0.1957  0.0797
 7758TIP3   OH223237   2.435   0.536   4.596  0.5826  0.3144 -0.2481
 7758TIP3    H123238   2.530   0.531   4.584  0.5543 -1.6155 -0.0203
 7758TIP3    H223239   2.410   0.448   4.622 -1.1909  0.9724  0.4247
 7759TIP3   OH223240   2.371   1.223   2.593  0.0836 -0.3353 -0.1395
 7759TIP3    H123241   2.375   1.168   2.515 -0.4854 -0.9713  0.2676
 7759TIP3    H223242   2.285   1.264   2.590  0.9636  1.5109 -1.0724
 7760TIP3   OH223243   4.154   1.176   4.615 -0.3995  0.0042  0.0101
 7760TIP3    H123244   4.228   1.184   4.554 -0.2378 -0.1645  0.1820
 7760TIP3    H223245   4.182   1.108   4.676 -1.1911 -0.9147 -0.6227
 7761TIP3   OH223246   2.199   3.420   0.212 -0.2252 -0.6999  0.4185
 7761TIP3    H123247   2.167   3.469   0.137 -0.9171 -0.6203  0.7537
 7761TIP3    H223248   2.141   3.446   0.284  0.4929 -0.6865  1.0074
 7762TIP3   OH223249   1.012   0.442   5.246  0.2378  0.2788  0.1203
 7762TIP3    H123250   1.000   0.529   5.284 -0.0765  0.4395 -0.3432
 7762TIP3    H223251   0.923   0.408   5.233  0.3294  0.3408 -0.7334
 7763TIP3   OH223252   6.218   4.879   4.550  0.2165  0.6622  0.6113
 7763TIP3    H123253   6.271   4.868   4.471 -0.7656 -3.3806  0.2760
 7763TIP3    H223254   6.141   4.926   4.520  0.9251  1.3269 -0.2505
 7764TIP3   OH223255   6.154   1.184   1.855  0.2286 -0.6670 -0.3912
 7764TIP3    H123256   6.169   1.089   1.854  1.1426 -0.5339 -0.9050
 7764TIP3    H223257   6.060   1.194   1.869  0.4006 -1.6129  1.8341
 7765TIP3   OH223258   5.611   4.835   5.322 -0.3197  0.5380 -1.0017
 7765TIP3    H123259   5.534   4.798   5.279  0.4569 -1.0448 -1.1113
 7765TIP3    H223260   5.684   4.785   5.287  0.6050  0.9897  0.2179
 7766TIP3   OH223261   4.789   1.027   2.840 -0.4080  0.3006 -0.2529
 7766TIP3    H123262   4.712   0.977   2.812 -0.1616  0.0913 -0.5533
 7766TIP3    H223263   4.752   1.108   2.877 -0.8332 -0.2952  0.6652
 7767TIP3   OH223264   2.952   2.359   5.613 -0.8767  0.2071 -0.2795
 7767TIP3    H123265   2.911   2.420   5.674 -0.1771 -0.0105  0.4262
 7767TIP3    H223266   2.998   2.296   5.669  0.7226  0.6487 -1.0251
 7768TIP3   OH223267   1.270   2.855   1.335 -0.4410  0.1547 -0.2055
 7768TIP3    H123268   1.339   2.918   1.311  1.8946 -2.3043 -0.3609
 7768TIP3    H223269   1.210   2.856   1.260  1.3062 -0.0847 -1.6888
 7769TIP3   OH223270   3.875   1.880   4.644  0.5011  0.3077  0.0342
 7769TIP3    H123271   3.925   1.910   4.569  0.5155  1.2179  0.4007
 7769TIP3    H223272   3.785   1.873   4.612  0.6264 -0.0063 -0.2547
 7770TIP3   OH223273   7.186   3.974   3.540  0.8466  0.2637  0.1786
 7770TIP3    H123274   7.187   4.064   3.573  1.8024  0.7565 -1.1153
 7770TIP3    H223275   7.148   3.981   3.452  1.2587 -0.5361 -0.0691
 7771TIP3   OH223276   6.958   3.001   4.901  0.1617 -0.1635 -0.0724
 7771TIP3    H123277   6.930   3.041   4.984 -1.1932 -1.7781  0.3123
 7771TIP3    H223278   7.020   2.934   4.927 -1.3599 -1.6673 -0.1598
 7772TIP3   OH223279   6.177   5.206   2.900  0.3429  0.2727 -0.0046
 7772TIP3    H123280   6.169   5.278   2.837  0.4478 -0.2544 -0.6345
 7772TIP3    H223281   6.243   5.235   2.962 -0.1018  1.0000  0.1381
 7773TIP3   OH223282   5.424   0.158   5.777 -0.2071  0.1285 -0.4719
 7773TIP3    H123283   5.489   0.129   5.840  0.6515  1.9919 -0.4200
 7773TIP3    H223284   5.409   0.250   5.798 -1.3642  0.2820 -1.7617
 7774TIP3   OH223285   1.528   4.934   1.591 -0.1651 -0.7359  0.6502
 7774TIP3    H123286   1.503   4.966   1.678 -0.8030 -2.6695  1.2269
 7774TIP3    H223287   1.451   4.951   1.536  0.3357  0.7294  0.3583
 7775TIP3   OH223288   4.446   4.910   2.816  0.1292 -0.5575 -0.4359
 7775TIP3    H123289   4.424   5.003   2.825 -0.2379 -0.6559 -0.2801
 7775TIP3    H223290   4.509   4.907   2.744  0.1445 -0.1882 -0.4404
 7776TIP3   OH223291   6.342   1.240   3.365 -0.3059  0.2967 -0.0969
 7776TIP3    H123292   6.355   1.333   3.384 -0.8604  0.3177  0.2146
 7776TIP3    H223293   6.401   1.195   3.425 -1.1752  0.4073  0.8821
 7777TIP3   OH223294   3.013   5.875   0.152 -0.0781  0.3053  0.3293
 7777TIP3    H123295   3.088   5.886   0.093 -0.8681  2.6109 -0.3468
 7777TIP3    H223296   3.043   5.912   0.236  0.5020 -1.5128  0.9668
 7778TIP3   OH223297  -0.035   6.676   0.493  0.5699 -0.0918  0.0170
 7778TIP3    H123298   0.008   6.686   0.578  0.2639  0.7270  0.0915
 7778TIP3    H223299   0.032   6.704   0.429  0.3654  0.6071  0.0932
 7779TIP3   OH223300   4.566   5.328   3.647 -0.7334 -0.9889  0.1480
 7779TIP3    H123301   4.583   5.416   3.680  2.0260 -2.1261  2.1484
 7779TIP3    H223302   4.574   5.336   3.552 -1.7349  1.1064  0.1934
 7780TIP3   OH223303   4.070   5.666   3.640 -0.0584  0.7987  0.3224
 7780TIP3    H123304   4.153   5.646   3.596 -0.7637  0.2696 -0.8284
 7780TIP3    H223305   4.069   5.762   3.646  0.2013  0.8677 -0.5487
 7781TIP3   OH223306   0.957   0.947   2.610 -0.0673  0.0393 -0.2477
 7781TIP3    H123307   0.945   0.868   2.664  2.5499 -0.1132  0.2398
 7781TIP3    H223308   0.966   0.913   2.521 -0.6286 -0.0363 -0.2823
 7782TIP3   OH223309   1.376   5.948   5.725  0.5055  0.2273  0.5469
 7782TIP3    H123310   1.352   5.975   5.814  0.1249  1.0874  0.1936
 7782TIP3    H223311   1.358   5.854   5.723 -2.7415  0.7696  0.3527
 7783TIP3   OH223312   3.877   3.087   1.189  0.3686 -0.5330 -0.4149
 7783TIP3    H123313   3.861   3.131   1.273  1.1372 -1.8343  0.4461
 7783TIP3    H223314   3.883   2.994   1.211 -2.1442 -1.2615 -2.3162
 7784TIP3   OH223315   5.655   4.656   1.103  0.5443 -0.0050  0.3284
 7784TIP3    H123316   5.674   4.584   1.163  0.7954  2.3368  3.3425
 7784TIP3    H223317   5.560   4.667   1.108  0.3620 -0.7726 -1.0176
 7785TIP3   OH223318   0.162   2.189   1.134 -0.7999 -0.1917  0.0810
 7785TIP3    H123319   0.111   2.132   1.077  0.8066  2.6571 -4.8911
 7785TIP3    H223320   0.247   2.146   1.142 -1.0119 -0.5829  0.2140
 7786TIP3   OH223321   7.105   4.474   0.068  0.1761 -0.0186  0.2160
 7786TIP3    H123322   7.056   4.520   0.135 -1.4231  3.3261 -2.9270
 7786TIP3    H223323   7.191   4.515   0.068 -0.0066  0.3659 -0.1287
 7787TIP3   OH223324   0.280   0.662   1.797 -0.3255 -0.4297  0.3200
 7787TIP3    H123325   0.258   0.615   1.717 -0.4545  0.4475 -0.1841
 7787TIP3    H223326   0.357   0.715   1.774 -2.1973  2.2807 -0.2703
 7788TIP3   OH223327   7.152   6.075   5.344 -0.6624  0.0180  0.2118
 7788TIP3    H123328   7.064   6.071   5.305 -0.1495  1.1813 -1.1445
 7788TIP3    H223329   7.199   6.003   5.302 -0.0632  1.3668 -1.5476
 7789TIP3   OH223330   2.647   5.316   5.743  0.0462 -0.2942  0.1256
 7789TIP3    H123331   2.642   5.261   5.821  0.7958 -1.4486 -0.6080
 7789TIP3    H223332   2.569   5.294   5.693  0.7098 -1.2635 -0.5121
 7790TIP3   OH223333   4.391   1.092   5.623  0.8537 -0.6112  0.6108
 7790TIP3    H123334   4.348   1.029   5.681 -1.4871  1.6003  1.5067
 7790TIP3    H223335   4.430   1.156   5.683 -1.0114  1.3454 -0.1266
 7791TIP3   OH223336   2.679   5.105   4.152  0.2664 -0.1154 -0.3722
 7791TIP3    H123337   2.676   5.075   4.242  0.6379 -0.3262 -0.4290
 7791TIP3    H223338   2.770   5.092   4.125 -0.4050 -2.6986 -1.6785
 7792TIP3   OH223339   3.036   3.469   1.446  0.3802 -0.1606  0.1747
 7792TIP3    H123340   2.982   3.463   1.368  1.2812 -0.0199 -0.4731
 7792TIP3    H223341   3.062   3.379   1.465  0.9199 -0.0970 -0.2405
 7793TIP3   OH223342   6.081   0.007   2.384 -0.4647 -0.0614 -0.1909
 7793TIP3    H123343   6.024   0.083   2.389  0.3900  0.8849 -2.9545
 7793TIP3    H223344   6.169   0.044   2.373  0.2640 -1.4880  0.5202
 7794TIP3   OH223345   3.303   3.979   3.735 -0.0420 -0.0840 -0.5521
 7794TIP3    H123346   3.259   3.946   3.813  0.6926  0.2330  0.0036
 7794TIP3    H223347   3.341   4.062   3.762 -0.0948  0.2156 -1.3556
 7795TIP3   OH223348   6.620   2.927   5.323 -0.1161 -0.0141  0.3598
 7795TIP3    H123349   6.618   2.898   5.232  0.5814 -0.9571  0.6252
 7795TIP3    H223350   6.601   3.021   5.320  0.2187  0.0197 -0.7727
 7796TIP3   OH223351   5.438   3.041   0.496 -0.0827 -0.1428  0.1168
 7796TIP3    H123352   5.457   2.950   0.521 -2.0012 -0.8381 -0.7240
 7796TIP3    H223353   5.388   3.033   0.415 -0.0333  1.7009 -0.1234
 7797TIP3   OH223354   3.578   3.836   3.337  0.1339  0.0128 -0.1740
 7797TIP3    H123355   3.614   3.807   3.421 -2.3962 -0.7512  0.7147
 7797TIP3    H223356   3.605   3.769   3.274  0.0702 -0.6571  0.5057
 7798TIP3   OH223357   3.184   0.968   2.814  0.3715 -0.1660  0.4968
 7798TIP3    H123358   3.264   1.010   2.781 -0.3560  0.9108  0.0640
 7798TIP3    H223359   3.118   1.036   2.811 -0.7062 -1.1832  0.3481
 7799TIP3   OH223360   2.862   4.737   3.536  0.4505  0.2300  0.4524
 7799TIP3    H123361   2.881   4.813   3.480 -1.1081 -0.4130 -1.0593
 7799TIP3    H223362   2.778   4.705   3.504 -0.1193 -0.6827  2.6922
 7800TIP3   OH223363   2.913   4.403   1.282  0.4245 -0.1220  0.3811
 7800TIP3    H123364   2.826   4.405   1.321  0.9643  1.2319  1.5986
 7800TIP3    H223365   2.972   4.431   1.352  1.9458 -1.7148 -0.1919
 7801TIP3   OH223366   2.236   1.262   0.342 -0.0450  0.1382  0.2174
 7801TIP3    H123367   2.213   1.174   0.313  0.8053 -0.1307  0.3102
 7801TIP3    H223368   2.316   1.249   0.393  0.1291  0.9731  0.1636
 7802TIP3   OH223369   4.345   2.769   0.370  0.0741 -0.3222 -0.1268
 7802TIP3    H123370   4.418   2.829   0.359  0.8225 -1.2482 -0.3332
 7802TIP3    H223371   4.310   2.790   0.457 -0.7970  1.5645 -0.8774
 7803TIP3   OH223372   2.501   5.448   4.644 -0.1347  0.1073 -0.4749
 7803TIP3    H123373   2.492   5.385   4.716 -0.6666  0.9828  0.2527
 7803TIP3    H223374   2.411   5.463   4.614 -0.1956  1.5219  0.2825
 7804TIP3   OH223375   0.063   1.617   4.479 -0.7795 -0.2064 -0.2863
 7804TIP3    H123376   0.148   1.659   4.485 -0.6193 -0.2191 -1.9338
 7804TIP3    H223377   0.002   1.687   4.456 -1.2761 -0.1607  1.0614
 7805TIP3   OH223378   0.015   4.588   2.776 -0.9192 -0.2729 -0.4719
 7805TIP3    H123379   0.018   4.549   2.863 -0.5321  1.8501  0.5238
 7805TIP3    H223380   0.105   4.581   2.743 -0.9075 -0.4417 -0.4052
 7806TIP3   OH223381   4.917   5.257   1.298  0.3422 -0.3942 -0.0762
 7806TIP3    H123382   4.878   5.182   1.342  0.6453  0.3469  1.5644
 7806TIP3    H223383   5.009   5.236   1.291  0.1664 -0.8515 -1.1280
 7807TIP3   OH223384   1.053   1.794   5.663  0.2553  0.0422  0.2369
 7807TIP3    H123385   0.975   1.761   5.708 -0.5491 -0.1228 -1.2362
 7807TIP3    H223386   1.058   1.886   5.688 -0.0587 -0.0972  0.8286
 7808TIP3   OH223387   3.389   6.371   4.858  0.1774  0.4727  0.1679
 7808TIP3    H123388   3.376   6.340   4.947  1.3290  0.6571  0.4143
 7808TIP3    H223389   3.483   6.358   4.841  0.0846  0.9588 -0.8097
 7809TIP3   OH223390   2.868   4.198   4.911  0.2459 -0.4469 -0.0305
 7809TIP3    H123391   2.886   4.181   5.004 -0.7673  0.3751  0.3334
 7809TIP3    H223392   2.954   4.205   4.871  0.7449  0.9199  1.1823
 7810TIP3   OH223393   0.611   6.797   1.189  0.3688  0.0215  0.4044
 7810TIP3    H123394   0.530   6.848   1.196 -1.6391 -3.0495  1.9152
 7810TIP3    H223395   0.625   6.762   1.277  2.0601 -1.3738 -0.3617
 7811TIP3   OH223396   2.599   0.202   5.054 -0.0130  0.1916  0.0983
 7811TIP3    H123397   2.600   0.190   4.959  0.4985 -1.2957  0.2612
 7811TIP3    H223398   2.552   0.125   5.087  1.7848 -0.5238  1.1485
 7812TIP3   OH223399   6.154   1.886   2.215 -0.1118  0.4391  0.5291
 7812TIP3    H123400   6.088   1.837   2.167  0.7322 -0.2047 -0.0135
 7812TIP3    H223401   6.150   1.852   2.304  1.8133 -2.1668 -0.2510
 7813TIP3   OH223402   2.375   3.049   5.796  0.5243  0.3189 -1.0509
 7813TIP3    H123403   2.428   3.066   5.719  2.7627  0.0891  0.3357
 7813TIP3    H223404   2.428   2.989   5.849 -2.5809 -2.8131 -1.0517
 7814TIP3   OH223405   1.542   1.672   0.620  0.0741  0.4174 -0.1380
 7814TIP3    H123406   1.495   1.596   0.585  1.1711 -0.6302  0.6310
 7814TIP3    H223407   1.564   1.724   0.542 -2.8716  1.3078 -0.5079
 7815TIP3   OH223408   2.888   2.387   4.036  0.1579 -0.5630  0.0810
 7815TIP3    H123409   2.875   2.482   4.042 -1.8205 -0.8510  1.5992
 7815TIP3    H223410   2.885   2.368   3.942  0.3041  0.8407 -0.2281
 7816TIP3   OH223411   4.018   4.216   2.684 -0.2525  0.5289  0.1986
 7816TIP3    H123412   4.062   4.254   2.760  0.7445  0.1947 -0.1900
 7816TIP3    H223413   3.982   4.134   2.716  0.2436  0.3457  0.3032
 7817TIP3   OH223414   5.265   2.686   2.255 -0.1312  0.0865 -0.8915
 7817TIP3    H123415   5.182   2.695   2.209 -0.2435 -0.7315 -0.8507
 7817TIP3    H223416   5.248   2.625   2.326  0.1214  1.1107  0.0811
 7818TIP3   OH223417   5.970   3.970   5.169 -0.2656 -0.3434 -0.1437
 7818TIP3    H123418   5.989   3.919   5.248  0.4280 -0.6963 -0.5244
 7818TIP3    H223419   5.928   3.908   5.110  0.5578 -0.4801 -0.6005
 7819TIP3   OH223420   2.574   6.613   3.925 -0.1281 -0.0611 -0.3166
 7819TIP3    H123421   2.658   6.637   3.886  0.1852 -1.8245 -0.8303
 7819TIP3    H223422   2.590   6.618   4.020  0.4227  0.0665 -0.4114
 7820TIP3   OH223423   6.047   4.289   4.602 -0.3640 -0.1763  0.6178
 7820TIP3    H123424   6.025   4.199   4.576  0.1521 -0.2350  0.3735
 7820TIP3    H223425   6.054   4.337   4.519 -1.1608  0.2177  0.7697
 7821TIP3   OH223426   6.596   2.341   4.275 -0.1665 -0.1651 -0.1372
 7821TIP3    H123427   6.671   2.283   4.289 -0.3576 -0.5312 -0.6143
 7821TIP3    H223428   6.535   2.289   4.222  0.0871  0.8081 -1.4262
 7822TIP3   OH223429   1.401   5.156   4.589 -0.1609  0.0110 -0.2544
 7822TIP3    H123430   1.386   5.245   4.621  0.0433  0.4028 -1.2144
 7822TIP3    H223431   1.467   5.120   4.648  0.8945  1.0435 -0.7727
 7823TIP3   OH223432   3.634   6.625   5.868 -0.0852 -0.3397 -0.2124
 7823TIP3    H123433   3.652   6.555   5.931  0.1312  0.2067  0.3553
 7823TIP3    H223434   3.720   6.652   5.838 -0.1025  0.3051  0.2857
 7824TIP3   OH223435   6.641   6.447   2.853 -0.0001  0.2196 -0.3679
 7824TIP3    H123436   6.555   6.433   2.813  0.0684 -0.7422 -0.1935
 7824TIP3    H223437   6.636   6.536   2.889 -0.9248  0.1746 -0.3540
 7825TIP3   OH223438   1.936   1.974   1.347  0.2138  0.0960  0.1558
 7825TIP3    H123439   1.916   1.912   1.418  1.0064  1.3767  1.5694
 7825TIP3    H223440   1.977   1.920   1.279 -0.0476 -1.0973  0.9094
 7826TIP3   OH223441   2.464   4.944   0.197  0.2164 -0.4330  0.2965
 7826TIP3    H123442   2.535   4.924   0.258  1.2355  3.2095  0.5498
 7826TIP3    H223443   2.411   5.009   0.243  0.4809  1.7547 -2.2412
 7827TIP3   OH223444   3.349   3.714   5.398 -0.0460 -0.2020 -0.2049
 7827TIP3    H123445   3.334   3.654   5.324 -0.9865 -0.8159  0.4659
 7827TIP3    H223446   3.278   3.777   5.392 -0.3381 -0.4720  0.3882
 7828TIP3   OH223447   4.956   5.186   2.622 -0.2884  0.6942 -0.1293
 7828TIP3    H123448   5.025   5.246   2.646  1.5223 -2.0175  2.0894
 7828TIP3    H223449   4.987   5.144   2.542  0.2720  0.0722  0.4057
 7829TIP3   OH223450   6.106   6.735   1.132  0.5026 -0.1925 -0.5556
 7829TIP3    H123451   6.149   6.698   1.209  1.0932  0.7412 -0.4087
 7829TIP3    H223452   6.177   6.779   1.084  0.1749 -0.8926 -1.7292
 7830TIP3   OH223453   3.541   5.606   4.518  0.6973 -1.0568  0.1601
 7830TIP3    H123454   3.597   5.530   4.532  5.1830  1.5577 -1.3941
 7830TIP3    H223455   3.556   5.662   4.594  1.1233  0.1418 -0.7660
 7831TIP3   OH223456   2.378   2.537   2.445 -0.2486  0.0914 -0.5635
 7831TIP3    H123457   2.390   2.622   2.403 -1.1613 -0.7375 -2.6563
 7831TIP3    H223458   2.330   2.485   2.380  1.0833 -2.3162  0.2432
 7832TIP3   OH223459   4.266   6.088   4.754 -0.0082  0.1714  0.1414
 7832TIP3    H123460   4.215   6.142   4.693 -1.4516 -0.7592  0.4799
 7832TIP3    H223461   4.285   6.008   4.705  0.3338  0.1336  0.3358
 7833TIP3   OH223462   6.032   1.265   4.904 -0.0808 -0.3113  0.6705
 7833TIP3    H123463   5.993   1.351   4.918  0.7227  0.2425 -0.3879
 7833TIP3    H223464   6.037   1.227   4.992  0.1603  0.9988  1.2525
 7834TIP3   OH223465   4.291   5.843   4.646 -0.0206 -0.3107 -0.0460
 7834TIP3    H123466   4.254   5.773   4.699  0.0372 -1.6336 -1.6483
 7834TIP3    H223467   4.386   5.834   4.657 -0.0018 -0.7013 -0.4767
 7835TIP3   OH223468   5.421   5.773   2.855 -0.3208 -0.2950 -0.7879
 7835TIP3    H123469   5.492   5.709   2.857 -1.0635 -1.1444 -0.3315
 7835TIP3    H223470   5.440   5.832   2.928  0.4477  0.1046 -1.2989
 7836TIP3   OH223471   3.691   5.033   5.618  0.4335  0.1000 -0.0676
 7836TIP3    H123472   3.656   4.957   5.571 -0.5308  0.3259  0.2612
 7836TIP3    H223473   3.752   5.073   5.556 -0.4086  0.0857 -0.9357
 7837TIP3   OH223474   4.819   3.636   2.141  0.1113 -0.1697 -0.2016
 7837TIP3    H123475   4.855   3.688   2.070 -1.4042  3.3489  1.3832
 7837TIP3    H223476   4.724   3.635   2.126  0.0671 -2.8453 -0.2910
 7838TIP3   OH223477   6.470   5.977   2.575 -0.1668 -0.3501  0.5165
 7838TIP3    H123478   6.447   6.023   2.494 -0.9352  1.6621  1.8112
 7838TIP3    H223479   6.527   6.037   2.622 -0.3227 -1.1698  1.8203
 7839TIP3   OH223480   0.739   0.869   4.850 -0.3263  0.2441  0.1143
 7839TIP3    H123481   0.665   0.823   4.811 -0.4964 -0.0408  0.7544
 7839TIP3    H223482   0.813   0.848   4.793 -0.8397  0.9770 -0.8331
 7840TIP3   OH223483   7.168   2.875   2.492  0.2628 -0.2038 -0.6410
 7840TIP3    H123484   7.131   2.860   2.579  1.7198  1.3508  0.3141
 7840TIP3    H223485   7.220   2.797   2.474  1.4406  0.1923  0.7609
 7841TIP3   OH223486   1.612   0.275   1.306  0.5313  0.3359 -0.2547
 7841TIP3    H123487   1.555   0.351   1.306  0.3705  0.2336 -1.3106
 7841TIP3    H223488   1.698   0.309   1.282  0.2942  0.0919 -1.5131
 7842TIP3   OH223489   3.685   5.266   3.445 -0.4051  0.1238 -0.0018
 7842TIP3    H123490   3.780   5.275   3.453 -0.3581  1.2830 -1.4435
 7842TIP3    H223491   3.672   5.210   3.369 -0.8813 -0.4289  0.4801
 7843TIP3   OH223492   4.248   2.576   2.290  0.0565 -0.3685  0.2862
 7843TIP3    H123493   4.256   2.665   2.323  0.3015 -0.3798  0.2584
 7843TIP3    H223494   4.290   2.578   2.204 -1.9712  0.0548 -0.7723
 7844TIP3   OH223495   0.434   1.099   4.966 -0.3514 -0.0651  0.4557
 7844TIP3    H123496   0.460   1.187   4.993 -0.8082  0.4655 -0.7434
 7844TIP3    H223497   0.477   1.086   4.881 -0.1343 -1.0863  0.7028
 7845TIP3   OH223498   6.444   5.655   2.630 -0.2446  0.7049 -0.4637
 7845TIP3    H123499   6.531   5.628   2.659 -0.4978 -0.2613 -0.5502
 7845TIP3    H223500   6.446   5.751   2.633  0.4559  0.6742  0.5932
 7846TIP3   OH223501   3.429   5.742   1.391  0.1598 -0.4384 -0.0303
 7846TIP3    H123502   3.430   5.662   1.445  1.4170 -0.9238 -0.7300
 7846TIP3    H223503   3.360   5.727   1.327 -0.9330 -0.1175  1.0382
 7847TIP3   OH223504   3.741   6.149   5.586  0.5527  0.5581  0.1335
 7847TIP3    H123505   3.790   6.191   5.516 -1.1400  0.6284 -1.0550
 7847TIP3    H223506   3.741   6.056   5.562  0.4609  0.4965  0.3717
 7848TIP3   OH223507   2.137   2.847   0.060  0.1132  0.6952 -0.5373
 7848TIP3    H123508   2.115   2.860  -0.032 -0.9732  1.1650 -0.2206
 7848TIP3    H223509   2.084   2.773   0.088  1.5099 -0.3795 -0.6479
 7849TIP3   OH223510   2.543   1.318   3.008  0.0161  0.3892  0.3553
 7849TIP3    H123511   2.594   1.237   3.009  1.2571  1.1413  0.4849
 7849TIP3    H223512   2.574   1.365   2.931 -0.9687  0.5855  0.0645
 7850TIP3   OH223513   5.518   2.000   3.785 -0.3543  0.3410 -0.1065
 7850TIP3    H123514   5.455   2.066   3.758 -1.0309  0.2155  1.0704
 7850TIP3    H223515   5.471   1.917   3.777  0.7130 -0.1271 -2.2550
 7851TIP3   OH223516   4.195   5.359   0.777 -0.3676  0.0074 -0.3436
 7851TIP3    H123517   4.286   5.357   0.806 -0.2848 -2.0076 -0.5763
 7851TIP3    H223518   4.161   5.443   0.808  1.1554  0.1527  1.0385
 7852TIP3   OH223519   3.265   4.632   0.061  0.1093 -0.4053  0.2114
 7852TIP3    H123520   3.238   4.644   0.153  0.4790 -0.1808  0.2921
 7852TIP3    H223521   3.183   4.637   0.012 -0.0963 -0.5522  0.5322
 7853TIP3   OH223522   2.398   5.533   3.567  0.2996  0.3854  0.3970
 7853TIP3    H123523   2.445   5.519   3.484 -0.3795  1.0705 -0.1226
 7853TIP3    H223524   2.389   5.628   3.573 -0.9109  0.2790  0.5270
 7854TIP3   OH223525   5.267   2.137   5.452 -0.5203  0.0107 -0.6429
 7854TIP3    H123526   5.259   2.229   5.475 -1.6267  0.2484 -1.8368
 7854TIP3    H223527   5.334   2.103   5.511  1.3833  2.0330 -1.4993
 7855TIP3   OH223528   5.059   4.198   5.807 -0.1657  0.7290  0.3503
 7855TIP3    H123529   5.110   4.278   5.792  1.3886 -0.3618 -0.4190
 7855TIP3    H223530   5.070   4.147   5.727 -0.1254 -0.7968  1.2944
 7856TIP3   OH223531   0.231   6.656   4.969  0.3713  0.3037 -0.4036
 7856TIP3    H123532   0.281   6.617   5.040  1.8242  2.9887  0.1632
 7856TIP3    H223533   0.155   6.695   5.011 -1.0382 -1.6378 -0.9627
 7857TIP3   OH223534   5.489   3.344   4.208 -0.2495  0.1918  0.5543
 7857TIP3    H123535   5.397   3.369   4.221  0.1931  0.8327  3.1515
 7857TIP3    H223536   5.537   3.396   4.273  2.2263  1.2103 -1.9273
 7858TIP3   OH223537   2.309   1.052   3.754 -0.1218 -0.3681  0.1704
 7858TIP3    H123538   2.345   1.139   3.772 -2.4132  0.3843  1.3909
 7858TIP3    H223539   2.386   0.995   3.751  1.2223  1.2028  2.3248
 7859TIP3   OH223540   3.867   6.443   2.461  0.8323 -0.4024 -0.0192
 7859TIP3    H123541   3.925   6.368   2.448 -0.4109 -1.3052 -0.5509
 7859TIP3    H223542   3.872   6.492   2.379  0.0700 -1.0508 -0.4671
 7860TIP3   OH223543   3.660   5.564   1.786  0.6566 -0.0941  0.2911
 7860TIP3    H123544   3.714   5.622   1.838  0.8205 -0.2328  0.2759
 7860TIP3    H223545   3.571   5.579   1.818  0.6635  0.3680  0.0892
 7861TIP3   OH223546   7.138   1.984   4.968 -0.4680  0.0343  0.0732
 7861TIP3    H123547   7.045   2.007   4.968 -0.4406  0.1937  1.1442
 7861TIP3    H223548   7.139   1.889   4.953 -0.8801 -0.1895  1.3855
 7862TIP3   OH223549   6.940   1.966   1.570 -0.0664  0.5558  0.2665
 7862TIP3    H123550   6.970   1.969   1.479  0.3052 -1.7765  0.2534
 7862TIP3    H223551   6.863   2.023   1.572  1.5718  2.9689 -0.7796
 7863TIP3   OH223552   2.262   2.481   1.357 -0.4158 -0.3952 -0.2752
 7863TIP3    H123553   2.247   2.510   1.447  0.3868  0.0712 -0.2798
 7863TIP3    H223554   2.233   2.554   1.302  1.1572  0.2567 -0.3013
 7864TIP3   OH223555   4.051   5.451   2.083 -0.0371 -0.1874  0.1787
 7864TIP3    H123556   4.062   5.399   2.163  1.0613 -2.9075 -1.5948
 7864TIP3    H223557   4.120   5.420   2.025 -0.7818  1.6999 -1.8465
 7865TIP3   OH223558   2.584   6.184   5.450  0.6251 -0.3793 -0.6416
 7865TIP3    H123559   2.623   6.131   5.382  1.1442 -0.5502 -0.2182
 7865TIP3    H223560   2.640   6.262   5.455  0.9824 -0.6732  0.0383
 7866TIP3   OH223561   1.856   1.408   2.431  0.0395 -0.0800  0.0503
 7866TIP3    H123562   1.913   1.413   2.354  0.2179  0.4474  0.2126
 7866TIP3    H223563   1.804   1.329   2.417 -0.0503  0.0989 -0.6988
 7867TIP3   OH223564   5.615   2.382   1.820  0.0070 -0.6673  0.4473
 7867TIP3    H123565   5.601   2.333   1.739  0.0780  0.5402 -0.3059
 7867TIP3    H223566   5.539   2.439   1.828  0.4999 -0.0306  0.6785
 7868TIP3   OH223567   2.509   2.149   4.642 -0.0691 -0.0593 -0.0101
 7868TIP3    H123568   2.588   2.131   4.692  1.1928 -0.4930 -2.0525
 7868TIP3    H223569   2.520   2.100   4.560 -1.3972  1.6730 -1.3086
 7869TIP3   OH223570   3.752   0.388   3.153  0.6538 -0.1580  0.1408
 7869TIP3    H123571   3.780   0.357   3.239 -0.4171 -1.1462  0.1636
 7869TIP3    H223572   3.686   0.325   3.126  0.7771  0.2952 -1.2946
 7870TIP3   OH223573   6.184   5.517   2.104 -0.2273  0.2663  0.2876
 7870TIP3    H123574   6.110   5.517   2.045  0.3139  0.4820 -0.4035
 7870TIP3    H223575   6.223   5.604   2.095  0.5752 -0.1027  0.0390
 7871TIP3   OH223576   4.608   1.848   3.558  0.0841 -0.4151 -0.3431
 7871TIP3    H123577   4.619   1.943   3.552  0.2699 -0.3071  1.2742
 7871TIP3    H223578   4.531   1.829   3.504  0.4391  0.5526 -1.2196
 7872TIP3   OH223579   4.454   5.637   2.907 -0.1312  0.0739  0.3408
 7872TIP3    H123580   4.429   5.551   2.873  0.3098  0.3947 -0.8458
 7872TIP3    H223581   4.547   5.645   2.883  0.8142 -0.4924  3.3455
 7873TIP3   OH223582   3.551   5.250   2.285  0.3980  0.6345 -0.2307
 7873TIP3    H123583   3.508   5.198   2.217 -0.2417  3.1381 -1.8839
 7873TIP3    H223584   3.620   5.194   2.318 -0.0120 -1.1262 -2.1452
 7874TIP3   OH223585   2.215   1.236   2.255  0.4687  0.4897  0.3715
 7874TIP3    H123586   2.145   1.268   2.312 -0.9632  0.9122 -1.5217
 7874TIP3    H223587   2.182   1.249   2.166  1.8007 -1.9133 -0.5730
 7875TIP3   OH223588   4.922   5.012   3.109  0.1015 -0.4239 -0.1982
 7875TIP3    H123589   4.844   5.062   3.129  0.5140  0.0751  0.1989
 7875TIP3    H223590   4.927   5.012   3.013  1.0687  1.8789 -0.2034
 7876TIP3   OH223591   3.534   2.689   4.150  0.1191  0.3027 -0.0999
 7876TIP3    H123592   3.443   2.710   4.171  0.1516 -0.2824  0.6578
 7876TIP3    H223593   3.549   2.731   4.065 -0.5793  1.1646  0.1853
 7877TIP3   OH223594   2.672   1.960   4.449  0.1454 -0.0446  0.9923
 7877TIP3    H123595   2.763   1.944   4.473  0.1214 -0.5784  0.7383
 7877TIP3    H223596   2.645   1.880   4.403  0.0201  0.6981 -0.2895
 7878TIP3   OH223597   3.397   5.336   3.265 -0.1298  0.4711 -0.4773
 7878TIP3    H123598   3.486   5.309   3.240 -0.0330  0.3362  0.0065
 7878TIP3    H223599   3.409   5.383   3.348 -0.6902 -0.9266  0.4263
 7879TIP3   OH223600   2.004   0.705   3.565 -0.5138 -0.1279  0.5819
 7879TIP3    H123601   2.050   0.778   3.605 -0.4647  0.1582  0.0156
 7879TIP3    H223602   1.911   0.723   3.582 -0.5442  0.4330 -0.1575
 7880TIP3   OH223603   3.944   2.790   4.611 -0.0689 -0.4988  0.0402
 7880TIP3    H123604   3.871   2.754   4.562  0.4609 -0.0350 -1.1172
 7880TIP3    H223605   3.995   2.713   4.638  0.1747 -0.7200 -1.0102
 7881TIP3   OH223606   2.826   5.420   5.499  0.0964 -0.5064  0.4546
 7881TIP3    H123607   2.780   5.488   5.449  0.7437 -0.1785  0.2863
 7881TIP3    H223608   2.916   5.453   5.507  0.6801 -1.7933 -0.4805
 7882TIP3   OH223609   1.357   5.538   2.378 -0.5164  0.1342  0.0144
 7882TIP3    H123610   1.290   5.593   2.419 -0.2134  0.8213 -0.3945
 7882TIP3    H223611   1.319   5.450   2.377 -0.2810 -0.0655  2.3754
 7883TIP3   OH223612   4.839   3.059   0.301  0.3048  0.0183 -0.3264
 7883TIP3    H123613   4.855   2.991   0.236 -1.1977 -0.8239  0.1320
 7883TIP3    H223614   4.823   3.138   0.250  1.4962 -0.0879 -0.8863
 7884TIP3   OH223615   1.583   0.760   1.118  0.0608 -0.1586 -0.4984
 7884TIP3    H123616   1.676   0.772   1.099  0.0883  0.3442 -0.0615
 7884TIP3    H223617   1.562   0.829   1.180 -0.2651 -1.1631  0.5317
 7885TIP3   OH223618   2.289   0.211   2.910 -0.1041  0.1350  0.0333
 7885TIP3    H123619   2.379   0.243   2.912 -0.1975  0.3536  0.8089
 7885TIP3    H223620   2.255   0.241   2.825  1.2512 -1.9010 -1.3347
 7886TIP3   OH223621   6.982   4.038   3.353  0.0388  0.1993 -0.4103
 7886TIP3    H123622   7.024   3.967   3.304 -1.4211 -1.5285  0.7373
 7886TIP3    H223623   6.976   4.110   3.290  0.9677 -0.9004 -1.8164
 7887TIP3   OH223624   5.893   3.846   1.987 -0.2158  0.3330 -0.2252
 7887TIP3    H123625   5.816   3.881   2.031 -1.0317 -1.7392  0.1165
 7887TIP3    H223626   5.935   3.922   1.946 -3.1900  1.3215 -1.6499
 7888TIP3   OH223627   0.265   3.921   4.370 -0.1610 -0.4310  0.0914
 7888TIP3    H123628   0.281   3.839   4.322  1.1251 -0.2819  0.2456
 7888TIP3    H223629   0.239   3.892   4.458  1.2166 -0.6817  0.4301
 7889TIP3   OH223630   5.124   4.668   1.105  0.0545 -0.4629 -0.2299
 7889TIP3    H123631   5.174   4.697   1.029  0.2422 -1.8629 -0.6834
 7889TIP3    H223632   5.033   4.665   1.074  0.2129 -1.6676 -0.6325
 7890TIP3   OH223633   6.902   6.174   3.551  0.1643  0.3552 -0.7399
 7890TIP3    H123634   6.849   6.183   3.630 -0.3035  1.0886 -1.1338
 7890TIP3    H223635   6.992   6.186   3.582  0.0146  0.2887 -0.2653
 7891TIP3   OH223636   3.624   5.901   1.745  0.0073  0.1782  0.3833
 7891TIP3    H123637   3.662   5.941   1.823  0.5979  0.2290  0.0746
 7891TIP3    H223638   3.683   5.828   1.724 -1.5248 -1.4703  1.4648
 7892TIP3   OH223639   2.580   3.688   4.848 -0.3515 -0.0403 -0.1723
 7892TIP3    H123640   2.535   3.649   4.922 -1.8029  0.4367 -0.7684
 7892TIP3    H223641   2.651   3.627   4.828 -0.1489 -0.3473  1.3696
 7893TIP3   OH223642   1.171   5.457   0.008 -0.1297 -0.2840  0.4830
 7893TIP3    H123643   1.211   5.390   0.064 -1.4864 -0.5289  1.1950
 7893TIP3    H223644   1.100   5.493   0.061 -0.9769  0.0053 -0.8107
 7894TIP3   OH223645   1.111   6.389   3.872  0.0721  0.4594  0.0863
 7894TIP3    H123646   1.048   6.318   3.878  0.5622 -0.4254 -3.4551
 7894TIP3    H223647   1.059   6.469   3.877 -0.8468 -0.1682  0.7920
 7895TIP3   OH223648   1.796   3.949   5.722  0.1092  0.4399  0.5045
 7895TIP3    H123649   1.828   3.873   5.673 -2.1210  0.0299 -0.4534
 7895TIP3    H223650   1.717   3.976   5.675  0.1841  2.6419  1.5251
 7896TIP3   OH223651   3.157   5.537   0.672  0.0254 -0.3751 -0.1883
 7896TIP3    H123652   3.067   5.565   0.690 -0.4519 -1.2795 -1.0951
 7896TIP3    H223653   3.198   5.531   0.758  0.0995  2.8077  0.1356
 7897TIP3   OH223654   5.121   0.852   1.202  0.1268 -0.5720 -0.3500
 7897TIP3    H123655   5.130   0.757   1.213 -0.4115 -0.7609 -1.4133
 7897TIP3    H223656   5.033   0.864   1.168  0.3312  0.2850 -0.5948
 7898TIP3   OH223657   0.515   4.955   4.779 -0.6736  0.4921  0.1137
 7898TIP3    H123658   0.564   4.901   4.717 -0.1607  2.0488 -0.9016
 7898TIP3    H223659   0.578   5.020   4.811 -1.9032  2.3580 -1.0135
 7899TIP3   OH223660   5.328   0.934   1.800  0.2097  0.0468  0.0380
 7899TIP3    H123661   5.311   0.899   1.887 -2.8602  2.4606  0.5660
 7899TIP3    H223662   5.286   0.872   1.740 -1.1593  0.3979  0.6112
 7900TIP3   OH223663   3.617   4.429   1.174 -0.5508 -0.2115 -0.6339
 7900TIP3    H123664   3.553   4.491   1.210  0.4975  0.6985 -0.2937
 7900TIP3    H223665   3.640   4.465   1.089 -0.4161 -0.4846 -0.7146
 7901TIP3   OH223666   6.432   4.959   0.371  0.1703 -0.1525 -0.9552
 7901TIP3    H123667   6.461   5.019   0.439  0.0040 -2.4682  1.3179
 7901TIP3    H223668   6.366   5.008   0.323  2.5655  2.6976 -1.6401
 7902TIP3   OH223669   3.426   1.065   5.851  0.6034  0.4278  0.3928
 7902TIP3    H123670   3.515   1.083   5.822  0.8579 -1.2681  0.0207
 7902TIP3    H223671   3.379   1.040   5.771 -1.1271  4.2548 -0.0311
 7903TIP3   OH223672   1.687   2.821   4.761 -0.7117  0.1934 -0.2343
 7903TIP3    H123673   1.662   2.902   4.716 -0.7086  1.1548  1.4332
 7903TIP3    H223674   1.696   2.757   4.690  0.0848  1.8297 -1.6885
 7904TIP3   OH223675   1.629   1.705   3.419 -0.2528  0.3141 -0.3319
 7904TIP3    H123676   1.686   1.767   3.464  1.4044 -0.9490 -0.5793
 7904TIP3    H223677   1.567   1.675   3.486  0.6718  0.2178  0.4958
 7905TIP3   OH223678   6.895   3.031   3.334 -0.2344 -0.1999 -0.1365
 7905TIP3    H123679   6.827   2.982   3.380 -0.1884 -1.0244 -0.9292
 7905TIP3    H223680   6.868   3.123   3.343 -0.3856 -0.3616  1.2488
 7906TIP3   OH223681   6.821   5.639   4.814 -0.4815  0.4410 -0.2724
 7906TIP3    H123682   6.865   5.719   4.842 -0.2313  1.7983 -4.0235
 7906TIP3    H223683   6.885   5.570   4.829 -0.4406  0.9535  2.3583
 7907TIP3   OH223684   4.579   4.588   1.584  0.3017 -0.2434  0.8572
 7907TIP3    H123685   4.639   4.522   1.618 -0.1944 -0.4429  1.3628
 7907TIP3    H223686   4.493   4.545   1.585  0.4216 -0.7823 -1.9680
 7908TIP3   OH223687   5.505   0.629   3.924  0.0682 -0.4290  0.3554
 7908TIP3    H123688   5.473   0.658   4.009 -3.1947  0.7813 -1.1361
 7908TIP3    H223689   5.548   0.706   3.887  1.5951 -0.9896  0.8551
 7909TIP3   OH223690   0.405   0.696   0.719  0.2218 -0.4388 -0.3140
 7909TIP3    H123691   0.491   0.701   0.761  0.4237 -0.2288 -0.7515
 7909TIP3    H223692   0.387   0.602   0.712  1.6929 -0.6190 -2.7934
 7910TIP3   OH223693   7.016   6.118   2.038 -0.1872  0.5461 -0.1377
 7910TIP3    H123694   7.101   6.136   1.998  1.4787 -1.2938  2.2781
 7910TIP3    H223695   7.006   6.023   2.031 -0.9270  0.4634  1.6233
 7911TIP3   OH223696   0.001   3.903   0.272  0.9448  0.2369  0.1943
 7911TIP3    H123697  -0.070   3.879   0.213  1.1485  0.5915 -0.2039
 7911TIP3    H223698   0.081   3.889   0.221  1.1409  0.2177  0.5028
 7912TIP3   OH223699   4.549   3.983   1.214  0.4298  0.2450  0.0456
 7912TIP3    H123700   4.493   4.001   1.139 -0.8763 -1.0291  0.6610
 7912TIP3    H223701   4.638   3.981   1.177 -0.2716 -1.6554 -1.7653
 7913TIP3   OH223702   0.772   6.549   5.550  0.6658  0.3655  0.1290
 7913TIP3    H123703   0.831   6.613   5.511  1.5198 -1.0200 -0.9397
 7913TIP3    H223704   0.816   6.519   5.629 -0.3162  1.9587  1.3578
 7914TIP3   OH223705   1.516   3.307   3.250 -0.0191 -0.0587  0.5553
 7914TIP3    H123706   1.433   3.355   3.257 -0.0757 -0.2945  1.7199
 7914TIP3    H223707   1.489   3.217   3.231 -0.0109 -0.0729  0.6124
 7915TIP3   OH223708   5.267   4.116   5.409  0.2095 -0.7780  0.2498
 7915TIP3    H123709   5.255   4.027   5.374  0.3006 -0.5816 -0.2949
 7915TIP3    H223710   5.307   4.103   5.495  0.1425 -1.2705  0.2086
 7916TIP3   OH223711   2.039   4.527   3.467 -0.6833 -0.2918  0.0450
 7916TIP3    H123712   1.990   4.510   3.386 -0.2836 -1.3188  0.0006
 7916TIP3    H223713   2.019   4.452   3.522 -2.6637  1.3747  1.7896
 7917TIP3   OH223714   1.905   1.315   5.370  0.3695 -0.7926 -0.2774
 7917TIP3    H123715   1.944   1.359   5.294  1.8142 -1.6864 -0.0964
 7917TIP3    H223716   1.931   1.369   5.445 -0.0394 -0.5608 -0.3023
 7918TIP3   OH223717   0.072   5.446   1.031 -0.3279 -0.0601 -0.1887
 7918TIP3    H123718   0.154   5.445   0.980  0.5846  0.5084  1.2175
 7918TIP3    H223719   0.030   5.529   1.007 -0.3148 -0.1790 -0.6337
 7919TIP3   OH223720   1.051   3.530   1.243 -0.8185 -0.0624  0.6465
 7919TIP3    H123721   0.990   3.488   1.183 -1.9445  0.7862  1.1713
 7919TIP3    H223722   1.077   3.611   1.200 -0.7595  0.0098  0.8135
 7920TIP3   OH223723   3.584   4.574   4.382  0.1554 -0.3170 -0.5458
 7920TIP3    H123724   3.503   4.574   4.331 -0.6555  1.5229  0.6263
 7920TIP3    H223725   3.603   4.482   4.398 -0.9973 -0.8274 -1.9352
 7921TIP3   OH223726   3.199   5.644   4.169 -0.5010 -0.1201 -0.2904
 7921TIP3    H123727   3.149   5.726   4.164 -2.3314 -1.1682 -0.1769
 7921TIP3    H223728   3.179   5.609   4.255  0.5691 -0.5232 -0.1944
 7922TIP3   OH223729   4.232   1.750   2.740  0.0131  0.5334 -0.1483
 7922TIP3    H123730   4.150   1.755   2.691 -0.8897 -0.3668  1.1911
 7922TIP3    H223731   4.281   1.827   2.712 -0.7294  0.4013 -1.9322
 7923TIP3   OH223732   4.158   1.680   1.627 -0.0880  0.3625  0.0262
 7923TIP3    H123733   4.170   1.750   1.564  0.8268  0.8553  0.7259
 7923TIP3    H223734   4.147   1.724   1.711 -0.7335 -0.2987  0.3031
 7924TIP3   OH223735   0.413   4.036   5.199 -0.5712 -0.4641  0.0910
 7924TIP3    H123736   0.370   3.957   5.166  0.2614 -1.0657  0.4048
 7924TIP3    H223737   0.482   4.054   5.135 -0.4856 -0.2372  0.2471
 7925TIP3   OH223738   3.715   5.369   4.841  0.4483  0.3973 -0.0388
 7925TIP3    H123739   3.801   5.328   4.834  0.0777 -0.2546 -1.0339
 7925TIP3    H223740   3.700   5.407   4.755 -0.0230  0.9998  0.3040
 7926TIP3   OH223741   0.913   0.095   4.493 -0.2415  0.3700 -0.4985
 7926TIP3    H123742   0.884   0.181   4.462  1.3310  1.6496  1.3375
 7926TIP3    H223743   0.935   0.047   4.414 -1.0440  1.6859 -1.5657
 7927TIP3   OH223744   3.284   1.421   5.780  0.2005  0.4402  0.2651
 7927TIP3    H123745   3.369   1.420   5.737 -0.3340 -0.4125 -0.7971
 7927TIP3    H223746   3.253   1.511   5.771  0.7830  0.6429  0.2617
 7928TIP3   OH223747   5.952   3.834   5.754  0.4750 -0.9779 -0.4824
 7928TIP3    H123748   6.022   3.862   5.813  0.3267 -0.9964 -0.2972
 7928TIP3    H223749   5.944   3.740   5.770  2.8549 -1.7686 -3.0455
 7929TIP3   OH223750   1.296   4.230   0.990  0.2309  0.1763 -0.3316
 7929TIP3    H123751   1.323   4.173   0.918  1.1974  1.1935 -0.8145
 7929TIP3    H223752   1.202   4.242   0.978  0.2083 -0.4661 -0.8307
 7930TIP3   OH223753   6.834   6.168   4.104  0.0288  0.5680 -0.0754
 7930TIP3    H123754   6.913   6.155   4.052 -0.0027 -0.8213  0.1727
 7930TIP3    H223755   6.820   6.084   4.147 -0.7005  1.2752  1.1311
 7931TIP3   OH223756   5.705   6.619   0.276  0.4304  0.6479  0.4462
 7931TIP3    H123757   5.612   6.639   0.266  0.1867 -0.0537  1.1372
 7931TIP3    H223758   5.712   6.525   0.256  0.7588  0.3966  1.6406
 7932TIP3   OH223759   4.510   5.618   3.752  0.4536 -0.4634 -0.0001
 7932TIP3    H123760   4.520   5.579   3.838  0.8466  0.4229  0.3675
 7932TIP3    H223761   4.518   5.712   3.767 -0.0054 -0.2592 -0.9261
 7933TIP3   OH223762   6.598   5.976  -0.028  0.6897 -0.0598  0.1325
 7933TIP3    H123763   6.556   5.914   0.032  0.3085  0.2674  0.2083
 7933TIP3    H223764   6.690   5.976  -0.001  0.9764 -1.5783 -0.7151
 7934TIP3   OH223765   5.417   4.736   5.157 -0.0645 -0.1431  0.3706
 7934TIP3    H123766   5.400   4.807   5.094 -1.5540 -0.4404  0.3864
 7934TIP3    H223767   5.397   4.656   5.108 -1.2793 -0.3754  1.1949
 7935TIP3   OH223768   6.153   1.162   1.219 -0.1844 -0.0734 -0.4382
 7935TIP3    H123769   6.182   1.192   1.306  1.8173 -2.1783 -0.2767
 7935TIP3    H223770   6.076   1.215   1.200 -1.7912 -0.6747  3.4134
 7936TIP3   OH223771   5.418   5.053   5.891  0.0804 -0.0901  0.5391
 7936TIP3    H123772   5.489   5.072   5.830  0.6031 -0.7103  0.9313
 7936TIP3    H223773   5.401   4.960   5.879 -1.3874  0.2546 -0.2810
 7937TIP3   OH223774   6.239   2.870   0.371 -0.2306 -0.4464 -0.0192
 7937TIP3    H123775   6.224   2.883   0.464 -0.6561 -0.0421 -0.1429
 7937TIP3    H223776   6.155   2.837   0.337 -0.4206  0.4713 -0.4563
 7938TIP3   OH223777   0.636   6.367   2.285  0.1733  0.3651 -0.1395
 7938TIP3    H123778   0.574   6.359   2.357  1.4937 -1.5106  0.8706
 7938TIP3    H223779   0.615   6.452   2.245 -2.2230  0.3362  0.8666
 7939TIP3   OH223780   2.550   5.708   0.678 -0.2608 -0.5101 -0.2256
 7939TIP3    H123781   2.644   5.701   0.696  0.0922  2.6267 -0.4405
 7939TIP3    H223782   2.508   5.668   0.755  1.2485  0.3379  1.0989
 7940TIP3   OH223783   4.117   6.380   3.316 -0.4021  0.2984  0.1252
 7940TIP3    H123784   4.161   6.464   3.300  0.5351  0.0969  1.4996
 7940TIP3    H223785   4.156   6.348   3.397 -1.9590 -0.6741  0.5212
 7941TIP3   OH223786   4.804   4.019   1.093 -0.3621 -0.0352 -0.2333
 7941TIP3    H123787   4.852   4.002   1.012  0.1110 -0.3993  0.1121
 7941TIP3    H223788   4.872   4.017   1.161 -0.7543  0.2578  0.1687
 7942TIP3   OH223789   3.364   5.320   1.553  0.7772  0.3519 -0.0238
 7942TIP3    H123790   3.412   5.401   1.569  0.8641  0.2293  0.3590
 7942TIP3    H223791   3.299   5.343   1.487  2.2152  0.2034 -1.5519
 7943TIP3   OH223792   4.019   4.439   0.510  0.3228  0.4169  0.4220
 7943TIP3    H123793   3.933   4.399   0.500 -0.2773  1.0478  2.5115
 7943TIP3    H223794   4.030   4.492   0.431 -1.5055  0.8292  0.4035
 7944TIP3   OH223795   7.065   0.431   3.164 -0.2461  0.4479 -0.2503
 7944TIP3    H123796   7.026   0.518   3.153 -3.9383 -1.0864 -0.7778
 7944TIP3    H223797   7.081   0.400   3.074 -0.5600 -0.0685 -0.1303
 7945TIP3   OH223798   4.320   1.949   4.266  0.0275 -0.0458 -0.0324
 7945TIP3    H123799   4.387   1.897   4.310  0.0193  0.2228  0.2956
 7945TIP3    H223800   4.359   2.036   4.259 -1.1027  0.6858  2.0808
 7946TIP3   OH223801   7.017   2.921   5.651  0.2563  0.2979 -0.7270
 7946TIP3    H123802   7.084   2.943   5.585  1.9805 -2.2012  0.0214
 7946TIP3    H223803   7.054   2.846   5.698 -2.5996 -0.4254  0.5752
 7947TIP3   OH223804   1.150   5.826   1.931  0.2057  0.3280  0.3384
 7947TIP3    H123805   1.196   5.776   1.864 -1.0438  1.0439 -1.0966
 7947TIP3    H223806   1.059   5.800   1.922 -0.1941  1.5493  0.7556
 7948TIP3   OH223807   5.742   1.551   2.193  0.5309 -0.0001 -0.4090
 7948TIP3    H123808   5.780   1.504   2.267 -0.6594 -0.8199 -0.2937
 7948TIP3    H223809   5.748   1.490   2.120  0.0282  0.1038 -0.5415
 7949TIP3   OH223810   2.050   1.004   3.233  0.0054 -0.3406 -0.7549
 7949TIP3    H123811   1.976   0.949   3.261 -0.7001  0.4085 -1.1000
 7949TIP3    H223812   2.127   0.956   3.263 -0.6605  0.1239  2.0238
 7950TIP3   OH223813   0.415   4.380   0.927  0.6360 -0.2589  0.1874
 7950TIP3    H123814   0.455   4.298   0.899  0.4269  0.1861 -1.4928
 7950TIP3    H223815   0.461   4.448   0.878  0.5030  0.6091  1.2186
 7951TIP3   OH223816   5.621   2.755   1.912  1.0709  0.2741 -0.2888
 7951TIP3    H123817   5.676   2.676   1.907 -0.6904 -1.0352  0.0389
 7951TIP3    H223818   5.588   2.755   2.001 -0.7512  0.0672 -0.9161
 7952TIP3   OH223819   3.996   2.189   4.523 -0.2292 -0.0069  0.1732
 7952TIP3    H123820   4.005   2.103   4.482  0.4012  1.0322 -1.9860
 7952TIP3    H223821   3.926   2.232   4.475 -0.2866  0.8482  0.9874
 7953TIP3   OH223822   6.859   5.009   0.278  0.6995 -0.4935 -0.3932
 7953TIP3    H123823   6.849   5.096   0.240 -0.2419 -0.6856 -0.6222
 7953TIP3    H223824   6.783   4.960   0.245 -0.1009 -0.7184  1.6132
 7954TIP3   OH223825   4.576   2.798   5.768 -0.1631 -0.3241  0.1165
 7954TIP3    H123826   4.623   2.798   5.686  0.7797  0.6582  0.6409
 7954TIP3    H223827   4.501   2.856   5.753  0.6482  0.7877  0.2952
 7955TIP3   OH223828   3.143   0.730   2.491 -0.1723  0.0592 -0.0122
 7955TIP3    H123829   3.155   0.700   2.401 -0.9887  2.5376 -1.0570
 7955TIP3    H223830   3.214   0.792   2.505 -0.5005  0.2680  0.7709
 7956TIP3   OH223831   2.036   1.656   2.597 -0.0902 -0.5095 -0.2259
 7956TIP3    H123832   1.997   1.727   2.545 -1.6793 -1.5689 -0.5640
 7956TIP3    H223833   1.967   1.633   2.660  1.7032  0.6109  2.3180
 7957TIP3   OH223834   7.011   0.815   1.321 -0.0994 -0.2528 -0.7402
 7957TIP3    H123835   7.012   0.841   1.414  1.6857 -0.0847 -0.7650
 7957TIP3    H223836   6.936   0.862   1.284 -0.4375  0.2145  0.4786
 7958TIP3   OH223837   0.231   6.205   2.849 -0.1529 -0.2973 -0.1739
 7958TIP3    H123838   0.223   6.139   2.918 -0.4997 -0.4876 -0.3944
 7958TIP3    H223839   0.172   6.274   2.875  0.1153 -0.1281 -0.0087
 7959TIP3   OH223840   6.075   5.744   2.947  0.1176 -0.3890 -0.1976
 7959TIP3    H123841   6.010   5.674   2.939 -1.7889  1.2271  0.3184
 7959TIP3    H223842   6.091   5.751   3.042  0.9196 -0.6309 -0.3036
 7960TIP3   OH223843   4.744   3.664   5.726  0.2533 -0.5118  0.1579
 7960TIP3    H123844   4.806   3.682   5.655  0.6677 -0.8203  0.4362
 7960TIP3    H223845   4.658   3.669   5.685  0.5165 -1.4351 -0.5409
 7961TIP3   OH223846   1.049   5.628   2.875 -0.1755 -0.4710 -0.0193
 7961TIP3    H123847   1.014   5.538   2.876  0.4975 -0.7410 -0.2179
 7961TIP3    H223848   0.973   5.683   2.895 -0.9260 -0.9703 -1.3046
 7962TIP3   OH223849   4.563   5.492   3.981 -0.0905 -0.0843  0.1636
 7962TIP3    H123850   4.540   5.400   3.997 -0.4221  0.1587  1.2052
 7962TIP3    H223851   4.600   5.522   4.064  0.7188  0.5263 -0.4014
 7963TIP3   OH223852   6.914   1.340   0.625 -0.1183 -0.2339 -0.1760
 7963TIP3    H123853   6.840   1.383   0.582  0.7009 -0.7990 -2.2483
 7963TIP3    H223854   6.982   1.408   0.628  0.0977 -0.4301 -0.5389
 7964TIP3   OH223855   5.840   5.456   4.660 -0.1103  0.3248 -0.0358
 7964TIP3    H123856   5.832   5.551   4.659 -0.6510  0.2828  0.0909
 7964TIP3    H223857   5.855   5.432   4.569 -0.5743  0.4828 -0.1541
 7965TIP3   OH223858   1.458   6.126   2.580 -0.6070 -0.3221 -0.3638
 7965TIP3    H123859   1.372   6.167   2.573 -0.7563 -0.8958 -2.8531
 7965TIP3    H223860   1.441   6.032   2.578 -0.0766 -0.5962  2.5926
 7966TIP3   OH223861   0.750   6.475   4.769 -0.2521  0.6282 -0.0105
 7966TIP3    H123862   0.704   6.544   4.722 -1.7473  0.2148  0.8012
 7966TIP3    H223863   0.768   6.408   4.703 -1.4052  0.5083 -0.2122
 7967TIP3   OH223864   3.240   5.975   2.387  0.2313 -0.1579  0.7996
 7967TIP3    H123865   3.302   5.917   2.343 -1.5838 -0.9134 -0.8986
 7967TIP3    H223866   3.289   6.010   2.461  2.2605 -1.7143  0.2896
 7968TIP3   OH223867   6.616   0.295   1.200  0.3975  0.4007 -0.0382
 7968TIP3    H123868   6.532   0.335   1.176  0.1965 -0.8590 -1.5904
 7968TIP3    H223869   6.681   0.359   1.171  0.0223  0.8230  0.0270
 7969TIP3   OH223870   6.042   4.790   4.770 -0.0836 -0.4969 -0.5926
 7969TIP3    H123871   6.095   4.820   4.844  0.1035 -0.8206 -0.5935
 7969TIP3    H223872   6.037   4.695   4.781  0.6040 -0.6395 -1.4390
 7970TIP3   OH223873   2.276   6.424   1.502 -0.3359  0.4603  0.3470
 7970TIP3    H123874   2.369   6.416   1.521  0.1905  4.1463 -0.0048
 7970TIP3    H223875   2.269   6.400   1.409 -0.0303 -1.1146  0.6992
 7971TIP3   OH223876   2.555   0.271   2.849  0.7010 -0.0374 -0.2385
 7971TIP3    H123877   2.620   0.303   2.785  0.4747  1.1482  0.0963
 7971TIP3    H223878   2.606   0.220   2.911  1.2034  0.2578 -0.4005
 7972TIP3   OH223879   6.775   0.743   2.275 -0.2614  0.1758 -0.2800
 7972TIP3    H123880   6.820   0.825   2.296 -1.0566  0.5516 -0.0067
 7972TIP3    H223881   6.685   0.757   2.305 -0.0509 -1.3637  1.1995
 7973TIP3   OH223882   6.163   2.407   5.143  0.1935  0.4621  0.7121
 7973TIP3    H123883   6.185   2.386   5.233 -3.1858  0.4910  1.7062
 7973TIP3    H223884   6.138   2.500   5.146 -1.9604 -0.0513  0.2854
 7974TIP3   OH223885   4.886   4.485   3.286 -0.9134 -0.0550  0.1946
 7974TIP3    H123886   4.931   4.569   3.272 -0.6890 -0.5784 -2.9956
 7974TIP3    H223887   4.793   4.506   3.273 -0.8080 -0.3309 -1.2156
 7975TIP3   OH223888   0.140   5.149   2.334 -0.1438  0.5599 -0.0870
 7975TIP3    H123889   0.067   5.092   2.358 -0.8946  0.9013 -1.4274
 7975TIP3    H223890   0.114   5.235   2.365  0.6977  0.3221  1.3598
 7976TIP3   OH223891   1.896   5.612   2.633 -0.2972  0.2842  0.1408
 7976TIP3    H123892   1.978   5.631   2.677  0.3813 -2.4060  0.2598
 7976TIP3    H223893   1.914   5.532   2.583 -2.7311 -0.1646 -0.1494
 7977TIP3   OH223894   6.539   1.128   5.648  0.1696 -0.1442 -0.5170
 7977TIP3    H123895   6.531   1.075   5.728 -1.9819 -2.2333 -1.9792
 7977TIP3    H223896   6.510   1.215   5.675  0.3353 -0.5599  1.1632
 7978TIP3   OH223897   0.996   1.982   1.988  0.1717  0.8361  0.3551
 7978TIP3    H123898   0.975   1.896   1.952  0.7894  0.7577  0.1695
 7978TIP3    H223899   0.911   2.021   2.009 -0.1702  0.6240 -0.5902
 7979TIP3   OH223900   5.891   6.598   2.621 -0.1012 -0.4547 -0.0036
 7979TIP3    H123901   5.854   6.606   2.533 -0.7930  1.6974  0.4233
 7979TIP3    H223902   5.875   6.683   2.662  2.1044 -0.6595  1.4876
 7980TIP3   OH223903   5.522   5.313   5.304 -0.4634 -0.1674  0.2348
 7980TIP3    H123904   5.596   5.316   5.365 -0.4119 -0.2779  0.1777
 7980TIP3    H223905   5.516   5.222   5.277 -0.1618 -0.0276 -0.3231
 7981TIP3   OH223906   2.792   2.954   3.099 -0.2133  0.2289 -0.0702
 7981TIP3    H123907   2.834   2.976   3.016  1.1811 -2.6817 -0.2751
 7981TIP3    H223908   2.722   2.893   3.075 -0.6578  0.3725  0.7950
 7982TIP3   OH223909   3.411   2.812   5.465  0.3145 -0.7396 -0.4320
 7982TIP3    H123910   3.458   2.870   5.406 -1.2329  1.1407  0.0825
 7982TIP3    H223911   3.469   2.802   5.540  0.5378  0.3003 -0.4530
 7983TIP3   OH223912   1.812   1.497   3.925  0.0196  0.4353  0.3357
 7983TIP3    H123913   1.794   1.530   4.013  1.4099  1.7271  0.1784
 7983TIP3    H223914   1.739   1.527   3.872  0.1439  1.3490  0.6652
 7984TIP3   OH223915   5.794   3.755   1.130  0.1411  0.0491 -0.2466
 7984TIP3    H123916   5.818   3.672   1.170  1.4180 -0.0258 -1.1049
 7984TIP3    H223917   5.878   3.799   1.115 -0.3879  0.6721 -1.5251
 7985TIP3   OH223918   6.349   4.427   4.415 -0.7451 -0.5057 -0.1460
 7985TIP3    H123919   6.287   4.482   4.463 -1.4719 -1.3280 -0.1246
 7985TIP3    H223920   6.429   4.481   4.410 -0.8385 -0.1493  1.4347
 7986TIP3   OH223921   3.628   3.665   3.570 -0.0677 -0.0608 -0.1171
 7986TIP3    H123922   3.698   3.601   3.576  0.5962  0.6380 -0.2035
 7986TIP3    H223923   3.551   3.621   3.607  0.4257 -0.8204  0.0124
 7987TIP3   OH223924   4.454   0.245   3.563 -0.0488 -0.3384  0.1108
 7987TIP3    H123925   4.428   0.154   3.575  1.6269 -0.9599 -0.7307
 7987TIP3    H223926   4.440   0.285   3.649  0.4438 -1.7198  0.8685
 7988TIP3   OH223927   1.744   0.831   0.799 -0.3525  0.0038 -0.1873
 7988TIP3    H123928   1.762   0.868   0.885 -0.7822 -0.3222  0.0462
 7988TIP3    H223929   1.808   0.760   0.790 -1.1416 -0.8026  0.4140
 7989TIP3   OH223930   6.706   1.361   5.356 -0.2989 -0.0603 -0.3403
 7989TIP3    H123931   6.720   1.444   5.310  0.0959  0.4689  0.6895
 7989TIP3    H223932   6.794   1.327   5.373 -0.2994  0.8408  1.8690
 7990TIP3   OH223933   4.636   2.095   3.446  0.4443  0.4340  0.1294
 7990TIP3    H123934   4.626   2.168   3.508 -0.4454  1.7922 -1.5129
 7990TIP3    H223935   4.707   2.122   3.388 -0.9490  0.8349 -1.4941
 7991TIP3   OH223936   6.805   6.437   1.661 -0.1265  0.2098  0.2293
 7991TIP3    H123937   6.826   6.343   1.655  4.3712  0.9612  0.7981
 7991TIP3    H223938   6.743   6.443   1.733 -0.7749 -2.3213 -0.0193
 7992TIP3   OH223939   0.310   0.371   3.192  0.4009 -0.1386 -0.5667
 7992TIP3    H123940   0.262   0.399   3.114  0.1070  0.9204 -0.0357
 7992TIP3    H223941   0.360   0.448   3.218  1.0698 -0.7086 -0.1300
 7993TIP3   OH223942   5.955   3.407   4.564  0.2284 -0.3919  0.1719
 7993TIP3    H123943   6.004   3.484   4.538  0.9892 -0.7901  0.3957
 7993TIP3    H223944   5.882   3.441   4.616 -0.7860  0.3455 -1.6425
 7994TIP3   OH223945   6.792   4.976   3.759  0.1474  0.0055  0.5088
 7994TIP3    H123946   6.747   4.892   3.767  0.6372 -0.3218 -0.0537
 7994TIP3    H223947   6.845   4.967   3.680 -0.3452  1.1146  0.0439
 7995TIP3   OH223948   4.318   5.143   2.290  0.6420 -0.1626 -0.2200
 7995TIP3    H123949   4.364   5.140   2.206 -1.8856  0.4742 -1.7177
 7995TIP3    H223950   4.271   5.060   2.295 -0.5982  0.5080 -0.3159
 7996TIP3   OH223951   3.317   0.637   0.208 -0.2190 -0.1703 -0.2345
 7996TIP3    H123952   3.370   0.620   0.131  1.3836 -0.3628  0.8562
 7996TIP3    H223953   3.285   0.551   0.236  0.0178 -0.2315 -0.1440
 7997TIP3   OH223954   5.431   1.513   3.643  0.2006  0.0375  0.1300
 7997TIP3    H123955   5.517   1.470   3.647  0.6059  0.6868 -1.0879
 7997TIP3    H223956   5.391   1.477   3.564 -0.8080 -0.5300  0.8886
 7998TIP3   OH223957   3.159   0.868   2.158 -0.0692  0.6433  0.1119
 7998TIP3    H123958   3.222   0.889   2.089  1.1477 -0.2493  0.9109
 7998TIP3    H223959   3.154   0.773   2.157  1.0307  0.5026  2.1163
 7999TIP3   OH223960   2.224   1.447   3.658 -0.5110 -0.3408  0.0889
 7999TIP3    H123961   2.166   1.516   3.691 -1.9084 -2.1205  1.5553
 7999TIP3    H223962   2.164   1.379   3.627  0.7821 -1.6734  0.4312
 8000TIP3   OH223963   5.853   3.292   5.167  0.1544 -0.3910  0.6216
 8000TIP3    H123964   5.765   3.264   5.192 -0.7483 -0.4940 -2.2510
 8000TIP3    H223965   5.900   3.210   5.149  1.1108 -0.3657  2.7621
 8001TIP3   OH223966   4.624   0.911   1.132 -0.0054 -0.0994 -0.1378
 8001TIP3    H123967   4.559   0.922   1.201  0.9795 -0.8241  0.9510
 8001TIP3    H223968   4.595   0.969   1.062 -0.1504  2.0224  1.5570
 8002TIP3   OH223969   6.794   0.137  -0.027  0.1486  0.3765  0.2635
 8002TIP3    H123970   6.873   0.140   0.028 -0.0265 -3.9308  1.0685
 8002TIP3    H223971   6.723   0.120   0.035 -0.7232 -0.2929 -0.8872
 8003TIP3   OH223972   6.562   2.398   1.629 -0.4312 -0.8978 -0.3411
 8003TIP3    H123973   6.641   2.452   1.632 -0.0000 -1.5540  1.0510
 8003TIP3    H223974   6.593   2.309   1.616 -0.8035 -1.3486  1.5784
 8004TIP3   OH223975   4.845   0.198   5.067 -0.2554  0.4286 -0.1395
 8004TIP3    H123976   4.875   0.202   4.976 -0.1835  2.3507 -0.0775
 8004TIP3    H223977   4.793   0.118   5.072  1.4885 -0.8424 -1.3095
 8005TIP3   OH223978   3.183   3.866   5.048  0.3680 -0.5278 -0.1170
 8005TIP3    H123979   3.194   3.921   5.125  2.1510 -2.0675  0.8136
 8005TIP3    H223980   3.261   3.811   5.046 -0.9025 -2.4404 -1.4411
 8006TIP3   OH223981   2.483   6.334   0.901 -0.3178 -0.1431 -0.6364
 8006TIP3    H123982   2.574   6.325   0.929  0.0791 -3.1842 -2.4994
 8006TIP3    H223983   2.431   6.301   0.975 -0.1642  2.7723  0.9610
 8007TIP3   OH223984   6.864   2.959   3.814 -0.0408 -0.2327  0.6421
 8007TIP3    H123985   6.798   2.978   3.746 -0.6145 -2.1466  0.6098
 8007TIP3    H223986   6.818   2.974   3.896 -0.7779 -2.1608  0.6310
 8008TIP3   OH223987   3.530   4.780   0.959 -0.1655 -0.4497 -0.0850
 8008TIP3    H123988   3.590   4.817   0.894 -0.1255 -0.6260 -0.1502
 8008TIP3    H223989   3.543   4.834   1.037 -0.4545 -0.0245 -0.3236
 8009TIP3   OH223990   3.248   4.329   5.072  0.7651 -0.4013 -0.5846
 8009TIP3    H123991   3.288   4.255   5.026 -0.3416 -0.2132 -1.9129
 8009TIP3    H223992   3.276   4.406   5.023  0.3210 -0.1084 -0.3842
 8010TIP3   OH223993   6.635   4.742   4.309 -0.1915 -0.3490 -0.2594
 8010TIP3    H123994   6.602   4.716   4.395 -0.2025 -0.9905 -0.4534
 8010TIP3    H223995   6.611   4.670   4.251  2.5585 -1.4481 -0.1723
 8011TIP3   OH223996   1.277   3.044   0.786  0.4677 -0.4740 -0.1845
 8011TIP3    H123997   1.363   3.072   0.819 -0.2505 -0.0481  1.4666
 8011TIP3    H223998   1.215   3.082   0.849 -0.8895 -1.2595 -1.0190
 8012TIP3   OH223999   1.482   2.337   3.168  0.0519  0.0183  0.0678
 8012TIP3    H124000   1.534   2.394   3.225 -1.3532 -0.6631  2.1434
 8012TIP3    H224001   1.539   2.263   3.148 -0.3567 -1.2930  3.2570
 8013TIP3   OH224002   0.423   1.877   2.575  0.3399 -0.5706 -0.1471
 8013TIP3    H124003   0.412   1.914   2.488 -1.3216 -1.6984 -0.4552
 8013TIP3    H224004   0.476   1.798   2.561  0.8569 -0.2593  0.0132
 8014TIP3   OH224005   3.848   6.103   3.500  0.2427 -0.2441 -0.9107
 8014TIP3    H124006   3.895   6.045   3.440  0.8726 -0.2232 -0.4456
 8014TIP3    H224007   3.799   6.162   3.443  1.4679  0.3008 -1.4231
 8015TIP3   OH224008   0.654   5.518   4.674  0.4599  0.1723  0.5878
 8015TIP3    H124009   0.606   5.567   4.607  1.2390  1.3024  0.8365
 8015TIP3    H224010   0.648   5.427   4.646  1.6949  0.7085 -1.6477
 8016TIP3   OH224011   1.130   2.369   4.598  0.0913  0.4233 -0.5769
 8016TIP3    H124012   1.073   2.414   4.536 -1.5274  0.5861  0.9425
 8016TIP3    H224013   1.146   2.283   4.560  2.1212  1.6943 -2.8851
 8017TIP3   OH224014   6.612   1.762   1.492  0.3463  1.0031 -0.0742
 8017TIP3    H124015   6.669   1.733   1.564  0.8916  1.0007 -0.4983
 8017TIP3    H224016   6.524   1.737   1.519  0.7417 -0.6826 -0.2268
 8018TIP3   OH224017   1.567   0.635   0.712 -0.0910 -0.1104 -0.0460
 8018TIP3    H124018   1.638   0.698   0.725  0.5565 -0.9620  0.6229
 8018TIP3    H224019   1.553   0.634   0.617  1.2709 -0.4440 -0.2673
 8019TIP3   OH224020   1.287   1.880   3.856  0.2945  0.1164 -0.1649
 8019TIP3    H124021   1.243   1.812   3.906 -0.2601  0.1719 -0.5670
 8019TIP3    H224022   1.350   1.918   3.917  0.7737 -0.9077 -0.0069
 8020TIP3   OH224023   4.729   5.864   0.441  0.4774  0.2850  0.5105
 8020TIP3    H124024   4.646   5.871   0.394  0.8790 -1.6272 -0.5812
 8020TIP3    H224025   4.796   5.862   0.373  1.4451  1.6248  1.3689
 8021TIP3   OH224026   5.205   0.428   4.032 -0.3703 -0.0849 -0.5373
 8021TIP3    H124027   5.230   0.476   3.953  0.1785  0.6271  0.0641
 8021TIP3    H224028   5.115   0.457   4.050  0.2158  1.3297  0.2522
 8022TIP3   OH224029   5.661   0.346   4.158  0.2053 -0.0592 -0.9075
 8022TIP3    H124030   5.599   0.317   4.225  0.3332  0.3547 -0.6102
 8022TIP3    H224031   5.707   0.420   4.197 -0.2778  0.7001 -1.7550
 8023TIP3   OH224032   1.813   2.296   2.037 -0.0206  0.2660 -0.0141
 8023TIP3    H124033   1.757   2.219   2.038  1.0305 -0.5253  0.9745
 8023TIP3    H224034   1.755   2.369   2.057 -0.9738 -0.2953 -0.6277
 8024TIP3   OH224035   5.513   4.351   1.051 -0.0556  0.2353 -0.0866
 8024TIP3    H124036   5.450   4.413   1.089  0.8274  0.1678  1.5766
 8024TIP3    H224037   5.595   4.368   1.098  1.1952  0.2984 -2.1708
 8025TIP3   OH224038   0.577   3.083   0.394  0.9742 -0.1064  0.1924
 8025TIP3    H124039   0.492   3.121   0.417  0.5675 -0.6072 -0.4433
 8025TIP3    H224040   0.579   3.085   0.298  1.5610 -0.3464  0.1948
 8026TIP3   OH224041   2.679   3.127   1.925 -0.3564 -0.2217 -0.0847
 8026TIP3    H124042   2.733   3.204   1.944 -1.1191  0.6950 -1.4795
 8026TIP3    H224043   2.595   3.162   1.897 -0.6437 -1.5653 -0.9975
 8027TIP3   OH224044   2.011   4.317   5.422  0.4764  0.0771  0.2737
 8027TIP3    H124045   2.038   4.235   5.381  1.9284 -0.3423  1.9514
 8027TIP3    H224046   1.933   4.294   5.472  0.6688 -0.2034  0.4497
 8028TIP3   OH224047   2.360   6.383   0.646 -0.3002  0.6559  0.1299
 8028TIP3    H124048   2.325   6.294   0.647 -2.5118  1.4529  0.4671
 8028TIP3    H224049   2.385   6.400   0.737 -0.8642  0.7226  0.2758
 8029TIP3   OH224050   3.223   6.076   1.167  0.2165 -0.2494 -0.0771
 8029TIP3    H124051   3.157   6.012   1.194  1.1875 -1.7977 -1.1935
 8029TIP3    H224052   3.306   6.030   1.177  0.9292  0.7312 -1.1871
 8030TIP3   OH224053   5.730   6.727   2.371  0.5921  0.4771 -0.3481
 8030TIP3    H124054   5.679   6.662   2.324  0.5030  1.1588 -1.2206
 8030TIP3    H224055   5.816   6.727   2.328  0.3601  1.4381 -0.8562
 8031TIP3   OH224056   5.733   3.400   5.475 -0.0108 -0.4315  0.1112
 8031TIP3    H124057   5.760   3.391   5.567 -1.6219 -2.7388  0.4535
 8031TIP3    H224058   5.639   3.415   5.479 -0.8551 -4.3227 -1.0976
 8032TIP3   OH224059   6.212   0.365   2.777  0.0402 -0.1469  0.2489
 8032TIP3    H124060   6.167   0.434   2.729 -0.4395 -0.2081  0.6088
 8032TIP3    H224061   6.214   0.396   2.868  1.5456  0.2855  0.0957
 8033TIP3   OH224062   3.206   2.257   5.390 -0.1816 -0.2616  0.1982
 8033TIP3    H124063   3.149   2.186   5.421  2.0726 -2.1934  0.1756
 8033TIP3    H224064   3.190   2.329   5.450 -1.8316 -1.0993  0.8314
 8034TIP3   OH224065   4.888   1.495   4.221  0.1420  0.1521  0.5843
 8034TIP3    H124066   4.835   1.528   4.293 -0.6008  1.6927 -0.6163
 8034TIP3    H224067   4.929   1.573   4.183  1.8903 -0.8141  0.3810
 8035TIP3   OH224068   6.676   6.641   3.043 -0.0199  0.8206 -0.7705
 8035TIP3    H124069   6.752   6.615   3.094 -0.1295  0.1081 -0.9619
 8035TIP3    H224070   6.602   6.629   3.102 -0.0675  0.7353 -0.8481
 8036TIP3   OH224071   1.030   2.576   5.794  0.1754  0.0768 -0.2380
 8036TIP3    H124072   1.043   2.665   5.762  0.0759  0.2058  0.0813
 8036TIP3    H224073   1.115   2.549   5.827 -0.3339  1.0014  2.0569
 8037TIP3   OH224074   3.514   2.097   0.936 -0.3819  0.2359 -0.1535
 8037TIP3    H124075   3.466   2.079   1.017  0.6877 -0.0784  0.4309
 8037TIP3    H224076   3.555   2.014   0.914 -1.1045  0.1662 -1.3472
 8038TIP3   OH224077   6.025   6.360   5.679 -0.7268 -0.2171 -0.3170
 8038TIP3    H124078   6.068   6.310   5.748  0.1093 -1.0315 -1.3833
 8038TIP3    H224079   6.097   6.393   5.625 -1.3959 -0.5726 -1.4592
 8039TIP3   OH224080   5.664   1.092   1.632  0.5112  0.0926  0.1537
 8039TIP3    H124081   5.669   1.034   1.708 -0.6064  0.7204  0.7226
 8039TIP3    H224082   5.755   1.102   1.604  1.1391  1.1639  2.3884
 8040TIP3   OH224083   2.154   1.868   1.916 -0.5214  0.1869 -0.3993
 8040TIP3    H124084   2.109   1.787   1.938 -0.0538 -0.1330 -0.6066
 8040TIP3    H224085   2.083   1.932   1.904 -0.8166  0.4299  2.0891
 8041TIP3   OH224086   4.046   5.027   4.362  0.1868 -0.0032 -0.2263
 8041TIP3    H124087   3.973   5.054   4.306  0.4182 -0.9609 -1.0388
 8041TIP3    H224088   4.090   4.958   4.311  0.0511 -1.3514  1.3920
 8042TIP3   OH224089   6.006   4.693   3.092 -0.3924 -0.1799 -0.0300
 8042TIP3    H124090   5.953   4.727   3.020  0.1238 -2.1915 -1.4306
 8042TIP3    H224091   6.095   4.721   3.072 -0.1757 -1.1344 -0.4673
 8043TIP3   OH224092   4.824   3.069   3.881 -0.0121  0.1063  0.5843
 8043TIP3    H124093   4.825   2.990   3.936  0.5971 -0.2366  0.0884
 8043TIP3    H224094   4.756   3.052   3.816  1.3056 -0.7862 -0.6148
 8044TIP3   OH224095   2.785   1.022   3.412 -0.0889  0.0973 -0.3193
 8044TIP3    H124096   2.831   0.988   3.336  1.6142  0.5098  0.4781
 8044TIP3    H224097   2.734   0.947   3.445  1.0018 -0.7538 -0.5099
 8045TIP3   OH224098   5.702   2.188   3.406  0.1290 -0.1883 -0.8085
 8045TIP3    H124099   5.621   2.137   3.392  0.2016 -0.2336 -1.0626
 8045TIP3    H224100   5.674   2.279   3.403 -0.1757 -0.2080  0.6544
 8046TIP3   OH224101   6.846   0.276   3.244  0.1284 -0.1261 -0.0510
 8046TIP3    H124102   6.924   0.329   3.229 -0.3147  0.2808 -0.9665
 8046TIP3    H224103   6.843   0.216   3.170 -0.3865 -0.1905  0.0181
 8047TIP3   OH224104   6.130   3.702   3.721 -0.2024 -0.3461 -0.2130
 8047TIP3    H124105   6.096   3.689   3.809  0.9936 -0.4142  0.2652
 8047TIP3    H224106   6.053   3.697   3.664 -0.9692 -0.4655  0.8047
 8048TIP3   OH224107   2.455   6.344   2.700  0.4196  0.2666  0.0081
 8048TIP3    H124108   2.494   6.392   2.627 -3.2347 -2.1216 -4.0611
 8048TIP3    H224109   2.495   6.258   2.697 -0.7905 -0.3147 -0.2590
 8049TIP3   OH224110   1.698   6.529   0.493 -0.1620 -0.2973 -0.2722
 8049TIP3    H124111   1.751   6.592   0.541  0.3764 -0.5056 -0.5868
 8049TIP3    H224112   1.609   6.563   0.500  0.0627  0.2610 -0.0617
 8050TIP3   OH224113   2.019   6.772   3.637  0.4789  0.3098  0.0830
 8050TIP3    H124114   1.938   6.738   3.600  0.5829  0.0279  0.1136
 8050TIP3    H224115   2.056   6.699   3.686  1.6047 -0.1084 -1.3196
 8051TIP3   OH224116   5.613   0.461   1.128  0.6785 -0.5690 -0.1810
 8051TIP3    H124117   5.604   0.408   1.049 -0.9335  0.6230 -0.8591
 8051TIP3    H224118   5.523   0.486   1.150  1.3793  3.2104 -0.8983
 8052TIP3   OH224119   6.033   2.124   2.131 -0.0536 -0.3142 -0.2511
 8052TIP3    H124120   6.096   2.134   2.060  0.0817 -0.1942 -0.1154
 8052TIP3    H224121   6.058   2.043   2.175  0.2072 -0.0988  0.0016
 8053TIP3   OH224122   0.912   1.082   0.196  0.0606  0.6858 -0.4147
 8053TIP3    H124123   0.951   1.061   0.111 -2.7814  1.5953 -2.1069
 8053TIP3    H224124   0.982   1.068   0.259  2.1323 -0.6624 -2.8233
 8054TIP3   OH224125   3.380   1.821   2.204 -0.2024 -0.6301  0.0628
 8054TIP3    H124126   3.363   1.894   2.262  2.0461 -1.3655  1.7541
 8054TIP3    H224127   3.302   1.817   2.147 -0.1021  3.4316 -0.5926
 8055TIP3   OH224128   7.182   4.242   1.607 -0.0354  0.0641 -0.0668
 8055TIP3    H124129   7.262   4.196   1.633  0.9212  1.1594 -0.9525
 8055TIP3    H224130   7.153   4.196   1.529 -1.1575 -1.2743  1.0825
 8056TIP3   OH224131   2.539   0.929   4.979 -0.1248 -0.5731  0.0148
 8056TIP3    H124132   2.590   0.990   5.032  0.7554 -0.8578 -0.5011
 8056TIP3    H224133   2.504   0.866   5.042 -0.0700 -0.2221  0.4007
 8057TIP3   OH224134   2.893   0.532   2.316  0.1196  0.1657  0.3859
 8057TIP3    H124135   2.828   0.548   2.248  0.7209  1.0166 -0.0022
 8057TIP3    H224136   2.842   0.520   2.396 -0.5580 -0.2292 -0.0999
 8058TIP3   OH224137   5.250   5.229   2.392  0.1577  0.0159 -0.0144
 8058TIP3    H124138   5.196   5.154   2.416 -1.6495  0.2903 -2.7149
 8058TIP3    H224139   5.325   5.225   2.451 -1.0247 -2.5235  1.4878
 8059TIP3   OH224140   1.304   5.083   4.886 -0.6883  0.4708  0.5132
 8059TIP3    H124141   1.357   5.026   4.942 -0.2802  0.2850 -0.0438
 8059TIP3    H224142   1.346   5.168   4.892  0.7741 -0.0559 -1.2786
 8060TIP3   OH224143   4.724   1.524   4.430  0.0525  0.1895 -0.1159
 8060TIP3    H124144   4.642   1.474   4.434  2.0791 -3.4950 -0.5690
 8060TIP3    H224145   4.749   1.536   4.522 -0.0528 -0.4400  0.0049
 8061TIP3   OH224146   3.263   1.487   0.283  0.0731  0.4417 -0.2917
 8061TIP3    H124147   3.266   1.393   0.269  0.2103  0.3901  0.0946
 8061TIP3    H224148   3.320   1.503   0.358 -0.5350  0.7439  0.1156
 8062TIP3   OH224149   5.831   6.436   2.870 -0.0899 -0.7224 -0.1139
 8062TIP3    H124150   5.825   6.500   2.941  0.4099  0.2969 -0.9581
 8062TIP3    H224151   5.896   6.473   2.810 -0.8029 -1.3494 -1.3049
 8063TIP3   OH224152   3.114   4.976   5.061 -0.2841 -0.0106 -0.0392
 8063TIP3    H124153   3.078   4.955   5.148  0.6015  0.3563  0.4267
 8063TIP3    H224154   3.037   4.994   5.007 -0.8124  1.1041  1.0335
 8064TIP3   OH224155   4.409   0.240   0.505 -0.5248 -0.7175  0.1395
 8064TIP3    H124156   4.385   0.167   0.447 -0.7438  0.2242 -0.9946
 8064TIP3    H224157   4.357   0.313   0.474 -0.0125  0.0319  1.0065
 8065TIP3   OH224158   1.709   4.171   2.044  0.3349 -0.1778 -0.1004
 8065TIP3    H124159   1.696   4.128   1.959 -1.0956 -1.7490  0.8540
 8065TIP3    H224160   1.802   4.159   2.063  0.1655 -2.1881 -0.2812
 8066TIP3   OH224161   3.471   3.453   1.145 -0.1482  0.9880 -0.1694
 8066TIP3    H124162   3.428   3.399   1.079 -1.6628  2.6930 -0.6624
 8066TIP3    H224163   3.412   3.449   1.221  1.7109 -1.1894  1.3030
 8067TIP3   OH224164   1.807   1.009   3.619  0.3409 -0.1313 -0.2488
 8067TIP3    H124165   1.901   1.020   3.605  0.2595  1.1543  0.1108
 8067TIP3    H224166   1.766   1.064   3.553 -0.1849 -1.0100 -0.6728
 8068TIP3   OH224167   4.497   3.788   2.606 -0.4558 -0.2737  0.0612
 8068TIP3    H124168   4.451   3.739   2.538 -0.2444 -1.8832  1.0396
 8068TIP3    H224169   4.556   3.845   2.558 -0.1549 -1.5246 -1.1154
 8069TIP3   OH224170   3.779   6.506   4.894 -0.0413 -0.0133  0.1033
 8069TIP3    H124171   3.866   6.467   4.900  0.2797  0.6263 -0.3848
 8069TIP3    H224172   3.720   6.433   4.914  0.6243 -0.2233  1.4654
 8070TIP3   OH224173   3.503   3.644   2.625  0.0760 -0.1065  0.1711
 8070TIP3    H124174   3.575   3.611   2.572 -0.9840 -0.5383 -1.0633
 8070TIP3    H224175   3.488   3.733   2.591 -2.4069 -1.3062 -2.3695
 8071TIP3   OH224176   1.949   2.396   2.864 -0.2932  0.0112  0.0648
 8071TIP3    H124177   1.858   2.423   2.868 -0.0692  0.7134  0.5253
 8071TIP3    H224178   1.983   2.437   2.785 -0.9702 -2.1786 -1.4524
 8072TIP3   OH224179   0.700   3.235   1.565 -0.1515  0.0739 -0.0190
 8072TIP3    H124180   0.690   3.322   1.603  0.9479  0.4525 -0.5540
 8072TIP3    H224181   0.786   3.205   1.595  0.2152 -0.1153 -1.2035
 8073TIP3   OH224182   0.215   2.248   2.709  0.0109 -0.4376  0.2052
 8073TIP3    H124183   0.160   2.186   2.757  0.2642 -2.1580 -1.5804
 8073TIP3    H224184   0.165   2.266   2.628  0.2918  1.1459  0.3410
 8074TIP3   OH224185   5.366   3.738   4.406  0.1810  0.2306 -0.3759
 8074TIP3    H124186   5.388   3.831   4.416 -0.4172  0.3000  0.3553
 8074TIP3    H224187   5.369   3.704   4.495 -2.1764  0.1315 -0.2954
 8075TIP3   OH224188   6.421   2.932   5.005  0.2415  0.1944  0.5465
 8075TIP3    H124189   6.504   2.919   4.959  0.1710  0.4843  0.3357
 8075TIP3    H224190   6.427   2.876   5.082  0.4947 -0.0439  0.3538
 8076TIP3   OH224191   6.995   3.235   0.190  0.0081  0.2282  0.0470
 8076TIP3    H124192   6.965   3.195   0.108  1.1598  1.0736 -0.8181
 8076TIP3    H224193   7.011   3.161   0.248 -1.4945 -0.3512 -0.2375
 8077TIP3   OH224194   2.852   6.480   4.518  0.4537 -0.1852  0.1868
 8077TIP3    H124195   2.799   6.447   4.445 -0.3689  0.3662  0.5122
 8077TIP3    H224196   2.788   6.495   4.588  1.0045  0.7414  0.5010
 8078TIP3   OH224197   6.434   6.698   1.059  0.3825  0.1790  0.1116
 8078TIP3    H124198   6.406   6.783   1.092  0.5596  0.0387  0.6291
 8078TIP3    H224199   6.529   6.708   1.047  0.5631 -0.2386  1.0923
 8079TIP3   OH224200   5.968   1.853   4.640 -0.7931 -0.1013  0.2402
 8079TIP3    H124201   6.053   1.897   4.636 -2.2172  2.8563 -0.5499
 8079TIP3    H224202   5.942   1.859   4.732 -0.6078 -0.0158  0.2874
 8080TIP3   OH224203   0.610   3.544   4.950  0.1116  0.1317 -0.5174
 8080TIP3    H124204   0.575   3.464   4.911  1.5666 -1.4334  1.2171
 8080TIP3    H224205   0.699   3.520   4.977  0.3633  2.1657  0.6037
 8081TIP3   OH224206   3.248   1.192   0.445 -0.4190 -0.2408 -0.9106
 8081TIP3    H124207   3.252   1.259   0.513 -0.1342  0.4646 -1.6178
 8081TIP3    H224208   3.324   1.136   0.462 -1.2168 -1.0105  0.2982
 8082TIP3   OH224209   1.763   0.483   0.424 -0.3102  0.2700 -0.6052
 8082TIP3    H124210   1.671   0.504   0.439 -0.7614 -0.6723 -1.8054
 8082TIP3    H224211   1.792   0.437   0.503  0.0153  3.0856  1.0289
 8083TIP3   OH224212   6.926   4.372   0.953  0.0354 -0.2532 -0.1202
 8083TIP3    H124213   6.963   4.285   0.941  1.9808  0.3224  1.1680
 8083TIP3    H224214   6.969   4.426   0.886 -0.0196  0.0160  0.0601
 8084TIP3   OH224215   2.774   5.248   1.915  0.2456  0.2052  0.6927
 8084TIP3    H124216   2.793   5.193   1.839 -1.4436 -1.5342  1.4496
 8084TIP3    H224217   2.860   5.270   1.951  1.0906  1.0331 -1.6221
 8085TIP3   OH224218   6.098   2.741   5.367 -0.1243  0.3546  0.0602
 8085TIP3    H124219   6.166   2.695   5.316 -0.3259 -1.0166  0.9673
 8085TIP3    H224220   6.016   2.708   5.332 -0.2695 -0.2230  0.9136
 8086TIP3   OH224221   5.998   5.191   0.206 -0.4134  0.3774  0.1175
 8086TIP3    H124222   6.024   5.258   0.268  0.9443 -0.1856  0.1917
 8086TIP3    H224223   5.972   5.239   0.127  2.0855  0.9863 -0.4116
 8087TIP3   OH224224   6.527   4.673   3.541  0.4001 -0.0911  0.2736
 8087TIP3    H124225   6.603   4.653   3.487  0.0491  0.2679 -0.3676
 8087TIP3    H224226   6.462   4.608   3.516 -0.0027  0.5044 -0.2518
 8088TIP3   OH224227   1.341   3.932   4.745  0.3683  0.1806  0.3905
 8088TIP3    H124228   1.418   3.969   4.789 -0.4993  1.4656  0.8811
 8088TIP3    H224229   1.278   3.919   4.816  0.0129 -0.6032 -0.0538
 8089TIP3   OH224230   1.208   3.367   0.813 -0.6772 -0.4454 -0.3747
 8089TIP3    H124231   1.224   3.391   0.722 -0.0795  1.8430  0.2717
 8089TIP3    H224232   1.272   3.418   0.863 -2.2699 -0.1449  1.4777
 8090TIP3   OH224233   6.202   1.139   2.229  0.0816 -0.6181 -0.3452
 8090TIP3    H124234   6.180   1.175   2.315 -1.3340  0.9788 -1.3236
 8090TIP3    H224235   6.293   1.110   2.238  0.4788  0.9391  1.2407
 8091TIP3   OH224236   1.879   5.075   3.481 -0.1585  0.0947  0.0118
 8091TIP3    H124237   1.943   5.003   3.484 -2.2282 -1.8567  0.0293
 8091TIP3    H224238   1.920   5.140   3.425  3.3576  0.5633  2.6906
 8092TIP3   OH224239   4.987   3.604   4.556 -0.3214  0.0005 -0.6349
 8092TIP3    H124240   4.948   3.609   4.643 -1.5813 -0.5627 -1.1411
 8092TIP3    H224241   4.932   3.542   4.508 -0.8694  1.7671 -2.4383
 8093TIP3   OH224242   3.414   4.153   5.739 -0.2242 -0.4100  0.4729
 8093TIP3    H124243   3.423   4.082   5.804  1.6047  0.1163  0.8350
 8093TIP3    H224244   3.419   4.233   5.791 -1.8984  0.0353  0.0147
 8094TIP3   OH224245   6.479   3.447   1.085  0.2069 -0.0480 -0.3244
 8094TIP3    H124246   6.570   3.476   1.094 -0.1390  0.6060  1.3976
 8094TIP3    H224247   6.430   3.527   1.066 -0.1670 -0.2033 -0.0252
 8095TIP3   OH224248   3.030   1.524   5.430 -0.0363 -0.3017 -0.3111
 8095TIP3    H124249   3.063   1.443   5.391 -1.4094 -0.3819 -1.4160
 8095TIP3    H224250   2.972   1.495   5.500  0.1703 -0.2540 -0.1224
 8096TIP3   OH224251   2.909   3.536   0.459  0.1021 -0.1104  0.2012
 8096TIP3    H124252   2.818   3.551   0.484  0.2838  0.8902  0.3007
 8096TIP3    H224253   2.961   3.573   0.531  0.6030 -1.8983  0.8195
 8097TIP3   OH224254   5.695   2.271   4.372  0.1775  0.0258  0.5407
 8097TIP3    H124255   5.639   2.301   4.443 -0.1171  0.0291  0.3065
 8097TIP3    H224256   5.643   2.205   4.326  1.0897 -1.4162  1.5017
 8098TIP3   OH224257   3.849   3.378   2.532  0.2941 -0.1538 -0.3761
 8098TIP3    H124258   3.832   3.472   2.523 -0.7818 -0.4264 -1.4328
 8098TIP3    H224259   3.924   3.362   2.474  0.3777  0.0239 -0.3178
 8099TIP3   OH224260   1.790   4.214   5.565  0.3202 -0.0356 -0.0734
 8099TIP3    H124261   1.786   4.181   5.655  0.7129 -0.3939 -0.1836
 8099TIP3    H224262   1.774   4.138   5.510 -0.0208  0.2016 -0.3102
 8100TIP3   OH224263   0.069   6.078   2.395 -0.1143  0.2211  0.4381
 8100TIP3    H124264   0.027   6.001   2.357 -0.2950  0.8278 -0.6494
 8100TIP3    H224265   0.013   6.151   2.369  1.3421  0.9980 -0.6607
 8101TIP3   OH224266   5.702   3.640   5.259 -0.3851  0.2376 -0.0253
 8101TIP3    H124267   5.674   3.720   5.216  0.9950 -0.1341 -1.7362
 8101TIP3    H224268   5.643   3.572   5.225 -1.3622  0.4459  1.1940
 8102TIP3   OH224269   3.271   4.936   0.778 -0.0049 -0.3118  0.0280
 8102TIP3    H124270   3.327   4.978   0.844  0.5509 -0.1087 -0.5658
 8102TIP3    H224271   3.331   4.884   0.724 -0.1960  0.7808 -1.2991
 8103TIP3   OH224272   0.773   0.804   4.520 -0.3355 -0.5020  0.3844
 8103TIP3    H124273   0.690   0.830   4.560  0.1587  1.6948  0.0968
 8103TIP3    H224274   0.759   0.815   4.426 -0.1456 -1.5122  0.2267
 8104TIP3   OH224275   2.132   6.314   3.187 -0.0407  0.2048 -0.0930
 8104TIP3    H124276   2.069   6.258   3.141  1.5307 -2.4366  0.7868
 8104TIP3    H224277   2.094   6.326   3.274 -0.3790  0.5355 -0.2825
 8105TIP3   OH224278   6.710   5.006   4.202 -0.2262  0.2828 -0.1749
 8105TIP3    H124279   6.753   5.038   4.123  2.0375  1.3687  1.3768
 8105TIP3    H224280   6.748   4.919   4.216  1.4292  1.1443  1.0623
 8106TIP3   OH224281   1.274   6.542   4.593  0.6625 -0.6032 -0.1797
 8106TIP3    H124282   1.334   6.467   4.588 -0.3068 -1.5425  1.2945
 8106TIP3    H224283   1.195   6.512   4.547  0.7554  0.0516 -0.7806
 8107TIP3   OH224284   4.135   0.726   1.866  0.1749  0.0400 -0.6994
 8107TIP3    H124285   4.218   0.763   1.834  1.2561 -0.6440  1.1487
 8107TIP3    H224286   4.126   0.644   1.818  0.1458  0.4790 -1.4689
 8108TIP3   OH224287   5.088   5.708   4.376  0.0361  0.4553  1.0426
 8108TIP3    H124288   4.998   5.735   4.397  0.2052  0.4673  1.8047
 8108TIP3    H224289   5.113   5.651   4.449 -0.2735 -1.6892 -0.4633
 8109TIP3   OH224290   2.651   5.090   0.693  0.3446  1.1407 -0.0598
 8109TIP3    H124291   2.682   5.109   0.604  1.5300  0.4553  0.1898
 8109TIP3    H224292   2.684   5.164   0.745  1.9882  0.2064  0.2819
 8110TIP3   OH224293   3.817   4.321   2.533  0.1583  0.4537 -0.1411
 8110TIP3    H124294   3.787   4.243   2.486 -1.8543  1.3494 -0.4691
 8110TIP3    H224295   3.874   4.287   2.602 -0.0600 -1.2326 -0.7408
 8111TIP3   OH224296   6.192   5.418   0.595  0.1618 -0.1920 -0.1965
 8111TIP3    H124297   6.230   5.335   0.625  0.0957 -0.1691 -0.0500
 8111TIP3    H224298   6.233   5.485   0.649  0.7995 -0.0479 -0.8478
 8112TIP3   OH224299   0.840   3.223   2.350 -0.0560 -0.1774 -0.5977
 8112TIP3    H124300   0.813   3.314   2.361  0.7680 -0.1587  1.8688
 8112TIP3    H224301   0.762   3.172   2.371  0.5393 -0.0514  2.2253
 8113TIP3   OH224302   3.923   0.786   0.391 -0.4125  0.7501  0.3150
 8113TIP3    H124303   3.903   0.825   0.306  0.1014 -1.3550 -0.8213
 8113TIP3    H224304   3.861   0.714   0.400 -0.5812  1.0501  1.8361
 8114TIP3   OH224305   6.357   3.843   5.753  0.0247  0.2390 -0.0795
 8114TIP3    H124306   6.291   3.841   5.822 -1.4491 -0.6893 -1.4644
 8114TIP3    H224307   6.425   3.901   5.788 -1.2690  0.8531  1.5941
 8115TIP3   OH224308   2.118   1.645   4.277  0.4713  0.1580 -0.0430
 8115TIP3    H124309   2.096   1.705   4.348 -1.7576  1.4069 -1.6837
 8115TIP3    H224310   2.076   1.682   4.200 -0.0631 -2.9441 -1.3802
 8116TIP3   OH224311   5.071   6.410   5.608 -0.1243  0.0221 -0.4713
 8116TIP3    H124312   5.163   6.436   5.609 -0.0727 -0.1288  0.7790
 8116TIP3    H224313   5.039   6.436   5.522  0.5956  1.8639 -0.2358
 8117TIP3   OH224314   0.287   1.761   2.241  0.0307  0.8784  0.9387
 8117TIP3    H124315   0.313   1.680   2.284  1.0132 -0.1764 -1.4337
 8117TIP3    H224316   0.370   1.808   2.227  1.0506 -1.7268 -5.1545
 8118TIP3   OH224317   7.073   5.793   4.317  0.3483 -0.2971 -0.3664
 8118TIP3    H124318   6.993   5.828   4.278  0.3176  0.4154  0.3022
 8118TIP3    H224319   7.066   5.815   4.410  1.6134  0.3587 -0.3971
 8119TIP3   OH224320   2.328   6.186   4.344  0.1388 -0.1399  0.3533
 8119TIP3    H124321   2.359   6.111   4.294  0.0743  0.8903 -1.3067
 8119TIP3    H224322   2.253   6.153   4.393  1.3922 -1.6686  1.3374
 8120TIP3   OH224323   6.518   2.828   5.838  0.2183  0.5753  0.2915
 8120TIP3    H124324   6.504   2.921   5.858  0.8764  0.7195  0.1159
 8120TIP3    H224325   6.605   2.825   5.799  0.3013 -0.1551  0.5166
 8121TIP3   OH224326   3.309   2.317   4.390  0.4984  0.6422 -0.0758
 8121TIP3    H124327   3.243   2.307   4.458 -0.0108  0.1803 -0.6286
 8121TIP3    H224328   3.262   2.355   4.315  0.8030  0.1093 -0.5467
 8122TIP3   OH224329   2.067   6.390   0.253  0.0859 -0.2024 -0.2517
 8122TIP3    H124330   2.094   6.300   0.233 -1.1738 -0.1420 -2.4743
 8122TIP3    H224331   2.032   6.424   0.171 -0.5085  1.9600  0.8223
 8123TIP3   OH224332   0.354   5.400   3.702  0.0653 -0.9607 -0.2745
 8123TIP3    H124333   0.318   5.336   3.764 -1.2236  0.8627  0.9857
 8123TIP3    H224334   0.337   5.485   3.744  2.2880  0.1935 -1.5572
 8124TIP3   OH224335   2.149   4.561   2.378  0.4466 -0.2318  0.3607
 8124TIP3    H124336   2.173   4.514   2.299 -0.0730 -0.1047  0.1249
 8124TIP3    H224337   2.089   4.503   2.424  1.2357 -0.5835  0.9927
 8125TIP3   OH224338   2.275   3.677   4.419 -0.0316  0.5935  0.3769
 8125TIP3    H124339   2.286   3.594   4.464 -0.9454 -0.0085 -0.4564
 8125TIP3    H224340   2.363   3.703   4.393  0.0959 -1.0763 -1.0047
 8126TIP3   OH224341   4.335   6.721   0.410  0.1985 -0.0200 -0.1754
 8126TIP3    H124342   4.352   6.694   0.319 -0.7104 -0.8797 -0.1123
 8126TIP3    H224343   4.344   6.640   0.460 -0.6698  0.1691  0.3057
 8127TIP3   OH224344   5.277   1.447   2.603  1.2140 -0.2440 -0.0203
 8127TIP3    H124345   5.300   1.356   2.584  1.1772 -0.5340  1.2410
 8127TIP3    H224346   5.347   1.477   2.662 -0.1867 -0.3240  1.7640
 8128TIP3   OH224347   1.608   4.371   4.374 -0.6022  0.3605 -0.6790
 8128TIP3    H124348   1.579   4.366   4.283 -1.5770 -0.6495 -0.3459
 8128TIP3    H224349   1.526   4.369   4.425 -0.0281 -0.3931  0.2504
 8129TIP3   OH224350   1.272   5.464   0.961 -0.3998  0.2891  0.0305
 8129TIP3    H124351   1.235   5.444   1.047 -1.0514  0.8209 -0.1214
 8129TIP3    H224352   1.310   5.551   0.971 -1.7561  0.9757 -0.6064
 8130TIP3   OH224353   1.987   1.730   3.434  0.2685  0.0878  0.4356
 8130TIP3    H124354   2.069   1.736   3.483  2.7464  2.5063 -3.4165
 8130TIP3    H224355   1.955   1.820   3.427 -0.3814 -0.2354 -1.5288
 8131TIP3   OH224356   4.254   5.520   3.839 -0.2723  0.2668 -0.1240
 8131TIP3    H124357   4.294   5.552   3.920 -1.4541 -0.9617  1.0028
 8131TIP3    H224358   4.211   5.597   3.802  0.3648  0.8691  0.3598
 8132TIP3   OH224359   5.825   4.366   4.416  0.0344  0.5444  0.0554
 8132TIP3    H124360   5.840   4.413   4.335 -1.4662 -0.9610 -1.1604
 8132TIP3    H224361   5.790   4.431   4.477 -0.9813  1.2367 -1.2337
 8133TIP3   OH224362   4.131   2.169   4.777 -0.2941  0.3857  0.3962
 8133TIP3    H124363   4.200   2.105   4.756 -0.3992 -0.0315  1.2412
 8133TIP3    H224364   4.071   2.166   4.703  0.0948  0.0393  0.0905
 8134TIP3   OH224365   2.620   4.804   0.347 -0.1494  0.0082  0.0483
 8134TIP3    H124366   2.623   4.710   0.365  0.5234  0.3034  1.5187
 8134TIP3    H224367   2.575   4.842   0.422 -0.5578  0.8609 -0.6059
 8135TIP3   OH224368   4.032   1.070   4.315  0.3312  0.4654  0.4027
 8135TIP3    H124369   4.115   1.097   4.356  0.4451 -0.0150  0.4891
 8135TIP3    H224370   4.058   1.019   4.239  0.1217 -0.3786  0.8838
 8136TIP3   OH224371   7.077   6.280   2.778 -0.5501  0.4967 -0.4900
 8136TIP3    H124372   7.073   6.374   2.799 -1.3117 -0.0453  2.2896
 8136TIP3    H224373   7.157   6.270   2.728  0.1263  2.4943  0.0700
 8137TIP3   OH224374   6.853   0.415   1.106 -0.2260 -0.0023 -0.0263
 8137TIP3    H124375   6.831   0.402   1.014 -0.3924  1.5586 -0.2305
 8137TIP3    H224376   6.849   0.510   1.119 -2.8681 -0.2680  2.2277
 8138TIP3   OH224377   5.002   4.711   0.716  0.6510 -0.6428  0.0820
 8138TIP3    H124378   5.043   4.626   0.703 -0.0371 -1.2840  1.7683
 8138TIP3    H224379   4.909   4.691   0.728  0.1121  0.5856 -1.6541
 8139TIP3   OH224380   3.145   2.086   5.044 -0.0448  0.1578  0.0743
 8139TIP3    H124381   3.201   2.152   5.085 -0.1757  0.0255  0.4709
 8139TIP3    H224382   3.203   2.041   4.982  0.0431  0.6517 -0.2130
 8140TIP3   OH224383   3.438   1.608   3.680  0.4284  0.4957 -0.7934
 8140TIP3    H124384   3.423   1.627   3.773  0.6966  1.3959 -0.9240
 8140TIP3    H224385   3.451   1.514   3.677 -1.6742  0.1248 -0.1975
 8141TIP3   OH224386   4.737   4.834   3.527  0.2439  0.2902 -0.3305
 8141TIP3    H124387   4.656   4.784   3.520 -0.5591  1.5391 -0.3930
 8141TIP3    H224388   4.774   4.833   3.439  1.0611 -1.4595 -0.0078
 8142TIP3   OH224389   3.643   1.919   4.454  0.4412 -0.3210  0.1253
 8142TIP3    H124390   3.697   1.924   4.375 -0.4122  1.1119 -0.3913
 8142TIP3    H224391   3.606   1.831   4.451  1.0597 -0.5734 -0.6304
 8143TIP3   OH224392   6.691   5.757   5.680 -0.3974 -0.5101  0.4657
 8143TIP3    H124393   6.648   5.672   5.684 -2.1244  0.2819  0.0845
 8143TIP3    H224394   6.743   5.763   5.760 -0.6522 -1.7160  0.7271
 8144TIP3   OH224395   6.456   3.311   2.692 -0.2475 -0.1919  0.1996
 8144TIP3    H124396   6.362   3.323   2.702 -0.3735  0.9795 -1.9292
 8144TIP3    H224397   6.493   3.397   2.712  0.4951 -0.8211  1.7429
 8145TIP3   OH224398   6.733   3.523   1.058  0.7114 -0.1240 -0.3703
 8145TIP3    H124399   6.801   3.495   0.997  1.4953  2.4476 -0.7683
 8145TIP3    H224400   6.777   3.582   1.118 -1.0763  1.3197 -0.3979
 8146TIP3   OH224401   6.224   3.759   4.109 -0.0449  0.1379  0.0551
 8146TIP3    H124402   6.149   3.714   4.147  0.3103  0.0259  0.6286
 8146TIP3    H224403   6.291   3.691   4.101  1.0017  0.8140  2.2655
 8147TIP3   OH224404   6.456   2.338   1.238 -0.9198  0.4538  0.2769
 8147TIP3    H124405   6.371   2.319   1.200 -1.3645  0.4113  1.2607
 8147TIP3    H224406   6.492   2.252   1.261  0.4062  0.2616 -2.1684
 8148TIP3   OH224407   0.346   3.708   1.880  0.0025 -0.0157 -0.3426
 8148TIP3    H124408   0.324   3.709   1.973  1.0711 -0.5135 -0.0671
 8148TIP3    H224409   0.262   3.705   1.835 -0.5192 -0.0172  0.6101
 8149TIP3   OH224410   1.902   1.203   5.679  0.5880  0.8119  0.5536
 8149TIP3    H124411   1.807   1.214   5.682  0.2798 -0.5066 -1.7678
 8149TIP3    H224412   1.932   1.270   5.617  0.7539 -0.5284 -0.8880
 8150TIP3   OH224413   6.755   5.934   3.506 -0.3795  0.4236 -0.3954
 8150TIP3    H124414   6.719   5.886   3.432  2.0724 -0.4938 -1.1083
 8150TIP3    H224415   6.811   6.001   3.467  1.3929 -0.4279  0.5549
 8151TIP3   OH224416   5.345   6.498   3.563 -0.2205  0.4492 -0.0560
 8151TIP3    H124417   5.264   6.475   3.609 -1.0569  0.5465 -1.4154
 8151TIP3    H224418   5.319   6.505   3.471  1.6086 -0.9200 -0.7448
 8152TIP3   OH224419   6.870   5.009   2.625 -0.0309 -0.1048  0.7734
 8152TIP3    H124420   6.858   4.963   2.708 -1.2654 -1.9116 -0.3164
 8152TIP3    H224421   6.842   5.099   2.642 -0.4355 -0.4890  2.2564
 8153TIP3   OH224422   5.870   5.626   2.317 -0.5061  0.2385 -0.0646
 8153TIP3    H124423   5.786   5.609   2.274 -0.4180 -0.2938 -0.0257
 8153TIP3    H224424   5.850   5.693   2.382 -1.5355 -1.8466  1.9244
 8154TIP3   OH224425   0.608   4.212   4.411  0.3401  0.2506 -0.0501
 8154TIP3    H124426   0.572   4.125   4.425  0.9738  0.0345  0.2936
 8154TIP3    H224427   0.531   4.268   4.399 -0.0627 -0.3884 -0.5128
 8155TIP3   OH224428   4.873   1.142   1.772  0.2474  0.2445  0.1630
 8155TIP3    H124429   4.870   1.165   1.865 -0.0012  1.9137 -0.2195
 8155TIP3    H224430   4.921   1.060   1.769 -1.6842 -1.0535  1.9701
 8156TIP3   OH224431   3.167   5.375   3.111  0.1920  0.4470  0.0847
 8156TIP3    H124432   3.252   5.359   3.151 -1.3106 -1.0333  3.0699
 8156TIP3    H224433   3.158   5.471   3.111  1.6258  0.5940  0.2268
 8157TIP3   OH224434   1.325   0.757   2.311  0.7693  0.4327 -0.1489
 8157TIP3    H124435   1.354   0.670   2.335 -0.7856  0.0536  0.5086
 8157TIP3    H224436   1.293   0.748   2.221 -1.0501 -0.1405  0.5185
 8158TIP3   OH224437   6.647   0.198   0.708  0.0982  0.1302  0.2167
 8158TIP3    H124438   6.679   0.287   0.720  2.2758 -0.5704  0.1011
 8158TIP3    H224439   6.579   0.206   0.640  0.8841  1.5832 -0.4472
 8159TIP3   OH224440   4.769   3.507   3.781  0.0823  0.8321 -0.0989
 8159TIP3    H124441   4.833   3.471   3.720  1.7437  2.3309  0.6945
 8159TIP3    H224442   4.810   3.499   3.867 -2.8896 -2.8861  1.2912
 8160TIP3   OH224443   1.552   0.161   2.524 -0.4421  0.0460  0.6076
 8160TIP3    H124444   1.629   0.190   2.573 -0.6385 -1.1566  1.7124
 8160TIP3    H224445   1.487   0.142   2.592 -1.7414  1.0749 -0.3037
 8161TIP3   OH224446   1.145   0.276   4.382  0.4996 -0.4641  0.3989
 8161TIP3    H124447   1.084   0.331   4.430 -0.4507  0.8535 -2.1422
 8161TIP3    H224448   1.092   0.231   4.316  1.9301 -0.9090 -0.5169
 8162TIP3   OH224449   6.243   0.363   4.055 -0.1454 -0.1844  0.1172
 8162TIP3    H124450   6.310   0.371   3.987 -0.3878  0.5531 -0.0421
 8162TIP3    H224451   6.292   0.359   4.137  0.0877  1.2912  0.0799
 8163TIP3   OH224452   6.554   0.078   3.006 -0.3348  0.0033 -0.3007
 8163TIP3    H124453   6.567   0.172   2.999 -1.5651  0.1794 -0.3143
 8163TIP3    H224454   6.611   0.041   2.939  2.5929  0.4897  1.6851
 8164TIP3   OH224455   3.256   5.325   3.865 -0.3353 -0.7176 -0.7929
 8164TIP3    H124456   3.343   5.366   3.873 -0.8637  0.5563 -1.2289
 8164TIP3    H224457   3.272   5.245   3.815  0.6087 -0.5419 -0.8018
 8165TIP3   OH224458   6.427   4.137   3.474  0.6585 -0.2027 -0.0349
 8165TIP3    H124459   6.501   4.137   3.534  0.4108 -1.3331  0.2997
 8165TIP3    H224460   6.361   4.083   3.518 -0.7254  1.5374  0.0963
 8166TIP3   OH224461   5.135   0.643   2.730 -0.0637 -0.2029  0.1025
 8166TIP3    H124462   5.134   0.713   2.796  2.4247  1.2999 -1.3009
 8166TIP3    H224463   5.218   0.598   2.745  0.3669 -0.0726 -1.7170
 8167TIP3   OH224464   6.627   6.196   2.625 -0.4305 -0.4355  0.0861
 8167TIP3    H124465   6.587   6.252   2.691  0.9946 -1.9612  2.3854
 8167TIP3    H224466   6.703   6.245   2.594 -0.7185  0.0030  0.0621
 8168TIP3   OH224467   4.296   4.307   1.871 -0.1765 -0.1350 -0.6048
 8168TIP3    H124468   4.379   4.277   1.907 -0.0372  0.6279 -0.2685
 8168TIP3    H224469   4.233   4.240   1.897  0.2980 -0.6358 -0.7263
 8169TIP3   OH224470   2.555   3.350   5.754  0.4082 -0.4131  0.4439
 8169TIP3    H124471   2.625   3.287   5.737 -0.2366 -1.1618  0.5100
 8169TIP3    H224472   2.530   3.334   5.845 -0.0814 -0.3803  0.3166
 8170TIP3   OH224473   3.953   3.023   2.228 -0.2382 -0.1331 -0.2692
 8170TIP3    H124474   3.975   3.079   2.154  0.5698 -0.3923 -0.2338
 8170TIP3    H224475   3.976   3.075   2.305  1.5182 -0.8605 -0.2401
 8171TIP3   OH224476   0.576   4.300   3.678  0.4972 -0.1751 -0.5832
 8171TIP3    H124477   0.623   4.326   3.599 -0.5614  1.7568 -0.6389
 8171TIP3    H224478   0.501   4.358   3.681 -0.2903 -1.2115  1.0752
 8172TIP3   OH224479   5.341   0.457   2.765  0.2200 -0.1379 -0.4295
 8172TIP3    H124480   5.378   0.389   2.821 -0.9481  1.0654  1.9426
 8172TIP3    H224481   5.305   0.409   2.690 -1.0465 -2.2678  1.4150
 8173TIP3   OH224482   1.883   4.299   4.905  0.0370  0.0589  0.2143
 8173TIP3    H124483   1.794   4.279   4.875  0.2804 -0.8347  0.0681
 8173TIP3    H224484   1.932   4.314   4.824  0.7015 -2.3753  0.1055
 8174TIP3   OH224485   2.923   4.303   1.020  0.3792 -0.0764  0.0472
 8174TIP3    H124486   2.872   4.222   1.017  0.4758 -0.1028 -1.5113
 8174TIP3    H224487   2.907   4.337   1.108 -2.0089 -0.2929 -0.2348
 8175TIP3   OH224488   2.332   5.560   0.473 -0.1555 -0.5163 -0.0306
 8175TIP3    H124489   2.417   5.579   0.432  0.0288 -0.8346  0.1957
 8175TIP3    H224490   2.308   5.474   0.439 -2.2163  1.1016 -3.0613
 8176TIP3   OH224491   1.712   1.485   1.261  0.4453  0.2032  0.1851
 8176TIP3    H124492   1.790   1.538   1.241  0.8054  0.0209  1.0356
 8176TIP3    H224493   1.668   1.474   1.177  0.9663  0.9051 -0.1946
 8177TIP3   OH224494   1.595   5.748   1.100  0.3543 -0.4745  0.6630
 8177TIP3    H124495   1.636   5.835   1.095 -0.4914 -0.0630  0.8025
 8177TIP3    H224496   1.666   5.690   1.127  1.4217 -0.1854 -1.3202
 8178TIP3   OH224497   1.775   0.707   2.193 -0.2364  0.5140  0.2482
 8178TIP3    H124498   1.793   0.740   2.281  0.5440 -0.1033  0.3383
 8178TIP3    H224499   1.861   0.682   2.159 -0.6706 -0.4700 -0.1797
 8179TIP3   OH224500   6.402   4.944   5.349  0.7226  0.3897  0.0505
 8179TIP3    H124501   6.408   4.903   5.263  1.5632  0.3658  0.1144
 8179TIP3    H224502   6.335   4.893   5.396 -1.0874  1.5214 -1.1848
 8180TIP3   OH224503   6.902   6.099   1.205 -0.6882  0.0688 -0.6465
 8180TIP3    H124504   6.901   6.193   1.226 -0.1294 -0.0829  0.1006
 8180TIP3    H224505   6.810   6.078   1.186 -0.6056  1.1082 -2.4423
 8181TIP3   OH224506   7.021   3.023   1.989  0.4218 -0.0556 -0.0574
 8181TIP3    H124507   7.062   2.936   1.986 -0.4102 -0.4607 -0.0012
 8181TIP3    H224508   6.982   3.028   2.076 -3.4464 -1.5096 -1.5260
 8182TIP3   OH224509   4.091   1.187   4.003  0.5236  0.0803  0.1975
 8182TIP3    H124510   4.026   1.159   3.938  0.2870 -0.1673  0.5331
 8182TIP3    H224511   4.053   1.266   4.042  1.2015  0.9007 -0.7651
 8183TIP3   OH224512   4.767   1.001   2.417  1.0484 -0.0482  0.2185
 8183TIP3    H124513   4.778   1.076   2.475  0.7216 -0.4902  0.8641
 8183TIP3    H224514   4.673   0.983   2.417  1.1122 -0.4148  0.0123
 8184TIP3   OH224515   6.505   5.911   3.355  0.3239  0.3225  0.3995
 8184TIP3    H124516   6.447   5.882   3.285  0.3214 -1.6157  1.1471
 8184TIP3    H224517   6.509   6.006   3.345  1.2692  0.0540 -2.9472
 8185TIP3   OH224518   3.057   5.120   5.560  0.7719  0.7069  0.2296
 8185TIP3    H124519   3.082   5.062   5.633 -0.8348  0.6258  0.7545
 8185TIP3    H224520   3.068   5.066   5.482  0.6754  0.1622  0.5882
 8186TIP3   OH224521   1.541   2.876   0.726 -1.1141  0.1201 -0.1599
 8186TIP3    H124522   1.465   2.884   0.670 -1.6207 -1.0926  0.3140
 8186TIP3    H224523   1.540   2.784   0.754  0.2262  0.2150  0.2600
 8187TIP3   OH224524   3.116   3.997   4.152 -0.3083 -0.3117  0.1483
 8187TIP3    H124525   3.081   3.954   4.230 -1.2831 -1.6016 -0.9685
 8187TIP3    H224526   3.205   3.964   4.144  0.9018  2.0145  2.2740
 8188TIP3   OH224527   2.122   5.837   3.021 -0.4784  0.4914  0.0715
 8188TIP3    H124528   2.042   5.843   2.969 -1.0308  0.3486  0.8800
 8188TIP3    H224529   2.143   5.928   3.043 -0.4836  0.5247 -0.0646
 8189TIP3   OH224530   0.440   1.330   0.368 -0.1819 -0.2775  0.6137
 8189TIP3    H124531   0.427   1.236   0.373  0.8164 -0.4576 -0.0035
 8189TIP3    H224532   0.533   1.343   0.383 -0.1561  0.5417 -0.1507
 8190TIP3   OH224533   3.666   4.887   3.411 -0.1909 -0.2709  0.0692
 8190TIP3    H124534   3.621   4.862   3.492 -0.8584 -1.4124 -0.6271
 8190TIP3    H224535   3.752   4.917   3.439  0.0690 -1.8896  1.1024
 8191TIP3   OH224536   4.242   6.177   3.098 -0.0406 -0.0648  0.1629
 8191TIP3    H124537   4.320   6.206   3.050 -0.9326  2.2655  0.0027
 8191TIP3    H224538   4.216   6.254   3.150 -0.7587 -1.5964  2.2149
 8192TIP3   OH224539   3.239   3.509   4.118 -0.0853 -0.2437  0.0404
 8192TIP3    H124540   3.218   3.512   4.024  0.8429 -1.5564 -0.2444
 8192TIP3    H224541   3.293   3.430   4.127 -0.1128 -0.0970  1.6773
 8193TIP3   OH224542   6.224   1.497   1.244  0.2951 -0.4428 -0.0701
 8193TIP3    H124543   6.227   1.591   1.225 -1.1127 -0.3779 -0.0837
 8193TIP3    H224544   6.134   1.472   1.225  0.6451 -1.7980 -0.0234
 8194TIP3   OH224545   3.542   1.771   3.298 -0.7138  0.0724  0.3880
 8194TIP3    H124546   3.633   1.756   3.272 -1.0661 -1.5624 -0.0138
 8194TIP3    H224547   3.546   1.783   3.393  0.0345  1.2429  0.2370
 8195TIP3   OH224548   0.125   3.022   1.058  0.5534 -0.4249 -0.4202
 8195TIP3    H124549   0.125   2.956   1.127 -0.1568  0.2069  0.2128
 8195TIP3    H224550   0.160   3.100   1.100  1.9454 -0.5375 -1.3191
 8196TIP3   OH224551   7.074   3.609   0.828  0.1094  0.0816 -0.1564
 8196TIP3    H124552   7.093   3.703   0.820  0.4960  0.0978  0.8283
 8196TIP3    H224553   6.986   3.600   0.790 -0.0345  0.8822 -0.0443
 8197TIP3   OH224554   1.068   5.252   1.511 -0.2769  0.3587 -0.2582
 8197TIP3    H124555   1.075   5.220   1.601  0.8317 -0.4171 -0.5923
 8197TIP3    H224556   0.980   5.227   1.483 -0.8194  1.0427  0.7544
 8198TIP3   OH224557   1.525   1.689   3.155 -0.2780 -0.2538 -0.1611
 8198TIP3    H124558   1.519   1.710   3.248 -1.3358  3.1575 -0.8866
 8198TIP3    H224559   1.614   1.714   3.130 -0.6537  0.8343 -0.4564
 8199TIP3   OH224560   6.306   2.187   0.530  0.3503 -0.8722 -0.5293
 8199TIP3    H124561   6.262   2.144   0.603  0.8265 -0.6486 -0.1055
 8199TIP3    H224562   6.236   2.205   0.467 -0.0574 -1.1016 -0.1488
 8200TIP3   OH224563   0.489   4.283   5.327  0.4902  0.7067  0.3048
 8200TIP3    H124564   0.446   4.211   5.281  0.2488  0.9327  0.1745
 8200TIP3    H224565   0.499   4.351   5.261 -3.4439  2.6368  1.3427
 8201TIP3   OH224566   7.117   4.223   1.943 -0.3056  0.8951 -0.8789
 8201TIP3    H124567   7.033   4.216   1.989 -0.7112  0.1726 -1.6926
 8201TIP3    H224568   7.183   4.225   2.013 -0.9258  0.2551 -0.2566
 8202TIP3   OH224569   4.918   0.742   3.280  0.1492  0.3114  0.0973
 8202TIP3    H124570   4.874   0.779   3.356 -0.5210  2.1202 -1.1067
 8202TIP3    H224571   4.858   0.676   3.246 -1.4987  2.3556 -1.1945
 8203TIP3   OH224572   0.462   1.233   5.284 -0.0843 -0.0393 -0.3894
 8203TIP3    H124573   0.467   1.138   5.274  3.3390 -0.0112 -0.0653
 8203TIP3    H224574   0.494   1.269   5.202 -0.6589  0.8600 -0.2461
 8204TIP3   OH224575   0.538   2.213   0.521 -0.0797  0.0476  0.1223
 8204TIP3    H124576   0.528   2.155   0.446 -0.4185 -0.7615  0.7717
 8204TIP3    H224577   0.495   2.294   0.494 -0.4838 -0.3424 -0.4442
 8205TIP3   OH224578   3.531   0.220   5.611  0.7389  1.0565 -0.2215
 8205TIP3    H124579   3.554   0.252   5.523 -1.3622 -2.4172 -2.2535
 8205TIP3    H224580   3.446   0.259   5.630  0.8978  1.2944  0.0182
 8206TIP3   OH224581   3.649   1.275   2.880 -0.0567 -0.2887  0.4420
 8206TIP3    H124582   3.684   1.189   2.859 -0.3436 -0.3136  0.0518
 8206TIP3    H224583   3.722   1.322   2.922  0.4603 -0.3141 -0.4202
 8207TIP3   OH224584   0.987   4.185   3.167 -0.5154 -0.0937  0.4785
 8207TIP3    H124585   0.971   4.213   3.077 -0.7653  1.0560  0.8581
 8207TIP3    H224586   0.927   4.238   3.220  1.5959  1.3628  1.5669
 8208TIP3   OH224587   1.242   6.793   3.294 -0.0793 -0.3479 -0.2299
 8208TIP3    H124588   1.290   6.714   3.319  0.1148 -0.2623 -0.3206
 8208TIP3    H224589   1.255   6.853   3.367 -0.4690 -0.5023 -0.0340
 8209TIP3   OH224590   6.542   2.370   5.801 -0.1297  0.8176 -0.3903
 8209TIP3    H124591   6.612   2.306   5.792  0.8181  1.7815 -0.0667
 8209TIP3    H224592   6.538   2.414   5.716 -1.1250  0.0137 -0.7820
 8210TIP3   OH224593   7.026   3.646   1.501  0.4291  0.2639  0.1597
 8210TIP3    H124594   7.090   3.688   1.443 -0.8315 -0.3217 -1.7608
 8210TIP3    H224595   6.952   3.705   1.502  0.1236 -0.1190  0.5193
 8211TIP3   OH224596   4.676   1.526   1.099 -0.0513 -0.1257 -0.4071
 8211TIP3    H124597   4.611   1.582   1.141  1.1908  1.4586 -0.5333
 8211TIP3    H224598   4.760   1.567   1.118  0.8855 -1.7746 -0.7952
 8212TIP3   OH224599   6.839   0.719   3.795 -0.3858 -0.1512  0.6482
 8212TIP3    H124600   6.770   0.737   3.859  1.0917  1.0032  2.0201
 8212TIP3    H224601   6.920   0.726   3.845  0.7996 -0.3103 -1.1459
 8213TIP3   OH224602   4.490   5.530   0.522 -0.2788  0.3653  0.1501
 8213TIP3    H124603   4.454   5.596   0.463 -1.0441  1.2859  1.6209
 8213TIP3    H224604   4.569   5.570   0.558  1.0983 -0.8014 -1.3722
 8214TIP3   OH224605   5.492   1.339   0.403 -0.0936 -0.0191 -0.0419
 8214TIP3    H124606   5.442   1.358   0.483 -0.7776 -0.1760 -0.4165
 8214TIP3    H224607   5.501   1.243   0.403  1.8114  0.1282  0.9482
 8215TIP3   OH224608   5.701   0.042   5.712  0.0834  0.3785  0.2013
 8215TIP3    H124609   5.792   0.071   5.705 -0.3661  1.7909 -0.3113
 8215TIP3    H224610   5.681   0.047   5.806  0.3657  0.6498  0.2489
 8216TIP3   OH224611   3.450   2.544   3.785  0.5939 -0.0108 -0.4532
 8216TIP3    H124612   3.458   2.638   3.801  1.4920 -0.3340  1.2377
 8216TIP3    H224613   3.471   2.533   3.692  2.0162  1.2999 -0.3145
 8217TIP3   OH224614   3.176   6.478   2.898  0.3726  0.0237  0.3238
 8217TIP3    H124615   3.269   6.496   2.916  0.6870  1.3356 -2.1607
 8217TIP3    H224616   3.129   6.553   2.934  0.6231  0.8794 -1.0873
 8218TIP3   OH224617   3.208   6.611   2.406  0.1334  0.0087  0.3002
 8218TIP3    H124618   3.204   6.688   2.462 -0.7856  0.5688 -0.4855
 8218TIP3    H224619   3.136   6.624   2.344  0.5807 -1.0097 -0.4545
 8219TIP3   OH224620   5.269   5.014   3.978  0.1717 -0.6756  0.0605
 8219TIP3    H124621   5.187   5.054   3.948 -0.4282 -0.7870  1.4399
 8219TIP3    H224622   5.258   4.921   3.959  0.4684 -0.5462 -0.7801
 8220TIP3   OH224623   4.227   6.375   0.993 -0.0347  0.0497  0.5864
 8220TIP3    H124624   4.293   6.443   0.982 -0.1690 -0.2049 -2.3925
 8220TIP3    H224625   4.275   6.300   1.028  0.9410  0.3764 -0.0154
 8221TIP3   OH224626   0.685   5.443   5.599 -0.0567  0.1881 -0.1299
 8221TIP3    H124627   0.610   5.424   5.655 -0.2339 -0.4658 -0.5806
 8221TIP3    H224628   0.711   5.532   5.623  1.1262 -0.7347  2.4388
 8222TIP3   OH224629   5.902   2.514   2.393 -0.1330 -0.1722 -0.3650
 8222TIP3    H124630   5.905   2.606   2.420  0.3860 -0.1389 -0.5238
 8222TIP3    H224631   5.833   2.511   2.326 -0.6655 -0.0479  0.1610
 8223TIP3   OH224632   2.329   6.552   0.165 -0.5157 -0.1211  0.4165
 8223TIP3    H124633   2.328   6.626   0.104 -1.3875  1.1398  1.9075
 8223TIP3    H224634   2.246   6.507   0.150 -0.5348 -0.0691  0.3659
 8224TIP3   OH224635   1.628   5.226   5.141 -0.6285 -0.2383  0.2155
 8224TIP3    H124636   1.680   5.280   5.200 -0.7090 -0.7500  0.7662
 8224TIP3    H224637   1.566   5.181   5.199  0.7236 -2.4601  0.0699
 8225TIP3   OH224638   2.768   4.187   5.873  0.0366 -0.0353  0.1061
 8225TIP3    H124639   2.848   4.238   5.864 -0.2407  0.5074  0.6704
 8225TIP3    H224640   2.794   4.098   5.848  0.8349  0.1121  0.3807
 8226TIP3   OH224641   0.796   0.267   3.907  0.1064  0.1338 -0.0017
 8226TIP3    H124642   0.733   0.202   3.876 -1.9126  0.0352  3.8114
 8226TIP3    H224643   0.784   0.341   3.847 -0.6427 -1.3590 -1.8171
 8227TIP3   OH224644   0.237   4.010   3.976 -0.3711 -0.5561  0.5042
 8227TIP3    H124645   0.333   4.013   3.968 -0.4150 -0.6626 -0.0646
 8227TIP3    H224646   0.208   4.098   3.952 -0.3669 -0.2833  1.4501
 8228TIP3   OH224647   6.911   2.419   4.370 -0.3799 -0.1469 -0.0074
 8228TIP3    H124648   6.889   2.360   4.298 -1.4936  1.1157 -0.7321
 8228TIP3    H224649   6.943   2.498   4.327 -0.2706  0.3174  0.9077
 8229TIP3   OH224650   3.110   5.138   1.782 -0.3633 -0.2777 -0.7106
 8229TIP3    H124651   3.195   5.167   1.816 -0.9976 -0.6835  1.3199
 8229TIP3    H224652   3.046   5.194   1.825 -1.2547 -1.3723 -0.5619
 8230TIP3   OH224653   6.202   1.257   2.470 -0.4039  0.0772 -0.1747
 8230TIP3    H124654   6.206   1.336   2.523 -1.3220  0.1498 -0.2023
 8230TIP3    H224655   6.281   1.209   2.493 -1.0653 -0.1864  1.7308
 8231TIP3   OH224656   2.534   4.879   1.159  0.3442  0.1138 -0.8419
 8231TIP3    H124657   2.490   4.824   1.224  0.2954  0.3677 -0.6562
 8231TIP3    H224658   2.564   4.818   1.092  1.9188 -0.3893  0.2562
 8232TIP3   OH224659   6.531   3.793   2.404  0.1390 -0.3452  0.5907
 8232TIP3    H124660   6.492   3.836   2.328 -4.5718 -2.5667  1.4033
 8232TIP3    H224661   6.614   3.758   2.371 -0.9935 -0.0122 -3.1474
 8233TIP3   OH224662   2.548   1.643   3.611 -0.1311  0.0502 -0.8281
 8233TIP3    H124663   2.511   1.602   3.533  1.1324 -2.6209 -0.1221
 8233TIP3    H224664   2.497   1.608   3.684  0.0894  0.8359 -0.2814
 8234TIP3   OH224665   4.158   1.688   0.703  0.0785  0.3600  0.3501
 8234TIP3    H124666   4.246   1.657   0.682  0.4460  1.2714  0.4814
 8234TIP3    H224667   4.163   1.714   0.795 -0.2645  0.6161  0.2999
 8235TIP3   OH224668   5.835   1.058   3.278  0.3027 -0.5573 -0.0771
 8235TIP3    H124669   5.931   1.058   3.284  0.3186 -0.6891 -0.3299
 8235TIP3    H224670   5.809   1.138   3.324  0.4846 -0.9423  0.7151
 8236TIP3   OH224671   4.079   3.943   3.891  0.0207 -0.0374  0.3754
 8236TIP3    H124672   4.052   4.003   3.961  0.3472 -0.1950  0.6420
 8236TIP3    H224673   4.038   3.977   3.812  0.7007  0.8905  0.4143
 8237TIP3   OH224674   4.001   1.426   4.096 -0.5290  0.1027 -0.0077
 8237TIP3    H124675   3.985   1.457   4.185  1.2965  0.9258  0.0865
 8237TIP3    H224676   4.060   1.491   4.058 -1.2506 -0.2340 -1.8436
 8238TIP3   OH224677   2.349   4.171   1.090  0.2094 -0.2523  0.1540
 8238TIP3    H124678   2.438   4.182   1.056  0.8817 -1.2597  1.5101
 8238TIP3    H224679   2.325   4.257   1.124  0.6359  0.0406 -0.2814
 8239TIP3   OH224680   4.623   4.538   5.765 -0.1975  0.3989  0.0979
 8239TIP3    H124681   4.666   4.454   5.748 -0.5056  0.2367  0.1017
 8239TIP3    H224682   4.694   4.601   5.771 -0.0831  0.4966 -1.9000
 8240TIP3   OH224683   0.171   6.389   1.634  0.1026 -0.3897 -0.2611
 8240TIP3    H124684   0.091   6.440   1.629  0.8933  0.9300  0.1191
 8240TIP3    H224685   0.150   6.307   1.589 -1.2922  0.1232 -0.5938
 8241TIP3   OH224686   5.845   6.700   4.978 -0.4615  0.2098 -0.0732
 8241TIP3    H124687   5.828   6.627   5.037 -3.1440  0.7932  0.0302
 8241TIP3    H224688   5.872   6.772   5.035  0.7973 -0.2741 -0.0285
 8242TIP3   OH224689   5.119   5.751   1.160 -0.5082  0.7388  0.2510
 8242TIP3    H124690   5.062   5.826   1.177 -0.2310  1.0307 -0.1025
 8242TIP3    H224691   5.163   5.735   1.244 -0.5993  0.9426  0.3372
 8243TIP3   OH224692   5.440   1.489   1.903 -0.4825  0.3983 -0.6839
 8243TIP3    H124693   5.399   1.543   1.970 -2.3066  0.2129 -1.5731
 8243TIP3    H224694   5.466   1.409   1.949 -0.3744  0.8689  0.0780
 8244TIP3   OH224695   4.824   4.325   2.710  1.1273 -0.2610  0.3179
 8244TIP3    H124696   4.767   4.392   2.671 -0.1567 -1.0622  0.7689
 8244TIP3    H224697   4.888   4.375   2.760  1.2664  0.6927 -0.7680
 8245TIP3   OH224698   1.994   5.238   3.762  0.0471  0.2310  0.3218
 8245TIP3    H124699   2.065   5.273   3.708  0.6597 -0.3190  0.7510
 8245TIP3    H224700   1.998   5.143   3.749  0.2914  0.0789  1.4301
 8246TIP3   OH224701   7.180   5.822   0.754 -0.2311  0.2840  0.0543
 8246TIP3    H124702   7.200   5.764   0.680  0.2646 -0.1222  0.4949
 8246TIP3    H224703   7.249   5.889   0.752 -0.3873  0.4427 -0.0262
 8247TIP3   OH224704   1.982   4.308   4.615 -0.2098  0.1182 -0.4347
 8247TIP3    H124705   2.067   4.350   4.627  0.0961 -0.2212 -1.2761
 8247TIP3    H224706   1.950   4.343   4.532 -0.6588 -0.1405 -0.3748
 8248TIP3   OH224707   3.049   2.153   5.771  0.1069  0.0070  0.9501
 8248TIP3    H124708   3.102   2.207   5.829  1.8901 -0.9156  0.2777
 8248TIP3    H224709   2.984   2.112   5.828  0.6602  0.5179  1.9673
 8249TIP3   OH224710   4.274   2.359   3.160 -0.0628  0.3555  0.4742
 8249TIP3    H124711   4.251   2.400   3.076 -0.9429 -0.0167  0.5268
 8249TIP3    H224712   4.201   2.301   3.179  0.5989 -0.3218  1.0130
 8250TIP3   OH224713   0.204   5.953   1.964  0.1952  0.4277  0.2407
 8250TIP3    H124714   0.285   5.969   1.916 -0.6525  0.5808 -1.2220
 8250TIP3    H224715   0.144   6.021   1.932 -0.6078  0.1081  1.0343
 8251TIP3   OH224716   6.078   2.909   5.023  0.3197  0.7221 -0.5298
 8251TIP3    H124717   6.019   2.838   4.999  2.7552 -1.2692 -0.9760
 8251TIP3    H224718   6.094   2.954   4.940  0.5098  0.4069 -0.6650
 8252TIP3   OH224719   3.721   4.343   4.560  0.2796  0.0612  0.1423
 8252TIP3    H124720   3.763   4.426   4.580 -1.0499  0.9973 -0.7536
 8252TIP3    H224721   3.672   4.321   4.639 -1.6549  1.6490 -0.5120
 8253TIP3   OH224722   5.585   3.969   3.113 -0.4819  0.3787  0.0236
 8253TIP3    H124723   5.495   3.947   3.137 -0.0314 -1.3061  0.3167
 8253TIP3    H224724   5.583   3.977   3.017 -0.8526 -0.2444 -0.0286
 8254TIP3   OH224725   0.001   3.755   1.341  0.5705  0.3747  0.5044
 8254TIP3    H124726   0.021   3.789   1.253  0.9851 -0.1420  0.3919
 8254TIP3    H224727   0.042   3.669   1.342 -2.8186 -1.4294 -0.2659
 8255TIP3   OH224728   3.858   5.711   3.362 -0.1080 -0.4233  0.2403
 8255TIP3    H124729   3.846   5.803   3.341  1.6660 -0.3357 -0.5703
 8255TIP3    H224730   3.941   5.687   3.320 -0.6874 -2.4765  0.1217
 8256TIP3   OH224731   5.367   2.144   0.992  0.1690  0.7345 -0.2409
 8256TIP3    H124732   5.357   2.172   1.083 -0.8729  0.8189 -0.3712
 8256TIP3    H224733   5.399   2.054   0.998 -2.8655 -0.4121  0.2877
 8257TIP3   OH224734   5.868   4.805   4.554  0.0635  0.2506  0.5738
 8257TIP3    H124735   5.944   4.833   4.502  1.0066 -1.9193  0.6699
 8257TIP3    H224736   5.894   4.819   4.645 -0.7077  1.9425  0.5593
 8258TIP3   OH224737   0.931   6.199   3.530  0.0193 -0.6859 -0.1342
 8258TIP3    H124738   0.847   6.159   3.507 -0.1957 -0.3389  0.0416
 8258TIP3    H224739   0.912   6.292   3.539  0.7481 -0.3742 -1.6327
 8259TIP3   OH224740   2.873   5.214   3.331 -0.2878 -0.2032 -0.3642
 8259TIP3    H124741   2.958   5.210   3.286 -0.8180 -0.4530 -1.3912
 8259TIP3    H224742   2.854   5.308   3.339 -0.4897 -0.1535 -1.2946
 8260TIP3   OH224743   5.408   0.087   3.979  0.1495  0.3116  0.2738
 8260TIP3    H124744   5.489   0.118   3.937  0.2713  0.5617  0.6880
 8260TIP3    H224745   5.409  -0.008   3.965 -0.6115  0.5477 -1.6778
 8261TIP3   OH224746   0.370   0.810   4.330  1.0059 -0.1186 -0.1358
 8261TIP3    H124747   0.321   0.759   4.266 -0.9040  0.3575  0.8792
 8261TIP3    H224748   0.346   0.773   4.415  0.7861  1.4509  0.5246
 8262TIP3   OH224749   0.701   0.385   3.154 -0.6963 -0.3300  0.4579
 8262TIP3    H124750   0.648   0.394   3.075 -0.6919  0.0552  0.4958
 8262TIP3    H224751   0.639   0.397   3.226 -0.3189  1.6081  0.4930
 8263TIP3   OH224752   4.537   3.392   5.650  0.3567  0.1259  0.1592
 8263TIP3    H124753   4.568   3.479   5.626  0.7700  0.2708  1.1641
 8263TIP3    H224754   4.597   3.332   5.606  1.8682  0.3983  1.7644
 8264TIP3   OH224755   6.774   1.304   1.429  0.1823  0.0642 -0.2348
 8264TIP3    H124756   6.793   1.395   1.404  2.1681 -0.5845 -1.2942
 8264TIP3    H224757   6.736   1.311   1.517 -0.7240  1.9732 -0.7247
 8265TIP3   OH224758   0.393   5.194   2.864 -0.4989 -0.0201  0.0295
 8265TIP3    H124759   0.421   5.109   2.899  1.9463  0.0217 -1.5920
 8265TIP3    H224760   0.410   5.188   2.770 -0.7777  2.0902 -0.2071
 8266TIP3   OH224761   4.198   3.176   4.010  0.4162  0.1342 -0.4074
 8266TIP3    H124762   4.167   3.130   4.088  0.8150  0.7390  0.1084
 8266TIP3    H224763   4.169   3.121   3.937  1.0363 -1.0326  0.2012
 8267TIP3   OH224764   3.728   4.283   1.377  0.1716  0.1116 -0.0659
 8267TIP3    H124765   3.700   4.339   1.305  0.6440  1.2322  0.5976
 8267TIP3    H224766   3.823   4.299   1.384  0.0172  0.5711  1.2436
 8268TIP3   OH224767   5.341   1.613   2.116 -0.5131  0.8236 -0.3449
 8268TIP3    H124768   5.428   1.653   2.120 -0.7200  1.3813 -1.1556
 8268TIP3    H224769   5.281   1.686   2.130 -0.8534  0.2350  1.5775
 8269TIP3   OH224770   6.787   1.179   0.992  0.3168 -0.0067 -0.0670
 8269TIP3    H124771   6.861   1.120   0.977  1.4809  1.2537  0.5397
 8269TIP3    H224772   6.776   1.180   1.087 -2.1222 -2.0679 -0.2007
 8270TIP3   OH224773   6.638   4.336   3.238  0.8784  0.1114 -0.3475
 8270TIP3    H124774   6.608   4.405   3.178  0.9295  0.4494  0.0114
 8270TIP3    H224775   6.603   4.362   3.323 -0.9825 -1.4436 -0.5692
 8271TIP3   OH224776   0.109   6.302   0.970 -0.0815 -0.3276 -0.0419
 8271TIP3    H124777   0.174   6.285   0.902  0.4816 -0.2228  0.4658
 8271TIP3    H224778   0.131   6.389   1.003 -0.4091 -0.3414  0.2188
 8272TIP3   OH224779   1.066   6.240   3.311 -0.2801  0.1632 -0.2957
 8272TIP3    H124780   1.030   6.245   3.400  0.0513 -0.4591 -0.1159
 8272TIP3    H224781   1.000   6.192   3.261 -1.1633  1.8139 -0.7762
 8273TIP3   OH224782   1.740   0.219   1.680  0.1820 -0.2740  0.4097
 8273TIP3    H124783   1.833   0.218   1.706  0.4992  0.2564 -0.6375
 8273TIP3    H224784   1.698   0.276   1.745  0.3799 -1.3256  1.4955
 8274TIP3   OH224785   2.859   1.368   5.170  0.7734 -0.6377  0.2451
 8274TIP3    H124786   2.912   1.291   5.194  0.7450 -1.1315 -1.2214
 8274TIP3    H224787   2.919   1.424   5.121  0.3853 -0.4059  0.0343
 8275TIP3   OH224788   4.541  -0.005   1.346 -0.1889 -0.3144  0.0974
 8275TIP3    H124789   4.597   0.072   1.342  0.2807 -0.6330  0.4639
 8275TIP3    H224790   4.538  -0.028   1.439  0.8095 -1.5577 -0.1487
 8276TIP3   OH224791   0.769   4.597   0.908  0.2806 -0.3483 -0.5989
 8276TIP3    H124792   0.771   4.504   0.884  0.8905 -0.2919 -0.7816
 8276TIP3    H224793   0.796   4.643   0.828  0.3973 -0.0398 -0.3820
 8277TIP3   OH224794   6.405   0.836   2.057  0.1290 -0.0974 -0.0221
 8277TIP3    H124795   6.417   0.814   2.149 -0.8154 -0.4921  0.0181
 8277TIP3    H224796   6.488   0.877   2.031  0.7572 -0.8277  0.7511
 8278TIP3   OH224797   2.026   5.169   2.181 -0.2298  0.6273 -0.3572
 8278TIP3    H124798   2.023   5.220   2.099  0.3682 -1.2890 -1.6498
 8278TIP3    H224799   1.979   5.088   2.160 -0.7793  0.4380  1.4902
 8279TIP3   OH224800   3.444   1.270   5.482 -0.2174 -0.2613  0.2371
 8279TIP3    H124801   3.388   1.213   5.430 -1.5167  0.9945  0.2090
 8279TIP3    H224802   3.440   1.355   5.439 -1.1999  0.7785  2.2320
 8280TIP3   OH224803   0.922   5.187   3.916 -0.6564  0.0236 -0.4955
 8280TIP3    H124804   0.980   5.261   3.898 -2.2584  1.3378 -0.4863
 8280TIP3    H224805   0.869   5.178   3.837 -1.6680  0.0438  0.1615
 8281TIP3   OH224806   2.986   2.999   5.402 -0.4872 -0.4892  0.3506
 8281TIP3    H124807   2.973   3.070   5.339  0.3917  1.8647  2.6038
 8281TIP3    H224808   3.016   3.044   5.482 -0.5410 -3.3676  2.1280
 8282TIP3   OH224809   4.552   1.107   2.605 -0.4128 -0.0171  0.2882
 8282TIP3    H124810   4.525   1.175   2.666  1.5849 -0.0777  1.3317
 8282TIP3    H224811   4.647   1.101   2.616  0.0350 -0.1606 -2.7231
 8283TIP3   OH224812   1.854   1.309   0.153  0.7892  0.3435  0.5176
 8283TIP3    H124813   1.774   1.350   0.186  0.8126  1.3948 -0.6634
 8283TIP3    H224814   1.851   1.322   0.058  2.1643  0.0446  0.4060
 8284TIP3   OH224815   5.540   4.914   4.578 -0.2464 -0.4530  0.5793
 8284TIP3    H124816   5.565   4.858   4.505  0.3092  1.2747 -0.6070
 8284TIP3    H224817   5.445   4.924   4.569 -0.2886 -0.8393  0.5580
 8285TIP3   OH224818   5.221   5.864   0.779 -0.0530 -0.3917 -0.2389
 8285TIP3    H124819   5.235   5.790   0.720 -2.9891  0.1142 -1.7902
 8285TIP3    H224820   5.268   5.936   0.738 -0.4792 -0.4978 -0.9281
 8286TIP3   OH224821   4.120   2.969   0.505  0.6956  0.2912 -0.2358
 8286TIP3    H124822   4.113   3.055   0.464  1.4540 -0.2308 -1.5074
 8286TIP3    H224823   4.213   2.959   0.525  0.3692  0.4709  1.5410
 8287TIP3   OH224824   4.461   4.044   3.396  0.0077 -0.4683  0.2954
 8287TIP3    H124825   4.545   3.999   3.391  0.1395 -0.2886  0.8830
 8287TIP3    H224826   4.417   4.020   3.314  1.7399  1.6840 -1.3643
 8288TIP3   OH224827   4.961   5.936   3.927  0.4801  0.6494  0.3943
 8288TIP3    H124828   4.941   5.987   4.006  1.3374 -0.3954  1.3218
 8288TIP3    H224829   4.876   5.907   3.894  0.2085 -0.7054  2.1791
 8289TIP3   OH224830   1.595   5.642   3.488  0.5385  0.0473  0.3718
 8289TIP3    H124831   1.655   5.715   3.505  0.8555  0.1015 -0.8897
 8289TIP3    H224832   1.636   5.594   3.416 -0.9705  0.1328 -0.5732
 8290TIP3   OH224833   1.826   3.360   0.300  0.2245  0.0639 -0.5607
 8290TIP3    H124834   1.732   3.346   0.293  0.2074  0.6067 -1.6811
 8290TIP3    H224835   1.855   3.298   0.367 -0.7832 -0.8056 -0.9025
 8291TIP3   OH224836   7.101   0.661   4.831 -0.3198 -0.6533  0.7036
 8291TIP3    H124837   7.033   0.729   4.835 -0.9188 -1.1905 -0.0043
 8291TIP3    H224838   7.109   0.640   4.738 -0.6836 -2.0645  0.9626
 8292TIP3   OH224839   5.627   1.736   4.799  0.6104  0.0872 -0.3401
 8292TIP3    H124840   5.712   1.757   4.838  0.1868  0.8061  0.2250
 8292TIP3    H224841   5.637   1.760   4.707  1.0516  0.0486 -0.3078
 8293TIP3   OH224842   3.590   2.024   0.463 -0.2938  0.9566  0.3591
 8293TIP3    H124843   3.628   1.981   0.386 -1.3330  0.2161  0.2310
 8293TIP3    H224844   3.536   1.956   0.504  0.0868  1.4014  1.6466
 8294TIP3   OH224845   0.488   5.959   2.411 -0.3236  0.5699 -0.3721
 8294TIP3    H124846   0.526   5.890   2.356 -1.5457  0.2377 -0.8410
 8294TIP3    H224847   0.554   5.977   2.477 -0.7706 -2.5581  1.0713
 8295TIP3   OH224848   6.364   3.559   4.752  0.0885  0.1105  0.5117
 8295TIP3    H124849   6.331   3.516   4.831 -0.0576  1.9131  1.4992
 8295TIP3    H224850   6.286   3.590   4.706  0.2221  0.3823  0.4630
 8296TIP3   OH224851   4.223   6.645   3.199  0.3338 -0.3921 -0.0495
 8296TIP3    H124852   4.319   6.646   3.206  0.2422 -0.2339  1.2635
 8296TIP3    H224853   4.206   6.668   3.107  1.5213  0.7957 -0.0043
 8297TIP3   OH224854   0.175   3.453   4.742 -0.5593  0.1750 -0.1564
 8297TIP3    H124855   0.214   3.492   4.663 -1.0141 -1.3292 -1.1693
 8297TIP3    H224856   0.094   3.503   4.754 -0.4202  0.5106 -0.5636
 8298TIP3   OH224857   3.984   2.998   3.572  0.3750 -0.2354  0.3385
 8298TIP3    H124858   4.034   2.934   3.522 -0.9649 -1.1885  0.1625
 8298TIP3    H224859   3.896   2.959   3.580 -0.2318  1.1916  0.9705
 8299TIP3   OH224860   1.216   4.918   4.684  0.0638 -0.2942  0.2282
 8299TIP3    H124861   1.213   4.995   4.628 -1.9608 -0.7928 -0.4555
 8299TIP3    H224862   1.220   4.953   4.773 -0.4000  0.5978 -0.0915
 8300TIP3   OH224863   4.033   4.547   5.861  0.3519  0.7967 -0.2358
 8300TIP3    H124864   4.025   4.523   5.953  1.6971  0.0351 -0.2970
 8300TIP3    H224865   4.008   4.468   5.813  1.2955  0.6385 -0.4868
 8301TIP3   OH224866   5.323   6.031   5.914  0.1138  0.2038  0.0174
 8301TIP3    H124867   5.248   6.084   5.886  0.2041  0.6768  0.6344
 8301TIP3    H224868   5.395   6.063   5.859  0.2010  0.8410  0.4868
 8302TIP3   OH224869   3.961   2.530   1.832 -0.0186  0.4496  0.4405
 8302TIP3    H124870   3.989   2.619   1.809 -1.9242  0.8642 -0.4062
 8302TIP3    H224871   3.933   2.491   1.750  0.2576 -0.7508  0.8959
 8303TIP3   OH224872   5.591   1.610   0.089 -0.0142 -0.3645 -0.3499
 8303TIP3    H124873   5.672   1.576   0.126 -0.5566  0.6728  1.9754
 8303TIP3    H224874   5.527   1.602   0.160 -1.7407 -0.3440 -1.8203
 8304TIP3   OH224875   5.812   0.217   4.922 -0.1575  0.6285 -0.1958
 8304TIP3    H124876   5.754   0.141   4.928  0.2159  0.2404 -1.2480
 8304TIP3    H224877   5.838   0.220   4.830 -1.1745  2.8087 -0.4713
 8305TIP3   OH224878   2.831   3.940   5.175  0.3053 -0.2711 -0.3655
 8305TIP3    H124879   2.766   3.974   5.237  1.2909 -1.5680  1.4959
 8305TIP3    H224880   2.901   4.005   5.176  0.1351 -0.0880 -0.4201
 8306TIP3   OH224881   5.992   6.445   4.509  0.6806 -0.0651 -0.5229
 8306TIP3    H124882   6.056   6.378   4.534 -1.2003 -1.9240 -0.4146
 8306TIP3    H224883   5.969   6.487   4.592  0.6915 -0.4135 -0.3389
 8307TIP3   OH224884   0.500   1.765   1.710  0.7756  0.5419 -0.0113
 8307TIP3    H124885   0.447   1.694   1.673 -0.4900  1.3962  0.0676
 8307TIP3    H224886   0.473   1.843   1.661  1.3604  1.1426  0.6007
 8308TIP3   OH224887   5.017   2.083   3.425 -0.3215  0.7628 -0.4402
 8308TIP3    H124888   5.044   2.172   3.450  1.3584  0.5876 -1.4763
 8308TIP3    H224889   4.990   2.091   3.334  2.1882 -0.1525 -1.3583
 8309TIP3   OH224890   6.793   2.538   1.893  0.1020  0.0349  0.1126
 8309TIP3    H124891   6.829   2.455   1.863 -1.4978 -0.2814 -1.0995
 8309TIP3    H224892   6.703   2.518   1.918 -0.0121  1.2196  0.7697
 8310TIP3   OH224893   5.692   3.423   3.844  0.0077 -0.2953 -0.2973
 8310TIP3    H124894   5.679   3.515   3.823  1.7564 -0.1016 -0.6968
 8310TIP3    H224895   5.604   3.387   3.852 -0.6983  1.4062 -0.1325
 8311TIP3   OH224896   1.543   4.687   3.904  0.7761  0.1216  0.2879
 8311TIP3    H124897   1.510   4.711   3.818  1.2248 -1.5938 -0.4112
 8311TIP3    H224898   1.629   4.728   3.910  0.1111  1.5176  0.5752
 8312TIP3   OH224899   4.867   6.174   5.303  0.4396 -0.5249 -0.2432
 8312TIP3    H124900   4.784   6.166   5.350 -0.3099  0.7379 -1.2981
 8312TIP3    H224901   4.901   6.260   5.328  1.0047 -0.6743 -0.4828
 8313TIP3   OH224902   0.539   5.763   0.109  0.3568 -0.0859 -0.0324
 8313TIP3    H124903   0.539   5.735   0.200  0.4676 -0.8883 -0.2778
 8313TIP3    H224904   0.573   5.853   0.112  0.2238 -0.0554  0.7279
 8314TIP3   OH224905   3.803   5.454   5.770  1.0528 -0.1371  0.6416
 8314TIP3    H124906   3.725   5.450   5.714  0.1061  1.2277  1.7826
 8314TIP3    H224907   3.846   5.536   5.744  1.8173 -0.6108  0.3993
 8315TIP3   OH224908   6.619   4.856   1.992 -0.1320  0.2109  0.2002
 8315TIP3    H124909   6.696   4.889   1.946 -1.3334  2.4730 -0.3412
 8315TIP3    H224910   6.548   4.864   1.929 -0.9798 -1.1114  0.9337
 8316TIP3   OH224911   0.807   4.490   4.485  0.1251  0.2862  0.1389
 8316TIP3    H124912   0.865   4.566   4.482 -2.4266  2.3646 -0.4479
 8316TIP3    H224913   0.769   4.491   4.572  1.1073 -1.2681  0.6426
 8317TIP3   OH224914   4.156   0.712   4.063 -0.1376  0.1683  0.2016
 8317TIP3    H124915   4.073   0.694   4.018 -0.2420  0.4784  0.2679
 8317TIP3    H224916   4.141   0.682   4.152 -0.4345  0.8929  0.4053
 8318TIP3   OH224917   4.784   1.396   1.712  0.3242 -0.1347  0.4347
 8318TIP3    H124918   4.805   1.304   1.729  1.4045  0.0866  0.4233
 8318TIP3    H224919   4.773   1.402   1.618 -1.5555 -0.5828  0.6003
 8319TIP3   OH224920   0.238   3.890   0.111  0.7011  0.1231 -0.0847
 8319TIP3    H124921   0.230   3.799   0.084 -0.2600  0.1197  0.1662
 8319TIP3    H224922   0.329   3.913   0.095  0.9159 -0.8477 -0.2597
 8320TIP3   OH224923   6.849   0.666   2.588 -0.1029  0.2312  0.3675
 8320TIP3    H124924   6.939   0.638   2.572 -0.0999  0.8175 -0.7377
 8320TIP3    H224925   6.818   0.696   2.503 -1.1886  0.4792  0.8393
 8321TIP3   OH224926   2.576   1.921   3.204 -0.5966 -0.3206 -0.1056
 8321TIP3    H124927   2.483   1.904   3.190 -1.5216  3.2203  0.8152
 8321TIP3    H224928   2.587   1.922   3.299  0.3495 -0.4729 -0.1985
 8322TIP3   OH224929   0.110   1.927   4.677 -0.4394  0.0567  0.4780
 8322TIP3    H124930   0.032   1.935   4.622 -0.2211 -0.3491  0.1037
 8322TIP3    H224931   0.182   1.953   4.620 -0.2577  0.0719  0.7130
 8323TIP3   OH224932   5.518   5.463   2.503  0.3795  0.6234  0.4660
 8323TIP3    H124933   5.442   5.513   2.474  2.2185  2.0148 -2.4209
 8323TIP3    H224934   5.523   5.389   2.443 -0.9776 -1.9383  3.2772
 8324TIP3   OH224935   0.966   0.342   4.815 -0.1656  0.3666  0.5836
 8324TIP3    H124936   1.025   0.292   4.759 -0.6849  1.1329 -0.6725
 8324TIP3    H224937   1.021   0.411   4.852  0.1615 -0.0967  0.9782
 8325TIP3   OH224938   5.584   1.820   0.447  0.1208  0.0161  0.3287
 8325TIP3    H124939   5.672   1.786   0.461  0.1957 -0.1292 -0.4358
 8325TIP3    H224940   5.532   1.744   0.424 -0.2250  0.0895  0.8721
 8326TIP3   OH224941   1.748   4.265   3.843 -0.0438 -0.6669 -0.0689
 8326TIP3    H124942   1.706   4.340   3.884  0.4179 -0.9609  0.9923
 8326TIP3    H224943   1.789   4.300   3.764 -0.9314 -0.0750 -0.2752
 8327TIP3   OH224944   2.471   5.118   3.635  0.3495  0.2901  0.9515
 8327TIP3    H124945   2.403   5.183   3.617  0.4225  0.7295  2.1508
 8327TIP3    H224946   2.514   5.103   3.551 -0.3719  0.9973  0.4497
 8328TIP3   OH224947   4.328   5.674   3.538 -0.1834 -0.6467 -0.0339
 8328TIP3    H124948   4.380   5.703   3.463 -1.8340 -0.4490 -1.1770
 8328TIP3    H224949   4.388   5.676   3.612  1.3542 -0.2688 -1.2455
 8329TIP3   OH224950   5.878   6.701   0.624  0.2078 -0.4364 -0.3695
 8329TIP3    H124951   5.842   6.781   0.662  1.5820 -0.0500  0.1753
 8329TIP3    H224952   5.940   6.732   0.557  1.3967 -0.9907  0.4342
 8330TIP3   OH224953   3.619   0.133   4.336  0.7538  0.0554 -0.3339
 8330TIP3    H124954   3.538   0.093   4.368  1.3846 -2.0090 -1.0950
 8330TIP3    H224955   3.591   0.191   4.265 -0.0358 -1.4686 -1.3306
 8331TIP3   OH224956   2.628   6.090   0.802  0.5069  0.2789 -0.2691
 8331TIP3    H124957   2.695   6.065   0.738  0.9950  1.6473 -0.3215
 8331TIP3    H224958   2.673   6.083   0.887  0.1810 -0.5004 -0.1561
 8332TIP3   OH224959   6.476   4.202   4.602  0.8464  0.0776 -0.3640
 8332TIP3    H124960   6.449   4.240   4.518  0.2253  0.5386  0.0312
 8332TIP3    H224961   6.447   4.111   4.598  0.7775  0.1107 -0.6363
 8333TIP3   OH224962   3.490   1.690   4.545  0.9314  0.1081  0.1491
 8333TIP3    H124963   3.522   1.599   4.541  1.4267  0.3094 -0.8005
 8333TIP3    H224964   3.474   1.705   4.638  0.2420 -1.1594  0.2607
 8334TIP3   OH224965   0.057   2.088   2.852 -0.6357  0.4697 -0.1279
 8334TIP3    H124966   0.069   2.056   2.942 -0.9866  1.6102  0.3367
 8334TIP3    H224967   0.090   2.017   2.798  1.2687  0.4704  0.9304
 8335TIP3   OH224968   5.923   3.874   1.514  0.0922  0.2765  0.4917
 8335TIP3    H124969   6.002   3.890   1.463  0.5378  0.9585  1.3682
 8335TIP3    H224970   5.852   3.874   1.450  0.6718  0.8112 -0.1649
 8336TIP3   OH224971   0.248   0.257   2.542 -0.3788 -0.1719 -0.6725
 8336TIP3    H124972   0.228   0.316   2.469 -1.1777  0.3189 -0.0843
 8336TIP3    H224973   0.286   0.314   2.609  0.3715 -0.6219 -0.7144
 8337TIP3   OH224974   4.035   1.081   3.582  0.7075 -0.2190 -0.2281
 8337TIP3    H124975   4.064   1.087   3.491 -0.9141  0.4416 -0.7229
 8337TIP3    H224976   4.000   0.993   3.591 -1.0346  0.3736 -0.8630
 8338TIP3   OH224977   6.570   1.476   3.037  0.0499  0.5033  0.3834
 8338TIP3    H124978   6.501   1.422   3.076  1.2930 -1.7051 -0.2608
 8338TIP3    H224979   6.541   1.489   2.946 -0.4557  1.3050  0.6558
 8339TIP3   OH224980   1.239   1.084   3.731  0.3634  0.1003  0.2012
 8339TIP3    H124981   1.213   1.137   3.806 -2.0951  0.0247 -0.5197
 8339TIP3    H224982   1.247   1.147   3.659 -0.3714 -0.2141 -0.1607
 8340TIP3   OH224983   4.960   6.727   0.369 -0.1644 -0.3470  0.0920
 8340TIP3    H124984   4.922   6.807   0.405 -0.9132 -0.1986 -0.9640
 8340TIP3    H224985   4.939   6.659   0.432 -1.2460 -0.0617  0.0606
 8341TIP3   OH224986   6.317   3.583   4.394  0.0113 -0.1955 -0.0414
 8341TIP3    H124987   6.278   3.610   4.477 -0.4960 -0.6924 -0.1101
 8341TIP3    H224988   6.242   3.570   4.336  0.3934  0.7957 -0.7800
 8342TIP3   OH224989   7.138   3.657   3.610 -0.0154  0.2430 -0.2625
 8342TIP3    H124990   7.065   3.619   3.560 -0.6255  1.0103  0.0197
 8342TIP3    H224991   7.166   3.732   3.559  2.0501 -1.2543 -1.4836
 8343TIP3   OH224992   6.767   5.327   4.932  0.4865  0.1427  0.0977
 8343TIP3    H124993   6.791   5.269   5.004  0.9479 -0.5429 -0.5812
 8343TIP3    H224994   6.851   5.357   4.896  0.2504  1.2735  0.4633
 8344TIP3   OH224995   0.526   4.559   0.766  0.1336  0.2593 -0.3609
 8344TIP3    H124996   0.577   4.544   0.686  0.8405 -0.8696  0.2715
 8344TIP3    H224997   0.587   4.603   0.825 -0.1027  0.2737 -0.1290
 8345TIP3   OH224998   6.270   2.811   1.841 -0.3010 -0.4317  0.3546
 8345TIP3    H124999   6.191   2.845   1.798 -0.0471 -1.2354 -0.8101
 8345TIP3    H225000   6.308   2.751   1.776  0.2735 -1.4611  1.6155
 8346TIP3   OH225001   5.187   0.066   2.025  0.2677 -0.3439  0.5334
 8346TIP3    H125002   5.157  -0.013   1.981 -1.3850  0.5095  0.0249
 8346TIP3    H225003   5.117   0.087   2.088 -1.5946  2.9969 -2.2746
 8347TIP3   OH225004   3.294   0.260   4.239 -0.0672  0.4656  0.3971
 8347TIP3    H125005   3.308   0.335   4.297 -0.3887  1.2334 -0.4825
 8347TIP3    H225006   3.292   0.184   4.297 -2.0377  1.3594  1.5991
 8348TIP3   OH225007   7.011   1.100   3.069 -0.2832 -0.4379 -0.5969
 8348TIP3    H125008   6.952   1.161   3.114  0.1332  0.0936 -0.7553
 8348TIP3    H225009   7.096   1.144   3.071 -0.3143 -0.2531 -2.1618
 8349TIP3   OH225010   4.304   0.091   5.483 -0.0463 -0.1776 -0.6473
 8349TIP3    H125011   4.318   0.168   5.539 -0.4484 -0.7002  0.1796
 8349TIP3    H225012   4.273   0.128   5.400 -2.4129  0.4773  0.4400
 8350TIP3   OH225013   2.979   1.682   0.893 -0.2966 -0.1920 -0.1461
 8350TIP3    H125014   2.925   1.614   0.933  0.2736 -0.9911 -0.6971
 8350TIP3    H225015   2.985   1.657   0.801  1.5702 -0.5400  0.0185
 8351TIP3   OH225016   6.946   4.368   2.138 -0.3382 -0.0041  0.1081
 8351TIP3    H125017   7.039   4.349   2.127 -0.9620 -2.8038 -1.0937
 8351TIP3    H225018   6.933   4.452   2.093  1.7219  0.9788  1.1819
 8352TIP3   OH225019   6.635   3.366   5.623  0.3145 -0.4489 -0.1780
 8352TIP3    H125020   6.569   3.312   5.666 -1.5464  0.3586 -1.8236
 8352TIP3    H225021   6.636   3.447   5.674  1.7591 -1.2760  1.1911
 8353TIP3   OH225022   1.471   4.579   1.035  0.4768  0.0513  0.2210
 8353TIP3    H125023   1.481   4.672   1.015  0.8912 -0.6090 -3.2710
 8353TIP3    H225024   1.382   4.571   1.068  0.8544  1.8039  1.8385
 8354TIP3   OH225025   1.933   1.137   4.044 -0.1314  0.0660  0.0421
 8354TIP3    H125026   1.934   1.180   3.959  1.6269  1.7253  0.8162
 8354TIP3    H225027   1.923   1.209   4.107  2.1171 -0.6858  1.3700
 8355TIP3   OH225028   7.167   3.923   5.589  0.4111  0.1272  0.3623
 8355TIP3    H125029   7.167   4.010   5.551 -1.1540  0.9864  2.1908
 8355TIP3    H225030   7.216   3.932   5.670 -0.2458 -0.5587  0.8488
 8356TIP3   OH225031   4.738   2.216   1.004  0.2132  0.0220  0.5596
 8356TIP3    H125032   4.800   2.155   1.043  0.6972  0.4727  0.5131
 8356TIP3    H225033   4.698   2.261   1.079  2.9608  2.7063  0.6292
 8357TIP3   OH225034   0.435   6.261   3.418 -0.6444  0.2632  0.4566
 8357TIP3    H125035   0.385   6.242   3.338  0.5693  1.6818 -0.7130
 8357TIP3    H225036   0.399   6.344   3.450  0.1646  0.7345  0.2104
 8358TIP3   OH225037   4.084   5.486   2.898 -0.3784  0.2642  0.1288
 8358TIP3    H125038   4.164   5.450   2.858 -1.3297  0.0821 -1.6961
 8358TIP3    H225039   4.086   5.453   2.988 -0.0442 -2.5516 -0.7975
 8359TIP3   OH225040   6.210   1.039   0.347  0.0219  0.2154 -0.1999
 8359TIP3    H125041   6.200   1.132   0.326 -1.7800 -0.1247 -1.0051
 8359TIP3    H225042   6.206   1.036   0.443  1.9888  1.1100 -0.0247
 8360TIP3   OH225043   4.694   1.580   2.725 -0.2158 -0.7056 -0.2073
 8360TIP3    H125044   4.704   1.628   2.642  0.2075  0.5258  0.5336
 8360TIP3    H225045   4.609   1.608   2.758 -0.0866 -0.6815  0.1028
 8361TIP3   OH225046   3.998   5.198   5.070  0.3438  0.2088  0.0575
 8361TIP3    H125047   3.936   5.186   4.998  0.4372 -2.5166  0.3114
 8361TIP3    H225048   3.942   5.217   5.146  0.0429  0.4538 -0.2207
 8362TIP3   OH225049   1.130   3.463   2.243 -0.8536  0.3143  0.3831
 8362TIP3    H125050   1.089   3.541   2.282  0.5326  0.4079  1.7549
 8362TIP3    H225051   1.165   3.493   2.160 -1.8716  0.7024  0.0782
 8363TIP3   OH225052   2.541   3.674   4.181  0.1074 -0.1664  0.4612
 8363TIP3    H125053   2.471   3.614   4.157  0.0205 -0.0423  0.4055
 8363TIP3    H225054   2.605   3.665   4.109 -0.0580  0.0521  0.2860
 8364TIP3   OH225055   2.055   1.820   2.960 -0.5707  0.2687  0.0784
 8364TIP3    H125056   2.083   1.733   2.987 -2.2334 -0.5865 -0.8238
 8364TIP3    H225057   2.083   1.827   2.869 -1.3433  0.2531 -0.1671
 8365TIP3   OH225058   1.465   5.521   5.598 -0.1391 -0.1246 -0.1291
 8365TIP3    H125059   1.452   5.509   5.504 -0.0178 -2.0658  0.0742
 8365TIP3    H225060   1.497   5.437   5.630  1.0336  0.8575  1.4656
 8366TIP3   OH225061   5.481   2.306   4.130 -0.4324 -0.0217 -0.4850
 8366TIP3    H125062   5.550   2.258   4.083 -1.4159 -3.0272  0.8767
 8366TIP3    H225063   5.429   2.347   4.061  0.5744 -0.8119 -1.7616
 8367TIP3   OH225064   1.217   1.152   0.186  0.1081 -0.2641  0.7875
 8367TIP3    H125065   1.244   1.151   0.094  0.6541  0.8731  0.9245
 8367TIP3    H225066   1.250   1.069   0.221 -0.6325 -0.9902 -0.1702
 8368TIP3   OH225067   1.969   3.312   3.073 -0.9437 -0.9614  0.5293
 8368TIP3    H125068   2.014   3.259   3.139  1.6834  0.6597  0.1663
 8368TIP3    H225069   1.988   3.269   2.990 -0.3994 -0.5035  0.4135
 8369TIP3   OH225070   1.958   1.297   1.091 -0.0822  0.6740 -0.0330
 8369TIP3    H125071   1.992   1.225   1.037  0.3643  0.5283  0.4349
 8369TIP3    H225072   1.867   1.273   1.108 -0.4060  1.0263 -1.2294
 8370TIP3   OH225073   1.208   0.422   5.637  0.0374  0.5331  0.3877
 8370TIP3    H125074   1.175   0.512   5.648  1.0659  1.0232 -0.2892
 8370TIP3    H225075   1.134   0.374   5.600 -0.7486  0.9201  1.4142
 8371TIP3   OH225076   3.755   2.818  -0.026 -0.2437  0.5785  0.3868
 8371TIP3    H125077   3.850   2.816  -0.016 -0.0944 -0.1395 -0.9503
 8371TIP3    H225078   3.722   2.827   0.063  1.0826  1.7783  0.7929
 8372TIP3   OH225079   0.648   0.331   2.640 -0.1056 -0.1158 -0.2396
 8372TIP3    H125080   0.605   0.273   2.577  1.8284 -0.6429 -1.1579
 8372TIP3    H225081   0.691   0.397   2.586  0.5165  0.1755  0.5950
 8373TIP3   OH225082   5.072   4.746   3.484 -0.4775  0.2013 -0.1060
 8373TIP3    H125083   5.107   4.819   3.535  0.7424 -0.0363 -0.5919
 8373TIP3    H225084   5.097   4.668   3.534 -2.1560  0.0839  0.6510
 8374TIP3   OH225085   5.664   2.840   2.241 -0.1830 -0.3933  0.5668
 8374TIP3    H125086   5.702   2.880   2.319  1.3682 -0.2598 -0.2301
 8374TIP3    H225087   5.592   2.898   2.216 -0.5589 -0.3254  1.7476
 8375TIP3   OH225088   2.006   4.816   2.493 -0.0829  0.4342  0.0593
 8375TIP3    H125089   1.914   4.796   2.474 -0.0247  0.8245 -0.6819
 8375TIP3    H225090   2.054   4.743   2.454  0.0652  1.4396 -1.7874
 8376TIP3   OH225091   7.209   6.564   0.771 -0.5873  0.1216  0.1255
 8376TIP3    H125092   7.222   6.528   0.859 -1.0819 -0.6939 -0.1223
 8376TIP3    H225093   7.150   6.502   0.728 -1.4218  1.2067 -0.3482
 8377TIP3   OH225094   3.397   3.337   0.290  0.1748  0.3704  0.3554
 8377TIP3    H125095   3.473   3.350   0.346  0.3851 -1.6471  0.6091
 8377TIP3    H225096   3.431   3.290   0.214 -0.5962  0.6178 -0.1534
 8378TIP3   OH225097   6.779   0.527   2.889 -0.0716  0.3395  0.6605
 8378TIP3    H125098   6.873   0.530   2.907 -0.2080  0.6492  1.3567
 8378TIP3    H225099   6.763   0.602   2.831  0.4041 -0.7822 -0.9804
 8379TIP3   OH225100   0.970   4.672   0.143 -0.2372  0.1156 -0.1843
 8379TIP3    H125101   0.926   4.692   0.226  0.6710  1.1860  0.0677
 8379TIP3    H225102   1.054   4.717   0.149  2.6023 -4.6782  0.8599
 8380TIP3   OH225103   5.606   5.734   0.407  0.1371 -1.0426 -0.0326
 8380TIP3    H125104   5.648   5.680   0.474 -0.6250 -1.8170 -0.1613
 8380TIP3    H225105   5.557   5.671   0.353 -0.7713 -0.2195 -0.1880
 8381TIP3   OH225106   0.828   6.004   0.740 -0.2681  0.4060 -0.4766
 8381TIP3    H125107   0.922   5.986   0.737 -0.2890  0.2986 -0.4882
 8381TIP3    H225108   0.821   6.086   0.790 -0.1583  0.4901 -0.5993
 8382TIP3   OH225109   0.120   0.803   3.174 -0.6451 -0.0072 -0.0448
 8382TIP3    H125110   0.149   0.756   3.252  1.1938  1.2213  0.0624
 8382TIP3    H225111   0.185   0.871   3.161 -2.2453  1.3820 -1.2510
 8383TIP3   OH225112   6.768   1.833   0.851  0.1601 -0.2159 -0.4622
 8383TIP3    H125113   6.801   1.767   0.913 -1.5139  0.7570  1.5850
 8383TIP3    H225114   6.828   1.828   0.777  1.3034 -2.5936  0.5101
 8384TIP3   OH225115   3.042   6.319   0.693  0.5315 -0.1078 -0.6386
 8384TIP3    H125116   3.038   6.333   0.598  1.4148 -1.3287 -0.8852
 8384TIP3    H225117   3.041   6.224   0.703  1.0060 -0.0047  0.5428
 8385TIP3   OH225118   4.792   2.431   1.634  0.0132  1.0692  0.2779
 8385TIP3    H125119   4.857   2.453   1.701  1.7998 -2.2927 -0.1133
 8385TIP3    H225120   4.764   2.342   1.656 -3.0865  1.6541 -0.7343
 8386TIP3   OH225121   6.692   0.432   4.232 -0.1356 -0.0650 -0.0691
 8386TIP3    H125122   6.735   0.515   4.252 -0.5728 -0.0405  0.8255
 8386TIP3    H225123   6.732   0.369   4.292  0.0689 -0.4690 -0.6207
 8387TIP3   OH225124   6.993   4.024   4.069  0.3725 -0.1371  0.0829
 8387TIP3    H125125   7.076   3.976   4.066  1.3444  1.4985  0.0393
 8387TIP3    H225126   6.960   4.007   4.157  1.6811  0.6706  0.7664
 8388TIP3   OH225127   0.291   6.514   0.851  0.4594  0.2967 -0.1328
 8388TIP3    H125128   0.300   6.432   0.801 -0.5121 -0.2255  0.5208
 8388TIP3    H225129   0.380   6.534   0.880  0.7791 -0.2791 -0.6809
 8389TIP3   OH225130   3.670   2.225   4.767  0.1910 -0.6012  0.5081
 8389TIP3    H125131   3.691   2.228   4.673  0.7550 -0.0702  0.6382
 8389TIP3    H225132   3.631   2.139   4.780  0.2582 -0.7491 -0.1851
 8390TIP3   OH225133   5.191   4.477   5.719 -0.5802  0.0494 -0.3787
 8390TIP3    H125134   5.267   4.484   5.775 -0.2314 -0.2196 -0.8131
 8390TIP3    H225135   5.218   4.518   5.636 -1.1520  0.6240 -0.2903
 8391TIP3   OH225136   3.342   5.402   4.867 -0.3778 -0.6944  0.6421
 8391TIP3    H125137   3.411   5.456   4.907 -0.6422  0.7258 -0.7369
 8391TIP3    H225138   3.368   5.395   4.775 -1.0402 -1.8499  0.5335
 8392TIP3   OH225139   4.496   4.795   3.097 -0.3419 -0.1839  0.5634
 8392TIP3    H125140   4.527   4.832   3.014  1.8227  0.1625  1.4541
 8392TIP3    H225141   4.401   4.806   3.095 -0.6442 -2.0474 -2.7473
 8393TIP3   OH225142   5.772   1.869   0.208 -0.4456 -0.0334  0.4866
 8393TIP3    H125143   5.769   1.964   0.221  0.5384  0.0254  0.4032
 8393TIP3    H225144   5.770   1.859   0.113  1.1168  0.0124  0.4200
 8394TIP3   OH225145   3.065   0.725   2.769 -0.1660  0.2432  0.0259
 8394TIP3    H125146   3.096   0.814   2.789 -1.7281  0.7721  0.2106
 8394TIP3    H225147   3.088   0.712   2.677 -0.9522  1.3170 -0.3513
 8395TIP3   OH225148   2.715   2.366   1.272  0.4603 -0.3108  0.1279
 8395TIP3    H125149   2.690   2.314   1.349  1.2739  1.6766  1.8452
 8395TIP3    H225150   2.744   2.301   1.208 -2.1476 -2.1969  0.6789
 8396TIP3   OH225151   3.352   5.375   4.589 -0.3528 -0.0570  0.0737
 8396TIP3    H125152   3.368   5.314   4.517  1.1690 -1.1733  1.2998
 8396TIP3    H225153   3.308   5.449   4.547 -0.2807 -1.0211 -1.8470
 8397TIP3   OH225154   1.343   6.557   3.848 -0.1527  0.0410  0.9961
 8397TIP3    H125155   1.364   6.488   3.911  1.7994 -0.6305 -0.3033
 8397TIP3    H225156   1.276   6.518   3.791  0.7121 -0.7047  0.4597
 8398TIP3   OH225157   1.853   0.061   0.490 -0.1538  0.5426  0.2947
 8398TIP3    H125158   1.836  -0.010   0.429 -0.8474  0.3179  0.7319
 8398TIP3    H225159   1.886   0.018   0.569  2.1402  0.9437 -0.3918
 8399TIP3   OH225160   6.126   1.632   4.407 -0.7637 -0.2300  0.3311
 8399TIP3    H125161   6.099   1.621   4.498  0.0401 -1.5340  0.4357
 8399TIP3    H225162   6.052   1.599   4.356 -0.5489 -1.0711  0.5549
 8400TIP3   OH225163   1.809   6.104   4.478 -0.1576  0.1065 -0.7267
 8400TIP3    H125164   1.870   6.168   4.516 -0.2651 -0.0360 -0.3046
 8400TIP3    H225165   1.796   6.133   4.388  0.3439  0.2794 -0.7462
 8401TIP3   OH225166   0.582   0.930   0.011  0.2932  0.4175  0.2528
 8401TIP3    H125167   0.536   1.012   0.030  0.1166  0.5080 -0.5289
 8401TIP3    H225168   0.632   0.912   0.090  0.0879  1.1159  0.5516
 8402TIP3   OH225169   2.714   3.944   0.419  0.6672 -0.1529 -0.1337
 8402TIP3    H125170   2.666   3.963   0.338 -0.8718 -0.5749  0.6495
 8402TIP3    H225171   2.647   3.939   0.487  1.9634  0.5089  1.2527
 8403TIP3   OH225172   5.677   4.172   4.270  0.1479 -0.2112  0.4826
 8403TIP3    H125173   5.688   4.083   4.304 -0.8660 -0.1563  1.0009
 8403TIP3    H225174   5.745   4.223   4.314  0.0804 -0.5308  0.9673
 8404TIP3   OH225175   3.849   3.766   4.409 -0.2720 -0.0703  0.3513
 8404TIP3    H125176   3.902   3.754   4.331 -0.7190  0.9669 -0.1338
 8404TIP3    H225177   3.908   3.809   4.472 -0.4083  0.7596 -0.0653
 8405TIP3   OH225178   6.409   1.581   0.208 -0.0007 -0.4574  0.0887
 8405TIP3    H125179   6.480   1.629   0.251  0.1623  0.3315 -1.0013
 8405TIP3    H225180   6.330   1.612   0.251  0.1739  0.1598 -0.0206
 8406TIP3   OH225181   1.933   5.844   1.675 -0.2018 -0.4034 -0.5544
 8406TIP3    H125182   1.884   5.901   1.734  0.9290  1.4968 -1.3714
 8406TIP3    H225183   1.883   5.845   1.593  0.2477  0.0980 -0.8280
 8407TIP3   OH225184   6.305   0.162   0.709 -0.2345  0.5953  0.3181
 8407TIP3    H125185   6.365   0.089   0.725 -1.1277 -0.0915  0.6102
 8407TIP3    H225186   6.238   0.126   0.651 -0.2112  1.4399 -0.2603
 8408TIP3   OH225187   6.110   4.386   4.321 -0.8116  0.1752  0.4219
 8408TIP3    H125188   6.085   4.298   4.295  0.5971  0.0505 -0.6278
 8408TIP3    H225189   6.205   4.382   4.332 -0.7791  1.4621  0.7991
 8409TIP3   OH225190   2.272   0.954   4.928  0.1181 -0.3581  0.0047
 8409TIP3    H125191   2.262   0.862   4.903 -0.3664 -0.4389  0.4827
 8409TIP3    H225192   2.357   0.958   4.971 -0.7465 -1.0141  1.8588
 8410TIP3   OH225193   4.409   6.467   0.537  0.7582 -0.1630  0.3254
 8410TIP3    H125194   4.487   6.426   0.574  1.3893  1.4675  0.9148
 8410TIP3    H225195   4.335   6.423   0.580  1.4138 -0.4246  1.1991
 8411TIP3   OH225196   5.016   5.370   4.203  0.4897 -0.6710 -0.4835
 8411TIP3    H125197   4.972   5.403   4.281  0.6893  0.2467 -0.7510
 8411TIP3    H225198   5.071   5.298   4.235  0.3315 -0.5056  0.1698
 8412TIP3   OH225199   2.223   6.344   3.644  0.1091  0.1383  0.0128
 8412TIP3    H125200   2.222   6.438   3.658 -0.0001  0.0886  0.3575
 8412TIP3    H225201   2.245   6.333   3.551  3.3598  0.4155  0.6416
 8413TIP3   OH225202   1.285   2.491   1.232  0.1478  0.1554  0.1628
 8413TIP3    H125203   1.240   2.513   1.150 -0.9432  0.5466  0.8500
 8413TIP3    H225204   1.366   2.543   1.229 -0.9054  1.8554  0.3056
 8414TIP3   OH225205   5.268   1.201   1.177  0.5983 -0.2856 -0.7161
 8414TIP3    H125206   5.220   1.170   1.100 -1.6390  2.2855 -0.5216
 8414TIP3    H225207   5.210   1.179   1.250  1.6917 -0.7749  0.0238
 8415TIP3   OH225208   2.640   4.799   5.795  0.0563 -0.1134  0.0580
 8415TIP3    H125209   2.686   4.794   5.711 -0.2790  1.0645 -0.2151
 8415TIP3    H225210   2.548   4.786   5.773 -0.0665  0.5001  0.1965
 8416TIP3   OH225211   6.608   4.795   4.706  0.1740  0.4079 -0.2568
 8416TIP3    H125212   6.642   4.864   4.763  0.7273  0.5786 -0.7756
 8416TIP3    H225213   6.596   4.838   4.621 -2.1973  0.5723  0.1102
 8417TIP3   OH225214   2.271   5.632   2.890 -0.1855 -0.2916 -0.7570
 8417TIP3    H125215   2.232   5.715   2.919 -0.1722 -0.3816 -0.4825
 8417TIP3    H225216   2.196   5.577   2.867 -0.1947 -0.2102 -0.9314
 8418TIP3   OH225217   0.012   5.778   5.699  0.1614  0.3972  0.1293
 8418TIP3    H125218   0.011   5.761   5.793  2.3730 -0.7725  0.0070
 8418TIP3    H225219   0.032   5.693   5.659 -1.6947  0.6438 -1.5196
 8419TIP3   OH225220   3.508   4.612   1.916 -0.3475 -0.9812  0.2289
 8419TIP3    H125221   3.481   4.643   2.002  1.3712 -1.2587  0.9170
 8419TIP3    H225222   3.527   4.519   1.928 -1.7901 -1.4761 -0.9100
 8420TIP3   OH225223   1.637   2.503   4.630  0.4156 -0.0448 -0.3074
 8420TIP3    H125224   1.549   2.512   4.594  0.6409 -1.8337 -1.4030
 8420TIP3    H225225   1.627   2.450   4.708  0.3754  0.8811  0.3318
 8421TIP3   OH225226   2.974   2.892   3.301  0.0891  0.1609 -0.0169
 8421TIP3    H125227   2.912   2.911   3.230 -0.8824  1.9813  1.2420
 8421TIP3    H225228   3.060   2.911   3.264 -0.4485  1.6410 -0.5631
 8422TIP3   OH225229   3.117   3.436   5.508 -0.4438  0.0807 -0.4930
 8422TIP3    H125230   3.117   3.346   5.541 -2.4472 -0.0500 -0.6839
 8422TIP3    H225231   3.181   3.436   5.437  1.7189 -0.4131  1.3464
 8423TIP3   OH225232   6.742   0.474   3.718 -0.4325 -0.0398 -0.1197
 8423TIP3    H125233   6.724   0.462   3.811 -0.2350 -0.3906 -0.1273
 8423TIP3    H225234   6.774   0.564   3.711 -1.3220  0.3037  0.0206
 8424TIP3   OH225235   3.852   4.498   0.085  0.0169  0.0056 -0.0048
 8424TIP3    H125236   3.879   4.470  -0.002 -0.1908 -1.2819  0.3243
 8424TIP3    H225237   3.758   4.483   0.088  0.1563 -0.8482  0.7357
 8425TIP3   OH225238   2.235   5.342   2.312 -0.3628  0.4804 -0.1262
 8425TIP3    H125239   2.207   5.429   2.340 -1.2420  0.0174  0.4782
 8425TIP3    H225240   2.173   5.317   2.243  0.3814  0.6633 -0.8673
 8426TIP3   OH225241   3.581   1.696   0.299 -0.5286  0.2110 -0.8801
 8426TIP3    H125242   3.549   1.716   0.211 -0.4555  1.4646 -0.6391
 8426TIP3    H225243   3.621   1.610   0.290  0.0993  0.6038 -2.2563
 8427TIP3   OH225244   7.110   5.366   1.417 -0.2882 -0.3683  0.3282
 8427TIP3    H125245   7.176   5.297   1.410 -1.2221 -1.3899  1.2847
 8427TIP3    H225246   7.045   5.343   1.350 -0.2880 -0.0458  0.2160
 8428TIP3   OH225247   2.946   3.922   1.613  0.2476  0.3185 -0.3102
 8428TIP3    H125248   2.899   3.840   1.630  0.5394 -0.3360 -2.4200
 8428TIP3    H225249   2.878   3.982   1.582  0.3949  0.1580 -0.9485
 8429TIP3   OH225250   1.358   3.465   5.307 -0.5737 -0.0262 -0.6207
 8429TIP3    H125251   1.370   3.540   5.250 -0.3558 -0.0657 -0.6258
 8429TIP3    H225252   1.334   3.502   5.391 -1.8049  0.0102 -0.9572
 8430TIP3   OH225253   2.859   5.638   0.366 -0.0612  0.3858 -0.1001
 8430TIP3    H125254   2.871   5.616   0.458  1.3073  1.6091  0.0458
 8430TIP3    H225255   2.947   5.638   0.329 -0.3786  1.7921 -0.9483
 8431TIP3   OH225256   3.797   2.608   5.797  0.5270  0.4494 -0.2880
 8431TIP3    H125257   3.848   2.659   5.860  1.1791 -0.0575 -0.3946
 8431TIP3    H225258   3.860   2.547   5.759 -0.3954 -1.0511  0.4833
 8432TIP3   OH225259   3.199   5.655   1.648 -0.2210  0.1775  0.2061
 8432TIP3    H125260   3.211   5.740   1.689 -1.5596  0.9243 -0.8457
 8432TIP3    H225261   3.158   5.675   1.564 -0.8981 -1.5327  0.0869
 8433TIP3   OH225262   5.567   1.860   5.177  0.0994  0.2999  0.4261
 8433TIP3    H125263   5.514   1.927   5.220  0.9056  1.9345 -0.9847
 8433TIP3    H225264   5.511   1.824   5.109 -0.1382 -0.0388  0.7991
 8434TIP3   OH225265   0.297   4.691   5.714  0.2296  0.4710 -0.3773
 8434TIP3    H125266   0.295   4.731   5.801  2.4202  1.3401 -0.6483
 8434TIP3    H225267   0.294   4.764   5.654  2.2641  0.1625 -0.9253
 8435TIP3   OH225268   5.216  -0.012   5.684  0.3618  0.0993  0.5947
 8435TIP3    H125269   5.149  -0.021   5.752  1.2262 -0.4761  1.3979
 8435TIP3    H225270   5.283   0.043   5.724  1.2431 -0.8867  0.4928
 8436TIP3   OH225271   2.719   2.670   5.301  0.0194  0.2953  0.3629
 8436TIP3    H125272   2.653   2.713   5.356  1.1837  1.6555  0.7598
 8436TIP3    H225273   2.797   2.666   5.357  0.3126 -1.2315 -0.1147
 8437TIP3   OH225274   1.764   4.741   1.612  0.1996 -0.5827 -0.2030
 8437TIP3    H125275   1.685   4.793   1.605  1.6100  2.5359  3.4301
 8437TIP3    H225276   1.750   4.686   1.690  0.7652 -1.8136 -0.9302
 8438TIP3   OH225277   1.153   4.352   2.562  0.4472  0.5605 -0.1397
 8438TIP3    H125278   1.181   4.293   2.492  0.2764  1.5498 -1.0685
 8438TIP3    H225279   1.091   4.300   2.613 -0.5683  0.2616 -1.5968
 8439TIP3   OH225280   6.326   5.758   2.099  0.2471  0.6202 -0.0629
 8439TIP3    H125281   6.403   5.753   2.156  0.9422  1.4722 -0.8875
 8439TIP3    H225282   6.363   5.766   2.011 -0.7945 -1.3419 -0.7363
 8440TIP3   OH225283   0.796   0.825   1.834 -0.1364  0.2388  0.4599
 8440TIP3    H125284   0.829   0.888   1.899 -1.0883  0.2294  0.9642
 8440TIP3    H225285   0.795   0.874   1.752 -3.2020  1.7658  1.2591
 8441TIP3   OH225286   2.190   0.778   2.619  0.5675 -1.1142  0.0170
 8441TIP3    H125287   2.140   0.846   2.665  0.1793 -0.2488 -1.6254
 8441TIP3    H225288   2.280   0.810   2.619  0.2977 -0.3192 -1.2160
 8442TIP3   OH225289   1.550   3.125   5.520 -0.4910  0.2434  0.1499
 8442TIP3    H125290   1.531   3.115   5.427 -3.1061 -0.2845  0.6694
 8442TIP3    H225291   1.587   3.040   5.545  0.0207  0.3114 -0.3502
 8443TIP3   OH225292   6.371   0.587   1.955 -0.6256  0.0888 -0.2817
 8443TIP3    H125293   6.397   0.674   1.986 -0.2208 -0.3925  0.7736
 8443TIP3    H225294   6.304   0.604   1.889 -0.7917  1.1884  0.1521
 8444TIP3   OH225295   6.571   2.183   0.483 -0.2488  0.5522 -0.1263
 8444TIP3    H125296   6.620   2.202   0.404 -1.1661  0.8553 -0.6340
 8444TIP3    H225297   6.483   2.214   0.465 -1.1591 -1.7170 -0.0008
 8445TIP3   OH225298   1.206   5.288   0.523 -0.2722  0.0406  0.1734
 8445TIP3    H125299   1.293   5.310   0.557  0.1653 -0.8545 -0.3330
 8445TIP3    H225300   1.147   5.350   0.565  0.6036  0.5970  0.5974
 8446TIP3   OH225301   2.567   2.660   5.800 -0.4160 -0.5050  0.0265
 8446TIP3    H125302   2.474   2.653   5.777 -0.3828  0.2992 -0.3950
 8446TIP3    H225303   2.573   2.741   5.850  0.0039 -0.7378  0.3523
 8447TIP3   OH225304   2.200   2.422   0.938  0.4014 -0.2122 -0.1279
 8447TIP3    H125305   2.249   2.427   1.020 -0.8174  1.2228  0.5618
 8447TIP3    H225306   2.267   2.412   0.870  1.4380 -1.3418  1.0096
 8448TIP3   OH225307   5.193   0.907   5.684  0.2551 -0.1251 -0.2635
 8448TIP3    H125308   5.211   0.899   5.590  1.2500  0.1729 -0.1083
 8448TIP3    H225309   5.152   0.993   5.693 -1.1403 -0.7292 -0.5943
 8449TIP3   OH225310   2.500   5.570   5.054  0.2602 -0.1288  0.2917
 8449TIP3    H125311   2.411   5.602   5.064  0.6061  1.1095 -0.3748
 8449TIP3    H225312   2.531   5.609   4.972  1.5986 -0.0418  0.7994
 8450TIP3   OH225313   1.863   1.687   4.684 -0.1247 -0.9871  0.0054
 8450TIP3    H125314   1.882   1.604   4.727  1.1003  0.0208  1.5365
 8450TIP3    H225315   1.788   1.722   4.732 -0.4738 -1.0836 -0.4670
 8451TIP3   OH225316   3.048   1.510   3.764 -0.4393  0.0599 -0.3595
 8451TIP3    H125317   3.048   1.578   3.697 -0.3039  0.2413 -0.1763
 8451TIP3    H225318   3.001   1.437   3.724  0.0789 -0.0149 -0.8366
 8452TIP3   OH225319   1.841   0.456   4.523 -0.0317 -0.0326 -0.9253
 8452TIP3    H125320   1.842   0.487   4.433  0.6314 -0.7429 -1.1791
 8452TIP3    H225321   1.863   0.363   4.516 -0.4646 -0.2072 -0.0737
 8453TIP3   OH225322   2.187   1.928   1.143  0.4303  0.3445  0.9194
 8453TIP3    H125323   2.275   1.957   1.116  0.2935 -0.1493 -0.1326
 8453TIP3    H225324   2.189   1.833   1.132 -0.1714  0.3104  1.0882
 8454TIP3   OH225325   2.027   3.762   4.351  0.4204  0.0349  0.0292
 8454TIP3    H125326   2.024   3.849   4.391  0.7866 -0.3219  0.8357
 8454TIP3    H225327   2.117   3.732   4.365  0.2090 -0.6046  0.0329
 8455TIP3   OH225328   0.427   5.537  -0.016 -0.4684 -0.2623  0.2436
 8455TIP3    H125329   0.449   5.625   0.016  3.9357  0.1978 -3.0892
 8455TIP3    H225330   0.498   5.481   0.017 -1.4681 -1.8989 -0.2755
 8456TIP3   OH225331   6.706   2.714   3.232 -0.1687 -0.0157 -0.4033
 8456TIP3    H125332   6.616   2.723   3.261  0.3281  0.8287  1.0162
 8456TIP3    H225333   6.750   2.671   3.305  0.2883 -1.8192 -1.6939
 8457TIP3   OH225334   4.463   2.723   4.023  0.2381 -0.4910  0.0246
 8457TIP3    H125335   4.494   2.782   3.954 -0.6729 -0.6632 -0.5555
 8457TIP3    H225336   4.463   2.776   4.102 -0.8645  0.4086 -0.5455
 8458TIP3   OH225337   4.005   1.699   3.511 -0.0668 -0.3839 -0.2198
 8458TIP3    H125338   4.000   1.623   3.570 -2.5449 -2.0483 -2.3286
 8458TIP3    H225339   3.947   1.764   3.551  0.9963 -0.1016  0.9097
 8459TIP3   OH225340   4.234   3.522   4.000  0.4662  0.0325 -0.1327
 8459TIP3    H125341   4.244   3.515   3.905  0.7817  2.5028 -0.3593
 8459TIP3    H225342   4.322   3.541   4.032 -0.1712  2.9919  0.1336
 8460TIP3   OH225343   1.745   6.646   0.892  0.0608  0.2370  0.8594
 8460TIP3    H125344   1.786   6.618   0.810 -0.4984  0.7394  0.3975
 8460TIP3    H225345   1.716   6.735   0.875  0.4986  0.5722  1.8228
 8461TIP3   OH225346   1.409   5.979   3.760 -0.4532 -0.4800 -0.5495
 8461TIP3    H125347   1.481   5.973   3.698 -0.0474 -0.0183 -0.1308
 8461TIP3    H225348   1.336   6.014   3.709  0.1017  0.6718 -0.5896
 8462TIP3   OH225349   5.107   2.524   3.594  0.1601 -0.2003  0.6696
 8462TIP3    H125350   5.183   2.503   3.538 -0.1824 -0.5052  0.3103
 8462TIP3    H225351   5.141   2.585   3.659  0.3636  0.8948 -0.4349
 8463TIP3   OH225352   0.889   6.679   0.698 -0.7322 -0.0329  0.4923
 8463TIP3    H125353   0.925   6.597   0.663 -1.3570  0.0287 -0.3312
 8463TIP3    H225354   0.865   6.729   0.621 -1.4728  0.4203  1.0058
 8464TIP3   OH225355   3.340   5.658   2.910  0.2229 -0.7114 -0.3971
 8464TIP3    H125356   3.412   5.594   2.909  0.5695 -0.3270 -0.5213
 8464TIP3    H225357   3.289   5.636   2.988  0.2941 -1.1880 -0.4829
 8465TIP3   OH225358   5.489   5.087   3.231 -0.3618 -0.3372  0.4349
 8465TIP3    H125359   5.420   5.027   3.203 -0.4236  0.8037 -2.1305
 8465TIP3    H225360   5.566   5.060   3.182  0.3497 -0.0558  1.3786
 8466TIP3   OH225361   4.756   0.497   5.587  0.0347 -0.1520  0.7367
 8466TIP3    H125362   4.695   0.565   5.560 -0.7341 -0.5939  1.3020
 8466TIP3    H225363   4.841   0.540   5.588 -0.4267  0.7919  1.0424
 8467TIP3   OH225364   0.265   1.416   0.182 -0.0655  0.6937 -0.0148
 8467TIP3    H125365   0.280   1.422   0.088 -0.4062  2.5099  0.0084
 8467TIP3    H225366   0.350   1.392   0.220  0.3208  0.9912 -0.6900
 8468TIP3   OH225367   5.652   6.402   1.124 -0.3320  0.3668 -0.3040
 8468TIP3    H125368   5.738   6.424   1.159 -0.4226  0.8661 -0.3896
 8468TIP3    H225369   5.639   6.464   1.052 -1.4333  1.3576  0.7191
 8469TIP3   OH225370   2.983   2.417   4.415  0.1709  0.1303 -0.4024
 8469TIP3    H125371   3.017   2.410   4.325  0.2296  0.6505 -0.4203
 8469TIP3    H225372   2.895   2.452   4.405 -0.9971 -2.5278 -0.4675
 8470TIP3   OH225373   6.200   4.118   2.979  0.3725  0.1178 -0.7355
 8470TIP3    H125374   6.250   4.197   2.958  1.6174 -0.8677 -1.6775
 8470TIP3    H225375   6.240   4.084   3.059  0.9062 -0.3959 -1.2087
 8471TIP3   OH225376   3.788   4.048   4.760  0.2627 -0.4504  0.1817
 8471TIP3    H125377   3.775   4.032   4.666  0.6111  0.7347 -0.0953
 8471TIP3    H225378   3.725   4.117   4.781 -0.3698 -1.2592  1.0207
 8472TIP3   OH225379   6.051   0.898   3.817  0.2688 -0.1173 -0.4481
 8472TIP3    H125380   6.028   0.806   3.806 -1.2100  0.1474  0.1590
 8472TIP3    H225381   6.110   0.899   3.892  0.4514 -0.6006 -0.5872
 8473TIP3   OH225382   0.661   1.484   3.805 -0.5313  0.1990 -0.0003
 8473TIP3    H125383   0.635   1.405   3.757 -0.4606 -0.3369  0.8133
 8473TIP3    H225384   0.653   1.555   3.741 -0.1029 -0.5345 -0.8971
 8474TIP3   OH225385   0.867   1.483   1.537 -0.1874 -0.1726 -0.2413
 8474TIP3    H125386   0.906   1.532   1.464 -0.5474  0.5192  0.0139
 8474TIP3    H225387   0.864   1.547   1.609  1.3741 -1.2141  0.8074
 8475TIP3   OH225388   7.006   3.504   1.209  0.2698 -0.0047 -0.0578
 8475TIP3    H125389   6.998   3.596   1.183 -1.5504 -0.6520 -2.0772
 8475TIP3    H225390   6.965   3.500   1.296 -1.4551  0.8113 -0.7714
 8476TIP3   OH225391   3.657   3.691   3.110  0.3839  0.6111  0.6376
 8476TIP3    H125392   3.666   3.599   3.134 -1.9336  0.8316  2.7344
 8476TIP3    H225393   3.696   3.697   3.023 -3.5962 -3.4361 -1.8165
 8477TIP3   OH225394   1.984   3.369   5.672 -0.3370  0.3722 -0.1262
 8477TIP3    H125395   1.889   3.355   5.672 -0.4132  0.7008  1.4575
 8477TIP3    H225396   1.998   3.434   5.741  1.0291  0.4542 -0.4687
 8478TIP3   OH225397   2.688   1.116   2.928  0.2517  0.9487  0.2642
 8478TIP3    H125398   2.652   1.028   2.932  1.2584  0.5474  1.0550
 8478TIP3    H225399   2.660   1.150   2.843 -2.8063  1.0835  1.2188
 8479TIP3   OH225400   3.676   4.746   3.024 -0.2588  0.2685  0.5429
 8479TIP3    H125401   3.594   4.734   2.975 -0.2267  0.0387  0.5420
 8479TIP3    H225402   3.720   4.661   3.016  0.5225  0.7580 -0.4522
 8480TIP3   OH225403   6.717   5.107   5.730 -0.2995 -0.0096 -0.5695
 8480TIP3    H125404   6.690   5.060   5.650  0.8173 -0.1338 -0.8811
 8480TIP3    H225405   6.771   5.044   5.777 -0.6629  0.1906  0.1290
 8481TIP3   OH225406   7.086   6.212   3.971 -0.3223 -0.1311  0.7821
 8481TIP3    H125407   7.061   6.303   3.986  0.2717  0.2694 -0.4766
 8481TIP3    H225408   7.180   6.216   3.950 -0.8353 -0.6231 -2.0872
 8482TIP3   OH225409   6.476   1.903   0.424  0.0581  0.4505 -0.8182
 8482TIP3    H125410   6.447   1.932   0.338 -2.0016 -0.4831 -0.5088
 8482TIP3    H225411   6.488   1.984   0.474 -1.7828  0.9295 -1.0892
 8483TIP3   OH225412   0.223   1.010   3.892  0.6799  0.5258 -0.1907
 8483TIP3    H125413   0.190   1.070   3.960 -0.3714  0.6745 -0.8133
 8483TIP3    H225414   0.228   1.063   3.813  0.0686 -0.1109 -0.6710
 8484TIP3   OH225415   6.561   3.797   3.585 -0.0850 -0.3213  0.6824
 8484TIP3    H125416   6.590   3.874   3.536 -1.8734 -0.8847 -1.4401
 8484TIP3    H225417   6.530   3.833   3.668 -2.5942  1.6561 -0.9156
 8485TIP3   OH225418   1.502   4.700   0.057  0.0643 -0.3140  0.0278
 8485TIP3    H125419   1.430   4.682  -0.004 -0.5624 -0.3949  0.7670
 8485TIP3    H225420   1.514   4.794   0.054 -1.8600  0.0622  1.8019
 8486TIP3   OH225421   1.112   1.774   5.350  0.0070  0.1994  0.0627
 8486TIP3    H125422   1.084   1.841   5.412  0.5608  0.2446  0.2643
 8486TIP3    H225423   1.189   1.811   5.307  1.2476 -0.8988  1.2534
 8487TIP3   OH225424   1.661   1.319   2.197  0.0856 -0.2748 -0.4328
 8487TIP3    H125425   1.587   1.357   2.150 -0.0913 -0.9702 -0.7269
 8487TIP3    H225426   1.622   1.253   2.254  0.1217  1.4700  1.7535
 8488TIP3   OH225427   1.793   5.674   3.872  0.5738 -0.7222 -0.5799
 8488TIP3    H125428   1.711   5.641   3.838 -0.2139  1.1012 -0.5603
 8488TIP3    H225429   1.772   5.761   3.906  2.5726 -0.0614 -0.8807
 8489TIP3   OH225430   2.170   6.402   2.733 -0.3684  0.2017  0.4985
 8489TIP3    H125431   2.141   6.431   2.819 -0.8609 -2.3159  1.2595
 8489TIP3    H225432   2.260   6.373   2.747 -0.9430 -1.6941  0.6223
 8490TIP3   OH225433   2.573   3.676   4.536  0.0770 -0.4943 -0.3016
 8490TIP3    H125434   2.547   3.586   4.517  0.6919 -0.9002  0.6766
 8490TIP3    H225435   2.529   3.696   4.619 -0.6524  0.3742 -0.8914
 8491TIP3   OH225436   5.923   1.049   0.061  0.2203 -0.2677  0.2635
 8491TIP3    H125437   5.847   1.016   0.110  0.4032  1.4339  1.8119
 8491TIP3    H225438   5.885   1.105  -0.007  0.0574  0.9635  1.3345
 8492TIP3   OH225439   2.637   0.457   2.469 -0.2530 -0.4482  0.9447
 8492TIP3    H125440   2.544   0.435   2.475  0.1672 -1.8945  2.8935
 8492TIP3    H225441   2.639   0.553   2.475 -1.6402 -0.3114 -0.0661
 8493TIP3   OH225442   6.844   4.366   1.253 -0.0003  0.3146  0.0889
 8493TIP3    H125443   6.791   4.288   1.239 -1.1798  0.9261  0.9520
 8493TIP3    H225444   6.903   4.369   1.177  1.4526 -2.4471  0.9854
 8494TIP3   OH225445   4.888   2.127   0.326  0.5429  0.3459 -0.2597
 8494TIP3    H125446   4.848   2.168   0.403 -2.4777  1.2376 -2.1210
 8494TIP3    H225447   4.912   2.200   0.269  0.6396 -0.3336 -1.1115
 8495TIP3   OH225448   7.151   5.151   4.972 -0.0028 -0.0872  0.1673
 8495TIP3    H125449   7.131   5.142   4.879  2.3252  2.0289 -0.6650
 8495TIP3    H225450   7.072   5.122   5.017 -1.6068 -0.1381 -2.4877
 8496TIP3   OH225451   0.624   2.355   4.819 -0.5458 -0.1843 -0.2905
 8496TIP3    H125452   0.707   2.342   4.863  0.1747 -0.1426 -1.5787
 8496TIP3    H225453   0.596   2.442   4.844 -0.0053 -0.0512 -0.1460
 8497TIP3   OH225454   0.914   2.170   5.867 -0.5145  0.5150 -0.2402
 8497TIP3    H125455   0.915   2.146   5.775 -0.1339  0.0994 -0.1308
 8497TIP3    H225456   0.825   2.203   5.882 -1.5413 -2.0270 -0.1197
 8498TIP3   OH225457   0.143   2.624   0.719 -0.3950 -0.0258  0.2791
 8498TIP3    H125458   0.053   2.593   0.714 -0.2457 -0.5488  0.7708
 8498TIP3    H225459   0.153   2.654   0.810  0.1038 -0.5294  0.3944
 8499TIP3   OH225460   4.967   2.688   2.184 -0.0256 -0.1193 -0.6012
 8499TIP3    H125461   4.913   2.609   2.177 -2.0812  0.9906  1.3239
 8499TIP3    H225462   4.934   2.746   2.114 -3.6333  1.6844  2.2769
 8500TIP3   OH225463   4.880   3.859   5.011 -0.9612 -0.2682  0.1388
 8500TIP3    H125464   4.832   3.929   4.968 -0.3535  0.6724  0.9476
 8500TIP3    H225465   4.814   3.816   5.067 -0.8604  1.1534  1.4153
 8501TIP3   OH225466   2.170   4.370   3.078  0.1583 -0.0928 -0.1712
 8501TIP3    H125467   2.254   4.358   3.034  0.6102  0.8963  0.3815
 8501TIP3    H225468   2.193   4.387   3.169 -0.5435  1.6899 -0.2872
 8502TIP3   OH225469   6.894   1.570   0.160  0.7433 -0.6355 -0.5656
 8502TIP3    H125470   6.824   1.505   0.165 -0.6489  0.8835  0.9544
 8502TIP3    H225471   6.854   1.646   0.118  0.8019  0.9451  1.9797
 8503TIP3   OH225472   1.766   2.969   5.003 -0.1357  0.2050 -0.3771
 8503TIP3    H125473   1.772   2.922   4.919  2.7734  1.2764 -0.8902
 8503TIP3    H225474   1.713   3.046   4.984 -0.3871 -0.1091 -0.9629
 8504TIP3   OH225475   7.200   2.839   1.252 -0.2760 -0.5448  0.2113
 8504TIP3    H125476   7.179   2.757   1.296  0.5968  0.3600  2.4891
 8504TIP3    H225477   7.121   2.893   1.263  0.0360 -0.2251  0.9614
 8505TIP3   OH225478   0.694   6.822   0.914  0.1907 -0.8249  0.1124
 8505TIP3    H125479   0.668   6.820   1.006 -0.1489 -1.1859  0.0148
 8505TIP3    H225480   0.714   6.731   0.893 -0.4121 -0.8529 -0.3580
 8506TIP3   OH225481   0.043   6.052   3.160 -0.9870 -0.5072  0.6058
 8506TIP3    H125482   0.002   5.992   3.098 -1.6088  0.0560  0.4654
 8506TIP3    H225483  -0.014   6.128   3.161  1.8198  1.9339 -2.3522
 8507TIP3   OH225484   2.159   4.825   4.983 -0.2368  0.6791 -0.0567
 8507TIP3    H125485   2.112   4.859   5.060  0.7723 -0.3700  1.0634
 8507TIP3    H225486   2.091   4.781   4.932 -1.0656  2.0468 -0.1935
 8508TIP3   OH225487   7.020   3.708   4.203  0.0823 -1.2184 -0.1392
 8508TIP3    H125488   6.993   3.697   4.112 -0.5851 -0.8208  0.0031
 8508TIP3    H225489   7.101   3.659   4.210  0.4796 -0.7233 -1.1143
 8509TIP3   OH225490   6.235   4.462   2.397  0.1382 -0.0611  0.1736
 8509TIP3    H125491   6.187   4.386   2.429  0.5415 -0.0391  0.8502
 8509TIP3    H225492   6.304   4.476   2.461 -0.6300  1.5923  0.7019
 8510TIP3   OH225493   3.415   4.628   2.934 -0.3624  0.2276  0.0396
 8510TIP3    H125494   3.335   4.601   2.888 -0.1643  0.7128 -0.6107
 8510TIP3    H225495   3.426   4.563   3.003 -1.2084  0.0377  0.0088
 8511TIP3   OH225496   4.148   0.939   0.728 -0.4149  0.0046  0.3267
 8511TIP3    H125497   4.234   0.913   0.759 -1.0066 -1.1176  1.0969
 8511TIP3    H225498   4.089   0.915   0.800 -1.4546  0.0868 -0.4825
 8512TIP3   OH225499   4.354   3.649   4.700 -0.0555 -0.4319 -0.1116
 8512TIP3    H125500   4.311   3.567   4.675  0.4000 -0.3321 -1.2600
 8512TIP3    H225501   4.291   3.692   4.758 -1.1095 -0.7324 -1.0003
 8513TIP3   OH225502   4.237   4.240   1.434  0.2263 -0.1836 -0.1314
 8513TIP3    H125503   4.291   4.314   1.461  0.9585 -0.6694 -0.2289
 8513TIP3    H225504   4.216   4.258   1.342 -0.1238  0.2061  0.0221
 8514TIP3   OH225505   3.418   3.885   4.631  0.3068 -0.0638  0.1010
 8514TIP3    H125506   3.486   3.822   4.653 -0.8414 -2.3336 -2.3577
 8514TIP3    H225507   3.445   3.920   4.546  0.3612  2.0517  0.9266
 8515TIP3   OH225508   2.927   1.016   2.955  0.8544 -0.5200  0.6742
 8515TIP3    H125509   2.900   0.946   3.014 -0.7230 -0.8310 -0.3738
 8515TIP3    H225510   2.846   1.053   2.921  1.6730 -0.5969 -1.5733
 8516TIP3   OH225511   6.831   5.612   4.078 -0.1568 -0.2789  0.2680
 8516TIP3    H125512   6.876   5.690   4.046  0.1167 -0.2694  0.6616
 8516TIP3    H225513   6.741   5.621   4.046 -0.3437  0.6101  0.9878
 8517TIP3   OH225514   4.347   6.024   5.455  0.0535 -0.3871 -0.6555
 8517TIP3    H125515   4.329   6.020   5.549  1.6638  0.0835 -0.2922
 8517TIP3    H225516   4.293   6.096   5.423  0.6084  0.4379  0.2126
 8518TIP3   OH225517   0.963   4.283   2.911 -0.1653  0.2598 -0.5474
 8518TIP3    H125518   0.965   4.378   2.919  0.4648  0.2232 -0.0980
 8518TIP3    H225519   0.931   4.266   2.823 -2.9859  0.8204  0.2778
 8519TIP3   OH225520   1.207   0.929   4.431 -0.6888  0.0091 -0.3739
 8519TIP3    H125521   1.171   0.946   4.344 -1.7970 -0.5882 -0.0433
 8519TIP3    H225522   1.204   1.014   4.475  1.5166  0.7390 -1.4590
 8520TIP3   OH225523   6.732   4.600   1.175 -0.2523 -0.1520 -0.2012
 8520TIP3    H125524   6.718   4.508   1.196 -0.0790  0.0174  0.7173
 8520TIP3    H225525   6.688   4.648   1.245  1.3669  0.4271  0.4734
 8521TIP3   OH225526   6.019   2.927   4.628  0.5597  0.9582 -0.3563
 8521TIP3    H125527   5.940   2.891   4.668 -0.1564  2.2200 -0.5734
 8521TIP3    H225528   6.061   2.977   4.698  0.4755  1.3548 -0.5859
 8522TIP3   OH225529   5.623   1.225   2.295 -0.4569 -0.3384 -0.3362
 8522TIP3    H125530   5.625   1.137   2.332  0.1466 -0.3862 -0.4727
 8522TIP3    H225531   5.534   1.256   2.313 -0.2293 -0.4054  1.0619
 8523TIP3   OH225532   1.511   2.714   0.036  0.4220 -0.3220  0.2453
 8523TIP3    H125533   1.518   2.636  -0.018 -0.8381 -1.1422  1.1961
 8523TIP3    H225534   1.435   2.761   0.001  1.6245  0.9211 -0.8139
 8524TIP3   OH225535  -0.008   1.453   0.724 -0.4444  0.3427  0.2612
 8524TIP3    H125536   0.052   1.526   0.708 -0.2022  0.1536  0.3052
 8524TIP3    H225537   0.038   1.376   0.691 -1.6825  0.5111 -1.9965
 8525TIP3   OH225538   2.729   0.731   1.470  0.5506 -0.0964  0.4002
 8525TIP3    H125539   2.706   0.679   1.547 -0.2348 -2.5082 -1.3205
 8525TIP3    H225540   2.757   0.666   1.405  1.4928  1.8558 -1.2682
 8526TIP3   OH225541   0.352   3.263   0.488 -0.3652 -0.4560 -0.5623
 8526TIP3    H125542   0.350   3.332   0.422 -0.7447 -0.4149 -0.5070
 8526TIP3    H225543   0.260   3.246   0.509 -0.2280  0.0924  0.5455
 8527TIP3   OH225544   6.924   2.434   5.133 -0.0155 -0.0917  0.9117
 8527TIP3    H125545   6.861   2.479   5.190 -0.2714  1.7478 -0.7111
 8527TIP3    H225546   6.917   2.480   5.049  1.3679 -1.7854 -0.1901
 8528TIP3   OH225547   5.764   6.353   5.482 -0.0875  0.1121 -0.0425
 8528TIP3    H125548   5.856   6.333   5.500 -0.2020 -1.4688 -1.0200
 8528TIP3    H225549   5.731   6.388   5.565  1.1306 -0.2898  0.6437
 8529TIP3   OH225550   0.109   4.907   1.199  0.0395 -0.4357  0.3706
 8529TIP3    H125551   0.122   4.996   1.231  2.8478 -1.3057  2.0048
 8529TIP3    H225552   0.054   4.865   1.266 -1.6592  0.1075 -0.6202
 8530TIP3   OH225553   3.661   1.046   3.099  0.1174 -0.3697  0.6707
 8530TIP3    H125554   3.661   1.136   3.133  2.5276 -0.1731  0.3298
 8530TIP3    H225555   3.735   1.004   3.143  1.0438 -1.1996 -1.5433
 8531TIP3   OH225556   3.257   3.087   1.151 -0.1882 -0.1095 -0.5685
 8531TIP3    H125557   3.286   3.000   1.177  0.2135  0.7553  2.2594
 8531TIP3    H225558   3.166   3.076   1.123 -0.3224 -1.3463  0.3062
 8532TIP3   OH225559   5.344   2.755   3.551 -0.0496 -0.0407 -0.0696
 8532TIP3    H125560   5.334   2.743   3.457 -0.4891  2.2918 -0.3899
 8532TIP3    H225561   5.429   2.798   3.561  0.0829 -0.4469  0.6320
 8533TIP3   OH225562   0.583   2.097   2.400  0.2773 -0.1385 -0.0358
 8533TIP3    H125563   0.502   2.058   2.367  0.8972 -0.3884 -1.3256
 8533TIP3    H225564   0.555   2.174   2.448 -0.7782 -0.6439  0.1931
 8534TIP3   OH225565   0.570   3.817   0.035  0.1349  0.1853 -0.3843
 8534TIP3    H125566   0.565   3.809   0.131 -0.6986  1.5672 -0.2859
 8534TIP3    H225567   0.631   3.888   0.020 -0.2281  0.4018 -0.8508
 8535TIP3   OH225568   6.785   4.215   4.156  0.4471 -0.8889  0.0447
 8535TIP3    H125569   6.836   4.232   4.235  1.1466 -0.2290 -0.5361
 8535TIP3    H225570   6.841   4.160   4.102  0.5345 -0.2245 -0.5666
 8536TIP3   OH225571   2.538   6.500   1.198 -0.1850 -0.6665 -0.4100
 8536TIP3    H125572   2.609   6.445   1.231  1.7292  0.4562 -2.3284
 8536TIP3    H225573   2.458   6.453   1.219  1.0349 -1.6194  2.6130
 8537TIP3   OH225574   6.420   2.553   4.935 -0.3141  0.2160 -0.0559
 8537TIP3    H125575   6.326   2.566   4.918 -0.0471 -0.1272 -2.0228
 8537TIP3    H225576   6.460   2.636   4.910 -0.0525  0.2479  0.4626
 8538TIP3   OH225577   2.243   0.343   3.136  0.2463  0.2153  0.2167
 8538TIP3    H125578   2.290   0.422   3.112  1.2593 -0.5403 -0.3743
 8538TIP3    H225579   2.262   0.282   3.065 -0.4334 -0.5944  0.7121
 8539TIP3   OH225580   5.946   0.748   4.580  0.3845  0.5943 -0.1759
 8539TIP3    H125581   6.025   0.695   4.589 -0.4087 -0.5920  0.0687
 8539TIP3    H225582   5.910   0.754   4.669 -0.3828  0.1872 -0.4508
 8540TIP3   OH225583   5.260   2.132   3.721 -0.2760 -0.4255  0.2183
 8540TIP3    H125584   5.198   2.064   3.748 -1.7853  1.0210  0.5802
 8540TIP3    H225585   5.250   2.136   3.626  0.5477 -1.3562  0.0781
 8541TIP3   OH225586   5.590   0.845   3.543 -0.4737  0.1865  0.4477
 8541TIP3    H125587   5.607   0.842   3.637  0.2622  0.4343  0.3310
 8541TIP3    H225588   5.540   0.925   3.530 -0.2746  0.3337  0.5836
 8542TIP3   OH225589   3.053   3.956   2.294  0.4807 -0.0308 -0.1501
 8542TIP3    H125590   3.032   3.901   2.218 -1.4099 -0.6093  0.7119
 8542TIP3    H225591   2.984   3.935   2.357  1.1686  1.5174  1.1676
 8543TIP3   OH225592   4.859   2.469   3.490  0.0426  0.1588  0.6873
 8543TIP3    H125593   4.940   2.485   3.538  0.4470 -0.0590  0.0949
 8543TIP3    H225594   4.797   2.439   3.556  0.9276 -1.2838  0.9127
 8544TIP3   OH225595   1.730   4.311   5.133  0.4101 -0.0030 -0.3512
 8544TIP3    H125596   1.808   4.336   5.083 -0.1507 -0.6707 -1.6038
 8544TIP3    H225597   1.663   4.375   5.106 -0.4066 -1.4184 -1.9083
 8545TIP3   OH225598   2.642   0.336   2.032  0.6472  0.1263 -0.1547
 8545TIP3    H125599   2.608   0.247   2.045  0.3466 -0.0145 -1.7930
 8545TIP3    H225600   2.564   0.391   2.028  0.7771  0.2991 -0.3432
 8546TIP3   OH225601   5.124   1.790   2.624 -0.3362 -0.3320 -0.4667
 8546TIP3    H125602   5.122   1.717   2.685  0.2820 -0.3622 -0.4763
 8546TIP3    H225603   5.170   1.757   2.547 -1.3220 -0.3669 -1.0541
 8547TIP3   OH225604   4.400   3.633   2.412 -0.2850 -0.2218 -0.7133
 8547TIP3    H125605   4.354   3.650   2.330 -1.6593 -3.1127 -0.6723
 8547TIP3    H225606   4.466   3.568   2.389 -1.1898 -1.6516  0.5429
 8548TIP3   OH225607   0.937   3.679   5.542  0.0215  0.0392 -0.2720
 8548TIP3    H125608   0.908   3.743   5.607  0.0819 -0.5715  0.3710
 8548TIP3    H225609   0.892   3.598   5.566 -0.3369 -0.0806 -1.2943
 8549TIP3   OH225610   3.114   3.196   1.411  0.6851 -0.0126  0.2740
 8549TIP3    H125611   3.109   3.199   1.315 -0.2382 -0.1504  0.3118
 8549TIP3    H225612   3.029   3.162   1.439  0.6094  0.8622  1.1890
 8550TIP3   OH225613   2.048   0.186   3.458 -0.9013 -0.0931 -0.1964
 8550TIP3    H125614   2.040   0.196   3.553 -0.5722 -0.4824 -0.1267
 8550TIP3    H225615   2.115   0.249   3.432 -2.0687  1.0954 -0.3822
 8551TIP3   OH225616   5.158   1.874   1.374 -0.1400 -0.1719  0.4468
 8551TIP3    H125617   5.248   1.849   1.358 -0.6861 -2.3766  0.5283
 8551TIP3    H225618   5.130   1.820   1.448 -1.1062  1.5397  1.4137
 8552TIP3   OH225619   4.643   3.629   3.562 -0.2180  0.1718 -0.3105
 8552TIP3    H125620   4.687   3.568   3.622  0.3408  1.0980  0.2423
 8552TIP3    H225621   4.674   3.715   3.588 -1.3566  0.7468 -0.7899
 8553TIP3   OH225622   6.382   3.550   1.803 -0.2804 -0.2158 -0.2561
 8553TIP3    H125623   6.313   3.502   1.849 -0.1428 -0.1867 -0.0195
 8553TIP3    H225624   6.352   3.554   1.712 -0.3382 -0.6665 -0.2587
 8554TIP3   OH225625   5.061   4.864   5.133  0.2157 -0.2577  0.1359
 8554TIP3    H125626   5.134   4.878   5.193  1.0833 -0.2422 -0.8892
 8554TIP3    H225627   5.003   4.805   5.180  0.6238  0.1310  1.1768
 8555TIP3   OH225628   1.414   2.810   0.981 -0.5018 -0.4971 -0.2133
 8555TIP3    H125629   1.362   2.868   1.037 -1.8748 -1.9647  0.1130
 8555TIP3    H225630   1.413   2.853   0.896  2.1671  2.1210  0.8757
 8556TIP3   OH225631   5.507   3.082   1.812  0.1152  0.6782  0.7747
 8556TIP3    H125632   5.486   3.116   1.725  1.0554 -0.7418 -0.0488
 8556TIP3    H225633   5.472   2.993   1.813 -0.3969  0.8718  2.0795
 8557TIP3   OH225634   1.602   1.878   2.829 -0.3393  0.4228 -0.2822
 8557TIP3    H125635   1.557   1.941   2.885 -1.1648 -0.0589 -0.3939
 8557TIP3    H225636   1.654   1.826   2.890 -0.0331  0.8935 -0.1374
 8558TIP3   OH225637   0.318   2.062   2.338  0.1861  0.1614 -0.1637
 8558TIP3    H125638   0.239   2.018   2.369 -0.2139  0.8783 -0.1441
 8558TIP3    H225639   0.293   2.102   2.255  0.3794  0.8122  0.0826
 8559TIP3   OH225640   4.703   6.166   3.576 -0.4146  0.8823 -0.5913
 8559TIP3    H125641   4.724   6.075   3.556  0.6865  1.0973 -0.5083
 8559TIP3    H225642   4.696   6.168   3.672 -1.8826  0.6160 -0.6661
 8560TIP3   OH225643   2.729   3.499   3.191 -0.6324  0.0802  0.1220
 8560TIP3    H125644   2.682   3.454   3.261  0.1619  1.8256  1.9007
 8560TIP3    H225645   2.672   3.493   3.115 -1.1413 -2.6458  0.6374
 8561TIP3   OH225646   1.495   3.223   1.867 -0.2277  0.2347 -0.3073
 8561TIP3    H125647   1.410   3.190   1.836 -0.0503 -1.6745  1.0492
 8561TIP3    H225648   1.555   3.150   1.852  0.3664  0.1541  2.1014
 8562TIP3   OH225649   5.173   0.712   1.683 -0.2904  0.0505  0.4286
 8562TIP3    H125650   5.242   0.704   1.617 -0.7782  0.8375 -0.1957
 8562TIP3    H225651   5.133   0.626   1.686  1.2228 -0.6577  1.3812
 8563TIP3   OH225652   5.663   3.684   3.804  0.0073  0.0560 -0.4800
 8563TIP3    H125653   5.723   3.727   3.864 -1.0592 -0.5342  1.0783
 8563TIP3    H225654   5.650   3.747   3.733  2.9743 -0.0802 -1.2859
 8564TIP3   OH225655   0.701   6.830   3.926 -0.2225  0.7537  0.6882
 8564TIP3    H125656   0.626   6.775   3.948 -0.2800  0.6824  0.3098
 8564TIP3    H225657   0.757   6.775   3.871 -0.7757  1.3909 -0.5637
 8565TIP3   OH225658   1.052   5.837   2.439  0.0989  0.0869 -0.1275
 8565TIP3    H125659   0.979   5.879   2.485  0.0833  0.5711 -0.5866
 8565TIP3    H225660   1.125   5.840   2.500 -0.3484 -0.6987  0.4662
 8566TIP3   OH225661   2.787   0.053   3.961 -0.2746  0.0581  0.2702
 8566TIP3    H125662   2.838   0.104   3.899 -1.3997  0.3366 -0.4615
 8566TIP3    H225663   2.733  -0.004   3.907 -1.0287  0.0554  1.0016
 8567TIP3   OH225664   5.233   5.335   0.917  0.2666 -0.0921 -0.2597
 8567TIP3    H125665   5.309   5.312   0.864  0.5727 -1.1184  0.5902
 8567TIP3    H225666   5.199   5.251   0.948 -1.0805  0.3630 -0.4321
 8568TIP3   OH225667   6.126   5.723   3.205 -0.2172 -0.5576  0.3777
 8568TIP3    H125668   6.141   5.630   3.223  0.0885 -0.3307  1.3860
 8568TIP3    H225669   6.059   5.749   3.269 -1.1346 -0.3341 -0.6340
 8569TIP3   OH225670   6.902   3.740   1.768 -0.0197 -0.2806  0.1385
 8569TIP3    H125671   6.942   3.681   1.704  1.4078  0.0993  0.6512
 8569TIP3    H225672   6.925   3.704   1.853  0.5970  0.8147  0.4594
 8570TIP3   OH225673   6.578   2.454   2.872 -0.0094 -0.6407  0.2080
 8570TIP3    H125674   6.524   2.533   2.877  1.5672  0.4578  0.8668
 8570TIP3    H225675   6.646   2.467   2.939  1.2570 -1.8029 -0.7770
 8571TIP3   OH225676   4.826   1.371   3.756 -0.0601 -0.1563 -0.4239
 8571TIP3    H125677   4.851   1.439   3.693  2.2482 -1.6372 -1.2318
 8571TIP3    H225678   4.797   1.419   3.833  1.9252  1.7886 -0.7911
 8572TIP3   OH225679   6.251   0.123   4.451  0.1149  0.4976 -0.2516
 8572TIP3    H125680   6.231   0.154   4.539 -1.0978  0.9466 -0.6774
 8572TIP3    H225681   6.248   0.027   4.458 -0.9521  0.5446 -0.0259
 8573TIP3   OH225682   5.177   4.180   2.919  0.0324  0.0205  0.3644
 8573TIP3    H125683   5.241   4.193   2.989  0.4052  0.6985 -0.0897
 8573TIP3    H225684   5.219   4.215   2.841 -0.2054 -1.1266 -0.2976
 8574TIP3   OH225685   1.672   3.798   4.663  0.2569 -0.6339 -0.4032
 8574TIP3    H125686   1.585   3.792   4.702  0.9327 -1.6801  1.0340
 8574TIP3    H225687   1.730   3.815   4.737  1.2362  0.6122 -1.4090
 8575TIP3   OH225688   6.235   6.031   3.097  0.6717  0.6110  0.3243
 8575TIP3    H125689   6.230   5.943   3.133  1.1823  0.0506 -0.9121
 8575TIP3    H225690   6.293   6.023   3.021 -0.3240  1.7480 -0.6007
 8576TIP3   OH225691   5.110   4.880   1.280  0.4277  0.2562  0.2763
 8576TIP3    H125692   5.133   4.826   1.204  0.4640  0.5941  0.0406
 8576TIP3    H225693   5.132   4.969   1.253 -1.2339  0.6259 -0.0079
 8577TIP3   OH225694   0.141   4.019   3.129  0.5329 -0.5903 -0.5011
 8577TIP3    H125695   0.210   3.977   3.077  1.0273  0.2234 -0.5318
 8577TIP3    H225696   0.160   3.993   3.219  1.8282  0.8452 -0.3188
 8578TIP3   OH225697   6.970   1.135   4.020 -0.1890  0.3561 -0.0020
 8578TIP3    H125698   7.004   1.212   3.975  1.6264 -1.2766 -1.6431
 8578TIP3    H225699   6.894   1.108   3.969  1.7890 -1.4157 -2.2425
 8579TIP3   OH225700   4.917   1.501   5.214 -0.4806  0.5329 -0.2599
 8579TIP3    H125701   4.843   1.519   5.271 -0.4850  0.0941 -0.1255
 8579TIP3    H225702   4.987   1.557   5.247 -1.1173  1.9147 -1.1794
 8580TIP3   OH225703   3.488   4.789   1.521  0.4337  0.1556  0.6509
 8580TIP3    H125704   3.551   4.716   1.517  1.3195  0.9361 -0.4078
 8580TIP3    H225705   3.403   4.749   1.504  1.1142 -0.4210 -1.6622
 8581TIP3   OH225706   1.149   5.500   4.891 -0.4871 -0.2721  0.2329
 8581TIP3    H125707   1.150   5.428   4.953 -2.2718 -0.1635  0.4293
 8581TIP3    H225708   1.087   5.563   4.928  0.5267  1.0789 -0.2689
 8582TIP3   OH225709   2.450   5.282   4.132  0.1265  0.0298 -0.2532
 8582TIP3    H125710   2.514   5.351   4.145  0.5380  0.2377 -2.8946
 8582TIP3    H225711   2.501   5.201   4.135 -0.0277 -0.0422  0.7757
 8583TIP3   OH225712   5.552   3.360   1.894  0.5505  0.1628  0.5278
 8583TIP3    H125713   5.520   3.291   1.837  3.7957 -0.5616 -0.5915
 8583TIP3    H225714   5.571   3.316   1.977  0.8727  0.0927  0.4174
 8584TIP3   OH225715   6.422   6.764   5.311 -0.3442 -0.2939  0.5864
 8584TIP3    H125716   6.470   6.707   5.371 -0.7202  0.6175  1.8085
 8584TIP3    H225717   6.486   6.829   5.283 -0.1932 -0.6635  0.0628
 8585TIP3   OH225718   7.061   2.934   4.585  0.3978 -0.2491  0.4150
 8585TIP3    H125719   7.003   2.858   4.582 -0.2918  0.2309  1.2014
 8585TIP3    H225720   7.094   2.935   4.675 -0.2893  0.8747  0.6734
 8586TIP3   OH225721   2.284   1.559   2.459  0.0126 -0.5225 -0.0220
 8586TIP3    H125722   2.262   1.612   2.382  0.3514  0.8569  0.7913
 8586TIP3    H225723   2.199   1.543   2.501  0.0189  0.5511  0.4420
 8587TIP3   OH225724   6.094   6.007   1.733 -0.7075  0.3137  0.3311
 8587TIP3    H125725   6.053   6.087   1.700 -0.4922 -0.0166 -0.7952
 8587TIP3    H225726   6.135   5.968   1.656  0.3302 -0.2045  1.1230
 8588TIP3   OH225727   2.206   0.051   2.371  1.2630  0.2451 -0.0280
 8588TIP3    H125728   2.187   0.022   2.460 -0.5983 -1.2978 -0.8700
 8588TIP3    H225729   2.302   0.050   2.365  1.3810 -1.4207  1.3937
 8589TIP3   OH225730   2.222   6.456   1.000  0.6358 -0.2351  0.0095
 8589TIP3    H125731   2.149   6.517   1.008 -0.1221 -1.0425 -0.5403
 8589TIP3    H225732   2.294   6.509   0.966  0.0360  0.3745 -0.3315
 8590TIP3   OH225733   5.541   2.517   5.786 -0.2191 -0.3479  0.0629
 8590TIP3    H125734   5.581   2.524   5.873  0.9555  1.8070 -0.5758
 8590TIP3    H225735   5.497   2.601   5.773  0.3375 -0.2992 -1.7562
 8591TIP3   OH225736   2.694   2.083   4.847 -0.1680  0.2525  0.2476
 8591TIP3    H125737   2.698   1.992   4.879 -0.6465 -0.2489 -1.0738
 8591TIP3    H225738   2.707   2.136   4.926  0.6849 -0.9598  0.9602
 8592TIP3   OH225739   5.802   0.983   2.917 -0.4410 -0.2274  0.4484
 8592TIP3    H125740   5.757   0.915   2.967 -0.8540 -0.1567  0.1815
 8592TIP3    H225741   5.805   0.949   2.828 -0.4299 -0.0047  0.3632
 8593TIP3   OH225742   4.142   2.584   4.591 -0.3294  0.6026 -0.2698
 8593TIP3    H125743   4.137   2.595   4.496  0.6866 -0.0483 -0.4265
 8593TIP3    H225744   4.192   2.503   4.602  0.4230  1.1951  0.8214
 8594TIP3   OH225745   0.566   5.139   3.721  0.1594  0.0383 -0.1703
 8594TIP3    H125746   0.546   5.173   3.808 -0.0061 -0.1112 -0.1486
 8594TIP3    H225747   0.595   5.215   3.671  1.2416 -0.0498  0.3030
 8595TIP3   OH225748   2.671   0.166   0.891  0.2497  0.4393  0.3394
 8595TIP3    H125749   2.605   0.122   0.837  0.4174  1.2337 -0.5543
 8595TIP3    H225750   2.646   0.258   0.887  2.0702  0.9423 -1.0430
 8596TIP3   OH225751   3.852   0.500   4.301  0.1265  0.5499 -0.3453
 8596TIP3    H125752   3.856   0.439   4.375 -1.6155  0.4026 -0.3516
 8596TIP3    H225753   3.896   0.579   4.333  3.3114 -0.9479 -0.6524
 8597TIP3   OH225754   7.004   1.373   0.909 -0.0227  0.1702  0.0618
 8597TIP3    H125755   6.960   1.309   0.852  1.3738 -2.6500  1.8909
 8597TIP3    H225756   7.089   1.388   0.867 -0.0352  0.1915  0.0441
 8598TIP3   OH225757   6.120   5.488   4.195  0.9221 -0.2359 -0.4028
 8598TIP3    H125758   6.140   5.580   4.212 -0.7789  0.0353  0.3233
 8598TIP3    H225759   6.041   5.470   4.247  1.7680 -2.3854  0.2648
 8599TIP3   OH225760   6.542   2.377   5.510 -0.0542  0.6148  0.2167
 8599TIP3    H125761   6.636   2.393   5.501  0.0711  0.6022  1.3215
 8599TIP3    H225762   6.519   2.327   5.433  0.8896  0.4712  0.0127
 8600TIP3   OH225763   3.561   3.843   0.771 -0.0509  0.2655  0.4524
 8600TIP3    H125764   3.564   3.925   0.820  1.4381 -0.3680  1.4902
 8600TIP3    H225765   3.616   3.782   0.821 -0.4246 -1.1238 -0.7384
 8601TIP3   OH225766   5.622   2.766   3.932 -0.0931  0.9606  0.0136
 8601TIP3    H125767   5.572   2.817   3.995  0.5419  2.3136 -0.5396
 8601TIP3    H225768   5.669   2.831   3.879  0.3346 -0.1725 -1.0683
 8602TIP3   OH225769   1.647   1.048   4.003 -0.1915 -0.3676 -0.2391
 8602TIP3    H125770   1.654   0.954   4.017  1.8255 -0.2136  0.0515
 8602TIP3    H225771   1.638   1.058   3.908  1.6557 -0.8227 -0.5099
 8603TIP3   OH225772   0.641   5.560   3.451  0.2462 -0.0221  0.1830
 8603TIP3    H125773   0.686   5.513   3.381  1.7015  0.8580  0.4882
 8603TIP3    H225774   0.643   5.499   3.525  0.5753 -0.1515  0.0705
 8604TIP3   OH225775   3.313   0.207   3.981  0.3377 -0.0608  0.2135
 8604TIP3    H125776   3.225   0.171   3.969  0.3194 -0.3217  1.0232
 8604TIP3    H225777   3.314   0.235   4.073  0.7560  0.8904 -0.0748
 8605TIP3   OH225778   5.373   6.720   4.140  0.0651 -0.3648 -0.5456
 8605TIP3    H125779   5.338   6.787   4.198 -0.2352 -1.4500  0.5639
 8605TIP3    H225780   5.301   6.658   4.128 -0.1077  0.1837 -2.6576
 8606TIP3   OH225781   6.229   3.976   3.607  0.2581  0.1608  1.1754
 8606TIP3    H125782   6.197   3.896   3.650  0.5174 -0.0171  1.0404
 8606TIP3    H225783   6.150   4.022   3.580  0.1129 -0.2700  0.8565
 8607TIP3   OH225784   6.155   2.491   4.565  0.1327 -0.3844 -0.0704
 8607TIP3    H125785   6.242   2.484   4.525  0.9632  0.1845  1.5647
 8607TIP3    H225786   6.141   2.406   4.607  1.1001  0.3953  1.9358
 8608TIP3   OH225787   5.864   5.080   5.241  0.6535  0.4600 -0.6416
 8608TIP3    H125788   5.799   5.028   5.196 -0.1186  0.4745  0.4128
 8608TIP3    H225789   5.891   5.147   5.177 -0.0247  0.1722 -1.2316
 8609TIP3   OH225790   0.154   2.226   3.570  0.5942 -0.0989 -0.2441
 8609TIP3    H125791   0.166   2.257   3.659 -1.6493 -2.9970  1.2332
 8609TIP3    H225792   0.090   2.286   3.532  0.8079  0.5675  0.4218
 8610TIP3   OH225793   5.679   3.209   2.133  0.0644  0.0037 -0.2315
 8610TIP3    H125794   5.637   3.227   2.217 -0.7465 -1.2284 -0.3377
 8610TIP3    H225795   5.648   3.122   2.109  1.1175 -0.1075 -1.3094
 8611TIP3   OH225796   5.415   2.261   5.000 -0.7979  0.4571 -0.7305
 8611TIP3    H125797   5.421   2.353   4.973  0.4744 -0.0154 -2.1528
 8611TIP3    H225798   5.321   2.242   4.998 -0.9927  1.4186 -1.5291
 8612TIP3   OH225799   6.194   6.109   1.011 -0.3432 -0.3892 -0.7088
 8612TIP3    H125800   6.229   6.020   1.006 -0.6633 -0.5994  0.4458
 8612TIP3    H225801   6.099   6.098   1.016 -0.4287  0.0532 -1.2387
 8613TIP3   OH225802   0.599   3.263   3.526  0.3705  0.1010 -0.3629
 8613TIP3    H125803   0.563   3.195   3.583 -0.7140 -0.1168 -1.2575
 8613TIP3    H225804   0.537   3.335   3.532  1.0326  0.6549 -0.1267
 8614TIP3   OH225805   4.486   0.896   3.710  0.0557  0.4436  0.0255
 8614TIP3    H125806   4.505   0.990   3.705 -0.7128  0.5639 -0.8624
 8614TIP3    H225807   4.408   0.891   3.766  0.2005  0.3102  0.2177
 8615TIP3   OH225808   3.175   4.643   1.827  0.3641  0.3731 -0.5770
 8615TIP3    H125809   3.270   4.641   1.834  0.4238  2.3288 -0.0515
 8615TIP3    H225810   3.155   4.734   1.803 -1.3410 -0.1464 -1.2808
 8616TIP3   OH225811   0.440   3.502   3.532  0.7230  0.0195 -0.2700
 8616TIP3    H125812   0.402   3.581   3.492 -1.9802 -1.7903 -1.5942
 8616TIP3    H225813   0.412   3.506   3.623 -3.8814 -1.6389 -1.3440
 8617TIP3   OH225814   2.460   2.115   5.396 -0.2851 -0.0708 -0.0053
 8617TIP3    H125815   2.544   2.071   5.408 -0.4656 -1.4588 -2.9479
 8617TIP3    H225816   2.412   2.059   5.336 -4.0760 -0.1742  2.7738
 8618TIP3   OH225817   2.253   5.406   0.999  0.5836 -0.0987  0.0737
 8618TIP3    H125818   2.318   5.350   0.956 -0.0297 -0.1887 -0.7595
 8618TIP3    H225819   2.183   5.346   1.024  0.5423  0.0897  0.4091
 8619TIP3   OH225820   2.161   1.416   1.222 -0.6625 -0.0318 -0.4138
 8619TIP3    H125821   2.208   1.470   1.159 -1.2375  1.6853  0.5655
 8619TIP3    H225822   2.086   1.382   1.174 -0.4154  0.2158 -0.9805
 8620TIP3   OH225823   5.878   1.865   4.897  0.1157  0.5389 -0.2399
 8620TIP3    H125824   5.814   1.915   4.948  1.0288  1.2470  0.2575
 8620TIP3    H225825   5.950   1.849   4.958  0.1406 -0.8236 -0.5937
 8621TIP3   OH225826   4.085   2.193   0.669 -0.1716 -0.1672 -0.7402
 8621TIP3    H125827   3.992   2.178   0.655 -0.1978 -2.1530  1.1030
 8621TIP3    H225828   4.114   2.118   0.721  2.2155  0.9795 -0.2812
 8622TIP3   OH225829   4.836   1.241   4.381  0.3376  0.0692  0.5635
 8622TIP3    H125830   4.849   1.336   4.386 -2.4476  0.6355 -1.1140
 8622TIP3    H225831   4.862   1.218   4.292 -0.2536 -0.5115  0.5345
 8623TIP3   OH225832   4.622   3.639   4.397  0.2137  0.3701  0.3066
 8623TIP3    H125833   4.712   3.613   4.416  1.4870  1.4098 -3.3384
 8623TIP3    H225834   4.576   3.557   4.377  1.3905  0.0324 -1.2168
 8624TIP3   OH225835   6.456   6.441   0.555  0.2805  0.5806  0.4747
 8624TIP3    H125836   6.483   6.355   0.588  1.0612  0.3378 -0.7333
 8624TIP3    H225837   6.430   6.490   0.633  0.3911 -0.5534  1.2378
 8625TIP3   OH225838   6.151   5.415   1.562  0.1654 -0.7835  0.4477
 8625TIP3    H125839   6.180   5.423   1.471 -0.6519 -0.3561  0.2164
 8625TIP3    H225840   6.229   5.386   1.609  0.9423  0.1832 -0.1872
 8626TIP3   OH225841   1.682   4.021   1.087  1.0898 -0.1600 -0.1956
 8626TIP3    H125842   1.611   3.967   1.121  1.5303 -0.3029  0.5108
 8626TIP3    H225843   1.650   4.053   1.003  0.6857 -1.2470 -0.4748
 8627TIP3   OH225844   0.477   3.543   1.603 -0.1977 -0.2689  0.2644
 8627TIP3    H125845   0.469   3.636   1.581 -0.7287 -0.2278  0.6032
 8627TIP3    H225846   0.387   3.509   1.597 -0.2452 -0.4408  1.5054
 8628TIP3   OH225847   1.652   5.941   4.644  0.0929  0.4339 -0.2852
 8628TIP3    H125848   1.567   5.937   4.601 -0.5934  1.8146  0.8655
 8628TIP3    H225849   1.695   6.017   4.606  0.4437  0.2842 -0.1943
 8629TIP3   OH225850   2.336   1.408   5.009 -0.3244 -0.0564  0.5241
 8629TIP3    H125851   2.333   1.319   5.045  0.7127 -0.4074 -0.2045
 8629TIP3    H225852   2.412   1.448   5.051 -0.5846  0.3785  0.5889
 8630TIP3   OH225853   6.457   1.658   2.331  0.0346  0.1909  0.4329
 8630TIP3    H125854   6.425   1.748   2.341 -1.0210 -0.3190  1.9845
 8630TIP3    H225855   6.525   1.649   2.397 -1.6281 -0.8632  2.1259
 8631TIP3   OH225856   2.448   0.438   0.170 -0.0285  0.4951 -0.3750
 8631TIP3    H125857   2.439   0.528   0.203  0.6787  0.1740  0.7417
 8631TIP3    H225858   2.358   0.406   0.166 -0.2696  1.1606 -0.5362
 8632TIP3   OH225859   5.548   0.787   4.935  0.4933 -0.2216  0.2092
 8632TIP3    H125860   5.546   0.706   4.884  2.0602 -0.5056  0.5501
 8632TIP3    H225861   5.472   0.836   4.904  0.3263 -1.1968 -1.0394
 8633TIP3   OH225862   6.247   3.881   1.747  0.5285 -0.1756 -0.1969
 8633TIP3    H125863   6.207   3.967   1.763  1.7868  0.0817  1.8182
 8633TIP3    H225864   6.340   3.894   1.762  0.7008 -1.9912  0.6095
 8634TIP3   OH225865   5.148   3.027   3.044  0.0757 -0.6999 -0.0293
 8634TIP3    H125866   5.209   2.952   3.040  1.3514  0.3489 -1.3360
 8634TIP3    H225867   5.180   3.079   3.117  0.6221 -0.2679 -0.5695
 8635TIP3   OH225868   3.182   0.849   1.106 -0.4674  0.0137 -0.3615
 8635TIP3    H125869   3.153   0.931   1.067 -2.6688 -0.4419  0.1572
 8635TIP3    H225870   3.171   0.862   1.201  1.7090  0.0014 -0.0698
 8636TIP3   OH225871   6.315   5.786   1.816  0.5516 -0.3473 -0.2113
 8636TIP3    H125872   6.385   5.720   1.811 -0.2253 -1.1239 -1.3907
 8636TIP3    H225873   6.235   5.737   1.796 -0.2375  0.6768  0.3636
 8637TIP3   OH225874   6.365   4.453   3.446  0.2034 -0.3388  0.2706
 8637TIP3    H125875   6.284   4.405   3.432 -0.6715  1.1162  0.0530
 8637TIP3    H225876   6.408   4.408   3.519 -0.5593 -1.4124  0.0759
 8638TIP3   OH225877   0.853   2.000   0.984  0.3196  0.1604  0.0383
 8638TIP3    H125878   0.878   1.980   0.893  1.3698 -0.4186  0.4333
 8638TIP3    H225879   0.924   2.055   1.017  1.0481 -1.3521  1.1301
 8639TIP3   OH225880   3.833   3.481   4.289  0.5026  0.5070  0.5824
 8639TIP3    H125881   3.895   3.454   4.220  1.6817 -0.2721  1.8964
 8639TIP3    H225882   3.833   3.577   4.283  0.3862  0.4534 -0.6546
 8640TIP3   OH225883   6.147   0.396   3.291 -0.2261 -0.0048 -0.2829
 8640TIP3    H125884   6.205   0.375   3.218  1.2837  0.9691  0.5877
 8640TIP3    H225885   6.205   0.429   3.359 -1.5337 -1.3055  1.5637
 8641TIP3   OH225886   5.772   0.333   4.457  0.3597  0.6721  0.7977
 8641TIP3    H125887   5.803   0.247   4.483 -0.1317  0.6795  1.4486
 8641TIP3    H225888   5.679   0.333   4.480  0.0552  0.9166 -0.3930
 8642TIP3   OH225889   2.815   2.253   3.759  0.3763  0.7180  0.0696
 8642TIP3    H125890   2.749   2.281   3.695 -2.2148  0.4189  2.3866
 8642TIP3    H225891   2.784   2.168   3.790  2.5083  0.0399  0.5183
 8643TIP3   OH225892   6.809   0.202   4.914  0.2228  0.6239 -0.6197
 8643TIP3    H125893   6.846   0.253   4.841 -0.0181 -0.5688 -1.6046
 8643TIP3    H225894   6.774   0.123   4.873  0.8245 -0.4823  0.8905
 8644TIP3   OH225895   3.058   4.837   3.690  0.0085 -0.5172 -0.8176
 8644TIP3    H125896   3.044   4.931   3.682  0.3993 -0.3189  0.5713
 8644TIP3    H225897   2.974   4.798   3.664 -1.1701  0.3737  1.3973
 8645TIP3   OH225898   6.805   4.191   1.893 -0.4272 -0.1783 -0.0529
 8645TIP3    H125899   6.798   4.189   1.989 -0.4737  1.1897 -0.0055
 8645TIP3    H225900   6.755   4.115   1.864 -1.6418  0.1969  0.9539
 8646TIP3   OH225901   1.029   1.873   4.229  0.2161  0.3206  0.2401
 8646TIP3    H125902   1.009   1.945   4.169 -0.8709  1.0577  1.4566
 8646TIP3    H225903   1.068   1.806   4.172  1.3412  1.8732 -0.8980
 8647TIP3   OH225904   6.287   4.786   3.335 -0.0556  0.3369  0.2675
 8647TIP3    H125905   6.200   4.757   3.362 -2.1174  3.5397 -2.1300
 8647TIP3    H225906   6.302   4.744   3.251 -0.5969  1.8094 -0.6070
 8648TIP3   OH225907   5.031   1.532   5.824  0.6876  0.2440  0.1410
 8648TIP3    H125908   5.069   1.446   5.838  0.7952  0.1701 -0.6031
 8648TIP3    H225909   5.075   1.566   5.746 -0.7815  0.1410 -0.7637
 8649TIP3   OH225910   1.371   2.687   3.388 -0.6949 -0.5307 -0.2684
 8649TIP3    H125911   1.320   2.643   3.319 -0.5333 -2.8345  0.9939
 8649TIP3    H225912   1.311   2.693   3.462  0.2755 -1.6672  0.6552
 8650TIP3   OH225913   7.089   1.144   1.868  0.4426 -0.0470 -0.1547
 8650TIP3    H125914   7.086   1.191   1.784  0.4507 -0.0912 -0.1799
 8650TIP3    H225915   7.015   1.082   1.863  1.4031 -1.1800 -0.8010
 8651TIP3   OH225916   5.565   0.168   5.488 -0.2847 -0.5382  0.1598
 8651TIP3    H125917   5.610   0.144   5.569 -2.2761 -0.6861  1.3074
 8651TIP3    H225918   5.496   0.228   5.516 -0.6705 -0.1343 -1.5301
 8652TIP3   OH225919   2.126   6.798   2.449  0.0721 -0.1255 -0.3468
 8652TIP3    H125920   2.178   6.724   2.481 -0.2233 -0.0651  0.2941
 8652TIP3    H225921   2.104   6.847   2.528  0.7701  0.9838 -0.8214
 8653TIP3   OH225922   3.448   1.311   3.428 -0.1075  0.2617  0.2205
 8653TIP3    H125923   3.443   1.221   3.397  0.5639 -0.8648  3.0400
 8653TIP3    H225924   3.363   1.327   3.470  0.1429  0.5802  0.6140
 8654TIP3   OH225925   3.992   1.921   2.967  0.3925  0.1944  0.1811
 8654TIP3    H125926   3.948   1.845   2.927  0.5003  0.4330 -0.3976
 8654TIP3    H225927   3.999   1.984   2.896  2.0904 -0.0123  0.1374
 8655TIP3   OH225928   2.693   4.942   2.199 -0.6285 -0.9638  0.5232
 8655TIP3    H125929   2.669   5.035   2.199  0.5516 -0.6290 -0.4853
 8655TIP3    H225930   2.764   4.936   2.263  1.2704 -0.5752 -1.4661
 8656TIP3   OH225931   6.840   3.674   3.977  0.7162 -0.7397 -0.3247
 8656TIP3    H125932   6.855   3.765   3.950  1.4840 -1.1618 -1.3638
 8656TIP3    H225933   6.793   3.635   3.904  1.5518 -1.5250 -0.4568
 8657TIP3   OH225934   4.250   3.092   1.373  0.2909  0.1418  0.1098
 8657TIP3    H125935   4.298   3.011   1.393  0.6585  0.3111 -0.0562
 8657TIP3    H225936   4.208   3.116   1.455  1.2525  0.4876  0.5232
 8658TIP3   OH225937   3.810   6.496   3.489 -0.1404  0.0735  0.3112
 8658TIP3    H125938   3.822   6.574   3.436 -1.9832  0.2730  0.1223
 8658TIP3    H225939   3.824   6.423   3.428  2.2708  0.1774  0.6438
 8659TIP3   OH225940   4.231   1.584   4.048  0.1477 -0.3689  0.3393
 8659TIP3    H125941   4.325   1.577   4.030  0.3862  2.8488 -0.2748
 8659TIP3    H225942   4.208   1.672   4.019 -3.0347 -0.9621  0.7543
 8660TIP3   OH225943   4.450   1.609   2.829  0.1737  0.1856 -0.1117
 8660TIP3    H125944   4.451   1.650   2.916 -1.6631  0.1076 -0.0081
 8660TIP3    H225945   4.375   1.649   2.785 -0.4428 -1.5833 -0.7527
 8661TIP3   OH225946   5.552   2.449   3.441 -0.3136  0.1534 -0.0931
 8661TIP3    H125947   5.568   2.507   3.516 -0.1031 -0.8033  0.6220
 8661TIP3    H225948   5.457   2.445   3.433 -0.3401  0.1917  0.1878
 8662TIP3   OH225949   0.793   5.898   4.265 -1.0111 -0.6723  0.3886
 8662TIP3    H125950   0.835   5.945   4.193  1.2085 -1.6598  0.9513
 8662TIP3    H225951   0.714   5.860   4.227 -2.0015  2.0067 -0.5050
 8663TIP3   OH225952   5.805   3.680   4.574 -0.3028  0.3350  0.5862
 8663TIP3    H125953   5.898   3.682   4.600  0.2404  1.9926 -1.2078
 8663TIP3    H225954   5.766   3.753   4.621 -0.1590  1.0266 -0.3396
 8664TIP3   OH225955   5.343   6.661   3.025  0.2857 -0.5632  0.1352
 8664TIP3    H125956   5.386   6.582   2.992  0.3980 -0.5546  0.2608
 8664TIP3    H225957   5.410   6.706   3.076  0.4302 -0.0352 -0.5049
 8665TIP3   OH225958   3.185   1.180   0.180  0.0395 -0.4014 -0.0645
 8665TIP3    H125959   3.124   1.164   0.253 -0.6034  0.3763 -0.4274
 8665TIP3    H225960   3.245   1.106   0.184  0.1816 -0.2470  1.4303
 8666TIP3   OH225961   2.073   1.777   4.514  0.2024 -0.1115  0.0787
 8666TIP3    H125962   2.104   1.866   4.529  0.9678 -0.4533  0.6422
 8666TIP3    H225963   2.006   1.763   4.581  0.1134  0.0253  0.0184
 8667TIP3   OH225964   0.427   5.492   3.242 -0.1308  0.1248 -0.0248
 8667TIP3    H125965   0.511   5.537   3.255 -0.5777  1.0906 -0.4085
 8667TIP3    H225966   0.420   5.434   3.318  1.5559 -1.0479 -0.7213
 8668TIP3   OH225967   3.802   2.464   0.290  0.4025  0.2551  0.3867
 8668TIP3    H125968   3.881   2.501   0.251  0.0558 -0.4606 -1.0578
 8668TIP3    H225969   3.826   2.446   0.381  2.0733 -0.4336 -0.1599
 8669TIP3   OH225970   5.298   6.111   5.255  0.3524  0.3247 -0.3564
 8669TIP3    H125971   5.390   6.136   5.265 -0.0764  1.5490  1.1140
 8669TIP3    H225972   5.268   6.097   5.345 -0.6290 -1.1370 -0.8869
 8670TIP3   OH225973   6.701   1.914   4.026 -0.3608 -0.3979 -0.4189
 8670TIP3    H125974   6.671   1.861   3.953 -1.6586 -0.9161  0.4499
 8670TIP3    H225975   6.719   1.850   4.096 -0.5364  0.1975  0.1766
 8671TIP3   OH225976   2.599   4.623   1.143 -0.2907  0.3229 -0.2849
 8671TIP3    H125977   2.615   4.594   1.054  0.1879 -2.8865  0.7038
 8671TIP3    H225978   2.527   4.567   1.174 -0.1473  1.0378  1.4696
 8672TIP3   OH225979   6.854   6.755   1.927  0.2868  0.7405  0.1893
 8672TIP3    H125980   6.782   6.695   1.908  1.0631 -0.1736  0.0826
 8672TIP3    H225981   6.827   6.838   1.886 -1.0226  0.6292  0.7823
 8673TIP3   OH225982   1.225   2.197   3.680 -0.1770 -0.2417  0.3270
 8673TIP3    H125983   1.272   2.271   3.642 -1.1506  0.5373  0.6129
 8673TIP3    H225984   1.205   2.224   3.769 -1.3823 -0.4389  0.1360
 8674TIP3   OH225985   6.334   5.299   4.638 -0.1481  0.5847  0.5909
 8674TIP3    H125986   6.263   5.247   4.675 -0.4263  1.7740  1.8000
 8674TIP3    H225987   6.400   5.302   4.707  0.3893  0.8289  0.0786
 8675TIP3   OH225988   3.349   5.030   3.812 -0.3631 -0.1739  0.1414
 8675TIP3    H125989   3.333   4.941   3.843  2.7391 -1.1618 -0.7333
 8675TIP3    H225990   3.328   5.027   3.718  0.0552 -0.0778  0.0422
 8676TIP3   OH225991   6.827   2.429   5.442  0.4394  0.3913  0.2183
 8676TIP3    H125992   6.854   2.505   5.493  1.5883 -0.1349  0.4115
 8676TIP3    H225993   6.908   2.394   5.405  0.4000 -2.3437  2.3497
 8677TIP3   OH225994   0.040   1.190   3.132 -0.4347  0.1597 -0.1217
 8677TIP3    H125995   0.132   1.193   3.108 -0.0966 -1.4033  0.8558
 8677TIP3    H225996   0.037   1.225   3.221 -1.1185  2.1596 -0.8643
 8678TIP3   OH225997   6.822   1.910   2.618 -0.3342  0.3867 -0.0240
 8678TIP3    H125998   6.878   1.974   2.574 -0.1635  1.0139  1.0671
 8678TIP3    H225999   6.839   1.828   2.572  1.0436  0.6889 -0.1055
 8679TIP3   OH226000   5.744   0.085   4.030  0.1548  0.1202 -0.5318
 8679TIP3    H126001   5.732   0.166   4.079  0.4765 -0.0588 -0.1420
 8679TIP3    H226002   5.832   0.092   3.993  0.1142  0.0302 -0.6461
 8680TIP3   OH226003   2.651   6.437   0.704  0.3874  0.4005 -0.0670
 8680TIP3    H126004   2.564   6.403   0.722  2.2077 -2.9718  4.2385
 8680TIP3    H226005   2.685   6.383   0.633  0.0823 -0.7071  0.6051
 8681TIP3   OH226006   3.532   5.790   4.735 -0.3935  0.4878 -0.8566
 8681TIP3    H126007   3.584   5.781   4.815 -0.7752  0.5328 -0.6007
 8681TIP3    H226008   3.459   5.847   4.760 -0.2664  0.8802 -1.3610
 8682TIP3   OH226009   3.890   5.628   4.277 -0.2572 -0.2605 -0.4136
 8682TIP3    H126010   3.933   5.558   4.326 -0.1643 -0.7149 -1.1246
 8682TIP3    H226011   3.933   5.626   4.191 -1.9186 -0.9730 -1.2765
 8683TIP3   OH226012   3.286   0.120   5.282  0.2512 -0.2093 -0.2595
 8683TIP3    H126013   3.237   0.202   5.287  2.3157  1.1416 -0.8048
 8683TIP3    H226014   3.329   0.123   5.197  2.7567 -0.3658  0.9015
 8684TIP3   OH226015   5.458   3.062   3.400 -0.1850  0.4324 -0.1104
 8684TIP3    H126016   5.499   3.149   3.396 -0.3881  0.5263 -0.1822
 8684TIP3    H226017   5.490   3.025   3.482 -1.5030  1.3025  0.8512
 8685TIP3   OH226018   5.174   4.335   4.837  0.1305  0.0019 -0.4634
 8685TIP3    H126019   5.193   4.319   4.745  0.9257  0.1001 -0.3236
 8685TIP3    H226020   5.086   4.371   4.837  1.5437  4.0731 -1.6577
 8686TIP3   OH226021   0.268   6.075   4.869 -0.4353 -0.1739  0.5555
 8686TIP3    H126022   0.289   6.165   4.894 -0.5013  0.0182 -0.0654
 8686TIP3    H226023   0.344   6.023   4.899  0.7856  0.4492 -1.2999
 8687TIP3   OH226024   6.821   6.226   1.879 -0.0307 -0.2537  0.5378
 8687TIP3    H126025   6.874   6.174   1.940 -0.0522 -0.9449 -0.0165
 8687TIP3    H226026   6.760   6.162   1.841 -1.8073  0.6475  1.7440
 8688TIP3   OH226027   2.278   4.778   0.370 -0.1750 -0.4581 -0.2205
 8688TIP3    H126028   2.319   4.832   0.437 -2.3977  0.7616  0.2331
 8688TIP3    H226029   2.332   4.792   0.292  1.5253 -0.6637  0.8553
 8689TIP3   OH226030   0.179   3.646   5.681 -0.2198 -0.0886  0.1578
 8689TIP3    H126031   0.101   3.689   5.715 -0.0044 -1.6143  2.8418
 8689TIP3    H226032   0.241   3.644   5.754  0.8831 -2.2323 -0.7234
 8690TIP3   OH226033   3.398   4.594   1.144 -0.0116  0.2670 -0.6434
 8690TIP3    H126034   3.463   4.626   1.081  0.0155  1.5737  0.0145
 8690TIP3    H226035   3.320   4.578   1.092  0.0273  1.2718 -1.0321
 8691TIP3   OH226036   5.042   4.999   4.877 -0.0400 -0.2282  0.5871
 8691TIP3    H126037   4.977   5.060   4.911  2.2458  2.0918  1.1216
 8691TIP3    H226038   5.050   4.932   4.945 -1.1996 -0.0744  0.8989
 8692TIP3   OH226039   3.710   3.090   4.616  0.2084  0.0014  0.1906
 8692TIP3    H126040   3.796   3.069   4.652  0.7835 -0.2070 -1.2450
 8692TIP3    H226041   3.653   3.021   4.649  1.5489 -2.6215 -2.4074
 8693TIP3   OH226042   5.604   4.769   5.863  0.2478  0.0056  0.3469
 8693TIP3    H126043   5.653   4.702   5.816  0.6728 -0.5789  1.5643
 8693TIP3    H226044   5.588   4.730   5.949 -0.4316  1.0582  0.7152
 8694TIP3   OH226045   4.321   4.052   4.903  0.3929  0.1253 -0.0239
 8694TIP3    H126046   4.258   4.120   4.928  0.5837  0.3935 -0.2630
 8694TIP3    H226047   4.270   3.971   4.902 -0.2048  0.4971 -1.2737
 8695TIP3   OH226048   0.126   6.468   4.153  0.4005 -0.2036 -0.2612
 8695TIP3    H126049   0.038   6.444   4.183  0.3303 -0.4426 -0.6444
 8695TIP3    H226050   0.174   6.489   4.233 -0.2608  0.8011 -0.1084
 8696TIP3   OH226051   3.634   0.260   5.362  0.0998 -0.3250 -0.6051
 8696TIP3    H126052   3.705   0.296   5.309 -1.2704 -1.4412 -3.4121
 8696TIP3    H226053   3.650   0.165   5.361  0.2915 -0.3543  1.4893
 8697TIP3   OH226054   4.326   4.833   0.544 -0.5120 -0.4040  0.1776
 8697TIP3    H126055   4.294   4.751   0.583  0.0887  0.1019  1.8060
 8697TIP3    H226056   4.254   4.862   0.488 -1.8892 -0.6435  1.7251
 8698TIP3   OH226057   1.356   2.794   5.132 -0.0337  0.4130 -0.0497
 8698TIP3    H126058   1.318   2.745   5.204  0.4698  1.9006  1.2919
 8698TIP3    H226059   1.329   2.884   5.147  2.2330  1.1900 -0.1998
 8699TIP3   OH226060   3.727   4.717   3.914  0.0083 -0.2550 -0.2804
 8699TIP3    H126061   3.731   4.664   3.835 -1.0149  0.4004 -0.8038
 8699TIP3    H226062   3.671   4.667   3.974  0.9859 -0.8671  0.1326
 8700TIP3   OH226063   2.393   0.684   0.403 -0.1284 -0.2116 -0.1869
 8700TIP3    H126064   2.466   0.699   0.343  0.6180 -0.5248  0.6183
 8700TIP3    H226065   2.416   0.604   0.450 -0.3955  0.3401  0.9351
 8701TIP3   OH226066   5.760   1.970   4.511 -0.2886 -0.7818 -0.1345
 8701TIP3    H126067   5.785   2.046   4.459 -0.0380 -0.9658 -0.2884
 8701TIP3    H226068   5.832   1.958   4.573 -0.3158 -0.9048 -0.1255
 8702TIP3   OH226069   2.944   6.506   5.076 -0.0199  0.1780 -0.1525
 8702TIP3    H126070   2.862   6.463   5.099  0.6352 -0.2661  1.4745
 8702TIP3    H226071   2.962   6.476   4.987 -1.0621 -0.5777 -0.1255
 8703TIP3   OH226072   0.159   1.608   0.351 -0.1700 -0.0441 -0.1474
 8703TIP3    H126073   0.202   1.549   0.289 -1.0125  1.1713 -1.9701
 8703TIP3    H226074   0.189   1.578   0.437  1.7520 -1.2475 -1.1568
 8704TIP3   OH226075   3.202   3.693   1.254 -0.6116  0.3906 -0.6003
 8704TIP3    H126076   3.175   3.780   1.224 -0.7892  0.2181 -0.9452
 8704TIP3    H226077   3.125   3.638   1.238 -0.4544  0.1432 -0.5024
 8705TIP3   OH226078   2.084   5.168   1.755  0.0617  0.0681 -0.1986
 8705TIP3    H126079   2.108   5.094   1.700 -0.5873  1.6593 -2.7832
 8705TIP3    H226080   1.988   5.162   1.763  0.0546  0.3862 -0.0218
 8706TIP3   OH226081   1.279   2.221   2.936  0.0407 -0.2707  0.3248
 8706TIP3    H126082   1.216   2.179   2.878  1.2571 -0.6556 -0.7672
 8706TIP3    H226083   1.269   2.315   2.919 -1.2894 -0.1928  1.3162
 8707TIP3   OH226084   0.371   1.899   4.960  0.0405  0.0185 -0.3123
 8707TIP3    H126085   0.390   1.815   5.001  0.2487  0.8318  1.3617
 8707TIP3    H226086   0.327   1.877   4.878  1.6107 -1.7510 -0.7521
 8708TIP3   OH226087   4.589   1.920   1.453  0.8119 -0.7789 -0.0724
 8708TIP3    H126088   4.558   2.010   1.465  1.4524 -0.2808 -1.7511
 8708TIP3    H226089   4.584   1.880   1.540 -1.8175  0.0999  0.2436
 8709TIP3   OH226090   0.152   3.911   0.493 -0.3949  0.0964  0.2730
 8709TIP3    H126091   0.187   3.999   0.477  3.0635 -1.4119 -1.3984
 8709TIP3    H226092   0.089   3.897   0.422 -0.5108  0.9676  0.1870
 8710TIP3   OH226093   5.535   6.636   0.509  0.0340 -0.4796  0.2195
 8710TIP3    H126094   5.478   6.684   0.449 -0.6216 -0.9553  0.4528
 8710TIP3    H226095   5.622   6.674   0.495 -0.0821 -0.6548 -1.0992
 8711TIP3   OH226096   2.339   3.391   2.787 -0.2941  0.3355  0.6620
 8711TIP3    H126097   2.395   3.384   2.710 -0.8081  0.4952  0.2754
 8711TIP3    H226098   2.295   3.475   2.778 -0.7541  0.1206  0.8662
 8712TIP3   OH226099   5.785   4.443   2.815 -0.3033 -0.0944 -0.1685
 8712TIP3    H126100   5.825   4.471   2.733  2.0621 -0.8522  0.6268
 8712TIP3    H226101   5.846   4.377   2.849 -1.0803  0.3738  2.2931
 8713TIP3   OH226102   0.826   6.380   1.901 -0.3042 -0.0845  0.0908
 8713TIP3    H126103   0.915   6.402   1.928 -0.7712  1.8136  0.1856
 8713TIP3    H226104   0.838   6.321   1.826  1.0502  0.8015 -0.4282
 8714TIP3   OH226105   7.099   3.821   3.263 -0.0896  0.1972  0.6064
 8714TIP3    H126106   7.040   3.773   3.321  0.9491 -2.0121 -0.0629
 8714TIP3    H226107   7.051   3.828   3.180 -0.4108  0.7172  0.8323
 8715TIP3   OH226108   5.010   2.873   3.397  0.2334 -0.0955 -0.0367
 8715TIP3    H126109   4.938   2.935   3.405  0.4458  0.0501  0.8009
 8715TIP3    H226110   5.087   2.921   3.428  0.2859 -0.9801  1.2628
 8716TIP3   OH226111   5.691   3.852   1.362 -0.4767  0.1591 -0.5294
 8716TIP3    H126112   5.709   3.805   1.280 -0.2347  0.3745 -0.6002
 8716TIP3    H226113   5.668   3.941   1.334  2.3229  1.0685 -0.2555
 8717TIP3   OH226114   0.896   1.880   2.696  0.3593 -0.6803 -0.2392
 8717TIP3    H126115   0.866   1.839   2.615  0.1173 -0.4684 -0.2563
 8717TIP3    H226116   0.979   1.836   2.715  0.2067 -1.0359 -0.3707
 8718TIP3   OH226117   4.773   3.549   4.068  0.3061 -0.3625  0.2280
 8718TIP3    H126118   4.766   3.456   4.091 -0.9668  0.4100  3.4366
 8718TIP3    H226119   4.685   3.572   4.035 -0.0355  0.1335  1.4413
 8719TIP3   OH226120   0.749   0.765   2.956 -0.4095 -0.0670 -0.2705
 8719TIP3    H126121   0.835   0.757   2.914  0.4126 -0.7311  1.4372
 8719TIP3    H226122   0.688   0.724   2.895  0.5026  0.2507 -1.4353
 8720TIP3   OH226123   2.298   0.186   4.198 -0.2748  0.2980  0.0693
 8720TIP3    H126124   2.347   0.157   4.121  2.1453 -1.1400  1.9706
 8720TIP3    H226125   2.206   0.170   4.176  0.2616  0.5515 -2.6991
 8721TIP3   OH226126   3.194   0.180   2.932 -0.4349  0.3074 -0.1986
 8721TIP3    H126127   3.190   0.231   3.013  1.4053 -1.3561  1.0725
 8721TIP3    H226128   3.106   0.145   2.921 -0.9056  1.1735  0.6661
 8722TIP3   OH226129  -0.012   6.134   3.588 -0.4701  0.1655 -0.4066
 8722TIP3    H126130   0.070   6.183   3.600 -0.4775  0.1440 -0.2605
 8722TIP3    H226131   0.016   6.048   3.556 -0.4947  0.4657 -1.2691
 8723TIP3   OH226132   3.288   2.697   0.986  0.1176 -0.2393 -0.5503
 8723TIP3    H126133   3.194   2.680   0.983  0.2196 -0.7560 -1.1076
 8723TIP3    H226134   3.312   2.684   1.077 -0.5596  1.1145 -0.1534
 8724TIP3   OH226135   2.606   4.487   2.092  0.8814  0.5426  0.3267
 8724TIP3    H126136   2.552   4.566   2.090  0.9889  0.6096 -0.3470
 8724TIP3    H226137   2.672   4.503   2.024  0.8675 -0.1519  0.1519
 8725TIP3   OH226138   5.005   2.579   1.802  0.2156 -0.0343  0.8042
 8725TIP3    H126139   5.023   2.673   1.809  0.3147 -0.0974  1.4813
 8725TIP3    H226140   5.091   2.537   1.809  0.1055 -0.2025  1.2112
 8726TIP3   OH226141   2.851   2.554   5.764  0.6037 -0.1262 -0.0336
 8726TIP3    H126142   2.770   2.593   5.797  0.8263 -0.9946  1.6330
 8726TIP3    H226143   2.906   2.544   5.841  1.8792 -0.5945 -0.9681
 8727TIP3   OH226144   2.134   2.487   0.101 -1.2082 -0.0555  0.5062
 8727TIP3    H126145   2.040   2.502   0.109 -1.3329 -0.2571 -0.4900
 8727TIP3    H226146   2.148   2.401   0.142 -1.3589  0.2244  1.1624
 8728TIP3   OH226147   1.102   6.732   3.073 -0.0303  0.1070 -0.0088
 8728TIP3    H126148   1.123   6.765   3.160 -0.5602 -0.4456  0.3455
 8728TIP3    H226149   1.122   6.803   3.013  1.5614  0.0504  0.4319
 8729TIP3   OH226150   0.387   4.604   3.028 -0.1295 -0.0018 -0.4821
 8729TIP3    H126151   0.326   4.577   3.097 -2.8002  2.4343 -1.6915
 8729TIP3    H226152   0.338   4.590   2.947  1.8861 -0.1957 -1.7088
 8730TIP3   OH226153   4.554   5.936   2.656  0.0034  0.1631  0.6088
 8730TIP3    H126154   4.481   5.964   2.601  0.3359  0.3963  0.2848
 8730TIP3    H226155   4.587   5.856   2.614 -0.3648 -0.2093  1.0207
 8731TIP3   OH226156   6.106   0.114   0.906  0.2139  0.0668  0.1718
 8731TIP3    H126157   6.181   0.122   0.965 -0.4167  1.3739  0.8322
 8731TIP3    H226158   6.136   0.154   0.824  0.4867 -0.0970  0.1895
 8732TIP3   OH226159   7.019   4.917   1.705 -0.7594 -0.1563 -0.3282
 8732TIP3    H126160   7.090   4.962   1.752 -0.8022 -0.0436 -0.3738
 8732TIP3    H226161   7.021   4.953   1.617 -2.8071  2.0648  0.4399
 8733TIP3   OH226162   1.303   1.843   4.634  0.3901  0.5482 -0.1890
 8733TIP3    H126163   1.292   1.759   4.590 -1.3179  0.9087 -0.4884
 8733TIP3    H226164   1.398   1.858   4.633  0.5857 -0.5670 -1.6377
 8734TIP3   OH226165   5.853   5.592   3.937  0.1659  0.5433 -0.1157
 8734TIP3    H126166   5.803   5.513   3.957  0.2975  0.5536  0.2641
 8734TIP3    H226167   5.795   5.664   3.961 -0.5445  0.6081 -1.8447
 8735TIP3   OH226168   2.550   1.175   3.410 -0.0578 -0.1018  0.6707
 8735TIP3    H126169   2.527   1.208   3.497  1.1617  1.0186  0.6050
 8735TIP3    H226170   2.643   1.156   3.415 -0.0447 -0.3671 -0.2956
 8736TIP3   OH226171   0.768   2.927   5.549  0.5939  0.3893  0.0758
 8736TIP3    H126172   0.854   2.960   5.521  0.7038  0.3143  0.3257
 8736TIP3    H226173   0.769   2.935   5.644  0.4554  0.0592  0.1060
 8737TIP3   OH226174   6.461   4.828   0.747  0.0733  0.1330 -0.5401
 8737TIP3    H126175   6.393   4.895   0.756 -0.8504 -0.7817 -0.5625
 8737TIP3    H226176   6.502   4.824   0.833 -0.9166 -0.3604 -0.0714
 8738TIP3   OH226177   3.989   6.137   0.964 -0.1709 -0.0304 -0.1759
 8738TIP3    H126178   3.897   6.133   0.937  0.0953 -1.4533 -0.9642
 8738TIP3    H226179   3.991   6.094   1.049 -0.2725  0.2963 -0.0047
 8739TIP3   OH226180   5.883   0.681   2.460 -0.0283  0.0478 -0.5932
 8739TIP3    H126181   5.918   0.630   2.387  1.9405  3.7441 -2.5333
 8739TIP3    H226182   5.789   0.661   2.460  0.6050 -3.5824 -0.9922
 8740TIP3   OH226183   5.604   4.854   1.384 -0.5078 -0.4855  0.3700
 8740TIP3    H126184   5.645   4.874   1.300  0.8880  1.1309  1.3605
 8740TIP3    H226185   5.672   4.874   1.449 -2.4271  0.9726  2.0391
 8741TIP3   OH226186   6.007   6.031   0.101  0.0523  0.0674 -0.2884
 8741TIP3    H126187   5.988   6.125   0.095  1.0475  0.3612  0.6998
 8741TIP3    H226188   6.064   6.014   0.025  1.2757  0.6645  0.4589
 8742TIP3   OH226189   2.878   4.922   3.325  0.1474  0.2780  0.0940
 8742TIP3    H126190   2.885   5.011   3.360 -2.2081  0.6640 -0.2265
 8742TIP3    H226191   2.958   4.909   3.274 -0.3028  3.0089 -1.5212
 8743TIP3   OH226192   6.956   1.153   3.530 -0.1189 -0.4770  0.1387
 8743TIP3    H126193   7.022   1.217   3.554 -2.2120  1.6975  0.4504
 8743TIP3    H226194   7.006   1.079   3.496  2.4404  1.3729 -0.4499
 8744TIP3   OH226195   1.958   2.075   5.714  0.0781  0.3260 -0.1405
 8744TIP3    H126196   2.025   2.091   5.781 -0.2961  0.6045  0.1732
 8744TIP3    H226197   1.875   2.091   5.759 -0.4895 -3.9089  0.7021
 8745TIP3   OH226198   7.102   4.273   0.727  0.9368  0.1792 -0.4696
 8745TIP3    H126199   7.035   4.247   0.664 -0.1395  0.9321  0.3144
 8745TIP3    H226200   7.092   4.368   0.734 -1.2972 -0.1417  3.2427
 8746TIP3   OH226201   0.711   3.937   0.929  0.0358  0.2981  0.1968
 8746TIP3    H126202   0.762   3.859   0.950  1.2736  0.7615 -0.9652
 8746TIP3    H226203   0.726   3.996   1.003 -2.1955 -1.0686  1.9071
 8747TIP3   OH226204   6.604   3.750   0.923 -0.0788 -0.9118 -0.1394
 8747TIP3    H126205   6.613   3.687   0.851  1.3054 -1.2337  0.2923
 8747TIP3    H226206   6.651   3.710   0.996 -0.0870  0.1477  0.4568
 8748TIP3   OH226207   4.058   4.553   3.293 -0.2214  0.1153  0.4743
 8748TIP3    H126208   4.007   4.472   3.285  0.7704 -0.4611 -0.4297
 8748TIP3    H226209   4.009   4.607   3.354 -0.8877 -1.1985  1.1471
 8749TIP3   OH226210   6.048   3.594   0.093  0.0639 -0.0074  0.8257
 8749TIP3    H126211   6.105   3.611   0.019 -0.0031 -0.7785  0.5830
 8749TIP3    H226212   6.002   3.676   0.109  1.9297  0.9408  1.6399
 8750TIP3   OH226213   2.521   0.955   4.257  0.0546 -0.1651  0.1580
 8750TIP3    H126214   2.583   1.012   4.302  0.6017 -0.5457 -0.0962
 8750TIP3    H226215   2.573   0.878   4.232 -1.1468 -1.8831  2.5475
 8751TIP3   OH226216   1.352   1.373   3.237  0.0492  0.6803 -0.0810
 8751TIP3    H126217   1.391   1.339   3.317 -0.6765  0.1210  0.0424
 8751TIP3    H226218   1.320   1.460   3.261 -1.7738 -0.1689  0.7686
 8752TIP3   OH226219   3.215   4.293   4.127 -0.3732 -0.0012 -0.0427
 8752TIP3    H126220   3.234   4.235   4.053 -1.2733  0.3479 -0.5610
 8752TIP3    H226221   3.132   4.260   4.162 -2.1435  2.3048 -1.7672
 8753TIP3   OH226222   0.053   2.551   2.257 -0.1610  0.0211  0.1232
 8753TIP3    H126223   0.008   2.510   2.182 -0.9858  0.5064  0.3454
 8753TIP3    H226224   0.119   2.608   2.217  0.6493 -1.1136 -0.1970
 8754TIP3   OH226225   3.918   0.251   4.797 -0.0471  0.0623 -0.1975
 8754TIP3    H126226   3.923   0.230   4.890  0.2567  1.7921  0.2276
 8754TIP3    H226227   3.915   0.167   4.752  0.4483 -0.8071  1.3487
 8755TIP3   OH226228   2.856   2.783   1.483  0.8192 -0.8777 -0.3025
 8755TIP3    H126229   2.882   2.710   1.539  2.4285 -0.9163 -1.0250
 8755TIP3    H226230   2.902   2.767   1.400 -0.3223 -0.0504 -1.1296
 8756TIP3   OH226231   0.119   1.409   3.673 -0.2288 -0.8779 -0.0415
 8756TIP3    H126232   0.067   1.395   3.594 -2.6600 -0.0360  1.2856
 8756TIP3    H226233   0.177   1.481   3.651 -0.1388 -1.3274 -1.3557
 8757TIP3   OH226234   1.408   4.828   2.423  0.0434 -0.4205  0.1792
 8757TIP3    H126235   1.322   4.824   2.381 -0.4996  0.8425  1.0806
 8757TIP3    H226236   1.471   4.816   2.352 -0.8647 -1.4425 -0.4856
 8758TIP3   OH226237   0.661   0.482   1.704 -0.0159  0.2532  0.2844
 8758TIP3    H126238   0.749   0.448   1.719  0.2451  1.5236  1.9136
 8758TIP3    H226239   0.602   0.416   1.740  0.3096 -0.1352  0.1069
 8759TIP3   OH226240   4.234   5.359   3.268 -0.5989  0.1863  0.3077
 8759TIP3    H126241   4.277   5.440   3.239 -0.3546  0.2885  0.9435
 8759TIP3    H226242   4.245   5.359   3.363 -0.8473 -0.4566  0.3382
 8760TIP3   OH226243   0.213   4.110   1.631  0.0495  0.1030  0.0700
 8760TIP3    H126244   0.170   4.052   1.568 -2.0040  1.7319 -0.1412
 8760TIP3    H226245   0.304   4.114   1.601  0.1904 -2.6361 -0.1155
 8761TIP3   OH226246   4.221   4.022   2.898 -0.1224 -0.5793  0.1662
 8761TIP3    H126247   4.282   4.028   2.825  0.3909 -2.3196  0.3945
 8761TIP3    H226248   4.137   3.998   2.858  0.3029 -2.1603  0.1572
 8762TIP3   OH226249   6.737   2.053   1.111 -0.3458 -0.2648  0.0559
 8762TIP3    H126250   6.724   1.995   1.186  1.9568  0.2222  0.9283
 8762TIP3    H226251   6.758   2.138   1.150  2.6135 -0.3972 -1.0319
 8763TIP3   OH226252   3.312   5.142   2.425 -0.0051  0.5322  0.3877
 8763TIP3    H126253   3.331   5.067   2.369 -2.5422 -0.4968  0.7821
 8763TIP3    H226254   3.318   5.218   2.367 -2.2382 -0.4792 -1.2703
 8764TIP3   OH226255   3.905   3.203   1.435 -0.2018 -0.0044 -0.2991
 8764TIP3    H126256   3.979   3.263   1.430 -0.3481  0.1783 -0.2826
 8764TIP3    H226257   3.929   3.141   1.504 -0.7692  1.0209  0.8616
 8765TIP3   OH226258   4.121   0.217   0.113  0.4365  0.2984  0.3254
 8765TIP3    H126259   4.038   0.224   0.160  0.6074 -1.6139  1.0106
 8765TIP3    H226260   4.097   0.188   0.025  0.3620 -0.2974  0.5367
 8766TIP3   OH226261   2.780   6.252   0.540  0.1301 -0.1660  0.7088
 8766TIP3    H126262   2.822   6.236   0.456  0.5442 -0.7636  1.0221
 8766TIP3    H226263   2.749   6.165   0.568 -3.8588  0.5399 -0.8164
 8767TIP3   OH226264   2.150   5.735   0.875  0.2340  0.6041  0.4054
 8767TIP3    H126265   2.190   5.821   0.861 -0.5470  1.3907  2.5818
 8767TIP3    H226266   2.192   5.702   0.954  0.2814 -0.8821 -0.2192
 8768TIP3   OH226267   0.406   3.359   4.315 -0.0558 -0.6802 -0.1879
 8768TIP3    H126268   0.463   3.284   4.333  0.7473  0.1705  0.9871
 8768TIP3    H226269   0.342   3.357   4.386  0.6954  0.4131  0.5423
 8769TIP3   OH226270   5.501   2.057   0.753  0.3652 -0.1988 -0.7763
 8769TIP3    H126271   5.508   1.992   0.823  0.2798  1.1640  0.5576
 8769TIP3    H226272   5.560   2.026   0.685  0.9792 -1.2169  0.1857
 8770TIP3   OH226273   6.349   0.096   1.035 -0.4788  0.3989 -0.6012
 8770TIP3    H126274   6.369   0.036   1.106  0.8173  3.4776  1.8517
 8770TIP3    H226275   6.428   0.096   0.980 -0.1529  0.4538 -0.1337
 8771TIP3   OH226276   3.475   6.218   5.528  0.2489  0.0144  0.1145
 8771TIP3    H126277   3.489   6.285   5.460 -0.0856 -0.7390 -0.7119
 8771TIP3    H226278   3.561   6.208   5.568  0.2113  1.2545  0.5531
 8772TIP3   OH226279   1.325   6.541   2.028 -0.0885 -0.1310  0.6573
 8772TIP3    H126280   1.400   6.593   2.057 -0.7363  0.9072  0.5156
 8772TIP3    H226281   1.260   6.554   2.097 -1.0130  0.9543 -0.3778
 8773TIP3   OH226282   6.546   5.852   0.794 -0.2874 -0.4746  0.3836
 8773TIP3    H126283   6.594   5.899   0.862  0.7757  0.4067 -0.9322
 8773TIP3    H226284   6.524   5.918   0.729 -2.0301 -1.1438  0.2410
 8774TIP3   OH226285   2.050   2.449   5.150 -0.2226  0.1675  0.5545
 8774TIP3    H126286   2.108   2.521   5.127 -1.4143  1.0718  0.3064
 8774TIP3    H226287   2.104   2.391   5.204  1.9977 -0.8898 -2.5172
 8775TIP3   OH226288   6.037   0.980   5.796  0.0317  0.1512  0.5212
 8775TIP3    H126289   6.067   1.064   5.759 -0.9360  0.3032  0.0461
 8775TIP3    H226290   6.081   0.974   5.880  1.8222  0.1031 -0.3695
 8776TIP3   OH226291   5.505   6.279   1.545  0.4088 -0.0139 -0.2307
 8776TIP3    H126292   5.469   6.223   1.613  0.1694 -0.0070 -0.3512
 8776TIP3    H226293   5.505   6.224   1.466 -0.2858  0.3146 -0.4604
 8777TIP3   OH226294   2.534   4.554   1.803  0.2720 -0.1350 -0.4837
 8777TIP3    H126295   2.620   4.523   1.831  0.0993 -0.5805 -0.4509
 8777TIP3    H226296   2.541   4.650   1.808  0.4186 -0.1860  0.5992
 8778TIP3   OH226297   2.796   4.767   5.562 -0.3102 -0.5864 -0.6798
 8778TIP3    H126298   2.864   4.705   5.535  1.0604  0.2627  0.6041
 8778TIP3    H226299   2.782   4.823   5.486  1.5708  0.1507 -0.5446
 8779TIP3   OH226300   4.568   1.775   0.266 -0.0484  0.3358  0.5338
 8779TIP3    H126301   4.481   1.813   0.258 -0.0127  0.4638  0.7351
 8779TIP3    H226302   4.623   1.827   0.207 -0.0474  0.4472  0.6325
 8780TIP3   OH226303   5.051   2.996   5.188 -0.2258 -0.0220  0.1029
 8780TIP3    H126304   4.985   3.065   5.190 -0.6493 -0.2279 -2.9746
 8780TIP3    H226305   5.133   3.042   5.173 -0.6228 -0.1434 -2.8598
 8781TIP3   OH226306   4.303   5.995   2.501 -0.4585 -0.4151  0.0272
 8781TIP3    H126307   4.372   6.050   2.466 -0.2346 -1.4523 -1.2389
 8781TIP3    H226308   4.279   6.036   2.584  1.3192  0.2326  0.2561
 8782TIP3   OH226309   2.109   5.295   5.734 -0.2014 -0.0858 -0.5956
 8782TIP3    H126310   2.032   5.351   5.733  0.6916  1.1775 -1.0339
 8782TIP3    H226311   2.094   5.235   5.807 -1.3307  0.5069 -0.3178
 8783TIP3   OH226312   6.216   4.490   4.085  0.4997  0.2915  0.1351
 8783TIP3    H126313   6.161   4.437   4.142  0.3034  0.7045  0.3382
 8783TIP3    H226314   6.165   4.502   4.005  0.5575  0.1503  0.0766
 8784TIP3   OH226315   3.644   6.486   0.166 -0.2263 -0.1942  0.9329
 8784TIP3    H126316   3.698   6.476   0.087  0.2256 -0.5286  1.2832
 8784TIP3    H226317   3.691   6.550   0.219 -0.3254 -0.2691  1.1121
 8785TIP3   OH226318  -0.030   5.822   3.311  0.3742 -0.6534  0.1937
 8785TIP3    H126319  -0.001   5.913   3.299 -0.3975 -0.5309 -0.9232
 8785TIP3    H226320   0.040   5.769   3.275  0.0549 -0.4278 -0.7837
 8786TIP3   OH226321   2.979   4.014   4.604 -0.0281 -0.5772  0.1320
 8786TIP3    H126322   2.923   3.936   4.608  1.6409 -1.9530 -1.7640
 8786TIP3    H226323   3.054   3.992   4.659 -0.0785  0.1921  0.5247
 8787TIP3   OH226324   2.319   4.382   3.847  0.2136 -0.0824 -0.3671
 8787TIP3    H126325   2.342   4.289   3.854 -1.1313 -0.3269  1.4895
 8787TIP3    H226326   2.294   4.407   3.936  2.2611  2.5699 -0.4014
 8788TIP3   OH226327   0.068   0.033   5.371 -0.9282 -0.1814  0.0166
 8788TIP3    H126328   0.053   0.033   5.276 -0.7131  1.7422 -0.0644
 8788TIP3    H226329   0.151   0.079   5.382 -0.4978 -1.1619  1.1100
 8789TIP3   OH226330   3.040   2.959  -0.002  0.1911  0.2437  0.7208
 8789TIP3    H126331   3.001   2.871  -0.003  1.8480 -0.5299  1.2258
 8789TIP3    H226332   3.083   2.965   0.083 -0.7203  1.9570  1.1144
 8790TIP3   OH226333   2.141   1.448   4.480 -0.0553  0.0495  0.4133
 8790TIP3    H126334   2.094   1.366   4.463 -0.5136  0.5802 -1.0392
 8790TIP3    H226335   2.138   1.495   4.396  1.9273  0.6830  0.6547
 8791TIP3   OH226336   0.542   4.201   0.749  0.0773  0.5952 -0.1514
 8791TIP3    H126337   0.473   4.204   0.682  0.8825  0.0880 -1.0312
 8791TIP3    H226338   0.513   4.133   0.810  1.2126 -1.9209 -2.1963
 8792TIP3   OH226339   6.403   3.022   1.215 -0.5145  0.0703 -0.4898
 8792TIP3    H126340   6.361   2.951   1.264 -0.0478  1.0379  1.4213
 8792TIP3    H226341   6.451   2.978   1.145 -2.3183 -1.2767 -0.9689
 8793TIP3   OH226342   4.421   5.492   1.313 -0.8928 -0.1651 -0.0588
 8793TIP3    H126343   4.361   5.538   1.254 -0.7069  0.6473  0.3694
 8793TIP3    H226344   4.438   5.554   1.384 -0.3597 -0.7707  0.3621
 8794TIP3   OH226345   4.416   2.164  -0.006  0.0564 -0.0010  0.1352
 8794TIP3    H126346   4.385   2.241   0.043 -0.6066 -0.0033 -0.2689
 8794TIP3    H226347   4.350   2.097   0.011  0.4336 -0.3610  0.1742
 8795TIP3   OH226348   5.502   0.926   2.725  0.2775  0.1860 -0.2375
 8795TIP3    H126349   5.515   1.019   2.709 -0.5171  0.3330 -0.0760
 8795TIP3    H226350   5.486   0.920   2.820  1.7260 -0.2909  0.0102
 8796TIP3   OH226351   2.482   0.928   2.166 -0.0447  0.2007  0.3631
 8796TIP3    H126352   2.539   0.861   2.204  1.3351  0.6549 -0.8206
 8796TIP3    H226353   2.535   1.008   2.168 -0.4253  0.5237 -1.2618
 8797TIP3   OH226354   1.874   2.863   0.959  0.7780 -0.1102  0.2833
 8797TIP3    H126355   1.924   2.782   0.965  1.0785  0.0477 -0.0027
 8797TIP3    H226356   1.858   2.873   0.865 -1.5689 -1.2155  0.5079
 8798TIP3   OH226357   1.781   4.853   5.208  0.3489 -0.1792 -0.0401
 8798TIP3    H126358   1.849   4.898   5.257  0.5939 -0.1806 -0.3789
 8798TIP3    H226359   1.703   4.860   5.263  0.5719  0.0017  0.2508
 8799TIP3   OH226360   2.044   0.983   1.790 -0.0371  0.3418  0.1664
 8799TIP3    H126361   2.075   0.925   1.860  0.0648  0.1559 -0.0286
 8799TIP3    H226362   2.104   0.965   1.717 -0.6283 -0.0493 -0.2286
 8800TIP3   OH226363   0.170   1.280   4.960 -0.3299  0.3513  0.0121
 8800TIP3    H126364   0.147   1.187   4.954  0.0827  0.3151 -3.2859
 8800TIP3    H226365   0.266   1.281   4.964 -0.3795  0.6727  2.4043
 8801TIP3   OH226366   2.655   1.187   4.377  0.4967  0.7297 -0.2811
 8801TIP3    H126367   2.651   1.170   4.472 -1.0863 -0.7110 -0.5551
 8801TIP3    H226368   2.676   1.280   4.370  1.4516  0.6951  1.4617
 8802TIP3   OH226369   4.790   1.594   4.708 -0.1908  0.6874  0.4223
 8802TIP3    H126370   4.809   1.572   4.800  1.3800  0.6311  0.1055
 8802TIP3    H226371   4.725   1.665   4.714 -2.5327 -1.3728  1.5079
 8803TIP3   OH226372   1.303   0.111   5.383 -0.2968 -0.0971 -0.6346
 8803TIP3    H126373   1.359   0.047   5.427 -0.7408 -0.7906 -1.0519
 8803TIP3    H226374   1.364   0.177   5.349  0.0631  0.3808  0.8726
 8804TIP3   OH226375   1.682   6.071   0.527 -0.1509 -0.2751  0.1971
 8804TIP3    H126376   1.702   6.029   0.611 -0.0075 -0.5423  0.0307
 8804TIP3    H226377   1.736   6.024   0.463  1.0871  1.0680  0.2057
 8805TIP3   OH226378   4.295   1.936   0.572  0.1551  0.5404  0.6060
 8805TIP3    H126379   4.318   1.897   0.656 -0.2487  0.2008  0.5661
 8805TIP3    H226380   4.214   1.892   0.547  0.7593 -0.0657 -0.4040
 8806TIP3   OH226381   4.674   1.113   4.928  0.4371 -0.8040 -0.5961
 8806TIP3    H126382   4.652   1.206   4.928  1.5966 -0.4269 -3.6694
 8806TIP3    H226383   4.769   1.110   4.919  0.3244 -2.2404 -1.7522
 8807TIP3   OH226384   0.248   3.297   2.513  0.0642 -0.0297 -0.3226
 8807TIP3    H126385   0.179   3.240   2.480  0.1575 -0.5083  0.2937
 8807TIP3    H226386   0.202   3.367   2.558 -0.0636  0.6224 -1.4494
 8808TIP3   OH226387   1.686   2.218   3.451 -0.0463 -0.7670 -0.1380
 8808TIP3    H126388   1.724   2.274   3.383  0.6336 -0.9779  0.0553
 8808TIP3    H226389   1.668   2.278   3.524  1.6378 -0.9379  0.4552
 8809TIP3   OH226390   6.980   0.704   5.425  0.0493 -0.0147 -0.3095
 8809TIP3    H126391   7.002   0.775   5.365  0.1352  1.5943  1.5395
 8809TIP3    H226392   6.938   0.747   5.499  2.8891 -1.4035  2.3528
 8810TIP3   OH226393   6.490   1.113   2.282 -0.2758 -0.1905  0.8913
 8810TIP3    H126394   6.553   1.081   2.217 -1.1799 -1.9810  0.8458
 8810TIP3    H226395   6.502   1.208   2.281  1.5278 -0.3748 -0.0239
 8811TIP3   OH226396   4.089   1.924   3.201 -0.5174  0.1806 -0.4560
 8811TIP3    H126397   4.044   1.903   3.119  0.8841  1.9776 -1.7741
 8811TIP3    H226398   4.163   1.863   3.204 -2.0930 -1.8180  1.0056
 8812TIP3   OH226399   4.884   0.681   2.253 -0.0389  0.6212 -0.0593
 8812TIP3    H126400   4.972   0.657   2.222 -0.4563 -0.8765 -0.1520
 8812TIP3    H226401   4.888   0.668   2.348  0.1410  1.5999  0.0776
 8813TIP3   OH226402   5.703   0.772   3.064  0.5798  0.1319  0.0717
 8813TIP3    H126403   5.750   0.759   3.146  0.6721  0.2932  0.0445
 8813TIP3    H226404   5.611   0.755   3.085  0.6249  0.0097  0.1697
 8814TIP3   OH226405   5.236   0.901   3.766  0.1481 -0.5282 -0.1985
 8814TIP3    H126406   5.310   0.895   3.826  1.7438 -0.4790 -2.0793
 8814TIP3    H226407   5.200   0.812   3.763  1.4866 -1.0797 -0.8674
 8815TIP3   OH226408   5.362   0.495   4.950  0.4390  0.3830 -0.1340
 8815TIP3    H126409   5.369   0.419   5.009  1.4542  2.3899  2.5205
 8815TIP3    H226410   5.451   0.511   4.922  0.2262  0.6125 -0.6849
 8816TIP3   OH226411   4.024   5.449   4.636 -0.6677  0.5488 -0.2776
 8816TIP3    H126412   4.088   5.412   4.698 -1.7148  0.5803  0.8577
 8816TIP3    H226413   4.078   5.485   4.566  0.6843  1.8509  1.3356
 8817TIP3   OH226414   1.368   3.991   4.455  0.6175 -0.5301 -0.6287
 8817TIP3    H126415   1.424   4.054   4.500  0.0715 -0.0089 -0.6760
 8817TIP3    H226416   1.344   3.927   4.522 -1.0228  0.7898  0.1001
 8818TIP3   OH226417   1.220   1.211   5.064 -0.1437  0.4103  0.1717
 8818TIP3    H126418   1.258   1.190   5.149 -0.1997  2.9961  0.9401
 8818TIP3    H226419   1.145   1.152   5.055 -0.5471  0.5360  2.2450
 8819TIP3   OH226420   0.667   1.249   5.712 -0.5245 -0.2884  0.0246
 8819TIP3    H126421   0.599   1.236   5.778  0.3213  0.7683  1.1540
 8819TIP3    H226422   0.656   1.339   5.683 -0.8343 -0.7151 -1.2520
 8820TIP3   OH226423   1.568   2.485   1.203 -0.1018 -0.5070  0.4088
 8820TIP3    H126424   1.539   2.443   1.122 -2.9764 -0.1767  1.1514
 8820TIP3    H226425   1.608   2.567   1.173  0.0309 -0.9674 -0.7416
 8821TIP3   OH226426   7.178   3.183   3.451 -0.3858 -0.1115  0.3268
 8821TIP3    H126427   7.257   3.238   3.457 -0.7243  0.4111  0.0602
 8821TIP3    H226428   7.115   3.226   3.509 -1.3406  0.9758 -1.4588
 8822TIP3   OH226429   0.010   1.837   0.411 -0.4328  0.0635 -0.2313
 8822TIP3    H126430  -0.046   1.828   0.334 -0.3055 -0.6465 -0.2430
 8822TIP3    H226431   0.075   1.768   0.402  0.4572  0.8659 -0.2133
 8823TIP3   OH226432   1.574   3.798   0.313 -0.4149  0.9629 -0.0503
 8823TIP3    H126433   1.669   3.788   0.305 -0.3492  0.7406  0.8703
 8823TIP3    H226434   1.551   3.744   0.389 -1.5880 -0.7427 -1.5296
 8824TIP3   OH226435   3.104   4.291   1.644  0.2691  0.2029 -0.5948
 8824TIP3    H126436   3.114   4.324   1.733 -1.5150  0.8616 -0.6024
 8824TIP3    H226437   3.114   4.369   1.589  0.8215 -0.1150 -0.9599
 8825TIP3   OH226438   5.973   5.573   1.263  0.6675 -0.3108  0.5379
 8825TIP3    H126439   6.025   5.642   1.306  0.0038  1.0633 -0.7698
 8825TIP3    H226440   5.883   5.588   1.293  0.4349 -0.2632 -0.1651
 8826TIP3   OH226441   0.110   3.798   1.035  0.4675 -0.2053 -0.3941
 8826TIP3    H126442   0.175   3.728   1.040  0.9316  0.2522  0.0648
 8826TIP3    H226443   0.158   3.873   0.998  0.4709  0.4394  0.8812
 8827TIP3   OH226444   7.072   4.563   0.377  0.2587 -0.2255  0.0818
 8827TIP3    H126445   7.011   4.611   0.321  0.1062 -1.5575 -0.9457
 8827TIP3    H226446   7.058   4.600   0.464 -1.4854  0.0262 -0.2640
 8828TIP3   OH226447   6.202   6.816   5.134  0.2449 -0.0390  0.0770
 8828TIP3    H126448   6.269   6.791   5.197  1.3831  1.2626 -0.5370
 8828TIP3    H226449   6.119   6.805   5.180  0.7974 -2.2692  0.6688
 8829TIP3   OH226450   0.099   1.012   0.651  0.0782  0.0092  0.0082
 8829TIP3    H126451   0.151   1.087   0.680 -0.2242  0.2599 -0.0925
 8829TIP3    H226452   0.087   1.026   0.557 -1.4342  0.7315  0.2952
 8830TIP3   OH226453   3.820   1.705   0.449  0.1938 -0.5598 -0.0104
 8830TIP3    H126454   3.804   1.645   0.522  0.6602 -1.1233 -0.3555
 8830TIP3    H226455   3.733   1.724   0.414  0.0948 -2.0213 -0.6537
 8831TIP3   OH226456   0.101   4.661   0.291  0.9413 -0.6041 -0.2409
 8831TIP3    H126457   0.016   4.642   0.330  0.5069  0.7997 -0.4497
 8831TIP3    H226458   0.100   4.755   0.276  1.3868 -0.9399 -2.9189
 8832TIP3   OH226459   4.611   2.841   4.738 -0.5681 -0.0479 -0.3031
 8832TIP3    H126460   4.607   2.882   4.824  0.4264 -0.0315 -0.2430
 8832TIP3    H226461   4.697   2.797   4.737 -1.1022 -1.1269 -0.8032
 8833TIP3   OH226462   1.809   4.607   0.119  0.0271 -0.0169  0.7083
 8833TIP3    H126463   1.727   4.609   0.070  0.3251 -1.3393  0.1116
 8833TIP3    H226464   1.789   4.560   0.199  0.5357 -1.7450 -0.1436
 8834TIP3   OH226465   5.950   3.566   1.239  0.2635  1.0172  0.2678
 8834TIP3    H126466   6.044   3.584   1.249  0.4195  0.4873 -0.2239
 8834TIP3    H226467   5.928   3.511   1.315  0.7575 -0.3779 -0.5756
 8835TIP3   OH226468   4.660   6.004   2.180  0.1391 -0.4841  0.0449
 8835TIP3    H126469   4.689   6.073   2.121  1.1647 -1.7404 -0.9750
 8835TIP3    H226470   4.730   5.995   2.244 -0.8769  0.7333  1.4096
 8836TIP3   OH226471   5.396   1.840   1.555  0.6815  0.2196 -0.4216
 8836TIP3    H126472   5.350   1.756   1.545 -3.3327  2.4157 -3.4304
 8836TIP3    H226473   5.363   1.876   1.638 -1.6334  0.8532 -1.5458
 8837TIP3   OH226474   0.278   5.192   2.097  0.2456  0.8516  0.7031
 8837TIP3    H126475   0.353   5.240   2.132 -0.9747  1.7052  2.2705
 8837TIP3    H226476   0.218   5.184   2.171 -0.9817 -0.3004 -0.3657
 8838TIP3   OH226477   1.611   2.039   0.757  0.6058  0.4887  0.6489
 8838TIP3    H126478   1.648   2.066   0.673  0.4747  0.5263  0.6023
 8838TIP3    H226479   1.636   2.108   0.818  1.6034 -0.0570  0.8798
 8839TIP3   OH226480   4.984   4.290   5.156  0.1874  0.2488 -0.3720
 8839TIP3    H126481   4.908   4.233   5.154 -2.2754  3.2986 -1.5381
 8839TIP3    H226482   4.980   4.333   5.242  1.7972 -0.8732  0.3389
 8840TIP3   OH226483   4.781   3.018   2.734 -0.1300 -1.0693 -0.2709
 8840TIP3    H126484   4.748   2.950   2.676 -1.6442  0.0668 -0.8302
 8840TIP3    H226485   4.719   3.019   2.807  0.2751 -0.7571  0.0730
 8841TIP3   OH226486   6.913   2.345   3.394 -0.4335  0.4231  0.3167
 8841TIP3    H126487   6.850   2.337   3.322  0.3809  1.6957 -0.5655
 8841TIP3    H226488   6.902   2.434   3.426  0.2746  0.3492  0.7729
 8842TIP3   OH226489   5.417   1.200   5.348  0.4659  0.3720  0.1041
 8842TIP3    H126490   5.414   1.153   5.265  2.2448  0.3903 -0.0106
 8842TIP3    H226491   5.510   1.204   5.370 -0.0315 -2.6233  3.7817
 8843TIP3   OH226492   2.929   5.802   4.226  0.1771 -0.1592  0.2700
 8843TIP3    H126493   2.877   5.746   4.169 -0.6978 -0.4577  1.3251
 8843TIP3    H226494   2.889   5.889   4.218 -0.3251 -0.3262  0.8528
 8844TIP3   OH226495   3.533   3.617   3.940 -0.1566  0.4854 -0.4416
 8844TIP3    H126496   3.497   3.653   3.859 -0.5155 -0.2080 -0.6043
 8844TIP3    H226497   3.541   3.523   3.922  1.1399  0.5229 -0.1777
 8845TIP3   OH226498   5.098   3.543   3.236  0.1946 -0.8409  0.1262
 8845TIP3    H126499   5.193   3.544   3.251  0.3873 -0.7221 -1.0152
 8845TIP3    H226500   5.088   3.574   3.146 -1.1043  1.5776  1.0108
 8846TIP3   OH226501   6.143   4.881   5.726 -0.0771  0.1861  0.2682
 8846TIP3    H126502   6.213   4.946   5.720 -0.1684  0.1263 -2.0396
 8846TIP3    H226503   6.184   4.799   5.699  0.1271 -0.9310  3.4617
 8847TIP3   OH226504   2.565   5.389   0.649 -0.0755 -0.5399  0.1839
 8847TIP3    H126505   2.582   5.477   0.615 -0.3941 -0.4911  0.1465
 8847TIP3    H226506   2.652   5.349   0.656 -0.0458 -0.8421 -1.4533
 8848TIP3   OH226507   4.690   0.472   2.569 -0.2931 -0.1814  0.4874
 8848TIP3    H126508   4.759   0.406   2.568 -1.0785 -1.0175 -0.0362
 8848TIP3    H226509   4.730   0.548   2.611  1.2216 -0.3271 -0.6141
 8849TIP3   OH226510   2.082   1.013   3.628 -0.2361 -0.1478  0.4267
 8849TIP3    H126511   2.072   1.103   3.595  0.3319  0.2468  1.2853
 8849TIP3    H226512   2.171   1.011   3.664 -0.5931 -0.7436  1.3179
 8850TIP3   OH226513   1.181   3.755   3.002 -0.9026  0.4892 -0.2178
 8850TIP3    H126514   1.106   3.805   2.970 -1.7340 -0.8135 -0.3494
 8850TIP3    H226515   1.154   3.664   2.996  0.4950  0.0181  0.2564
 8851TIP3   OH226516   5.380   3.556   3.156  0.7853 -0.2825  0.3267
 8851TIP3    H126517   5.400   3.463   3.148  0.9526 -0.2980  0.9206
 8851TIP3    H226518   5.389   3.589   3.066  0.0986 -0.9516  0.0041
 8852TIP3   OH226519   6.931   6.593   0.454 -0.6204  0.7373 -0.0854
 8852TIP3    H126520   6.907   6.631   0.369  0.3359 -0.9543 -1.1734
 8852TIP3    H226521   7.023   6.616   0.465 -0.4588  0.0855 -0.0219
 8853TIP3   OH226522   2.696   4.476   5.133 -0.1852  0.4034 -0.1686
 8853TIP3    H126523   2.752   4.420   5.186 -0.7029 -0.8181 -0.8738
 8853TIP3    H226524   2.713   4.565   5.165  1.8170  0.0314 -0.0616
 8854TIP3   OH226525   2.532   4.056   5.757 -0.1586 -0.1433 -0.0035
 8854TIP3    H126526   2.611   4.110   5.763  1.5407 -2.5644  1.2338
 8854TIP3    H226527   2.510   4.036   5.848 -0.9557 -1.2202 -0.4079
 8855TIP3   OH226528   4.981   3.907   5.253 -0.0691 -0.1193  0.4954
 8855TIP3    H126529   4.951   3.990   5.290  0.2278 -0.1297  0.7610
 8855TIP3    H226530   4.908   3.878   5.198 -0.7061 -0.3252  1.4203
 8856TIP3   OH226531   5.660   3.453   4.462 -0.1314 -0.8290 -0.0105
 8856TIP3    H126532   5.722   3.436   4.392  1.3513  0.5553  0.8867
 8856TIP3    H226533   5.686   3.539   4.496 -2.1825 -0.4783  0.7919
 8857TIP3   OH226534   5.243   6.526   2.747 -0.1629  0.9074  0.8995
 8857TIP3    H126535   5.313   6.535   2.813 -0.4305  1.6802  1.0839
 8857TIP3    H226536   5.214   6.435   2.756  0.8000  0.5825  0.8362
 8858TIP3   OH226537   0.552   0.678   3.538 -0.7738  1.1575 -0.5530
 8858TIP3    H126538   0.486   0.746   3.534 -1.1595  0.7859 -0.5721
 8858TIP3    H226539   0.633   0.724   3.560 -1.4787  1.3382  1.9691
 8859TIP3   OH226540   5.224   6.092   1.782 -0.3184 -0.0539 -0.2036
 8859TIP3    H126541   5.178   6.175   1.766  0.0615  0.8559  2.7629
 8859TIP3    H226542   5.315   6.111   1.763 -0.3551 -0.0900 -0.4212
 8860TIP3   OH226543   0.580   5.918   5.578  0.5791  0.1019  0.1193
 8860TIP3    H126544   0.504   5.880   5.623  0.4601 -0.0994 -0.2534
 8860TIP3    H226545   0.573   6.011   5.596 -0.2928  0.2132 -0.7107
 8861TIP3   OH226546   4.290   3.755   2.194 -0.4469  0.2066  0.4810
 8861TIP3    H126547   4.307   3.843   2.161 -0.8162  0.7494  1.6561
 8861TIP3    H226548   4.237   3.713   2.126  0.7316  0.4633 -0.6247
 8862TIP3   OH226549   4.864   5.418   4.441 -0.4403 -0.7736 -0.1870
 8862TIP3    H126550   4.824   5.376   4.517 -2.9027 -0.6312 -1.3302
 8862TIP3    H226551   4.922   5.485   4.478 -1.5622 -0.7268  1.5850
 8863TIP3   OH226552   5.361   6.430   0.233  0.0184  0.0754  0.1498
 8863TIP3    H126553   5.325   6.518   0.240 -1.3852 -0.4376 -0.0875
 8863TIP3    H226554   5.310   6.390   0.162  0.5479 -0.9543  0.3356
 8864TIP3   OH226555   2.535   6.446   2.481 -0.3130  0.4176 -0.1928
 8864TIP3    H126556   2.533   6.395   2.401 -1.1870 -0.9572  0.6667
 8864TIP3    H226557   2.478   6.521   2.464 -1.9569 -0.7972 -0.2842
 8865TIP3   OH226558   3.595   1.877   5.645  0.6460 -0.5839 -0.0588
 8865TIP3    H126559   3.584   1.901   5.737  1.4504  0.4280 -0.2068
 8865TIP3    H226560   3.687   1.894   5.627 -0.0259  1.7410 -1.7250
 8866TIP3   OH226561   3.569   3.392   5.727 -0.1668 -0.6141  0.3022
 8866TIP3    H126562   3.626   3.318   5.751 -0.2970 -0.4440  1.1782
 8866TIP3    H226563   3.501   3.392   5.794 -0.4878 -0.0373 -0.0190
 8867TIP3   OH226564   3.010   5.822   4.500 -0.5408 -0.1812  0.0522
 8867TIP3    H126565   3.097   5.851   4.527  0.7204 -3.6153  0.1426
 8867TIP3    H226566   2.993   5.869   4.419  1.0206  1.1506  0.4433
 8868TIP3   OH226567   1.380   3.724   5.154  0.3738 -0.0498 -0.1586
 8868TIP3    H126568   1.338   3.729   5.069  0.9406 -1.7529 -0.5660
 8868TIP3    H226569   1.382   3.815   5.185  0.6273  0.6776 -2.1686
 8869TIP3   OH226570   2.258   2.967   3.512  0.3282  0.0194  0.1155
 8869TIP3    H126571   2.179   2.928   3.474  0.2972  1.8841 -1.9703
 8869TIP3    H226572   2.330   2.916   3.476  0.2186  0.8467 -1.3552
 8870TIP3   OH226573   3.458   0.300   3.777  0.0698 -0.3699  0.2430
 8870TIP3    H126574   3.461   0.228   3.840 -0.1061 -0.3101  0.3219
 8870TIP3    H226575   3.536   0.352   3.796 -0.5172  0.2322  1.1210
 8871TIP3   OH226576   3.836   6.635   3.236  0.2520  0.3904 -0.2988
 8871TIP3    H126577   3.784   6.715   3.245 -0.9387 -0.0102 -2.8188
 8871TIP3    H226578   3.881   6.644   3.152 -0.9800 -2.0760 -1.3386
 8872TIP3   OH226579   3.088   5.542   3.932 -0.0812  0.3751 -0.5701
 8872TIP3    H126580   3.125   5.455   3.920 -0.8682  0.2173 -2.0789
 8872TIP3    H226581   3.141   5.581   4.002  1.5092 -0.6182 -1.1636
 8873TIP3   OH226582   3.951   5.123   2.590  0.3571  0.0790  0.3002
 8873TIP3    H126583   3.865   5.089   2.612 -0.0166  0.0339 -1.1737
 8873TIP3    H226584   3.936   5.215   2.567  0.7583  0.1675  0.3700
 8874TIP3   OH226585   3.097   1.179   2.577  0.1697 -0.0737  0.4701
 8874TIP3    H126586   3.003   1.196   2.583  0.2501  0.6069 -0.0443
 8874TIP3    H226587   3.105   1.119   2.503  0.1781  0.3130  0.1478
 8875TIP3   OH226588   6.134   5.135   4.743  0.5674 -0.2322  0.2308
 8875TIP3    H126589   6.087   5.095   4.670  1.5143 -1.3556  0.2045
 8875TIP3    H226590   6.066   5.177   4.795 -0.3059 -0.7577 -0.4601
 8876TIP3   OH226591   0.310   0.143   1.123  0.8004 -0.2389 -0.0364
 8876TIP3    H126592   0.320   0.074   1.188  0.7104 -0.9456 -0.7416
 8876TIP3    H226593   0.391   0.140   1.071  0.1674 -0.8845 -1.0363
 8877TIP3   OH226594   6.832   1.107   4.732 -0.1441  0.0223  0.6151
 8877TIP3    H126595   6.804   1.193   4.765 -0.0586 -0.6507  2.6060
 8877TIP3    H226596   6.750   1.059   4.717 -0.1985  0.4933 -0.7066
 8878TIP3   OH226597   4.161   6.792   4.476  0.6423  0.4562 -0.4959
 8878TIP3    H126598   4.133   6.747   4.396 -0.6779  1.7488 -0.8216
 8878TIP3    H226599   4.239   6.745   4.505 -0.0071 -1.2815 -1.4384
 8879TIP3   OH226600   3.875   5.810   1.686 -0.0715  0.2298 -0.7345
 8879TIP3    H126601   3.969   5.797   1.673  0.3151  2.2830 -0.4846
 8879TIP3    H226602   3.861   5.794   1.779  0.3321  1.2766 -0.4793
 8880TIP3   OH226603   4.601   3.673   3.180  0.5148 -0.3654  0.5595
 8880TIP3    H126604   4.547   3.736   3.132  0.7894  0.5390  1.3977
 8880TIP3    H226605   4.541   3.602   3.202  0.1154 -0.2459 -0.1043
 8881TIP3   OH226606   0.030   1.624   2.184  0.0279  0.7889 -0.3141
 8881TIP3    H126607   0.059   1.541   2.148  1.8583  1.2439  0.0082
 8881TIP3    H226608   0.105   1.683   2.172 -0.5355  1.8657  1.1243
 8882TIP3   OH226609   2.232   5.647   3.952 -0.0975  0.2139 -0.0028
 8882TIP3    H126610   2.312   5.596   3.941 -0.2160 -0.3180  1.3540
 8882TIP3    H226611   2.230   5.669   4.045 -2.1236 -0.8626  0.2849
 8883TIP3   OH226612   6.435   0.128   2.670  0.6478 -0.0617  0.2401
 8883TIP3    H126613   6.376   0.186   2.718  1.7191  1.0352  0.2925
 8883TIP3    H226614   6.447   0.053   2.727 -1.9042 -1.0716 -0.4429
 8884TIP3   OH226615   3.530   0.905   1.310 -0.2954 -0.1611 -0.0800
 8884TIP3    H126616   3.551   0.827   1.362  0.7641 -0.2845 -0.6535
 8884TIP3    H226617   3.498   0.969   1.373  0.7591 -0.3865  0.7164
 8885TIP3   OH226618   0.349   6.141   4.098 -0.5656  0.1905  0.2209
 8885TIP3    H126619   0.389   6.096   4.172  1.7998  0.3412 -0.8847
 8885TIP3    H226620   0.262   6.165   4.129  0.0477 -0.4523  2.6585
 8886TIP3   OH226621   6.330   1.026   5.053 -0.2793  0.6419 -0.2361
 8886TIP3    H126622   6.425   1.026   5.050 -0.2866  1.5990 -0.7367
 8886TIP3    H226623   6.307   0.936   5.076  0.7204  0.1800 -0.9675
 8887TIP3   OH226624   0.303   0.899   4.766 -0.6888  0.1901 -0.2196
 8887TIP3    H126625   0.324   0.984   4.728 -0.6100 -1.0502 -3.2071
 8887TIP3    H226626   0.208   0.903   4.781 -0.5844  1.0000  0.3137
 8888TIP3   OH226627   4.771   6.389   4.157 -0.2310  0.2282 -0.0879
 8888TIP3    H126628   4.755   6.434   4.075  0.3484  1.4992  0.4732
 8888TIP3    H226629   4.816   6.453   4.212  1.6774 -1.3649  0.3389
 8889TIP3   OH226630   7.061   0.873   0.676 -0.1045 -0.4807  0.0276
 8889TIP3    H126631   7.069   0.802   0.613 -0.7057  0.8253 -1.5889
 8889TIP3    H226632   7.141   0.925   0.665 -0.7071  0.3652 -0.4796
 8890TIP3   OH226633   7.136   1.674   1.931 -0.0320 -0.4314  0.3124
 8890TIP3    H126634   7.178   1.675   2.017  0.3379  0.0363  0.1317
 8890TIP3    H226635   7.048   1.707   1.946 -0.8273 -2.6062  0.9230
 8891TIP3   OH226636   3.207   4.148   1.877 -0.4587  0.0774  0.1413
 8891TIP3    H126637   3.267   4.143   1.803 -0.5675 -2.8992  0.1251
 8891TIP3    H226638   3.262   4.173   1.951  0.1674  0.4424 -0.4352
 8892TIP3   OH226639   4.315   3.172  -0.000 -0.4170  0.2497 -0.3176
 8892TIP3    H126640   4.304   3.130   0.085 -1.6939  0.9413 -0.1085
 8892TIP3    H226641   4.266   3.116  -0.061  1.1112 -0.6564 -0.7695
 8893TIP3   OH226642   0.324   5.430   2.945 -0.1581 -0.1201  0.2448
 8893TIP3    H126643   0.353   5.438   3.036  0.1082  1.0533  0.0779
 8893TIP3    H226644   0.345   5.340   2.921 -0.6325 -0.5725  1.4743
 8894TIP3   OH226645   2.288   1.853   2.557 -0.2144  0.3711 -0.4167
 8894TIP3    H126646   2.285   1.885   2.467 -2.9376  2.6603  0.3489
 8894TIP3    H226647   2.228   1.779   2.557  0.4227 -0.1605 -0.6089
 8895TIP3   OH226648   4.026   4.110   1.538  0.3069  0.6926 -0.4976
 8895TIP3    H126649   4.008   4.141   1.627 -0.3451  0.3768 -0.5109
 8895TIP3    H226650   4.112   4.146   1.517  0.2570  1.1700  0.0788
 8896TIP3   OH226651   3.725   1.137   1.695  0.2767 -0.2901 -0.1723
 8896TIP3    H126652   3.777   1.194   1.752  1.1470  0.0811 -1.3032
 8896TIP3    H226653   3.657   1.195   1.659 -0.2409 -0.5134  0.4080
 8897TIP3   OH226654   3.551   4.299   2.648  0.0265  0.2924  0.3316
 8897TIP3    H126655   3.644   4.316   2.635  0.2848 -2.0096 -1.4910
 8897TIP3    H226656   3.532   4.224   2.593 -2.6489 -0.1595  1.6764
 8898TIP3   OH226657   6.648   0.039   5.547  0.0360  0.1980  0.4906
 8898TIP3    H126658   6.702   0.105   5.504 -0.6709 -0.7723 -2.0866
 8898TIP3    H226659   6.710  -0.015   5.596  0.9340  1.1314  0.4029
 8899TIP3   OH226660   1.063   4.691   4.613  0.3883 -0.6853 -0.0922
 8899TIP3    H126661   0.981   4.740   4.599 -0.1635 -1.5532  0.0007
 8899TIP3    H226662   1.127   4.758   4.636  0.1351  0.2379 -1.8462
 8900TIP3   OH226663   2.036   1.686   2.164 -0.1715  0.4679  0.3656
 8900TIP3    H126664   2.126   1.707   2.187 -0.1178  0.4249  0.1951
 8900TIP3    H226665   1.983   1.748   2.214 -0.0377  0.6671  0.2573
 8901TIP3   OH226666   6.591   2.568   4.143  0.2967 -0.0762 -0.1667
 8901TIP3    H126667   6.682   2.571   4.115 -0.0879 -0.0140 -1.4390
 8901TIP3    H226668   6.584   2.486   4.192  0.9519 -0.2233 -0.3067
 8902TIP3   OH226669   5.560   0.661   5.867  0.1302  0.1489  0.8452
 8902TIP3    H126670   5.480   0.705   5.895 -0.7942  1.3876 -3.1908
 8902TIP3    H226671   5.611   0.728   5.822 -0.0859 -2.0675 -3.1749
 8903TIP3   OH226672   3.478   3.147   5.134  0.2079 -0.1788  0.1402
 8903TIP3    H126673   3.417   3.161   5.061  0.1079 -0.6647  0.1286
 8903TIP3    H226674   3.464   3.221   5.192  0.4016  0.3001 -0.4165
 8904TIP3   OH226675   2.680   0.285   3.364  0.2960 -0.1098  0.1585
 8904TIP3    H126676   2.715   0.213   3.313  2.6210  0.4954  0.8061
 8904TIP3    H226677   2.610   0.246   3.416  0.6684 -1.6132 -0.4303
 8905TIP3   OH226678   2.019   5.896   5.354 -0.1151 -0.4696 -0.0432
 8905TIP3    H126679   2.101   5.917   5.308  0.3445 -0.0833  0.9251
 8905TIP3    H226680   1.999   5.807   5.326  0.7172 -0.6251 -0.1877
 8906TIP3   OH226681   3.560   3.723   1.389  0.0407 -0.0518  0.0859
 8906TIP3    H126682   3.550   3.638   1.431  1.8585  0.4991  1.8247
 8906TIP3    H226683   3.506   3.782   1.441  0.0641  0.1386 -0.1017
 8907TIP3   OH226684   5.322   5.154   1.913 -0.6953 -0.1988 -0.2979
 8907TIP3    H126685   5.365   5.096   1.850 -0.6200 -1.0289  0.5116
 8907TIP3    H226686   5.300   5.232   1.861  2.4580  0.6485 -0.6102
 8908TIP3   OH226687   5.555   2.048   4.304 -0.0742 -0.1672 -0.0535
 8908TIP3    H126688   5.517   2.025   4.389 -0.2605  1.6490  0.3964
 8908TIP3    H226689   5.483   2.088   4.255  0.4262  0.3091 -0.4243
 8909TIP3   OH226690   6.963   4.997   1.184 -0.5159  0.3016  0.0043
 8909TIP3    H126691   6.998   4.969   1.268 -1.1071  1.2873  0.6096
 8909TIP3    H226692   6.983   5.091   1.180 -1.2182  0.4384 -0.5672
 8910TIP3   OH226693   5.820   1.912   2.354  0.5627 -0.4636 -0.0032
 8910TIP3    H126694   5.820   2.002   2.320  0.7775 -0.8597 -1.1083
 8910TIP3    H226695   5.780   1.919   2.441  0.3547  0.6625 -0.1720
 8911TIP3   OH226696   5.384   0.453   2.157  0.2433 -0.2398 -0.1300
 8911TIP3    H126697   5.393   0.462   2.062  0.6828 -1.1062 -0.1755
 8911TIP3    H226698   5.468   0.483   2.192  0.4025 -0.7449 -0.0721
 8912TIP3   OH226699   3.468   5.180   5.840 -0.0851  0.0410  0.0864
 8912TIP3    H126700   3.537   5.183   5.906  0.8871 -0.0728 -0.9077
 8912TIP3    H226701   3.416   5.103   5.863  0.9773 -0.7181  0.0147
 8913TIP3   OH226702   4.648   5.753   0.710  0.1555  0.1084  0.0202
 8913TIP3    H126703   4.696   5.758   0.627  1.5761  0.1614  0.8046
 8913TIP3    H226704   4.714   5.728   0.775 -0.7159  0.9784  1.3029
 8914TIP3   OH226705   4.901   3.771   0.811  0.3201 -0.2019 -0.2727
 8914TIP3    H126706   4.880   3.732   0.726  0.5042  0.1519 -0.4840
 8914TIP3    H226707   4.975   3.720   0.843  0.7742  0.1828 -0.7010
 8915TIP3   OH226708   1.027   4.388   0.174  0.5623  0.1559  0.5372
 8915TIP3    H126709   1.025   4.477   0.138  1.3101 -0.6001 -1.4547
 8915TIP3    H226710   0.942   4.352   0.154  1.0850 -0.3700 -0.8055
 8916TIP3   OH226711   5.811   3.996   4.809 -0.1964 -0.5347 -0.2964
 8916TIP3    H126712   5.750   3.987   4.735 -1.5222 -1.5602  0.8686
 8916TIP3    H226713   5.766   4.055   4.870  2.4658  3.4842 -1.7725
 8917TIP3   OH226714   4.599   4.554   3.248  0.6635  0.0842 -0.3153
 8917TIP3    H126715   4.513   4.555   3.290  1.0085 -1.9784  0.5570
 8917TIP3    H226716   4.590   4.614   3.174 -1.7252 -0.5311 -0.6205
 8918TIP3   OH226717   7.040   0.603   2.923  0.0367  0.2628  0.6981
 8918TIP3    H126718   7.128   0.597   2.886 -0.0179 -0.4329  0.6656
 8918TIP3    H226719   7.037   0.688   2.965  0.9172  0.0686  1.1782
 8919TIP3   OH226720   1.045   5.097   5.668 -0.2684  0.2075  0.1022
 8919TIP3    H126721   0.963   5.071   5.625 -0.7273  1.5133  0.1468
 8919TIP3    H226722   1.048   5.192   5.658  0.6118  0.3140  1.2411
 8920TIP3   OH226723   0.508   2.369   4.378 -0.3936 -0.8238  0.3026
 8920TIP3    H126724   0.547   2.311   4.444 -0.3613  0.5470  1.5349
 8920TIP3    H226725   0.582   2.402   4.328 -0.2487 -0.5474  0.6949
 8921TIP3   OH226726   6.885   1.927   3.430 -0.2187 -0.5214 -0.1210
 8921TIP3    H126727   6.966   1.882   3.456  0.7733  1.5232  0.5756
 8921TIP3    H226728   6.861   1.980   3.507 -0.3635  1.3864 -1.4086
 8922TIP3   OH226729   7.097   5.416   5.337  0.8515 -0.2731 -0.4181
 8922TIP3    H126730   7.152   5.412   5.258  3.0195 -2.8522  1.0663
 8922TIP3    H226731   7.075   5.325   5.355 -3.1765  0.5285 -0.2599
 8923TIP3   OH226732   6.747   1.827   1.263 -0.2408 -0.4614 -0.2009
 8923TIP3    H126733   6.718   1.819   1.354  2.2105 -1.7109  0.5427
 8923TIP3    H226734   6.714   1.747   1.221  0.4525 -0.9519  0.1648
 8924TIP3   OH226735   4.542   3.761   0.465 -0.0182  0.4205  0.0670
 8924TIP3    H126736   4.468   3.701   0.459  0.6273 -0.3644 -0.1281
 8924TIP3    H226737   4.555   3.792   0.376 -0.9473  1.6055  0.3170
 8925TIP3   OH226738   5.448   4.476   4.317 -0.2409 -0.4411 -0.3023
 8925TIP3    H126739   5.486   4.475   4.229 -1.4256 -0.1597 -0.8335
 8925TIP3    H226740   5.426   4.568   4.332  0.0396 -0.4724  0.3394
 8926TIP3   OH226741   5.168   6.788   0.716 -0.2575 -0.2103  0.1915
 8926TIP3    H126742   5.156   6.693   0.709 -0.5482 -0.1043 -0.8728
 8926TIP3    H226743   5.086   6.819   0.755 -0.9477 -0.1958 -1.2217
 8927TIP3   OH226744   5.053   1.536   0.996  0.2968 -0.5899  0.3826
 8927TIP3    H126745   5.011   1.601   1.052  0.6778 -1.3260  1.5543
 8927TIP3    H226746   5.011   1.547   0.910  1.4923  2.3030  0.0671
 8928TIP3   OH226747   1.936   5.801   4.646 -0.1006 -0.2579  0.7694
 8928TIP3    H126748   1.841   5.796   4.637 -0.1815  0.6633  1.0477
 8928TIP3    H226749   1.953   5.889   4.678  0.9684  0.1881 -0.9065
 8929TIP3   OH226750   6.846   0.798   2.018  0.2210 -0.5151  0.6540
 8929TIP3    H126751   6.936   0.788   1.989 -0.0493 -0.7861 -0.1344
 8929TIP3    H226752   6.843   0.760   2.105  0.8010 -0.7760  0.5584
 8930TIP3   OH226753   1.058   0.656   1.524 -0.5621  0.8267 -0.1960
 8930TIP3    H126754   1.062   0.738   1.474  0.1698  0.1829 -1.2183
 8930TIP3    H226755   0.970   0.623   1.510 -0.9666  1.5789  0.4718
 8931TIP3   OH226756   6.513   3.664   3.102 -0.2844 -0.1397  0.3329
 8931TIP3    H126757   6.430   3.621   3.083 -0.1518  0.1882 -1.0644
 8931TIP3    H226758   6.567   3.649   3.025  0.1491  1.5766  0.2513
 8932TIP3   OH226759   1.052   6.040   4.183  0.4916 -0.0545 -0.3558
 8932TIP3    H126760   0.997   5.996   4.118 -1.3178  2.0954 -0.4008
 8932TIP3    H226761   1.141   6.029   4.151 -0.1575 -1.0593 -1.9227
 8933TIP3   OH226762   3.442   4.873   0.276 -0.1547  0.2164  0.5030
 8933TIP3    H126763   3.484   4.948   0.318 -0.3353  1.1643 -0.9193
 8933TIP3    H226764   3.492   4.860   0.195  0.2568 -1.6101  1.0120
 8934TIP3   OH226765   0.355   6.587   1.798 -0.0818 -0.3237  0.0366
 8934TIP3    H126766   0.325   6.524   1.732 -0.9830 -1.1820  1.2242
 8934TIP3    H226767   0.431   6.545   1.839 -0.0174 -0.1570  0.0883
 8935TIP3   OH226768   3.178   2.928   2.400 -0.0076 -0.1809 -0.3282
 8935TIP3    H126769   3.092   2.916   2.440  0.5828 -1.7382  0.5736
 8935TIP3    H226770   3.176   3.016   2.363 -0.2760  1.8731  3.9997
 8936TIP3   OH226771   5.250   5.911   0.316  0.4080 -0.2138  0.5775
 8936TIP3    H126772   5.155   5.921   0.314  0.1247 -2.3836  0.1661
 8936TIP3    H226773   5.282   5.977   0.254 -0.8355  0.4555  0.6116
 8937TIP3   OH226774   5.252   0.013   5.387 -0.7029  0.3824 -0.5644
 8937TIP3    H126775   5.214   0.098   5.364 -0.6830  0.2225 -1.1890
 8937TIP3    H226776   5.231   0.002   5.480 -1.2823  0.7678 -0.6446
 8938TIP3   OH226777   2.987   5.355   2.264  0.1307  0.2697 -0.3063
 8938TIP3    H126778   3.041   5.366   2.342  0.2141  1.2440 -0.4829
 8938TIP3    H226779   2.935   5.435   2.260  0.2903  0.3314 -1.3672
 8939TIP3   OH226780   1.968   0.020   5.316  0.3797  0.1373 -0.0974
 8939TIP3    H126781   1.939   0.056   5.400  0.1919  0.4337 -0.2876
 8939TIP3    H226782   1.957  -0.075   5.325 -0.0194  0.1977  0.0720
 8940TIP3   OH226783   2.887   4.639   0.568  0.1885  0.4766 -0.1931
 8940TIP3    H126784   2.879   4.732   0.550 -0.5067  0.5944  0.6815
 8940TIP3    H226785   2.856   4.596   0.488  0.9359  0.9794 -0.7668
 8941TIP3   OH226786   3.124   4.672   5.070 -0.2077 -0.1310  0.2708
 8941TIP3    H126787   3.142   4.651   5.162  0.6220 -0.3219  0.0637
 8941TIP3    H226788   3.128   4.768   5.066  2.4477 -0.1870 -0.0883
 8942TIP3   OH226789   4.967   4.021   0.888 -0.1447  0.3459 -0.0052
 8942TIP3    H126790   4.932   3.940   0.853  2.1390 -1.2013  1.0159
 8942TIP3    H226791   4.976   4.078   0.811  0.4765 -1.2777 -1.2099
 8943TIP3   OH226792   0.786   2.846   1.487 -0.2953 -0.4010 -0.7412
 8943TIP3    H126793   0.739   2.763   1.486 -0.7610 -0.1519 -1.9867
 8943TIP3    H226794   0.877   2.822   1.467  0.0547 -0.8326  1.2068
 8944TIP3   OH226795   2.287   4.439   4.153 -0.6564  0.4506  0.5942
 8944TIP3    H126796   2.275   4.531   4.179  1.4498  1.4007 -1.4548
 8944TIP3    H226797   2.330   4.398   4.227 -0.5016  1.4363  1.0627
 8945TIP3   OH226798   5.067   6.112   0.490 -0.1397  0.2116  0.5623
 8945TIP3    H126799   4.972   6.122   0.477  0.1333 -0.1315 -2.4313
 8945TIP3    H226800   5.075   6.033   0.544 -1.5596 -0.4412 -0.1246
 8946TIP3   OH226801   5.590   2.352   0.098  0.0033 -1.1541  0.5126
 8946TIP3    H126802   5.566   2.360   0.190 -0.3289  0.5143  0.3223
 8946TIP3    H226803   5.520   2.399   0.051  1.6048  0.5246 -0.3394
 8947TIP3   OH226804   4.412   3.530   5.358  0.9035 -0.0167  0.0956
 8947TIP3    H126805   4.356   3.577   5.419  1.5524  1.7830 -0.6175
 8947TIP3    H226806   4.361   3.453   5.333 -0.1570  0.2106  1.4058
 8948TIP3   OH226807   3.374   0.614   3.853  0.8404 -1.0581  0.7175
 8948TIP3    H126808   3.364   0.585   3.944  0.7191  2.8374  2.1157
 8948TIP3    H226809   3.456   0.664   3.853 -1.1135  2.4613 -0.1403
 8949TIP3   OH226810   1.710   4.702   3.504  0.2953  0.2239  0.5425
 8949TIP3    H126811   1.637   4.702   3.566  0.5979  1.0634  0.9190
 8949TIP3    H226812   1.669   4.692   3.418  0.0268 -3.6703  0.9644
 8950TIP3   OH226813   0.450   3.349   0.130  0.3235  0.1842 -0.1340
 8950TIP3    H126814   0.372   3.399   0.152  0.6067  0.6287 -0.1184
 8950TIP3    H226815   0.420   3.281   0.070  0.2928  1.7482 -1.9866
 8951TIP3   OH226816   6.180   1.157   5.647  0.5502 -0.1069 -0.0280
 8951TIP3    H126817   6.229   1.238   5.635  1.1653 -0.2919  1.0371
 8951TIP3    H226818   6.211   1.099   5.578  1.1191  0.1134  0.0392
 8952TIP3   OH226819   3.456   6.555   2.896  0.3250 -0.4073 -0.0345
 8952TIP3    H126820   3.410   6.633   2.865  0.1093 -1.2798 -2.0752
 8952TIP3    H226821   3.544   6.585   2.916  0.1447  0.4160 -0.4368
 8953TIP3   OH226822   5.924   2.999   5.307 -0.2629 -0.3919 -0.1297
 8953TIP3    H126823   5.992   2.987   5.241  2.5818 -0.7759  2.6292
 8953TIP3    H226824   5.863   2.927   5.292  0.5255 -0.7383 -1.9830
 8954TIP3   OH226825   7.142   3.558   0.230 -0.0942  0.1464 -0.0805
 8954TIP3    H126826   7.059   3.519   0.205 -0.0176 -1.0663  1.4511
 8954TIP3    H226827   7.124   3.604   0.312  0.3096  1.6421 -0.7774
 8955TIP3   OH226828   0.929   2.918   3.641  0.1494  0.5883  0.2078
 8955TIP3    H126829   0.908   2.922   3.735 -0.6566 -0.7061  0.1088
 8955TIP3    H226830   0.875   2.986   3.602  1.2604  1.8384  0.7987
 8956TIP3   OH226831   2.359   5.208   4.427 -0.4706  0.7631  0.1070
 8956TIP3    H126832   2.356   5.116   4.402  2.4067  0.7491 -0.5456
 8956TIP3    H226833   2.320   5.255   4.352 -1.0550  0.1432  0.0192
 8957TIP3   OH226834   0.463   2.743   1.756  0.2963 -0.3338  0.2800
 8957TIP3    H126835   0.393   2.777   1.701 -1.7302 -1.4851  1.9982
 8957TIP3    H226836   0.523   2.699   1.696 -1.8887 -1.6686 -1.0332
 8958TIP3   OH226837   0.601   0.612   2.772  0.2170 -0.2155 -0.7273
 8958TIP3    H126838   0.616   0.546   2.839  1.5855  1.0356  0.2739
 8958TIP3    H226839   0.640   0.576   2.693  0.3528 -0.8833 -0.3581
 8959TIP3   OH226840   3.336   1.483   4.068  0.2496  0.6188 -0.2003
 8959TIP3    H126841   3.290   1.533   4.136 -1.4268  0.1763 -0.9611
 8959TIP3    H226842   3.379   1.550   4.014 -2.2519  1.3747 -1.4175
 8960TIP3   OH226843   1.935   2.065   1.863 -0.4243 -0.2551 -0.0198
 8960TIP3    H126844   1.889   2.059   1.946 -2.2110 -1.6636 -1.0411
 8960TIP3    H226845   1.910   2.150   1.827  2.0548  1.3522  1.7373
 8961TIP3   OH226846   0.558   6.613   2.182 -0.0802  0.1040  0.0316
 8961TIP3    H126847   0.505   6.687   2.151  0.2032  0.5662  0.6239
 8961TIP3    H226848   0.648   6.639   2.163  0.0378  0.0232  0.4733
 8962TIP3   OH226849   2.514   0.107   2.287  0.7499  0.1553 -0.1988
 8962TIP3    H126850   2.607   0.090   2.300  0.8365  0.3636 -0.5328
 8962TIP3    H226851   2.497   0.189   2.335  0.3882 -0.6980  1.1945
 8963TIP3   OH226852   6.680   3.809   4.401 -0.1184  0.6128 -0.1118
 8963TIP3    H126853   6.631   3.886   4.428 -1.2979 -0.3799  0.7328
 8963TIP3    H226854   6.698   3.763   4.483  0.5470 -0.0254 -0.5999
 8964TIP3   OH226855   2.667   5.912   1.689 -0.2368 -0.0670 -0.0327
 8964TIP3    H126856   2.688   5.989   1.636  1.7662 -0.9873 -0.6900
 8964TIP3    H226857   2.595   5.869   1.642  0.2853  0.1089 -1.0139
 8965TIP3   OH226858   3.624   5.551   0.987 -0.1071 -0.0816  0.0162
 8965TIP3    H126859   3.533   5.568   0.961 -0.0705 -0.7539 -0.5714
 8965TIP3    H226860   3.645   5.622   1.048 -0.3970  1.2119 -1.3243
 8966TIP3   OH226861   1.037   4.836   0.426  0.1600 -0.2369  0.9923
 8966TIP3    H126862   1.112   4.878   0.384 -0.4204  0.2831  0.4679
 8966TIP3    H226863   0.966   4.899   0.418 -0.7656 -1.3511  0.0902
 8967TIP3   OH226864   7.071   5.573   3.222  0.0585 -0.1134  0.2113
 8967TIP3    H126865   7.047   5.660   3.255 -1.2359  0.3573 -1.7882
 8967TIP3    H226866   7.129   5.591   3.148 -0.6279 -0.9090 -0.5383
 8968TIP3   OH226867   2.630   5.018   4.404  0.2018 -0.0502  0.0544
 8968TIP3    H126868   2.576   5.071   4.464  2.2778  2.1404  0.1371
 8968TIP3    H226869   2.693   4.974   4.461  1.1437  0.7518 -0.3400
 8969TIP3   OH226870   0.923   5.180   0.965 -0.2805 -0.1296  0.1643
 8969TIP3    H126871   0.910   5.192   0.871 -0.7211  0.3188  0.2753
 8969TIP3    H226872   0.939   5.268   0.998  3.6367 -0.5900 -0.0002
 8970TIP3   OH226873   0.486   2.738   0.051  0.4015 -0.6730 -0.1505
 8970TIP3    H126874   0.483   2.796  -0.025  0.5499 -0.5388 -0.0548
 8970TIP3    H226875   0.527   2.791   0.119 -0.2427 -0.6035  0.1895
 8971TIP3   OH226876   3.032   1.052   2.328 -0.0191  0.5303 -0.7526
 8971TIP3    H126877   3.041   1.125   2.268  2.8036 -0.3329 -1.5339
 8971TIP3    H226878   3.073   0.978   2.283 -1.2818 -1.1505  0.6696
 8972TIP3   OH226879   2.082   2.034   4.014  0.0303  0.4859 -0.1514
 8972TIP3    H126880   2.158   2.071   3.968 -2.2153  2.9497 -2.2378
 8972TIP3    H226881   2.068   2.093   4.088  0.3418 -0.2002  0.4648
 8973TIP3   OH226882   1.730   2.411   4.381  0.1413 -0.1217 -0.3114
 8973TIP3    H126883   1.746   2.318   4.395  0.3701 -0.1565 -0.7728
 8973TIP3    H226884   1.694   2.442   4.464 -2.7765 -1.2329 -1.0342
 8974TIP3   OH226885   3.380   6.088   3.600 -0.5613 -0.7895 -0.0935
 8974TIP3    H126886   3.464   6.070   3.641 -1.0314 -2.1216  0.3316
 8974TIP3    H226887   3.401   6.112   3.510  0.1354 -4.1433 -0.9393
 8975TIP3   OH226888   4.468   1.781   3.048 -0.2825  0.0851 -0.1723
 8975TIP3    H126889   4.425   1.781   3.134 -1.3620  1.0996 -0.6954
 8975TIP3    H226890   4.440   1.862   3.007  0.9420  0.0328 -1.1492
 8976TIP3   OH226891   6.876   0.089   0.585 -0.2545  0.2514 -0.5520
 8976TIP3    H126892   6.842   0.037   0.513 -0.2902 -2.0136  0.9832
 8976TIP3    H226893   6.798   0.113   0.636  0.0066 -1.9402  1.0442
 8977TIP3   OH226894   5.658   6.625   4.072  0.4425 -0.3358  0.5212
 8977TIP3    H126895   5.593   6.677   4.120  0.3637  0.6730 -0.6581
 8977TIP3    H226896   5.608   6.579   4.005  0.6039 -1.5168  1.1620
 8978TIP3   OH226897   1.030   2.621   2.749  0.1026  0.3372 -0.2580
 8978TIP3    H126898   1.047   2.700   2.698  3.1076  1.3277  1.9560
 8978TIP3    H226899   0.971   2.650   2.819  0.6198  0.5049  0.1235
 8979TIP3   OH226900   0.823   4.923   2.762 -0.2921  0.2188  0.0221
 8979TIP3    H126901   0.762   4.978   2.714 -0.7890 -0.0531  0.3393
 8979TIP3    H226902   0.892   4.903   2.698 -0.3515  0.8012 -0.2358
 8980TIP3   OH226903   4.986   2.836   0.086 -0.1336 -0.1310 -0.2250
 8980TIP3    H126904   4.977   2.888   0.006  1.5464 -2.5463 -2.1333
 8980TIP3    H226905   4.930   2.759   0.071 -1.4474  0.3146  1.9061
 8981TIP3   OH226906   5.659   3.464   3.319 -0.4728 -0.6698  0.4358
 8981TIP3    H126907   5.677   3.448   3.227 -2.7361  1.0882 -0.4248
 8981TIP3    H226908   5.684   3.556   3.332 -0.3350 -0.8532  1.5232
 8982TIP3   OH226909   1.411   6.291   5.194  0.1494  0.0043 -0.2474
 8982TIP3    H126910   1.348   6.360   5.172 -0.0237  0.1551  0.6624
 8982TIP3    H226911   1.404   6.228   5.122 -1.4891 -0.2881  0.1229
 8983TIP3   OH226912   5.821   3.996   2.708 -0.1024  0.2861  0.8546
 8983TIP3    H126913   5.861   4.061   2.765 -1.3036  2.4230 -0.5767
 8983TIP3    H226914   5.805   4.043   2.626 -0.0893 -2.1389 -0.6276
 8984TIP3   OH226915   4.060   0.144   5.896 -0.4261 -0.0509 -0.1426
 8984TIP3    H126916   4.010   0.224   5.911  0.2970  0.2650  0.6394
 8984TIP3    H226917   3.998   0.084   5.854 -0.7451  1.1913 -1.5327
 8985TIP3   OH226918   3.163   6.415   5.240  0.2721 -0.0223  0.3078
 8985TIP3    H126919   3.097   6.464   5.192  1.1439  0.0751 -0.8168
 8985TIP3    H226920   3.114   6.369   5.308 -1.0444 -0.4952 -0.9256
 8986TIP3   OH226921   5.520   0.614   0.597  0.5401  0.2409 -0.4476
 8986TIP3    H126922   5.516   0.620   0.502 -0.3946 -1.3981 -0.5411
 8986TIP3    H226923   5.452   0.552   0.621  0.1589  1.2715  1.3803
 8987TIP3   OH226924   4.370   2.610   2.033 -0.1202  0.1854  0.6710
 8987TIP3    H126925   4.460   2.583   2.018 -0.1071 -0.3518  1.6541
 8987TIP3    H226926   4.337   2.634   1.946 -0.0708 -2.7534 -0.2545
 8988TIP3   OH226927   4.836   0.611   2.765  0.1297 -0.0335  0.2958
 8988TIP3    H126928   4.927   0.585   2.749  0.0557  0.0836 -0.3352
 8988TIP3    H226929   4.823   0.688   2.711 -0.5749 -0.4927 -0.2038
 8989TIP3   OH226930   3.739   6.795   5.001  0.1527  0.0839 -0.6191
 8989TIP3    H126931   3.690   6.721   4.966  0.1547 -0.0584 -0.3243
 8989TIP3    H226932   3.676   6.840   5.058  0.0340  0.5304 -1.0980
 8990TIP3   OH226933   1.979   5.580   1.839 -0.3803  0.0389 -0.8125
 8990TIP3    H126934   1.925   5.648   1.799 -1.8472 -0.4102  0.3203
 8990TIP3    H226935   2.018   5.533   1.765  0.1858  1.7017 -1.6176
 8991TIP3   OH226936   0.202   1.380   0.499  0.9764 -0.3407 -0.3650
 8991TIP3    H126937   0.129   1.355   0.443  0.6562  0.7366 -0.4467
 8991TIP3    H226938   0.280   1.366   0.445  0.7988 -1.0218 -0.4479
 8992TIP3   OH226939   5.864   4.097   5.488 -0.2730  0.3341  0.0935
 8992TIP3    H126940   5.954   4.130   5.486  0.1529 -0.7229 -2.6113
 8992TIP3    H226941   5.829   4.118   5.401 -3.5501  2.8201  1.7754
 8993TIP3   OH226942   1.843   0.399   2.880  0.3093 -0.1127 -0.0438
 8993TIP3    H126943   1.811   0.373   2.966 -0.5548  0.0140 -0.3163
 8993TIP3    H226944   1.885   0.484   2.895 -0.3961  0.2117  0.1543
 8994TIP3   OH226945   6.367   3.325   4.468 -0.7338  0.0288  0.7164
 8994TIP3    H126946   6.381   3.418   4.454  1.1431 -0.6329 -3.4086
 8994TIP3    H226947   6.449   3.294   4.507 -0.7867 -0.0990  0.7268
 8995TIP3   OH226948   4.762   3.178   1.828  0.0475 -0.1894  0.0519
 8995TIP3    H126949   4.819   3.151   1.756 -2.6604 -2.6466 -1.3930
 8995TIP3    H226950   4.771   3.109   1.893 -1.1544 -0.5725 -0.1673
 8996TIP3   OH226951   0.759   0.200   1.025 -0.2562  0.8928  0.3732
 8996TIP3    H126952   0.816   0.185   1.100  0.2107  1.3149  0.1084
 8996TIP3    H226953   0.812   0.252   0.965 -0.8874  1.2189  0.0894
 8997TIP3   OH226954   1.738   4.811   0.589 -0.0579  0.1495 -0.1298
 8997TIP3    H126955   1.823   4.789   0.551  1.0366 -0.0480  2.2663
 8997TIP3    H226956   1.699   4.871   0.526  3.2319  2.8157  0.1112
 8998TIP3   OH226957   5.344   1.344   4.148  0.1554  0.0757 -0.1155
 8998TIP3    H126958   5.333   1.287   4.224  0.5609 -2.3753 -1.7716
 8998TIP3    H226959   5.255   1.360   4.117  0.0937 -2.4239 -1.4658
 8999TIP3   OH226960   2.364   1.767   5.477  0.2491  0.3665  0.5015
 8999TIP3    H126961   2.298   1.832   5.500 -0.3694  0.2301 -0.8583
 8999TIP3    H226962   2.344   1.692   5.534  1.0566  1.3524  2.1869
 9000TIP3   OH226963   3.728   5.411   4.575 -0.7579  0.1255  0.2004
 9000TIP3    H126964   3.726   5.357   4.496 -0.6617 -0.3234  0.5010
 9000TIP3    H226965   3.817   5.444   4.580 -0.9284  0.6547 -0.2099
 9001TIP3   OH226966   2.720   3.260   4.466  0.1974  0.1716  0.0240
 9001TIP3    H126967   2.709   3.212   4.548  1.2986  1.2546  0.8541
 9001TIP3    H226968   2.649   3.324   4.465 -0.9256 -1.0437 -0.8021
 9002TIP3   OH226969   1.493   4.732   1.806  0.1993 -0.1569 -0.3658
 9002TIP3    H126970   1.478   4.728   1.712  0.3472 -0.6068 -0.3755
 9002TIP3    H226971   1.573   4.680   1.820  0.3693  0.1845 -0.0350
 9003TIP3   OH226972   1.275   0.787   5.513  0.0289 -0.5666  0.1628
 9003TIP3    H126973   1.304   0.873   5.545  0.0730 -0.4795 -0.1063
 9003TIP3    H226974   1.346   0.757   5.457 -0.1877 -0.5746 -0.1070
 9004TIP3   OH226975   1.612   5.010   4.730  0.2568 -0.3387  0.1524
 9004TIP3    H126976   1.637   5.086   4.782  0.7899 -0.0437 -0.5212
 9004TIP3    H226977   1.627   4.935   4.789 -2.8333  0.1799  1.7819
 9005TIP3   OH226978   2.152   4.358   1.281 -0.1772 -0.4451  0.4252
 9005TIP3    H126979   2.077   4.317   1.238 -0.2023  0.1424 -0.1006
 9005TIP3    H226980   2.159   4.312   1.365 -2.3418  0.7990  1.3673
 9006TIP3   OH226981   4.601   2.434   5.251  0.1252 -0.6072  0.0206
 9006TIP3    H126982   4.533   2.454   5.186 -0.8569 -0.5259  1.0472
 9006TIP3    H226983   4.610   2.339   5.248  1.6362 -0.4858 -1.7175
 9007TIP3   OH226984   0.816   2.180   3.623 -0.1685  0.1752 -0.5277
 9007TIP3    H126985   0.897   2.137   3.598  0.3667  0.3845  0.7392
 9007TIP3    H226986   0.799   2.243   3.553  1.2524  0.7471 -0.4050
 9008TIP3   OH226987   6.788   3.265   4.031  0.1658  0.3839  0.2021
 9008TIP3    H126988   6.734   3.296   3.958 -0.5051  2.8890  1.6552
 9008TIP3    H226989   6.856   3.331   4.040 -0.2449  0.5958  2.3304
 9009TIP3   OH226990   7.129   4.105   4.337  0.4095  0.3833  0.0761
 9009TIP3    H126991   7.174   4.074   4.416  1.9053  0.8871 -0.5445
 9009TIP3    H226992   7.170   4.057   4.265 -0.7674  0.1065 -0.4419
 9010TIP3   OH226993   5.997   6.595   1.642  0.1589  0.5820  0.5114
 9010TIP3    H126994   5.984   6.633   1.729  1.3936  1.6482  0.2576
 9010TIP3    H226995   5.909   6.589   1.605 -0.2182  1.8561  1.1375
 9011TIP3   OH226996   2.970   1.447   0.397 -0.1410  0.3406  0.6962
 9011TIP3    H126997   2.895   1.432   0.339 -1.9493  1.7497  2.4930
 9011TIP3    H226998   3.038   1.389   0.365 -2.6462 -2.5111  0.0939
 9012TIP3   OH226999   6.047   5.041   3.910  0.3298 -0.1292  0.2314
 9012TIP3    H127000   5.990   4.967   3.891  0.6330 -0.2482 -0.2199
 9012TIP3    H227001   6.083   5.022   3.997  0.5120 -0.5784  0.0585
 9013TIP3   OH227002   2.530   1.187   1.579 -0.1213  0.0893 -0.0874
 9013TIP3    H127003   2.590   1.116   1.557  0.0950 -0.0430  0.8974
 9013TIP3    H227004   2.568   1.264   1.536 -1.4739 -0.7101 -2.9484
 9014TIP3   OH227005   4.264   6.228   5.876 -0.1525 -0.0028 -0.1392
 9014TIP3    H127006   4.332   6.294   5.859 -0.9746  1.2735  1.2640
 9014TIP3    H227007   4.200   6.242   5.806  0.5998 -0.6344 -0.9680
 9015TIP3   OH227008   1.238   6.589   4.105 -0.1058 -0.0550  0.7097
 9015TIP3    H127009   1.269   6.611   4.017  1.7455  0.5106  1.4433
 9015TIP3    H227010   1.143   6.587   4.098 -0.0374  1.0195 -1.0684
 9016TIP3   OH227011   1.944   6.079   4.215  0.2714 -0.1582  0.0645
 9016TIP3    H127012   2.014   6.083   4.280  0.4304 -0.1125 -0.1113
 9016TIP3    H227013   1.956   5.995   4.172  0.9293  0.3572 -0.7710
 9017TIP3   OH227014   4.952   3.307   1.077 -0.0538  0.1123 -0.0092
 9017TIP3    H127015   4.976   3.220   1.046 -3.1467 -0.2492 -1.9189
 9017TIP3    H227016   4.893   3.291   1.151 -0.0994  0.5825  0.0631
 9018TIP3   OH227017   2.238   5.203   5.502  0.2522  0.2511 -0.5067
 9018TIP3    H127018   2.178   5.263   5.458  0.4158  1.0782  0.3605
 9018TIP3    H227019   2.203   5.194   5.591 -0.4863 -1.9620 -0.9424
 9019TIP3   OH227020   1.655   6.125   5.864 -0.1776 -0.3784 -0.1899
 9019TIP3    H127021   1.566   6.112   5.898 -0.3995  2.1494  0.3974
 9019TIP3    H227022   1.642   6.162   5.777  0.3646 -1.5322 -0.7903
 9020TIP3   OH227023   6.868   2.024   0.318  0.2588 -0.1108 -0.5961
 9020TIP3    H127024   6.952   1.995   0.284  0.1847  0.2226 -1.0657
 9020TIP3    H227025   6.824   1.944   0.346  0.0767 -0.4556 -1.8260
 9021TIP3   OH227026   2.693   6.039   1.061  0.4350  0.3326 -0.2986
 9021TIP3    H127027   2.730   6.020   1.147  0.1141 -0.9269 -0.4151
 9021TIP3    H227028   2.643   5.960   1.039  0.7556  0.5220 -1.7634
 9022TIP3   OH227029   6.674   0.719   0.828  0.4402 -0.0958 -0.1207
 9022TIP3    H127030   6.705   0.764   0.750  0.1983 -0.7487 -0.6022
 9022TIP3    H227031   6.644   0.789   0.886 -0.1209  0.3484 -0.9382
 9023TIP3   OH227032   4.403   1.598   0.646 -0.1535  0.3556 -0.2062
 9023TIP3    H127033   4.464   1.557   0.708  0.2857  0.9760 -0.2198
 9023TIP3    H227034   4.409   1.544   0.567  0.5984  0.5687 -0.3082
 9024TIP3   OH227035   2.884   0.795   4.395  0.6909 -0.3972 -0.5597
 9024TIP3    H127036   2.790   0.781   4.410  0.7539 -0.9756 -0.6964
 9024TIP3    H227037   2.924   0.711   4.416  1.4483  0.4614  1.6988
 9025TIP3   OH227038   2.441   0.519   1.978  0.3681  0.4787 -0.6635
 9025TIP3    H127039   2.493   0.598   1.958 -0.9094  1.2714 -0.9296
 9025TIP3    H227040   2.386   0.507   1.901 -1.4419  0.9655  0.4911
 9026TIP3   OH227041   5.972   5.492   1.901 -0.7698 -0.1997 -0.1560
 9026TIP3    H127042   5.880   5.480   1.876 -1.1266  1.6476  0.1798
 9026TIP3    H227043   6.007   5.554   1.836 -0.1482  0.1965  0.5412
 9027TIP3   OH227044   6.182   5.793   3.553  0.3629  0.0097 -0.0151
 9027TIP3    H127045   6.230   5.733   3.496  1.8852  1.5114 -0.3929
 9027TIP3    H227046   6.100   5.809   3.508 -0.0280 -1.6911  0.0522
 9028TIP3   OH227047   1.742   4.884   2.372  0.0350 -0.8123 -0.2185
 9028TIP3    H127048   1.769   4.975   2.365  0.6064 -0.8916  0.7516
 9028TIP3    H227049   1.688   4.868   2.295  0.6916  0.0813 -0.8732
 9029TIP3   OH227050   2.916   2.335   5.325 -0.4639 -0.0234 -0.3289
 9029TIP3    H127051   2.946   2.351   5.414 -0.6064  0.2092 -0.3222
 9029TIP3    H227052   2.964   2.398   5.271  1.6576 -1.9139 -0.7978
 9030TIP3   OH227053   3.139   1.251   5.570  0.2217 -0.3035 -0.1863
 9030TIP3    H127054   3.071   1.214   5.625 -0.4390 -0.9960 -1.4227
 9030TIP3    H227055   3.196   1.299   5.631 -0.3899 -1.1463  1.0907
 9031TIP3   OH227056   2.815   3.510   4.792  0.0723  0.1611 -0.0188
 9031TIP3    H127057   2.878   3.567   4.836 -0.0271 -0.0398  0.3932
 9031TIP3    H227058   2.841   3.512   4.700  0.4711  0.3476  0.0938
 9032TIP3   OH227059   4.525   0.263   2.053 -0.2358 -0.0889  0.1148
 9032TIP3    H127060   4.454   0.304   2.103 -1.3257 -0.1453 -1.3254
 9032TIP3    H227061   4.510   0.169   2.062 -0.3522 -0.1008 -0.2039
 9033TIP3   OH227062   0.530   0.908   4.529 -0.2226  0.2782  0.2444
 9033TIP3    H127063   0.482   0.836   4.571 -0.3589 -0.1401 -0.6014
 9033TIP3    H227064   0.505   0.902   4.436 -0.8183  1.8662  0.2617
 9034TIP3   OH227065   1.024   3.736   4.780 -0.1975 -0.0803  0.0825
 9034TIP3    H127066   1.069   3.791   4.844 -2.4604  1.9917  0.0600
 9034TIP3    H227067   1.050   3.772   4.695 -1.6762  1.0685  0.0674
 9035TIP3   OH227068   3.858   3.127   5.297 -0.2069 -0.2297 -0.3115
 9035TIP3    H127069   3.898   3.099   5.379  1.2818 -2.8167 -1.8280
 9035TIP3    H227070   3.805   3.053   5.269  0.2864  0.1165 -2.3009
 9036TIP3   OH227071   3.842   1.251   4.425 -0.2791 -0.0555  0.2540
 9036TIP3    H127072   3.753   1.218   4.439 -1.1280  0.9391 -2.2935
 9036TIP3    H227073   3.887   1.179   4.379  0.0537 -0.2914  0.9304
 9037TIP3   OH227074   2.550   6.030   5.195  0.0779 -0.9010  0.0686
 9037TIP3    H127075   2.457   6.051   5.197 -0.0451 -1.4361  0.1270
 9037TIP3    H227076   2.564   5.991   5.109  0.4955  0.2590 -0.4099
 9038TIP3   OH227077   0.288   0.180   5.451 -0.1906  0.2701 -0.1659
 9038TIP3    H127078   0.370   0.131   5.464 -1.5080 -1.4773  2.5536
 9038TIP3    H227079   0.315   0.272   5.447  1.9103 -0.2579  0.5457
 9039TIP3   OH227080   1.569   0.989   5.288  0.0124  0.1195  0.2130
 9039TIP3    H127081   1.500   1.051   5.265  1.0299  1.1640 -0.1274
 9039TIP3    H227082   1.633   0.997   5.217  0.8732 -0.2126  0.9285
 9040TIP3   OH227083   0.372   2.576   1.267 -0.6795  0.2256 -0.3760
 9040TIP3    H127084   0.289   2.577   1.314  0.6799  1.1839  2.2522
 9040TIP3    H227085   0.386   2.666   1.240 -0.0159  0.3014  0.1818
 9041TIP3   OH227086   2.697   4.294   1.435  0.0731 -0.3508  0.0261
 9041TIP3    H127087   2.772   4.276   1.492  1.6691  0.0071 -1.8312
 9041TIP3    H227088   2.661   4.208   1.414  2.4048 -0.9429 -2.0713
 9042TIP3   OH227089   4.436   0.437   1.842  0.1998  0.8057  0.1430
 9042TIP3    H127090   4.348   0.451   1.878  0.6328  0.3042  1.4552
 9042TIP3    H227091   4.474   0.369   1.897  1.0467  0.2607 -1.0725
 9043TIP3   OH227092   4.896   3.787   2.762  0.0560 -0.1133 -0.0693
 9043TIP3    H127093   4.876   3.877   2.734  0.2540 -0.1938 -0.4860
 9043TIP3    H227094   4.963   3.758   2.700 -0.5738 -0.8191 -0.4361
 9044TIP3   OH227095   4.349   2.392   4.587 -0.3749 -0.4958 -0.3875
 9044TIP3    H127096   4.430   2.412   4.634 -0.3015  1.2606 -1.1696
 9044TIP3    H227097   4.362   2.304   4.554  0.3664 -1.0267  1.2047
 9045TIP3   OH227098   0.568   0.400   2.942  0.0526  0.3235  0.1891
 9045TIP3    H127099   0.568   0.315   2.898  1.5699  1.5899 -2.5511
 9045TIP3    H227100   0.480   0.435   2.926  0.6588  0.8818 -2.2937
 9046TIP3   OH227101   5.830   2.203   3.150  0.2423  0.0608 -0.1857
 9046TIP3    H127102   5.853   2.127   3.203 -0.0413  0.3395  0.3501
 9046TIP3    H227103   5.875   2.276   3.193  0.3426  0.2261 -0.5711
 9047TIP3   OH227104   1.202   3.525   3.893  0.4298  0.5253  0.0602
 9047TIP3    H127105   1.276   3.467   3.880  0.1543  0.1896 -0.0228
 9047TIP3    H227106   1.137   3.496   3.829 -0.5857 -0.5347  1.5216
 9048TIP3   OH227107   1.831   5.244   5.316  0.2339  0.0838 -0.3630
 9048TIP3    H127108   1.790   5.195   5.387 -0.9725 -0.2609 -1.2548
 9048TIP3    H227109   1.897   5.298   5.359 -0.4660 -0.1124  1.0178
 9049TIP3   OH227110   6.509   4.407   0.668  0.2012  0.3174 -0.3108
 9049TIP3    H127111   6.518   4.403   0.763 -1.1605  0.8120 -0.1431
 9049TIP3    H227112   6.416   4.393   0.652  0.3975  0.3505 -1.5700
 9050TIP3   OH227113   4.673   2.828   1.340 -0.0637 -0.2578 -0.6137
 9050TIP3    H127114   4.722   2.860   1.265 -1.1046 -0.7459 -1.5200
 9050TIP3    H227115   4.658   2.906   1.394 -1.7684  0.7019 -2.3411
 9051TIP3   OH227116   4.522   5.197   5.104 -0.2596 -0.5167  0.3987
 9051TIP3    H127117   4.586   5.154   5.161 -0.1640 -3.9330 -1.9548
 9051TIP3    H227118   4.520   5.288   5.134  3.7141 -0.8237  2.2910
 9052TIP3   OH227119   4.076   2.183   3.280  0.1892 -0.3085  0.3476
 9052TIP3    H127120   4.078   2.091   3.253  0.6253 -0.2368  0.1246
 9052TIP3    H227121   3.987   2.211   3.261 -0.3233 -1.0318  1.6158
 9053TIP3   OH227122   1.581   3.332   4.324  0.0980 -0.5263  0.1838
 9053TIP3    H127123   1.546   3.337   4.235 -1.2991 -0.7569  0.7003
 9053TIP3    H227124   1.640   3.407   4.330 -0.4435 -0.0103 -0.6680
 9054TIP3   OH227125   0.526   6.140   0.874  0.3487 -0.8924 -0.1239
 9054TIP3    H127126   0.613   6.145   0.832  1.2930 -0.9884  1.7436
 9054TIP3    H227127   0.535   6.191   0.954 -0.8046 -2.3430  0.9702
 9055TIP3   OH227128   1.170   5.796   0.047  0.2020 -0.0408 -0.8156
 9055TIP3    H127129   1.162   5.781  -0.048 -0.7976  1.9059 -1.0762
 9055TIP3    H227130   1.080   5.795   0.079  0.5036 -0.1948  0.0475
 9056TIP3   OH227131   0.331   4.995   1.881  0.0672  0.4422 -0.4100
 9056TIP3    H127132   0.355   4.954   1.965  2.4430  1.7127 -0.3736
 9056TIP3    H227133   0.292   5.079   1.906  0.8325  0.8482 -0.5606
 9057TIP3   OH227134   6.436   1.139   3.588 -0.1481  0.0529 -0.3783
 9057TIP3    H127135   6.384   1.121   3.667 -0.8598 -0.1233 -0.8804
 9057TIP3    H227136   6.517   1.177   3.622 -0.2427 -0.4660  0.4722
 9058TIP3   OH227137   6.113   0.548   5.551  0.3396  0.0685 -0.4983
 9058TIP3    H127138   6.178   0.494   5.507  1.4240  1.9125 -1.2852
 9058TIP3    H227139   6.096   0.503   5.634  1.8724 -0.9727 -0.7164
 9059TIP3   OH227140   3.528   0.111   0.611  0.0140  0.5254 -0.7733
 9059TIP3    H127141   3.552   0.200   0.638  0.6912 -0.3857  1.9137
 9059TIP3    H227142   3.445   0.095   0.656 -0.0756 -0.2174 -1.2072
 9060TIP3   OH227143   4.617   5.636   2.522 -0.0035  0.3886  0.2647
 9060TIP3    H127144   4.691   5.602   2.471 -1.4602 -1.3573 -0.8025
 9060TIP3    H227145   4.651   5.643   2.611  1.6013  0.1433 -0.2849
 9061TIP3   OH227146   6.931   3.340   0.981 -0.5985  0.1826 -0.1036
 9061TIP3    H127147   7.001   3.389   1.024  0.4195 -0.2782 -1.1858
 9061TIP3    H227148   6.956   3.248   0.992 -0.9310  0.0180 -0.6638
 9062TIP3   OH227149   0.503   5.322   2.221 -0.2511 -0.3832  0.5045
 9062TIP3    H127150   0.598   5.336   2.225  0.0904 -2.4476  0.5464
 9062TIP3    H227151   0.466   5.408   2.240  1.6030  0.1801  1.9177
 9063TIP3   OH227152   5.980   1.381   1.216  0.6567 -0.0837  0.2481
 9063TIP3    H127153   5.923   1.369   1.140  0.1071  1.5553  0.3766
 9063TIP3    H227154   5.921   1.375   1.291  0.5655  1.9233  0.3716
 9064TIP3   OH227155   5.622   6.037   2.685  0.2329  0.2934 -0.0191
 9064TIP3    H127156   5.697   6.049   2.744 -0.0293 -0.0424  0.3865
 9064TIP3    H227157   5.655   6.064   2.600  0.5198  1.1015  0.3384
 9065TIP3   OH227158   3.152   2.571   2.543 -0.6798 -0.2092 -0.1092
 9065TIP3    H127159   3.096   2.517   2.599  1.9238 -1.9582  1.0219
 9065TIP3    H227160   3.155   2.523   2.460  0.6475 -1.2016  0.4859
 9066TIP3   OH227161   2.269   1.173   4.746 -0.0031 -0.5528  0.3398
 9066TIP3    H127162   2.320   1.139   4.672  3.0725  0.2755  1.8964
 9066TIP3    H227163   2.262   1.099   4.806  0.5971 -0.3238  0.7052
 9067TIP3   OH227164   4.168   3.128   1.618  0.2782 -0.0682 -0.3507
 9067TIP3    H127165   4.165   3.207   1.673 -1.3927  0.3799 -0.9973
 9067TIP3    H227166   4.087   3.081   1.640 -1.9024  1.4405 -4.1473
 9068TIP3   OH227167   3.578   5.103   0.402 -0.1279  0.3502  0.2203
 9068TIP3    H127168   3.598   5.161   0.476  1.3948  2.2493 -1.5487
 9068TIP3    H227169   3.660   5.056   0.387 -0.9912 -1.4424  0.8598
 9069TIP3   OH227170   0.869   1.001   0.919  0.1834  0.3943  0.5317
 9069TIP3    H127171   0.814   1.066   0.875  0.0036  0.9287  1.5017
 9069TIP3    H227172   0.807   0.935   0.950  0.1717  0.5841  0.9241
 9070TIP3   OH227173   4.006   6.223   4.646  0.3589  0.0182  0.4439
 9070TIP3    H127174   3.930   6.203   4.590 -0.6318  1.9938  0.9622
 9070TIP3    H227175   4.079   6.230   4.585  0.3258 -2.6599  0.0111
 9071TIP3   OH227176   4.962   2.267   4.611  0.1061  0.1440 -0.5920
 9071TIP3    H127177   4.977   2.272   4.517  0.4556  1.5545 -0.4756
 9071TIP3    H227178   4.881   2.317   4.625 -0.1675 -0.3987 -0.1870
 9072TIP3   OH227179   2.370   3.135   1.384 -0.3769 -0.0187 -0.0577
 9072TIP3    H127180   2.293   3.110   1.436 -0.7199 -0.1632 -0.6198
 9072TIP3    H227181   2.372   3.070   1.313  0.4504 -0.2047  0.1243
 9073TIP3   OH227182   5.485   1.954   4.570 -0.2500  0.6684 -0.1834
 9073TIP3    H127183   5.580   1.946   4.567 -0.2551 -1.8663  2.2734
 9073TIP3    H227184   5.465   1.979   4.660 -1.9312  1.3194 -0.6918
 9074TIP3   OH227185   5.620   4.931   0.863 -0.2401  0.0266 -0.5003
 9074TIP3    H127186   5.666   4.850   0.844  0.1695  0.5127 -1.6808
 9074TIP3    H227187   5.584   4.959   0.779  1.6993  2.3196 -0.6657
 9075TIP3   OH227188   6.889   0.384   4.721 -0.1018  0.5287 -0.3215
 9075TIP3    H127189   6.945   0.435   4.663  0.4800 -0.5857 -0.7793
 9075TIP3    H227190   6.859   0.446   4.787  2.1517  1.0418  0.2884
 9076TIP3   OH227191   2.945   1.117   5.214 -0.4330 -0.1686  0.0909
 9076TIP3    H127192   2.974   1.100   5.304 -0.1882  1.0746  0.2791
 9076TIP3    H227193   2.993   1.055   5.160 -0.0370 -0.4400  0.7499
 9077TIP3   OH227194   5.230   0.557   0.459 -0.2034 -0.8544 -0.1485
 9077TIP3    H127195   5.170   0.518   0.522  0.2029 -0.6384  0.3748
 9077TIP3    H227196   5.212   0.651   0.464  0.4304 -0.7510  0.2805
 9078TIP3   OH227197   1.901   3.363   2.370 -0.8636  0.1816  0.1091
 9078TIP3    H127198   1.868   3.311   2.297  0.3839  0.1839 -0.4911
 9078TIP3    H227199   1.845   3.440   2.373  0.0161  0.9687 -1.8975
 9079TIP3   OH227200   7.229   0.253   1.433  0.5335  0.0187 -0.5557
 9079TIP3    H127201   7.167   0.296   1.373 -0.6215  0.6394  1.0321
 9079TIP3    H227202   7.237   0.164   1.399 -2.6758 -0.6833  0.1491
 9080TIP3   OH227203   0.549   6.381   5.560  0.1339 -0.2997 -0.4149
 9080TIP3    H127204   0.616   6.450   5.567  0.4400 -0.6999  0.6927
 9080TIP3    H227205   0.486   6.401   5.629 -0.6317 -0.2333 -1.1135
 9081TIP3   OH227206   6.708   1.775   5.398  0.3795 -0.1092 -0.2764
 9081TIP3    H127207   6.693   1.764   5.492  2.7965  1.2590  0.3487
 9081TIP3    H227208   6.688   1.868   5.381  0.5782 -0.1854 -0.9720
 9082TIP3   OH227209   4.774   2.667   2.919  0.2368 -0.0649 -0.7163
 9082TIP3    H127210   4.708   2.698   2.981  2.3915  0.7891  1.3236
 9082TIP3    H227211   4.747   2.703   2.835 -1.1792  1.3653  0.2967
 9083TIP3   OH227212   0.518   3.160   5.017  0.2334  0.3149 -0.1333
 9083TIP3    H127213   0.506   3.211   4.936 -2.8633  0.4795  0.3008
 9083TIP3    H227214   0.484   3.217   5.086  0.4869 -0.7955  0.9425
 9084TIP3   OH227215   3.513   3.015   4.173 -0.5410 -0.4828  0.5496
 9084TIP3    H127216   3.490   2.961   4.097  0.7033 -1.2881  0.7293
 9084TIP3    H227217   3.519   3.104   4.139  0.7011 -0.9301 -0.4652
 9085TIP3   OH227218   4.400   2.298   1.858 -0.6244  0.3341 -0.3167
 9085TIP3    H127219   4.410   2.245   1.779  0.2700  0.1249 -0.0738
 9085TIP3    H227220   4.454   2.253   1.924  0.2390  1.5883 -0.1281
 9086TIP3   OH227221   1.829   3.160   0.500 -0.2648  0.1269 -0.4371
 9086TIP3    H127222   1.755   3.102   0.480  0.0952  0.0927 -1.7204
 9086TIP3    H227223   1.906   3.111   0.472  0.3248 -0.0487  1.3573
 9087TIP3   OH227224   1.692   6.030   5.573  0.6941 -0.1078  0.0756
 9087TIP3    H127225   1.672   5.937   5.583  0.7381 -0.0987  0.2529
 9087TIP3    H227226   1.610   6.069   5.542  0.2513  0.0266  1.3349
 9088TIP3   OH227227   5.113   1.972   5.692  0.5652  0.6086 -0.4355
 9088TIP3    H127228   5.035   2.024   5.674 -0.8299 -0.6003  1.7237
 9088TIP3    H227229   5.159   2.020   5.761 -0.9470 -1.0710  1.8691
 9089TIP3   OH227230   3.035   6.622   3.943  0.5532  0.3473 -0.1054
 9089TIP3    H127231   3.036   6.613   4.038 -0.0296 -1.4966 -0.2408
 9089TIP3    H227232   3.015   6.534   3.910 -1.0075  1.2860 -1.8784
 9090TIP3   OH227233   3.755   6.483   5.564 -0.0041 -0.2571  0.3292
 9090TIP3    H127234   3.777   6.474   5.471  0.2762  1.2881  0.2222
 9090TIP3    H227235   3.713   6.569   5.570 -0.4464 -0.5446  1.5635
 9091TIP3   OH227236   2.090   6.176   0.042  0.9616 -0.9280 -0.1016
 9091TIP3    H127237   2.169   6.149  -0.004  0.9392  3.0679 -3.0356
 9091TIP3    H227238   2.045   6.234  -0.019 -2.8006 -0.6587  2.5370
 9092TIP3   OH227239   2.489   2.841   4.561 -0.1501  0.5141 -0.1349
 9092TIP3    H127240   2.582   2.863   4.557 -0.1350  0.5265  0.2195
 9092TIP3    H227241   2.487   2.745   4.557 -0.0586  0.4639  0.8039
 9093TIP3   OH227242   5.341   4.658   0.429 -0.4036  0.0961  0.3965
 9093TIP3    H127243   5.298   4.637   0.512 -1.2092  0.1955  0.0069
 9093TIP3    H227244   5.414   4.597   0.424 -1.0439 -0.7015  0.6288
 9094TIP3   OH227245   2.141   3.035   4.364 -0.3661 -0.1465 -0.1175
 9094TIP3    H127246   2.197   3.107   4.335 -0.1313 -0.3689 -0.2284
 9094TIP3    H227247   2.125   2.984   4.284  3.4632 -2.9861  0.5913
 9095TIP3   OH227248   0.096   5.199   2.805 -0.0263 -0.0623  0.0580
 9095TIP3    H127249   0.075   5.107   2.820  0.1580 -0.3788 -1.4897
 9095TIP3    H227250   0.192   5.202   2.799 -0.1199 -0.2309 -2.4105
 9096TIP3   OH227251   4.888   6.233   5.018 -0.4982 -0.5667  0.8803
 9096TIP3    H127252   4.854   6.200   5.101 -1.2382  1.0178  1.2355
 9096TIP3    H227253   4.982   6.241   5.032 -0.2982 -2.3332  0.8170
 9097TIP3   OH227254   1.679   4.074   2.844  0.0224 -0.1672  0.1752
 9097TIP3    H127255   1.615   4.138   2.875 -1.6746 -1.5599 -0.3079
 9097TIP3    H227256   1.693   4.015   2.918 -0.4730 -0.7722 -0.1973
 9098TIP3   OH227257   1.241   2.715   5.373  0.0176  0.3883 -0.0244
 9098TIP3    H127258   1.291   2.639   5.401  1.1980  0.2990 -2.1554
 9098TIP3    H227259   1.275   2.787   5.426  1.2546  0.0144 -0.2827
 9099TIP3   OH227260   6.026   4.387   0.171  0.0400  0.2835 -0.1176
 9099TIP3    H127261   5.934   4.390   0.195  0.3489  0.2611  1.1583
 9099TIP3    H227262   6.036   4.453   0.102 -0.4779  2.0026  1.3870
 9100TIP3   OH227263   0.911   4.560   2.892  0.0811  0.0152 -0.2273
 9100TIP3    H127264   0.819   4.556   2.918  0.0008  0.2795 -0.4795
 9100TIP3    H227265   0.910   4.566   2.797  0.3984 -2.2570 -0.4431
 9101TIP3   OH227266   2.848   2.067   3.504  0.3259  0.4405  0.3456
 9101TIP3    H127267   2.866   2.142   3.560 -2.1563 -0.8787  3.2124
 9101TIP3    H227268   2.789   2.100   3.437 -0.2076  1.2067  1.1758
 9102TIP3   OH227269   4.231   0.215   2.564  0.0630  0.2256  0.1098
 9102TIP3    H127270   4.228   0.160   2.642  0.4608  0.6370  0.4220
 9102TIP3    H227271   4.302   0.277   2.581  1.7758 -1.1598 -1.5783
 9103TIP3   OH227272   3.447   2.610   4.432 -0.1072  0.2077  0.2712
 9103TIP3    H127273   3.401   2.665   4.495 -1.6170 -0.7542  0.0658
 9103TIP3    H227274   3.440   2.522   4.467 -2.9217 -0.7142 -2.1726
 9104TIP3   OH227275   4.369   6.217   1.882 -0.4799  0.5935  0.1148
 9104TIP3    H127276   4.335   6.286   1.938 -0.2656 -0.0051  0.9956
 9104TIP3    H227277   4.464   6.230   1.884 -0.5368  1.6259 -1.5139
 9105TIP3   OH227278   2.191   2.218   1.920 -0.4568 -0.3772 -0.5417
 9105TIP3    H127279   2.173   2.265   1.839 -1.6447  1.5455  0.7561
 9105TIP3    H227280   2.116   2.160   1.932 -0.8016  0.1206 -0.2849
 9106TIP3   OH227281   5.862   2.194   2.859 -0.3950  0.1532 -0.2643
 9106TIP3    H127282   5.912   2.264   2.818  0.9492  0.7593  2.1891
 9106TIP3    H227283   5.872   2.209   2.953 -1.4540 -2.3751  0.3540
 9107TIP3   OH227284   5.224   4.790   0.880 -0.2819  0.5698  0.4421
 9107TIP3    H127285   5.295   4.749   0.831  0.0304 -0.3645  1.6265
 9107TIP3    H227286   5.145   4.767   0.832 -0.1384 -1.6569  1.1525
 9108TIP3   OH227287   1.467   0.124   4.896 -0.7006 -0.3876 -0.0983
 9108TIP3    H127288   1.462   0.113   4.991  0.2208 -1.5893 -0.1559
 9108TIP3    H227289   1.401   0.063   4.862 -0.1150 -0.9535 -0.2479
 9109TIP3   OH227290   3.353   0.619   2.844  0.1041 -0.3412 -0.1384
 9109TIP3    H127291   3.413   0.679   2.889  0.5327 -0.6802 -0.2536
 9109TIP3    H227292   3.278   0.674   2.819  0.4463  0.1214 -0.1537
 9110TIP3   OH227293   3.112   0.561   1.273  0.0238  0.0744  0.2468
 9110TIP3    H127294   3.030   0.518   1.249 -1.1700  2.1155  0.3426
 9110TIP3    H227295   3.147   0.509   1.345 -0.8471 -1.2117 -0.2329
 9111TIP3   OH227296   0.846   4.055   3.547 -0.1708  0.2352  0.1790
 9111TIP3    H127297   0.871   4.136   3.592  0.5866 -0.1903  0.5359
 9111TIP3    H227298   0.928   4.008   3.534 -0.6149 -0.5389  0.0957
 9112TIP3   OH227299   1.777   2.323   1.694 -0.0186 -0.5442  0.6634
 9112TIP3    H127300   1.706   2.283   1.743  0.6065 -1.9909  0.4535
 9112TIP3    H227301   1.752   2.312   1.602 -0.3716  0.6022  0.6050
 9113TIP3   OH227302   0.812   0.543   1.452  0.2412  0.2897 -0.0912
 9113TIP3    H127303   0.750   0.542   1.525 -1.5886  1.4939 -1.5524
 9113TIP3    H227304   0.843   0.452   1.446 -1.2534 -0.3209  0.8028
 9114TIP3   OH227305   7.125   0.658   2.462 -0.6190  0.1117  0.1561
 9114TIP3    H127306   7.182   0.585   2.484  1.7557  1.9710  0.5188
 9114TIP3    H227307   7.109   0.649   2.368  1.3690  0.2466 -0.2241
 9115TIP3   OH227308   6.081   6.457   2.296  0.5150 -0.1457 -0.1412
 9115TIP3    H127309   6.174   6.450   2.274  0.1925 -3.0451 -1.0771
 9115TIP3    H227310   6.038   6.477   2.213  0.2468  0.9840  0.2512
 9116TIP3   OH227311   3.999   1.659   4.760 -0.0827  0.9777  0.4876
 9116TIP3    H127312   3.985   1.750   4.735  0.0266  1.4677  2.1217
 9116TIP3    H227313   3.923   1.636   4.813 -1.7082 -0.9059 -2.3781
 9117TIP3   OH227314   1.560   4.538   5.342 -0.2158  0.2939  0.0430
 9117TIP3    H127315   1.534   4.509   5.254  1.2969  1.0443 -0.6842
 9117TIP3    H227316   1.548   4.461   5.397 -1.9026  0.0157 -0.6559
 9118TIP3   OH227317   1.755   6.619   4.568  0.6764 -0.8390  0.0275
 9118TIP3    H127318   1.811   6.648   4.640  1.8289  0.6182 -1.4014
 9118TIP3    H227319   1.811   6.564   4.514  0.6156  0.2187 -1.1447
 9119TIP3   OH227320   2.089   4.594   5.325 -0.4251 -0.4220 -0.8570
 9119TIP3    H127321   2.058   4.508   5.354 -0.6897 -0.0020  0.1256
 9119TIP3    H227322   2.029   4.620   5.256 -0.7524 -0.7222 -0.6851
 9120TIP3   OH227323   4.098   2.997   3.127 -0.9082  0.2553 -0.2586
 9120TIP3    H127324   4.060   3.036   3.049 -0.3469 -0.3559 -0.8500
 9120TIP3    H227325   4.026   2.948   3.167 -0.8577 -0.6194 -1.1883
 9121TIP3   OH227326   1.684   0.608   4.730  0.0193  0.0778 -0.3349
 9121TIP3    H127327   1.755   0.606   4.665  0.7966  0.8767  0.4650
 9121TIP3    H227328   1.701   0.532   4.785  0.9021  0.8446  0.4925
 9122TIP3   OH227329   4.341   0.163   4.252 -0.3002 -0.1209  0.5805
 9122TIP3    H127330   4.288   0.093   4.214  1.8110 -1.2006 -0.5966
 9122TIP3    H227331   4.321   0.160   4.346 -2.4192 -0.3217  0.1563
 9123TIP3   OH227332   6.509   2.659   5.529  0.6481  0.2319 -0.1109
 9123TIP3    H127333   6.578   2.692   5.587  0.7229 -2.4373  1.5111
 9123TIP3    H227334   6.533   2.568   5.513 -0.2549  0.4217 -3.1365
 9124TIP3   OH227335   4.517   3.392   4.331 -0.1954  0.2650 -0.0657
 9124TIP3    H127336   4.547   3.317   4.383 -0.0171 -0.7096 -1.5073
 9124TIP3    H227337   4.427   3.370   4.309  0.2719 -0.2044 -1.6235
 9125TIP3   OH227338   5.645   4.129   5.020  0.0677 -0.0846  0.6416
 9125TIP3    H127339   5.681   4.203   4.970 -0.0741 -0.6253 -0.2966
 9125TIP3    H227340   5.566   4.163   5.060 -0.9435 -0.1425 -1.1719
 9126TIP3   OH227341   6.850   5.180   0.706 -0.4547  0.7301  0.2705
 9126TIP3    H127342   6.804   5.105   0.744  0.1547  0.1563 -0.0981
 9126TIP3    H227343   6.904   5.142   0.637 -0.6047  1.5955 -0.3411
 9127TIP3   OH227344   4.168   4.318   4.255 -0.7624 -0.0798  0.0124
 9127TIP3    H127345   4.091   4.374   4.261  1.3228  3.0777  0.3007
 9127TIP3    H227346   4.198   4.308   4.345 -0.1669 -0.1559 -0.1832
 9128TIP3   OH227347   6.512   1.108   1.830 -1.0695 -0.0956 -0.0159
 9128TIP3    H127348   6.450   1.152   1.887 -1.0797  0.1601 -0.2204
 9128TIP3    H227349   6.503   1.154   1.746 -0.9250 -0.3475 -0.1681
 9129TIP3   OH227350   3.574   5.442   2.608 -0.6534 -0.2158  0.1301
 9129TIP3    H127351   3.531   5.356   2.610 -1.9376  0.3562 -1.0650
 9129TIP3    H227352   3.555   5.480   2.693 -0.1679 -1.0726  0.6292
 9130TIP3   OH227353   1.645   1.869   5.214 -0.0645  0.1130  0.3373
 9130TIP3    H127354   1.728   1.842   5.253 -0.5226 -0.6429  0.8136
 9130TIP3    H227355   1.593   1.899   5.288 -0.1649  0.7306  0.0184
 9131TIP3   OH227356   6.969   0.231   4.308 -0.4987 -0.6283  0.3266
 9131TIP3    H127357   7.033   0.161   4.295  0.5958  0.3282  0.4495
 9131TIP3    H227358   6.966   0.277   4.224 -0.6599 -0.3620  0.4760
 9132TIP3   OH227359   3.591   1.644   1.549 -0.1134  0.4995 -0.2209
 9132TIP3    H127360   3.595   1.728   1.504  1.1505  0.7548  0.3258
 9132TIP3    H227361   3.682   1.612   1.549 -0.3593 -0.2576  0.6892
 9133TIP3   OH227362   1.965   4.832   5.425  0.0582  0.1307 -0.1761
 9133TIP3    H127363   1.937   4.813   5.514 -1.8249 -0.1015 -0.7601
 9133TIP3    H227364   2.026   4.763   5.403 -0.9940 -0.9853  0.2771
 9134TIP3   OH227365   3.805   1.509   0.627  0.1492  0.1956 -0.2623
 9134TIP3    H127366   3.790   1.419   0.600 -1.1347  0.3849 -0.2307
 9134TIP3    H227367   3.818   1.504   0.722  3.8985 -0.3731 -0.6245
 9135TIP3   OH227368   5.336   3.035   4.563 -0.7492 -0.3130 -0.2158
 9135TIP3    H127369   5.281   3.027   4.485  0.6407 -1.4370 -1.1452
 9135TIP3    H227370   5.388   3.113   4.547  0.2022 -1.0543 -0.9138
 9136TIP3   OH227371   0.925   0.643   0.333  0.0321  0.5236  0.4418
 9136TIP3    H127372   0.895   0.596   0.410  0.8557  0.5162  0.7711
 9136TIP3    H227373   1.017   0.618   0.325 -0.3803 -0.6029 -1.3690
 9137TIP3   OH227374   0.923   5.159   0.678  0.1181 -0.0469  0.1625
 9137TIP3    H127375   0.891   5.069   0.676 -2.6620  0.8488 -0.3571
 9137TIP3    H227376   0.956   5.175   0.590  2.0917 -0.9656  0.6823
 9138TIP3   OH227377   5.588   5.257   2.876 -0.6675  0.8113 -0.2185
 9138TIP3    H127378   5.545   5.326   2.927 -1.0065  0.6788 -0.3189
 9138TIP3    H227379   5.554   5.176   2.912 -1.2391  0.7257 -0.9295
 9139TIP3   OH227380   0.354   1.508   2.393  0.0048 -0.6085 -0.0550
 9139TIP3    H127381   0.375   1.525   2.485  2.9420  0.2591 -0.7715
 9139TIP3    H227382   0.416   1.440   2.366 -0.8045 -0.8517 -1.4287
 9140TIP3   OH227383   1.664   0.428   2.457  0.3350  0.1681  0.0535
 9140TIP3    H127384   1.682   0.334   2.456  0.2932  0.1453  0.8368
 9140TIP3    H227385   1.737   0.465   2.505 -0.3565  0.3787  0.9564
 9141TIP3   OH227386   0.218   6.453   5.805  0.2605 -0.0721 -0.3372
 9141TIP3    H127387   0.160   6.525   5.779 -0.1718  0.3658  1.6705
 9141TIP3    H227388   0.303   6.495   5.821  1.2938 -0.7412 -3.4605
 9142TIP3   OH227389   5.242   0.383   3.098 -0.1835  1.3521 -0.0002
 9142TIP3    H127390   5.184   0.457   3.119 -0.4588  1.4750 -1.1343
 9142TIP3    H227391   5.275   0.354   3.183 -0.9611  2.0572  0.5634
 9143TIP3   OH227392   6.007   0.203   4.289 -0.2050  0.2031  0.4605
 9143TIP3    H127393   5.987   0.295   4.268 -0.5405 -0.1459 -0.8509
 9143TIP3    H227394   6.082   0.208   4.348  0.4185  1.2926 -0.3782
 9144TIP3   OH227395   5.770   1.279   0.723 -0.2221 -0.2486 -0.0134
 9144TIP3    H127396   5.803   1.316   0.642  1.4535  0.0394  0.7659
 9144TIP3    H227397   5.683   1.318   0.733 -0.6563 -0.6434 -1.8688
 9145TIP3   OH227398   1.689   5.747   5.617 -0.0189  0.0500  0.2504
 9145TIP3    H127399   1.739   5.685   5.564  0.1062  0.0116  0.4142
 9145TIP3    H227400   1.602   5.708   5.623 -0.2488  0.4237 -0.5580
 9146TIP3   OH227401   3.200   2.933   2.910  0.7209  0.2564 -0.3684
 9146TIP3    H127402   3.199   2.846   2.871  2.0379 -0.3798  0.9348
 9146TIP3    H227403   3.129   2.980   2.866 -1.4061 -2.0946  0.3455
 9147TIP3   OH227404   5.197   5.239   2.894  0.3042 -0.3424 -0.3438
 9147TIP3    H127405   5.157   5.259   2.978  1.6564  0.7508  0.0928
 9147TIP3    H227406   5.186   5.320   2.843  0.2849 -0.6852 -0.8890
 9148TIP3   OH227407   2.806   6.095   3.595 -0.0363  0.6445  0.1288
 9148TIP3    H127408   2.718   6.103   3.632  0.7093  2.9168  1.6090
 9148TIP3    H227409   2.812   6.004   3.567 -3.7808  0.9439 -2.5246
 9149TIP3   OH227410   3.400   1.056   1.487 -0.1048 -0.5354 -0.1456
 9149TIP3    H127411   3.314   1.052   1.528  0.7966 -2.5340  1.7600
 9149TIP3    H227412   3.431   1.145   1.503 -1.0679 -0.3421  0.7533
 9150TIP3   OH227413   6.437   6.416   3.475 -0.5425 -0.1735 -0.5021
 9150TIP3    H127414   6.366   6.458   3.525 -0.0115  1.4359 -1.0636
 9150TIP3    H227415   6.517   6.444   3.519 -0.1080  0.5724 -1.7440
 9151TIP3   OH227416   2.721   1.784   0.682  0.0360  0.3141  0.1225
 9151TIP3    H127417   2.642   1.802   0.632  1.5524 -1.2615 -3.1326
 9151TIP3    H227418   2.771   1.866   0.679 -0.0790  0.3612 -0.6087
 9152TIP3   OH227419   4.326   2.855   0.643  0.0555 -0.0618 -0.4610
 9152TIP3    H127420   4.275   2.908   0.704  0.4165 -0.3043  0.0626
 9152TIP3    H227421   4.317   2.766   0.676  1.5155 -0.0085  0.1677
 9153TIP3   OH227422   2.815   5.271   2.516  0.3459  0.1207  0.2114
 9153TIP3    H127423   2.753   5.307   2.453 -0.2895 -1.4005 -0.0753
 9153TIP3    H227424   2.763   5.212   2.570  1.4973 -1.0068  0.1221
 9154TIP3   OH227425   3.377   3.697   3.741 -0.1403  0.4393  0.3845
 9154TIP3    H127426   3.347   3.787   3.727 -4.1327 -0.8331 -0.5460
 9154TIP3    H227427   3.343   3.648   3.667  2.7004 -1.8088  0.3628
 9155TIP3   OH227428   0.935   5.147   0.359  0.0328 -0.4513  0.0307
 9155TIP3    H127429   0.909   5.237   0.377  1.0848 -0.3171  1.0012
 9155TIP3    H227430   1.030   5.147   0.370  0.2636 -1.3008 -1.6876
 9156TIP3   OH227431   5.709   1.621   1.013 -0.1168  0.0181  0.0377
 9156TIP3    H127432   5.789   1.667   0.989  0.0711  0.2291  1.0295
 9156TIP3    H227433   5.693   1.647   1.104 -2.2015  1.2808 -0.6148
 9157TIP3   OH227434   5.281   2.523   4.356 -0.3230 -0.0280 -1.4763
 9157TIP3    H127435   5.214   2.590   4.339 -1.9437 -0.6255  1.7635
 9157TIP3    H227436   5.363   2.572   4.363 -1.3060  1.5259 -0.1717
 9158TIP3   OH227437   2.435   5.697   4.428 -0.2303 -0.4027  0.3824
 9158TIP3    H127438   2.485   5.656   4.356 -2.0734 -0.3418 -1.0093
 9158TIP3    H227439   2.465   5.651   4.506  5.5398  2.7368  0.5700
 9159TIP3   OH227440   5.003   2.649   1.503  0.1970 -0.3602 -0.0109
 9159TIP3    H127441   4.936   2.593   1.543 -0.8870  0.9414  0.0631
 9159TIP3    H227442   5.086   2.613   1.534 -0.4626 -1.7740  0.2172
 9160TIP3   OH227443   0.510   2.496   0.960 -0.4063 -0.6782  0.0090
 9160TIP3    H127444   0.549   2.469   1.043  0.6642 -1.3056 -0.6669
 9160TIP3    H227445   0.562   2.450   0.893 -1.0076  0.0879 -1.0183
 9161TIP3   OH227446   2.797   1.921   3.730  0.1230 -0.3437 -0.0384
 9161TIP3    H127447   2.821   1.833   3.702  1.1855 -0.2635  0.5499
 9161TIP3    H227448   2.805   1.975   3.652 -1.6822 -0.9531 -0.6863
 9162TIP3   OH227449   3.807   2.931   2.512 -0.0968 -0.3658  0.4565
 9162TIP3    H127450   3.867   2.894   2.577  0.1021 -1.4850 -0.3243
 9162TIP3    H227451   3.834   2.890   2.429 -0.9219  0.3386 -0.1792
 9163TIP3   OH227452   0.189   0.967   5.075 -0.5193 -0.2461  0.2848
 9163TIP3    H127453   0.147   0.938   4.994  2.6269 -1.0396 -1.1871
 9163TIP3    H227454   0.283   0.962   5.057  0.2885  1.1577  3.4567
 9164TIP3   OH227455   0.635   1.101   0.838  0.2448 -0.1769  0.3136
 9164TIP3    H127456   0.553   1.093   0.887  0.1563 -1.2769  0.0169
 9164TIP3    H227457   0.608   1.123   0.749  0.3665  0.9694  0.5360
 9165TIP3   OH227458   0.762   4.917   0.351  0.2986 -0.0936  0.2651
 9165TIP3    H127459   0.791   5.008   0.347  0.6186 -0.2269 -0.4538
 9165TIP3    H227460   0.680   4.921   0.401 -0.8328  0.8808 -1.5688
 9166TIP3   OH227461   6.309   1.917   5.340  0.0921 -0.0026  0.6141
 9166TIP3    H127462   6.397   1.935   5.309  0.9549 -2.3488  1.4831
 9166TIP3    H227463   6.278   1.844   5.286 -0.7945 -0.0733  1.1874
 9167TIP3   OH227464   6.432   5.800   4.435 -0.8752  0.0585 -0.1151
 9167TIP3    H127465   6.504   5.773   4.378 -0.3684 -0.2586  0.6651
 9167TIP3    H227466   6.400   5.718   4.473  0.1594  0.4386  1.6594
 9168TIP3   OH227467   6.570   4.188   2.372 -0.2572  0.2149  0.3819
 9168TIP3    H127468   6.515   4.129   2.423 -1.4314  0.2968 -0.7257
 9168TIP3    H227469   6.626   4.232   2.436 -0.9511 -0.4452  1.4525
 9169TIP3   OH227470   3.924   4.090   5.518  0.0562 -0.0404  0.1464
 9169TIP3    H127471   3.962   4.017   5.469 -0.8968 -0.5706  0.1820
 9169TIP3    H227472   3.891   4.049   5.598 -0.5241  0.4287  0.1465
 9170TIP3   OH227473   3.909   4.436   4.238 -0.6783  0.2248 -0.7642
 9170TIP3    H127474   3.936   4.437   4.146 -1.8223  0.7307 -1.1291
 9170TIP3    H227475   3.820   4.400   4.236 -0.3909 -0.5797  0.2565
 9171TIP3   OH227476   0.779   6.619   4.335 -0.1696 -1.0572  0.2833
 9171TIP3    H127477   0.727   6.545   4.365  1.1461 -2.0374  0.2528
 9171TIP3    H227478   0.717   6.677   4.291 -1.4869 -1.3872  1.6576
 9172TIP3   OH227479   5.451   4.112   0.438  0.1132 -0.0064 -0.0648
 9172TIP3    H127480   5.530   4.057   0.440 -0.3239 -0.6929 -0.9114
 9172TIP3    H227481   5.408   4.089   0.356 -0.6476  0.8278  0.0848
 9173TIP3   OH227482   1.401   3.288   4.535 -0.0857 -0.4374  0.1223
 9173TIP3    H127483   1.460   3.271   4.462 -0.7564 -0.2643 -0.4685
 9173TIP3    H227484   1.444   3.358   4.585 -0.3062  0.4673 -0.9166
 9174TIP3   OH227485   0.366   1.734   5.766  0.0758  0.8491  0.6752
 9174TIP3    H127486   0.351   1.729   5.672 -1.3650  1.8210  0.8282
 9174TIP3    H227487   0.428   1.806   5.777  3.4192 -1.7054  0.2317
 9175TIP3   OH227488   0.264   4.659   5.011 -0.5893 -0.1905 -0.6395
 9175TIP3    H127489   0.233   4.663   5.102 -0.2940 -0.3128 -0.5320
 9175TIP3    H227490   0.332   4.726   5.006  2.1088 -2.6239  0.2928
 9176TIP3   OH227491   3.671   1.206   5.841 -0.4937 -0.3952 -0.2058
 9176TIP3    H127492   3.752   1.218   5.890  0.6028 -0.7345 -1.8404
 9176TIP3    H227493   3.632   1.293   5.837  0.6186  0.0980 -0.7403
 9177TIP3   OH227494   2.141   4.648   1.318 -0.1318 -0.5758  0.5215
 9177TIP3    H127495   2.106   4.559   1.311 -0.1669 -0.5164 -0.0488
 9177TIP3    H227496   2.063   4.703   1.326 -0.2548 -0.3306 -1.8635
 9178TIP3   OH227497   3.832   1.531   4.355 -0.5035  0.0532  0.5972
 9178TIP3    H127498   3.741   1.550   4.337 -0.5087  0.2590  0.8281
 9178TIP3    H227499   3.832   1.440   4.386 -0.4565 -0.3974 -0.6607
 9179TIP3   OH227500   6.412   1.622   4.012 -0.1795 -0.7388  0.0673
 9179TIP3    H127501   6.500   1.599   3.983  0.4166 -1.4581  2.2606
 9179TIP3    H227502   6.426   1.680   4.087 -1.6297  0.6435 -0.6617
 9180TIP3   OH227503   4.004   3.801   0.239 -0.3184 -0.2482  0.3398
 9180TIP3    H127504   3.995   3.728   0.178 -0.8029  0.3875 -0.3611
 9180TIP3    H227505   3.939   3.783   0.307 -1.4363  0.2414 -0.5672
 9181TIP3   OH227506   1.629   4.356   2.545 -0.2088  0.5022 -0.0970
 9181TIP3    H127507   1.557   4.354   2.608 -1.9668  1.4443 -1.9538
 9181TIP3    H227508   1.612   4.282   2.487  1.3610 -0.3348  0.4532
 9182TIP3   OH227509   0.224   5.374   1.885 -0.0784 -0.3265 -0.6635
 9182TIP3    H127510   0.129   5.385   1.891 -0.0318 -0.1533 -0.1964
 9182TIP3    H227511   0.247   5.327   1.966  0.0996 -1.2847 -1.2556
 9183TIP3   OH227512   3.087   3.543   3.879 -0.0456  0.8654  0.3802
 9183TIP3    H127513   3.113   3.607   3.812 -1.6061  1.3198  0.1538
 9183TIP3    H227514   3.078   3.461   3.831 -4.0418  1.7356 -0.7813
 9184TIP3   OH227515   2.653   1.147   2.175 -0.3214  0.5732 -0.2206
 9184TIP3    H127516   2.679   1.221   2.230 -1.8107  0.8661  0.1372
 9184TIP3    H227517   2.671   1.177   2.086 -2.4794  2.1158 -0.2258
 9185TIP3   OH227518   4.457   0.989   2.074 -0.2615  0.5022  0.3625
 9185TIP3    H127519   4.536   0.940   2.097 -1.3869 -1.2912  0.6076
 9185TIP3    H227520   4.436   0.960   1.986 -0.4174  1.3233  0.1188
 9186TIP3   OH227521   3.312   4.754   2.610  0.3069 -0.1160  0.5756
 9186TIP3    H127522   3.238   4.774   2.553  0.8814 -1.4171 -0.6786
 9186TIP3    H227523   3.312   4.659   2.618 -0.3731  0.0182  3.6706
 9187TIP3   OH227524   5.730   2.782   1.621  0.2952 -0.3070  0.7457
 9187TIP3    H127525   5.724   2.727   1.543 -0.6072  0.6150  0.1265
 9187TIP3    H227526   5.642   2.819   1.631  0.2313 -0.8818  2.5793
 9188TIP3   OH227527   5.308   6.310   3.995  0.5203 -0.4625 -0.3777
 9188TIP3    H127528   5.275   6.260   4.070 -0.1326  0.5282  0.0150
 9188TIP3    H227529   5.401   6.322   4.013  0.3694 -0.2336  0.2879
 9189TIP3   OH227530   4.149   1.029   2.862  0.4043  0.3721  0.2667
 9189TIP3    H127531   4.206   1.086   2.913  1.4440 -0.6441  0.2722
 9189TIP3    H227532   4.164   1.054   2.771  0.6987  0.2591  0.2837
 9190TIP3   OH227533   6.751   4.583   0.901 -0.2556  0.6828  0.0564
 9190TIP3    H127534   6.800   4.665   0.897  0.3458  0.3314 -0.0203
 9190TIP3    H227535   6.815   4.519   0.933 -1.0301  0.4762  1.2320
 9191TIP3   OH227536   4.140   3.695   5.816 -0.0917  0.9191  0.3303
 9191TIP3    H127537   4.180   3.753   5.881  0.0968  1.1584  0.0063
 9191TIP3    H227538   4.058   3.738   5.793  0.1533  1.1789 -0.0752
 9192TIP3   OH227539   2.826   3.639   1.609  0.7489  0.1073  0.3512
 9192TIP3    H127540   2.866   3.552   1.605  0.7537  0.1495 -1.1764
 9192TIP3    H227541   2.733   3.622   1.623  0.8462 -0.1095  0.7557
 9193TIP3   OH227542   2.617   4.466   2.873 -0.1474  0.0543  0.0364
 9193TIP3    H127543   2.569   4.547   2.892  0.6028  0.3110  0.8950
 9193TIP3    H227544   2.708   4.488   2.891  0.2061 -0.6542 -0.8513
 9194TIP3   OH227545   1.047   1.852   3.295  0.0157 -0.3694 -0.0129
 9194TIP3    H127546   1.079   1.923   3.351  0.9692  0.3829 -1.4622
 9194TIP3    H227547   0.998   1.896   3.226 -2.3570 -1.3678  0.9165
 9195TIP3   OH227548   6.032   0.292   1.656 -0.7594  0.2528  0.0898
 9195TIP3    H127549   6.058   0.342   1.578  1.1024 -0.7072  0.0381
 9195TIP3    H227550   6.109   0.239   1.677 -1.9068 -0.9474  1.4522
 9196TIP3   OH227551   0.012   2.379   0.141  0.3448 -0.3333  0.1975
 9196TIP3    H127552   0.031   2.410   0.229 -1.2534  0.7955  0.1923
 9196TIP3    H227553  -0.003   2.459   0.090  0.9431 -0.9779 -1.0440
 9197TIP3   OH227554   1.269   4.916   5.676 -0.2246  0.2300  0.5596
 9197TIP3    H127555   1.201   4.963   5.628  1.6700  1.2257 -1.2766
 9197TIP3    H227556   1.276   4.962   5.760 -2.0595 -0.1763  0.9825
 9198TIP3   OH227557   1.676   5.833   4.367  0.0956 -0.0636  0.1628
 9198TIP3    H127558   1.643   5.862   4.282 -0.5386  0.6108  0.6261
 9198TIP3    H227559   1.755   5.885   4.381  0.8502 -1.0077 -0.5279
 9199TIP3   OH227560   6.951   0.414   0.236 -0.4120  0.1908 -0.2454
 9199TIP3    H127561   6.998   0.332   0.224  0.8820  0.9509 -0.5087
 9199TIP3    H227562   6.870   0.389   0.280 -0.3854 -1.3157 -1.0026
 9200TIP3   OH227563   5.214   3.634   1.259  0.0450  0.1422 -0.5227
 9200TIP3    H127564   5.212   3.697   1.188  1.5161 -0.2985 -1.0000
 9200TIP3    H227565   5.203   3.549   1.216 -1.9545  0.0249  0.1123
 9201TIP3   OH227566   1.734   4.425   0.320 -0.1176  0.2056  0.0762
 9201TIP3    H127567   1.803   4.377   0.275  0.6059  1.4925 -0.2342
 9201TIP3    H227568   1.655   4.371   0.308  0.4138 -0.3096 -1.2510
 9202TIP3   OH227569   6.352   2.169   3.623  0.2719  0.1549  0.0283
 9202TIP3    H127570   6.344   2.239   3.688  3.6109  0.8378 -0.1110
 9202TIP3    H227571   6.345   2.088   3.673 -1.0728  0.5746  0.5758
 9203TIP3   OH227572   7.097   3.239   4.582  0.0634  0.6198  0.1168
 9203TIP3    H127573   7.131   3.278   4.501  0.9753  1.6411  0.9644
 9203TIP3    H227574   7.132   3.150   4.581  0.2754  0.6994 -0.4888
 9204TIP3   OH227575   4.692   1.276   2.827 -0.3058  0.4473  0.0448
 9204TIP3    H127576   4.698   1.292   2.921  1.9432  0.0425  0.0365
 9204TIP3    H227577   4.687   1.363   2.788 -0.3576  0.6500  0.5030
 9205TIP3   OH227578   4.414   1.961   2.273  0.4807  0.5549  0.2204
 9205TIP3    H127579   4.472   1.885   2.283  0.7548  0.7787  0.3883
 9205TIP3    H227580   4.463   2.033   2.314  0.7514  1.0845 -0.9901
 9206TIP3   OH227581   2.313   6.733   1.152  0.6950  0.1756  0.1266
 9206TIP3    H127582   2.232   6.740   1.203  0.2747 -0.0628 -0.4964
 9206TIP3    H227583   2.365   6.668   1.199  0.7005  0.6184  0.7527
 9207TIP3   OH227584   1.585   2.270   3.931  0.2513 -0.1512  0.0322
 9207TIP3    H127585   1.574   2.361   3.957  0.7593 -0.3839  1.1269
 9207TIP3    H227586   1.678   2.263   3.906  0.3324 -0.4784  0.4171
 9208TIP3   OH227587   1.915   0.156   5.539 -0.0039  0.0990  0.0295
 9208TIP3    H127588   1.915   0.191   5.628  0.4100  1.8602 -0.6066
 9208TIP3    H227589   1.823   0.138   5.520  0.1201 -2.9800  1.7159
 9209TIP3   OH227590   2.432   3.139   4.532 -0.1227 -0.1182 -0.1972
 9209TIP3    H127591   2.438   3.044   4.530  1.2212 -0.0514 -0.2757
 9209TIP3    H227592   2.387   3.159   4.614  0.9000 -0.7812  0.5481
 9210TIP3   OH227593   0.150   6.681   0.261  0.1937 -0.0881  0.1492
 9210TIP3    H127594   0.242   6.676   0.235  0.0845 -0.8500 -0.1366
 9210TIP3    H227595   0.115   6.757   0.216  0.6192  0.0432  0.0449
 9211TIP3   OH227596   4.574   4.784   3.924  0.3935  0.3309 -0.2443
 9211TIP3    H127597   4.515   4.858   3.936 -1.1457 -0.8965  0.0597
 9211TIP3    H227598   4.547   4.744   3.841  0.2890 -0.6756  0.2563
 9212TIP3   OH227599   1.324   3.757   1.417  0.1404  0.3311  0.0954
 9212TIP3    H127600   1.295   3.848   1.408 -1.2104 -0.0035  0.8340
 9212TIP3    H227601   1.262   3.718   1.479  1.6497 -0.6742  1.0301
 9213TIP3   OH227602   5.772   2.060   5.698 -0.0048 -0.0250  0.0525
 9213TIP3    H127603   5.847   2.069   5.757 -0.2812 -3.1278  1.0775
 9213TIP3    H227604   5.700   2.102   5.745  0.2524 -0.5325  0.9265
 9214TIP3   OH227605   3.395   1.862   1.553  0.1062  0.5079 -0.0937
 9214TIP3    H127606   3.342   1.941   1.552  1.8040  1.7137  0.0127
 9214TIP3    H227607   3.472   1.886   1.604  1.6376 -0.5438 -1.7766
 9215TIP3   OH227608   6.907   0.028   1.426 -0.3332  0.6311  0.0151
 9215TIP3    H127609   6.856   0.098   1.467 -2.2139  0.1823 -1.3929
 9215TIP3    H227610   6.931   0.063   1.340  1.8988  0.8562  0.6652
 9216TIP3   OH227611   3.830   6.424   5.246 -0.4782  0.3086  0.5615
 9216TIP3    H127612   3.919   6.456   5.236 -0.4626 -0.3331 -1.8146
 9216TIP3    H227613   3.841   6.330   5.262 -0.7297  0.0296 -0.8229
 9217TIP3   OH227614   3.298   5.361   0.923 -0.0633  0.1241  0.5233
 9217TIP3    H127615   3.307   5.360   1.019 -0.0505 -0.1208  0.5194
 9217TIP3    H227616   3.337   5.444   0.896 -0.5949  0.4690  0.7853
 9218TIP3   OH227617   4.726   6.766   2.645 -0.8426 -0.3480 -0.0786
 9218TIP3    H127618   4.819   6.762   2.624 -0.5494  0.9973  0.7958
 9218TIP3    H227619   4.720   6.735   2.735 -1.1969 -0.1999 -0.0482
 9219TIP3   OH227620   2.103   2.882   5.752  0.2525 -0.3795 -0.3046
 9219TIP3    H127621   2.130   2.972   5.767  2.0509 -1.1256  1.3689
 9219TIP3    H227622   2.085   2.878   5.658  0.5660  1.5916 -0.4927
 9220TIP3   OH227623   0.706   6.651   5.141 -0.0139  0.3090 -0.1287
 9220TIP3    H127624   0.640   6.719   5.129 -0.4451  0.1391  1.1394
 9220TIP3    H227625   0.750   6.675   5.223 -1.9424 -2.3167  1.8299
 9221TIP3   OH227626   1.470   6.077   1.069  0.4649 -0.8828 -0.0634
 9221TIP3    H127627   1.416   6.133   1.015  0.6575 -0.8357 -0.2077
 9221TIP3    H227628   1.408   6.020   1.114  0.0229  1.0985  2.0361
 9222TIP3   OH227629   4.889   0.869   1.042 -0.2264 -0.0816 -0.2408
 9222TIP3    H127630   4.802   0.878   1.082 -1.3204 -2.1386 -1.9263
 9222TIP3    H227631   4.878   0.902   0.953  0.9664  0.3633 -0.2340
 9223TIP3   OH227632   5.779   6.492   3.477  0.6041 -0.0483 -0.8224
 9223TIP3    H127633   5.843   6.512   3.409  0.4542  2.0346 -0.4340
 9223TIP3    H227634   5.700   6.539   3.449 -0.3999 -1.5747 -0.6792
 9224TIP3   OH227635   1.255   4.533   3.317  0.0759 -0.5614 -0.1512
 9224TIP3    H127636   1.211   4.450   3.298  0.0052 -0.7720  0.8790
 9224TIP3    H227637   1.236   4.550   3.409  0.4298  0.3971 -0.2422
 9225TIP3   OH227638   6.250   1.399   4.546 -0.2313 -0.2549  0.5575
 9225TIP3    H127639   6.198   1.473   4.575 -2.9047 -2.4054  1.7265
 9225TIP3    H227640   6.274   1.353   4.626  0.1281 -1.4211 -0.1893
 9226TIP3   OH227641   3.113   4.085   3.140 -0.1444  0.8636 -0.1693
 9226TIP3    H127642   3.113   3.991   3.119 -2.3579  0.8410 -0.2641
 9226TIP3    H227643   3.107   4.128   3.055  1.1993  1.1494 -0.1487
 9227TIP3   OH227644   5.063   6.419   3.672 -0.5422 -0.0609  0.4665
 9227TIP3    H127645   5.083   6.332   3.708  2.2466  0.1270 -0.3588
 9227TIP3    H227646   4.997   6.402   3.605  1.3278 -1.9391 -1.0437
 9228TIP3   OH227647   3.676   3.563   1.657  0.0348 -0.4109 -0.2459
 9228TIP3    H127648   3.737   3.571   1.730  0.7790  1.1931 -0.9895
 9228TIP3    H227649   3.685   3.472   1.627  0.4421 -0.7985  1.0225
 9229TIP3   OH227650   5.999   1.782   2.780 -0.2591  0.3789  0.1959
 9229TIP3    H127651   6.029   1.703   2.825 -2.5596  0.3105  1.7999
 9229TIP3    H227652   6.053   1.852   2.816 -0.4227 -0.0295  1.2983
 9230TIP3   OH227653   6.680   6.012   0.984  0.3158  0.2557  0.5017
 9230TIP3    H127654   6.619   6.077   1.020 -0.0287  0.7140 -0.8671
 9230TIP3    H227655   6.736   6.062   0.925  0.7874 -0.5034  0.2912
 9231TIP3   OH227656   7.116   2.479   5.607  0.1472 -0.2040 -0.1011
 9231TIP3    H127657   7.142   2.536   5.535 -0.2054 -1.0532 -0.9306
 9231TIP3    H227658   7.198   2.440   5.638  0.4692  1.2097  0.9001
 9232TIP3   OH227659   2.750   2.617   4.677 -0.0642  0.0491 -0.1393
 9232TIP3    H127660   2.746   2.591   4.585 -1.3212  0.0004 -0.0900
 9232TIP3    H227661   2.728   2.710   4.677  0.6187  0.2132  0.0499
 9233TIP3   OH227662   0.412   0.801   0.453  0.1279 -0.2826  0.4108
 9233TIP3    H127663   0.357   0.730   0.421  0.6399 -0.2060 -0.6772
 9233TIP3    H227664   0.403   0.797   0.549  1.3037 -2.7699  0.4867
 9234TIP3   OH227665   5.861   4.473   5.884  0.3481  0.2873 -0.4338
 9234TIP3    H127666   5.825   4.404   5.940 -0.9772  1.2933  0.0083
 9234TIP3    H227667   5.821   4.458   5.798 -0.5687  0.9564 -0.1350
 9235TIP3   OH227668   1.827   2.007   2.486  0.2219 -0.0092 -0.0513
 9235TIP3    H127669   1.762   1.938   2.480 -0.4911  0.4932  1.5234
 9235TIP3    H227670   1.810   2.051   2.569  2.9478 -0.2537  0.7552
 9236TIP3   OH227671   3.347   0.041   5.790  0.2283 -0.5642  0.2646
 9236TIP3    H127672   3.384   0.130   5.792 -0.8471 -0.1103  1.0714
 9236TIP3    H227673   3.384   0.002   5.711  1.4537  0.2771  0.3814
 9237TIP3   OH227674   5.026   0.521   5.671  0.5768 -0.0809  0.1030
 9237TIP3    H127675   5.106   0.559   5.636 -0.5102  0.4006 -2.0604
 9237TIP3    H227676   5.046   0.428   5.682  2.4309  0.5516  2.8711
 9238TIP3   OH227677   5.405   3.909   3.984 -0.3308 -0.2384 -0.0209
 9238TIP3    H127678   5.430   3.826   4.023 -1.4125 -0.9339 -0.7690
 9238TIP3    H227679   5.363   3.886   3.901 -0.9439  1.0239 -0.0972
 9239TIP3   OH227680   2.250   4.996   1.165 -0.3769  0.0525 -0.4564
 9239TIP3    H127681   2.273   5.088   1.174  0.9681 -0.3135  0.1175
 9239TIP3    H227682   2.318   4.949   1.214 -1.6410 -1.1909  0.2089
 9240TIP3   OH227683   6.464   0.040   3.314 -0.6387 -0.1461 -0.3139
 9240TIP3    H127684   6.384  -0.003   3.346 -0.5188 -0.5559 -0.5602
 9240TIP3    H227685   6.515  -0.031   3.274 -0.7039  0.3166 -1.2547
 9241TIP3   OH227686   2.485   3.087   0.239 -0.2943  0.6440  0.2223
 9241TIP3    H127687   2.514   3.083   0.148  0.8123  1.2650  0.5232
 9241TIP3    H227688   2.391   3.102   0.234 -0.4304 -0.4491 -0.8038
 9242TIP3   OH227689   6.873   3.973   4.303  0.1809  0.1016 -0.1249
 9242TIP3    H127690   6.827   3.909   4.356  2.1642 -1.3370 -0.0322
 9242TIP3    H227691   6.945   4.004   4.358  1.6368 -0.6127 -1.5260
 9243TIP3   OH227692   0.600   6.015   0.164  0.0505 -0.0781  0.5562
 9243TIP3    H127693   0.673   6.013   0.226 -0.6559  1.1869  1.4757
 9243TIP3    H227694   0.570   6.106   0.165 -1.4509 -0.5395  0.1038
 9244TIP3   OH227695   0.451   1.391   4.583  0.8417 -0.1566 -0.0948
 9244TIP3    H127696   0.363   1.385   4.544  1.0491 -0.6177 -0.5060
 9244TIP3    H227697   0.505   1.429   4.514  1.1601 -0.7521 -0.1823
 9245TIP3   OH227698   5.591   0.255   1.876 -0.0455 -0.3853  0.9437
 9245TIP3    H127699   5.605   0.292   1.789 -0.5851  1.1894  1.4972
 9245TIP3    H227700   5.633   0.169   1.872 -2.1091 -1.4059 -1.6357
 9246TIP3   OH227701   0.274   0.915   2.530  0.2136 -0.2114  0.4923
 9246TIP3    H127702   0.351   0.900   2.585  0.2604  1.3481  0.9072
 9246TIP3    H227703   0.230   0.990   2.570 -1.1357 -0.6291 -0.1594
 9247TIP3   OH227704   6.210   5.762   4.294  0.2072  0.1068  0.4461
 9247TIP3    H127705   6.240   5.797   4.210 -1.1830  2.1559  0.7167
 9247TIP3    H227706   6.285   5.773   4.352  0.3894  1.0305  0.0655
 9248TIP3   OH227707   1.584   0.298   2.842 -0.3392 -0.1882 -0.7176
 9248TIP3    H127708   1.579   0.393   2.836  2.3722  0.2405  1.8025
 9248TIP3    H227709   1.670   0.275   2.806 -0.3874 -1.5333 -0.0543
 9249TIP3   OH227710   1.410   2.286   4.985 -0.0084 -0.2334 -0.4019
 9249TIP3    H127711   1.318   2.279   4.960  0.2065 -0.6638 -1.1184
 9249TIP3    H227712   1.447   2.201   4.963  0.1711 -0.7259  1.6219
 9250TIP3   OH227713   1.222   3.251   5.298  0.6505  1.0489 -0.0147
 9250TIP3    H127714   1.167   3.271   5.374 -1.1197  0.5769 -1.1138
 9250TIP3    H227715   1.279   3.327   5.290  1.9684  0.4800  2.6395
 9251TIP3   OH227716   5.925   0.285   3.062  0.5537  0.4394  0.1517
 9251TIP3    H127717   6.005   0.238   3.041  1.1215  1.4845 -0.0549
 9251TIP3    H227718   5.885   0.303   2.977 -0.1435 -0.4533  0.2669
 9252TIP3   OH227719   1.632   5.453   2.464  0.0965  0.5441  0.3557
 9252TIP3    H127720   1.605   5.476   2.553 -1.7194  1.2609 -0.3479
 9252TIP3    H227721   1.600   5.524   2.409 -0.5506 -0.8352 -1.1338
 9253TIP3   OH227722   5.562   5.441   1.558  0.0314  0.0192 -0.3667
 9253TIP3    H127723   5.615   5.488   1.493 -0.4438 -0.1744 -0.9023
 9253TIP3    H227724   5.508   5.510   1.597  0.8090  0.2517  0.3271
 9254TIP3   OH227725   2.491   5.276   4.856  0.0645 -0.1655 -0.0918
 9254TIP3    H127726   2.571   5.296   4.905 -0.9791  0.8205  1.3265
 9254TIP3    H227727   2.424   5.268   4.924 -1.4665  1.2574 -1.3464
 9255TIP3   OH227728   1.415   6.436   1.214 -0.2599  0.1835  0.1680
 9255TIP3    H127729   1.480   6.496   1.179  0.4034 -0.3151  0.5095
 9255TIP3    H227730   1.418   6.449   1.309 -0.5772  0.0818  0.1935
 9256TIP3   OH227731   5.028   6.200   1.216  0.2206  0.0317  0.0832
 9256TIP3    H127732   5.075   6.276   1.251  0.7448 -1.3165  2.5308
 9256TIP3    H227733   4.947   6.236   1.180  0.7118  1.7902  0.6422
 9257TIP3   OH227734   2.013   6.628   1.016 -0.3445 -0.3605  0.1081
 9257TIP3    H127735   1.929   6.622   0.970  0.5581  0.5093 -1.7955
 9257TIP3    H227736   2.050   6.711   0.985  1.9608 -1.5310 -0.4867
 9258TIP3   OH227737   4.467   2.753   1.137 -0.3077 -0.4632  0.7088
 9258TIP3    H127738   4.518   2.782   1.061 -0.8427  0.1452  0.5704
 9258TIP3    H227739   4.523   2.772   1.212 -0.6937  1.1185  0.6377
 9259TIP3   OH227740   4.233   0.409   4.266 -0.1451 -0.1387 -0.0379
 9259TIP3    H127741   4.277   0.324   4.265  0.0575 -0.0536  0.9225
 9259TIP3    H227742   4.185   0.411   4.183 -1.3571 -1.8337  0.5551
 9260TIP3   OH227743   6.828   4.847   1.005 -0.5407  0.5545 -0.4381
 9260TIP3    H127744   6.803   4.791   1.079 -0.6097 -0.0307 -0.9018
 9260TIP3    H227745   6.869   4.923   1.046 -2.0009  0.9945  0.2804
 9261TIP3   OH227746   6.987   2.802   1.081 -0.7595 -0.1847 -0.0942
 9261TIP3    H127747   6.995   2.751   1.001  0.5491 -0.5181  0.2293
 9261TIP3    H227748   7.029   2.748   1.148 -0.3695  0.8188  0.4905
 9262TIP3   OH227749   3.558   2.878   4.713 -0.4656  0.0293  0.5489
 9262TIP3    H127750   3.474   2.834   4.701 -1.3442  1.6007  0.6500
 9262TIP3    H227751   3.605   2.823   4.776 -0.4409 -2.0997 -1.2117
 9263TIP3   OH227752   5.202   0.862   2.897 -0.0477  0.2346  0.3213
 9263TIP3    H127753   5.178   0.862   2.989 -0.5033 -1.2845  0.2230
 9263TIP3    H227754   5.292   0.893   2.896  0.5998 -1.4649  1.4835
 9264TIP3   OH227755   4.132   2.423   3.413  0.4740  0.2431 -0.3346
 9264TIP3    H127756   4.138   2.399   3.505  0.6587 -1.0723 -0.6704
 9264TIP3    H227757   4.162   2.346   3.366 -0.6072  0.5130 -1.5309
 9265TIP3   OH227758   1.139   1.060   4.187 -0.7269  0.1927 -0.3426
 9265TIP3    H127759   1.220   1.096   4.150  0.7491 -3.2801 -0.9432
 9265TIP3    H227760   1.069   1.104   4.139  0.7750  2.7043 -0.4158
 9266TIP3   OH227761   3.743   1.090   5.164  0.2946  0.0739  0.1231
 9266TIP3    H127762   3.748   1.091   5.260  0.2161  0.3164  0.1263
 9266TIP3    H227763   3.819   1.142   5.137 -0.4053  1.1218  0.0910
 9267TIP3   OH227764   3.150   5.275   5.054 -0.4939  0.7524  0.1773
 9267TIP3    H127765   3.169   5.182   5.041 -1.2156  0.7385 -0.9856
 9267TIP3    H227766   3.228   5.320   5.024 -0.1787  0.5370  0.6527
 9268TIP3   OH227767   4.355   2.294   1.108 -0.5639  0.1002 -0.0513
 9268TIP3    H127768   4.397   2.212   1.080 -0.0227  0.9822 -1.9911
 9268TIP3    H227769   4.332   2.338   1.026 -0.1983  2.2222  0.9279
 9269TIP3   OH227770   6.023   1.376   1.643  0.1062  0.2576 -0.4199
 9269TIP3    H127771   6.008   1.468   1.664 -2.0795  0.2946 -1.7975
 9269TIP3    H227772   6.008   1.330   1.726  1.2555  1.1286  0.2841
 9270TIP3   OH227773   0.906   5.908   4.007  0.3427  0.1989  0.3577
 9270TIP3    H127774   0.821   5.874   3.978 -0.3823  1.7527  0.5990
 9270TIP3    H227775   0.954   5.925   3.925  0.0899  0.1354  0.1963
 9271TIP3   OH227776   3.360   4.199   5.305  0.0288  0.0028 -0.1069
 9271TIP3    H127777   3.449   4.205   5.339 -0.5356  1.9298  1.2189
 9271TIP3    H227778   3.308   4.250   5.367 -1.6714  0.6589 -1.9997
 9272TIP3   OH227779   5.381   2.890   3.066 -0.4204  0.5464  0.2071
 9272TIP3    H127780   5.421   2.819   3.017  0.0261  0.0238  1.2797
 9272TIP3    H227781   5.453   2.952   3.081 -0.4892  0.5831  0.3942
 9273TIP3   OH227782   5.285   3.444   4.527 -0.6577  0.0275  0.4280
 9273TIP3    H127783   5.238   3.486   4.456  0.1081 -0.8671 -0.6400
 9273TIP3    H227784   5.375   3.436   4.495 -0.0126  0.6743  1.9624
 9274TIP3   OH227785   1.019   0.132   3.638  0.0089 -0.0587 -0.5475
 9274TIP3    H127786   1.025   0.192   3.713 -1.0407  0.3261 -0.7479
 9274TIP3    H227787   0.962   0.062   3.669 -1.2429  0.5975 -1.2716
 9275TIP3   OH227788   0.547   4.643   3.586  0.2513  0.1528 -0.4605
 9275TIP3    H127789   0.633   4.604   3.569  0.0469  0.9253 -4.1632
 9275TIP3    H227790   0.567   4.722   3.636  1.5878 -0.2391 -0.3312
 9276TIP3   OH227791   0.246   2.529   2.719  0.1825  0.2547  0.5201
 9276TIP3    H127792   0.206   2.557   2.637  0.0595  0.1111  0.5298
 9276TIP3    H227793   0.231   2.434   2.722  1.3048  0.0507  0.0935
 9277TIP3   OH227794   1.061   5.910   3.129 -0.6825  0.1919  0.0384
 9277TIP3    H127795   1.105   5.969   3.069  1.2212 -0.7688  0.3977
 9277TIP3    H227796   0.990   5.872   3.078  0.5311 -0.1705 -1.4545
 9278TIP3   OH227797   6.154   6.491   0.939 -0.2034  0.0191  0.4739
 9278TIP3    H127798   6.185   6.580   0.957  0.4571  0.2861 -1.7240
 9278TIP3    H227799   6.221   6.435   0.979  1.1364  0.5849 -0.8378
 9279TIP3   OH227800   4.923   0.514   4.768  0.4238  0.5195  0.3153
 9279TIP3    H127801   4.902   0.594   4.719  1.0338  0.4990  0.0139
 9279TIP3    H227802   4.934   0.544   4.858 -0.4500  0.5970  0.4112
 9280TIP3   OH227803   2.125   4.977   3.518 -0.0361  0.2306 -0.1048
 9280TIP3    H127804   2.155   4.965   3.428  1.4313  0.6211  0.3114
 9280TIP3    H227805   2.203   5.002   3.567 -0.9054  0.5457  1.1877
 9281TIP3   OH227806   2.289   1.984   2.289 -0.9849 -0.1026  0.4950
 9281TIP3    H127807   2.348   2.047   2.331 -0.7574 -0.1316  0.2184
 9281TIP3    H227808   2.265   2.026   2.206 -0.0099 -0.8182 -0.1763
 9282TIP3   OH227809   5.579   5.512   4.685 -0.4088 -0.3761 -0.0136
 9282TIP3    H127810   5.659   5.461   4.673 -0.4598 -0.1126 -1.8136
 9282TIP3    H227811   5.609   5.595   4.720  0.2515  0.0100 -1.3976
 9283TIP3   OH227812   1.792   1.332   3.106  0.4279 -0.0243 -0.1416
 9283TIP3    H127813   1.781   1.413   3.156  1.5064  0.8178 -1.1986
 9283TIP3    H227814   1.710   1.320   3.059 -0.1697 -0.2074  0.9127
 9284TIP3   OH227815   6.285   3.393   4.964  0.1812  0.0067 -0.1016
 9284TIP3    H127816   6.246   3.346   4.890 -1.3653 -0.1091  0.7267
 9284TIP3    H227817   6.327   3.325   5.017 -1.2066 -0.3552  0.5848
 9285TIP3   OH227818   3.175   5.978   4.277 -0.5978 -0.1330 -0.6203
 9285TIP3    H127819   3.107   6.032   4.315 -0.2907 -0.4405  0.4003
 9285TIP3    H227820   3.156   5.977   4.183 -1.0729  1.0566 -0.5492
 9286TIP3   OH227821   3.824   4.581   4.706 -0.7972 -0.5880 -0.6052
 9286TIP3    H127822   3.893   4.613   4.765 -0.4516 -1.4870 -0.5042
 9286TIP3    H227823   3.809   4.653   4.646 -0.9220  0.2267  0.3841
 9287TIP3   OH227824   5.496   5.075   5.184  0.2625 -0.1294 -0.5209
 9287TIP3    H127825   5.459   5.040   5.104 -1.3371 -1.0423  0.5686
 9287TIP3    H227826   5.539   5.001   5.226  1.5426  0.4540 -0.7356
 9288TIP3   OH227827   3.496   5.826   5.298  0.5345 -0.2813 -0.8354
 9288TIP3    H127828   3.566   5.766   5.272  0.6915  0.1757 -1.4806
 9288TIP3    H227829   3.416   5.785   5.264  0.5380 -0.5611 -0.5154
 9289TIP3   OH227830   4.566   3.067   4.164 -1.0348  0.4046 -0.4641
 9289TIP3    H127831   4.502   3.015   4.212 -0.3479  1.2087  1.4233
 9289TIP3    H227832   4.515   3.137   4.124 -1.2865  1.8133  2.1063
 9290TIP3   OH227833   5.032   2.972   4.455 -0.6169  0.5704  0.0794
 9290TIP3    H127834   5.032   3.066   4.441 -0.3206  0.4443 -0.8437
 9290TIP3    H227835   5.029   2.962   4.550 -1.8522  1.4912  0.1615
 9291TIP3   OH227836   6.949   6.049   2.646  0.3577  0.4556  0.3584
 9291TIP3    H127837   6.990   6.122   2.694  3.2135  0.8519 -2.3626
 9291TIP3    H227838   6.906   6.091   2.572  1.3050 -0.4977 -0.7687
 9292TIP3   OH227839   4.821   0.466   3.184 -0.3717  0.4698 -0.0586
 9292TIP3    H127840   4.891   0.403   3.200 -1.3355 -0.3543  1.0980
 9292TIP3    H227841   4.784   0.439   3.100 -0.5840 -0.3292  0.2835
 9293TIP3   OH227842   0.912   3.059   3.400  0.3614  0.7333 -0.1279
 9293TIP3    H127843   0.857   3.020   3.333  1.2223  0.0468 -0.4598
 9293TIP3    H227844   1.001   3.031   3.378  0.6667  0.4924  1.2872
 9294TIP3   OH227845   4.886   1.881   4.354 -0.1291  0.0174 -0.5469
 9294TIP3    H127846   4.870   1.853   4.445  1.1250 -0.3557 -0.4191
 9294TIP3    H227847   4.974   1.917   4.355 -0.6479  1.4006 -1.3350
 9295TIP3   OH227848   6.868   1.085   1.252 -0.0917  0.0024  0.5524
 9295TIP3    H127849   6.942   1.116   1.199 -0.3605  0.2740  0.3298
 9295TIP3    H227850   6.865   1.146   1.326 -0.3897  0.2878  0.3087
 9296TIP3   OH227851   0.265   6.750   5.576  0.3026  0.4523  0.5559
 9296TIP3    H127852   0.271   6.669   5.526  0.3445  0.5258  0.4393
 9296TIP3    H227853   0.181   6.788   5.550  1.3837  1.7334 -1.3997
 9297TIP3   OH227854   4.759   6.578   5.292 -0.1706 -1.1787 -0.2971
 9297TIP3    H127855   4.786   6.652   5.348  1.9302 -1.2580 -1.1212
 9297TIP3    H227856   4.679   6.608   5.250  0.4054  0.4796 -0.2859
 9298TIP3   OH227857   0.467   3.346   4.033  0.2793 -0.2902 -0.2074
 9298TIP3    H127858   0.451   3.344   4.128  0.2852  0.6286 -0.1774
 9298TIP3    H227859   0.380   3.354   3.994  0.2938 -0.4431 -0.2719
 9299TIP3   OH227860   7.077   0.701   0.482  0.1054  0.3197  0.0551
 9299TIP3    H127861   7.150   0.640   0.469  0.6010  0.7251  0.8667
 9299TIP3    H227862   6.999   0.649   0.461  0.6256 -0.0266 -1.1449
 9300TIP3   OH227863   2.626   6.725   1.523 -0.7226 -0.2822  0.1593
 9300TIP3    H127864   2.615   6.820   1.532 -1.4514 -0.2820 -0.5363
 9300TIP3    H227865   2.692   6.702   1.587 -0.4188  0.7258  0.2294
 9301TIP3   OH227866   1.585   2.532   0.484 -0.2641 -0.1815 -0.3685
 9301TIP3    H127867   1.491   2.528   0.466 -0.3604  1.1722 -0.2760
 9301TIP3    H227868   1.614   2.615   0.445  0.9329 -0.6470 -0.5372
 9302TIP3   OH227869   5.439   5.173   0.840 -0.1558  0.2320 -0.0601
 9302TIP3    H127870   5.494   5.150   0.765  1.5439  1.3675  0.7560
 9302TIP3    H227871   5.453   5.101   0.902  0.1493  0.3484  0.0085
 9303TIP3   OH227872   6.861   4.108   5.120  0.5700 -0.0195  0.7358
 9303TIP3    H127873   6.854   4.204   5.118  0.3733  0.0235  2.2394
 9303TIP3    H227874   6.947   4.091   5.158  1.6105 -0.4907 -1.6466
 9304TIP3   OH227875   0.065   3.787   2.869  0.3512 -0.6911  0.1234
 9304TIP3    H127876  -0.008   3.766   2.927 -0.0649 -0.0692 -0.1674
 9304TIP3    H227877   0.143   3.768   2.921 -0.0152 -1.0198  0.5615
 9305TIP3   OH227878   0.429   3.908   4.824 -0.0462 -0.5717 -0.1323
 9305TIP3    H127879   0.445   3.860   4.906 -0.1858 -0.8804 -0.2853
 9305TIP3    H227880   0.478   3.990   4.835  0.7593 -1.0336 -0.1447
 9306TIP3   OH227881   0.783   5.784   1.641 -0.5323 -0.3103  0.0487
 9306TIP3    H127882   0.871   5.755   1.619 -1.2387 -1.8656 -0.8466
 9306TIP3    H227883   0.793   5.830   1.725  0.9872 -1.2125  0.3979
 9307TIP3   OH227884   4.997   6.484   2.480 -0.1557 -0.0546  0.0155
 9307TIP3    H127885   5.022   6.400   2.518  0.1813 -0.6631 -1.4636
 9307TIP3    H227886   4.917   6.465   2.431  0.8304  0.0532 -1.7212
 9308TIP3   OH227887   4.601   2.866   5.487  0.2166  0.2385  0.2071
 9308TIP3    H127888   4.560   2.944   5.525  1.2151  0.4340  0.9353
 9308TIP3    H227889   4.528   2.816   5.450 -0.7383  0.3230  1.8712
 9309TIP3   OH227890   4.062   2.564   4.242  0.4627  0.5602  0.0314
 9309TIP3    H127891   4.082   2.480   4.284  0.7414 -0.4931 -2.0647
 9309TIP3    H227892   4.122   2.569   4.168 -1.3674  1.2848 -1.5072
 9310TIP3   OH227893   3.163   2.689   2.811 -0.6084 -0.3377 -0.0573
 9310TIP3    H127894   3.186   2.623   2.877 -0.6653 -0.6918 -0.3843
 9310TIP3    H227895   3.226   2.676   2.741  2.0146  2.6565  1.5489
 9311TIP3   OH227896   6.531   0.275   4.956 -0.1525  0.0866  0.0979
 9311TIP3    H127897   6.484   0.194   4.936 -0.2316  0.4513 -1.3024
 9311TIP3    H227898   6.624   0.250   4.953 -0.1793  0.0231 -0.2281
 9312TIP3   OH227899   1.161   1.741   2.494 -0.3558  0.1091 -0.1477
 9312TIP3    H127900   1.255   1.741   2.475 -0.3756  2.8732 -0.6146
 9312TIP3    H227901   1.156   1.728   2.589  0.4593 -0.6795 -0.2049
 9313TIP3   OH227902   1.662   1.085   0.244 -0.1044  0.1877 -0.1310
 9313TIP3    H127903   1.684   1.069   0.336 -2.0611  2.2813  0.8159
 9313TIP3    H227904   1.664   1.180   0.235 -1.9853  0.1532 -1.6626
 9314TIP3   OH227905   5.907   6.086   3.251  0.0013  0.0550 -0.0561
 9314TIP3    H127906   5.989   6.132   3.265  0.1312 -0.4004  0.7676
 9314TIP3    H227907   5.921   6.033   3.173  1.1491 -1.4498  1.1200
 9315TIP3   OH227908   2.838   0.938   3.943  0.2054 -0.1440 -0.2375
 9315TIP3    H127909   2.846   0.980   4.028 -0.3462 -0.5701  0.0256
 9315TIP3    H227910   2.809   1.008   3.884 -1.1681 -0.2338  0.2930
 9316TIP3   OH227911   5.586   1.446   4.060  0.8085 -0.3334 -0.0705
 9316TIP3    H127912   5.501   1.410   4.086  0.8838 -1.6041 -1.4678
 9316TIP3    H227913   5.566   1.536   4.035  0.0415 -0.3447  0.4270
 9317TIP3   OH227914   3.109   2.652   4.471 -0.4641  0.7579 -0.0864
 9317TIP3    H127915   3.087   2.656   4.564  1.4369 -0.5774  0.4730
 9317TIP3    H227916   3.047   2.589   4.434 -1.7854  1.9210  0.0434
 9318TIP3   OH227917   6.603   2.820   1.486 -0.0990  0.1885 -0.2666
 9318TIP3    H127918   6.619   2.857   1.400 -1.3552 -0.9042 -1.0045
 9318TIP3    H227919   6.578   2.896   1.540 -1.1309  0.6502 -1.3482
 9319TIP3   OH227920   3.587   4.316   2.310  0.5215 -0.0127 -0.5668
 9319TIP3    H127921   3.593   4.307   2.215  2.4822 -0.6097 -0.4353
 9319TIP3    H227922   3.630   4.400   2.329 -0.3499  0.3706 -0.2312
 9320TIP3   OH227923   1.863   2.172   3.879  0.0529 -0.5342 -0.5362
 9320TIP3    H127924   1.891   2.090   3.920  1.7731 -0.8385 -2.2180
 9320TIP3    H227925   1.909   2.241   3.928  0.1635 -0.7089 -0.3956
 9321TIP3   OH227926   0.381   1.438   1.264 -0.2423  0.2148  0.2581
 9321TIP3    H127927   0.449   1.374   1.284 -1.6842 -1.5277 -0.1144
 9321TIP3    H227928   0.427   1.521   1.256  1.6791 -0.7306  0.9879
 9322TIP3   OH227929   2.221   2.732   4.315 -0.6056  0.2288  0.0755
 9322TIP3    H127930   2.283   2.792   4.355 -0.1900 -0.3646  0.3383
 9322TIP3    H227931   2.165   2.787   4.260  0.4397  0.7098 -0.5174
 9323TIP3   OH227932   2.281   0.704   4.811  0.7006  0.1976  0.1324
 9323TIP3    H127933   2.226   0.642   4.762  0.1373  1.0825 -0.3987
 9323TIP3    H227934   2.311   0.655   4.887 -2.1295  0.1013  1.2981
 9324TIP3   OH227935   5.031   0.054   3.699 -0.0696 -0.0768  0.0746
 9324TIP3    H127936   5.089  -0.002   3.751  1.7042  1.7355  0.1883
 9324TIP3    H227937   4.953   0.066   3.754  0.3729 -0.8296  0.8944
 9325TIP3   OH227938   4.519   4.999   4.639  0.3017 -0.2062  0.0576
 9325TIP3    H127939   4.539   5.021   4.730 -1.5674 -0.6640  0.6347
 9325TIP3    H227940   4.573   4.923   4.620 -0.2884 -0.9509  1.2682
 9326TIP3   OH227941   2.356   0.596   3.149  0.2480  0.3636 -0.8725
 9326TIP3    H127942   2.306   0.672   3.179  1.5138  0.5263  0.9875
 9326TIP3    H227943   2.388   0.621   3.062  0.8724  2.1001 -0.1807
 9327TIP3   OH227944   7.170   1.598   1.502 -0.2634 -0.4669  0.3733
 9327TIP3    H127945   7.216   1.681   1.496 -0.5818 -0.3787 -2.3258
 9327TIP3    H227946   7.238   1.532   1.487 -0.6869 -0.3733 -2.6849
 9328TIP3   OH227947   2.920   3.719   2.356 -0.5705 -0.1922 -0.1607
 9328TIP3    H127948   2.907   3.748   2.265  1.4937  1.2678 -0.0448
 9328TIP3    H227949   2.832   3.693   2.385 -1.1233 -1.9346 -2.9445
 9329TIP3   OH227950   5.276   6.158   0.184  0.0900  0.5974  0.0623
 9329TIP3    H127951   5.197   6.198   0.148 -0.5303 -2.4542 -2.4097
 9329TIP3    H227952   5.343   6.174   0.117  0.5337 -0.0716  0.3345
 9330TIP3   OH227953   1.222   6.398   1.466  0.1860 -0.2793 -0.5990
 9330TIP3    H127954   1.282   6.471   1.481 -1.5460  1.4606 -1.6178
 9330TIP3    H227955   1.242   6.335   1.535  1.9165  1.0302  0.1650
 9331TIP3   OH227956   6.966   5.225   5.707  0.2497 -0.1120  0.5945
 9331TIP3    H127957   6.909   5.164   5.752  0.8274 -1.5628 -0.5641
 9331TIP3    H227958   6.908   5.297   5.681 -0.7686 -0.8790  0.6638
 9332TIP3   OH227959   0.617   3.986   3.667 -0.2705  0.5876  0.0524
 9332TIP3    H127960   0.685   4.008   3.604 -0.4162  0.5850 -0.1064
 9332TIP3    H227961   0.619   3.891   3.672  0.7042  0.6483  1.1200
 9333TIP3   OH227962   3.771   4.076   4.192  0.3728  0.0736  0.0148
 9333TIP3    H127963   3.859   4.106   4.167  0.4077  1.0305  1.2211
 9333TIP3    H227964   3.736   4.036   4.112  1.9859 -0.5425 -0.4246
 9334TIP3   OH227965   5.710   3.895   0.809 -0.6900  0.3406  0.0264
 9334TIP3    H127966   5.696   3.849   0.726 -0.4718  2.7361 -1.4165
 9334TIP3    H227967   5.643   3.859   0.867 -1.0444 -1.1961 -1.2339
 9335TIP3   OH227968   4.037   3.631   3.806  0.2976 -0.2216  0.3690
 9335TIP3    H127969   3.943   3.618   3.816 -0.0017 -2.0858 -3.1710
 9335TIP3    H227970   4.053   3.720   3.839 -2.8616  0.5053  0.2392
 9336TIP3   OH227971   0.296   4.878   4.176 -0.4886 -0.1662 -0.1587
 9336TIP3    H127972   0.203   4.900   4.172 -0.4375 -0.1242 -2.6357
 9336TIP3    H227973   0.331   4.937   4.244 -1.9719  0.9845 -0.3268
 9337TIP3   OH227974   3.981   2.322   0.984  0.4111 -0.1291 -0.1703
 9337TIP3    H127975   4.064   2.346   0.943  0.0197  0.6157 -0.5493
 9337TIP3    H227976   3.915   2.340   0.917 -0.1189 -0.0706  0.3579
 9338TIP3   OH227977   1.645   2.188   2.374  0.2527  0.4827 -0.2699
 9338TIP3    H127978   1.706   2.117   2.394 -0.8366 -0.2911  0.3561
 9338TIP3    H227979   1.559   2.147   2.375 -0.5838  2.1426  1.9088
 9339TIP3   OH227980   6.524   3.234   3.344  0.1143  0.3388 -0.1021
 9339TIP3    H127981   6.513   3.176   3.420  0.1312  1.0793  0.4819
 9339TIP3    H227982   6.471   3.310   3.365 -1.3267 -0.1735 -1.6406
 9340TIP3   OH227983   5.245   4.874   5.349 -0.1469 -0.0128 -0.5077
 9340TIP3    H127984   5.283   4.792   5.319  1.0606  0.1187  0.5493
 9340TIP3    H227985   5.315   4.915   5.400 -1.6787  0.2946  1.4626
 9341TIP3   OH227986   3.080   0.288   1.744 -0.2509  0.4072 -0.1354
 9341TIP3    H127987   3.100   0.195   1.732  1.3851  0.8212 -0.9705
 9341TIP3    H227988   3.148   0.319   1.804 -1.7166  0.7721  1.4157
 9342TIP3   OH227989   4.110   2.989   3.824 -0.4158 -0.1160 -0.1028
 9342TIP3    H127990   4.085   2.987   3.732  1.7817 -0.1751 -0.7466
 9342TIP3    H227991   4.055   2.923   3.865 -3.9528  2.2026 -0.5963
 9343TIP3   OH227992   6.680   3.553   2.896  0.1132  0.4639 -0.6199
 9343TIP3    H127993   6.652   3.584   2.809 -0.0485  1.1475 -0.3333
 9343TIP3    H227994   6.767   3.517   2.882 -0.6752 -1.2501 -1.4422
 9344TIP3   OH227995   2.478   0.370   4.015 -0.7892  0.3541 -0.0048
 9344TIP3    H127996   2.471   0.276   3.998  1.3813  0.1141  0.0816
 9344TIP3    H227997   2.406   0.390   4.075 -1.4554 -1.1926 -0.2575
 9345TIP3   OH227998   5.457   4.774   2.418  0.3752  0.0421 -0.0970
 9345TIP3    H127999   5.444   4.803   2.328 -1.2565 -1.2461 -0.3331
 9345TIP3    H228000   5.393   4.823   2.469 -2.1322 -2.6312 -0.4451
 9346TIP3   OH228001   3.717   3.011   2.902 -0.3075  0.0682  0.1329
 9346TIP3    H128002   3.630   2.972   2.910 -1.1948  1.2666 -2.5397
 9346TIP3    H228003   3.701   3.105   2.902  0.9437  0.3070 -0.6683
 9347TIP3   OH228004   2.799   1.949   4.004 -0.2591 -0.5150  0.5031
 9347TIP3    H128005   2.807   1.864   4.046 -0.8519 -0.9366 -0.2154
 9347TIP3    H228006   2.823   1.933   3.912 -1.1155 -0.0887  0.1871
 9348TIP3   OH228007   3.808   4.973   3.902  0.1582  0.3997  0.0977
 9348TIP3    H128008   3.792   4.879   3.908  2.3801 -0.1909 -1.8209
 9348TIP3    H228009   3.748   5.003   3.834 -0.4336  0.3626  0.5945
 9349TIP3   OH228010   3.982   6.038   0.584  0.0523 -0.0830 -0.0811
 9349TIP3    H128011   4.009   6.078   0.667  0.4911  0.2155 -0.3629
 9349TIP3    H228012   3.985   6.110   0.521  1.7211 -0.7278 -0.7863
 9350TIP3   OH228013   4.919   2.979   1.675  0.0438 -0.2881  0.2851
 9350TIP3    H128014   4.884   2.921   1.743  1.0716 -0.3499  0.7889
 9350TIP3    H228015   5.008   2.946   1.659  0.1275  0.2737 -0.4509
 9351TIP3   OH228016   4.394   2.078   5.254 -0.4097  0.1334  0.4571
 9351TIP3    H128017   4.466   2.030   5.295 -0.3446 -2.2652 -2.1647
 9351TIP3    H228018   4.316   2.026   5.274 -0.5787 -0.2680 -1.1070
 9352TIP3   OH228019   5.382   1.767   3.726 -0.2127  0.7676 -0.7063
 9352TIP3    H128020   5.290   1.785   3.703 -0.5876  0.0070  0.1299
 9352TIP3    H228021   5.397   1.678   3.696  0.4988  1.1395 -1.4994
 9353TIP3   OH228022   0.629   6.426   5.014 -0.1647 -0.3070 -0.4720
 9353TIP3    H128023   0.687   6.423   4.938 -0.4089 -0.0631 -0.6709
 9353TIP3    H228024   0.672   6.487   5.074  0.3444 -0.9774 -0.1466
 9354TIP3   OH228025   2.989   2.466   3.306 -0.0252 -0.2603 -0.0966
 9354TIP3    H128026   3.059   2.488   3.245 -1.2879  1.6940 -0.9562
 9354TIP3    H228027   3.003   2.374   3.327  2.0213 -0.2680 -1.2141
 9355TIP3   OH228028   7.003   4.009   1.725  0.1396 -0.4793 -0.1893
 9355TIP3    H128029   6.947   3.935   1.750  0.7183 -0.5841  0.8788
 9355TIP3    H228030   7.086   3.991   1.768  0.6187  0.2668 -0.7918
 9356TIP3   OH228031   0.571   1.417   4.184  0.3236  0.0557 -0.3088
 9356TIP3    H128032   0.607   1.459   4.262  1.2607 -0.4795 -0.4266
 9356TIP3    H228033   0.591   1.324   4.196 -1.2199 -0.3022 -0.3002
 9357TIP3   OH228034   5.441   0.784   0.843 -0.0415 -0.0664 -0.0681
 9357TIP3    H128035   5.360   0.734   0.856  0.5135 -1.0665 -0.3609
 9357TIP3    H228036   5.480   0.747   0.764  1.4779 -0.6640  0.9305
 9358TIP3   OH228037   0.329   1.118   3.634  0.5030 -0.4589  0.0373
 9358TIP3    H128038   0.393   1.124   3.564 -1.0686  0.6049 -1.3864
 9358TIP3    H228039   0.303   1.208   3.652  1.2990 -0.6370  2.4784
 9359TIP3   OH228040   0.320   4.677   0.659  0.8296 -0.3374 -0.0627
 9359TIP3    H128041   0.367   4.623   0.723  2.3567  1.4686  0.3979
 9359TIP3    H228042   0.281   4.747   0.710  0.2757 -0.0404 -0.8650
 9360TIP3   OH228043   6.027   5.831   0.619 -0.0533  0.1761 -0.0072
 9360TIP3    H128044   6.069   5.844   0.533  0.0527 -0.3493 -0.0348
 9360TIP3    H228045   6.100   5.821   0.680 -0.1177  1.0753  0.2381
 9361TIP3   OH228046   6.812   2.434   3.072  0.3859 -0.2000  0.0361
 9361TIP3    H128047   6.746   2.419   3.140 -0.0361  0.5697 -0.1867
 9361TIP3    H228048   6.871   2.359   3.079 -1.2115 -1.5816 -0.5855
 9362TIP3   OH228049   2.389   3.520   3.500  0.2617 -0.0098 -0.2088
 9362TIP3    H128050   2.460   3.581   3.521  1.0460 -1.4688  1.5934
 9362TIP3    H228051   2.316   3.548   3.556  0.2208 -0.0001 -0.2670
 9363TIP3   OH228052   0.193   5.063   5.734 -0.4106 -0.1792 -0.4057
 9363TIP3    H128053   0.121   5.059   5.797  0.2252 -0.6951  0.3055
 9363TIP3    H228054   0.252   5.128   5.770  0.4301 -1.1725  0.0475
 9364TIP3   OH228055   1.577   1.422   0.247 -0.2719  0.4623 -0.1488
 9364TIP3    H128056   1.569   1.514   0.220  0.4094  0.5756  0.0193
 9364TIP3    H228057   1.521   1.415   0.325  1.1529  1.2203  0.9845
 9365TIP3   OH228058   4.621   0.735   5.566 -0.2861 -0.7187  0.5797
 9365TIP3    H128059   4.661   0.813   5.606 -2.4620 -0.0911  1.6723
 9365TIP3    H228060   4.568   0.770   5.495  0.3189 -1.4358 -0.2341
 9366TIP3   OH228061   5.714   0.060   2.226 -0.3492  0.7484  0.0534
 9366TIP3    H128062   5.709  -0.028   2.189  1.5095 -0.6293  2.7241
 9366TIP3    H228063   5.625   0.079   2.257 -0.4200 -1.0405  1.0668
 9367TIP3   OH228064   2.674   5.966   3.322  0.5140  0.1947  0.1965
 9367TIP3    H128065   2.662   6.059   3.299  0.4954 -0.5201 -3.2446
 9367TIP3    H228066   2.766   5.959   3.347 -0.2703  1.6664  4.2121
 9368TIP3   OH228067   1.189   6.804   1.286  0.2028 -0.1184  0.5988
 9368TIP3    H128068   1.149   6.867   1.345  0.6230  1.0091 -0.2730
 9368TIP3    H228069   1.160   6.718   1.318 -1.8354  0.5808  0.7711
 9369TIP3   OH228070   0.985   1.415   2.761  0.2103 -0.0414  0.0092
 9369TIP3    H128071   1.000   1.362   2.683 -1.1438 -1.5470  0.6980
 9369TIP3    H228072   0.971   1.351   2.831 -0.1657  1.2525  1.1600
 9370TIP3   OH228073   6.733   5.208   4.390 -0.1171  0.0485  0.0548
 9370TIP3    H128074   6.673   5.265   4.341  0.0356 -0.5870 -0.8993
 9370TIP3    H228075   6.750   5.135   4.331  0.0960 -0.7332  1.0660
 9371TIP3   OH228076   3.677   2.365   5.006 -0.2111  0.0514  0.1703
 9371TIP3    H128077   3.600   2.417   4.983 -1.3241 -1.0034  1.3391
 9371TIP3    H228078   3.695   2.314   4.927  0.2192  1.3573 -0.6097
 9372TIP3   OH228079   5.478   3.708   4.697  0.0197 -0.0882 -0.1163
 9372TIP3    H128080   5.500   3.679   4.785  0.1819 -0.7835 -0.3738
 9372TIP3    H228081   5.383   3.718   4.697  0.1198  0.9866  0.4388
 9373TIP3   OH228082   3.414   5.960   2.029 -0.3181  0.1641 -0.2384
 9373TIP3    H128083   3.446   5.980   2.117  0.0726  1.4586 -0.6476
 9373TIP3    H228084   3.452   6.028   1.974  0.9778 -1.6993 -1.7631
 9374TIP3   OH228085   2.994   1.112   0.005  0.0069  0.1200 -0.0324
 9374TIP3    H128086   3.075   1.133   0.052 -0.0642 -0.7427  0.5104
 9374TIP3    H228087   2.982   1.018   0.020 -1.3872  0.3424  0.3614
 9375TIP3   OH228088   7.058   1.675   2.387  0.1924  0.4244  0.0326
 9375TIP3    H128089   7.109   1.659   2.308  0.1404  2.6006 -0.5061
 9375TIP3    H228090   7.122   1.703   2.452  0.3746 -2.2919  1.1456
 9376TIP3   OH228091   3.273   1.898   4.152 -0.3932  0.1718  0.2913
 9376TIP3    H128092   3.344   1.840   4.183  0.3638 -0.5777 -2.5298
 9376TIP3    H228093   3.313   1.984   4.147 -0.3046  0.1549  0.7077
 9377TIP3   OH228094   4.570   2.760   0.070  0.8619  0.4689 -0.5990
 9377TIP3    H128095   4.522   2.686   0.032 -1.5124  0.4721  2.0896
 9377TIP3    H228096   4.529   2.837   0.031 -0.1174  0.4265  0.3062
 9378TIP3   OH228097   5.557   2.524   3.745  0.2301  0.4831  0.3053
 9378TIP3    H128098   5.577   2.577   3.822 -0.0458  1.7779 -0.4817
 9378TIP3    H228099   5.472   2.485   3.764 -1.1571  2.9617 -0.3763
 9379TIP3   OH228100   5.618   1.333   2.566 -0.2838 -0.0162 -0.4792
 9379TIP3    H128101   5.712   1.325   2.549  0.1043  1.0344  1.0164
 9379TIP3    H228102   5.577   1.321   2.480  1.2485  0.1281 -1.2581
 9380TIP3   OH228103   5.086   3.922   3.271  0.5128 -0.9473 -0.3474
 9380TIP3    H128104   5.022   3.859   3.305 -0.0711 -0.4771 -0.5500
 9380TIP3    H228105   5.057   3.940   3.182 -0.6273  1.2239  0.3802
 9381TIP3   OH228106   3.232   3.512   5.215  0.4325 -0.0671 -0.6178
 9381TIP3    H128107   3.245   3.532   5.122  0.1154  0.2590 -0.5907
 9381TIP3    H228108   3.139   3.492   5.223  0.8830 -2.6640 -0.8555
 9382TIP3   OH228109   4.507   3.294   1.843  0.5825 -0.1366  0.2025
 9382TIP3    H128110   4.469   3.215   1.880 -1.0119  0.7689  0.6320
 9382TIP3    H228111   4.600   3.275   1.833  0.0486 -2.5214 -0.9342
 9383TIP3   OH228112   3.213   4.495   5.289  0.5148 -0.2760  0.0062
 9383TIP3    H128113   3.247   4.457   5.371 -0.1785  0.5912  0.7192
 9383TIP3    H228114   3.220   4.424   5.226  1.7165 -0.7501  0.6396
 9384TIP3   OH228115   3.789   0.441   0.638 -0.1418 -0.5035 -0.3902
 9384TIP3    H128116   3.827   0.358   0.610  2.4405  0.3211  0.3531
 9384TIP3    H228117   3.860   0.486   0.684 -2.5703  0.4571  2.8237
 9385TIP3   OH228118   6.130   2.336   5.672 -0.2658  0.4750 -0.1736
 9385TIP3    H128119   6.167   2.421   5.697  0.7619 -0.3371  1.2180
 9385TIP3    H228120   6.036   2.351   5.671 -0.0890  1.7239 -0.3099
 9386TIP3   OH228121   0.146   5.817   3.523 -0.2073 -0.3738 -0.1790
 9386TIP3    H128122   0.223   5.764   3.502 -0.8524 -0.2560 -3.2762
 9386TIP3    H228123   0.079   5.787   3.462 -1.6069  1.7566  0.2168
 9387TIP3   OH228124   5.497   3.385   4.906 -0.2345  0.2051 -0.3494
 9387TIP3    H128125   5.437   3.361   4.835 -1.0642 -2.3015  1.0621
 9387TIP3    H228126   5.470   3.473   4.932 -1.7868  0.0341 -1.2757
 9388TIP3   OH228127   1.999   1.165   4.674  0.2093 -0.0432  0.3434
 9388TIP3    H128128   1.993   1.138   4.582 -0.6793 -0.2379  0.4512
 9388TIP3    H228129   2.093   1.181   4.688  0.2954  0.5317 -0.7436
 9389TIP3   OH228130   5.038   5.074   4.420 -0.3070  0.3125 -0.3437
 9389TIP3    H128131   5.089   4.994   4.406 -0.1464  0.4455 -0.5188
 9389TIP3    H228132   5.100   5.145   4.406 -0.2349  0.4592  0.7017
 9390TIP3   OH228133   4.073   1.068   3.330 -0.0811 -0.0965  0.0345
 9390TIP3    H128134   4.004   1.010   3.300 -0.2095 -0.4481  0.9734
 9390TIP3    H228135   4.154   1.025   3.303 -0.1762 -0.7213  0.7197
 9391TIP3   OH228136   2.161   3.315   4.479  0.3159 -0.0560 -0.3576
 9391TIP3    H128137   2.095   3.247   4.462  0.2213  0.0414 -0.3813
 9391TIP3    H228138   2.175   3.357   4.394 -0.2968  0.5587 -0.1658
 9392TIP3   OH228139   2.252   0.418   3.407  0.2365  0.5569 -0.3567
 9392TIP3    H128140   2.274   0.414   3.314 -0.6919  2.4023 -0.6953
 9392TIP3    H228141   2.232   0.510   3.423  2.1796  0.6460  2.1172
 9393TIP3   OH228142   4.101   6.461   5.209  0.1987 -1.1686  0.3250
 9393TIP3    H128143   4.148   6.440   5.129  0.8879  0.1254  0.3698
 9393TIP3    H228144   4.126   6.551   5.229 -2.4060 -0.3295  0.2619
 9394TIP3   OH228145   4.027   5.003   3.182 -0.3659 -0.1210 -0.0481
 9394TIP3    H128146   3.945   5.021   3.137  0.6167  2.2974 -1.0182
 9394TIP3    H228147   4.050   4.914   3.157 -1.4111  0.0823 -1.8298
 9395TIP3   OH228148   2.276   0.146   4.474  0.4261 -0.1851  0.3651
 9395TIP3    H128149   2.300   0.166   4.383  0.4086 -1.1214  0.1492
 9395TIP3    H228150   2.356   0.110   4.512  0.3237 -0.1456  0.6188
 9396TIP3   OH228151   6.127   4.741   1.046 -0.0341  0.2357  0.2682
 9396TIP3    H128152   6.150   4.652   1.018  1.8956  0.8679 -0.2958
 9396TIP3    H228153   6.181   4.757   1.122 -2.7299 -0.1837  2.4297
 9397TIP3   OH228154   0.184   6.353   2.100  0.4585 -0.3657  0.0575
 9397TIP3    H128155   0.259   6.325   2.153  0.8829 -0.0613 -0.3717
 9397TIP3    H228156   0.179   6.290   2.029 -1.3609 -1.9905  1.5152
 9398TIP3   OH228157   4.689   3.861   3.711  0.2729 -0.3858 -0.3285
 9398TIP3    H128158   4.768   3.833   3.757  0.8709 -1.2726 -1.8179
 9398TIP3    H228159   4.617   3.838   3.769  1.1037  0.9897  1.3350
 9399TIP3   OH228160   4.255   5.319   4.228  0.0288 -0.2051 -0.5861
 9399TIP3    H128161   4.344   5.306   4.195  0.0682  0.8698 -0.9489
 9399TIP3    H228162   4.200   5.316   4.149 -0.2513 -0.7371 -0.3767
 9400TIP3   OH228163   2.312   6.059   3.376  0.3780  0.1936  0.0730
 9400TIP3    H128164   2.398   6.096   3.356  0.3263 -0.1277 -0.7865
 9400TIP3    H228165   2.320   5.966   3.356 -0.2442  0.2092 -0.2808
 9401TIP3   OH228166   5.155   5.289   0.567 -0.2555  0.2151 -0.6442
 9401TIP3    H128167   5.243   5.324   0.583 -0.0843 -0.6065  0.2860
 9401TIP3    H228168   5.098   5.342   0.623 -0.1137 -0.3763  0.0762
 9402TIP3   OH228169   1.899   4.765   1.380 -0.9289  0.5401 -0.2030
 9402TIP3    H128170   1.850   4.725   1.452 -0.3065  0.0832 -0.0218
 9402TIP3    H228171   1.858   4.732   1.301 -0.8385  0.0593 -0.0523
 9403TIP3   OH228172   1.748   4.126   4.358  0.7756 -0.0893  0.6616
 9403TIP3    H128173   1.682   4.163   4.417 -0.3203 -1.4028  0.3287
 9403TIP3    H228174   1.756   4.191   4.288 -1.4441 -0.5833 -0.1545
 9404TIP3   OH228175   2.976   3.705   4.971  0.4033  0.2884  0.1771
 9404TIP3    H128176   3.054   3.759   4.963 -0.4848  1.6841  0.4906
 9404TIP3    H228177   2.927   3.745   5.043  0.3421 -1.7856  1.3612
 9405TIP3   OH228178   0.346   2.634   5.764  1.0008  0.3699 -0.0596
 9405TIP3    H128179   0.342   2.553   5.714 -0.0173 -0.2192  0.9354
 9405TIP3    H228180   0.275   2.688   5.729  1.2159  0.5404 -0.2336
 9406TIP3   OH228181   4.576   5.871   4.046 -0.4012  0.1617  0.0855
 9406TIP3    H128182   4.503   5.928   4.069 -0.6456 -0.1002 -0.0258
 9406TIP3    H228183   4.561   5.849   3.953  0.8075  1.5656 -0.4841
 9407TIP3   OH228184   3.713   1.908   2.444 -0.3588  0.0181  0.0549
 9407TIP3    H128185   3.737   1.817   2.460 -1.2978 -0.6309 -1.9194
 9407TIP3    H228186   3.626   1.917   2.484 -0.8140 -0.3471 -0.8195
 9408TIP3   OH228187   3.961   4.419   1.522  0.2164 -0.0528 -0.0694
 9408TIP3    H128188   4.029   4.468   1.475 -0.1983  0.3591 -0.2383
 9408TIP3    H228189   4.009   4.375   1.593  0.6781  0.1446 -0.2529
 9409TIP3   OH228190   3.908   3.568   3.240  0.3596 -0.2818  0.5062
 9409TIP3    H128191   3.892   3.482   3.280  2.1886 -0.6157  0.6052
 9409TIP3    H228192   3.925   3.626   3.315  3.6721 -0.8820  0.3761
 9410TIP3   OH228193   2.276   5.810   5.304 -0.8216  0.4540  0.0847
 9410TIP3    H128194   2.323   5.864   5.367 -0.2799  0.3096 -0.1890
 9410TIP3    H228195   2.303   5.843   5.218 -0.9366  0.1329 -0.0780
 9411TIP3   OH228196   1.428   6.700   1.068  0.1981 -0.5585  0.0563
 9411TIP3    H128197   1.437   6.706   0.973 -1.6121  0.1466 -0.1215
 9411TIP3    H228198   1.489   6.765   1.102  0.5463 -0.5089 -0.6459
 9412TIP3   OH228199   6.187   4.995   1.461 -0.2322 -0.5433  0.4701
 9412TIP3    H128200   6.120   5.003   1.393  0.0222  0.2195  0.3040
 9412TIP3    H228201   6.148   4.936   1.526 -1.5003  0.7151  0.8977
 9413TIP3   OH228202   2.042   1.306   3.218  0.2356  0.2785  0.1817
 9413TIP3    H128203   1.956   1.332   3.184  1.4943  1.2344 -2.5625
 9413TIP3    H228204   2.034   1.212   3.234 -1.8293  0.6471  1.8998
 9414TIP3   OH228205   0.236   1.816   1.978 -0.0951  0.4690 -0.2252
 9414TIP3    H128206   0.259   1.738   1.928 -1.4514  1.2745 -2.2230
 9414TIP3    H228207   0.245   1.789   2.070  0.1593 -1.7990 -0.8536
 9415TIP3   OH228208   0.273   2.673   2.962  0.8324  0.0059 -0.1832
 9415TIP3    H128209   0.263   2.602   2.898  2.8275 -0.1833 -0.3285
 9415TIP3    H228210   0.313   2.744   2.913  0.8266  0.4604  0.4643
 9416TIP3   OH228211   1.112   1.717   0.588  0.0690 -0.2328 -0.6279
 9416TIP3    H128212   1.097   1.806   0.558  1.0446  0.6662  1.3921
 9416TIP3    H228213   1.158   1.674   0.516 -1.0691  0.6460 -1.9073
 9417TIP3   OH228214   1.437   2.640   2.653 -0.6717  0.3514  0.0534
 9417TIP3    H128215   1.399   2.666   2.569  1.7286  0.7804 -1.0033
 9417TIP3    H228216   1.455   2.547   2.643 -2.1413 -0.0456  0.8720
 9418TIP3   OH228217   5.304   1.122   1.536  0.5129 -0.2731  0.2265
 9418TIP3    H128218   5.213   1.091   1.538  0.3182  0.3267  1.1504
 9418TIP3    H228219   5.327   1.136   1.627  2.3120 -2.5515  0.2334
 9419TIP3   OH228220   0.308   6.130   2.231 -0.7510  0.2387 -0.0585
 9419TIP3    H128221   0.230   6.087   2.267 -0.1354 -0.9878 -0.1197
 9419TIP3    H228222   0.377   6.110   2.293 -0.4564  1.2661 -0.0408
 9420TIP3   OH228223   5.229   3.064   2.270 -0.2179 -0.3712  0.0496
 9420TIP3    H128224   5.181   3.089   2.349 -0.3580  1.1026 -0.4714
 9420TIP3    H228225   5.163   3.065   2.200  0.7411  3.2196 -0.9722
 9421TIP3   OH228226   5.844   0.722   0.960 -0.2094  0.3674  0.4579
 9421TIP3    H128227   5.799   0.803   0.984 -2.0331 -0.1559 -0.9218
 9421TIP3    H228228   5.786   0.681   0.896  1.1445 -1.5604  0.3837
 9422TIP3   OH228229   1.452   4.637   1.550  0.1873 -0.3504  0.1166
 9422TIP3    H128230   1.504   4.638   1.470 -0.0458  2.8985 -0.1386
 9422TIP3    H228231   1.365   4.609   1.522  0.0327  1.0319 -0.8838
 9423TIP3   OH228232   0.411   0.701   5.096 -0.1112 -0.1563  0.5562
 9423TIP3    H128233   0.345   0.633   5.099 -3.5527  2.8800  0.8492
 9423TIP3    H228234   0.437   0.713   5.188 -0.7174 -0.0370  0.7165
 9424TIP3   OH228235   2.593   3.363   3.398 -0.6965 -0.4973  0.1612
 9424TIP3    H128236   2.545   3.295   3.445 -0.9235 -0.1215  0.4910
 9424TIP3    H228237   2.553   3.445   3.429  0.4120 -0.1524  0.7453
 9425TIP3   OH228238   5.447   5.251   4.999  0.1654 -0.5379 -0.0708
 9425TIP3    H128239   5.367   5.209   4.968 -0.7924  0.7730  0.5562
 9425TIP3    H228240   5.454   5.224   5.090 -0.9192  1.2457  0.5915
 9426TIP3   OH228241   0.150   0.603   3.359  0.3249 -0.3465  0.2612
 9426TIP3    H128242   0.241   0.627   3.378  0.2526 -1.0841  1.6630
 9426TIP3    H228243   0.149   0.508   3.362 -0.2273 -0.4164 -1.1694
 9427TIP3   OH228244   3.590   4.844   5.809  0.1713 -0.4841 -0.7172
 9427TIP3    H128245   3.616   4.924   5.764 -1.9801  1.4948  1.2794
 9427TIP3    H228246   3.672   4.803   5.836  1.3727  0.2549 -2.9534
 9428TIP3   OH228247   2.806   5.311   0.792 -0.4404 -0.3502 -0.0242
 9428TIP3    H128248   2.823   5.405   0.778  0.0140 -0.2617  1.0006
 9428TIP3    H228249   2.893   5.273   0.806 -0.6081 -0.9647 -0.6188
 9429TIP3   OH228250   6.500   5.154   0.566 -0.2924  0.0230  0.6708
 9429TIP3    H128251   6.522   5.151   0.659  1.2327 -0.6472  0.3232
 9429TIP3    H228252   6.542   5.234   0.534  2.0188 -1.3940 -0.0547
 9430TIP3   OH228253   3.158   3.362   0.681 -0.3397  0.3549 -0.4251
 9430TIP3    H128254   3.122   3.298   0.620 -1.5931  0.5300  0.0935
 9430TIP3    H228255   3.165   3.442   0.630 -1.2242  0.4579 -0.4049
 9431TIP3   OH228256   4.485   3.584   4.981  0.1119  0.2905  0.1837
 9431TIP3    H128257   4.418   3.518   5.001  0.9907 -1.1003 -1.1901
 9431TIP3    H228258   4.488   3.587   4.885  2.2670 -0.0150  0.1883
 9432TIP3   OH228259   4.099   6.743   5.235  0.3926  0.5187  0.3868
 9432TIP3    H128260   4.094   6.795   5.155 -0.3340 -0.5888 -0.3177
 9432TIP3    H228261   4.109   6.807   5.305  1.7095  1.4803 -0.6355
 9433TIP3   OH228262   2.449   2.611   2.952 -0.0724  0.9726  0.5110
 9433TIP3    H128263   2.366   2.633   2.995 -2.5788 -1.4462 -2.5883
 9433TIP3    H228264   2.425   2.595   2.861  4.0333  0.9877 -0.7538
 9434TIP3   OH228265   1.928   1.503   5.559 -0.0090 -0.0794 -0.0998
 9434TIP3    H128266   2.006   1.525   5.610 -1.0861 -0.2463  1.6913
 9434TIP3    H228267   1.888   1.588   5.540 -0.6083 -0.0958  1.0129
 9435TIP3   OH228268   1.265   4.527   1.910  0.0467  0.4240  0.1579
 9435TIP3    H128269   1.199   4.597   1.913 -0.2092  0.1860  0.1031
 9435TIP3    H228270   1.347   4.571   1.934 -0.2141  0.6211  0.7208
 9436TIP3   OH228271   1.580   1.615   5.463  0.3167 -0.3088 -0.0870
 9436TIP3    H128272   1.512   1.603   5.529  0.1360 -0.2787 -0.2671
 9436TIP3    H228273   1.541   1.672   5.398 -0.1065 -1.6762 -1.0727
 9437TIP3   OH228274   5.381   0.499   1.868  0.0866  0.0427 -0.0162
 9437TIP3    H128275   5.301   0.504   1.816 -0.3425  0.1144  0.6308
 9437TIP3    H228276   5.444   0.453   1.812 -0.8747 -1.3841  0.0358
 9438TIP3   OH228277   0.861   1.533   5.400  0.3346  0.0464 -0.4231
 9438TIP3    H128278   0.919   1.601   5.436  0.1585  0.4361 -0.8666
 9438TIP3    H228279   0.894   1.451   5.437  0.5185  0.3795  0.1594
 9439TIP3   OH228280   4.058   4.119   4.774  0.3217  0.0613  0.0663
 9439TIP3    H128281   3.965   4.130   4.756  0.5524  0.4851 -0.9050
 9439TIP3    H228282   4.092   4.208   4.782  0.8118 -0.0717 -0.4765
 9440TIP3   OH228283   1.336   3.110   3.543  0.4832  0.1665  0.1752
 9440TIP3    H128284   1.356   3.203   3.537  0.5093  0.2888  1.7102
 9440TIP3    H228285   1.410   3.073   3.591 -1.1240  0.0182  2.7782
 9441TIP3   OH228286   1.854   5.875   1.413  0.5839  0.0836  0.6770
 9441TIP3    H128287   1.894   5.919   1.338 -0.4260  1.7014  1.0268
 9441TIP3    H228288   1.767   5.915   1.420  0.6725  0.0047  2.7191
 9442TIP3   OH228289   2.435   2.571   3.311 -0.0206 -0.4337  0.1206
 9442TIP3    H128290   2.529   2.562   3.324 -0.1794 -0.8067  1.1310
 9442TIP3    H228291   2.421   2.664   3.296  0.7062 -0.6161 -1.9809
 9443TIP3   OH228292   7.082   3.425   3.219  0.0774  0.0475 -0.7294
 9443TIP3    H128293   7.013   3.388   3.164 -1.2914 -1.7514  1.9309
 9443TIP3    H228294   7.158   3.369   3.204 -0.0237  0.0668 -1.3431
 9444TIP3   OH228295   0.216   2.233   2.165  0.2585 -0.4186  0.1040
 9444TIP3    H128296   0.276   2.274   2.103 -0.2388  2.3928  1.3306
 9444TIP3    H228297   0.161   2.176   2.112  1.4037  0.0410 -1.6349
 9445TIP3   OH228298   0.604   5.584   1.680  0.5028 -0.1919  0.3241
 9445TIP3    H128299   0.519   5.605   1.717  0.1735 -1.0777  0.1027
 9445TIP3    H228300   0.655   5.665   1.687 -0.5605  0.5305 -0.1442
 9446TIP3   OH228301   4.694   1.981   4.633 -0.2063  0.4175  0.2359
 9446TIP3    H128302   4.787   1.972   4.655  0.2774 -0.7283 -2.0020
 9446TIP3    H228303   4.659   1.892   4.638 -0.2790  0.2222 -2.4086
 9447TIP3   OH228304   2.637   3.765   3.789  0.7461  0.1262 -0.0792
 9447TIP3    H128305   2.689   3.712   3.850 -0.1940  0.4916  1.0922
 9447TIP3    H228306   2.658   3.855   3.813  2.4555  0.3465 -2.1635
 9448TIP3   OH228307   3.664   3.285   1.272 -0.2143 -0.0627 -0.2299
 9448TIP3    H128308   3.611   3.353   1.231 -0.9895 -1.3035 -1.3635
 9448TIP3    H228309   3.601   3.232   1.321  0.6080  1.0342  2.1621
 9449TIP3   OH228310   6.033   6.724   4.306  0.7513 -0.4846 -0.3875
 9449TIP3    H128311   6.117   6.764   4.284 -0.0852  1.6478  0.0425
 9449TIP3    H228312   5.972   6.797   4.311 -1.3325 -2.0503 -1.4220
 9450TIP3   OH228313   1.670   3.676   3.167  0.2733  0.3640  0.0397
 9450TIP3    H128314   1.694   3.675   3.259  0.7724 -0.1885 -0.0938
 9450TIP3    H228315   1.649   3.585   3.146 -2.0298  0.8173  0.1575
 9451TIP3   OH228316   5.496   2.533   4.932 -0.1770  0.2420 -0.1309
 9451TIP3    H128317   5.555   2.473   4.888  0.3495  0.5650  0.1314
 9451TIP3    H228318   5.441   2.568   4.862  1.3374  1.5495 -0.7209
 9452TIP3   OH228319   2.940   2.832   4.243  0.5463  0.3445 -0.5868
 9452TIP3    H128320   2.876   2.904   4.252 -1.2161 -1.3270  1.5744
 9452TIP3    H228321   2.933   2.805   4.152  0.0923  1.8700 -1.0462
 9453TIP3   OH228322   4.249   1.216   0.985 -0.1556  0.6381  0.1039
 9453TIP3    H128323   4.204   1.284   0.935  0.1020 -0.8240 -2.2965
 9453TIP3    H228324   4.178   1.169   1.029 -0.4901  1.4108  0.4106
 9454TIP3   OH228325   3.090   3.764   4.351 -0.1788 -0.0103  0.3805
 9454TIP3    H128326   3.173   3.734   4.389  0.6673  0.6210 -0.8933
 9454TIP3    H228327   3.025   3.748   4.420  1.1519  0.4227  1.7976
 9455TIP3   OH228328   5.236   5.698   1.397 -0.0348 -0.3241  0.0361
 9455TIP3    H128329   5.325   5.704   1.430  0.2053  1.7515 -0.8395
 9455TIP3    H228330   5.182   5.737   1.466 -0.4835 -2.6533  1.0980
 9456TIP3   OH228331   2.113   6.781   5.147 -0.1871  0.3470 -0.0969
 9456TIP3    H128332   2.124   6.771   5.242 -0.7828 -0.6214 -0.1187
 9456TIP3    H228333   2.196   6.750   5.110 -0.9383 -2.0101 -0.0050
 9457TIP3   OH228334   0.397   5.553   2.286  0.3674  0.3706 -0.5557
 9457TIP3    H128335   0.458   5.624   2.264  1.4808 -1.1034 -2.6034
 9457TIP3    H228336   0.316   5.576   2.240  0.0751  1.2293  0.3557
 9458TIP3   OH228337   2.549   0.745   0.190 -0.0654  0.3631  0.1173
 9458TIP3    H128338   2.535   0.825   0.140  0.0234  0.1625 -0.2338
 9458TIP3    H228339   2.644   0.734   0.193 -0.0924 -0.0952 -0.4371
 9459TIP3   OH228340   2.083   5.923   3.515  0.3923 -0.2689 -0.2066
 9459TIP3    H128341   2.162   5.968   3.486  0.1244 -0.1348 -0.7392
 9459TIP3    H228342   2.111   5.873   3.592  0.5157  1.3793  0.8659
 9460TIP3   OH228343   1.212   2.418   0.933  0.4320 -0.4851 -0.8841
 9460TIP3    H128344   1.122   2.399   0.958  0.8510 -1.1552  0.1801
 9460TIP3    H228345   1.247   2.333   0.905  0.9571 -0.3828 -0.5502
 9461TIP3   OH228346   2.058   2.591   4.897 -0.4428  0.0862 -0.3198
 9461TIP3    H128347   2.084   2.670   4.850 -0.5082  0.2656 -0.0585
 9461TIP3    H228348   1.990   2.621   4.958 -0.4594 -0.1690 -0.2119
 9462TIP3   OH228349   2.317   0.892   0.563 -0.0155 -0.0959  0.1508
 9462TIP3    H128350   2.354   0.816   0.518  2.0008  0.7790  0.2291
 9462TIP3    H228351   2.223   0.884   0.549  0.3107 -1.4110 -1.7525
 9463TIP3   OH228352   3.815   2.181   3.614 -0.2786  0.6633  0.4917
 9463TIP3    H128353   3.856   2.242   3.552  1.5054 -0.3835  0.5908
 9463TIP3    H228354   3.816   2.227   3.698  0.3291  0.8022  0.4086
 9464TIP3   OH228355   2.802   0.222   1.800 -0.2268 -0.7097  0.4730
 9464TIP3    H128356   2.893   0.235   1.774 -0.5250 -0.3148 -0.4129
 9464TIP3    H228357   2.779   0.301   1.850 -0.2299 -0.5841  0.2732
 9465TIP3   OH228358   5.176   3.294   1.607 -0.1446 -0.3058  0.2127
 9465TIP3    H128359   5.092   3.304   1.563 -0.5525 -2.5474  0.3871
 9465TIP3    H228360   5.241   3.305   1.538 -0.5373  1.4508  0.0766
 9466TIP3   OH228361   0.206   1.066   4.506  0.1729 -0.1979 -0.1544
 9466TIP3    H128362   0.245   1.141   4.460  2.1127 -0.3636  1.0953
 9466TIP3    H228363   0.222   0.992   4.448  1.2635 -0.1631  0.0841
 9467TIP3   OH228364   0.415   5.585   5.568  0.2054 -0.9911 -0.0910
 9467TIP3    H128365   0.503   5.612   5.595  0.4705 -2.2355  0.3410
 9467TIP3    H228366   0.427   5.546   5.482 -0.2233  0.4228 -0.8431
 9468TIP3   OH228367   5.464   4.269   3.341  0.0910  0.1079 -0.2540
 9468TIP3    H128368   5.433   4.322   3.414  0.4074 -1.2699  0.9460
 9468TIP3    H228369   5.558   4.287   3.336  0.0754  0.1779 -0.2997
 9469TIP3   OH228370   5.207   5.778   5.780 -0.5463 -0.3625 -0.0476
 9469TIP3    H128371   5.280   5.826   5.820  1.3091 -2.6102 -0.5240
 9469TIP3    H228372   5.199   5.816   5.692  0.4290 -0.4162 -0.1747
 9470TIP3   OH228373   4.944   2.762   2.468  0.0842  0.1159 -0.1623
 9470TIP3    H128374   4.986   2.735   2.387 -1.3688 -1.7180 -0.3757
 9470TIP3    H228375   4.963   2.691   2.530  0.5428  1.1302  0.8971
 9471TIP3   OH228376   7.079   2.227   1.298  0.4536  0.3663 -0.0919
 9471TIP3    H128377   7.159   2.242   1.349  0.4314  0.0868  0.0293
 9471TIP3    H228378   7.060   2.134   1.311  0.9183  0.0947 -1.2987
 9472TIP3   OH228379   6.144   1.828   3.532 -0.2960  0.2006 -0.4465
 9472TIP3    H128380   6.199   1.789   3.600 -0.1559  1.7276  0.3750
 9472TIP3    H228381   6.120   1.914   3.568 -1.4164  0.4491 -1.7287
 9473TIP3   OH228382   1.486   0.887   3.760  0.1980 -0.6063 -0.2327
 9473TIP3    H128383   1.431   0.813   3.736  0.7901 -1.7010  1.5726
 9473TIP3    H228384   1.427   0.962   3.763 -0.7515 -1.3392 -0.4448
 9474TIP3   OH228385   4.031   6.373   1.998 -0.0210 -0.2619  0.1900
 9474TIP3    H128386   4.113   6.421   1.986 -0.9819  2.0578  2.0608
 9474TIP3    H228387   3.979   6.396   1.921 -0.2004  1.2206  0.7189
 9475TIP3   OH228388   4.041   0.844   2.423  0.4885 -0.3356  0.1970
 9475TIP3    H128389   3.967   0.852   2.484  1.3454 -0.2630  1.2571
 9475TIP3    H228390   4.042   0.927   2.376  0.5922  0.1247  0.9954
 9476TIP3   OH228391   0.234   2.830   1.994 -0.4590 -0.6389 -0.2952
 9476TIP3    H128392   0.277   2.765   2.049  0.6192 -0.6226 -1.0897
 9476TIP3    H228393   0.287   2.833   1.914 -1.5531 -0.1240 -1.0307
 9477TIP3   OH228394   4.052   1.720   2.534 -0.0126 -0.3332 -0.0611
 9477TIP3    H128395   3.972   1.674   2.558 -1.2504  0.9008 -1.5475
 9477TIP3    H228396   4.027   1.774   2.458  2.0671  0.5723 -0.1869
 9478TIP3   OH228397   6.852   0.690   3.206  0.3096  0.6407 -0.0130
 9478TIP3    H128398   6.900   0.703   3.288  0.4344  1.3456 -0.1845
 9478TIP3    H228399   6.898   0.747   3.143  1.8833 -1.8130 -1.2592
 9479TIP3   OH228400   0.809   6.452   3.616 -0.5090 -0.2200 -0.0277
 9479TIP3    H128401   0.860   6.461   3.696  0.9341 -0.5697 -0.8682
 9479TIP3    H228402   0.820   6.536   3.571 -1.5257  0.0715  0.2310
 9480TIP3   OH228403   3.816   2.289   2.951 -0.5133  0.5445 -0.5447
 9480TIP3    H128404   3.836   2.262   3.040 -0.7357  0.9325 -0.3753
 9480TIP3    H228405   3.892   2.341   2.923 -0.9730  1.4669 -0.1341
 9481TIP3   OH228406   3.534   6.291   4.507 -0.8842 -0.0261  0.6380
 9481TIP3    H128407   3.446   6.320   4.483 -1.3180  0.4566  2.6790
 9481TIP3    H228408   3.521   6.225   4.574  0.2922 -0.9638 -0.0189
 9482TIP3   OH228409   3.297   2.810   3.524  0.2697 -0.1549  0.1787
 9482TIP3    H128410   3.362   2.744   3.498 -0.7795 -0.8223 -0.8742
 9482TIP3    H228411   3.214   2.761   3.528 -0.3347  0.8695  0.5255
 9483TIP3   OH228412   5.918   3.354   1.488  0.1958 -0.0410  0.2362
 9483TIP3    H128413   5.849   3.415   1.516  0.1118  0.5933 -1.2309
 9483TIP3    H228414   5.871   3.282   1.447  0.3688  0.1440 -0.3027
 9484TIP3   OH228415   6.375   5.060   5.645 -0.3423 -0.2233 -0.2375
 9484TIP3    H128416   6.444   5.098   5.592 -0.6196 -0.5777 -0.8626
 9484TIP3    H228417   6.412   5.054   5.733  1.8101 -3.7045 -1.1569
 9485TIP3   OH228418   5.100   4.067   5.034  0.5497  0.5610 -0.1573
 9485TIP3    H128419   5.067   4.149   5.071 -0.9661 -0.4836  0.8951
 9485TIP3    H228420   5.023   4.012   5.025  1.9351 -2.4507  3.5224
 9486TIP3   OH228421   4.676   4.742   4.642 -0.4807 -0.1715  0.2245
 9486TIP3    H128422   4.677   4.754   4.737  1.1393 -1.0842  0.3678
 9486TIP3    H228423   4.725   4.816   4.608 -1.0055  0.1201  0.0961
 9487TIP3   OH228424   4.795   3.119   5.255  0.2999  0.1743  0.3579
 9487TIP3    H128425   4.709   3.079   5.269 -0.0203  1.0161  0.8142
 9487TIP3    H228426   4.794   3.145   5.163  0.2626 -0.2610  0.2302
 9488TIP3   OH228427   3.422   1.502   0.509 -0.3878 -0.7961  0.0639
 9488TIP3    H128428   3.511   1.512   0.476 -0.2937  0.6720  0.6783
 9488TIP3    H228429   3.425   1.535   0.599 -1.2773 -1.9660  0.5522
 9489TIP3   OH228430   1.543   0.093   3.304  0.2042 -0.0004  0.0579
 9489TIP3    H128431   1.638   0.081   3.299  0.3362  0.6334  0.7496
 9489TIP3    H228432   1.512   0.074   3.216  0.9309 -0.5762 -0.0849
 9490TIP3   OH228433   4.788   3.299   4.195 -0.3197  0.7223  0.0363
 9490TIP3    H128434   4.709   3.247   4.206 -1.1633  1.6697 -1.3008
 9490TIP3    H228435   4.860   3.236   4.203 -1.3155 -0.7921 -2.0389
 9491TIP3   OH228436   0.785   4.675   0.631 -0.3772 -1.0736 -0.4529
 9491TIP3    H128437   0.872   4.708   0.654 -0.4101 -1.8189  0.8149
 9491TIP3    H228438   0.802   4.614   0.559  0.2564 -1.7094  0.2089
 9492TIP3   OH228439   6.092   5.559   1.004 -1.1140 -0.7116 -0.0842
 9492TIP3    H128440   6.052   5.589   1.085 -0.1556  0.6691 -0.0852
 9492TIP3    H228441   6.019   5.548   0.943 -1.9024 -2.2175  1.0505
 9493TIP3   OH228442   1.182   0.646   4.424  0.3621 -0.0352 -0.5343
 9493TIP3    H128443   1.243   0.629   4.353 -1.0690  2.7166 -2.6194
 9493TIP3    H228444   1.188   0.741   4.439 -1.5318 -0.0851  0.9434
 9494TIP3   OH228445   2.313   4.918   3.251 -0.5590  0.6277  0.2522
 9494TIP3    H128446   2.298   4.826   3.229 -2.3342  0.9593 -0.1140
 9494TIP3    H228447   2.387   4.944   3.197 -0.4654 -0.4058 -0.1414
 9495TIP3   OH228448   2.996   2.908   3.752 -0.6528  0.2378 -0.1197
 9495TIP3    H128449   3.073   2.857   3.778  0.1544  1.4398 -0.0638
 9495TIP3    H228450   3.024   2.954   3.672 -1.4867  0.3136 -0.3755
 9496TIP3   OH228451   6.147   5.459   3.303 -0.0418 -0.3403 -0.0404
 9496TIP3    H128452   6.156   5.370   3.270  0.3024 -0.1243 -0.5411
 9496TIP3    H228453   6.119   5.449   3.394 -1.3526 -0.9493 -0.4929
 9497TIP3   OH228454   2.821   4.907   0.142 -0.4492 -0.2614 -0.1797
 9497TIP3    H128455   2.739   4.881   0.184 -0.7919  0.0399 -0.6521
 9497TIP3    H228456   2.830   5.000   0.163  0.5798 -0.6370  1.1916
 9498TIP3   OH228457   6.332   4.582   1.250 -0.2965 -0.0099  0.7052
 9498TIP3    H128458   6.416   4.629   1.249 -0.9252  1.1433  0.9267
 9498TIP3    H228459   6.357   4.490   1.255  0.9649  0.2974  0.5410
 9499TIP3   OH228460   7.089   1.050   0.046  0.4690  0.0846 -0.2690
 9499TIP3    H128461   7.068   0.996  -0.030  0.8138 -0.5418  0.0761
 9499TIP3    H228462   7.075   0.992   0.121 -0.1063  0.7695  0.1660
 9500TIP3   OH228463   3.435   3.220   4.640 -0.1825 -0.0584 -0.1570
 9500TIP3    H128464   3.445   3.155   4.570  2.3666  1.0534 -0.9420
 9500TIP3    H228465   3.496   3.192   4.708 -0.3667  0.5558  0.2703
 9501TIP3   OH228466   4.150   5.903   2.000  0.5593 -0.3106 -0.3876
 9501TIP3    H128467   4.107   5.845   2.064  0.1752 -1.4485 -1.6309
 9501TIP3    H228468   4.243   5.887   2.013  0.4557 -2.7729 -2.0059
 9502TIP3   OH228469   1.889   2.632   1.347  0.0925  0.4521  0.3851
 9502TIP3    H128470   1.846   2.712   1.317  0.1517  0.6537  0.8189
 9502TIP3    H228471   1.982   2.650   1.337  0.1008 -0.6908 -2.3549
 9503TIP3   OH228472   5.105   5.765   2.154  0.1729 -0.4701  0.1350
 9503TIP3    H128473   5.123   5.683   2.107  1.1908 -0.4642  0.4881
 9503TIP3    H228474   5.012   5.782   2.138  0.2080 -1.1160 -0.8539
 9504TIP3   OH228475   2.007   4.960   3.873  0.5420 -0.5884  0.6390
 9504TIP3    H128476   2.086   5.001   3.911  0.6482 -2.1473  2.2166
 9504TIP3    H228477   2.022   4.866   3.882 -1.7357 -0.9373  1.5351
 9505TIP3   OH228478   5.935   1.967   5.489  0.1399 -0.1882 -0.0518
 9505TIP3    H128479   5.947   2.060   5.470 -0.2130  0.3326  2.0911
 9505TIP3    H228480   5.868   1.964   5.558 -1.4369 -2.1632 -1.4972
 9506TIP3   OH228481   5.460   5.180   3.507  0.2256  0.1861  0.3588
 9506TIP3    H128482   5.366   5.178   3.523  0.0852  0.7480 -0.3542
 9506TIP3    H228483   5.469   5.161   3.413  0.8272 -0.0081  0.4534
 9507TIP3   OH228484   2.352   2.296   1.673 -0.3482 -0.4648 -0.4782
 9507TIP3    H128485   2.257   2.284   1.681 -0.1356 -1.3640  1.1268
 9507TIP3    H228486   2.386   2.206   1.666  0.2542 -0.1170 -3.6059
 9508TIP3   OH228487   2.910   1.762   2.172 -0.1966  0.6629  0.5387
 9508TIP3    H128488   2.817   1.785   2.180 -0.0531  1.8771 -0.6832
 9508TIP3    H228489   2.912   1.667   2.178 -1.3219  0.7064  2.1498
 9509TIP3   OH228490   3.503   5.115   4.216  0.0540 -0.5944  0.1041
 9509TIP3    H128491   3.433   5.175   4.241 -0.9534 -1.8760  0.4770
 9509TIP3    H228492   3.513   5.129   4.122 -0.0016  0.3179  0.2267
 9510TIP3   OH228493   3.828   0.339   5.187  0.6910 -0.3992  0.6662
 9510TIP3    H128494   3.899   0.299   5.137  0.5330  0.4848 -0.3146
 9510TIP3    H228495   3.810   0.421   5.140 -0.1608 -0.0398  1.5999
 9511TIP3   OH228496   6.167   4.799   3.952  1.2849 -0.3193 -0.0463
 9511TIP3    H128497   6.220   4.749   3.890  0.9432  0.1398 -0.7265
 9511TIP3    H228498   6.079   4.798   3.914  1.2639  0.7438 -0.0503
 9512TIP3   OH228499   0.148   2.726   0.978  0.2666  0.3901 -0.7830
 9512TIP3    H128500   0.162   2.647   1.030  0.7500  1.6641  1.1270
 9512TIP3    H228501   0.085   2.777   1.028  0.3283  1.4368 -1.7367
 9513TIP3   OH228502   1.282   0.524   2.918 -0.1030 -0.2781  0.4055
 9513TIP3    H128503   1.242   0.440   2.899  1.2234 -0.8837  0.1738
 9513TIP3    H228504   1.208   0.583   2.933 -1.1595 -0.7834 -2.2655
 9514TIP3   OH228505   4.682   2.770   2.650 -0.7195 -0.4884  0.9836
 9514TIP3    H128506   4.702   2.686   2.609  0.8078  0.0565  0.5704
 9514TIP3    H228507   4.596   2.794   2.615  0.5028 -0.0591 -1.9512
 9515TIP3   OH228508   1.546   2.243   0.033  0.0598 -0.1662  0.1818
 9515TIP3    H128509   1.629   2.257   0.077 -0.6660 -0.6537  1.7943
 9515TIP3    H228510   1.526   2.326  -0.010  0.9040  0.2572  0.6026
 9516TIP3   OH228511   6.499   1.210   5.387 -0.3152  0.1499  0.2241
 9516TIP3    H128512   6.575   1.269   5.380  0.0148 -0.2734  0.2421
 9516TIP3    H228513   6.508   1.169   5.472 -0.5149  0.0264  0.1860
 9517TIP3   OH228514   5.959   4.858   2.051  0.2678 -0.1693 -0.2085
 9517TIP3    H128515   5.937   4.944   2.088 -1.0138  0.2489 -1.8414
 9517TIP3    H228516   6.054   4.853   2.058  0.4995  1.9027 -1.0917
 9518TIP3   OH228517   4.950   1.788   2.135 -0.2836  0.1309 -0.4766
 9518TIP3    H128518   5.042   1.812   2.140 -0.3548  0.4845 -0.8084
 9518TIP3    H228519   4.903   1.872   2.137 -0.5907 -0.0387 -0.4368
 9519TIP3   OH228520   1.338   3.396   3.568  0.5022 -0.8801 -0.3016
 9519TIP3    H128521   1.245   3.417   3.567  0.3384 -1.6128 -0.5559
 9519TIP3    H228522   1.374   3.443   3.492  1.0255  2.3486  1.7401
 9520TIP3   OH228523   7.119   1.324   3.880 -0.3115 -0.1880  0.0204
 9520TIP3    H128524   7.174   1.279   3.945 -1.1492 -0.7276  0.3664
 9520TIP3    H228525   7.181   1.353   3.813  0.5257  0.1034  0.8975
 9521TIP3   OH228526   0.411   0.676   1.022  0.4708 -0.4440  0.1055
 9521TIP3    H128527   0.332   0.712   1.061 -0.3165 -0.3218 -1.5343
 9521TIP3    H228528   0.395   0.582   1.014  0.1135 -0.3129 -0.9778
 9522TIP3   OH228529   2.781   0.569   0.993  0.2065  0.7414 -0.8589
 9522TIP3    H128530   2.710   0.517   0.955  1.2942  0.0625 -2.0618
 9522TIP3    H228531   2.764   0.569   1.087 -1.4985  0.8014 -1.1373
 9523TIP3   OH228532   6.918   1.478   5.876 -0.2607  0.3007 -0.0950
 9523TIP3    H128533   6.995   1.522   5.841 -1.2793  0.7302 -1.9574
 9523TIP3    H228534   6.888   1.535   5.947 -0.9034  2.1152 -1.7253
 9524TIP3   OH228535   1.650   2.981   1.916  0.7208 -0.3304  0.1785
 9524TIP3    H128536   1.696   2.908   1.875  0.2493 -0.4781 -0.1104
 9524TIP3    H228537   1.697   2.997   1.997 -0.3723 -2.3186  1.2852
 9525TIP3   OH228538   0.580   2.147   1.854  0.2030  0.1282 -0.8034
 9525TIP3    H128539   0.637   2.097   1.912  1.7399  0.1576 -2.2038
 9525TIP3    H228540   0.558   2.086   1.784  0.5723  0.8438 -1.5596
 9526TIP3   OH228541   1.782   5.081   5.562 -0.0863 -0.1012  0.6960
 9526TIP3    H128542   1.819   5.025   5.630 -0.5988 -0.0349  1.0401
 9526TIP3    H228543   1.693   5.048   5.550  0.4692 -1.0857 -1.0357
 9527TIP3   OH228544   1.452   5.301   0.624 -0.1299  0.0950 -0.0701
 9527TIP3    H128545   1.537   5.285   0.584 -0.3679  2.6434 -1.8927
 9527TIP3    H228546   1.456   5.257   0.709  3.6692  1.5926  0.7154
 9528TIP3   OH228547   4.548   2.029   4.994  0.5134  0.2452 -0.4161
 9528TIP3    H128548   4.556   2.048   4.900 -1.0521 -1.5244 -0.9723
 9528TIP3    H228549   4.471   2.080   5.022  0.5269  0.1822 -0.2649
 9529TIP3   OH228550   1.886   5.888   2.879 -0.1961  0.0414 -0.3212
 9529TIP3    H128551   1.812   5.918   2.933 -1.3117  0.0914 -1.8269
 9529TIP3    H228552   1.931   5.968   2.853  0.0865  0.0438  0.1658
 9530TIP3   OH228553   5.256   5.519   5.697  0.1169 -0.3343  0.1211
 9530TIP3    H128554   5.184   5.504   5.636  0.7808 -0.7809 -0.5740
 9530TIP3    H228555   5.257   5.614   5.709 -2.8342 -0.4722  2.9692
 9531TIP3   OH228556   4.701   4.568   0.432 -0.1774 -0.0469  0.0363
 9531TIP3    H128557   4.631   4.523   0.479  0.3643 -2.8713 -1.6122
 9531TIP3    H228558   4.656   4.627   0.372 -1.1948 -1.3886 -0.5886
 9532TIP3   OH228559   6.169   3.203   1.397 -0.0212 -0.1764 -0.1195
 9532TIP3    H128560   6.192   3.224   1.306 -1.4975  0.0233 -0.4678
 9532TIP3    H228561   6.123   3.281   1.429  1.6199  0.2824  1.2560
 9533TIP3   OH228562   3.156   5.423   3.417  0.5214 -0.2543  0.0744
 9533TIP3    H128563   3.163   5.417   3.322 -1.8664  1.5518 -0.3209
 9533TIP3    H228564   3.172   5.515   3.437 -1.2935 -0.0993  1.0941
 9534TIP3   OH228565   2.508   3.473   0.925 -0.1849  0.4597 -0.1880
 9534TIP3    H128566   2.420   3.441   0.945 -0.5421  0.5518 -1.5350
 9534TIP3    H228567   2.562   3.394   0.921 -0.2901  0.3656  0.2353
 9535TIP3   OH228568   5.356   0.924   1.352 -0.1631 -0.3865  0.7409
 9535TIP3    H128569   5.279   0.925   1.295  1.1771 -0.5173 -1.1876
 9535TIP3    H228570   5.342   0.997   1.413 -1.1738  0.4891 -0.4762
 9536TIP3   OH228571   3.614   4.287   0.297 -0.0575  0.2063 -0.1353
 9536TIP3    H128572   3.521   4.266   0.291 -0.2986  0.7611  1.2762
 9536TIP3    H228573   3.620   4.380   0.274  0.2177  0.0725 -0.6290
 9537TIP3   OH228574   6.006   4.964   3.588  0.1596 -0.2377 -0.2192
 9537TIP3    H128575   6.022   5.058   3.582 -0.5052 -0.1593 -0.9221
 9537TIP3    H228576   6.093   4.926   3.602  0.2689  0.5722  1.5814
 9538TIP3   OH228577   0.594   1.963   1.329 -0.0335 -0.5397 -0.0342
 9538TIP3    H128578   0.649   1.929   1.259  0.5241  0.7439 -0.2401
 9538TIP3    H228579   0.619   1.910   1.406 -0.1197 -1.4497 -0.6143
 9539TIP3   OH228580   2.116   0.332   2.194 -0.0678  0.2570  0.2081
 9539TIP3    H128581   2.054   0.306   2.126 -0.4911  0.0225  0.6820
 9539TIP3    H228582   2.066   0.330   2.275  0.9189 -1.3629  0.8294
 9540TIP3   OH228583   6.258   5.616  -0.007  0.3701 -0.0218 -0.0249
 9540TIP3    H128584   6.263   5.601   0.087  1.6697 -1.6841 -0.3088
 9540TIP3    H228585   6.193   5.684  -0.017 -1.0446 -0.9874  1.9695
 9541TIP3   OH228586   0.769   0.969   1.569 -0.5991 -0.6018 -0.0414
 9541TIP3    H128587   0.802   1.029   1.502 -2.1166  0.2201 -0.1115
 9541TIP3    H228588   0.717   0.905   1.520 -0.6747 -0.7479  0.2299
 9542TIP3   OH228589   1.546   4.955  -0.001  0.9712  0.3368  0.0967
 9542TIP3    H128590   1.636   4.977   0.025  0.7363 -1.9414  3.3436
 9542TIP3    H228591   1.496   5.035   0.018  1.8394  0.6348  1.2507
 9543TIP3   OH228592   1.088   4.569   0.461  0.0047  0.0130  0.4829
 9543TIP3    H128593   1.059   4.660   0.454  1.9458  0.6682  0.2738
 9543TIP3    H228594   1.170   4.566   0.412 -0.7452 -2.2241 -0.7743
 9544TIP3   OH228595   0.030   0.441   1.089  0.1049  0.1466  0.2280
 9544TIP3    H128596  -0.037   0.454   1.156 -0.9963 -0.8729 -0.6291
 9544TIP3    H228597   0.025   0.520   1.035  1.0352  0.9947  1.3462
 9545TIP3   OH228598   4.793   4.568   3.633  0.5138 -0.0788 -0.2594
 9545TIP3    H128599   4.815   4.599   3.721 -1.4032  0.9919 -0.1086
 9545TIP3    H228600   4.834   4.632   3.574  0.2833  0.2364 -0.0800
 9546TIP3   OH228601   0.082   4.074   0.759  0.4675 -0.1946 -0.6978
 9546TIP3    H128602   0.015   4.143   0.764  1.6753  0.9332  1.1276
 9546TIP3    H228603   0.144   4.106   0.693  0.0942 -0.4216 -1.1619
 9547TIP3   OH228604   3.798   5.747   3.632  0.2145 -0.1027 -0.2892
 9547TIP3    H128605   3.785   5.719   3.542  2.7911  0.9796 -1.0716
 9547TIP3    H228606   3.885   5.715   3.656  0.2578  1.0155  1.2435
 9548TIP3   OH228607   3.612   4.831   5.433 -0.0812  0.7045  0.2630
 9548TIP3    H128608   3.520   4.846   5.454  0.2863  0.9428  1.7829
 9548TIP3    H228609   3.609   4.772   5.358 -1.4680  0.8780  0.1464
 9549TIP3   OH228610   6.033   2.095   3.601 -0.0638 -0.3987  0.0263
 9549TIP3    H128611   6.089   2.171   3.581 -1.1597 -0.1586 -2.6007
 9549TIP3    H228612   6.011   2.105   3.693  1.0128  1.6729  0.1321
 9550TIP3   OH228613   5.145   5.045   5.732 -0.0619  0.5426 -0.0958
 9550TIP3    H128614   5.107   5.054   5.645 -0.2096 -0.8208 -0.1984
 9550TIP3    H228615   5.221   4.987   5.719 -0.1021  0.3040  0.6767
 9551TIP3   OH228616   0.737   3.272   5.384  0.6403  0.2134 -0.3608
 9551TIP3    H128617   0.663   3.213   5.398  0.6553  0.6401  1.9042
 9551TIP3    H228618   0.776   3.243   5.302  0.1136 -2.3567  0.2220
 9552TIP3   OH228619   2.391   1.179   4.497  0.0536 -0.1284  0.0682
 9552TIP3    H128620   2.415   1.116   4.428 -1.4531  0.5800 -1.1807
 9552TIP3    H228621   2.392   1.264   4.453 -2.1785  0.2065  0.5529
 9553TIP3   OH228622   2.124   4.415   0.439 -0.4367 -0.2478 -1.1766
 9553TIP3    H128623   2.050   4.392   0.383 -0.5587 -1.7575 -0.4730
 9553TIP3    H228624   2.155   4.330   0.473  0.5091  0.5021 -0.0884
 9554TIP3   OH228625   5.860   0.391   3.865  0.1753  0.1611  0.5555
 9554TIP3    H128626   5.773   0.352   3.859 -0.6187  1.5147  2.2961
 9554TIP3    H228627   5.902   0.345   3.938 -0.3007  1.6000  1.7887
 9555TIP3   OH228628   3.056   1.646   2.614 -0.4161 -0.3030  0.7703
 9555TIP3    H128629   2.987   1.712   2.621  0.5444  0.7399  0.7551
 9555TIP3    H228630   3.043   1.590   2.690 -0.0480  1.1310  1.9512
 9556TIP3   OH228631   4.802   6.702   1.679 -0.2612  0.2313  0.1803
 9556TIP3    H128632   4.891   6.737   1.671  0.0465 -0.6932 -0.6468
 9556TIP3    H228633   4.748   6.778   1.700  0.2199  1.3982 -2.4396
 9557TIP3   OH228634   3.242   0.482   5.039  0.2533  0.2058 -0.2423
 9557TIP3    H128635   3.176   0.548   5.020 -0.1610 -0.5846 -1.7682
 9557TIP3    H228636   3.296   0.478   4.960  1.1047 -0.3251  0.3458
 9558TIP3   OH228637   1.016   1.960   0.460  0.3863  0.2139 -0.1554
 9558TIP3    H128638   0.960   1.992   0.531  2.3202  1.9924  0.6694
 9558TIP3    H228639   0.987   2.009   0.383 -2.1798 -2.2048 -0.9306
 9559TIP3   OH228640   3.471   5.531   2.369 -0.1076  0.0205 -0.1656
 9559TIP3    H128641   3.400   5.474   2.338  0.1138 -0.1581 -0.3491
 9559TIP3    H228642   3.482   5.508   2.461  2.0892 -2.5195 -0.9304
 9560TIP3   OH228643   5.925   0.263   3.414 -0.0100 -0.1884  0.0581
 9560TIP3    H128644   5.982   0.314   3.355  0.7108  0.8154  1.5436
 9560TIP3    H228645   5.908   0.323   3.487  0.0022 -1.7534  1.3787
 9561TIP3   OH228646   2.381   4.127   5.539  0.1228 -0.3447 -0.4484
 9561TIP3    H128647   2.448   4.105   5.603 -0.5763 -1.5039 -0.0877
 9561TIP3    H228648   2.299   4.098   5.580 -0.4337 -0.2587 -1.4808
 9562TIP3   OH228649   3.755   6.699   2.087  0.6068 -0.0592  0.1782
 9562TIP3    H128650   3.766   6.792   2.103  1.6169 -0.1585  0.1425
 9562TIP3    H228651   3.813   6.657   2.151 -1.6217 -0.7810  1.8474
 9563TIP3   OH228652   4.875   4.601   0.982  0.4437 -0.0673  0.5063
 9563TIP3    H128653   4.823   4.621   0.903 -0.5130 -0.2095  1.0811
 9563TIP3    H228654   4.893   4.508   0.975  0.7885  0.0151  0.2202
 9564TIP3   OH228655   5.626   3.875   5.118  0.7438  0.3741  0.4380
 9564TIP3    H128656   5.645   3.953   5.067 -0.2329  0.0974 -0.3767
 9564TIP3    H228657   5.536   3.888   5.149  0.9791  0.0906  1.2824
 9565TIP3   OH228658   1.850   4.120   0.486  0.3588  0.2410  0.6092
 9565TIP3    H128659   1.763   4.153   0.510  0.3450  0.1043  0.7496
 9565TIP3    H228660   1.885   4.084   0.568  0.3272 -0.1976  0.4318
 9566TIP3   OH228661   5.335   4.961   1.416 -0.2501 -0.3803  0.6197
 9566TIP3    H128662   5.291   4.925   1.339 -0.5179 -0.4429  0.7984
 9566TIP3    H228663   5.426   4.974   1.388 -0.2321 -0.8549  0.4406
 9567TIP3   OH228664   6.716   6.333   2.098  0.4835 -0.4717  0.3199
 9567TIP3    H128665   6.748   6.303   2.013  0.2056  1.3369 -0.4783
 9567TIP3    H228666   6.626   6.301   2.103  0.4311 -0.4076 -0.1725
 9568TIP3   OH228667   0.958   0.439   3.267 -0.5905 -0.4367  0.4019
 9568TIP3    H128668   1.016   0.362   3.265 -0.1819 -0.1339  0.4588
 9568TIP3    H228669   0.883   0.414   3.213  0.0678 -0.4568 -0.5314
 9569TIP3   OH228670   1.562   4.035   2.593  0.1018  0.0300 -0.0358
 9569TIP3    H128671   1.608   4.049   2.675  0.8640 -0.9900 -0.2709
 9569TIP3    H228672   1.473   4.009   2.619  0.3208 -0.2334  0.4689
 9570TIP3   OH228673   6.233   3.208   1.108 -0.3089 -0.5158 -0.0391
 9570TIP3    H128674   6.290   3.132   1.114  0.8406  0.3664  0.7739
 9570TIP3    H228675   6.209   3.213   1.015  0.3617 -1.3184 -0.2718
 9571TIP3   OH228676   6.757   2.672   5.266  0.4251  0.0150 -0.3154
 9571TIP3    H128677   6.843   2.697   5.300  0.3403  0.3781 -0.3593
 9571TIP3    H228678   6.699   2.742   5.296  0.0253 -0.5316  0.2252
 9572TIP3   OH228679   1.756   3.600   2.350  0.2183 -0.0434  0.0482
 9572TIP3    H128680   1.732   3.683   2.390  1.1007  0.3149 -0.1450
 9572TIP3    H228681   1.741   3.613   2.256 -0.7075 -0.4877  0.1163
 9573TIP3   OH228682   7.141   1.780   4.099  0.2600 -0.1738  0.2627
 9573TIP3    H128683   7.194   1.708   4.065  0.2647 -1.0589  2.0397
 9573TIP3    H228684   7.198   1.826   4.160 -0.2172  0.4417  0.2610
 9574TIP3   OH228685   3.189   2.463   3.096  0.0682  0.3551 -0.2516
 9574TIP3    H128686   3.198   2.431   3.007  1.7175  2.5501 -0.9906
 9574TIP3    H228687   3.258   2.417   3.145  1.5743  1.6910 -1.0061
 9575TIP3   OH228688   0.975   4.708   1.080  0.2013  0.4706  0.6312
 9575TIP3    H128689   1.020   4.776   1.030  0.9424 -0.5594 -0.1423
 9575TIP3    H228690   0.899   4.686   1.028 -0.1151  0.7921  0.9508
 9576TIP3   OH228691   6.195   3.668   2.077 -0.2779 -0.2719 -0.6909
 9576TIP3    H128692   6.209   3.585   2.122  1.6699  0.2743 -0.1826
 9576TIP3    H228693   6.266   3.672   2.013 -0.6739  0.7673 -1.0834
 9577TIP3   OH228694   4.135   0.500   1.179  0.2050  0.2088 -0.0069
 9577TIP3    H128695   4.066   0.561   1.207 -0.2799 -0.5902  0.5967
 9577TIP3    H228696   4.118   0.421   1.230  0.2183 -0.7835 -1.4924
 9578TIP3   OH228697   6.076   0.053   0.597  0.3086  0.1035 -0.0477
 9578TIP3    H128698   6.019   0.012   0.662  0.3950  1.8455  1.1864
 9578TIP3    H228699   6.022   0.120   0.555  1.0432  0.8408  0.1620
 9579TIP3   OH228700   1.534   0.738   5.063  0.2187  0.0304  0.0253
 9579TIP3    H128701   1.593   0.754   4.989  0.0239  1.2910  0.1191
 9579TIP3    H228702   1.461   0.799   5.049  0.4820  0.7443  1.5846
 9580TIP3   OH228703   4.473   1.085   5.146  0.7607  0.1605  0.0905
 9580TIP3    H128704   4.378   1.094   5.143  0.7749  1.3794  1.7184
 9580TIP3    H228705   4.501   1.081   5.055 -0.8950 -1.0128 -0.4090
 9581TIP3   OH228706   1.665   5.444   0.824 -0.0377  0.0497 -0.1716
 9581TIP3    H128707   1.588   5.391   0.845  0.6819 -0.8360  0.2804
 9581TIP3    H228708   1.727   5.426   0.895  1.5254 -1.1260 -1.7511
 9582TIP3   OH228709   5.806   4.328   2.037 -0.0381 -0.3593 -0.2648
 9582TIP3    H128710   5.749   4.388   2.085  1.7564  1.3430 -0.1190
 9582TIP3    H228711   5.885   4.322   2.091  1.3851  0.3072 -2.1788
 9583TIP3   OH228712   3.017   5.899   1.204  0.0078 -0.1581  0.0114
 9583TIP3    H128713   2.995   5.863   1.118 -0.1468  2.2868 -1.0554
 9583TIP3    H228714   2.932   5.920   1.243  0.1360  0.4510 -0.0330
 9584TIP3   OH228715   2.475   5.822   3.608  0.3320 -0.1089  0.0649
 9584TIP3    H128716   2.437   5.860   3.687 -0.4595 -0.2912 -0.2240
 9584TIP3    H228717   2.570   5.830   3.621  0.2864  3.3310 -0.5769
 9585TIP3   OH228718   3.453   3.441   0.676 -0.2205  0.2414  0.2829
 9585TIP3    H128719   3.392   3.429   0.749 -0.7194  3.1073  0.4418
 9585TIP3    H228720   3.403   3.493   0.612  0.8044 -0.6759 -1.3279
 9586TIP3   OH228721   0.768   5.608   3.778  0.6629  0.0394 -0.4465
 9586TIP3    H128722   0.859   5.596   3.803  0.5744  0.7190  0.2303
 9586TIP3    H228723   0.730   5.660   3.849  0.2619  1.5267 -1.6931
 9587TIP3   OH228724   0.035   2.044   5.503  0.0795 -0.5235 -0.3258
 9587TIP3    H128725  -0.009   2.019   5.422  0.7569  0.8080 -1.1299
 9587TIP3    H228726   0.128   2.032   5.485  0.3297  1.0281 -0.2304
 9588TIP3   OH228727   0.759   1.841   4.388  0.1143  0.5389 -0.3946
 9588TIP3    H128728   0.773   1.863   4.481 -0.5466  0.5307 -0.2873
 9588TIP3    H228729   0.844   1.854   4.348  0.2040  1.4239  0.0439
 9589TIP3   OH228730   3.054   5.417   0.174 -0.2817  0.5030  0.0419
 9589TIP3    H128731   3.092   5.485   0.230  0.5912  0.2035 -0.1639
 9589TIP3    H228732   3.076   5.335   0.218 -0.0423  0.2915 -0.4601
 9590TIP3   OH228733   2.396   0.071   3.988  0.3939  0.0968  0.3745
 9590TIP3    H128734   2.462   0.056   3.921  0.3152 -1.5626  0.6454
 9590TIP3    H228735   2.318   0.024   3.957  0.7935 -1.9840  2.2745
 9591TIP3   OH228736   3.340   0.930   4.847 -0.3791 -0.2309 -0.3849
 9591TIP3    H128737   3.313   0.999   4.787  0.0389  0.6839  0.4576
 9591TIP3    H228738   3.378   0.976   4.922 -0.4629 -1.3568  0.3778
 9592TIP3   OH228739   3.563   2.447   1.030 -0.2459 -0.0116  0.3604
 9592TIP3    H128740   3.589   2.514   1.094 -0.6665  0.0048  0.5131
 9592TIP3    H228741   3.594   2.365   1.069  0.9974  0.1647 -0.2062
 9593TIP3   OH228742   6.022   5.010   0.523 -0.1029 -0.0245  0.2922
 9593TIP3    H128743   6.050   4.918   0.524 -0.1320 -0.0619  2.8179
 9593TIP3    H228744   6.093   5.057   0.567 -1.7856  0.5764  2.4888
 9594TIP3   OH228745   4.219   5.579   5.474 -0.4013 -0.1405 -0.1478
 9594TIP3    H128746   4.309   5.610   5.464 -1.0626  1.9738 -0.1174
 9594TIP3    H228747   4.201   5.530   5.394  0.1916  1.0339 -1.0279
 9595TIP3   OH228748   4.335   5.876   5.012 -0.8338 -0.0650  0.7852
 9595TIP3    H128749   4.306   5.793   4.973 -1.7138  0.7276 -0.3137
 9595TIP3    H228750   4.418   5.854   5.055 -0.2121 -1.1919 -0.8517
 9596TIP3   OH228751   3.897   0.802   1.289  0.1408  0.2284 -0.0304
 9596TIP3    H128752   3.989   0.828   1.298 -0.2711  1.8511 -0.3495
 9596TIP3    H228753   3.848   0.883   1.296 -1.0334  0.0534 -3.9057
 9597TIP3   OH228754   2.142   2.325   3.657 -0.2514  0.2077  0.6048
 9597TIP3    H128755   2.140   2.397   3.595 -2.0999  0.3863  0.8392
 9597TIP3    H228756   2.136   2.246   3.602  1.8421  0.1485  0.3442
 9598TIP3   OH228757   2.516   5.836   1.061  0.5031  0.3758 -0.3388
 9598TIP3    H128758   2.520   5.814   1.154 -1.8094  0.0413 -0.2543
 9598TIP3    H228759   2.519   5.751   1.016 -0.6967  0.3549 -0.4152
 9599TIP3   OH228760   0.614   5.252   3.049 -0.4649 -0.7899 -0.1171
 9599TIP3    H128761   0.682   5.196   3.010 -1.7428 -1.4118 -1.5541
 9599TIP3    H228762   0.538   5.240   2.992 -1.4240  0.8126  0.7681
 9600TIP3   OH228763   2.317   4.010   0.724 -0.2578 -0.5903 -0.1953
 9600TIP3    H128764   2.390   3.958   0.692 -0.3450 -0.9982  0.2440
 9600TIP3    H228765   2.294   3.970   0.808 -1.0800 -0.5647 -0.3951
 9601TIP3   OH228766   0.544   1.608   0.145  0.3458  0.0738 -0.3509
 9601TIP3    H128767   0.466   1.658   0.169  0.9962 -0.1258  2.5806
 9601TIP3    H228768   0.598   1.669   0.095 -0.2541  1.2964  0.4566
 9602TIP3   OH228769   1.786   6.688   2.104 -0.5302 -0.4584  0.5866
 9602TIP3    H128770   1.828   6.754   2.160  0.4520 -0.1791 -0.4420
 9602TIP3    H228771   1.829   6.606   2.127 -1.8068 -0.7838  1.9222
 9603TIP3   OH228772   3.241   3.637   1.848  0.3086  0.6720  0.0222
 9603TIP3    H128773   3.192   3.714   1.877 -1.1978 -0.7211  1.4185
 9603TIP3    H228774   3.219   3.628   1.755 -0.6581  1.1252  0.1952
 9604TIP3   OH228775   1.287   2.273   0.545 -0.3130  0.3106 -0.0330
 9604TIP3    H128776   1.272   2.363   0.515  1.6177  0.7359  0.1669
 9604TIP3    H228777   1.332   2.231   0.472 -2.7536 -1.0832 -0.8466
 9605TIP3   OH228778   4.841   6.054   1.012  0.3238 -0.1605  0.1236
 9605TIP3    H128779   4.837   6.043   0.916 -0.8884  2.5152 -0.2265
 9605TIP3    H228780   4.913   6.114   1.026  0.6184 -0.6991  0.9376
 9606TIP3   OH228781   1.476   5.087   2.483  0.3124  1.0500 -0.0326
 9606TIP3    H128782   1.568   5.075   2.458 -0.0360 -0.0088 -0.8868
 9606TIP3    H228783   1.431   5.010   2.448 -1.1660  2.2493 -0.9441
 9607TIP3   OH228784   1.366   4.649   4.989  0.1547 -0.6580 -0.2823
 9607TIP3    H128785   1.400   4.659   4.900  0.1894  1.4408 -0.0904
 9607TIP3    H228786   1.273   4.629   4.977  0.1839 -0.4897 -0.8014
 9608TIP3   OH228787   5.772   2.114   2.615 -0.2356  0.6044  0.4794
 9608TIP3    H128788   5.774   2.206   2.590  1.2271  0.2663 -0.8340
 9608TIP3    H228789   5.812   2.110   2.701 -1.0176  1.2753  0.8787
 9609TIP3   OH228790   2.706   6.307   4.916 -0.1103 -0.3949  0.5517
 9609TIP3    H128791   2.740   6.220   4.937 -0.7399 -0.7968 -0.0648
 9609TIP3    H228792   2.745   6.327   4.831 -0.2113 -0.2077  0.5509
 9610TIP3   OH228793   5.595   4.375   4.107 -0.0324  0.4138  0.3137
 9610TIP3    H128794   5.598   4.329   4.023  1.6688  0.6252  0.2152
 9610TIP3    H228795   5.599   4.305   4.172 -0.9630  0.2700  0.2286
 9611TIP3   OH228796   1.611   6.339   2.402 -0.1123  0.0635 -0.3876
 9611TIP3    H128797   1.694   6.291   2.414  0.8858  2.0215  1.2276
 9611TIP3    H228798   1.553   6.302   2.469 -0.6549 -1.3827 -1.5874
 9612TIP3   OH228799   1.335   1.637   5.605  0.1416  0.1205  0.4251
 9612TIP3    H128800   1.368   1.636   5.695 -0.7449 -2.5316  0.8117
 9612TIP3    H228801   1.248   1.678   5.612 -0.8049 -1.8889  1.2180
 9613TIP3   OH228802   7.120   6.733   3.007 -0.4284  0.1618  0.1379
 9613TIP3    H128803   7.052   6.743   3.074 -1.7454  0.0280 -1.1348
 9613TIP3    H228804   7.090   6.788   2.935 -1.1193 -2.6790 -1.9073
 9614TIP3   OH228805   1.618   5.579   3.222 -0.6051  0.6947  0.5893
 9614TIP3    H128806   1.691   5.602   3.166 -2.0375  0.3975 -1.5183
 9614TIP3    H228807   1.562   5.523   3.168 -0.9470 -1.6005  3.1015
 9615TIP3   OH228808   3.168   5.341   1.370  0.0998 -0.3764 -0.0324
 9615TIP3    H128809   3.097   5.307   1.423 -0.3954  0.5415 -0.0773
 9615TIP3    H228810   3.125   5.398   1.306  0.7592 -0.8109 -0.8919
 9616TIP3   OH228811   0.452   1.006   4.111  0.0711  0.2207 -0.3922
 9616TIP3    H128812   0.485   0.934   4.165  0.0635  0.2791 -0.3091
 9616TIP3    H228813   0.437   0.967   4.025  0.8556  0.3125 -0.5789
 9617TIP3   OH228814   1.287   3.907   3.235  0.1683 -0.2169  0.4619
 9617TIP3    H128815   1.288   3.871   3.146 -1.0382 -1.1038  0.7814
 9617TIP3    H228816   1.317   3.835   3.290 -1.7658 -0.6383  1.0479
 9618TIP3   OH228817   4.869   0.194   2.657 -0.2410  0.4647 -0.3556
 9618TIP3    H128818   4.932   0.210   2.727 -0.6569 -0.9559  0.3667
 9618TIP3    H228819   4.918   0.142   2.593  0.2472  2.0551 -1.3379
 9619TIP3   OH228820   6.499   5.502   5.667  0.2117 -0.0374 -0.2809
 9619TIP3    H128821   6.529   5.413   5.685  1.8661  0.2638 -1.2693
 9619TIP3    H228822   6.517   5.515   5.573 -2.2666  0.5298 -0.7489
 9620TIP3   OH228823   2.656   2.086   2.182 -0.4075 -0.2903 -0.4742
 9620TIP3    H128824   2.676   1.996   2.209  0.7761 -0.4185 -1.6790
 9620TIP3    H228825   2.616   2.076   2.095 -1.5993  0.2814 -0.0243
 9621TIP3   OH228826   4.654   0.819   5.871  0.1387  0.2539 -0.2393
 9621TIP3    H128827   4.741   0.796   5.837  0.9328  0.4639  1.5326
 9621TIP3    H228828   4.649   0.914   5.860  0.5476  0.3716  0.5155
 9622TIP3   OH228829   6.513   5.425   2.298 -0.1953  0.2892 -0.2952
 9622TIP3    H128830   6.522   5.498   2.237 -1.9839  0.2903 -0.6078
 9622TIP3    H228831   6.480   5.353   2.244 -0.1538 -0.2219  0.3510
 9623TIP3   OH228832   0.285   0.938   1.885  0.0372  0.3456  0.3601
 9623TIP3    H128833   0.267   0.845   1.896  0.1728  0.4746  1.7616
 9623TIP3    H228834   0.201   0.982   1.901 -0.2073  0.4388 -1.0398
 9624TIP3   OH228835   4.907   1.112   3.573 -0.0136 -0.0730  0.1752
 9624TIP3    H128836   4.911   1.127   3.667  0.0610  1.8655 -0.1036
 9624TIP3    H228837   4.913   1.199   3.534 -1.8532 -0.6399 -1.5696
 9625TIP3   OH228838   1.503   0.621   0.417 -0.4458  0.4878  0.2389
 9625TIP3    H128839   1.475   0.551   0.358  0.0094  0.3431  0.1959
 9625TIP3    H228840   1.518   0.696   0.360  3.4089 -0.5608 -0.3924
 9626TIP3   OH228841   1.861   4.416   2.068  0.1307 -0.1235 -0.1233
 9626TIP3    H128842   1.909   4.353   2.122  1.7309  1.0225 -0.1335
 9626TIP3    H228843   1.922   4.489   2.056 -2.5162  2.6757  2.0390
 9627TIP3   OH228844   2.363   4.227   2.685  0.1583  0.0747 -0.6130
 9627TIP3    H128845   2.294   4.170   2.653 -0.0126  0.1108 -0.3192
 9627TIP3    H228846   2.419   4.170   2.738  0.3007  0.0651 -0.7739
 9628TIP3   OH228847   6.852   5.994   0.075 -0.3972 -0.2068  0.1466
 9628TIP3    H128848   6.915   6.049   0.029 -0.9674 -0.2297 -0.6802
 9628TIP3    H228849   6.903   5.949   0.142  0.7609 -1.3247 -1.4156
 9629TIP3   OH228850   3.138   3.289   1.662  0.3287  0.1132  0.7176
 9629TIP3    H128851   3.229   3.316   1.667  0.4971 -0.5895  1.8506
 9629TIP3    H228852   3.133   3.231   1.586  0.9424 -0.2338  0.9384
 9630TIP3   OH228853   4.385   4.017   2.668 -0.0407 -0.5076 -0.3494
 9630TIP3    H128854   4.428   4.050   2.589  1.5866  0.7004  0.9734
 9630TIP3    H228855   4.384   3.922   2.656  1.5961 -0.4613 -1.1599
 9631TIP3   OH228856   4.552   1.129   0.961 -0.2334  0.0330  0.3209
 9631TIP3    H128857   4.468   1.165   0.990 -0.7252 -1.1026  0.3683
 9631TIP3    H228858   4.531   1.083   0.879  0.8535  1.9327 -1.0843
 9632TIP3   OH228859   3.211   0.885   3.083 -0.3886  0.6976  0.7798
 9632TIP3    H128860   3.288   0.878   3.026 -0.3525 -0.4498  0.9610
 9632TIP3    H228861   3.152   0.944   3.035  0.3337  1.0987  0.3518
 9633TIP3   OH228862   6.532   4.860   2.566 -0.4075  0.1410 -0.1580
 9633TIP3    H128863   6.531   4.945   2.610  0.8573  0.2955 -0.3850
 9633TIP3    H228864   6.461   4.866   2.502 -1.3414  0.4335  0.8724
 9634TIP3   OH228865   2.856   0.670   3.742 -0.1245  0.1336  0.2987
 9634TIP3    H128866   2.860   0.755   3.786  1.0346 -0.4004  1.2950
 9634TIP3    H228867   2.944   0.655   3.709 -0.4046 -0.5226 -0.1866
 9635TIP3   OH228868   2.380   6.790   0.373 -0.1033 -0.3701 -0.3318
 9635TIP3    H128869   2.365   6.747   0.457 -1.0130 -0.1179 -0.3550
 9635TIP3    H228870   2.309   6.759   0.317 -0.1953  0.3870 -0.6480
 9636TIP3   OH228871   0.383   2.282   1.599 -0.1366 -0.2998  0.1128
 9636TIP3    H128872   0.312   2.345   1.614  0.3536 -0.2586  2.6759
 9636TIP3    H228873   0.454   2.335   1.562 -0.6822  0.0619 -0.4565
 9637TIP3   OH228874   5.381   4.236   5.902  0.0523  0.6519 -0.7004
 9637TIP3    H128875   5.313   4.179   5.938  1.0042 -0.8473 -1.1583
 9637TIP3    H228876   5.403   4.197   5.818  0.6593  1.7866 -1.0847
 9638TIP3   OH228877   6.712   2.117   1.606  0.0557 -0.3855 -0.2203
 9638TIP3    H128878   6.757   2.159   1.679 -0.3911  0.1952 -0.2738
 9638TIP3    H228879   6.640   2.069   1.647  0.1979 -0.5990 -0.2188
 9639TIP3   OH228880   4.432   0.632   4.643  0.2500  0.0119  0.3623
 9639TIP3    H128881   4.478   0.619   4.726 -0.1656  1.9906  0.9661
 9639TIP3    H228882   4.471   0.568   4.584  0.2354 -1.7993  2.1741
 9640TIP3   OH228883   7.133   3.838   0.683  0.0082  0.1870  0.4108
 9640TIP3    H128884   7.227   3.857   0.678  0.0073 -0.1065 -1.4202
 9640TIP3    H228885   7.103   3.884   0.762  1.5867  0.7150  0.7342
 9641TIP3   OH228886   5.108   0.271   0.036  0.9111 -0.5084 -0.6860
 9641TIP3    H128887   5.116   0.365   0.020 -2.5494  0.0462  0.0320
 9641TIP3    H228888   5.171   0.252   0.105  1.1975  1.4181 -0.3783
 9642TIP3   OH228889   1.136   6.112   1.900  0.2463  0.1641 -0.6502
 9642TIP3    H128890   1.192   6.120   1.977  1.1301  0.3987 -1.3051
 9642TIP3    H228891   1.125   6.017   1.889  0.3325  0.1227 -0.4012
 9643TIP3   OH228892   0.723   5.098   4.928  0.6110 -0.0950  0.1730
 9643TIP3    H128893   0.781   5.079   5.002  0.8355  0.2535  0.0891
 9643TIP3    H228894   0.769   5.062   4.852 -0.5679 -2.3236  0.4409
 9644TIP3   OH228895   4.167   2.877   1.158  0.3393 -0.1986 -0.7256
 9644TIP3    H128896   4.185   2.894   1.250  0.5238 -0.8362 -0.6432
 9644TIP3    H228897   4.110   2.949   1.131 -1.6297 -1.2286  0.4832
 9645TIP3   OH228898   4.358   3.344   1.326  0.1478 -0.3883 -0.2105
 9645TIP3    H128899   4.441   3.325   1.369 -0.2525 -2.4263 -0.2480
 9645TIP3    H228900   4.313   3.259   1.321 -1.1781  0.3473 -1.7790
 9646TIP3   OH228901   5.173   5.190   1.224  0.0073  0.3600 -0.2311
 9646TIP3    H128902   5.263   5.216   1.245  0.7342 -2.5072  0.5857
 9646TIP3    H228903   5.183   5.115   1.166 -1.8557 -0.3507  0.3192
 9647TIP3   OH228904   2.944   4.408   0.339  0.0199 -0.4050 -0.1483
 9647TIP3    H128905   2.941   4.324   0.385 -1.9353 -0.0642  0.4510
 9647TIP3    H228906   2.911   4.389   0.251  1.0879 -0.5340 -0.5357
 9648TIP3   OH228907   0.661   2.619   1.580 -0.7795 -0.5813 -0.2179
 9648TIP3    H128908   0.631   2.556   1.515 -0.2637 -0.4501 -0.5891
 9648TIP3    H228909   0.723   2.570   1.634 -1.4242 -0.7718  0.3674
 9649TIP3   OH228910   3.777   1.606   1.185  0.4395 -0.4180  0.0322
 9649TIP3    H128911   3.838   1.675   1.160  0.7569 -1.4848 -2.4011
 9649TIP3    H228912   3.830   1.526   1.188 -0.4153 -1.0065  0.0298
 9650TIP3   OH228913   5.141   3.636   2.994  0.9047 -0.5123 -0.1333
 9650TIP3    H128914   5.236   3.644   2.981  0.6024  0.3181 -2.1909
 9650TIP3    H228915   5.106   3.721   2.968 -0.4737 -1.0492 -0.0963
 9651TIP3   OH228916   4.069   6.333   4.119  0.9068  0.1690  0.2517
 9651TIP3    H128917   4.040   6.401   4.180  1.6090  0.7037 -0.0002
 9651TIP3    H228918   4.043   6.365   4.033  1.2393  0.1185  0.1322
 9652TIP3   OH228919   0.953   5.917   3.744 -0.1017  0.5750  0.7745
 9652TIP3    H128920   0.866   5.911   3.705 -0.1910  1.1127  0.8790
 9652TIP3    H228921   1.005   5.966   3.680  0.1607  0.1558  0.6593
 9653TIP3   OH228922   6.614   6.247   3.868 -0.0017  0.5873 -0.3017
 9653TIP3    H128923   6.632   6.204   3.952  0.7674 -0.7545 -1.1249
 9653TIP3    H228924   6.532   6.294   3.882 -0.1261  0.0102  1.0567
 9654TIP3   OH228925   5.769   2.980   1.896  0.2136 -0.1937  0.0647
 9654TIP3    H128926   5.714   3.037   1.842  1.4246 -1.1727 -2.3668
 9654TIP3    H228927   5.716   2.901   1.910 -0.1037  0.0626  0.3249
 9655TIP3   OH228928   5.563   1.985   1.966  0.5323  0.5883  0.3336
 9655TIP3    H128929   5.501   2.042   2.011  3.0339  1.2937  3.1896
 9655TIP3    H228930   5.594   1.924   2.033  0.9229 -1.5617 -1.6614
 9656TIP3   OH228931   0.110   5.233   1.325  0.0368 -0.2593 -0.3165
 9656TIP3    H128932   0.161   5.304   1.285 -0.0916 -0.2887 -0.5399
 9656TIP3    H228933   0.149   5.221   1.411 -1.9291  2.2700  1.0744
 9657TIP3   OH228934   6.735   6.045   4.389 -0.1469  0.0787 -0.6322
 9657TIP3    H128935   6.723   5.991   4.468  0.4283  0.9459  0.0667
 9657TIP3    H228936   6.653   6.035   4.341 -0.0937 -1.3559 -0.4914
 9658TIP3   OH228937   6.292   2.941   2.096  0.0137 -0.7007  0.1214
 9658TIP3    H128938   6.239   2.894   2.161 -1.4134  1.2256  0.4493
 9658TIP3    H228939   6.253   2.916   2.012 -1.2418  0.3888  0.3378
 9659TIP3   OH228940   4.933   2.076   1.126  0.4376 -0.3227 -0.1108
 9659TIP3    H128941   5.012   2.084   1.073  1.1521 -0.3864  0.9399
 9659TIP3    H228942   4.934   2.151   1.184 -1.3735  0.8588 -1.4784
 9660TIP3   OH228943   5.770   1.502   3.860 -0.7104  0.4018  0.5987
 9660TIP3    H128944   5.711   1.463   3.925  0.1150 -0.2310  0.9748
 9660TIP3    H228945   5.797   1.585   3.899  0.1290 -0.1763  1.2755
 9661TIP3   OH228946   1.345   4.044   0.781 -0.4209  0.1822  0.2946
 9661TIP3    H128947   1.315   4.055   0.691  0.7969 -0.4075 -0.1950
 9661TIP3    H228948   1.280   3.985   0.820 -1.6389  1.3842  0.1956
 9662TIP3   OH228949   4.416   5.050   3.917  0.3410 -0.4756  0.4812
 9662TIP3    H128950   4.360   5.126   3.902 -0.1678 -0.8755  0.3167
 9662TIP3    H228951   4.438   5.019   3.829 -1.0173 -1.6474  0.5354
 9663TIP3   OH228952   5.161   5.197   0.308  0.5659 -0.0330  0.7408
 9663TIP3    H128953   5.223   5.251   0.259 -1.9410  3.2277  0.8001
 9663TIP3    H228954   5.158   5.237   0.395 -3.6498  2.0649 -0.0971
 9664TIP3   OH228955   5.153   0.979   3.497 -0.3428  1.1211 -0.0253
 9664TIP3    H128956   5.060   0.998   3.511 -0.6617 -0.5403  0.3364
 9664TIP3    H228957   5.184   0.949   3.582 -0.0110 -0.3083 -0.6203
 9665TIP3   OH228958   1.288   4.109   0.077  0.6436 -0.0857  0.2225
 9665TIP3    H128959   1.225   4.056   0.027  1.1985 -0.2872 -0.2778
 9665TIP3    H228960   1.323   4.048   0.142 -0.1355  0.1974  0.9110
 9666TIP3   OH228961   2.784   2.142   1.122 -0.3855  0.1972 -0.0000
 9666TIP3    H128962   2.819   2.053   1.121  0.5555  0.5541 -0.5843
 9666TIP3    H228963   2.823   2.183   1.045 -0.0834  1.3881  0.7687
 9667TIP3   OH228964   1.912   1.064   2.050 -0.8000 -0.5667  0.0022
 9667TIP3    H128965   2.007   1.074   2.055 -1.0351  2.2339  1.1053
 9667TIP3    H228966   1.892   1.070   1.956  0.0811 -0.6623 -0.2001
 9668TIP3   OH228967   2.539   1.333   0.157 -0.3639  0.3044  0.2670
 9668TIP3    H128968   2.581   1.419   0.164 -1.0610  0.6140  0.8365
 9668TIP3    H228969   2.549   1.309   0.065  0.3916  0.7044  0.2331
 9669TIP3   OH228970   1.272   4.118   2.129  0.3197  0.1014 -0.7582
 9669TIP3    H128971   1.347   4.059   2.136  0.5397  0.3226 -1.1813
 9669TIP3    H228972   1.199   4.061   2.106  0.2018 -0.2126  0.3330
 9670TIP3   OH228973   3.828   0.878   2.611  0.1976  0.4357  0.2546
 9670TIP3    H128974   3.803   0.957   2.658 -0.6593  0.0169  0.5185
 9670TIP3    H228975   3.788   0.806   2.661  0.8779 -0.1565 -0.0370
 9671TIP3   OH228976   2.530   3.618   5.814  0.1553  0.0324 -0.1602
 9671TIP3    H128977   2.497   3.539   5.771  0.8476 -0.0726 -0.5056
 9671TIP3    H228978   2.459   3.682   5.802  0.0499 -0.2039 -0.8635
 9672TIP3   OH228979   5.035   4.965   2.080 -0.4750  0.1340 -1.3543
 9672TIP3    H128980   5.128   4.973   2.060 -0.0142  0.0449  0.5746
 9672TIP3    H228981   5.007   4.885   2.035  0.4508 -0.0448 -1.6268
 9673TIP3   OH228982   6.294   5.684   4.721 -0.2655 -0.4404 -0.8893
 9673TIP3    H128983   6.365   5.676   4.785 -1.5338  0.6822  0.7659
 9673TIP3    H228984   6.334   5.663   4.637  1.6833 -1.1590  0.1583
 9674TIP3   OH228985   0.888   2.024   2.351 -0.2904 -0.0007 -0.3093
 9674TIP3    H128986   0.824   2.077   2.398 -2.5647 -2.6499 -0.1431
 9674TIP3    H228987   0.966   2.024   2.406 -0.2903  2.7674 -0.1717
 9675TIP3   OH228988   6.093   1.361   4.307  0.2806 -0.3287 -0.3061
 9675TIP3    H128989   6.125   1.382   4.220  0.7554 -2.5269 -0.7251
 9675TIP3    H228990   6.153   1.405   4.367  0.6034  0.2971 -1.0782
 9676TIP3   OH228991   2.958   5.907   3.347  0.4233  0.7062  0.0282
 9676TIP3    H128992   3.002   5.960   3.280  0.0189  0.8498 -0.1240
 9676TIP3    H228993   3.026   5.891   3.413  0.2966  2.1982  0.5425
 9677TIP3   OH228994   4.647   6.515   3.391 -0.4131 -0.2319  0.5854
 9677TIP3    H128995   4.627   6.606   3.369 -1.5217 -0.2253  1.5175
 9677TIP3    H228996   4.572   6.465   3.357  0.1147 -0.7833  0.2135
 9678TIP3   OH228997   4.990   5.044   0.971 -0.2545  0.1914 -0.1904
 9678TIP3    H128998   4.981   4.949   0.972 -0.9205  0.2415 -0.5664
 9678TIP3    H228999   5.013   5.066   0.881 -2.4903  0.5543 -0.7478
 9679TIP3   OH229000   4.133   5.683   1.407 -0.5100  0.3983 -0.5075
 9679TIP3    H129001   4.148   5.770   1.443  1.1378  0.3726 -1.0655
 9679TIP3    H229002   4.191   5.677   1.331  0.5869 -1.7223  0.3967
 9680TIP3   OH229003   5.506   6.224   2.129  0.3085 -0.1722 -0.4620
 9680TIP3    H129004   5.429   6.272   2.159 -0.4287 -1.6859  0.1709
 9680TIP3    H229005   5.471   6.145   2.088  1.5218 -1.3748  0.7095
 9681TIP3   OH229006   0.474   1.372   5.015  0.3431 -0.0374 -0.5830
 9681TIP3    H129007   0.443   1.440   4.955 -1.8378  0.6588  1.1995
 9681TIP3    H229008   0.569   1.382   5.014  0.1258  3.3241 -0.1661
 9682TIP3   OH229009   6.529   3.322   4.152  0.1043  0.1893 -0.5052
 9682TIP3    H129010   6.625   3.325   4.157  0.0392  0.6710  1.4517
 9682TIP3    H229011   6.505   3.402   4.107  0.6149 -0.1705 -1.4602
 9683TIP3   OH229012   6.411   1.935   1.109 -0.1139 -0.5050 -0.1726
 9683TIP3    H129013   6.320   1.907   1.097 -0.1054 -1.1735  1.1754
 9683TIP3    H229014   6.412   1.978   1.195  0.7622 -0.1372 -0.3577
 9684TIP3   OH229015   6.605   1.397   2.610 -0.1370 -0.3804 -0.4045
 9684TIP3    H129016   6.597   1.486   2.577 -1.3288  0.2059  1.3384
 9684TIP3    H229017   6.676   1.401   2.674 -0.6785 -0.5125  0.2071
 9685TIP3   OH229018   4.551   0.027   5.760 -0.5712 -0.2889  0.1616
 9685TIP3    H129019   4.576   0.045   5.851 -1.1983 -1.9618  0.6926
 9685TIP3    H229020   4.584   0.103   5.712 -0.6743  0.8854  1.8408
 9686TIP3   OH229021   0.390   4.914   5.017 -0.0801  0.1144  0.6806
 9686TIP3    H129022   0.428   4.905   4.929 -0.4802 -2.4395  0.7083
 9686TIP3    H229023   0.322   4.981   5.006  0.7886  0.8386 -0.6170
 9687TIP3   OH229024   6.448   0.214   4.241 -0.0803  0.1526  0.0991
 9687TIP3    H129025   6.401   0.194   4.322  0.3817  0.8531  0.5527
 9687TIP3    H229026   6.530   0.255   4.270 -0.0135  0.6265 -0.7228
 9688TIP3   OH229027   0.663   6.605   0.062  0.1938 -0.3466  0.3396
 9688TIP3    H129028   0.727   6.675   0.073  1.2345 -0.9339 -1.5605
 9688TIP3    H229029   0.675   6.549   0.138  0.5783  0.5919  0.9847
 9689TIP3   OH229030   6.335   5.770   5.526 -0.3908 -0.5209  0.1573
 9689TIP3    H129031   6.326   5.766   5.621  1.0023  1.1589  0.4060
 9689TIP3    H229032   6.288   5.850   5.500  1.2361  0.3599 -0.2288
 9690TIP3   OH229033   6.726   1.136   3.858 -0.2653 -0.4528  0.0067
 9690TIP3    H129034   6.743   1.067   3.795  2.1445  0.0865 -0.0083
 9690TIP3    H229035   6.668   1.197   3.812  0.1006 -0.8987 -1.0746
 9691TIP3   OH229036   0.862   0.435   5.805 -0.6672  0.0583  0.0683
 9691TIP3    H129037   0.928   0.410   5.870  0.4178 -1.4417 -1.5254
 9691TIP3    H229038   0.806   0.358   5.798 -1.3719  0.5836 -0.0544
 9692TIP3   OH229039   6.692   2.523   4.526  0.0868  0.2976  0.2182
 9692TIP3    H129040   6.608   2.503   4.486 -1.2183  0.2047  2.8256
 9692TIP3    H229041   6.747   2.447   4.505 -0.4810  0.2712 -1.3533
 9693TIP3   OH229042   2.944   6.106   4.365  0.2384  0.2468  0.0461
 9693TIP3    H129043   2.919   6.197   4.352  0.9365  0.4583  0.1519
 9693TIP3    H229044   2.869   6.056   4.334 -0.7179  0.8803  1.2584
 9694TIP3   OH229045   4.161   1.908   5.352 -0.2586 -0.0716 -0.3493
 9694TIP3    H129046   4.210   1.839   5.309 -0.2570 -0.7037  0.6308
 9694TIP3    H229047   4.069   1.886   5.335 -0.2394  0.3961 -1.0972
 9695TIP3   OH229048   3.161   4.544   3.982  0.0268 -0.2192 -0.7994
 9695TIP3    H129049   3.100   4.492   3.929 -1.3574 -0.8170  1.2410
 9695TIP3    H229050   3.223   4.480   4.016 -0.9193 -0.3916  0.6932
 9696TIP3   OH229051   5.196   3.274   3.643  0.1106 -0.3030 -0.3763
 9696TIP3    H129052   5.270   3.315   3.688  0.3094  0.1490 -1.1039
 9696TIP3    H229053   5.221   3.273   3.551 -1.2183  0.8561 -0.7954
 9697TIP3   OH229054   4.064   6.680   1.267  0.5090  0.6412 -0.4371
 9697TIP3    H129055   3.990   6.626   1.295  0.7278 -0.1177 -1.2532
 9697TIP3    H229056   4.139   6.621   1.273  1.0575  1.3991  0.3704
 9698TIP3   OH229057   4.767   6.187   1.397 -0.2368 -0.3158 -0.1488
 9698TIP3    H129058   4.857   6.189   1.427 -0.3710 -2.8952  0.7272
 9698TIP3    H229059   4.721   6.251   1.451  1.2249  1.8850 -1.4098
 9699TIP3   OH229060   5.036   3.776   3.576  0.5263  0.2407 -0.0466
 9699TIP3    H129061   5.003   3.865   3.564 -0.4876 -0.3292 -1.7111
 9699TIP3    H229062   4.968   3.720   3.541  1.2692 -1.2125  0.7338
 9700TIP3   OH229063   6.209   0.915   1.843  0.4207  0.1834 -0.0507
 9700TIP3    H129064   6.297   0.924   1.880 -0.1557  0.1096  1.3854
 9700TIP3    H229065   6.208   0.826   1.806  1.1177  0.3787 -0.5526
 9701TIP3   OH229066   1.152   4.801   5.289 -0.0145 -0.0534 -0.2291
 9701TIP3    H129067   1.115   4.865   5.227 -1.4460  1.1394  1.7215
 9701TIP3    H229068   1.171   4.724   5.236 -1.1898  0.9012 -2.1421
 9702TIP3   OH229069   6.186   5.226   3.786 -0.0617 -0.0335 -0.5058
 9702TIP3    H129070   6.150   5.302   3.832 -1.1563 -0.9328  0.1450
 9702TIP3    H229071   6.141   5.151   3.824  1.7684 -1.1260 -0.3827
 9703TIP3   OH229072   4.159   1.464   4.637 -0.0520 -0.3412 -0.3837
 9703TIP3    H129073   4.118   1.527   4.696  0.2487  0.9900 -1.5258
 9703TIP3    H229074   4.085   1.415   4.600 -0.2787 -0.7901  0.6330
 9704TIP3   OH229075   0.880   3.762   2.477  0.4258 -0.7414  0.5684
 9704TIP3    H129076   0.937   3.719   2.413  1.3204 -2.2131  2.2694
 9704TIP3    H229077   0.917   3.850   2.486 -0.8675  0.2198 -2.2643
 9705TIP3   OH229078   0.779   2.074   0.595  0.4259 -0.3529 -0.2831
 9705TIP3    H129079   0.712   2.114   0.539  2.8336 -0.7732 -3.7240
 9705TIP3    H229080   0.832   2.147   0.625 -0.6679 -0.1659  1.3637
 9706TIP3   OH229081   2.385   3.311   0.561  0.0692 -0.0774  0.3153
 9706TIP3    H129082   2.474   3.306   0.526 -0.4226 -0.2739 -0.9551
 9706TIP3    H229083   2.390   3.268   0.646  0.9849 -0.9882 -0.1792
 9707TIP3   OH229084   4.982   5.961   0.257 -0.3326 -0.2315  0.1791
 9707TIP3    H129085   4.953   6.048   0.285 -0.6026 -0.7820  1.7423
 9707TIP3    H229086   4.924   5.937   0.185 -0.7263  0.5813  0.2190
 9708TIP3   OH229087   3.489   6.212   1.093  0.2483 -0.3133  0.3693
 9708TIP3    H129088   3.401   6.238   1.064  0.0246 -1.6483 -0.1970
 9708TIP3    H229089   3.488   6.116   1.091  1.2037 -0.3813  1.9231
 9709TIP3   OH229090   1.374   3.050   0.135 -0.1331  0.4277  0.3724
 9709TIP3    H129091   1.393   2.981   0.199  0.0107  0.2749  0.1660
 9709TIP3    H229092   1.433   3.032   0.062 -0.4157  0.5000  0.1248
 9710TIP3   OH229093   3.718   3.632   5.626 -0.1765 -0.2238 -0.3593
 9710TIP3    H129094   3.665   3.559   5.656 -0.6772  0.3809  0.2499
 9710TIP3    H229095   3.787   3.640   5.692 -0.5595  0.3239 -0.0185
 9711TIP3   OH229096   3.096   3.922   0.562  0.3727 -0.6968  0.0054
 9711TIP3    H129097   3.147   3.909   0.483  0.7781 -1.3850  0.3697
 9711TIP3    H229098   3.151   3.887   0.632  0.5922  1.0743  0.7811
 9712TIP3   OH229099   2.346   4.729   2.336  0.5436 -0.0948 -0.3079
 9712TIP3    H129100   2.351   4.788   2.411 -0.4182 -0.1615 -0.1763
 9712TIP3    H229101   2.298   4.653   2.368 -0.0873 -0.0245 -1.0398
 9713TIP3   OH229102   6.042   4.660   4.257 -0.1527 -0.1054  0.9770
 9713TIP3    H129103   6.064   4.567   4.243  0.7089 -0.1044  2.1987
 9713TIP3    H229104   5.947   4.661   4.267 -0.1544 -0.8711  1.1073
 9714TIP3   OH229105   2.831   4.079   4.373 -0.1586 -0.0194 -0.5303
 9714TIP3    H129106   2.854   4.066   4.464 -2.0434 -1.3055 -0.1770
 9714TIP3    H229107   2.785   3.999   4.347 -2.0456  1.3515 -1.7813
 9715TIP3   OH229108   0.835   5.978   5.014 -0.0750  0.2280  0.2607
 9715TIP3    H129109   0.878   5.902   5.054 -1.0749 -0.1469  0.6420
 9715TIP3    H229110   0.810   6.033   5.089  0.6853  0.9688 -0.0147
 9716TIP3   OH229111   0.599   5.385   5.211  0.2617 -0.1339 -0.2743
 9716TIP3    H129112   0.576   5.354   5.124  0.2781 -0.0421 -0.3114
 9716TIP3    H229113   0.578   5.478   5.210 -0.2819 -0.2493  0.0093
 9717TIP3   OH229114   4.065   4.568   1.172 -0.6028  0.2885 -0.0505
 9717TIP3    H129115   4.126   4.575   1.246 -0.9779  1.1443  0.1894
 9717TIP3    H229116   4.005   4.641   1.184 -0.7532  0.3534 -1.1348
 9718TIP3   OH229117   2.372   2.792   1.455  0.2021 -0.1835 -0.0703
 9718TIP3    H129118   2.415   2.745   1.383 -0.8451  1.6281 -1.9753
 9718TIP3    H229119   2.347   2.723   1.517 -0.2611 -2.0427 -2.1895
 9719TIP3   OH229120   4.541   1.058   1.595  0.5850 -0.0302 -0.3172
 9719TIP3    H129121   4.621   1.056   1.648  1.0459  0.7100 -0.9694
 9719TIP3    H229122   4.479   1.108   1.648  1.5091  2.0100 -1.0547
 9720TIP3   OH229123   0.844   0.598   5.580 -0.2548 -0.3657 -0.1951
 9720TIP3    H129124   0.786   0.560   5.514 -0.2656 -0.3695 -0.1833
 9720TIP3    H229125   0.858   0.527   5.643 -1.1937  0.0024  0.4369
 9721TIP3   OH229126   5.220   6.537   1.164 -0.1301  0.3900 -0.4812
 9721TIP3    H129127   5.225   6.555   1.070 -2.7873  2.0202 -0.4111
 9721TIP3    H229128   5.305   6.565   1.198  1.0425 -0.6143 -2.4120
 9722TIP3   OH229129   0.229   4.734   1.724  0.2506 -0.6592  0.2894
 9722TIP3    H129130   0.279   4.657   1.750  0.4077 -0.4016  0.7587
 9722TIP3    H229131   0.234   4.793   1.799  2.7551  1.1380 -1.1275
 9723TIP3   OH229132   6.103   2.476   4.199 -0.8193 -0.1356 -0.4198
 9723TIP3    H129133   6.163   2.506   4.130  0.2975 -0.1043  0.5285
 9723TIP3    H229134   6.088   2.554   4.252 -1.3172 -0.2659 -0.3707
 9724TIP3   OH229135   3.327   0.033   4.415  0.2608  0.6773 -0.1763
 9724TIP3    H129136   3.338   0.031   4.510 -1.6553  1.0983  0.0812
 9724TIP3    H229137   3.281  -0.048   4.394  1.1615  0.3218 -0.8366
 9725TIP3   OH229138   1.357   2.626   4.916  0.4121 -0.2006  0.3774
 9725TIP3    H129139   1.359   2.682   4.993 -1.3495  2.4499 -1.3273
 9725TIP3    H229140   1.447   2.625   4.884  0.3598  2.7437 -0.1445
 9726TIP3   OH229141   0.735   5.910   4.726  0.7276  0.3880  0.1891
 9726TIP3    H129142   0.724   5.838   4.788 -0.2771  0.7816  0.4857
 9726TIP3    H229143   0.794   5.971   4.770  1.3780 -0.1225  0.0418
 9727TIP3   OH229144   4.424   6.261   4.891  0.2243  0.2233  0.2897
 9727TIP3    H129145   4.390   6.181   4.851  0.3664 -0.0869  0.7710
 9727TIP3    H229146   4.444   6.236   4.981 -0.7085  1.0845  0.7485
 9728TIP3   OH229147   0.360   3.773   4.013 -0.1012  0.2865  0.4069
 9728TIP3    H129148   0.344   3.736   3.926 -1.1638 -1.3272  1.2587
 9728TIP3    H229149   0.315   3.857   4.012 -3.0489 -1.1912  0.4681
 9729TIP3   OH229150   5.560   1.143   3.898 -0.5724 -0.5040  0.0720
 9729TIP3    H129151   5.510   1.220   3.871  0.5506 -0.9226 -3.8897
 9729TIP3    H229152   5.652   1.168   3.887 -0.1703 -2.1750 -0.8241
 9730TIP3   OH229153   6.647   5.113   4.779  0.3790  0.3133 -0.2336
 9730TIP3    H129154   6.683   5.187   4.827  0.1854  1.7084 -2.1186
 9730TIP3    H229155   6.719   5.085   4.722 -0.5122  1.1493 -1.8239
 9731TIP3   OH229156   5.302   2.669   2.902  0.0056 -0.1890 -0.2482
 9731TIP3    H129157   5.225   2.666   2.960  0.2759  1.5478  0.2575
 9731TIP3    H229158   5.273   2.719   2.826  0.2675 -0.6899 -0.6897
 9732TIP3   OH229159   1.455   0.514   1.774 -0.3417 -0.4297  0.3429
 9732TIP3    H129160   1.522   0.571   1.736 -0.8239  0.3489  0.6357
 9732TIP3    H229161   1.381   0.520   1.713 -0.0752 -1.4743 -0.1089
 9733TIP3   OH229162   2.100   5.088   0.186  0.3650 -0.2049  0.2271
 9733TIP3    H129163   2.177   5.144   0.200  1.3879 -1.9100  1.7917
 9733TIP3    H229164   2.057   5.084   0.272 -0.2578 -1.0013 -0.1063
 9734TIP3   OH229165   0.604   2.198   4.587  0.2108 -0.1215 -0.4869
 9734TIP3    H129166   0.697   2.176   4.583  0.2451 -1.2241  2.8941
 9734TIP3    H229167   0.595   2.249   4.668 -2.2388 -0.7773 -0.2679
 9735TIP3   OH229168   5.248   5.362   3.237  0.3457  0.2408  0.1010
 9735TIP3    H129169   5.275   5.433   3.296  2.0895 -0.8213  0.6735
 9735TIP3    H229170   5.314   5.363   3.167  0.0081 -0.3804 -0.2334
 9736TIP3   OH229171   2.937   4.897   0.567 -0.3306  0.4784  0.5741
 9736TIP3    H129172   2.892   4.929   0.489 -1.0259 -0.3074  0.6413
 9736TIP3    H229173   3.014   4.954   0.575  0.1699  0.1097 -1.0955
 9737TIP3   OH229174   2.778   1.313   4.882 -0.1235  0.1502  0.1000
 9737TIP3    H129175   2.860   1.264   4.893 -0.1885 -0.5639 -2.1648
 9737TIP3    H229176   2.752   1.336   4.971  2.7768  0.8262  0.8676
 9738TIP3   OH229177   0.947   5.137   2.203 -1.0928  0.2987 -0.0991
 9738TIP3    H129178   0.959   5.089   2.285 -0.8093  0.5302 -0.0045
 9738TIP3    H229179   0.957   5.229   2.227  0.9207  0.2853 -0.7217
 9739TIP3   OH229180   2.936   2.511   1.556  0.2031  0.4156 -0.0767
 9739TIP3    H129181   2.981   2.482   1.635 -0.5750 -1.5011 -0.2896
 9739TIP3    H229182   2.988   2.474   1.484  0.0579  0.8824 -0.4276
 9740TIP3   OH229183   5.960   6.185   3.912 -0.1525 -0.1093 -0.3511
 9740TIP3    H129184   5.881   6.155   3.957  0.7057  0.1974  1.4682
 9740TIP3    H229185   6.001   6.105   3.878 -1.2710 -0.2538 -1.4021
 9741TIP3   OH229186   1.696   2.095   1.244 -0.4282 -0.1523 -0.4851
 9741TIP3    H129187   1.699   2.149   1.164  1.2434  0.0857 -0.2978
 9741TIP3    H229188   1.787   2.068   1.258 -0.5640  0.3346  1.6970
 9742TIP3   OH229189   6.329   6.354   3.952 -0.0659 -0.2688  0.1691
 9742TIP3    H129190   6.369   6.435   3.984 -0.6731 -0.9612  2.9300
 9742TIP3    H229191   6.243   6.380   3.921  0.3263  0.3616 -0.4068
 9743TIP3   OH229192   3.885   4.776   4.519 -0.1203  0.1080 -0.0022
 9743TIP3    H129193   3.926   4.861   4.536 -0.6629  0.1353  1.2822
 9743TIP3    H229194   3.828   4.791   4.444  0.9926  0.4676 -0.7924
 9744TIP3   OH229195   0.707   4.752   3.095  0.3589  0.4449  0.4631
 9744TIP3    H129196   0.634   4.804   3.129 -0.3785 -0.2328 -0.0360
 9744TIP3    H229197   0.668   4.668   3.073  1.4318 -0.1568  0.7850
 9745TIP3   OH229198   1.539   3.665   0.568 -0.0233  0.8234 -0.4732
 9745TIP3    H129199   1.628   3.697   0.555  0.5242 -0.1285  0.7951
 9745TIP3    H229200   1.521   3.678   0.661 -0.6615 -0.3330 -0.4140
 9746TIP3   OH229201   5.836   1.890   5.245  0.3745  0.1145  0.5542
 9746TIP3    H129202   5.748   1.923   5.227  0.4735  0.0519 -0.0640
 9746TIP3    H229203   5.866   1.941   5.320  0.2335  0.8982  0.0895
 9747TIP3   OH229204   1.145   2.015   4.748 -0.5710  0.0171 -0.1874
 9747TIP3    H129205   1.121   1.957   4.819 -0.2885 -0.9882 -0.8853
 9747TIP3    H229206   1.204   1.963   4.693  1.8863  1.7928  0.5543
 9748TIP3   OH229207   5.256   1.819   5.504  0.4163 -0.3149 -0.5097
 9748TIP3    H129208   5.328   1.880   5.516 -0.8900  1.3411 -0.7148
 9748TIP3    H229209   5.189   1.848   5.566 -0.5732 -1.0279 -1.2037
 9749TIP3   OH229210   1.824   0.777   4.985 -0.3697  0.9284  0.3316
 9749TIP3    H129211   1.813   0.700   4.929 -0.6825  0.3692  1.1445
 9749TIP3    H229212   1.827   0.851   4.924 -0.5110  0.3131 -0.4320
   7.21711   6.80436   5.89273   0.00000   0.00000  -2.40571   0.00000  -2.40571  -3.40217
