Title t= 206.00000 step= 103000
19942
    1ASP      N    1   1.062   1.993   3.444
    1ASP    HT1    2   1.144   2.057   3.443
    1ASP    HT2    3   1.007   2.035   3.522
    1ASP    HT3    4   1.009   1.995   3.355
    1ASP     CA    5   1.108   1.851   3.492
    1ASP     HA    6   1.215   1.864   3.504
    1ASP     CB    7   1.039   1.811   3.618
    1ASP    HB1    8   0.932   1.795   3.590
    1ASP    HB2    9   1.052   1.887   3.697
    1ASP     CG   10   1.095   1.679   3.659
    1ASP    OD1   11   1.029   1.604   3.733
    1ASP    OD2   12   1.217   1.652   3.641
    1ASP      C   13   1.103   1.754   3.367
    1ASP      O   14   1.194   1.756   3.287
    2ALA      N   15   0.993   1.678   3.347
    2ALA     HN   16   0.918   1.682   3.412
    2ALA     CA   17   0.980   1.579   3.237
    2ALA     HA   18   1.077   1.532   3.224
    2ALA     CB   19   0.868   1.477   3.264
    2ALA    HB1   20   0.858   1.399   3.185
    2ALA    HB2   21   0.771   1.532   3.267
    2ALA    HB3   22   0.870   1.428   3.363
    2ALA      C   23   0.942   1.642   3.104
    2ALA      O   24   0.855   1.725   3.100
    3ASP      N   25   1.008   1.612   2.991
    3ASP     HN   26   1.085   1.548   2.998
    3ASP     CA   27   0.960   1.639   2.853
    3ASP     HA   28   0.918   1.739   2.859
    3ASP     CB   29   1.075   1.618   2.758
    3ASP    HB1   30   1.034   1.630   2.655
    3ASP    HB2   31   1.132   1.525   2.777
    3ASP     CG   32   1.180   1.732   2.777
    3ASP    OD1   33   1.299   1.708   2.758
    3ASP    OD2   34   1.137   1.842   2.803
    3ASP      C   35   0.840   1.552   2.825
    3ASP      O   36   0.804   1.454   2.893
    4GLY      N   37   0.755   1.602   2.731
    4GLY     HN   38   0.787   1.681   2.679
    4GLY     CA   39   0.629   1.539   2.687
    4GLY    HA1   40   0.571   1.607   2.626
    4GLY    HA2   41   0.562   1.517   2.768
    4GLY      C   42   0.651   1.405   2.615
    4GLY      O   43   0.766   1.367   2.582
    5PRO      N   44   0.556   1.322   2.586
    5PRO     CD   45   0.419   1.349   2.626
    5PRO    HD1   46   0.385   1.437   2.568
    5PRO    HD2   47   0.403   1.358   2.735
    5PRO     CA   48   0.569   1.226   2.481
    5PRO     HA   49   0.620   1.144   2.531
    5PRO     CB   50   0.429   1.185   2.454
    5PRO    HB1   51   0.410   1.079   2.423
    5PRO    HB2   52   0.390   1.249   2.372
    5PRO     CG   53   0.353   1.219   2.580
    5PRO    HG1   54   0.242   1.224   2.568
    5PRO    HG2   55   0.377   1.140   2.654
    5PRO      C   56   0.648   1.254   2.351
    5PRO      O   57   0.616   1.353   2.281
    6GLY      N   58   0.746   1.178   2.313
    6GLY     HN   59   0.792   1.113   2.373
    6GLY     CA   60   0.819   1.197   2.189
    6GLY    HA1   61   0.914   1.147   2.198
    6GLY    HA2   62   0.837   1.302   2.171
    6GLY      C   63   0.751   1.139   2.064
    6GLY      O   64   0.628   1.128   2.059
    7ASP      N   65   0.834   1.108   1.961
    7ASP     HN   66   0.927   1.140   1.977
    7ASP     CA   67   0.799   1.040   1.841
    7ASP     HA   68   0.728   1.107   1.795
    7ASP     CB   69   0.932   1.028   1.757
    7ASP    HB1   70   1.015   1.014   1.829
    7ASP    HB2   71   0.955   1.125   1.708
    7ASP     CG   72   0.937   0.904   1.669
    7ASP    OD1   73   1.047   0.842   1.653
    7ASP    OD2   74   0.832   0.878   1.609
    7ASP      C   75   0.729   0.903   1.873
    7ASP      O   76   0.797   0.819   1.938
    8PRO      N   77   0.609   0.860   1.825
    8PRO     CD   78   0.521   0.955   1.755
    8PRO    HD1   79   0.562   0.972   1.653
    8PRO    HD2   80   0.510   1.055   1.802
    8PRO     CA   81   0.548   0.725   1.847
    8PRO     HA   82   0.523   0.723   1.952
    8PRO     CB   83   0.427   0.735   1.757
    8PRO    HB1   84   0.342   0.674   1.793
    8PRO    HB2   85   0.452   0.701   1.654
    8PRO     CG   86   0.386   0.884   1.751
    8PRO    HG1   87   0.332   0.901   1.655
    8PRO    HG2   88   0.323   0.911   1.838
    8PRO      C   89   0.627   0.601   1.817
    8PRO      O   90   0.591   0.489   1.862
    9ASP      N   91   0.731   0.612   1.731
    9ASP     HN   92   0.761   0.700   1.696
    9ASP     CA   93   0.819   0.496   1.705
    9ASP     HA   94   0.764   0.404   1.716
    9ASP     CB   95   0.881   0.507   1.560
    9ASP    HB1   96   0.968   0.439   1.552
    9ASP    HB2   97   0.920   0.607   1.530
    9ASP     CG   98   0.787   0.469   1.447
    9ASP    OD1   99   0.836   0.453   1.331
    9ASP    OD2  100   0.662   0.451   1.465
    9ASP      C  101   0.932   0.472   1.816
    9ASP      O  102   0.987   0.365   1.836
   10ALA      N  103   0.963   0.578   1.890
   10ALA     HN  104   0.924   0.669   1.880
   10ALA     CA  105   1.075   0.576   1.980
   10ALA     HA  106   1.159   0.525   1.935
   10ALA     CB  107   1.130   0.719   1.997
   10ALA    HB1  108   1.230   0.718   2.045
   10ALA    HB2  109   1.065   0.771   2.071
   10ALA    HB3  110   1.132   0.784   1.907
   10ALA      C  111   1.035   0.512   2.115
   10ALA      O  112   0.913   0.506   2.143
   11GLY      N  113   1.133   0.457   2.194
   11GLY     HN  114   1.226   0.462   2.159
   11GLY     CA  115   1.110   0.365   2.296
   11GLY    HA1  116   1.030   0.297   2.272
   11GLY    HA2  117   1.095   0.415   2.391
   11GLY      C  118   1.236   0.278   2.298
   11GLY    OT1  119   1.342   0.314   2.232
   11GLY    OT2  120   1.226   0.171   2.355
   12LIT    LIT  121   3.970   4.284   4.767
   13LIT    LIT  122   1.334   2.792   1.991
   14LIT    LIT  123   2.582   0.131   3.885
   15LIT    LIT  124   2.517   1.665   0.026
   16LIT    LIT  125   6.192   0.109   3.490
   17LIT    LIT  126   2.532   4.820   3.257
   18LIT    LIT  127   5.513   5.443   2.651
   19LIT    LIT  128   0.846   0.135   1.149
   20LIT    LIT  129   4.254   5.117   0.514
   21LIT    LIT  130   1.706   5.466   2.891
   22LIT    LIT  131   3.979   3.229   1.398
   23LIT    LIT  132   2.400   1.693   1.896
   24LIT    LIT  133   1.756   5.225   3.923
   25LIT    LIT  134   4.253   0.233   0.938
   26LIT    LIT  135   4.978   5.211   0.035
   27LIT    LIT  136   6.011   0.237   2.491
   28LIT    LIT  137   1.193   1.481   3.706
   29LIT    LIT  138   3.234   3.946   2.900
   30LIT    LIT  139   1.276   2.121   1.574
   31LIT    LIT  140   5.193   2.086   4.083
   32LIT    LIT  141   1.973   5.314   2.015
   33LIT    LIT  142   4.752   2.311   2.133
   34CLA    CLA  143   5.707   2.349   1.993
   35CLA    CLA  144   5.804   0.064   4.402
   36CLA    CLA  145   4.097   0.604   3.407
   37CLA    CLA  146   1.637   0.027   4.656
   38CLA    CLA  147   4.210   4.891   0.184
   39CLA    CLA  148   3.912   4.875   4.480
   40CLA    CLA  149   3.488   3.043   0.941
   41CLA    CLA  150   2.023   3.751   0.660
   42CLA    CLA  151   3.355   4.200   1.677
   43CLA    CLA  152   2.238   2.475   1.745
   44CLA    CLA  153   5.529   3.776   4.831
   45CLA    CLA  154   0.466   5.611   2.783
   46CLA    CLA  155   3.226   5.996   3.217
   47CLA    CLA  156   5.035   5.301   0.236
   48CLA    CLA  157   3.121   4.044   4.868
   49CLA    CLA  158   5.703   4.888   1.644
   50CLA    CLA  159   2.902   2.171   2.457
   51CLA    CLA  160   2.241   0.226   1.827
   52TIP3   OH2  161   5.475   1.512   1.493
   52TIP3    H1  162   5.390   1.546   1.520
   52TIP3    H2  163   5.514   1.477   1.573
   53TIP3   OH2  164   0.177   1.304   1.961
   53TIP3    H1  165   0.104   1.366   1.951
   53TIP3    H2  166   0.215   1.298   1.873
   54TIP3   OH2  167   6.155   1.863   2.757
   54TIP3    H1  168   6.072   1.874   2.712
   54TIP3    H2  169   6.221   1.878   2.689
   55TIP3   OH2  170   1.799   4.895   1.905
   55TIP3    H1  171   1.853   4.840   1.849
   55TIP3    H2  172   1.774   4.839   1.979
   56TIP3   OH2  173   3.614   1.579   1.439
   56TIP3    H1  174   3.665   1.545   1.366
   56TIP3    H2  175   3.675   1.635   1.487
   57TIP3   OH2  176   5.210   2.013   4.554
   57TIP3    H1  177   5.131   2.052   4.517
   57TIP3    H2  178   5.217   1.928   4.512
   58TIP3   OH2  179   5.900   3.518   0.826
   58TIP3    H1  180   5.944   3.595   0.790
   58TIP3    H2  181   5.814   3.550   0.852
   59TIP3   OH2  182   5.268   3.082   3.186
   59TIP3    H1  183   5.301   3.146   3.249
   59TIP3    H2  184   5.344   3.059   3.133
   60TIP3   OH2  185   1.393   0.891   0.192
   60TIP3    H1  186   1.488   0.881   0.199
   60TIP3    H2  187   1.366   0.913   0.281
   61TIP3   OH2  188   6.162   2.581   2.114
   61TIP3    H1  189   6.171   2.667   2.072
   61TIP3    H2  190   6.073   2.553   2.093
   62TIP3   OH2  191   4.165   5.278   3.989
   62TIP3    H1  192   4.143   5.369   3.972
   62TIP3    H2  193   4.139   5.263   4.080
   63TIP3   OH2  194   3.998   3.609   2.028
   63TIP3    H1  195   3.958   3.664   1.962
   63TIP3    H2  196   4.075   3.571   1.985
   64TIP3   OH2  197   3.288   5.192   1.391
   64TIP3    H1  198   3.228   5.254   1.431
   64TIP3    H2  199   3.233   5.124   1.355
   65TIP3   OH2  200   4.829   3.446   4.958
   65TIP3    H1  201   4.887   3.464   4.884
   65TIP3    H2  202   4.801   3.355   4.945
   66TIP3   OH2  203   5.782   2.123   3.265
   66TIP3    H1  204   5.701   2.093   3.305
   66TIP3    H2  205   5.845   2.053   3.281
   67TIP3   OH2  206   3.589   0.558   0.286
   67TIP3    H1  207   3.517   0.555   0.223
   67TIP3    H2  208   3.661   0.599   0.237
   68TIP3   OH2  209   2.072   1.175   1.162
   68TIP3    H1  210   1.984   1.154   1.195
   68TIP3    H2  211   2.057   1.206   1.073
   69TIP3   OH2  212   4.375   0.406   5.102
   69TIP3    H1  213   4.365   0.319   5.142
   69TIP3    H2  214   4.384   0.466   5.177
   70TIP3   OH2  215   2.781   5.960   3.495
   70TIP3    H1  216   2.836   5.972   3.417
   70TIP3    H2  217   2.741   5.874   3.484
   71TIP3   OH2  218   3.926   4.450   2.204
   71TIP3    H1  219   3.861   4.488   2.263
   71TIP3    H2  220   4.010   4.487   2.234
   72TIP3   OH2  221   5.389   5.874   0.604
   72TIP3    H1  222   5.442   5.795   0.619
   72TIP3    H2  223   5.300   5.848   0.624
   73TIP3   OH2  224   3.765   0.159   1.757
   73TIP3    H1  225   3.800   0.187   1.842
   73TIP3    H2  226   3.764   0.239   1.704
   74TIP3   OH2  227   5.201   0.431   4.697
   74TIP3    H1  228   5.145   0.483   4.639
   74TIP3    H2  229   5.158   0.434   4.782
   75TIP3   OH2  230   6.029   4.096   1.793
   75TIP3    H1  231   5.941   4.103   1.831
   75TIP3    H2  232   6.062   4.186   1.792
   76TIP3   OH2  233   4.762   5.918   1.030
   76TIP3    H1  234   4.685   5.939   1.082
   76TIP3    H2  235   4.814   5.861   1.087
   77TIP3   OH2  236   0.419   1.562   3.652
   77TIP3    H1  237   0.455   1.498   3.714
   77TIP3    H2  238   0.474   1.640   3.663
   78TIP3   OH2  239   0.905   1.914   2.697
   78TIP3    H1  240   0.913   1.885   2.606
   78TIP3    H2  241   0.989   1.891   2.736
   79TIP3   OH2  242   0.114   0.223   1.538
   79TIP3    H1  243   0.067   0.299   1.503
   79TIP3    H2  244   0.046   0.171   1.583
   80TIP3   OH2  245   0.659   4.943   0.340
   80TIP3    H1  246   0.750   4.935   0.369
   80TIP3    H2  247   0.608   4.940   0.420
   81TIP3   OH2  248   1.054   3.857   2.822
   81TIP3    H1  249   1.014   3.783   2.868
   81TIP3    H2  250   1.101   3.905   2.891
   82TIP3   OH2  251   0.657   1.176   4.190
   82TIP3    H1  252   0.601   1.098   4.189
   82TIP3    H2  253   0.614   1.235   4.252
   83TIP3   OH2  254   0.101   1.668   3.376
   83TIP3    H1  255   0.161   1.687   3.304
   83TIP3    H2  256   0.156   1.632   3.445
   84TIP3   OH2  257   2.649   3.257   0.967
   84TIP3    H1  258   2.643   3.217   1.054
   84TIP3    H2  259   2.711   3.201   0.919
   85TIP3   OH2  260   3.525   4.915   4.170
   85TIP3    H1  261   3.501   4.994   4.121
   85TIP3    H2  262   3.478   4.923   4.253
   86TIP3   OH2  263   5.069   1.872   0.276
   86TIP3    H1  264   4.999   1.910   0.328
   86TIP3    H2  265   5.034   1.788   0.246
   87TIP3   OH2  266   4.709   4.837   1.976
   87TIP3    H1  267   4.670   4.924   1.987
   87TIP3    H2  268   4.781   4.850   1.914
   88TIP3   OH2  269   5.070   1.912   1.582
   88TIP3    H1  270   5.057   1.837   1.640
   88TIP3    H2  271   5.129   1.970   1.631
   89TIP3   OH2  272   2.076   4.231   4.136
   89TIP3    H1  273   2.150   4.171   4.141
   89TIP3    H2  274   2.011   4.184   4.083
   90TIP3   OH2  275   3.131   4.360   1.542
   90TIP3    H1  276   3.212   4.316   1.566
   90TIP3    H2  277   3.095   4.391   1.625
   91TIP3   OH2  278   6.242   0.526   4.915
   91TIP3    H1  279   6.322   0.542   4.865
   91TIP3    H2  280   6.173   0.573   4.867
   92TIP3   OH2  281   5.062   0.603   0.556
   92TIP3    H1  282   4.990   0.667   0.554
   92TIP3    H2  283   5.126   0.638   0.494
   93TIP3   OH2  284   5.838   0.530   1.311
   93TIP3    H1  285   5.919   0.528   1.362
   93TIP3    H2  286   5.770   0.552   1.375
   94TIP3   OH2  287   3.905   5.485   3.362
   94TIP3    H1  288   3.941   5.401   3.392
   94TIP3    H2  289   3.940   5.495   3.273
   95TIP3   OH2  290   4.219   0.072   2.215
   95TIP3    H1  291   4.307   0.035   2.213
   95TIP3    H2  292   4.163   0.001   2.185
   96TIP3   OH2  293   5.737   1.409   4.811
   96TIP3    H1  294   5.776   1.460   4.882
   96TIP3    H2  295   5.659   1.370   4.850
   97TIP3   OH2  296   3.858   1.071   0.525
   97TIP3    H1  297   3.787   1.024   0.569
   97TIP3    H2  298   3.815   1.146   0.485
   98TIP3   OH2  299   5.100   4.927   0.617
   98TIP3    H1  300   5.186   4.887   0.611
   98TIP3    H2  301   5.065   4.924   0.528
   99TIP3   OH2  302   1.795   1.858   2.220
   99TIP3    H1  303   1.819   1.842   2.311
   99TIP3    H2  304   1.860   1.921   2.189
  100TIP3   OH2  305   5.480   2.074   4.461
  100TIP3    H1  306   5.388   2.067   4.487
  100TIP3    H2  307   5.507   1.983   4.445
  101TIP3   OH2  308   5.241   4.075   2.983
  101TIP3    H1  309   5.302   4.149   2.985
  101TIP3    H2  310   5.212   4.070   2.892
  102TIP3   OH2  311   0.453   2.628   4.320
  102TIP3    H1  312   0.525   2.629   4.256
  102TIP3    H2  313   0.482   2.567   4.388
  103TIP3   OH2  314   2.634   1.829   2.239
  103TIP3    H1  315   2.696   1.844   2.310
  103TIP3    H2  316   2.648   1.738   2.213
  104TIP3   OH2  317   0.445   1.533   2.194
  104TIP3    H1  318   0.396   1.499   2.119
  104TIP3    H2  319   0.499   1.460   2.224
  105TIP3   OH2  320   1.596   2.021   0.435
  105TIP3    H1  321   1.586   2.079   0.511
  105TIP3    H2  322   1.640   2.075   0.369
  106TIP3   OH2  323   0.501   3.439   1.316
  106TIP3    H1  324   0.527   3.514   1.263
  106TIP3    H2  325   0.504   3.365   1.256
  107TIP3   OH2  326   4.771   0.108   4.743
  107TIP3    H1  327   4.777   0.188   4.796
  107TIP3    H2  328   4.846   0.113   4.684
  108TIP3   OH2  329   1.254   4.058   3.892
  108TIP3    H1  330   1.308   4.003   3.948
  108TIP3    H2  331   1.311   4.129   3.864
  109TIP3   OH2  332   2.308   1.270   1.264
  109TIP3    H1  333   2.243   1.206   1.235
  109TIP3    H2  334   2.258   1.330   1.320
  110TIP3   OH2  335   4.328   5.763   3.505
  110TIP3    H1  336   4.319   5.670   3.527
  110TIP3    H2  337   4.294   5.769   3.416
  111TIP3   OH2  338   0.371   5.172   3.579
  111TIP3    H1  339   0.322   5.173   3.497
  111TIP3    H2  340   0.329   5.104   3.631
  112TIP3   OH2  341   5.478   3.106   2.731
  112TIP3    H1  342   5.529   3.103   2.650
  112TIP3    H2  343   5.451   3.198   2.738
  113TIP3   OH2  344   0.788   5.841   3.506
  113TIP3    H1  345   0.791   5.828   3.411
  113TIP3    H2  346   0.848   5.775   3.541
  114TIP3   OH2  347   1.180   2.725   2.071
  114TIP3    H1  348   1.098   2.769   2.092
  114TIP3    H2  349   1.167   2.634   2.099
  115TIP3   OH2  350   6.238   0.296   3.515
  115TIP3    H1  351   6.316   0.340   3.483
  115TIP3    H2  352   6.191   0.363   3.565
  116TIP3   OH2  353   1.923   0.696   0.532
  116TIP3    H1  354   1.946   0.646   0.610
  116TIP3    H2  355   2.007   0.714   0.489
  117TIP3   OH2  356   3.043   4.723   3.031
  117TIP3    H1  357   3.088   4.795   2.988
  117TIP3    H2  358   2.953   4.726   2.997
  118TIP3   OH2  359   3.562   4.971   2.807
  118TIP3    H1  360   3.496   4.944   2.871
  118TIP3    H2  361   3.558   4.904   2.739
  119TIP3   OH2  362   4.435   5.722   2.332
  119TIP3    H1  363   4.391   5.670   2.399
  119TIP3    H2  364   4.435   5.811   2.366
  120TIP3   OH2  365   0.465   2.951   0.820
  120TIP3    H1  366   0.430   2.873   0.863
  120TIP3    H2  367   0.528   2.917   0.757
  121TIP3   OH2  368   6.024   1.003   4.315
  121TIP3    H1  369   6.084   0.986   4.243
  121TIP3    H2  370   6.045   1.092   4.344
  122TIP3   OH2  371   4.082   5.676   2.874
  122TIP3    H1  372   4.105   5.766   2.899
  122TIP3    H2  373   4.074   5.630   2.957
  123TIP3   OH2  374   2.423   5.346   0.320
  123TIP3    H1  375   2.508   5.351   0.362
  123TIP3    H2  376   2.385   5.433   0.333
  124TIP3   OH2  377   1.479   4.733   0.480
  124TIP3    H1  378   1.483   4.659   0.541
  124TIP3    H2  379   1.508   4.808   0.531
  125TIP3   OH2  380   3.086   4.090   1.124
  125TIP3    H1  381   3.179   4.081   1.105
  125TIP3    H2  382   3.083   4.105   1.219
  126TIP3   OH2  383   1.957   5.382   1.231
  126TIP3    H1  384   2.036   5.329   1.219
  126TIP3    H2  385   1.981   5.448   1.295
  127TIP3   OH2  386   1.959   3.554   3.517
  127TIP3    H1  387   2.045   3.594   3.508
  127TIP3    H2  388   1.966   3.500   3.596
  128TIP3   OH2  389   5.560   4.104   0.143
  128TIP3    H1  390   5.525   4.042   0.206
  128TIP3    H2  391   5.653   4.112   0.167
  129TIP3   OH2  392   5.400   1.044   3.651
  129TIP3    H1  393   5.375   1.011   3.737
  129TIP3    H2  394   5.367   0.979   3.590
  130TIP3   OH2  395   3.775   0.238   3.697
  130TIP3    H1  396   3.821   0.279   3.624
  130TIP3    H2  397   3.719   0.307   3.733
  131TIP3   OH2  398   0.734   4.981   1.761
  131TIP3    H1  399   0.677   4.985   1.837
  131TIP3    H2  400   0.762   4.890   1.757
  132TIP3   OH2  401   3.540   1.083   1.444
  132TIP3    H1  402   3.630   1.104   1.421
  132TIP3    H2  403   3.545   0.997   1.486
  133TIP3   OH2  404   4.478   1.941   4.978
  133TIP3    H1  405   4.421   1.864   4.981
  133TIP3    H2  406   4.558   1.912   5.023
  134TIP3   OH2  407   5.829   2.414   0.877
  134TIP3    H1  408   5.765   2.409   0.806
  134TIP3    H2  409   5.831   2.326   0.914
  135TIP3   OH2  410   1.130   2.320   2.930
  135TIP3    H1  411   1.118   2.356   2.842
  135TIP3    H2  412   1.076   2.376   2.986
  136TIP3   OH2  413   6.295   1.857   3.895
  136TIP3    H1  414   6.210   1.853   3.851
  136TIP3    H2  415   6.359   1.869   3.825
  137TIP3   OH2  416   6.305   4.524   4.486
  137TIP3    H1  417   6.316   4.442   4.438
  137TIP3    H2  418   6.265   4.499   4.569
  138TIP3   OH2  419   3.170   1.791   4.657
  138TIP3    H1  420   3.133   1.860   4.602
  138TIP3    H2  421   3.196   1.835   4.738
  139TIP3   OH2  422   0.714   4.970   3.482
  139TIP3    H1  423   0.667   4.926   3.411
  139TIP3    H2  424   0.648   5.025   3.524
  140TIP3   OH2  425   1.810   4.334   4.730
  140TIP3    H1  426   1.733   4.300   4.775
  140TIP3    H2  427   1.881   4.327   4.794
  141TIP3   OH2  428   5.480   0.762   4.080
  141TIP3    H1  429   5.503   0.673   4.054
  141TIP3    H2  430   5.417   0.750   4.152
  142TIP3   OH2  431   2.445   3.531   3.323
  142TIP3    H1  432   2.429   3.563   3.234
  142TIP3    H2  433   2.403   3.445   3.325
  143TIP3   OH2  434   0.593   1.877   3.262
  143TIP3    H1  435   0.562   1.794   3.224
  143TIP3    H2  436   0.672   1.898   3.213
  144TIP3   OH2  437   3.865   4.427   4.838
  144TIP3    H1  438   3.866   4.422   4.933
  144TIP3    H2  439   3.809   4.503   4.819
  145TIP3   OH2  440   5.737   5.535   4.197
  145TIP3    H1  441   5.646   5.507   4.207
  145TIP3    H2  442   5.740   5.574   4.110
  146TIP3   OH2  443   3.081   0.684   2.037
  146TIP3    H1  444   3.008   0.680   2.098
  146TIP3    H2  445   3.041   0.680   1.950
  147TIP3   OH2  446   2.560   3.030   0.732
  147TIP3    H1  447   2.513   2.968   0.675
  147TIP3    H2  448   2.532   3.007   0.820
  148TIP3   OH2  449   5.331   2.508   2.653
  148TIP3    H1  450   5.324   2.464   2.568
  148TIP3    H2  451   5.379   2.588   2.635
  149TIP3   OH2  452   5.016   5.244   4.560
  149TIP3    H1  453   4.944   5.298   4.591
  149TIP3    H2  454   5.055   5.295   4.489
  150TIP3   OH2  455   4.846   5.573   3.736
  150TIP3    H1  456   4.879   5.639   3.797
  150TIP3    H2  457   4.771   5.535   3.781
  151TIP3   OH2  458   4.894   1.371   1.874
  151TIP3    H1  459   4.956   1.441   1.853
  151TIP3    H2  460   4.843   1.359   1.793
  152TIP3   OH2  461   2.541   0.478   0.719
  152TIP3    H1  462   2.446   0.469   0.729
  152TIP3    H2  463   2.564   0.553   0.773
  153TIP3   OH2  464   0.367   3.230   3.184
  153TIP3    H1  465   0.340   3.147   3.221
  153TIP3    H2  466   0.450   3.212   3.141
  154TIP3   OH2  467   1.408   2.862   5.164
  154TIP3    H1  468   1.467   2.804   5.117
  154TIP3    H2  469   1.389   2.933   5.102
  155TIP3   OH2  470   2.709   3.374   0.160
  155TIP3    H1  471   2.759   3.420   0.092
  155TIP3    H2  472   2.725   3.281   0.142
  156TIP3   OH2  473   1.495   4.157   0.158
  156TIP3    H1  474   1.445   4.198   0.229
  156TIP3    H2  475   1.541   4.230   0.117
  157TIP3   OH2  476   2.600   5.973   0.031
  157TIP3    H1  477   2.598   5.883  -0.004
  157TIP3    H2  478   2.692   5.989   0.051
  158TIP3   OH2  479   3.972   1.238   2.362
  158TIP3    H1  480   3.998   1.198   2.445
  158TIP3    H2  481   3.885   1.274   2.379
  159TIP3   OH2  482   2.301   5.613   0.286
  159TIP3    H1  483   2.225   5.632   0.231
  159TIP3    H2  484   2.377   5.635   0.232
  160TIP3   OH2  485   5.591   3.672   0.269
  160TIP3    H1  486   5.512   3.627   0.239
  160TIP3    H2  487   5.563   3.716   0.350
  161TIP3   OH2  488  -0.005   1.091   1.601
  161TIP3    H1  489   0.025   1.032   1.671
  161TIP3    H2  490  -0.036   1.032   1.533
  162TIP3   OH2  491   4.027   2.169   5.077
  162TIP3    H1  492   4.107   2.209   5.042
  162TIP3    H2  493   3.971   2.244   5.101
  163TIP3   OH2  494   4.900   0.467   3.462
  163TIP3    H1  495   4.879   0.384   3.506
  163TIP3    H2  496   4.861   0.458   3.375
  164TIP3   OH2  497   1.958   5.780   4.495
  164TIP3    H1  498   1.881   5.828   4.466
  164TIP3    H2  499   1.949   5.694   4.454
  165TIP3   OH2  500   3.450   3.199   3.463
  165TIP3    H1  501   3.472   3.107   3.451
  165TIP3    H2  502   3.495   3.224   3.544
  166TIP3   OH2  503   2.260   5.296   0.880
  166TIP3    H1  504   2.337   5.271   0.830
  166TIP3    H2  505   2.189   5.241   0.846
  167TIP3   OH2  506   5.703   2.208   2.260
  167TIP3    H1  507   5.667   2.123   2.237
  167TIP3    H2  508   5.729   2.247   2.177
  168TIP3   OH2  509   0.120   0.841   1.454
  168TIP3    H1  510   0.199   0.895   1.454
  168TIP3    H2  511   0.122   0.797   1.540
  169TIP3   OH2  512   5.037   0.104   4.673
  169TIP3    H1  513   5.081   0.123   4.591
  169TIP3    H2  514   5.107   0.092   4.737
  170TIP3   OH2  515   4.391   1.060   2.338
  170TIP3    H1  516   4.466   1.050   2.279
  170TIP3    H2  517   4.423   1.116   2.408
  171TIP3   OH2  518   4.071   4.511   0.773
  171TIP3    H1  519   4.035   4.446   0.833
  171TIP3    H2  520   4.151   4.471   0.739
  172TIP3   OH2  521   5.248   3.332   5.099
  172TIP3    H1  522   5.240   3.262   5.035
  172TIP3    H2  523   5.270   3.410   5.048
  173TIP3   OH2  524   1.825   3.857   2.279
  173TIP3    H1  525   1.837   3.938   2.328
  173TIP3    H2  526   1.826   3.788   2.346
  174TIP3   OH2  527   1.137   2.915   0.191
  174TIP3    H1  528   1.144   2.831   0.236
  174TIP3    H2  529   1.062   2.904   0.132
  175TIP3   OH2  530   1.936   5.142   1.426
  175TIP3    H1  531   1.909   5.212   1.485
  175TIP3    H2  532   1.910   5.062   1.471
  176TIP3   OH2  533   2.098   0.917   3.790
  176TIP3    H1  534   2.066   1.000   3.755
  176TIP3    H2  535   2.152   0.942   3.865
  177TIP3   OH2  536   2.735   5.861   3.944
  177TIP3    H1  537   2.695   5.899   3.866
  177TIP3    H2  538   2.794   5.929   3.977
  178TIP3   OH2  539   4.242   1.497   3.063
  178TIP3    H1  540   4.300   1.423   3.043
  178TIP3    H2  541   4.204   1.521   2.978
  179TIP3   OH2  542   1.356   5.270   1.189
  179TIP3    H1  543   1.272   5.284   1.232
  179TIP3    H2  544   1.393   5.193   1.232
  180TIP3   OH2  545   1.158   4.031   1.133
  180TIP3    H1  546   1.214   3.973   1.082
  180TIP3    H2  547   1.093   3.973   1.173
  181TIP3   OH2  548   6.243   3.147   4.818
  181TIP3    H1  549   6.276   3.222   4.868
  181TIP3    H2  550   6.272   3.163   4.728
  182TIP3   OH2  551   4.548   0.960   1.172
  182TIP3    H1  552   4.503   1.033   1.130
  182TIP3    H2  553   4.603   0.922   1.103
  183TIP3   OH2  554   4.828   3.432   0.455
  183TIP3    H1  555   4.775   3.361   0.418
  183TIP3    H2  556   4.850   3.487   0.380
  184TIP3   OH2  557   1.745   3.247   0.476
  184TIP3    H1  558   1.669   3.236   0.419
  184TIP3    H2  559   1.815   3.275   0.417
  185TIP3   OH2  560   1.301   2.585   2.910
  185TIP3    H1  561   1.231   2.624   2.963
  185TIP3    H2  562   1.270   2.496   2.891
  186TIP3   OH2  563   2.473   4.531   2.777
  186TIP3    H1  564   2.564   4.501   2.782
  186TIP3    H2  565   2.432   4.472   2.713
  187TIP3   OH2  566   6.276   0.854   4.436
  187TIP3    H1  567   6.245   0.772   4.398
  187TIP3    H2  568   6.272   0.916   4.363
  188TIP3   OH2  569   1.185   2.105   1.170
  188TIP3    H1  570   1.140   2.067   1.246
  188TIP3    H2  571   1.154   2.054   1.095
  189TIP3   OH2  572   1.915   5.516   0.305
  189TIP3    H1  573   1.840   5.537   0.361
  189TIP3    H2  574   1.987   5.501   0.366
  190TIP3   OH2  575   2.601   1.277   3.302
  190TIP3    H1  576   2.688   1.311   3.281
  190TIP3    H2  577   2.610   1.182   3.297
  191TIP3   OH2  578   4.941   1.921   2.927
  191TIP3    H1  579   5.019   1.866   2.917
  191TIP3    H2  580   4.974   2.011   2.923
  192TIP3   OH2  581   2.208   2.794   0.998
  192TIP3    H1  582   2.200   2.786   1.093
  192TIP3    H2  583   2.176   2.882   0.979
  193TIP3   OH2  584   4.666   2.595   2.478
  193TIP3    H1  585   4.757   2.596   2.447
  193TIP3    H2  586   4.662   2.521   2.538
  194TIP3   OH2  587   5.432   1.812   0.360
  194TIP3    H1  588   5.358   1.779   0.410
  194TIP3    H2  589   5.397   1.889   0.314
  195TIP3   OH2  590   4.522   1.050   0.197
  195TIP3    H1  591   4.557   0.966   0.228
  195TIP3    H2  592   4.430   1.047   0.223
  196TIP3   OH2  593   2.159   5.217   1.157
  196TIP3    H1  594   2.158   5.125   1.183
  196TIP3    H2  595   2.192   5.215   1.067
  197TIP3   OH2  596   4.476   1.130   4.258
  197TIP3    H1  597   4.533   1.074   4.205
  197TIP3    H2  598   4.454   1.203   4.200
  198TIP3   OH2  599   5.985   0.093   3.140
  198TIP3    H1  600   5.961   0.016   3.088
  198TIP3    H2  601   5.949   0.167   3.092
  199TIP3   OH2  602   3.936   2.427   0.919
  199TIP3    H1  603   3.962   2.345   0.877
  199TIP3    H2  604   3.974   2.495   0.864
  200TIP3   OH2  605   3.298   1.185   1.759
  200TIP3    H1  606   3.204   1.182   1.776
  200TIP3    H2  607   3.338   1.200   1.844
  201TIP3   OH2  608   5.964   2.895   4.293
  201TIP3    H1  609   5.891   2.865   4.238
  201TIP3    H2  610   6.015   2.816   4.309
  202TIP3   OH2  611   2.997   3.927   2.215
  202TIP3    H1  612   2.990   3.864   2.144
  202TIP3    H2  613   2.926   3.990   2.198
  203TIP3   OH2  614   3.409   2.677   2.123
  203TIP3    H1  615   3.368   2.742   2.180
  203TIP3    H2  616   3.338   2.648   2.065
  204TIP3   OH2  617   5.365   3.986   0.818
  204TIP3    H1  618   5.438   3.979   0.756
  204TIP3    H2  619   5.401   3.953   0.901
  205TIP3   OH2  620   3.164   1.517   4.806
  205TIP3    H1  621   3.172   1.454   4.735
  205TIP3    H2  622   3.127   1.595   4.764
  206TIP3   OH2  623   0.499   4.046   0.795
  206TIP3    H1  624   0.470   4.022   0.883
  206TIP3    H2  625   0.460   4.133   0.780
  207TIP3   OH2  626   3.368   3.243   4.463
  207TIP3    H1  627   3.406   3.156   4.449
  207TIP3    H2  628   3.426   3.302   4.415
  208TIP3   OH2  629   0.001   5.866   3.085
  208TIP3    H1  630   0.073   5.904   3.135
  208TIP3    H2  631  -0.017   5.931   3.017
  209TIP3   OH2  632   1.427   4.490   0.109
  209TIP3    H1  633   1.512   4.490   0.152
  209TIP3    H2  634   1.436   4.552   0.037
  210TIP3   OH2  635   1.994   5.892   3.480
  210TIP3    H1  636   2.010   5.800   3.503
  210TIP3    H2  637   2.067   5.939   3.519
  211TIP3   OH2  638   1.487   3.089   2.680
  211TIP3    H1  639   1.483   2.999   2.710
  211TIP3    H2  640   1.572   3.122   2.711
  212TIP3   OH2  641   3.835   1.499   0.818
  212TIP3    H1  642   3.753   1.505   0.867
  212TIP3    H2  643   3.851   1.589   0.788
  213TIP3   OH2  644   0.992   1.660   4.854
  213TIP3    H1  645   1.025   1.617   4.933
  213TIP3    H2  646   0.906   1.693   4.878
  214TIP3   OH2  647   2.219   3.709   1.561
  214TIP3    H1  648   2.237   3.618   1.540
  214TIP3    H2  649   2.281   3.730   1.631
  215TIP3   OH2  650   3.324   3.769   1.030
  215TIP3    H1  651   3.282   3.692   1.069
  215TIP3    H2  652   3.277   3.784   0.948
  216TIP3   OH2  653   3.389   4.261   0.185
  216TIP3    H1  654   3.318   4.325   0.181
  216TIP3    H2  655   3.346   4.180   0.215
  217TIP3   OH2  656   6.052   4.211   4.925
  217TIP3    H1  657   6.067   4.157   4.847
  217TIP3    H2  658   6.008   4.152   4.986
  218TIP3   OH2  659   4.850   0.221   3.533
  218TIP3    H1  660   4.866   0.127   3.529
  218TIP3    H2  661   4.778   0.231   3.596
  219TIP3   OH2  662   3.803   4.559   0.533
  219TIP3    H1  663   3.783   4.569   0.440
  219TIP3    H2  664   3.885   4.606   0.545
  220TIP3   OH2  665   3.136   1.827   1.514
  220TIP3    H1  666   3.191   1.750   1.495
  220TIP3    H2  667   3.147   1.883   1.438
  221TIP3   OH2  668   4.716   5.253   2.194
  221TIP3    H1  669   4.692   5.336   2.235
  221TIP3    H2  670   4.670   5.187   2.246
  222TIP3   OH2  671   1.855   3.409   2.990
  222TIP3    H1  672   1.864   3.436   3.082
  222TIP3    H2  673   1.944   3.411   2.956
  223TIP3   OH2  674   2.312   4.428   1.092
  223TIP3    H1  675   2.382   4.457   1.150
  223TIP3    H2  676   2.355   4.414   1.008
  224TIP3   OH2  677   3.136   1.581   3.673
  224TIP3    H1  678   3.113   1.661   3.625
  224TIP3    H2  679   3.146   1.514   3.606
  225TIP3   OH2  680   1.364   0.716   3.932
  225TIP3    H1  681   1.356   0.640   3.874
  225TIP3    H2  682   1.409   0.682   4.010
  226TIP3   OH2  683   1.887   0.377   5.009
  226TIP3    H1  684   1.844   0.301   4.969
  226TIP3    H2  685   1.891   0.355   5.102
  227TIP3   OH2  686   4.864   5.181   1.971
  227TIP3    H1  687   4.769   5.178   1.955
  227TIP3    H2  688   4.872   5.221   2.058
  228TIP3   OH2  689   2.135   3.692   4.831
  228TIP3    H1  690   2.068   3.757   4.854
  228TIP3    H2  691   2.193   3.690   4.906
  229TIP3   OH2  692   1.969   2.420   1.849
  229TIP3    H1  693   1.923   2.504   1.853
  229TIP3    H2  694   2.052   2.440   1.806
  230TIP3   OH2  695   5.640   1.723   3.430
  230TIP3    H1  696   5.641   1.726   3.335
  230TIP3    H2  697   5.677   1.637   3.452
  231TIP3   OH2  698   5.876   2.522   2.592
  231TIP3    H1  699   5.965   2.527   2.627
  231TIP3    H2  700   5.875   2.440   2.543
  232TIP3   OH2  701   1.906   2.772   2.927
  232TIP3    H1  702   1.825   2.789   2.878
  232TIP3    H2  703   1.919   2.677   2.921
  233TIP3   OH2  704   4.946   2.895   2.985
  233TIP3    H1  705   4.955   2.975   3.037
  233TIP3    H2  706   4.855   2.868   2.999
  234TIP3   OH2  707   4.618   5.660   4.610
  234TIP3    H1  708   4.540   5.683   4.661
  234TIP3    H2  709   4.663   5.743   4.596
  235TIP3   OH2  710   1.405   4.853   2.088
  235TIP3    H1  711   1.387   4.808   2.006
  235TIP3    H2  712   1.379   4.944   2.072
  236TIP3   OH2  713   2.305   1.108   3.476
  236TIP3    H1  714   2.243   1.136   3.543
  236TIP3    H2  715   2.363   1.183   3.464
  237TIP3   OH2  716   6.265   4.289   1.887
  237TIP3    H1  717   6.338   4.321   1.940
  237TIP3    H2  718   6.206   4.364   1.879
  238TIP3   OH2  719   1.530   0.490   1.144
  238TIP3    H1  720   1.506   0.400   1.122
  238TIP3    H2  721   1.453   0.541   1.120
  239TIP3   OH2  722   3.264   4.814   3.389
  239TIP3    H1  723   3.316   4.833   3.311
  239TIP3    H2  724   3.173   4.832   3.363
  240TIP3   OH2  725   6.049   5.656   2.880
  240TIP3    H1  726   5.980   5.693   2.936
  240TIP3    H2  727   6.090   5.589   2.935
  241TIP3   OH2  728   0.844   4.305   4.206
  241TIP3    H1  729   0.755   4.291   4.173
  241TIP3    H2  730   0.885   4.359   4.139
  242TIP3   OH2  731   2.866   3.958   1.018
  242TIP3    H1  732   2.916   4.032   1.052
  242TIP3    H2  733   2.779   3.993   1.000
  243TIP3   OH2  734   5.086   4.621   3.377
  243TIP3    H1  735   5.164   4.632   3.433
  243TIP3    H2  736   5.014   4.655   3.430
  244TIP3   OH2  737   3.439   0.646   1.793
  244TIP3    H1  738   3.517   0.591   1.793
  244TIP3    H2  739   3.370   0.591   1.829
  245TIP3   OH2  740   6.079   5.622   0.374
  245TIP3    H1  741   6.032   5.679   0.434
  245TIP3    H2  742   6.163   5.605   0.417
  246TIP3   OH2  743   2.023   3.806   4.575
  246TIP3    H1  744   2.018   3.892   4.532
  246TIP3    H2  745   2.090   3.817   4.642
  247TIP3   OH2  746   3.142   2.956   2.568
  247TIP3    H1  747   3.133   3.049   2.587
  247TIP3    H2  748   3.109   2.946   2.479
  248TIP3   OH2  749   2.598   3.322   3.539
  248TIP3    H1  750   2.661   3.252   3.524
  248TIP3    H2  751   2.652   3.399   3.557
  249TIP3   OH2  752   1.669   2.044   1.820
  249TIP3    H1  753   1.609   2.087   1.880
  249TIP3    H2  754   1.748   2.030   1.871
  250TIP3   OH2  755   0.683   5.092   2.865
  250TIP3    H1  756   0.698   5.180   2.831
  250TIP3    H2  757   0.768   5.049   2.860
  251TIP3   OH2  758   2.876   1.455   1.362
  251TIP3    H1  759   2.782   1.464   1.375
  251TIP3    H2  760   2.914   1.472   1.448
  252TIP3   OH2  761   4.342   2.823   1.696
  252TIP3    H1  762   4.366   2.731   1.708
  252TIP3    H2  763   4.334   2.857   1.785
  253TIP3   OH2  764   2.064   5.072   0.154
  253TIP3    H1  765   2.158   5.050   0.153
  253TIP3    H2  766   2.038   5.071   0.062
  254TIP3   OH2  767   2.075   5.315   3.189
  254TIP3    H1  768   2.106   5.342   3.103
  254TIP3    H2  769   2.044   5.396   3.230
  255TIP3   OH2  770   2.380   1.856   3.231
  255TIP3    H1  771   2.299   1.907   3.230
  255TIP3    H2  772   2.400   1.842   3.139
  256TIP3   OH2  773   5.482   5.390   1.340
  256TIP3    H1  774   5.484   5.430   1.427
  256TIP3    H2  775   5.517   5.302   1.354
  257TIP3   OH2  776   3.557   0.796   4.849
  257TIP3    H1  777   3.511   0.856   4.907
  257TIP3    H2  778   3.516   0.809   4.763
  258TIP3   OH2  779   5.394   2.983   4.092
  258TIP3    H1  780   5.482   2.974   4.056
  258TIP3    H2  781   5.408   3.013   4.182
  259TIP3   OH2  782   1.511   3.844   3.205
  259TIP3    H1  783   1.477   3.811   3.288
  259TIP3    H2  784   1.540   3.766   3.158
  260TIP3   OH2  785   1.272   4.882   2.599
  260TIP3    H1  786   1.194   4.929   2.626
  260TIP3    H2  787   1.336   4.950   2.579
  261TIP3   OH2  788   2.892   4.617   2.590
  261TIP3    H1  789   2.857   4.557   2.524
  261TIP3    H2  790   2.986   4.598   2.591
  262TIP3   OH2  791   1.153   3.299   2.632
  262TIP3    H1  792   1.194   3.340   2.708
  262TIP3    H2  793   1.226   3.261   2.583
  263TIP3   OH2  794   3.273   2.137   2.271
  263TIP3    H1  795   3.220   2.056   2.267
  263TIP3    H2  796   3.236   2.192   2.202
  264TIP3   OH2  797   5.124   4.164   3.529
  264TIP3    H1  798   5.091   4.205   3.449
  264TIP3    H2  799   5.135   4.236   3.591
  265TIP3   OH2  800   2.612   0.107   0.772
  265TIP3    H1  801   2.681   0.073   0.715
  265TIP3    H2  802   2.610   0.201   0.755
  266TIP3   OH2  803   2.514   1.340   3.822
  266TIP3    H1  804   2.474   1.262   3.861
  266TIP3    H2  805   2.573   1.306   3.754
  267TIP3   OH2  806   0.049   0.460   1.406
  267TIP3    H1  807   0.090   0.533   1.360
  267TIP3    H2  808   0.049   0.388   1.343
  268TIP3   OH2  809   4.535   3.042   3.832
  268TIP3    H1  810   4.470   3.008   3.894
  268TIP3    H2  811   4.552   3.131   3.862
  269TIP3   OH2  812   1.719   3.265   3.466
  269TIP3    H1  813   1.652   3.331   3.482
  269TIP3    H2  814   1.684   3.211   3.395
  270TIP3   OH2  815   6.189   0.887   2.060
  270TIP3    H1  816   6.188   0.949   1.986
  270TIP3    H2  817   6.281   0.880   2.084
  271TIP3   OH2  818   5.876   0.539   3.534
  271TIP3    H1  819   5.908   0.587   3.610
  271TIP3    H2  820   5.788   0.511   3.558
  272TIP3   OH2  821   3.998   3.332   1.818
  272TIP3    H1  822   3.961   3.244   1.817
  272TIP3    H2  823   3.926   3.388   1.849
  273TIP3   OH2  824   4.082   3.163   1.235
  273TIP3    H1  825   4.162   3.113   1.224
  273TIP3    H2  826   4.048   3.174   1.146
  274TIP3   OH2  827   2.952   0.258   1.079
  274TIP3    H1  828   3.034   0.254   1.030
  274TIP3    H2  829   2.955   0.341   1.125
  275TIP3   OH2  830   4.611   5.550   2.591
  275TIP3    H1  831   4.648   5.524   2.676
  275TIP3    H2  832   4.560   5.629   2.611
  276TIP3   OH2  833   3.123   4.741   2.046
  276TIP3    H1  834   3.141   4.815   1.987
  276TIP3    H2  835   3.197   4.742   2.107
  277TIP3   OH2  836   3.708   4.885   1.407
  277TIP3    H1  837   3.652   4.808   1.416
  277TIP3    H2  838   3.660   4.955   1.451
  278TIP3   OH2  839   1.468   3.582   0.175
  278TIP3    H1  840   1.445   3.576   0.082
  278TIP3    H2  841   1.557   3.547   0.179
  279TIP3   OH2  842   5.338   3.293   0.386
  279TIP3    H1  843   5.336   3.375   0.434
  279TIP3    H2  844   5.303   3.228   0.447
  280TIP3   OH2  845   0.636   4.719   5.051
  280TIP3    H1  846   0.681   4.704   5.134
  280TIP3    H2  847   0.543   4.703   5.071
  281TIP3   OH2  848   2.023   5.178   4.361
  281TIP3    H1  849   2.004   5.110   4.297
  281TIP3    H2  850   2.103   5.149   4.404
  282TIP3   OH2  851   2.258   4.242   0.488
  282TIP3    H1  852   2.352   4.231   0.478
  282TIP3    H2  853   2.220   4.200   0.411
  283TIP3   OH2  854   3.818   4.479   1.326
  283TIP3    H1  855   3.869   4.413   1.373
  283TIP3    H2  856   3.873   4.558   1.328
  284TIP3   OH2  857   6.100   0.914   2.325
  284TIP3    H1  858   6.094   0.908   2.230
  284TIP3    H2  859   6.137   1.001   2.341
  285TIP3   OH2  860   1.369   3.141   0.863
  285TIP3    H1  861   1.342   3.052   0.885
  285TIP3    H2  862   1.459   3.148   0.894
  286TIP3   OH2  863   1.854   5.757   0.778
  286TIP3    H1  864   1.841   5.670   0.815
  286TIP3    H2  865   1.772   5.778   0.734
  287TIP3   OH2  866   4.536   2.585   4.796
  287TIP3    H1  867   4.509   2.544   4.713
  287TIP3    H2  868   4.606   2.646   4.771
  288TIP3   OH2  869   3.004   3.519   4.324
  288TIP3    H1  870   2.963   3.536   4.239
  288TIP3    H2  871   3.092   3.487   4.302
  289TIP3   OH2  872   0.421   1.439   2.991
  289TIP3    H1  873   0.350   1.473   2.937
  289TIP3    H2  874   0.402   1.346   3.001
  290TIP3   OH2  875   0.022   3.947   3.783
  290TIP3    H1  876  -0.053   3.891   3.801
  290TIP3    H2  877   0.097   3.888   3.786
  291TIP3   OH2  878   0.395   4.457   1.851
  291TIP3    H1  879   0.473   4.404   1.842
  291TIP3    H2  880   0.324   4.403   1.817
  292TIP3   OH2  881   1.429   1.030   3.140
  292TIP3    H1  882   1.468   0.967   3.201
  292TIP3    H2  883   1.415   1.109   3.192
  293TIP3   OH2  884   1.780   0.381   2.366
  293TIP3    H1  885   1.753   0.430   2.288
  293TIP3    H2  886   1.753   0.437   2.439
  294TIP3   OH2  887   5.249   3.973   1.673
  294TIP3    H1  888   5.263   4.052   1.621
  294TIP3    H2  889   5.324   3.918   1.654
  295TIP3   OH2  890   2.941   5.902   3.309
  295TIP3    H1  891   3.029   5.924   3.278
  295TIP3    H2  892   2.888   5.895   3.230
  296TIP3   OH2  893   5.502   2.216   4.873
  296TIP3    H1  894   5.418   2.175   4.891
  296TIP3    H2  895   5.549   2.152   4.819
  297TIP3   OH2  896   5.160   5.762   0.708
  297TIP3    H1  897   5.121   5.684   0.747
  297TIP3    H2  898   5.115   5.835   0.751
  298TIP3   OH2  899   4.163   3.955   1.209
  298TIP3    H1  900   4.256   3.947   1.189
  298TIP3    H2  901   4.155   4.041   1.251
  299TIP3   OH2  902   5.201   3.020   2.646
  299TIP3    H1  903   5.260   3.067   2.704
  299TIP3    H2  904   5.239   3.030   2.559
  300TIP3   OH2  905   4.525   2.650   0.842
  300TIP3    H1  906   4.538   2.687   0.755
  300TIP3    H2  907   4.515   2.727   0.899
  301TIP3   OH2  908   0.044   2.890   3.917
  301TIP3    H1  909  -0.030   2.902   3.857
  301TIP3    H2  910   0.077   2.803   3.897
  302TIP3   OH2  911   4.542   0.163   4.133
  302TIP3    H1  912   4.521   0.256   4.148
  302TIP3    H2  913   4.477   0.116   4.186
  303TIP3   OH2  914   4.003   1.039   1.718
  303TIP3    H1  915   4.076   1.073   1.667
  303TIP3    H2  916   4.042   1.004   1.798
  304TIP3   OH2  917   1.202   2.151   0.588
  304TIP3    H1  918   1.177   2.155   0.680
  304TIP3    H2  919   1.265   2.222   0.576
  305TIP3   OH2  920   3.608   5.900   2.362
  305TIP3    H1  921   3.541   5.833   2.380
  305TIP3    H2  922   3.690   5.858   2.384
  306TIP3   OH2  923   4.238   4.889   2.763
  306TIP3    H1  924   4.199   4.814   2.719
  306TIP3    H2  925   4.245   4.956   2.695
  307TIP3   OH2  926   1.168   2.428   0.163
  307TIP3    H1  927   1.236   2.495   0.159
  307TIP3    H2  928   1.124   2.433   0.079
  308TIP3   OH2  929   4.409   1.268   4.021
  308TIP3    H1  930   4.360   1.279   3.940
  308TIP3    H2  931   4.488   1.321   4.008
  309TIP3   OH2  932   3.727   3.455   3.051
  309TIP3    H1  933   3.747   3.361   3.056
  309TIP3    H2  934   3.673   3.472   3.128
  310TIP3   OH2  935   4.137   4.589   5.077
  310TIP3    H1  936   4.157   4.628   4.992
  310TIP3    H2  937   4.042   4.576   5.076
  311TIP3   OH2  938   6.318   2.134   0.042
  311TIP3    H1  939   6.233   2.121   0.001
  311TIP3    H2  940   6.359   2.205  -0.009
  312TIP3   OH2  941   6.186   5.407   0.147
  312TIP3    H1  942   6.249   5.448   0.089
  312TIP3    H2  943   6.233   5.394   0.229
  313TIP3   OH2  944   0.146   4.302   2.023
  313TIP3    H1  945   0.197   4.266   2.096
  313TIP3    H2  946   0.193   4.272   1.945
  314TIP3   OH2  947   3.484   3.587   0.825
  314TIP3    H1  948   3.402   3.627   0.796
  314TIP3    H2  949   3.458   3.526   0.894
  315TIP3   OH2  950   2.288   5.761   1.806
  315TIP3    H1  951   2.313   5.819   1.734
  315TIP3    H2  952   2.193   5.771   1.814
  316TIP3   OH2  953   4.938   0.337   4.321
  316TIP3    H1  954   4.850   0.316   4.354
  316TIP3    H2  955   4.991   0.260   4.343
  317TIP3   OH2  956   2.332   1.979   2.955
  317TIP3    H1  957   2.263   1.925   2.919
  317TIP3    H2  958   2.373   2.021   2.879
  318TIP3   OH2  959   3.584   1.360   0.717
  318TIP3    H1  960   3.538   1.402   0.790
  318TIP3    H2  961   3.660   1.318   0.757
  319TIP3   OH2  962   3.419   1.923   1.722
  319TIP3    H1  963   3.372   1.952   1.800
  319TIP3    H2  964   3.426   1.828   1.732
  320TIP3   OH2  965   1.010   1.977   0.036
  320TIP3    H1  966   0.934   1.949   0.086
  320TIP3    H2  967   1.085   1.938   0.081
  321TIP3   OH2  968   5.663   3.967   1.170
  321TIP3    H1  969   5.746   3.973   1.217
  321TIP3    H2  970   5.662   4.045   1.115
  322TIP3   OH2  971   0.455   2.027   1.079
  322TIP3    H1  972   0.440   2.046   1.171
  322TIP3    H2  973   0.404   2.092   1.031
  323TIP3   OH2  974   0.132   3.606   4.858
  323TIP3    H1  975   0.052   3.640   4.898
  323TIP3    H2  976   0.198   3.674   4.873
  324TIP3   OH2  977   0.144   2.563   0.216
  324TIP3    H1  978   0.170   2.642   0.168
  324TIP3    H2  979   0.227   2.528   0.250
  325TIP3   OH2  980   5.792   5.963   2.737
  325TIP3    H1  981   5.786   5.955   2.832
  325TIP3    H2  982   5.755   6.049   2.718
  326TIP3   OH2  983   0.072   4.824   4.148
  326TIP3    H1  984   0.047   4.868   4.228
  326TIP3    H2  985   0.116   4.744   4.177
  327TIP3   OH2  986   5.001   3.812   2.340
  327TIP3    H1  987   5.022   3.832   2.431
  327TIP3    H2  988   5.008   3.896   2.295
  328TIP3   OH2  989   3.834   2.437   0.104
  328TIP3    H1  990   3.829   2.531   0.086
  328TIP3    H2  991   3.866   2.398   0.023
  329TIP3   OH2  992   3.918   5.672   1.640
  329TIP3    H1  993   3.945   5.740   1.702
  329TIP3    H2  994   3.906   5.719   1.557
  330TIP3   OH2  995   1.720   1.115   0.480
  330TIP3    H1  996   1.674   1.178   0.424
  330TIP3    H2  997   1.752   1.167   0.554
  331TIP3   OH2  998   2.620   1.680   1.515
  331TIP3    H1  999   2.573   1.659   1.433
  331TIP3    H2 1000   2.686   1.744   1.488
  332TIP3   OH2 1001   0.862   5.875   2.978
  332TIP3    H1 1002   0.790   5.812   2.974
  332TIP3    H2 1003   0.828   5.953   2.935
  333TIP3   OH2 1004  -0.030   5.693   0.473
  333TIP3    H1 1005  -0.023   5.775   0.521
  333TIP3    H2 1006   0.037   5.636   0.513
  334TIP3   OH2 1007   1.729   3.723   3.408
  334TIP3    H1 1008   1.816   3.690   3.431
  334TIP3    H2 1009   1.676   3.645   3.395
  335TIP3   OH2 1010   4.454   0.021   1.688
  335TIP3    H1 1011   4.359   0.031   1.678
  335TIP3    H2 1012   4.478   0.085   1.755
  336TIP3   OH2 1013   2.595   5.046   2.315
  336TIP3    H1 1014   2.601   5.068   2.408
  336TIP3    H2 1015   2.683   5.013   2.292
  337TIP3   OH2 1016   4.608   1.807   4.117
  337TIP3    H1 1017   4.645   1.803   4.205
  337TIP3    H2 1018   4.685   1.803   4.059
  338TIP3   OH2 1019   3.722   1.568   3.902
  338TIP3    H1 1020   3.663   1.624   3.952
  338TIP3    H2 1021   3.792   1.626   3.872
  339TIP3   OH2 1022   3.816   5.427   0.228
  339TIP3    H1 1023   3.796   5.516   0.255
  339TIP3    H2 1024   3.807   5.375   0.307
  340TIP3   OH2 1025   4.324   2.218   5.018
  340TIP3    H1 1026   4.386   2.149   4.992
  340TIP3    H2 1027   4.347   2.237   5.109
  341TIP3   OH2 1028   2.854   2.477   2.501
  341TIP3    H1 1029   2.771   2.429   2.494
  341TIP3    H2 1030   2.922   2.410   2.498
  342TIP3   OH2 1031   0.336   2.315   0.939
  342TIP3    H1 1032   0.267   2.249   0.928
  342TIP3    H2 1033   0.393   2.302   0.864
  343TIP3   OH2 1034   1.893   4.573   0.689
  343TIP3    H1 1035   1.823   4.521   0.650
  343TIP3    H2 1036   1.936   4.513   0.750
  344TIP3   OH2 1037   3.729   1.029   2.521
  344TIP3    H1 1038   3.736   1.022   2.425
  344TIP3    H2 1039   3.671   1.103   2.536
  345TIP3   OH2 1040   0.541   1.596   0.454
  345TIP3    H1 1041   0.577   1.684   0.441
  345TIP3    H2 1042   0.618   1.541   0.470
  346TIP3   OH2 1043   0.521   1.395   1.285
  346TIP3    H1 1044   0.543   1.488   1.279
  346TIP3    H2 1045   0.562   1.355   1.208
  347TIP3   OH2 1046   0.306   5.386   2.604
  347TIP3    H1 1047   0.239   5.432   2.655
  347TIP3    H2 1048   0.389   5.416   2.642
  348TIP3   OH2 1049   0.557   1.377   1.672
  348TIP3    H1 1050   0.640   1.407   1.634
  348TIP3    H2 1051   0.520   1.319   1.606
  349TIP3   OH2 1052   5.853   0.705   2.281
  349TIP3    H1 1053   5.938   0.720   2.322
  349TIP3    H2 1054   5.810   0.640   2.336
  350TIP3   OH2 1055   3.603   2.321   1.987
  350TIP3    H1 1056   3.569   2.231   1.988
  350TIP3    H2 1057   3.694   2.311   1.960
  351TIP3   OH2 1058   1.926   4.060   1.772
  351TIP3    H1 1059   1.895   4.035   1.859
  351TIP3    H2 1060   1.858   4.118   1.739
  352TIP3   OH2 1061   0.337   1.426   4.174
  352TIP3    H1 1062   0.429   1.450   4.181
  352TIP3    H2 1063   0.326   1.399   4.083
  353TIP3   OH2 1064   4.002   0.693   0.018
  353TIP3    H1 1065   4.042   0.609   0.041
  353TIP3    H2 1066   4.020   0.703  -0.076
  354TIP3   OH2 1067   4.183   1.787   4.348
  354TIP3    H1 1068   4.263   1.809   4.300
  354TIP3    H2 1069   4.152   1.871   4.383
  355TIP3   OH2 1070   3.176   3.357   1.569
  355TIP3    H1 1071   3.262   3.330   1.536
  355TIP3    H2 1072   3.115   3.293   1.533
  356TIP3   OH2 1073   3.479   1.431   0.468
  356TIP3    H1 1074   3.429   1.507   0.496
  356TIP3    H2 1075   3.508   1.390   0.549
  357TIP3   OH2 1076   3.410   0.300   3.524
  357TIP3    H1 1077   3.330   0.348   3.545
  357TIP3    H2 1078   3.473   0.327   3.590
  358TIP3   OH2 1079   5.481   0.746   1.204
  358TIP3    H1 1080   5.538   0.671   1.195
  358TIP3    H2 1081   5.405   0.713   1.252
  359TIP3   OH2 1082   4.750   5.475   0.145
  359TIP3    H1 1083   4.826   5.483   0.203
  359TIP3    H2 1084   4.679   5.446   0.202
  360TIP3   OH2 1085   4.092   2.333   1.508
  360TIP3    H1 1086   4.004   2.302   1.531
  360TIP3    H2 1087   4.127   2.266   1.449
  361TIP3   OH2 1088   3.290   4.456   1.844
  361TIP3    H1 1089   3.283   4.427   1.935
  361TIP3    H2 1090   3.314   4.377   1.795
  362TIP3   OH2 1091   2.810   4.847   1.897
  362TIP3    H1 1092   2.824   4.768   1.845
  362TIP3    H2 1093   2.739   4.825   1.957
  363TIP3   OH2 1094   3.172   4.031   5.180
  363TIP3    H1 1095   3.161   4.048   5.086
  363TIP3    H2 1096   3.240   3.964   5.184
  364TIP3   OH2 1097   0.075   0.775   1.005
  364TIP3    H1 1098   0.007   0.841   1.021
  364TIP3    H2 1099   0.113   0.799   0.920
  365TIP3   OH2 1100   1.713   3.725   1.421
  365TIP3    H1 1101   1.793   3.673   1.412
  365TIP3    H2 1102   1.645   3.671   1.381
  366TIP3   OH2 1103   3.152   3.208   1.236
  366TIP3    H1 1104   3.225   3.148   1.220
  366TIP3    H2 1105   3.153   3.267   1.161
  367TIP3   OH2 1106   2.660   3.594   4.697
  367TIP3    H1 1107   2.669   3.688   4.715
  367TIP3    H2 1108   2.651   3.589   4.602
  368TIP3   OH2 1109   2.803   1.924   3.372
  368TIP3    H1 1110   2.841   1.836   3.364
  368TIP3    H2 1111   2.816   1.948   3.464
  369TIP3   OH2 1112   4.352   2.929   0.101
  369TIP3    H1 1113   4.440   2.960   0.122
  369TIP3    H2 1114   4.312   3.001   0.053
  370TIP3   OH2 1115   3.761   1.946   2.604
  370TIP3    H1 1116   3.732   1.948   2.513
  370TIP3    H2 1117   3.693   1.995   2.652
  371TIP3   OH2 1118   1.973   2.561   1.401
  371TIP3    H1 1119   1.938   2.626   1.461
  371TIP3    H2 1120   2.068   2.571   1.407
  372TIP3   OH2 1121   0.440   3.464   4.512
  372TIP3    H1 1122   0.353   3.485   4.548
  372TIP3    H2 1123   0.428   3.380   4.469
  373TIP3   OH2 1124   1.095   4.499   3.286
  373TIP3    H1 1125   1.036   4.559   3.241
  373TIP3    H2 1126   1.122   4.546   3.365
  374TIP3   OH2 1127   1.996   5.495   4.362
  374TIP3    H1 1128   1.995   5.407   4.399
  374TIP3    H2 1129   2.054   5.488   4.286
  375TIP3   OH2 1130   3.653   2.102   0.483
  375TIP3    H1 1131   3.665   2.180   0.428
  375TIP3    H2 1132   3.703   2.120   0.562
  376TIP3   OH2 1133   4.645   0.647   2.853
  376TIP3    H1 1134   4.595   0.718   2.814
  376TIP3    H2 1135   4.732   0.654   2.814
  377TIP3   OH2 1136   5.747   5.801   0.359
  377TIP3    H1 1137   5.826   5.834   0.403
  377TIP3    H2 1138   5.730   5.717   0.401
  378TIP3   OH2 1139   1.566   2.118   4.131
  378TIP3    H1 1140   1.636   2.138   4.193
  378TIP3    H2 1141   1.548   2.201   4.088
  379TIP3   OH2 1142   4.169   3.798   0.479
  379TIP3    H1 1143   4.215   3.715   0.494
  379TIP3    H2 1144   4.083   3.785   0.519
  380TIP3   OH2 1145   3.158   3.794   4.152
  380TIP3    H1 1146   3.239   3.771   4.107
  380TIP3    H2 1147   3.110   3.712   4.159
  381TIP3   OH2 1148   4.889   5.499   1.711
  381TIP3    H1 1149   4.827   5.433   1.679
  381TIP3    H2 1150   4.939   5.455   1.779
  382TIP3   OH2 1151   3.217   3.200   3.059
  382TIP3    H1 1152   3.237   3.135   3.126
  382TIP3    H2 1153   3.123   3.216   3.069
  383TIP3   OH2 1154   2.586   0.656   2.041
  383TIP3    H1 1155   2.541   0.699   1.968
  383TIP3    H2 1156   2.548   0.569   2.045
  384TIP3   OH2 1157   2.142   5.834   5.117
  384TIP3    H1 1158   2.048   5.838   5.134
  384TIP3    H2 1159   2.151   5.864   5.026
  385TIP3   OH2 1160   5.638   4.624   2.849
  385TIP3    H1 1161   5.570   4.640   2.784
  385TIP3    H2 1162   5.713   4.593   2.797
  386TIP3   OH2 1163   6.182   4.674   0.181
  386TIP3    H1 1164   6.099   4.660   0.137
  386TIP3    H2 1165   6.213   4.759   0.149
  387TIP3   OH2 1166   1.673   5.398   2.425
  387TIP3    H1 1167   1.643   5.424   2.512
  387TIP3    H2 1168   1.681   5.302   2.431
  388TIP3   OH2 1169   6.160   2.094   4.511
  388TIP3    H1 1170   6.089   2.054   4.461
  388TIP3    H2 1171   6.126   2.102   4.600
  389TIP3   OH2 1172   3.474   5.664   2.528
  389TIP3    H1 1173   3.479   5.589   2.470
  389TIP3    H2 1174   3.478   5.627   2.616
  390TIP3   OH2 1175   0.447   0.615   0.836
  390TIP3    H1 1176   0.448   0.594   0.929
  390TIP3    H2 1177   0.523   0.671   0.823
  391TIP3   OH2 1178   2.616   1.490   2.450
  391TIP3    H1 1179   2.620   1.542   2.370
  391TIP3    H2 1180   2.705   1.454   2.461
  392TIP3   OH2 1181   3.024   5.603   5.103
  392TIP3    H1 1182   3.103   5.643   5.139
  392TIP3    H2 1183   2.986   5.672   5.048
  393TIP3   OH2 1184   2.258   3.418   3.984
  393TIP3    H1 1185   2.285   3.510   3.978
  393TIP3    H2 1186   2.339   3.368   3.976
  394TIP3   OH2 1187   3.335   2.455   3.469
  394TIP3    H1 1188   3.415   2.454   3.416
  394TIP3    H2 1189   3.268   2.419   3.411
  395TIP3   OH2 1190   5.530   3.146   1.858
  395TIP3    H1 1191   5.543   3.165   1.765
  395TIP3    H2 1192   5.617   3.125   1.891
  396TIP3   OH2 1193   4.278   3.603   3.104
  396TIP3    H1 1194   4.215   3.533   3.084
  396TIP3    H2 1195   4.238   3.651   3.176
  397TIP3   OH2 1196   3.111   2.894   1.237
  397TIP3    H1 1197   3.199   2.932   1.234
  397TIP3    H2 1198   3.091   2.875   1.145
  398TIP3   OH2 1199   4.336   4.432   2.405
  398TIP3    H1 1200   4.415   4.486   2.400
  398TIP3    H2 1201   4.367   4.342   2.397
  399TIP3   OH2 1202   2.884   2.803   2.573
  399TIP3    H1 1203   2.913   2.884   2.616
  399TIP3    H2 1204   2.888   2.824   2.479
  400TIP3   OH2 1205   4.293   5.181   1.496
  400TIP3    H1 1206   4.204   5.182   1.529
  400TIP3    H2 1207   4.285   5.216   1.407
  401TIP3   OH2 1208   5.854   0.680   4.541
  401TIP3    H1 1209   5.759   0.691   4.539
  401TIP3    H2 1210   5.870   0.602   4.487
  402TIP3   OH2 1211   3.726   0.879   0.718
  402TIP3    H1 1212   3.659   0.946   0.705
  402TIP3    H2 1213   3.773   0.908   0.796
  403TIP3   OH2 1214   3.234   2.710   3.532
  403TIP3    H1 1215   3.202   2.664   3.610
  403TIP3    H2 1216   3.304   2.653   3.499
  404TIP3   OH2 1217   4.982   5.733   1.603
  404TIP3    H1 1218   4.940   5.647   1.607
  404TIP3    H2 1219   4.984   5.762   1.694
  405TIP3   OH2 1220   1.139   4.476   0.094
  405TIP3    H1 1221   1.149   4.540   0.024
  405TIP3    H2 1222   1.228   4.459   0.124
  406TIP3   OH2 1223   3.263   4.676   4.348
  406TIP3    H1 1224   3.258   4.634   4.434
  406TIP3    H2 1225   3.273   4.769   4.368
  407TIP3   OH2 1226   6.132   2.816   0.058
  407TIP3    H1 1227   6.039   2.839   0.058
  407TIP3    H2 1228   6.134   2.722   0.038
  408TIP3   OH2 1229   2.041   0.546   3.065
  408TIP3    H1 1230   2.021   0.501   3.147
  408TIP3    H2 1231   2.033   0.479   2.998
  409TIP3   OH2 1232   1.239   2.431   0.699
  409TIP3    H1 1233   1.249   2.511   0.749
  409TIP3    H2 1234   1.221   2.461   0.610
  410TIP3   OH2 1235   5.217   1.783   4.345
  410TIP3    H1 1236   5.201   1.736   4.263
  410TIP3    H2 1237   5.130   1.796   4.382
  411TIP3   OH2 1238   4.641   2.263   4.207
  411TIP3    H1 1239   4.561   2.312   4.186
  411TIP3    H2 1240   4.711   2.327   4.199
  412TIP3   OH2 1241   1.882   2.445   4.009
  412TIP3    H1 1242   1.885   2.489   3.924
  412TIP3    H2 1243   1.904   2.354   3.990
  413TIP3   OH2 1244   6.144   0.292   5.073
  413TIP3    H1 1245   6.187   0.346   5.007
  413TIP3    H2 1246   6.187   0.316   5.155
  414TIP3   OH2 1247   6.267   0.123   4.123
  414TIP3    H1 1248   6.196   0.172   4.083
  414TIP3    H2 1249   6.241   0.110   4.214
  415TIP3   OH2 1250   4.930   4.016   1.247
  415TIP3    H1 1251   4.885   3.955   1.187
  415TIP3    H2 1252   5.012   4.036   1.203
  416TIP3   OH2 1253   2.329   2.482   5.112
  416TIP3    H1 1254   2.396   2.432   5.065
  416TIP3    H2 1255   2.360   2.572   5.110
  417TIP3   OH2 1256   5.196   2.487   4.128
  417TIP3    H1 1257   5.197   2.465   4.221
  417TIP3    H2 1258   5.284   2.466   4.097
  418TIP3   OH2 1259   5.037   2.330   0.301
  418TIP3    H1 1260   4.942   2.325   0.314
  418TIP3    H2 1261   5.072   2.355   0.386
  419TIP3   OH2 1262   3.404   0.895   5.098
  419TIP3    H1 1263   3.349   0.924   5.171
  419TIP3    H2 1264   3.378   0.803   5.084
  420TIP3   OH2 1265   4.659   5.923   3.808
  420TIP3    H1 1266   4.614   5.947   3.727
  420TIP3    H2 1267   4.657   6.003   3.861
  421TIP3   OH2 1268   1.209   5.904   0.562
  421TIP3    H1 1269   1.250   5.820   0.541
  421TIP3    H2 1270   1.115   5.884   0.569
  422TIP3   OH2 1271   6.243   4.227   4.447
  422TIP3    H1 1272   6.275   4.137   4.445
  422TIP3    H2 1273   6.250   4.253   4.538
  423TIP3   OH2 1274   1.420   2.900   4.476
  423TIP3    H1 1275   1.388   2.831   4.534
  423TIP3    H2 1276   1.419   2.862   4.389
  424TIP3   OH2 1277   3.178   2.108   4.379
  424TIP3    H1 1278   3.183   2.113   4.474
  424TIP3    H2 1279   3.235   2.180   4.349
  425TIP3   OH2 1280   1.297   2.177   3.099
  425TIP3    H1 1281   1.231   2.223   3.047
  425TIP3    H2 1282   1.271   2.085   3.093
  426TIP3   OH2 1283   2.569   2.226   2.020
  426TIP3    H1 1284   2.575   2.321   2.030
  426TIP3    H2 1285   2.651   2.193   2.055
  427TIP3   OH2 1286   0.331   3.702   0.984
  427TIP3    H1 1287   0.341   3.774   1.047
  427TIP3    H2 1288   0.416   3.659   0.983
  428TIP3   OH2 1289   4.960   3.868   4.138
  428TIP3    H1 1290   5.014   3.893   4.063
  428TIP3    H2 1291   4.872   3.857   4.103
  429TIP3   OH2 1292   5.505   0.274   3.292
  429TIP3    H1 1293   5.452   0.194   3.282
  429TIP3    H2 1294   5.595   0.244   3.281
  430TIP3   OH2 1295   5.202   5.752   2.868
  430TIP3    H1 1296   5.150   5.778   2.944
  430TIP3    H2 1297   5.169   5.806   2.797
  431TIP3   OH2 1298   6.005   5.075   1.387
  431TIP3    H1 1299   5.981   5.168   1.390
  431TIP3    H2 1300   6.091   5.071   1.430
  432TIP3   OH2 1301   1.720   2.492   0.893
  432TIP3    H1 1302   1.778   2.419   0.872
  432TIP3    H2 1303   1.694   2.527   0.808
  433TIP3   OH2 1304   0.568   4.726   0.157
  433TIP3    H1 1305   0.644   4.668   0.165
  433TIP3    H2 1306   0.566   4.773   0.240
  434TIP3   OH2 1307   0.965   2.117   4.536
  434TIP3    H1 1308   0.918   2.059   4.597
  434TIP3    H2 1309   0.936   2.205   4.561
  435TIP3   OH2 1310   0.513   2.582   4.746
  435TIP3    H1 1311   0.495   2.646   4.814
  435TIP3    H2 1312   0.435   2.582   4.690
  436TIP3   OH2 1313   2.626   3.909   5.102
  436TIP3    H1 1314   2.719   3.920   5.081
  436TIP3    H2 1315   2.625   3.872   5.190
  437TIP3   OH2 1316   0.674   2.160   4.455
  437TIP3    H1 1317   0.734   2.147   4.381
  437TIP3    H2 1318   0.626   2.077   4.461
  438TIP3   OH2 1319   0.410   3.230   4.106
  438TIP3    H1 1320   0.384   3.269   4.022
  438TIP3    H2 1321   0.458   3.150   4.081
  439TIP3   OH2 1322   4.376   3.135   0.489
  439TIP3    H1 1323   4.425   3.096   0.417
  439TIP3    H2 1324   4.290   3.095   0.485
  440TIP3   OH2 1325   5.442   2.899   0.294
  440TIP3    H1 1326   5.480   2.971   0.344
  440TIP3    H2 1327   5.386   2.853   0.356
  441TIP3   OH2 1328   2.831   0.739   3.841
  441TIP3    H1 1329   2.884   0.818   3.854
  441TIP3    H2 1330   2.869   0.697   3.764
  442TIP3   OH2 1331   2.602   4.171   3.408
  442TIP3    H1 1332   2.615   4.079   3.432
  442TIP3    H2 1333   2.521   4.172   3.357
  443TIP3   OH2 1334   5.550   1.847   3.899
  443TIP3    H1 1335   5.481   1.821   3.838
  443TIP3    H2 1336   5.510   1.834   3.986
  444TIP3   OH2 1337   5.356   1.175   2.633
  444TIP3    H1 1338   5.334   1.103   2.575
  444TIP3    H2 1339   5.310   1.250   2.597
  445TIP3   OH2 1340   5.966   3.027   1.199
  445TIP3    H1 1341   5.952   3.101   1.140
  445TIP3    H2 1342   5.878   2.993   1.216
  446TIP3   OH2 1343   4.190   5.884   0.476
  446TIP3    H1 1344   4.232   5.965   0.504
  446TIP3    H2 1345   4.195   5.886   0.380
  447TIP3   OH2 1346   2.091   4.024   3.316
  447TIP3    H1 1347   2.004   3.983   3.309
  447TIP3    H2 1348   2.074   4.117   3.305
  448TIP3   OH2 1349   4.746   3.074   0.504
  448TIP3    H1 1350   4.838   3.063   0.482
  448TIP3    H2 1351   4.748   3.122   0.587
  449TIP3   OH2 1352   6.055   4.290   0.777
  449TIP3    H1 1353   6.014   4.281   0.863
  449TIP3    H2 1354   6.111   4.367   0.785
  450TIP3   OH2 1355   4.921   1.504   3.325
  450TIP3    H1 1356   5.015   1.519   3.338
  450TIP3    H2 1357   4.888   1.485   3.413
  451TIP3   OH2 1358   3.987   3.677   2.281
  451TIP3    H1 1359   3.917   3.742   2.287
  451TIP3    H2 1360   3.985   3.647   2.190
  452TIP3   OH2 1361   1.439   4.505   0.686
  452TIP3    H1 1362   1.349   4.521   0.655
  452TIP3    H2 1363   1.428   4.449   0.763
  453TIP3   OH2 1364   3.782   1.544   2.027
  453TIP3    H1 1365   3.836   1.549   1.948
  453TIP3    H2 1366   3.844   1.519   2.096
  454TIP3   OH2 1367   0.374   3.484   0.679
  454TIP3    H1 1368   0.296   3.482   0.733
  454TIP3    H2 1369   0.369   3.405   0.625
  455TIP3   OH2 1370   1.493   5.097   1.331
  455TIP3    H1 1371   1.564   5.039   1.303
  455TIP3    H2 1372   1.450   5.051   1.402
  456TIP3   OH2 1373   6.048   4.938   2.519
  456TIP3    H1 1374   6.088   4.872   2.463
  456TIP3    H2 1375   6.083   4.921   2.606
  457TIP3   OH2 1376   3.008   3.124   0.511
  457TIP3    H1 1377   3.001   3.056   0.443
  457TIP3    H2 1378   2.947   3.192   0.482
  458TIP3   OH2 1379   4.218   1.255   5.011
  458TIP3    H1 1380   4.185   1.343   5.027
  458TIP3    H2 1381   4.301   1.251   5.057
  459TIP3   OH2 1382   0.248   2.221   4.091
  459TIP3    H1 1383   0.204   2.197   4.172
  459TIP3    H2 1384   0.212   2.307   4.068
  460TIP3   OH2 1385   0.582   0.174   4.202
  460TIP3    H1 1386   0.584   0.100   4.263
  460TIP3    H2 1387   0.498   0.217   4.219
  461TIP3   OH2 1388   5.091   5.948   5.001
  461TIP3    H1 1389   5.177   5.958   4.961
  461TIP3    H2 1390   5.088   5.856   5.028
  462TIP3   OH2 1391   3.432   1.653   0.113
  462TIP3    H1 1392   3.437   1.662   0.018
  462TIP3    H2 1393   3.486   1.724   0.147
  463TIP3   OH2 1394   3.337   1.074   3.936
  463TIP3    H1 1395   3.420   1.121   3.944
  463TIP3    H2 1396   3.319   1.072   3.842
  464TIP3   OH2 1397   4.071   2.373   3.401
  464TIP3    H1 1398   4.032   2.364   3.314
  464TIP3    H2 1399   4.157   2.331   3.394
  465TIP3   OH2 1400   5.582   1.610   0.745
  465TIP3    H1 1401   5.638   1.638   0.817
  465TIP3    H2 1402   5.497   1.651   0.762
  466TIP3   OH2 1403   4.816   1.647   0.449
  466TIP3    H1 1404   4.872   1.598   0.389
  466TIP3    H2 1405   4.743   1.588   0.466
  467TIP3   OH2 1406   4.246   2.808   3.583
  467TIP3    H1 1407   4.299   2.760   3.647
  467TIP3    H2 1408   4.172   2.750   3.566
  468TIP3   OH2 1409   5.274   4.211   3.973
  468TIP3    H1 1410   5.227   4.152   4.033
  468TIP3    H2 1411   5.209   4.277   3.948
  469TIP3   OH2 1412   0.570   5.331   1.390
  469TIP3    H1 1413   0.576   5.296   1.301
  469TIP3    H2 1414   0.544   5.422   1.378
  470TIP3   OH2 1415   1.870   4.481   1.733
  470TIP3    H1 1416   1.823   4.537   1.671
  470TIP3    H2 1417   1.802   4.435   1.781
  471TIP3   OH2 1418   5.692   0.418   1.883
  471TIP3    H1 1419   5.645   0.481   1.939
  471TIP3    H2 1420   5.771   0.465   1.856
  472TIP3   OH2 1421   1.177   5.552   3.352
  472TIP3    H1 1422   1.247   5.517   3.407
  472TIP3    H2 1423   1.153   5.481   3.294
  473TIP3   OH2 1424   0.875   0.498   2.802
  473TIP3    H1 1425   0.789   0.498   2.845
  473TIP3    H2 1426   0.858   0.461   2.715
  474TIP3   OH2 1427   4.219   4.086   3.181
  474TIP3    H1 1428   4.125   4.070   3.176
  474TIP3    H2 1429   4.258   3.999   3.192
  475TIP3   OH2 1430   2.001   2.691   4.480
  475TIP3    H1 1431   2.051   2.670   4.401
  475TIP3    H2 1432   1.911   2.702   4.450
  476TIP3   OH2 1433   3.862   4.315   0.612
  476TIP3    H1 1434   3.920   4.341   0.540
  476TIP3    H2 1435   3.777   4.353   0.589
  477TIP3   OH2 1436   5.997   5.433   3.159
  477TIP3    H1 1437   5.941   5.497   3.204
  477TIP3    H2 1438   5.955   5.349   3.176
  478TIP3   OH2 1439   5.553   3.451   5.084
  478TIP3    H1 1440   5.591   3.364   5.097
  478TIP3    H2 1441   5.511   3.446   4.998
  479TIP3   OH2 1442   5.594   4.292   1.287
  479TIP3    H1 1443   5.686   4.320   1.282
  479TIP3    H2 1444   5.594   4.225   1.355
  480TIP3   OH2 1445   4.340   5.321   2.527
  480TIP3    H1 1446   4.336   5.415   2.512
  480TIP3    H2 1447   4.434   5.302   2.532
  481TIP3   OH2 1448   2.076   0.134   3.667
  481TIP3    H1 1449   2.021   0.165   3.739
  481TIP3    H2 1450   2.130   0.209   3.645
  482TIP3   OH2 1451   0.278   5.657   1.547
  482TIP3    H1 1452   0.364   5.618   1.537
  482TIP3    H2 1453   0.282   5.704   1.631
  483TIP3   OH2 1454   4.119   1.515   0.897
  483TIP3    H1 1455   4.050   1.468   0.850
  483TIP3    H2 1456   4.195   1.510   0.838
  484TIP3   OH2 1457   0.626   1.809   2.959
  484TIP3    H1 1458   0.721   1.817   2.971
  484TIP3    H2 1459   0.605   1.723   2.995
  485TIP3   OH2 1460   1.647   3.554   0.467
  485TIP3    H1 1461   1.609   3.478   0.423
  485TIP3    H2 1462   1.626   3.541   0.560
  486TIP3   OH2 1463   0.724   4.593   2.071
  486TIP3    H1 1464   0.644   4.571   2.119
  486TIP3    H2 1465   0.772   4.650   2.130
  487TIP3   OH2 1466   3.879   5.261   2.383
  487TIP3    H1 1467   3.937   5.189   2.406
  487TIP3    H2 1468   3.844   5.237   2.297
  488TIP3   OH2 1469   3.108   0.026   1.250
  488TIP3    H1 1470   3.078   0.041   1.340
  488TIP3    H2 1471   3.042   0.068   1.195
  489TIP3   OH2 1472   1.387   2.565   4.089
  489TIP3    H1 1473   1.420   2.624   4.021
  489TIP3    H2 1474   1.322   2.510   4.044
  490TIP3   OH2 1475   4.074   1.648   2.174
  490TIP3    H1 1476   4.096   1.555   2.159
  490TIP3    H2 1477   4.030   1.649   2.258
  491TIP3   OH2 1478   2.623   2.697   3.298
  491TIP3    H1 1479   2.591   2.745   3.374
  491TIP3    H2 1480   2.551   2.639   3.274
  492TIP3   OH2 1481   3.103   2.316   3.663
  492TIP3    H1 1482   3.157   2.301   3.585
  492TIP3    H2 1483   3.132   2.249   3.725
  493TIP3   OH2 1484   1.364   1.088   2.034
  493TIP3    H1 1485   1.450   1.109   2.071
  493TIP3    H2 1486   1.379   1.008   1.983
  494TIP3   OH2 1487   0.190   3.795   2.421
  494TIP3    H1 1488   0.231   3.723   2.373
  494TIP3    H2 1489   0.253   3.815   2.491
  495TIP3   OH2 1490   1.837   5.778   2.263
  495TIP3    H1 1491   1.856   5.861   2.306
  495TIP3    H2 1492   1.743   5.766   2.274
  496TIP3   OH2 1493   1.368   2.005   3.954
  496TIP3    H1 1494   1.437   2.040   4.011
  496TIP3    H2 1495   1.291   2.057   3.976
  497TIP3   OH2 1496   5.230   1.069   4.695
  497TIP3    H1 1497   5.140   1.038   4.689
  497TIP3    H2 1498   5.237   1.110   4.781
  498TIP3   OH2 1499   5.048   0.463   2.843
  498TIP3    H1 1500   4.981   0.517   2.801
  498TIP3    H2 1501   5.127   0.478   2.791
  499TIP3   OH2 1502   4.448   0.666   0.588
  499TIP3    H1 1503   4.496   0.583   0.594
  499TIP3    H2 1504   4.362   0.647   0.626
  500TIP3   OH2 1505   1.506   0.127   1.559
  500TIP3    H1 1506   1.529   0.125   1.652
  500TIP3    H2 1507   1.521   0.218   1.533
  501TIP3   OH2 1508   5.351   1.118   0.096
  501TIP3    H1 1509   5.415   1.053   0.126
  501TIP3    H2 1510   5.371   1.131   0.004
  502TIP3   OH2 1511   1.878   3.103   4.598
  502TIP3    H1 1512   1.895   3.167   4.667
  502TIP3    H2 1513   1.964   3.082   4.563
  503TIP3   OH2 1514   5.887   3.936   0.011
  503TIP3    H1 1515   5.884   4.021   0.056
  503TIP3    H2 1516   5.886   3.957  -0.082
  504TIP3   OH2 1517   1.390   4.932   1.022
  504TIP3    H1 1518   1.428   4.846   1.036
  504TIP3    H2 1519   1.310   4.932   1.073
  505TIP3   OH2 1520   0.487   2.294   3.753
  505TIP3    H1 1521   0.473   2.354   3.680
  505TIP3    H2 1522   0.554   2.337   3.807
  506TIP3   OH2 1523   2.781   5.455   4.206
  506TIP3    H1 1524   2.877   5.464   4.205
  506TIP3    H2 1525   2.753   5.492   4.122
  507TIP3   OH2 1526   6.229   3.700   0.217
  507TIP3    H1 1527   6.226   3.605   0.205
  507TIP3    H2 1528   6.219   3.735   0.129
  508TIP3   OH2 1529   2.075   0.358   0.949
  508TIP3    H1 1530   2.020   0.394   1.018
  508TIP3    H2 1531   2.014   0.311   0.892
  509TIP3   OH2 1532   0.900   3.323   2.510
  509TIP3    H1 1533   0.818   3.304   2.555
  509TIP3    H2 1534   0.966   3.320   2.579
  510TIP3   OH2 1535   3.903   0.497   1.306
  510TIP3    H1 1536   3.879   0.517   1.397
  510TIP3    H2 1537   3.861   0.566   1.254
  511TIP3   OH2 1538   0.844   3.496   0.476
  511TIP3    H1 1539   0.891   3.502   0.392
  511TIP3    H2 1540   0.759   3.536   0.458
  512TIP3   OH2 1541   1.203   5.411   2.114
  512TIP3    H1 1542   1.255   5.416   2.194
  512TIP3    H2 1543   1.198   5.502   2.084
  513TIP3   OH2 1544   3.592   4.316   3.643
  513TIP3    H1 1545   3.598   4.387   3.707
  513TIP3    H2 1546   3.528   4.255   3.681
  514TIP3   OH2 1547   3.435   3.865   2.486
  514TIP3    H1 1548   3.465   3.845   2.574
  514TIP3    H2 1549   3.413   3.958   2.489
  515TIP3   OH2 1550   5.274   5.222   2.481
  515TIP3    H1 1551   5.311   5.139   2.451
  515TIP3    H2 1552   5.189   5.198   2.517
  516TIP3   OH2 1553   2.799   1.567   3.345
  516TIP3    H1 1554   2.842   1.482   3.355
  516TIP3    H2 1555   2.795   1.602   3.434
  517TIP3   OH2 1556   1.170   0.824   2.303
  517TIP3    H1 1557   1.208   0.910   2.285
  517TIP3    H2 1558   1.233   0.762   2.266
  518TIP3   OH2 1559   2.415   0.533   4.214
  518TIP3    H1 1560   2.455   0.612   4.179
  518TIP3    H2 1561   2.334   0.522   4.164
  519TIP3   OH2 1562   5.418   4.604   4.264
  519TIP3    H1 1563   5.494   4.656   4.289
  519TIP3    H2 1564   5.397   4.634   4.175
  520TIP3   OH2 1565   3.143   1.098   0.537
  520TIP3    H1 1566   3.119   1.179   0.493
  520TIP3    H2 1567   3.070   1.038   0.519
  521TIP3   OH2 1568   3.581   1.451   0.213
  521TIP3    H1 1569   3.534   1.444   0.296
  521TIP3    H2 1570   3.541   1.526   0.170
  522TIP3   OH2 1571   2.638   4.974   3.224
  522TIP3    H1 1572   2.715   5.009   3.178
  522TIP3    H2 1573   2.612   5.045   3.283
  523TIP3   OH2 1574   3.954   5.813   0.605
  523TIP3    H1 1575   3.996   5.741   0.652
  523TIP3    H2 1576   4.021   5.845   0.545
  524TIP3   OH2 1577   0.110   2.683   0.825
  524TIP3    H1 1578   0.050   2.740   0.777
  524TIP3    H2 1579   0.138   2.618   0.760
  525TIP3   OH2 1580   5.961   4.893   5.065
  525TIP3    H1 1581   5.949   4.926   4.976
  525TIP3    H2 1582   6.003   4.965   5.112
  526TIP3   OH2 1583   2.417   1.184   3.097
  526TIP3    H1 1584   2.452   1.169   3.010
  526TIP3    H2 1585   2.490   1.220   3.147
  527TIP3   OH2 1586   5.825   5.872   4.912
  527TIP3    H1 1587   5.797   5.791   4.869
  527TIP3    H2 1588   5.838   5.934   4.841
  528TIP3   OH2 1589   5.460   5.911   1.467
  528TIP3    H1 1590   5.485   6.000   1.491
  528TIP3    H2 1591   5.488   5.902   1.376
  529TIP3   OH2 1592   5.046   4.093   3.182
  529TIP3    H1 1593   5.106   4.083   3.108
  529TIP3    H2 1594   4.997   4.173   3.161
  530TIP3   OH2 1595   3.626   4.374   4.047
  530TIP3    H1 1596   3.650   4.298   4.100
  530TIP3    H2 1597   3.537   4.356   4.019
  531TIP3   OH2 1598   0.062   3.147   1.274
  531TIP3    H1 1599   0.106   3.231   1.291
  531TIP3    H2 1600  -0.002   3.139   1.344
  532TIP3   OH2 1601   2.479   2.677   0.968
  532TIP3    H1 1602   2.507   2.606   1.026
  532TIP3    H2 1603   2.388   2.693   0.992
  533TIP3   OH2 1604   5.871   2.617   0.596
  533TIP3    H1 1605   5.787   2.572   0.587
  533TIP3    H2 1606   5.847   2.706   0.625
  534TIP3   OH2 1607   0.394   2.772   4.876
  534TIP3    H1 1608   0.338   2.749   4.950
  534TIP3    H2 1609   0.400   2.867   4.879
  535TIP3   OH2 1610   0.938   3.432   3.155
  535TIP3    H1 1611   1.013   3.406   3.100
  535TIP3    H2 1612   0.975   3.492   3.219
  536TIP3   OH2 1613   4.573   1.339   1.279
  536TIP3    H1 1614   4.565   1.295   1.194
  536TIP3    H2 1615   4.510   1.294   1.335
  537TIP3   OH2 1616   1.186   2.635   1.086
  537TIP3    H1 1617   1.168   2.541   1.090
  537TIP3    H2 1618   1.215   2.650   0.996
  538TIP3   OH2 1619   0.397   0.149   1.826
  538TIP3    H1 1620   0.429   0.160   1.736
  538TIP3    H2 1621   0.335   0.077   1.821
  539TIP3   OH2 1622   0.238   4.856   3.921
  539TIP3    H1 1623   0.178   4.811   3.862
  539TIP3    H2 1624   0.193   4.859   4.005
  540TIP3   OH2 1625   0.371   0.166   3.561
  540TIP3    H1 1626   0.323   0.086   3.581
  540TIP3    H2 1627   0.391   0.160   3.468
  541TIP3   OH2 1628   4.900   5.150   0.982
  541TIP3    H1 1629   4.875   5.218   0.919
  541TIP3    H2 1630   4.907   5.070   0.930
  542TIP3   OH2 1631   2.488   1.849   1.964
  542TIP3    H1 1632   2.488   1.932   1.917
  542TIP3    H2 1633   2.544   1.864   2.040
  543TIP3   OH2 1634   2.226   3.649   3.508
  543TIP3    H1 1635   2.262   3.640   3.420
  543TIP3    H2 1636   2.297   3.623   3.566
  544TIP3   OH2 1637   1.281   3.088   0.407
  544TIP3    H1 1638   1.248   3.019   0.349
  544TIP3    H2 1639   1.206   3.145   0.421
  545TIP3   OH2 1640   2.771   2.498   2.077
  545TIP3    H1 1641   2.815   2.579   2.101
  545TIP3    H2 1642   2.685   2.504   2.118
  546TIP3   OH2 1643   5.933   4.148   2.622
  546TIP3    H1 1644   5.935   4.168   2.716
  546TIP3    H2 1645   6.022   4.118   2.602
  547TIP3   OH2 1646   3.130   1.219   4.048
  547TIP3    H1 1647   3.131   1.198   4.142
  547TIP3    H2 1648   3.211   1.181   4.015
  548TIP3   OH2 1649   2.221   1.490   3.700
  548TIP3    H1 1650   2.280   1.429   3.744
  548TIP3    H2 1651   2.211   1.455   3.611
  549TIP3   OH2 1652   1.393   0.019   2.189
  549TIP3    H1 1653   1.365   0.108   2.208
  549TIP3    H2 1654   1.415  -0.018   2.274
  550TIP3   OH2 1655   2.191   0.037   3.996
  550TIP3    H1 1656   2.124   0.096   4.030
  550TIP3    H2 1657   2.149  -0.008   3.923
  551TIP3   OH2 1658   2.271   3.550   0.615
  551TIP3    H1 1659   2.202   3.615   0.632
  551TIP3    H2 1660   2.337   3.567   0.682
  552TIP3   OH2 1661   1.474   3.483   2.558
  552TIP3    H1 1662   1.393   3.488   2.507
  552TIP3    H2 1663   1.500   3.391   2.553
  553TIP3   OH2 1664   0.280   1.537   0.475
  553TIP3    H1 1665   0.363   1.575   0.447
  553TIP3    H2 1666   0.301   1.493   0.558
  554TIP3   OH2 1667   1.997   4.621   2.815
  554TIP3    H1 1668   2.082   4.618   2.857
  554TIP3    H2 1669   2.012   4.668   2.732
  555TIP3   OH2 1670   4.634   1.058   3.063
  555TIP3    H1 1671   4.617   1.133   3.120
  555TIP3    H2 1672   4.702   1.088   3.003
  556TIP3   OH2 1673   4.173   5.567   0.477
  556TIP3    H1 1674   4.237   5.636   0.460
  556TIP3    H2 1675   4.133   5.550   0.391
  557TIP3   OH2 1676   5.608   2.917   2.290
  557TIP3    H1 1677   5.690   2.906   2.241
  557TIP3    H2 1678   5.554   2.974   2.234
  558TIP3   OH2 1679   1.716   1.748   0.722
  558TIP3    H1 1680   1.714   1.653   0.737
  558TIP3    H2 1681   1.786   1.760   0.658
  559TIP3   OH2 1682   0.838   4.634   3.859
  559TIP3    H1 1683   0.811   4.646   3.950
  559TIP3    H2 1684   0.933   4.650   3.860
  560TIP3   OH2 1685   1.483   0.827   1.976
  560TIP3    H1 1686   1.504   0.807   2.068
  560TIP3    H2 1687   1.448   0.744   1.942
  561TIP3   OH2 1688   5.099   5.677   5.124
  561TIP3    H1 1689   5.060   5.724   5.197
  561TIP3    H2 1690   5.055   5.592   5.124
  562TIP3   OH2 1691   2.278   3.926   1.795
  562TIP3    H1 1692   2.253   4.017   1.783
  562TIP3    H2 1693   2.200   3.885   1.833
  563TIP3   OH2 1694  -0.027   5.716   2.493
  563TIP3    H1 1695  -0.011   5.775   2.419
  563TIP3    H2 1696   0.003   5.630   2.462
  564TIP3   OH2 1697   5.803   5.318   4.394
  564TIP3    H1 1698   5.882   5.290   4.348
  564TIP3    H2 1699   5.765   5.385   4.337
  565TIP3   OH2 1700   5.979   0.285   3.786
  565TIP3    H1 1701   6.006   0.302   3.876
  565TIP3    H2 1702   6.025   0.351   3.734
  566TIP3   OH2 1703   5.269   5.564   4.033
  566TIP3    H1 1704   5.222   5.520   3.962
  566TIP3    H2 1705   5.210   5.632   4.063
  567TIP3   OH2 1706   2.841   5.532   0.661
  567TIP3    H1 1707   2.818   5.520   0.753
  567TIP3    H2 1708   2.778   5.597   0.629
  568TIP3   OH2 1709   2.464   5.400   0.610
  568TIP3    H1 1710   2.382   5.449   0.604
  568TIP3    H2 1711   2.525   5.449   0.555
  569TIP3   OH2 1712   2.196   0.980   0.873
  569TIP3    H1 1713   2.187   1.073   0.894
  569TIP3    H2 1714   2.155   0.934   0.947
  570TIP3   OH2 1715   4.731   3.065   2.370
  570TIP3    H1 1716   4.728   3.007   2.445
  570TIP3    H2 1717   4.722   3.153   2.407
  571TIP3   OH2 1718   2.778   2.357   4.346
  571TIP3    H1 1719   2.713   2.346   4.276
  571TIP3    H2 1720   2.844   2.289   4.329
  572TIP3   OH2 1721   6.193   0.148   0.832
  572TIP3    H1 1722   6.124   0.107   0.884
  572TIP3    H2 1723   6.170   0.127   0.741
  573TIP3   OH2 1724   0.122   1.356   4.876
  573TIP3    H1 1725   0.096   1.362   4.784
  573TIP3    H2 1726   0.178   1.279   4.880
  574TIP3   OH2 1727   1.195   0.225   1.551
  574TIP3    H1 1728   1.210   0.238   1.644
  574TIP3    H2 1729   1.239   0.298   1.508
  575TIP3   OH2 1730   0.652   3.840   1.783
  575TIP3    H1 1731   0.621   3.814   1.697
  575TIP3    H2 1732   0.573   3.846   1.837
  576TIP3   OH2 1733   1.044   0.125   4.567
  576TIP3    H1 1734   1.093   0.196   4.525
  576TIP3    H2 1735   1.110   0.061   4.593
  577TIP3   OH2 1736   1.703   4.156   1.502
  577TIP3    H1 1737   1.668   4.090   1.562
  577TIP3    H2 1738   1.741   4.105   1.430
  578TIP3   OH2 1739   5.010   2.314   1.729
  578TIP3    H1 1740   4.961   2.377   1.677
  578TIP3    H2 1741   5.090   2.360   1.753
  579TIP3   OH2 1742   0.268   4.438   1.575
  579TIP3    H1 1743   0.278   4.530   1.549
  579TIP3    H2 1744   0.174   4.425   1.584
  580TIP3   OH2 1745   4.593   1.924   0.302
  580TIP3    H1 1746   4.568   1.831   0.305
  580TIP3    H2 1747   4.631   1.935   0.215
  581TIP3   OH2 1748   2.014   2.415   3.294
  581TIP3    H1 1749   1.999   2.426   3.200
  581TIP3    H2 1750   2.092   2.360   3.300
  582TIP3   OH2 1751   6.173   0.774   0.412
  582TIP3    H1 1752   6.251   0.825   0.432
  582TIP3    H2 1753   6.135   0.818   0.335
  583TIP3   OH2 1754   3.259   4.928   4.784
  583TIP3    H1 1755   3.201   4.985   4.733
  583TIP3    H2 1756   3.206   4.900   4.858
  584TIP3   OH2 1757   5.740   1.540   4.107
  584TIP3    H1 1758   5.646   1.553   4.114
  584TIP3    H2 1759   5.754   1.450   4.139
  585TIP3   OH2 1760   4.937   4.146   0.858
  585TIP3    H1 1761   5.018   4.176   0.900
  585TIP3    H2 1762   4.898   4.225   0.821
  586TIP3   OH2 1763   5.386   1.865   2.724
  586TIP3    H1 1764   5.441   1.939   2.751
  586TIP3    H2 1765   5.436   1.788   2.750
  587TIP3   OH2 1766   2.684   5.405   0.399
  587TIP3    H1 1767   2.742   5.465   0.447
  587TIP3    H2 1768   2.742   5.354   0.344
  588TIP3   OH2 1769   5.663   0.229   4.043
  588TIP3    H1 1770   5.640   0.137   4.037
  588TIP3    H2 1771   5.652   0.251   4.135
  589TIP3   OH2 1772   2.289   2.436   1.036
  589TIP3    H1 1773   2.362   2.420   1.096
  589TIP3    H2 1774   2.213   2.397   1.081
  590TIP3   OH2 1775   4.779   5.181   4.906
  590TIP3    H1 1776   4.814   5.102   4.948
  590TIP3    H2 1777   4.747   5.234   4.979
  591TIP3   OH2 1778   2.315   0.784   3.404
  591TIP3    H1 1779   2.382   0.717   3.422
  591TIP3    H2 1780   2.299   0.778   3.310
  592TIP3   OH2 1781   3.171   2.598   0.918
  592TIP3    H1 1782   3.141   2.507   0.913
  592TIP3    H2 1783   3.226   2.601   0.996
  593TIP3   OH2 1784   0.495   2.268   4.192
  593TIP3    H1 1785   0.501   2.284   4.286
  593TIP3    H2 1786   0.401   2.275   4.173
  594TIP3   OH2 1787   1.559   2.408   4.255
  594TIP3    H1 1788   1.635   2.454   4.289
  594TIP3    H2 1789   1.530   2.461   4.180
  595TIP3   OH2 1790   0.588   3.347   2.283
  595TIP3    H1 1791   0.587   3.396   2.365
  595TIP3    H2 1792   0.496   3.329   2.265
  596TIP3   OH2 1793   0.329   4.697   1.462
  596TIP3    H1 1794   0.240   4.733   1.471
  596TIP3    H2 1795   0.380   4.743   1.529
  597TIP3   OH2 1796   2.689   0.052   1.454
  597TIP3    H1 1797   2.607   0.009   1.429
  597TIP3    H2 1798   2.692   0.132   1.402
  598TIP3   OH2 1799   2.612   1.149   5.078
  598TIP3    H1 1800   2.695   1.195   5.085
  598TIP3    H2 1801   2.625   1.087   5.006
  599TIP3   OH2 1802   4.000   5.231   3.316
  599TIP3    H1 1803   4.068   5.204   3.377
  599TIP3    H2 1804   3.929   5.170   3.330
  600TIP3   OH2 1805   0.090   3.074   5.063
  600TIP3    H1 1806   0.012   3.017   5.067
  600TIP3    H2 1807   0.129   3.055   4.978
  601TIP3   OH2 1808   3.474   0.757   0.778
  601TIP3    H1 1809   3.559   0.756   0.735
  601TIP3    H2 1810   3.415   0.716   0.716
  602TIP3   OH2 1811   0.908   5.335   0.871
  602TIP3    H1 1812   0.990   5.329   0.919
  602TIP3    H2 1813   0.841   5.343   0.939
  603TIP3   OH2 1814   1.282   1.317   1.500
  603TIP3    H1 1815   1.285   1.409   1.475
  603TIP3    H2 1816   1.221   1.277   1.438
  604TIP3   OH2 1817   4.721   5.910   3.102
  604TIP3    H1 1818   4.709   5.941   3.192
  604TIP3    H2 1819   4.784   5.838   3.110
  605TIP3   OH2 1820   0.384   0.941   1.374
  605TIP3    H1 1821   0.471   0.912   1.399
  605TIP3    H2 1822   0.379   0.923   1.280
  606TIP3   OH2 1823   0.431   0.179   3.303
  606TIP3    H1 1824   0.514   0.217   3.275
  606TIP3    H2 1825   0.378   0.176   3.224
  607TIP3   OH2 1826   0.800   1.019   4.529
  607TIP3    H1 1827   0.850   0.937   4.526
  607TIP3    H2 1828   0.710   0.993   4.509
  608TIP3   OH2 1829   5.194   1.272   2.197
  608TIP3    H1 1830   5.176   1.286   2.104
  608TIP3    H2 1831   5.174   1.356   2.238
  609TIP3   OH2 1832   5.902   4.448   4.978
  609TIP3    H1 1833   5.963   4.487   5.040
  609TIP3    H2 1834   5.949   4.373   4.942
  610TIP3   OH2 1835   6.069   5.259   3.986
  610TIP3    H1 1836   6.160   5.245   3.960
  610TIP3    H2 1837   6.023   5.279   3.905
  611TIP3   OH2 1838   5.150   5.570   3.330
  611TIP3    H1 1839   5.212   5.601   3.395
  611TIP3    H2 1840   5.064   5.588   3.368
  612TIP3   OH2 1841   3.801   0.879   1.976
  612TIP3    H1 1842   3.812   0.785   1.983
  612TIP3    H2 1843   3.889   0.915   1.987
  613TIP3   OH2 1844   1.426   5.833   4.674
  613TIP3    H1 1845   1.476   5.772   4.728
  613TIP3    H2 1846   1.486   5.906   4.659
  614TIP3   OH2 1847   1.838   0.385   4.678
  614TIP3    H1 1848   1.758   0.434   4.665
  614TIP3    H2 1849   1.829   0.347   4.765
  615TIP3   OH2 1850   3.347   1.962   2.818
  615TIP3    H1 1851   3.334   1.890   2.756
  615TIP3    H2 1852   3.335   1.921   2.905
  616TIP3   OH2 1853   1.884   1.909   2.967
  616TIP3    H1 1854   1.946   1.883   3.034
  616TIP3    H2 1855   1.937   1.928   2.890
  617TIP3   OH2 1856   3.505   5.703   1.441
  617TIP3    H1 1857   3.579   5.750   1.402
  617TIP3    H2 1858   3.494   5.626   1.385
  618TIP3   OH2 1859   3.785   4.886   1.141
  618TIP3    H1 1860   3.705   4.896   1.089
  618TIP3    H2 1861   3.754   4.882   1.231
  619TIP3   OH2 1862   2.886   3.224   2.353
  619TIP3    H1 1863   2.880   3.284   2.427
  619TIP3    H2 1864   2.831   3.264   2.285
  620TIP3   OH2 1865   2.629   1.826   3.764
  620TIP3    H1 1866   2.564   1.874   3.713
  620TIP3    H2 1867   2.587   1.813   3.849
  621TIP3   OH2 1868   1.142   0.302   4.369
  621TIP3    H1 1869   1.048   0.300   4.355
  621TIP3    H2 1870   1.156   0.376   4.428
  622TIP3   OH2 1871   1.425   1.719   1.373
  622TIP3    H1 1872   1.463   1.680   1.294
  622TIP3    H2 1873   1.351   1.661   1.394
  623TIP3   OH2 1874   4.794   0.816   3.052
  623TIP3    H1 1875   4.728   0.761   3.010
  623TIP3    H2 1876   4.748   0.897   3.072
  624TIP3   OH2 1877   2.925   5.012   1.691
  624TIP3    H1 1878   2.858   4.948   1.717
  624TIP3    H2 1879   3.007   4.963   1.695
  625TIP3   OH2 1880   5.947   0.973   3.506
  625TIP3    H1 1881   5.989   1.018   3.579
  625TIP3    H2 1882   5.875   0.925   3.546
  626TIP3   OH2 1883   2.309   0.634   0.384
  626TIP3    H1 1884   2.248   0.570   0.420
  626TIP3    H2 1885   2.271   0.719   0.407
  627TIP3   OH2 1886   1.441   4.743   3.547
  627TIP3    H1 1887   1.479   4.831   3.553
  627TIP3    H2 1888   1.517   4.685   3.544
  628TIP3   OH2 1889   6.190   5.626   1.346
  628TIP3    H1 1890   6.229   5.629   1.433
  628TIP3    H2 1891   6.130   5.701   1.344
  629TIP3   OH2 1892   6.330   1.826   3.144
  629TIP3    H1 1893   6.356   1.918   3.141
  629TIP3    H2 1894   6.411   1.779   3.161
  630TIP3   OH2 1895   2.548   5.920   1.063
  630TIP3    H1 1896   2.631   5.875   1.043
  630TIP3    H2 1897   2.482   5.850   1.061
  631TIP3   OH2 1898   5.180   0.740   0.349
  631TIP3    H1 1899   5.132   0.724   0.268
  631TIP3    H2 1900   5.266   0.770   0.322
  632TIP3   OH2 1901   2.774   4.464   2.409
  632TIP3    H1 1902   2.712   4.533   2.388
  632TIP3    H2 1903   2.739   4.386   2.365
  633TIP3   OH2 1904   2.363   1.405   1.666
  633TIP3    H1 1905   2.353   1.312   1.687
  633TIP3    H2 1906   2.315   1.418   1.585
  634TIP3   OH2 1907   2.189   5.808   4.085
  634TIP3    H1 1908   2.103   5.767   4.069
  634TIP3    H2 1909   2.239   5.741   4.131
  635TIP3   OH2 1910   5.246   4.440   0.722
  635TIP3    H1 1911   5.210   4.437   0.811
  635TIP3    H2 1912   5.306   4.514   0.722
  636TIP3   OH2 1913   1.166   1.753   1.623
  636TIP3    H1 1914   1.132   1.832   1.581
  636TIP3    H2 1915   1.088   1.707   1.654
  637TIP3   OH2 1916   2.899   4.670   1.476
  637TIP3    H1 1917   2.846   4.591   1.465
  637TIP3    H2 1918   2.874   4.726   1.403
  638TIP3   OH2 1919   6.081   0.721   4.815
  638TIP3    H1 1920   6.022   0.646   4.820
  638TIP3    H2 1921   6.044   0.776   4.745
  639TIP3   OH2 1922   3.815   1.596   4.295
  639TIP3    H1 1923   3.740   1.655   4.311
  639TIP3    H2 1924   3.775   1.512   4.273
  640TIP3   OH2 1925   4.636   0.455   0.667
  640TIP3    H1 1926   4.691   0.407   0.729
  640TIP3    H2 1927   4.667   0.425   0.581
  641TIP3   OH2 1928   6.287   4.222   2.896
  641TIP3    H1 1929   6.310   4.295   2.838
  641TIP3    H2 1930   6.364   4.212   2.954
  642TIP3   OH2 1931   3.693   3.946   2.903
  642TIP3    H1 1932   3.738   3.934   2.819
  642TIP3    H2 1933   3.719   4.033   2.931
  643TIP3   OH2 1934   6.080   3.265   2.527
  643TIP3    H1 1935   6.038   3.184   2.555
  643TIP3    H2 1936   6.012   3.332   2.536
  644TIP3   OH2 1937   1.626   5.529   2.112
  644TIP3    H1 1938   1.647   5.581   2.034
  644TIP3    H2 1939   1.597   5.593   2.177
  645TIP3   OH2 1940   4.841   1.934   0.447
  645TIP3    H1 1941   4.829   1.843   0.476
  645TIP3    H2 1942   4.754   1.964   0.423
  646TIP3   OH2 1943   0.127   2.509   0.600
  646TIP3    H1 1944   0.135   2.593   0.554
  646TIP3    H2 1945   0.083   2.451   0.539
  647TIP3   OH2 1946   4.682   1.767   4.394
  647TIP3    H1 1947   4.620   1.694   4.398
  647TIP3    H2 1948   4.697   1.791   4.486
  648TIP3   OH2 1949   3.375   5.039   0.991
  648TIP3    H1 1950   3.444   4.979   0.965
  648TIP3    H2 1951   3.334   5.066   0.909
  649TIP3   OH2 1952   5.693   5.647   4.538
  649TIP3    H1 1953   5.693   5.713   4.607
  649TIP3    H2 1954   5.772   5.665   4.487
  650TIP3   OH2 1955   6.375   3.631   3.575
  650TIP3    H1 1956   6.356   3.602   3.664
  650TIP3    H2 1957   6.327   3.570   3.519
  651TIP3   OH2 1958   3.175   0.416   0.223
  651TIP3    H1 1959   3.085   0.428   0.254
  651TIP3    H2 1960   3.177   0.326   0.190
  652TIP3   OH2 1961   0.344   1.073   4.378
  652TIP3    H1 1962   0.278   1.142   4.377
  652TIP3    H2 1963   0.422   1.116   4.414
  653TIP3   OH2 1964   4.827   2.860   3.438
  653TIP3    H1 1965   4.816   2.952   3.414
  653TIP3    H2 1966   4.897   2.829   3.381
  654TIP3   OH2 1967   2.771   2.787   0.951
  654TIP3    H1 1968   2.680   2.778   0.923
  654TIP3    H2 1969   2.765   2.837   1.033
  655TIP3   OH2 1970   4.059   1.861   1.563
  655TIP3    H1 1971   4.086   1.842   1.652
  655TIP3    H2 1972   4.137   1.897   1.521
  656TIP3   OH2 1973   3.847   1.378   0.215
  656TIP3    H1 1974   3.756   1.401   0.232
  656TIP3    H2 1975   3.845   1.285   0.191
  657TIP3   OH2 1976   2.777   5.899   1.703
  657TIP3    H1 1977   2.711   5.876   1.769
  657TIP3    H2 1978   2.753   5.988   1.676
  658TIP3   OH2 1979   5.376   2.938   0.735
  658TIP3    H1 1980   5.378   2.881   0.812
  658TIP3    H2 1981   5.296   2.990   0.746
  659TIP3   OH2 1982   4.250   5.824   1.092
  659TIP3    H1 1983   4.158   5.845   1.075
  659TIP3    H2 1984   4.253   5.729   1.094
  660TIP3   OH2 1985   1.612   0.121   0.451
  660TIP3    H1 1986   1.525   0.096   0.482
  660TIP3    H2 1987   1.599   0.146   0.359
  661TIP3   OH2 1988   0.542   4.692   3.156
  661TIP3    H1 1989   0.465   4.734   3.119
  661TIP3    H2 1990   0.515   4.668   3.245
  662TIP3   OH2 1991   0.396   5.891   2.914
  662TIP3    H1 1992   0.417   5.800   2.893
  662TIP3    H2 1993   0.408   5.897   3.009
  663TIP3   OH2 1994   2.667   4.939   4.054
  663TIP3    H1 1995   2.667   4.973   4.144
  663TIP3    H2 1996   2.746   4.886   4.049
  664TIP3   OH2 1997   5.015   0.991   3.839
  664TIP3    H1 1998   5.007   0.927   3.768
  664TIP3    H2 1999   5.107   0.984   3.866
  665TIP3   OH2 2000   4.455   1.745   1.996
  665TIP3    H1 2001   4.410   1.692   1.931
  665TIP3    H2 2002   4.505   1.809   1.945
  666TIP3   OH2 2003   5.015   5.402   2.702
  666TIP3    H1 2004   4.938   5.425   2.649
  666TIP3    H2 2005   5.071   5.479   2.698
  667TIP3   OH2 2006   2.536   1.588   1.778
  667TIP3    H1 2007   2.552   1.620   1.689
  667TIP3    H2 2008   2.512   1.497   1.767
  668TIP3   OH2 2009   2.172   4.176   1.755
  668TIP3    H1 2010   2.086   4.144   1.781
  668TIP3    H2 2011   2.189   4.249   1.814
  669TIP3   OH2 2012   0.365   3.156   0.965
  669TIP3    H1 2013   0.391   3.079   0.915
  669TIP3    H2 2014   0.271   3.145   0.979
  670TIP3   OH2 2015   3.977   2.870   0.731
  670TIP3    H1 2016   3.987   2.956   0.691
  670TIP3    H2 2017   3.886   2.845   0.712
  671TIP3   OH2 2018   2.338   5.163   0.515
  671TIP3    H1 2019   2.318   5.159   0.421
  671TIP3    H2 2020   2.395   5.240   0.524
  672TIP3   OH2 2021   1.701   5.046   3.587
  672TIP3    H1 2022   1.735   5.084   3.506
  672TIP3    H2 2023   1.778   5.030   3.641
  673TIP3   OH2 2024   4.109   4.871   3.940
  673TIP3    H1 2025   4.064   4.923   4.007
  673TIP3    H2 2026   4.060   4.887   3.859
  674TIP3   OH2 2027   5.763   3.152   3.312
  674TIP3    H1 2028   5.669   3.166   3.303
  674TIP3    H2 2029   5.785   3.088   3.244
  675TIP3   OH2 2030   5.631   1.927   2.152
  675TIP3    H1 2031   5.559   1.912   2.214
  675TIP3    H2 2032   5.590   1.970   2.077
  676TIP3   OH2 2033   4.265  -0.022   3.085
  676TIP3    H1 2034   4.210   0.049   3.119
  676TIP3    H2 2035   4.354   0.002   3.111
  677TIP3   OH2 2036   2.843   0.056   2.837
  677TIP3    H1 2037   2.749   0.066   2.829
  677TIP3    H2 2038   2.876   0.146   2.846
  678TIP3   OH2 2039   4.429   5.828   3.945
  678TIP3    H1 2040   4.510   5.866   3.910
  678TIP3    H2 2041   4.393   5.777   3.873
  679TIP3   OH2 2042   5.652   3.239   1.619
  679TIP3    H1 2043   5.666   3.145   1.623
  679TIP3    H2 2044   5.656   3.260   1.526
  680TIP3   OH2 2045   5.432   0.542   1.791
  680TIP3    H1 2046   5.483   0.473   1.747
  680TIP3    H2 2047   5.389   0.497   1.864
  681TIP3   OH2 2048   0.883   3.889   1.310
  681TIP3    H1 2049   0.880   3.808   1.362
  681TIP3    H2 2050   0.901   3.860   1.221
  682TIP3   OH2 2051   3.783   1.220   1.414
  682TIP3    H1 2052   3.790   1.301   1.363
  682TIP3    H2 2053   3.830   1.239   1.496
  683TIP3   OH2 2054   3.612   4.143   1.970
  683TIP3    H1 2055   3.525   4.128   2.007
  683TIP3    H2 2056   3.642   4.056   1.944
  684TIP3   OH2 2057   3.144   5.038   4.118
  684TIP3    H1 2058   3.199   5.077   4.051
  684TIP3    H2 2059   3.109   4.959   4.078
  685TIP3   OH2 2060   4.934   3.250   3.764
  685TIP3    H1 2061   4.866   3.308   3.729
  685TIP3    H2 2062   4.922   3.254   3.859
  686TIP3   OH2 2063   1.549   4.674   2.871
  686TIP3    H1 2064   1.477   4.673   2.933
  686TIP3    H2 2065   1.514   4.718   2.793
  687TIP3   OH2 2066   2.421   2.221   3.113
  687TIP3    H1 2067   2.435   2.202   3.020
  687TIP3    H2 2068   2.491   2.173   3.158
  688TIP3   OH2 2069   1.213   1.992   4.594
  688TIP3    H1 2070   1.217   1.944   4.512
  688TIP3    H2 2071   1.129   2.038   4.590
  689TIP3   OH2 2072   0.520   1.670   1.308
  689TIP3    H1 2073   0.435   1.705   1.335
  689TIP3    H2 2074   0.582   1.709   1.370
  690TIP3   OH2 2075   6.034   1.157   1.391
  690TIP3    H1 2076   5.990   1.100   1.453
  690TIP3    H2 2077   6.062   1.099   1.320
  691TIP3   OH2 2078   4.594   1.893   3.702
  691TIP3    H1 2079   4.531   1.953   3.663
  691TIP3    H2 2080   4.679   1.934   3.688
  692TIP3   OH2 2081   4.613   0.492   3.475
  692TIP3    H1 2082   4.644   0.509   3.387
  692TIP3    H2 2083   4.685   0.519   3.532
  693TIP3   OH2 2084   1.759   4.272   0.095
  693TIP3    H1 2085   1.807   4.203   0.141
  693TIP3    H2 2086   1.809   4.351   0.114
  694TIP3   OH2 2087   4.795   2.114   4.408
  694TIP3    H1 2088   4.786   2.048   4.340
  694TIP3    H2 2089   4.735   2.184   4.382
  695TIP3   OH2 2090   3.104   3.434   2.072
  695TIP3    H1 2091   3.055   3.435   1.990
  695TIP3    H2 2092   3.120   3.341   2.089
  696TIP3   OH2 2093   6.305   4.019   0.805
  696TIP3    H1 2094   6.222   3.974   0.787
  696TIP3    H2 2095   6.343   4.035   0.718
  697TIP3   OH2 2096   2.969   4.583   3.286
  697TIP3    H1 2097   2.960   4.625   3.371
  697TIP3    H2 2098   3.024   4.642   3.235
  698TIP3   OH2 2099   6.157   5.857   2.728
  698TIP3    H1 2100   6.137   5.807   2.807
  698TIP3    H2 2101   6.189   5.791   2.666
  699TIP3   OH2 2102   5.465   3.910   3.393
  699TIP3    H1 2103   5.555   3.878   3.399
  699TIP3    H2 2104   5.474   3.999   3.357
  700TIP3   OH2 2105   5.807   5.864   1.681
  700TIP3    H1 2106   5.897   5.883   1.657
  700TIP3    H2 2107   5.775   5.944   1.722
  701TIP3   OH2 2108   2.423   4.173   1.264
  701TIP3    H1 2109   2.436   4.179   1.359
  701TIP3    H2 2110   2.332   4.145   1.254
  702TIP3   OH2 2111   3.767   5.357   3.706
  702TIP3    H1 2112   3.733   5.280   3.750
  702TIP3    H2 2113   3.862   5.345   3.705
  703TIP3   OH2 2114   0.612   5.578   3.561
  703TIP3    H1 2115   0.641   5.499   3.606
  703TIP3    H2 2116   0.661   5.578   3.479
  704TIP3   OH2 2117   4.527   1.653   0.275
  704TIP3    H1 2118   4.433   1.671   0.274
  704TIP3    H2 2119   4.537   1.582   0.339
  705TIP3   OH2 2120   5.201   2.564   4.906
  705TIP3    H1 2121   5.255   2.490   4.935
  705TIP3    H2 2122   5.112   2.538   4.926
  706TIP3   OH2 2123   2.817   3.277   1.662
  706TIP3    H1 2124   2.834   3.225   1.583
  706TIP3    H2 2125   2.887   3.253   1.723
  707TIP3   OH2 2126   5.297   1.684   0.766
  707TIP3    H1 2127   5.215   1.725   0.738
  707TIP3    H2 2128   5.269   1.619   0.831
  708TIP3   OH2 2129   4.879   3.661   1.509
  708TIP3    H1 2130   4.813   3.667   1.578
  708TIP3    H2 2131   4.929   3.742   1.516
  709TIP3   OH2 2132   6.073   0.735   3.653
  709TIP3    H1 2133   6.054   0.817   3.697
  709TIP3    H2 2134   6.165   0.743   3.625
  710TIP3   OH2 2135   2.109   1.428   0.659
  710TIP3    H1 2136   2.198   1.461   0.645
  710TIP3    H2 2137   2.055   1.507   0.666
  711TIP3   OH2 2138   1.995   4.266   4.931
  711TIP3    H1 2139   2.065   4.200   4.935
  711TIP3    H2 2140   1.999   4.310   5.016
  712TIP3   OH2 2141   0.656   5.289   1.789
  712TIP3    H1 2142   0.667   5.201   1.754
  712TIP3    H2 2143   0.687   5.347   1.720
  713TIP3   OH2 2144   1.590   4.912   4.471
  713TIP3    H1 2145   1.609   4.875   4.385
  713TIP3    H2 2146   1.657   4.978   4.485
  714TIP3   OH2 2147   1.177   4.033   3.007
  714TIP3    H1 2148   1.231   4.103   3.043
  714TIP3    H2 2149   1.151   3.981   3.083
  715TIP3   OH2 2150   1.762   0.272   3.061
  715TIP3    H1 2151   1.762   0.212   2.987
  715TIP3    H2 2152   1.772   0.216   3.138
  716TIP3   OH2 2153   4.225   0.323   3.364
  716TIP3    H1 2154   4.196   0.282   3.446
  716TIP3    H2 2155   4.203   0.415   3.375
  717TIP3   OH2 2156   4.688   4.642   1.606
  717TIP3    H1 2157   4.774   4.638   1.566
  717TIP3    H2 2158   4.634   4.689   1.542
  718TIP3   OH2 2159   4.694   3.664   0.030
  718TIP3    H1 2160   4.690   3.749   0.075
  718TIP3    H2 2161   4.649   3.678  -0.053
  719TIP3   OH2 2162   0.262   1.126   5.012
  719TIP3    H1 2163   0.210   1.045   5.009
  719TIP3    H2 2164   0.226   1.175   5.086
  720TIP3   OH2 2165   4.969   4.650   3.119
  720TIP3    H1 2166   4.892   4.594   3.110
  720TIP3    H2 2167   5.002   4.630   3.206
  721TIP3   OH2 2168   1.719   5.748   3.607
  721TIP3    H1 2169   1.813   5.731   3.617
  721TIP3    H2 2170   1.677   5.683   3.663
  722TIP3   OH2 2171   1.988   5.402   1.576
  722TIP3    H1 2172   2.065   5.459   1.577
  722TIP3    H2 2173   1.915   5.459   1.554
  723TIP3   OH2 2174   4.443   3.916   1.178
  723TIP3    H1 2175   4.510   3.982   1.160
  723TIP3    H2 2176   4.483   3.858   1.243
  724TIP3   OH2 2177   4.643   2.737   5.022
  724TIP3    H1 2178   4.567   2.691   4.985
  724TIP3    H2 2179   4.606   2.800   5.082
  725TIP3   OH2 2180   4.948   4.198   4.936
  725TIP3    H1 2181   4.931   4.222   5.027
  725TIP3    H2 2182   5.028   4.145   4.939
  726TIP3   OH2 2183   4.985   1.650   0.659
  726TIP3    H1 2184   4.953   1.593   0.728
  726TIP3    H2 2185   4.931   1.629   0.583
  727TIP3   OH2 2186   3.677   4.144   3.221
  727TIP3    H1 2187   3.628   4.131   3.302
  727TIP3    H2 2188   3.689   4.239   3.215
  728TIP3   OH2 2189   6.274   5.939   3.472
  728TIP3    H1 2190   6.291   6.008   3.535
  728TIP3    H2 2191   6.353   5.936   3.417
  729TIP3   OH2 2192   2.845   2.265   0.784
  729TIP3    H1 2193   2.857   2.356   0.757
  729TIP3    H2 2194   2.809   2.270   0.873
  730TIP3   OH2 2195   4.646   4.382   0.111
  730TIP3    H1 2196   4.698   4.452   0.072
  730TIP3    H2 2197   4.606   4.423   0.188
  731TIP3   OH2 2198   3.482   4.805   3.138
  731TIP3    H1 2199   3.408   4.858   3.108
  731TIP3    H2 2200   3.506   4.843   3.223
  732TIP3   OH2 2201   3.777   3.513   1.816
  732TIP3    H1 2202   3.727   3.567   1.877
  732TIP3    H2 2203   3.720   3.439   1.797
  733TIP3   OH2 2204   5.021   3.174   2.470
  733TIP3    H1 2205   5.033   3.263   2.503
  733TIP3    H2 2206   5.093   3.163   2.408
  734TIP3   OH2 2207   4.224   5.491   4.366
  734TIP3    H1 2208   4.309   5.532   4.347
  734TIP3    H2 2209   4.178   5.555   4.420
  735TIP3   OH2 2210   5.910   2.375   2.974
  735TIP3    H1 2211   5.938   2.289   2.945
  735TIP3    H2 2212   5.832   2.394   2.923
  736TIP3   OH2 2213   2.648   4.719   4.472
  736TIP3    H1 2214   2.586   4.696   4.403
  736TIP3    H2 2215   2.728   4.672   4.449
  737TIP3   OH2 2216   3.783   5.779   4.870
  737TIP3    H1 2217   3.786   5.874   4.863
  737TIP3    H2 2218   3.696   5.755   4.838
  738TIP3   OH2 2219   6.070   1.860   3.732
  738TIP3    H1 2220   5.981   1.863   3.765
  738TIP3    H2 2221   6.062   1.824   3.644
  739TIP3   OH2 2222   4.092   0.368   2.908
  739TIP3    H1 2223   4.096   0.369   2.812
  739TIP3    H2 2224   4.173   0.409   2.937
  740TIP3   OH2 2225   1.809   1.472   4.253
  740TIP3    H1 2226   1.830   1.498   4.343
  740TIP3    H2 2227   1.867   1.399   4.235
  741TIP3   OH2 2228   2.020   2.960   1.700
  741TIP3    H1 2229   2.091   2.939   1.761
  741TIP3    H2 2230   2.065   2.993   1.622
  742TIP3   OH2 2231   3.496   4.675   4.055
  742TIP3    H1 2232   3.529   4.728   4.129
  742TIP3    H2 2233   3.526   4.586   4.074
  743TIP3   OH2 2234   0.744   1.725   1.467
  743TIP3    H1 2235   0.712   1.635   1.467
  743TIP3    H2 2236   0.806   1.729   1.540
  744TIP3   OH2 2237   4.272   0.856   0.917
  744TIP3    H1 2238   4.193   0.906   0.937
  744TIP3    H2 2239   4.302   0.825   1.003
  745TIP3   OH2 2240   6.218   2.337   4.462
  745TIP3    H1 2241   6.225   2.242   4.459
  745TIP3    H2 2242   6.124   2.355   4.459
  746TIP3   OH2 2243   3.074   2.633   4.603
  746TIP3    H1 2244   3.070   2.669   4.692
  746TIP3    H2 2245   3.076   2.711   4.547
  747TIP3   OH2 2246   3.757   1.216   0.856
  747TIP3    H1 2247   3.852   1.232   0.852
  747TIP3    H2 2248   3.738   1.209   0.950
  748TIP3   OH2 2249   5.322   5.951   1.743
  748TIP3    H1 2250   5.277   5.870   1.769
  748TIP3    H2 2251   5.414   5.935   1.763
  749TIP3   OH2 2252   3.052   1.653   1.954
  749TIP3    H1 2253   2.989   1.685   1.889
  749TIP3    H2 2254   3.030   1.561   1.966
  750TIP3   OH2 2255   5.945   0.862   0.529
  750TIP3    H1 2256   5.966   0.950   0.561
  750TIP3    H2 2257   6.022   0.834   0.480
  751TIP3   OH2 2258   2.685   0.032   2.438
  751TIP3    H1 2259   2.682  -0.041   2.499
  751TIP3    H2 2260   2.677   0.110   2.493
  752TIP3   OH2 2261   5.095   2.743   4.667
  752TIP3    H1 2262   5.123   2.660   4.706
  752TIP3    H2 2263   5.173   2.776   4.622
  753TIP3   OH2 2264   4.313   2.628   4.625
  753TIP3    H1 2265   4.352   2.643   4.711
  753TIP3    H2 2266   4.231   2.582   4.644
  754TIP3   OH2 2267   0.906   1.640   1.679
  754TIP3    H1 2268   0.866   1.553   1.678
  754TIP3    H2 2269   0.879   1.677   1.763
  755TIP3   OH2 2270   4.495   1.437   1.866
  755TIP3    H1 2271   4.466   1.347   1.880
  755TIP3    H2 2272   4.551   1.456   1.941
  756TIP3   OH2 2273   1.016   3.963   1.555
  756TIP3    H1 2274   1.077   4.036   1.542
  756TIP3    H2 2275   0.971   3.954   1.471
  757TIP3   OH2 2276   4.897   5.846   3.715
  757TIP3    H1 2277   4.868   5.838   3.624
  757TIP3    H2 2278   4.823   5.884   3.761
  758TIP3   OH2 2279   4.146   5.846   2.355
  758TIP3    H1 2280   4.225   5.833   2.303
  758TIP3    H2 2281   4.075   5.810   2.301
  759TIP3   OH2 2282   1.488   1.592   4.349
  759TIP3    H1 2283   1.440   1.616   4.429
  759TIP3    H2 2284   1.579   1.581   4.378
  760TIP3   OH2 2285   2.164   1.722   1.199
  760TIP3    H1 2286   2.108   1.797   1.175
  760TIP3    H2 2287   2.136   1.698   1.287
  761TIP3   OH2 2288   0.835   3.390   1.274
  761TIP3    H1 2289   0.773   3.383   1.202
  761TIP3    H2 2290   0.842   3.301   1.310
  762TIP3   OH2 2291   2.434   3.131   0.298
  762TIP3    H1 2292   2.383   3.210   0.318
  762TIP3    H2 2293   2.438   3.129   0.202
  763TIP3   OH2 2294   3.672   3.892   4.907
  763TIP3    H1 2295   3.684   3.907   4.814
  763TIP3    H2 2296   3.582   3.918   4.925
  764TIP3   OH2 2297   5.839   5.785   3.048
  764TIP3    H1 2298   5.913   5.791   3.108
  764TIP3    H2 2299   5.784   5.860   3.069
  765TIP3   OH2 2300   0.210   0.621   4.276
  765TIP3    H1 2301   0.198   0.667   4.193
  765TIP3    H2 2302   0.225   0.530   4.252
  766TIP3   OH2 2303   1.172   0.245   2.614
  766TIP3    H1 2304   1.203   0.216   2.528
  766TIP3    H2 2305   1.193   0.338   2.616
  767TIP3   OH2 2306   5.413   1.654   2.252
  767TIP3    H1 2307   5.396   1.697   2.168
  767TIP3    H2 2308   5.367   1.708   2.316
  768TIP3   OH2 2309   0.617   2.059   4.904
  768TIP3    H1 2310   0.632   2.151   4.882
  768TIP3    H2 2311   0.689   2.036   4.962
  769TIP3   OH2 2312   3.320   3.598   3.713
  769TIP3    H1 2313   3.330   3.685   3.673
  769TIP3    H2 2314   3.394   3.548   3.680
  770TIP3   OH2 2315   0.944   5.879   0.506
  770TIP3    H1 2316   0.899   5.942   0.449
  770TIP3    H2 2317   0.944   5.798   0.455
  771TIP3   OH2 2318   0.218   5.853   4.566
  771TIP3    H1 2319   0.281   5.783   4.549
  771TIP3    H2 2320   0.133   5.809   4.565
  772TIP3   OH2 2321   3.305   1.612   3.906
  772TIP3    H1 2322   3.260   1.589   3.826
  772TIP3    H2 2323   3.391   1.643   3.878
  773TIP3   OH2 2324   0.948   1.822   0.653
  773TIP3    H1 2325   1.035   1.825   0.693
  773TIP3    H2 2326   0.888   1.823   0.727
  774TIP3   OH2 2327   6.040   3.613   1.456
  774TIP3    H1 2328   6.006   3.700   1.477
  774TIP3    H2 2329   6.034   3.607   1.361
  775TIP3   OH2 2330   5.925   0.532   1.774
  775TIP3    H1 2331   5.963   0.509   1.859
  775TIP3    H2 2332   5.938   0.626   1.766
  776TIP3   OH2 2333   4.149   0.102   1.751
  776TIP3    H1 2334   4.116   0.129   1.665
  776TIP3    H2 2335   4.082   0.043   1.785
  777TIP3   OH2 2336   1.017   1.696   0.365
  777TIP3    H1 2337   0.969   1.708   0.446
  777TIP3    H2 2338   0.994   1.608   0.335
  778TIP3   OH2 2339   5.191   1.582   3.434
  778TIP3    H1 2340   5.226   1.662   3.394
  778TIP3    H2 2341   5.162   1.610   3.521
  779TIP3   OH2 2342   5.442   3.861   1.054
  779TIP3    H1 2343   5.505   3.910   1.107
  779TIP3    H2 2344   5.394   3.808   1.118
  780TIP3   OH2 2345   0.259   5.749   0.300
  780TIP3    H1 2346   0.310   5.822   0.335
  780TIP3    H2 2347   0.190   5.735   0.364
  781TIP3   OH2 2348   2.801   0.934   1.549
  781TIP3    H1 2349   2.874   0.987   1.580
  781TIP3    H2 2350   2.816   0.925   1.455
  782TIP3   OH2 2351   5.008   2.927   0.240
  782TIP3    H1 2352   5.037   2.840   0.268
  782TIP3    H2 2353   5.057   2.944   0.160
  783TIP3   OH2 2354   3.369   2.297   4.293
  783TIP3    H1 2355   3.324   2.366   4.341
  783TIP3    H2 2356   3.455   2.290   4.334
  784TIP3   OH2 2357   3.906   3.109   0.619
  784TIP3    H1 2358   3.965   3.182   0.601
  784TIP3    H2 2359   3.852   3.139   0.692
  785TIP3   OH2 2360   0.763   2.091   0.592
  785TIP3    H1 2361   0.753   2.185   0.580
  785TIP3    H2 2362   0.813   2.083   0.673
  786TIP3   OH2 2363   6.187   3.544   1.689
  786TIP3    H1 2364   6.142   3.546   1.773
  786TIP3    H2 2365   6.122   3.575   1.626
  787TIP3   OH2 2366   1.154   1.458   2.137
  787TIP3    H1 2367   1.198   1.508   2.068
  787TIP3    H2 2368   1.143   1.370   2.100
  788TIP3   OH2 2369   1.988   2.377   0.808
  788TIP3    H1 2370   2.005   2.291   0.846
  788TIP3    H2 2371   2.075   2.417   0.801
  789TIP3   OH2 2372   0.409   5.610   3.888
  789TIP3    H1 2373   0.390   5.519   3.911
  789TIP3    H2 2374   0.501   5.622   3.914
  790TIP3   OH2 2375   0.918   2.507   1.993
  790TIP3    H1 2376   0.844   2.458   2.030
  790TIP3    H2 2377   0.900   2.598   2.015
  791TIP3   OH2 2378   5.719   4.759   4.260
  791TIP3    H1 2379   5.747   4.803   4.341
  791TIP3    H2 2380   5.794   4.766   4.201
  792TIP3   OH2 2381   5.288   3.084   1.500
  792TIP3    H1 2382   5.225   3.154   1.486
  792TIP3    H2 2383   5.243   3.022   1.558
  793TIP3   OH2 2384   0.981   2.974   1.604
  793TIP3    H1 2385   1.040   3.032   1.651
  793TIP3    H2 2386   0.989   2.890   1.648
  794TIP3   OH2 2387   4.149   1.791   1.166
  794TIP3    H1 2388   4.183   1.879   1.179
  794TIP3    H2 2389   4.185   1.763   1.082
  795TIP3   OH2 2390   5.199   4.848   2.609
  795TIP3    H1 2391   5.147   4.922   2.577
  795TIP3    H2 2392   5.236   4.808   2.530
  796TIP3   OH2 2393   0.334   5.926   2.336
  796TIP3    H1 2394   0.316   5.840   2.297
  796TIP3    H2 2395   0.430   5.931   2.341
  797TIP3   OH2 2396   4.419   2.757   2.522
  797TIP3    H1 2397   4.502   2.708   2.517
  797TIP3    H2 2398   4.439   2.832   2.578
  798TIP3   OH2 2399   1.314  -0.035   4.572
  798TIP3    H1 2400   1.342  -0.008   4.484
  798TIP3    H2 2401   1.391  -0.024   4.627
  799TIP3   OH2 2402   1.106   5.525   2.620
  799TIP3    H1 2403   1.025   5.521   2.671
  799TIP3    H2 2404   1.098   5.606   2.569
  800TIP3   OH2 2405   3.263   4.890   0.248
  800TIP3    H1 2406   3.271   4.871   0.341
  800TIP3    H2 2407   3.324   4.830   0.206
  801TIP3   OH2 2408   4.266   2.821   0.760
  801TIP3    H1 2409   4.172   2.822   0.742
  801TIP3    H2 2410   4.284   2.904   0.803
  802TIP3   OH2 2411   0.285   3.237   2.380
  802TIP3    H1 2412   0.203   3.271   2.417
  802TIP3    H2 2413   0.257   3.185   2.305
  803TIP3   OH2 2414   5.620   5.105   3.634
  803TIP3    H1 2415   5.595   5.021   3.673
  803TIP3    H2 2416   5.716   5.101   3.629
  804TIP3   OH2 2417   5.477   1.541   4.196
  804TIP3    H1 2418   5.504   1.541   4.288
  804TIP3    H2 2419   5.383   1.523   4.198
  805TIP3   OH2 2420   2.993   1.190   1.305
  805TIP3    H1 2421   2.952   1.277   1.302
  805TIP3    H2 2422   3.060   1.199   1.373
  806TIP3   OH2 2423   2.605   4.191   5.064
  806TIP3    H1 2424   2.663   4.252   5.019
  806TIP3    H2 2425   2.646   4.105   5.052
  807TIP3   OH2 2426   0.176   2.333   1.329
  807TIP3    H1 2427   0.090   2.352   1.291
  807TIP3    H2 2428   0.156   2.292   1.414
  808TIP3   OH2 2429   5.260   1.056   2.389
  808TIP3    H1 2430   5.264   1.138   2.338
  808TIP3    H2 2431   5.181   1.013   2.358
  809TIP3   OH2 2432   4.916   0.201   2.018
  809TIP3    H1 2433   4.974   0.260   2.066
  809TIP3    H2 2434   4.930   0.115   2.059
  810TIP3   OH2 2435   0.027   0.619   1.643
  810TIP3    H1 2436   0.102   0.563   1.663
  810TIP3    H2 2437   0.000   0.593   1.555
  811TIP3   OH2 2438   2.168   1.630   0.945
  811TIP3    H1 2439   2.232   1.558   0.940
  811TIP3    H2 2440   2.183   1.668   1.031
  812TIP3   OH2 2441   1.053   3.568   1.968
  812TIP3    H1 2442   1.004   3.602   1.893
  812TIP3    H2 2443   1.032   3.629   2.039
  813TIP3   OH2 2444   2.083   0.462   2.363
  813TIP3    H1 2445   2.049   0.387   2.412
  813TIP3    H2 2446   2.115   0.522   2.430
  814TIP3   OH2 2447   6.005   2.272   3.228
  814TIP3    H1 2448   5.932   2.211   3.238
  814TIP3    H2 2449   5.984   2.321   3.148
  815TIP3   OH2 2450   3.273   1.596   1.478
  815TIP3    H1 2451   3.263   1.546   1.559
  815TIP3    H2 2452   3.365   1.585   1.455
  816TIP3   OH2 2453   5.879   3.193   3.587
  816TIP3    H1 2454   5.972   3.183   3.568
  816TIP3    H2 2455   5.839   3.211   3.501
  817TIP3   OH2 2456   2.873   1.967   1.243
  817TIP3    H1 2457   2.868   1.905   1.316
  817TIP3    H2 2458   2.894   2.051   1.284
  818TIP3   OH2 2459   4.706   4.990   1.411
  818TIP3    H1 2460   4.718   5.014   1.319
  818TIP3    H2 2461   4.768   5.044   1.458
  819TIP3   OH2 2462   0.302   4.629   5.009
  819TIP3    H1 2463   0.337   4.540   5.009
  819TIP3    H2 2464   0.212   4.619   5.040
  820TIP3   OH2 2465   1.398   3.942   0.553
  820TIP3    H1 2466   1.471   3.961   0.493
  820TIP3    H2 2467   1.369   3.854   0.529
  821TIP3   OH2 2468   5.112   5.816   4.597
  821TIP3    H1 2469   5.178   5.881   4.620
  821TIP3    H2 2470   5.029   5.854   4.627
  822TIP3   OH2 2471   4.157   6.065   1.615
  822TIP3    H1 2472   4.073   6.043   1.656
  822TIP3    H2 2473   4.182   5.986   1.567
  823TIP3   OH2 2474   4.023   5.202   4.508
  823TIP3    H1 2475   4.034   5.270   4.574
  823TIP3    H2 2476   4.062   5.124   4.547
  824TIP3   OH2 2477   3.311   0.616   5.036
  824TIP3    H1 2478   3.380   0.576   5.089
  824TIP3    H2 2479   3.230   0.582   5.074
  825TIP3   OH2 2480   5.888   0.279   0.963
  825TIP3    H1 2481   5.941   0.223   1.020
  825TIP3    H2 2482   5.800   0.240   0.966
  826TIP3   OH2 2483   5.436   1.864   3.132
  826TIP3    H1 2484   5.489   1.928   3.085
  826TIP3    H2 2485   5.490   1.785   3.135
  827TIP3   OH2 2486   1.950   1.422   2.183
  827TIP3    H1 2487   1.925   1.458   2.268
  827TIP3    H2 2488   1.911   1.481   2.119
  828TIP3   OH2 2489   4.278   3.715   1.971
  828TIP3    H1 2490   4.260   3.630   1.930
  828TIP3    H2 2491   4.294   3.695   2.063
  829TIP3   OH2 2492   3.686   4.293   1.719
  829TIP3    H1 2493   3.670   4.240   1.798
  829TIP3    H2 2494   3.602   4.334   1.701
  830TIP3   OH2 2495   5.033   3.437   4.478
  830TIP3    H1 2496   5.108   3.496   4.486
  830TIP3    H2 2497   4.997   3.455   4.391
  831TIP3   OH2 2498   0.907   1.563   2.113
  831TIP3    H1 2499   0.997   1.536   2.127
  831TIP3    H2 2500   0.867   1.560   2.200
  832TIP3   OH2 2501   6.140   0.486   3.694
  832TIP3    H1 2502   6.101   0.573   3.690
  832TIP3    H2 2503   6.230   0.502   3.721
  833TIP3   OH2 2504   1.815   5.927   1.815
  833TIP3    H1 2505   1.782   5.990   1.878
  833TIP3    H2 2506   1.763   5.942   1.736
  834TIP3   OH2 2507   0.281   5.243   3.323
  834TIP3    H1 2508   0.227   5.277   3.252
  834TIP3    H2 2509   0.330   5.319   3.355
  835TIP3   OH2 2510   5.816   1.573   3.013
  835TIP3    H1 2511   5.776   1.486   3.021
  835TIP3    H2 2512   5.906   1.555   2.988
  836TIP3   OH2 2513   2.750   2.355   3.245
  836TIP3    H1 2514   2.722   2.395   3.327
  836TIP3    H2 2515   2.718   2.414   3.177
  837TIP3   OH2 2516   0.724   2.789   5.057
  837TIP3    H1 2517   0.728   2.825   4.968
  837TIP3    H2 2518   0.799   2.828   5.102
  838TIP3   OH2 2519   4.373   0.600   3.531
  838TIP3    H1 2520   4.449   0.552   3.500
  838TIP3    H2 2521   4.308   0.590   3.463
  839TIP3   OH2 2522   2.813   4.432   4.585
  839TIP3    H1 2523   2.862   4.504   4.624
  839TIP3    H2 2524   2.872   4.357   4.590
  840TIP3   OH2 2525   2.857   4.107   2.934
  840TIP3    H1 2526   2.790   4.050   2.974
  840TIP3    H2 2527   2.855   4.186   2.987
  841TIP3   OH2 2528   5.704   1.242   1.516
  841TIP3    H1 2529   5.751   1.164   1.544
  841TIP3    H2 2530   5.674   1.221   1.427
  842TIP3   OH2 2531   2.313   5.509   1.714
  842TIP3    H1 2532   2.288   5.470   1.798
  842TIP3    H2 2533   2.314   5.603   1.731
  843TIP3   OH2 2534   2.652   1.599   5.185
  843TIP3    H1 2535   2.713   1.604   5.112
  843TIP3    H2 2536   2.567   1.584   5.145
  844TIP3   OH2 2537   3.623   1.283   1.124
  844TIP3    H1 2538   3.551   1.343   1.106
  844TIP3    H2 2539   3.690   1.336   1.166
  845TIP3   OH2 2540   4.950   3.317   4.027
  845TIP3    H1 2541   5.023   3.267   4.065
  845TIP3    H2 2542   4.992   3.394   3.989
  846TIP3   OH2 2543   5.840   1.594   3.772
  846TIP3    H1 2544   5.780   1.592   3.846
  846TIP3    H2 2545   5.835   1.684   3.740
  847TIP3   OH2 2546   0.150   2.842   2.842
  847TIP3    H1 2547   0.132   2.926   2.885
  847TIP3    H2 2548   0.119   2.854   2.752
  848TIP3   OH2 2549   4.292   3.257   1.519
  848TIP3    H1 2550   4.335   3.257   1.605
  848TIP3    H2 2551   4.363   3.257   1.456
  849TIP3   OH2 2552   4.477   4.430   3.294
  849TIP3    H1 2553   4.444   4.488   3.225
  849TIP3    H2 2554   4.430   4.458   3.373
  850TIP3   OH2 2555   0.131   5.486   0.541
  850TIP3    H1 2556   0.217   5.446   0.551
  850TIP3    H2 2557   0.076   5.415   0.508
  851TIP3   OH2 2558   5.597   0.023   0.841
  851TIP3    H1 2559   5.571   0.085   0.909
  851TIP3    H2 2560   5.615   0.077   0.764
  852TIP3   OH2 2561   5.174   0.391   2.436
  852TIP3    H1 2562   5.269   0.375   2.439
  852TIP3    H2 2563   5.137   0.324   2.493
  853TIP3   OH2 2564   3.925   1.793   1.334
  853TIP3    H1 2565   3.957   1.826   1.418
  853TIP3    H2 2566   4.005   1.777   1.283
  854TIP3   OH2 2567   4.208   4.034   1.742
  854TIP3    H1 2568   4.157   4.031   1.662
  854TIP3    H2 2569   4.235   4.125   1.751
  855TIP3   OH2 2570   0.748   4.643   3.615
  855TIP3    H1 2571   0.761   4.625   3.708
  855TIP3    H2 2572   0.678   4.708   3.612
  856TIP3   OH2 2573   1.182   5.009   3.451
  856TIP3    H1 2574   1.275   4.989   3.464
  856TIP3    H2 2575   1.160   4.966   3.368
  857TIP3   OH2 2576   3.798   5.490   2.494
  857TIP3    H1 2577   3.703   5.480   2.500
  857TIP3    H2 2578   3.829   5.408   2.455
  858TIP3   OH2 2579   4.053   1.329   2.644
  858TIP3    H1 2580   4.083   1.405   2.594
  858TIP3    H2 2581   4.131   1.274   2.654
  859TIP3   OH2 2582   0.812   1.160   1.477
  859TIP3    H1 2583   0.741   1.170   1.414
  859TIP3    H2 2584   0.816   1.066   1.495
  860TIP3   OH2 2585   0.890   1.802   2.441
  860TIP3    H1 2586   0.852   1.720   2.408
  860TIP3    H2 2587   0.981   1.799   2.414
  861TIP3   OH2 2588   0.851   3.168   2.795
  861TIP3    H1 2589   0.773   3.207   2.757
  861TIP3    H2 2590   0.897   3.241   2.837
  862TIP3   OH2 2591   2.713   2.436   0.541
  862TIP3    H1 2592   2.711   2.517   0.490
  862TIP3    H2 2593   2.770   2.456   0.615
  863TIP3   OH2 2594   3.275   5.685   0.327
  863TIP3    H1 2595   3.309   5.744   0.394
  863TIP3    H2 2596   3.229   5.616   0.375
  864TIP3   OH2 2597   3.054   4.541   0.876
  864TIP3    H1 2598   3.049   4.577   0.787
  864TIP3    H2 2599   3.100   4.608   0.927
  865TIP3   OH2 2600   1.106   3.154   4.954
  865TIP3    H1 2601   1.116   3.196   4.868
  865TIP3    H2 2602   1.110   3.226   5.017
  866TIP3   OH2 2603   5.437   2.220   0.324
  866TIP3    H1 2604   5.519   2.252   0.288
  866TIP3    H2 2605   5.399   2.167   0.253
  867TIP3   OH2 2606   5.899   4.839   0.558
  867TIP3    H1 2607   5.825   4.811   0.612
  867TIP3    H2 2608   5.974   4.791   0.594
  868TIP3   OH2 2609   1.096   2.674   4.109
  868TIP3    H1 2610   1.005   2.686   4.083
  868TIP3    H2 2611   1.143   2.658   4.027
  869TIP3   OH2 2612   4.841   4.698   0.549
  869TIP3    H1 2613   4.933   4.674   0.551
  869TIP3    H2 2614   4.839   4.780   0.499
  870TIP3   OH2 2615   0.403   4.042   0.335
  870TIP3    H1 2616   0.386   3.948   0.326
  870TIP3    H2 2617   0.459   4.063   0.260
  871TIP3   OH2 2618   5.268   2.223   1.445
  871TIP3    H1 2619   5.275   2.271   1.528
  871TIP3    H2 2620   5.341   2.162   1.447
  872TIP3   OH2 2621   3.384   3.338   2.494
  872TIP3    H1 2622   3.341   3.305   2.416
  872TIP3    H2 2623   3.381   3.433   2.485
  873TIP3   OH2 2624   3.411   1.100   2.895
  873TIP3    H1 2625   3.374   1.171   2.947
  873TIP3    H2 2626   3.429   1.031   2.959
  874TIP3   OH2 2627   3.030   5.024   2.000
  874TIP3    H1 2628   2.978   4.963   1.947
  874TIP3    H2 2629   2.974   5.100   2.012
  875TIP3   OH2 2630   0.622   5.773   2.575
  875TIP3    H1 2631   0.567   5.754   2.499
  875TIP3    H2 2632   0.572   5.740   2.650
  876TIP3   OH2 2633   2.067   4.059   0.680
  876TIP3    H1 2634   2.070   3.965   0.668
  876TIP3    H2 2635   2.063   4.096   0.592
  877TIP3   OH2 2636   0.075   1.577   0.011
  877TIP3    H1 2637   0.118   1.492   0.028
  877TIP3    H2 2638   0.053   1.610   0.098
  878TIP3   OH2 2639   4.279   4.616   0.432
  878TIP3    H1 2640   4.260   4.640   0.342
  878TIP3    H2 2641   4.332   4.688   0.466
  879TIP3   OH2 2642   1.953   5.064   0.925
  879TIP3    H1 2643   1.986   5.080   0.837
  879TIP3    H2 2644   1.889   4.993   0.914
  880TIP3   OH2 2645   4.480   0.825   3.355
  880TIP3    H1 2646   4.489   0.889   3.425
  880TIP3    H2 2647   4.470   0.741   3.400
  881TIP3   OH2 2648   5.058   3.580   0.988
  881TIP3    H1 2649   5.078   3.498   0.944
  881TIP3    H2 2650   5.111   3.578   1.068
  882TIP3   OH2 2651   4.178   5.664   4.584
  882TIP3    H1 2652   4.138   5.729   4.641
  882TIP3    H2 2653   4.202   5.592   4.643
  883TIP3   OH2 2654   3.396   2.734   2.964
  883TIP3    H1 2655   3.316   2.680   2.967
  883TIP3    H2 2656   3.417   2.739   2.870
  884TIP3   OH2 2657   4.527   3.177   3.586
  884TIP3    H1 2658   4.468   3.128   3.529
  884TIP3    H2 2659   4.543   3.119   3.661
  885TIP3   OH2 2660   0.933   0.197   3.366
  885TIP3    H1 2661   0.996   0.131   3.395
  885TIP3    H2 2662   0.987   0.271   3.337
  886TIP3   OH2 2663   1.573   0.843   1.033
  886TIP3    H1 2664   1.526   0.864   0.952
  886TIP3    H2 2665   1.627   0.768   1.011
  887TIP3   OH2 2666   3.629   3.273   2.369
  887TIP3    H1 2667   3.565   3.290   2.438
  887TIP3    H2 2668   3.623   3.179   2.353
  888TIP3   OH2 2669   0.533   2.744   2.131
  888TIP3    H1 2670   0.553   2.837   2.121
  888TIP3    H2 2671   0.586   2.700   2.064
  889TIP3   OH2 2672   2.665   5.871   4.870
  889TIP3    H1 2673   2.651   5.955   4.826
  889TIP3    H2 2674   2.590   5.817   4.845
  890TIP3   OH2 2675   1.187   0.014   5.198
  890TIP3    H1 2676   1.256  -0.002   5.134
  890TIP3    H2 2677   1.138   0.088   5.162
  891TIP3   OH2 2678   2.080   3.654   4.357
  891TIP3    H1 2679   2.062   3.723   4.420
  891TIP3    H2 2680   2.128   3.588   4.407
  892TIP3   OH2 2681   1.102   0.459   3.642
  892TIP3    H1 2682   1.049   0.524   3.687
  892TIP3    H2 2683   1.192   0.485   3.662
  893TIP3   OH2 2684   3.492   2.098   1.297
  893TIP3    H1 2685   3.526   2.091   1.208
  893TIP3    H2 2686   3.545   2.037   1.348
  894TIP3   OH2 2687   2.269   4.525   2.977
  894TIP3    H1 2688   2.312   4.486   3.053
  894TIP3    H2 2689   2.322   4.496   2.902
  895TIP3   OH2 2690   5.819   4.582   1.677
  895TIP3    H1 2691   5.773   4.665   1.668
  895TIP3    H2 2692   5.753   4.520   1.706
  896TIP3   OH2 2693   4.854   4.193   0.157
  896TIP3    H1 2694   4.781   4.255   0.156
  896TIP3    H2 2695   4.902   4.212   0.077
  897TIP3   OH2 2696   3.249   2.620   1.682
  897TIP3    H1 2697   3.210   2.533   1.691
  897TIP3    H2 2698   3.344   2.604   1.683
  898TIP3   OH2 2699   3.576   3.104   5.006
  898TIP3    H1 2700   3.614   3.185   5.042
  898TIP3    H2 2701   3.503   3.134   4.952
  899TIP3   OH2 2702   0.673   4.307   0.865
  899TIP3    H1 2703   0.728   4.381   0.891
  899TIP3    H2 2704   0.679   4.305   0.769
  900TIP3   OH2 2705   3.043   5.966   1.217
  900TIP3    H1 2706   2.978   5.901   1.191
  900TIP3    H2 2707   2.995   6.026   1.274
  901TIP3   OH2 2708   5.005   4.283   4.381
  901TIP3    H1 2709   4.961   4.307   4.462
  901TIP3    H2 2710   5.056   4.360   4.356
  902TIP3   OH2 2711   3.850   0.948   1.430
  902TIP3    H1 2712   3.832   0.932   1.523
  902TIP3    H2 2713   3.847   1.043   1.421
  903TIP3   OH2 2714   4.797   0.176   0.239
  903TIP3    H1 2715   4.891   0.186   0.226
  903TIP3    H2 2716   4.759   0.194   0.153
  904TIP3   OH2 2717   2.678   2.050   0.729
  904TIP3    H1 2718   2.747   2.114   0.714
  904TIP3    H2 2719   2.666   2.049   0.824
  905TIP3   OH2 2720   1.110   3.535   4.260
  905TIP3    H1 2721   1.174   3.606   4.269
  905TIP3    H2 2722   1.103   3.498   4.348
  906TIP3   OH2 2723   2.584   1.866   2.786
  906TIP3    H1 2724   2.585   1.917   2.705
  906TIP3    H2 2725   2.563   1.777   2.758
  907TIP3   OH2 2726   3.235   2.651   0.137
  907TIP3    H1 2727   3.224   2.565   0.096
  907TIP3    H2 2728   3.146   2.685   0.146
  908TIP3   OH2 2729   1.507   1.330   4.513
  908TIP3    H1 2730   1.600   1.306   4.513
  908TIP3    H2 2731   1.477   1.309   4.601
  909TIP3   OH2 2732   4.130   2.585   2.200
  909TIP3    H1 2733   4.057   2.636   2.166
  909TIP3    H2 2734   4.111   2.574   2.293
  910TIP3   OH2 2735   3.374   0.361   4.816
  910TIP3    H1 2736   3.350   0.356   4.724
  910TIP3    H2 2737   3.295   0.335   4.863
  911TIP3   OH2 2738   1.767   2.871   3.592
  911TIP3    H1 2739   1.839   2.893   3.650
  911TIP3    H2 2740   1.804   2.877   3.504
  912TIP3   OH2 2741   5.505   4.499   3.906
  912TIP3    H1 2742   5.436   4.441   3.936
  912TIP3    H2 2743   5.561   4.444   3.851
  913TIP3   OH2 2744   0.602   2.624   4.097
  913TIP3    H1 2745   0.692   2.650   4.078
  913TIP3    H2 2746   0.549   2.697   4.064
  914TIP3   OH2 2747   3.295   0.404   1.854
  914TIP3    H1 2748   3.379   0.386   1.812
  914TIP3    H2 2749   3.231   0.357   1.801
  915TIP3   OH2 2750   5.608   1.989   4.709
  915TIP3    H1 2751   5.623   1.902   4.744
  915TIP3    H2 2752   5.611   1.978   4.614
  916TIP3   OH2 2753   1.588   2.399   4.887
  916TIP3    H1 2754   1.673   2.405   4.845
  916TIP3    H2 2755   1.590   2.316   4.934
  917TIP3   OH2 2756   5.749   2.622   3.928
  917TIP3    H1 2757   5.727   2.530   3.942
  917TIP3    H2 2758   5.832   2.620   3.880
  918TIP3   OH2 2759   1.938   5.804   4.798
  918TIP3    H1 2760   2.024   5.842   4.818
  918TIP3    H2 2761   1.929   5.814   4.703
  919TIP3   OH2 2762   2.650   2.674   4.436
  919TIP3    H1 2763   2.694   2.637   4.512
  919TIP3    H2 2764   2.558   2.653   4.448
  920TIP3   OH2 2765   5.019   3.151   3.101
  920TIP3    H1 2766   4.984   3.144   3.190
  920TIP3    H2 2767   5.113   3.136   3.111
  921TIP3   OH2 2768   0.115   0.372   3.368
  921TIP3    H1 2769   0.205   0.405   3.373
  921TIP3    H2 2770   0.067   0.440   3.321
  922TIP3   OH2 2771   2.301   2.488   0.435
  922TIP3    H1 2772   2.319   2.582   0.441
  922TIP3    H2 2773   2.211   2.482   0.405
  923TIP3   OH2 2774   2.461   5.942   3.418
  923TIP3    H1 2775   2.432   6.033   3.419
  923TIP3    H2 2776   2.509   5.931   3.501
  924TIP3   OH2 2777   0.939   1.991   3.206
  924TIP3    H1 2778   1.016   2.001   3.151
  924TIP3    H2 2779   0.867   2.022   3.152
  925TIP3   OH2 2780   1.006   1.986   1.908
  925TIP3    H1 2781   0.930   1.928   1.920
  925TIP3    H2 2782   0.993   2.056   1.971
  926TIP3   OH2 2783   5.543   4.736   4.737
  926TIP3    H1 2784   5.590   4.662   4.775
  926TIP3    H2 2785   5.458   4.700   4.713
  927TIP3   OH2 2786   0.362   0.972   0.872
  927TIP3    H1 2787   0.309   0.905   0.829
  927TIP3    H2 2788   0.299   1.041   0.895
  928TIP3   OH2 2789   4.478   5.529   4.099
  928TIP3    H1 2790   4.414   5.518   4.029
  928TIP3    H2 2791   4.445   5.603   4.150
  929TIP3   OH2 2792   5.897   3.354   5.129
  929TIP3    H1 2793   5.985   3.322   5.145
  929TIP3    H2 2794   5.842   3.309   5.193
  930TIP3   OH2 2795   4.916   5.483   0.459
  930TIP3    H1 2796   4.914   5.574   0.431
  930TIP3    H2 2797   4.979   5.441   0.400
  931TIP3   OH2 2798   3.174   4.381   4.430
  931TIP3    H1 2799   3.244   4.423   4.381
  931TIP3    H2 2800   3.208   4.295   4.453
  932TIP3   OH2 2801   1.942   0.647   4.717
  932TIP3    H1 2802   1.883   0.704   4.667
  932TIP3    H2 2803   1.933   0.561   4.676
  933TIP3   OH2 2804   2.896   4.669   0.161
  933TIP3    H1 2805   2.965   4.655   0.225
  933TIP3    H2 2806   2.926   4.744   0.110
  934TIP3   OH2 2807   3.098   1.554   1.231
  934TIP3    H1 2808   3.007   1.550   1.260
  934TIP3    H2 2809   3.147   1.580   1.309
  935TIP3   OH2 2810   3.503   3.660   0.516
  935TIP3    H1 2811   3.592   3.630   0.493
  935TIP3    H2 2812   3.506   3.672   0.611
  936TIP3   OH2 2813   3.057   3.622   2.573
  936TIP3    H1 2814   3.102   3.705   2.563
  936TIP3    H2 2815   3.038   3.593   2.484
  937TIP3   OH2 2816  -0.005   2.101   0.755
  937TIP3    H1 2817   0.067   2.100   0.692
  937TIP3    H2 2818  -0.053   2.181   0.735
  938TIP3   OH2 2819   2.801   5.718   2.884
  938TIP3    H1 2820   2.782   5.626   2.902
  938TIP3    H2 2821   2.878   5.716   2.827
  939TIP3   OH2 2822   1.471   1.433   4.103
  939TIP3    H1 2823   1.462   1.525   4.079
  939TIP3    H2 2824   1.465   1.433   4.199
  940TIP3   OH2 2825   5.572   2.361   2.878
  940TIP3    H1 2826   5.542   2.449   2.857
  940TIP3    H2 2827   5.566   2.313   2.795
  941TIP3   OH2 2828   4.417   5.969   0.293
  941TIP3    H1 2829   4.359   5.913   0.241
  941TIP3    H2 2830   4.470   5.909   0.345
  942TIP3   OH2 2831   3.312   1.921   4.119
  942TIP3    H1 2832   3.218   1.909   4.132
  942TIP3    H2 2833   3.326   2.015   4.130
  943TIP3   OH2 2834   4.256   1.731   4.851
  943TIP3    H1 2835   4.201   1.686   4.915
  943TIP3    H2 2836   4.288   1.660   4.794
  944TIP3   OH2 2837   6.181   3.423   0.186
  944TIP3    H1 2838   6.164   3.331   0.163
  944TIP3    H2 2839   6.211   3.419   0.277
  945TIP3   OH2 2840   3.909   2.347   4.560
  945TIP3    H1 2841   3.868   2.266   4.588
  945TIP3    H2 2842   3.997   2.322   4.532
  946TIP3   OH2 2843   3.509   3.409   1.227
  946TIP3    H1 2844   3.470   3.402   1.140
  946TIP3    H2 2845   3.517   3.504   1.242
  947TIP3   OH2 2846   3.772   0.635   3.786
  947TIP3    H1 2847   3.809   0.656   3.872
  947TIP3    H2 2848   3.848   0.632   3.728
  948TIP3   OH2 2849   4.058   3.443   0.806
  948TIP3    H1 2850   4.149   3.434   0.779
  948TIP3    H2 2851   4.063   3.485   0.892
  949TIP3   OH2 2852   3.715   2.253   0.802
  949TIP3    H1 2853   3.629   2.236   0.765
  949TIP3    H2 2854   3.727   2.348   0.794
  950TIP3   OH2 2855   6.079   5.015   3.154
  950TIP3    H1 2856   6.026   4.998   3.232
  950TIP3    H2 2857   6.157   4.960   3.165
  951TIP3   OH2 2858   4.501   4.834   0.273
  951TIP3    H1 2859   4.409   4.856   0.260
  951TIP3    H2 2860   4.506   4.802   0.363
  952TIP3   OH2 2861   0.242   3.511   3.985
  952TIP3    H1 2862   0.201   3.459   4.054
  952TIP3    H2 2863   0.331   3.525   4.016
  953TIP3   OH2 2864   3.607   4.710   1.795
  953TIP3    H1 2865   3.690   4.728   1.749
  953TIP3    H2 2866   3.591   4.617   1.780
  954TIP3   OH2 2867   3.750   2.118   3.713
  954TIP3    H1 2868   3.835   2.107   3.755
  954TIP3    H2 2869   3.763   2.188   3.649
  955TIP3   OH2 2870   1.550   3.043   1.303
  955TIP3    H1 2871   1.606   3.031   1.380
  955TIP3    H2 2872   1.518   2.956   1.282
  956TIP3   OH2 2873   3.880   3.825   5.099
  956TIP3    H1 2874   3.802   3.850   5.050
  956TIP3    H2 2875   3.940   3.789   5.033
  957TIP3   OH2 2876   4.030   1.196   4.814
  957TIP3    H1 2877   4.018   1.289   4.791
  957TIP3    H2 2878   4.094   1.197   4.885
  958TIP3   OH2 2879   3.422   4.205   5.119
  958TIP3    H1 2880   3.373   4.286   5.111
  958TIP3    H2 2881   3.445   4.200   5.212
  959TIP3   OH2 2882   0.047   4.877   0.291
  959TIP3    H1 2883   0.050   4.784   0.266
  959TIP3    H2 2884   0.088   4.880   0.377
  960TIP3   OH2 2885   0.269   1.831   1.623
  960TIP3    H1 2886   0.346   1.774   1.630
  960TIP3    H2 2887   0.231   1.830   1.710
  961TIP3   OH2 2888   2.059   5.044   3.110
  961TIP3    H1 2889   2.122   5.053   3.039
  961TIP3    H2 2890   2.045   5.134   3.141
  962TIP3   OH2 2891   1.889   0.936   1.316
  962TIP3    H1 2892   1.830   0.861   1.317
  962TIP3    H2 2893   1.946   0.924   1.392
  963TIP3   OH2 2894   0.714   0.045   4.765
  963TIP3    H1 2895   0.649   0.107   4.799
  963TIP3    H2 2896   0.753   0.005   4.842
  964TIP3   OH2 2897   4.231   3.536   4.877
  964TIP3    H1 2898   4.291   3.516   4.949
  964TIP3    H2 2899   4.270   3.493   4.801
  965TIP3   OH2 2900   3.836   4.767   1.603
  965TIP3    H1 2901   3.919   4.733   1.569
  965TIP3    H2 2902   3.786   4.788   1.524
  966TIP3   OH2 2903   3.997   3.073   5.141
  966TIP3    H1 2904   4.026   3.112   5.059
  966TIP3    H2 2905   3.939   3.002   5.115
  967TIP3   OH2 2906   1.972   3.884   4.993
  967TIP3    H1 2907   1.897   3.927   5.035
  967TIP3    H2 2908   1.990   3.807   5.048
  968TIP3   OH2 2909   5.029   2.453   3.483
  968TIP3    H1 2910   5.104   2.398   3.465
  968TIP3    H2 2911   5.033   2.521   3.415
  969TIP3   OH2 2912   5.567   1.211   4.114
  969TIP3    H1 2913   5.623   1.138   4.087
  969TIP3    H2 2914   5.561   1.203   4.209
  970TIP3   OH2 2915   0.582   4.365   4.150
  970TIP3    H1 2916   0.525   4.357   4.073
  970TIP3    H2 2917   0.531   4.416   4.212
  971TIP3   OH2 2918   2.528   0.223   4.297
  971TIP3    H1 2919   2.500   0.312   4.275
  971TIP3    H2 2920   2.453   0.168   4.278
  972TIP3   OH2 2921   2.823   4.800   1.241
  972TIP3    H1 2922   2.837   4.871   1.179
  972TIP3    H2 2923   2.876   4.728   1.208
  973TIP3   OH2 2924   5.896   4.586   0.963
  973TIP3    H1 2925   5.825   4.578   1.026
  973TIP3    H2 2926   5.863   4.543   0.884
  974TIP3   OH2 2927   1.299   3.815   3.714
  974TIP3    H1 2928   1.318   3.865   3.794
  974TIP3    H2 2929   1.367   3.844   3.652
  975TIP3   OH2 2930   4.099   2.639   0.189
  975TIP3    H1 2931   4.098   2.699   0.114
  975TIP3    H2 2932   4.141   2.559   0.156
  976TIP3   OH2 2933   4.777   2.358   0.870
  976TIP3    H1 2934   4.748   2.284   0.818
  976TIP3    H2 2935   4.862   2.381   0.834
  977TIP3   OH2 2936   1.470   5.989   5.024
  977TIP3    H1 2937   1.524   5.927   5.072
  977TIP3    H2 2938   1.486   6.073   5.068
  978TIP3   OH2 2939   5.278   5.303   3.481
  978TIP3    H1 2940   5.224   5.379   3.500
  978TIP3    H2 2941   5.362   5.321   3.525
  979TIP3   OH2 2942   2.081   4.562   0.386
  979TIP3    H1 2943   2.131   4.530   0.461
  979TIP3    H2 2944   2.147   4.598   0.326
  980TIP3   OH2 2945   2.815   1.878   2.460
  980TIP3    H1 2946   2.833   1.862   2.553
  980TIP3    H2 2947   2.838   1.971   2.448
  981TIP3   OH2 2948   0.102   0.603   4.797
  981TIP3    H1 2949   0.103   0.697   4.817
  981TIP3    H2 2950   0.124   0.598   4.704
  982TIP3   OH2 2951   0.671   5.074   1.431
  982TIP3    H1 2952   0.738   5.043   1.370
  982TIP3    H2 2953   0.705   5.158   1.463
  983TIP3   OH2 2954   2.107   0.535   4.936
  983TIP3    H1 2955   2.037   0.472   4.953
  983TIP3    H2 2956   2.073   0.590   4.865
  984TIP3   OH2 2957   6.336   1.487   2.000
  984TIP3    H1 2958   6.246   1.519   1.991
  984TIP3    H2 2959   6.349   1.479   2.094
  985TIP3   OH2 2960   6.111   1.856   1.825
  985TIP3    H1 2961   6.079   1.813   1.746
  985TIP3    H2 2962   6.141   1.942   1.795
  986TIP3   OH2 2963   1.893   3.205   5.206
  986TIP3    H1 2964   1.889   3.289   5.159
  986TIP3    H2 2965   1.975   3.209   5.254
  987TIP3   OH2 2966   4.006   0.018   2.401
  987TIP3    H1 2967   3.998   0.111   2.424
  987TIP3    H2 2968   4.067  -0.018   2.465
  988TIP3   OH2 2969   1.245   3.067   2.875
  988TIP3    H1 2970   1.225   3.059   2.782
  988TIP3    H2 2971   1.161   3.053   2.919
  989TIP3   OH2 2972   5.092   5.675   4.359
  989TIP3    H1 2973   5.184   5.653   4.343
  989TIP3    H2 2974   5.091   5.712   4.447
  990TIP3   OH2 2975   3.302   0.089   1.441
  990TIP3    H1 2976   3.292   0.182   1.419
  990TIP3    H2 2977   3.237   0.044   1.386
  991TIP3   OH2 2978   2.385   4.429   3.205
  991TIP3    H1 2979   2.390   4.334   3.215
  991TIP3    H2 2980   2.323   4.457   3.272
  992TIP3   OH2 2981   1.551   5.920   1.688
  992TIP3    H1 2982   1.580   6.004   1.725
  992TIP3    H2 2983   1.511   5.944   1.604
  993TIP3   OH2 2984   5.269   4.899   1.862
  993TIP3    H1 2985   5.261   4.803   1.866
  993TIP3    H2 2986   5.220   4.924   1.784
  994TIP3   OH2 2987   4.283   2.937   4.878
  994TIP3    H1 2988   4.241   2.878   4.940
  994TIP3    H2 2989   4.335   2.996   4.932
  995TIP3   OH2 2990   5.708   3.870   1.733
  995TIP3    H1 2991   5.669   3.880   1.820
  995TIP3    H2 2992   5.760   3.790   1.739
  996TIP3   OH2 2993   3.293   4.646   4.737
  996TIP3    H1 2994   3.351   4.607   4.803
  996TIP3    H2 2995   3.276   4.734   4.770
  997TIP3   OH2 2996   0.093   5.024   0.066
  997TIP3    H1 2997   0.175   5.004   0.022
  997TIP3    H2 2998   0.102   4.985   0.153
  998TIP3   OH2 2999   4.751   4.585   1.289
  998TIP3    H1 3000   4.803   4.532   1.350
  998TIP3    H2 3001   4.780   4.558   1.202
  999TIP3   OH2 3002   2.305   0.289   5.021
  999TIP3    H1 3003   2.395   0.305   5.047
  999TIP3    H2 3004   2.253   0.349   5.075
 1000TIP3   OH2 3005   1.529   2.349   2.728
 1000TIP3    H1 3006   1.619   2.316   2.735
 1000TIP3    H2 3007   1.498   2.315   2.645
 1001TIP3   OH2 3008   2.605   3.783   1.866
 1001TIP3    H1 3009   2.591   3.860   1.812
 1001TIP3    H2 3010   2.590   3.813   1.956
 1002TIP3   OH2 3011   3.785   5.145   3.996
 1002TIP3    H1 3012   3.740   5.075   3.948
 1002TIP3    H2 3013   3.787   5.114   4.086
 1003TIP3   OH2 3014   5.744   4.971   3.202
 1003TIP3    H1 3015   5.766   4.947   3.112
 1003TIP3    H2 3016   5.703   4.892   3.239
 1004TIP3   OH2 3017   1.053   5.283   0.645
 1004TIP3    H1 3018   1.077   5.361   0.595
 1004TIP3    H2 3019   0.991   5.315   0.711
 1005TIP3   OH2 3020   3.962   3.176   2.928
 1005TIP3    H1 3021   4.003   3.139   3.006
 1005TIP3    H2 3022   3.880   3.213   2.959
 1006TIP3   OH2 3023   3.761   3.651   2.671
 1006TIP3    H1 3024   3.792   3.599   2.597
 1006TIP3    H2 3025   3.830   3.715   2.686
 1007TIP3   OH2 3026   3.994   1.989   4.830
 1007TIP3    H1 3027   4.077   2.002   4.786
 1007TIP3    H2 3028   3.998   2.045   4.907
 1008TIP3   OH2 3029   2.264   2.956   1.988
 1008TIP3    H1 3030   2.260   2.894   1.915
 1008TIP3    H2 3031   2.228   2.908   2.063
 1009TIP3   OH2 3032   3.635   5.540   0.635
 1009TIP3    H1 3033   3.612   5.624   0.676
 1009TIP3    H2 3034   3.700   5.563   0.569
 1010TIP3   OH2 3035   3.542   0.899   1.856
 1010TIP3    H1 3036   3.627   0.900   1.900
 1010TIP3    H2 3037   3.522   0.806   1.845
 1011TIP3   OH2 3038   1.117   3.209   0.742
 1011TIP3    H1 3039   1.206   3.208   0.778
 1011TIP3    H2 3040   1.100   3.118   0.718
 1012TIP3   OH2 3041   1.419   2.741   3.831
 1012TIP3    H1 3042   1.408   2.800   3.757
 1012TIP3    H2 3043   1.461   2.795   3.898
 1013TIP3   OH2 3044   4.945   1.564   5.124
 1013TIP3    H1 3045   4.902   1.479   5.122
 1013TIP3    H2 3046   4.925   1.604   5.039
 1014TIP3   OH2 3047   4.886   3.918   4.766
 1014TIP3    H1 3048   4.875   3.900   4.859
 1014TIP3    H2 3049   4.907   4.012   4.763
 1015TIP3   OH2 3050   6.348   0.317   3.883
 1015TIP3    H1 3051   6.335   0.222   3.886
 1015TIP3    H2 3052   6.418   0.329   3.819
 1016TIP3   OH2 3053   0.743   4.307   0.275
 1016TIP3    H1 3054   0.827   4.345   0.302
 1016TIP3    H2 3055   0.700   4.282   0.356
 1017TIP3   OH2 3056   5.856   1.028   1.613
 1017TIP3    H1 3057   5.842   0.981   1.696
 1017TIP3    H2 3058   5.849   0.960   1.546
 1018TIP3   OH2 3059   5.948   4.848   1.872
 1018TIP3    H1 3060   5.890   4.773   1.887
 1018TIP3    H2 3061   5.903   4.899   1.805
 1019TIP3   OH2 3062   0.875   1.436   1.273
 1019TIP3    H1 3063   0.845   1.470   1.188
 1019TIP3    H2 3064   0.886   1.342   1.259
 1020TIP3   OH2 3065   0.116   4.973   3.156
 1020TIP3    H1 3066   0.110   5.037   3.227
 1020TIP3    H2 3067   0.028   4.937   3.149
 1021TIP3   OH2 3068   6.246   2.757   0.314
 1021TIP3    H1 3069   6.218   2.776   0.224
 1021TIP3    H2 3070   6.285   2.670   0.309
 1022TIP3   OH2 3071   6.224   5.518   3.289
 1022TIP3    H1 3072   6.143   5.491   3.245
 1022TIP3    H2 3073   6.196   5.582   3.354
 1023TIP3   OH2 3074   1.201   1.795   1.946
 1023TIP3    H1 3075   1.194   1.716   1.893
 1023TIP3    H2 3076   1.145   1.859   1.902
 1024TIP3   OH2 3077   2.760   4.949   0.382
 1024TIP3    H1 3078   2.853   4.954   0.404
 1024TIP3    H2 3079   2.724   4.884   0.443
 1025TIP3   OH2 3080   2.477   0.029   5.233
 1025TIP3    H1 3081   2.516   0.112   5.204
 1025TIP3    H2 3082   2.546  -0.036   5.218
 1026TIP3   OH2 3083   4.525   3.042   4.992
 1026TIP3    H1 3084   4.523   3.023   5.086
 1026TIP3    H2 3085   4.612   3.080   4.977
 1027TIP3   OH2 3086   4.221   3.847   3.301
 1027TIP3    H1 3087   4.180   3.823   3.384
 1027TIP3    H2 3088   4.315   3.836   3.316
 1028TIP3   OH2 3089   4.458   2.753   0.575
 1028TIP3    H1 3090   4.408   2.787   0.649
 1028TIP3    H2 3091   4.396   2.754   0.502
 1029TIP3   OH2 3092   0.596   4.053   0.542
 1029TIP3    H1 3093   0.533   4.059   0.471
 1029TIP3    H2 3094   0.543   4.032   0.619
 1030TIP3   OH2 3095   3.363   1.869   4.389
 1030TIP3    H1 3096   3.358   1.930   4.464
 1030TIP3    H2 3097   3.302   1.905   4.325
 1031TIP3   OH2 3098   4.374   1.333   0.063
 1031TIP3    H1 3099   4.302   1.301   0.008
 1031TIP3    H2 3100   4.443   1.267   0.053
 1032TIP3   OH2 3101   5.674   4.229   4.595
 1032TIP3    H1 3102   5.597   4.279   4.623
 1032TIP3    H2 3103   5.641   4.140   4.582
 1033TIP3   OH2 3104   3.542   3.231   0.309
 1033TIP3    H1 3105   3.571   3.162   0.249
 1033TIP3    H2 3106   3.452   3.249   0.282
 1034TIP3   OH2 3107   0.975   0.454   0.533
 1034TIP3    H1 3108   0.935   0.511   0.467
 1034TIP3    H2 3109   0.985   0.370   0.489
 1035TIP3   OH2 3110   2.335   5.023   2.227
 1035TIP3    H1 3111   2.336   4.937   2.185
 1035TIP3    H2 3112   2.412   5.024   2.283
 1036TIP3   OH2 3113   0.694   5.629   2.027
 1036TIP3    H1 3114   0.674   5.556   2.085
 1036TIP3    H2 3115   0.703   5.704   2.085
 1037TIP3   OH2 3116   2.656   0.727   1.651
 1037TIP3    H1 3117   2.691   0.814   1.633
 1037TIP3    H2 3118   2.604   0.705   1.574
 1038TIP3   OH2 3119   2.625   0.454   2.963
 1038TIP3    H1 3120   2.553   0.480   3.019
 1038TIP3    H2 3121   2.600   0.486   2.876
 1039TIP3   OH2 3122   2.711   3.347   4.134
 1039TIP3    H1 3123   2.739   3.354   4.225
 1039TIP3    H2 3124   2.768   3.280   4.097
 1040TIP3   OH2 3125   3.085   5.761   2.212
 1040TIP3    H1 3126   3.143   5.708   2.266
 1040TIP3    H2 3127   3.107   5.737   2.122
 1041TIP3   OH2 3128   6.060   0.008   5.019
 1041TIP3    H1 3129   6.090   0.091   5.057
 1041TIP3    H2 3130   5.976  -0.009   5.061
 1042TIP3   OH2 3131   4.009   1.524   0.000
 1042TIP3    H1 3132   3.964   1.458   0.052
 1042TIP3    H2 3133   3.985   1.607   0.041
 1043TIP3   OH2 3134   2.370   4.806   1.915
 1043TIP3    H1 3135   2.305   4.870   1.886
 1043TIP3    H2 3136   2.416   4.779   1.836
 1044TIP3   OH2 3137   4.867   3.577   4.674
 1044TIP3    H1 3138   4.772   3.593   4.668
 1044TIP3    H2 3139   4.892   3.548   4.586
 1045TIP3   OH2 3140   1.189   5.966   0.259
 1045TIP3    H1 3141   1.267   5.994   0.308
 1045TIP3    H2 3142   1.124   5.947   0.327
 1046TIP3   OH2 3143   1.437   3.824   1.516
 1046TIP3    H1 3144   1.399   3.747   1.558
 1046TIP3    H2 3145   1.403   3.822   1.427
 1047TIP3   OH2 3146   3.105   1.070   2.381
 1047TIP3    H1 3147   3.087   1.130   2.454
 1047TIP3    H2 3148   3.147   1.126   2.315
 1048TIP3   OH2 3149   3.545   4.326   4.657
 1048TIP3    H1 3150   3.539   4.419   4.677
 1048TIP3    H2 3151   3.566   4.285   4.741
 1049TIP3   OH2 3152   4.654   4.260   4.341
 1049TIP3    H1 3153   4.684   4.308   4.417
 1049TIP3    H2 3154   4.711   4.182   4.337
 1050TIP3   OH2 3155   2.299   0.883   4.038
 1050TIP3    H1 3156   2.390   0.857   4.050
 1050TIP3    H2 3157   2.278   0.935   4.115
 1051TIP3   OH2 3158   4.978   1.724   1.314
 1051TIP3    H1 3159   4.948   1.811   1.285
 1051TIP3    H2 3160   4.958   1.722   1.407
 1052TIP3   OH2 3161   1.646   0.588   3.838
 1052TIP3    H1 3162   1.712   0.563   3.773
 1052TIP3    H2 3163   1.563   0.585   3.791
 1053TIP3   OH2 3164   4.571   5.038   3.870
 1053TIP3    H1 3165   4.527   4.959   3.899
 1053TIP3    H2 3166   4.624   5.065   3.946
 1054TIP3   OH2 3167   5.083   4.840   4.732
 1054TIP3    H1 3168   5.141   4.865   4.660
 1054TIP3    H2 3169   5.104   4.901   4.802
 1055TIP3   OH2 3170   6.025   1.512   1.558
 1055TIP3    H1 3171   6.105   1.466   1.532
 1055TIP3    H2 3172   5.957   1.477   1.500
 1056TIP3   OH2 3173   1.441   0.686   0.514
 1056TIP3    H1 3174   1.498   0.628   0.463
 1056TIP3    H2 3175   1.437   0.646   0.601
 1057TIP3   OH2 3176   2.821   2.486   4.580
 1057TIP3    H1 3177   2.809   2.439   4.497
 1057TIP3    H2 3178   2.908   2.526   4.573
 1058TIP3   OH2 3179   2.558   3.729   2.364
 1058TIP3    H1 3180   2.481   3.676   2.343
 1058TIP3    H2 3181   2.572   3.716   2.458
 1059TIP3   OH2 3182   3.871   2.190   2.417
 1059TIP3    H1 3183   3.870   2.176   2.512
 1059TIP3    H2 3184   3.788   2.233   2.399
 1060TIP3   OH2 3185   5.807   2.530   1.195
 1060TIP3    H1 3186   5.874   2.567   1.137
 1060TIP3    H2 3187   5.849   2.453   1.233
 1061TIP3   OH2 3188   4.822   2.391   5.067
 1061TIP3    H1 3189   4.872   2.463   5.028
 1061TIP3    H2 3190   4.775   2.352   4.993
 1062TIP3   OH2 3191   0.370   1.131   3.544
 1062TIP3    H1 3192   0.321   1.179   3.611
 1062TIP3    H2 3193   0.428   1.073   3.593
 1063TIP3   OH2 3194   4.199   2.950   3.057
 1063TIP3    H1 3195   4.203   3.029   3.112
 1063TIP3    H2 3196   4.284   2.908   3.070
 1064TIP3   OH2 3197   0.549   3.803   0.093
 1064TIP3    H1 3198   0.596   3.878   0.131
 1064TIP3    H2 3199   0.474   3.790   0.151
 1065TIP3   OH2 3200   3.226   3.845   2.727
 1065TIP3    H1 3201   3.289   3.774   2.730
 1065TIP3    H2 3202   3.222   3.870   2.634
 1066TIP3   OH2 3203   4.891   2.395   4.131
 1066TIP3    H1 3204   4.863   2.473   4.180
 1066TIP3    H2 3205   4.913   2.429   4.044
 1067TIP3   OH2 3206   3.712   0.581   0.887
 1067TIP3    H1 3207   3.628   0.545   0.859
 1067TIP3    H2 3208   3.754   0.610   0.807
 1068TIP3   OH2 3209   4.518   3.330   0.940
 1068TIP3    H1 3210   4.494   3.346   0.849
 1068TIP3    H2 3211   4.445   3.365   0.991
 1069TIP3   OH2 3212   3.374   4.912   1.422
 1069TIP3    H1 3213   3.327   4.887   1.501
 1069TIP3    H2 3214   3.381   4.832   1.371
 1070TIP3   OH2 3215   5.226   1.486   2.755
 1070TIP3    H1 3216   5.297   1.544   2.727
 1070TIP3    H2 3217   5.183   1.460   2.674
 1071TIP3   OH2 3218   1.071   0.059   2.994
 1071TIP3    H1 3219   1.105   0.015   2.916
 1071TIP3    H2 3220   1.141   0.119   3.020
 1072TIP3   OH2 3221   2.019   4.634   2.529
 1072TIP3    H1 3222   1.947   4.669   2.477
 1072TIP3    H2 3223   2.017   4.539   2.512
 1073TIP3   OH2 3224   6.318   5.302   2.930
 1073TIP3    H1 3225   6.228   5.272   2.933
 1073TIP3    H2 3226   6.324   5.352   2.849
 1074TIP3   OH2 3227   5.888   3.319   2.839
 1074TIP3    H1 3228   5.899   3.249   2.774
 1074TIP3    H2 3229   5.796   3.314   2.863
 1075TIP3   OH2 3230   2.819   2.816   2.932
 1075TIP3    H1 3231   2.845   2.729   2.902
 1075TIP3    H2 3232   2.870   2.876   2.879
 1076TIP3   OH2 3233   4.047   4.378   3.610
 1076TIP3    H1 3234   4.112   4.352   3.675
 1076TIP3    H2 3235   4.044   4.305   3.549
 1077TIP3   OH2 3236   3.848   3.244   0.129
 1077TIP3    H1 3237   3.782   3.281   0.070
 1077TIP3    H2 3238   3.925   3.300   0.116
 1078TIP3   OH2 3239   4.199   1.089   4.061
 1078TIP3    H1 3240   4.191   1.075   4.156
 1078TIP3    H2 3241   4.266   1.157   4.053
 1079TIP3   OH2 3242   4.847   0.242   1.760
 1079TIP3    H1 3243   4.886   0.229   1.846
 1079TIP3    H2 3244   4.922   0.243   1.700
 1080TIP3   OH2 3245   0.667   0.299   2.169
 1080TIP3    H1 3246   0.644   0.241   2.096
 1080TIP3    H2 3247   0.751   0.337   2.144
 1081TIP3   OH2 3248   5.673   3.063   2.540
 1081TIP3    H1 3249   5.658   3.041   2.448
 1081TIP3    H2 3250   5.717   2.986   2.577
 1082TIP3   OH2 3251   5.871   2.740   2.423
 1082TIP3    H1 3252   5.879   2.664   2.480
 1082TIP3    H2 3253   5.802   2.717   2.361
 1083TIP3   OH2 3254   5.403   0.528   4.895
 1083TIP3    H1 3255   5.496   0.543   4.910
 1083TIP3    H2 3256   5.401   0.455   4.833
 1084TIP3   OH2 3257   5.842   1.316   3.707
 1084TIP3    H1 3258   5.840   1.410   3.689
 1084TIP3    H2 3259   5.772   1.302   3.771
 1085TIP3   OH2 3260   3.870   0.758   2.607
 1085TIP3    H1 3261   3.836   0.826   2.550
 1085TIP3    H2 3262   3.807   0.752   2.679
 1086TIP3   OH2 3263   3.202   0.656   4.790
 1086TIP3    H1 3264   3.131   0.719   4.805
 1086TIP3    H2 3265   3.226   0.625   4.877
 1087TIP3   OH2 3266   3.322   4.005   3.953
 1087TIP3    H1 3267   3.370   3.930   3.988
 1087TIP3    H2 3268   3.320   4.067   4.026
 1088TIP3   OH2 3269   3.548   1.809   4.656
 1088TIP3    H1 3270   3.455   1.785   4.657
 1088TIP3    H2 3271   3.593   1.730   4.626
 1089TIP3   OH2 3272   4.478   0.869   2.908
 1089TIP3    H1 3273   4.465   0.891   2.816
 1089TIP3    H2 3274   4.515   0.948   2.947
 1090TIP3   OH2 3275   6.026   0.159   1.185
 1090TIP3    H1 3276   6.088   0.088   1.165
 1090TIP3    H2 3277   6.022   0.159   1.281
 1091TIP3   OH2 3278   4.797   0.834   4.015
 1091TIP3    H1 3279   4.867   0.899   4.022
 1091TIP3    H2 3280   4.776   0.811   4.105
 1092TIP3   OH2 3281   6.362   1.235   3.140
 1092TIP3    H1 3282   6.281   1.187   3.157
 1092TIP3    H2 3283   6.393   1.262   3.227
 1093TIP3   OH2 3284   5.487   1.470   3.039
 1093TIP3    H1 3285   5.518   1.493   3.127
 1093TIP3    H2 3286   5.397   1.439   3.053
 1094TIP3   OH2 3287   4.287   2.180   4.231
 1094TIP3    H1 3288   4.335   2.102   4.261
 1094TIP3    H2 3289   4.295   2.242   4.304
 1095TIP3   OH2 3290   3.068   0.053   3.347
 1095TIP3    H1 3291   3.053  -0.039   3.324
 1095TIP3    H2 3292   3.102   0.050   3.436
 1096TIP3   OH2 3293   0.027   1.676   1.478
 1096TIP3    H1 3294   0.115   1.643   1.460
 1096TIP3    H2 3295   0.010   1.649   1.568
 1097TIP3   OH2 3296   4.187   2.353   0.550
 1097TIP3    H1 3297   4.261   2.406   0.579
 1097TIP3    H2 3298   4.131   2.414   0.502
 1098TIP3   OH2 3299   6.218   5.668   4.350
 1098TIP3    H1 3300   6.291   5.619   4.313
 1098TIP3    H2 3301   6.145   5.651   4.291
 1099TIP3   OH2 3302   1.244   1.076   4.355
 1099TIP3    H1 3303   1.150   1.067   4.337
 1099TIP3    H2 3304   1.286   1.014   4.296
 1100TIP3   OH2 3305   1.868   3.213   1.701
 1100TIP3    H1 3306   1.919   3.146   1.747
 1100TIP3    H2 3307   1.777   3.193   1.723
 1101TIP3   OH2 3308   3.329   5.234   2.798
 1101TIP3    H1 3309   3.309   5.304   2.736
 1101TIP3    H2 3310   3.376   5.168   2.746
 1102TIP3   OH2 3311   1.819   5.060   1.178
 1102TIP3    H1 3312   1.887   5.073   1.111
 1102TIP3    H2 3313   1.860   5.090   1.259
 1103TIP3   OH2 3314   3.474   4.239   1.398
 1103TIP3    H1 3315   3.437   4.172   1.339
 1103TIP3    H2 3316   3.444   4.213   1.485
 1104TIP3   OH2 3317   2.024   2.344   2.385
 1104TIP3    H1 3318   1.948   2.287   2.384
 1104TIP3    H2 3319   2.065   2.332   2.299
 1105TIP3   OH2 3320   3.838   5.244   5.192
 1105TIP3    H1 3321   3.878   5.210   5.111
 1105TIP3    H2 3322   3.755   5.197   5.199
 1106TIP3   OH2 3323   1.658   2.391   3.284
 1106TIP3    H1 3324   1.607   2.329   3.231
 1106TIP3    H2 3325   1.731   2.417   3.228
 1107TIP3   OH2 3326   5.546   0.338   1.631
 1107TIP3    H1 3327   5.540   0.285   1.710
 1107TIP3    H2 3328   5.499   0.287   1.565
 1108TIP3   OH2 3329   2.087   4.331   2.526
 1108TIP3    H1 3330   2.009   4.278   2.511
 1108TIP3    H2 3331   2.137   4.324   2.445
 1109TIP3   OH2 3332   5.412   0.343   3.863
 1109TIP3    H1 3333   5.358   0.320   3.787
 1109TIP3    H2 3334   5.425   0.260   3.909
 1110TIP3   OH2 3335   2.698   1.543   2.176
 1110TIP3    H1 3336   2.719   1.470   2.117
 1110TIP3    H2 3337   2.778   1.595   2.178
 1111TIP3   OH2 3338   3.058   2.886   0.109
 1111TIP3    H1 3339   2.991   2.935   0.062
 1111TIP3    H2 3340   3.141   2.922   0.079
 1112TIP3   OH2 3341   5.284   5.457   3.129
 1112TIP3    H1 3342   5.268   5.503   3.211
 1112TIP3    H2 3343   5.215   5.489   3.070
 1113TIP3   OH2 3344   1.378   4.246   0.405
 1113TIP3    H1 3345   1.341   4.328   0.438
 1113TIP3    H2 3346   1.454   4.230   0.461
 1114TIP3   OH2 3347   5.914   4.087   3.817
 1114TIP3    H1 3348   5.946   4.076   3.728
 1114TIP3    H2 3349   5.904   3.997   3.850
 1115TIP3   OH2 3350   5.841   5.177   2.528
 1115TIP3    H1 3351   5.908   5.177   2.460
 1115TIP3    H2 3352   5.874   5.239   2.593
 1116TIP3   OH2 3353   2.861   1.317   3.244
 1116TIP3    H1 3354   2.944   1.278   3.270
 1116TIP3    H2 3355   2.878   1.356   3.158
 1117TIP3   OH2 3356   6.036   0.873   0.985
 1117TIP3    H1 3357   6.049   0.846   1.076
 1117TIP3    H2 3358   6.114   0.926   0.965
 1118TIP3   OH2 3359   4.887   0.811   0.569
 1118TIP3    H1 3360   4.962   0.861   0.538
 1118TIP3    H2 3361   4.819   0.876   0.584
 1119TIP3   OH2 3362   2.435   1.523   4.257
 1119TIP3    H1 3363   2.518   1.477   4.258
 1119TIP3    H2 3364   2.423   1.551   4.166
 1120TIP3   OH2 3365   1.221   1.451   3.898
 1120TIP3    H1 3366   1.160   1.387   3.934
 1120TIP3    H2 3367   1.265   1.488   3.974
 1121TIP3   OH2 3368   3.595   5.396   0.095
 1121TIP3    H1 3369   3.669   5.409   0.154
 1121TIP3    H2 3370   3.569   5.304   0.109
 1122TIP3   OH2 3371   4.059   4.710   0.593
 1122TIP3    H1 3372   4.070   4.649   0.666
 1122TIP3    H2 3373   4.136   4.695   0.537
 1123TIP3   OH2 3374   1.869   0.234   3.850
 1123TIP3    H1 3375   1.782   0.195   3.863
 1123TIP3    H2 3376   1.908   0.235   3.937
 1124TIP3   OH2 3377   2.462   4.131   1.956
 1124TIP3    H1 3378   2.446   4.048   1.912
 1124TIP3    H2 3379   2.444   4.197   1.888
 1125TIP3   OH2 3380   3.095   0.446   2.972
 1125TIP3    H1 3381   3.153   0.406   3.037
 1125TIP3    H2 3382   3.039   0.506   3.022
 1126TIP3   OH2 3383   2.568   2.842   1.198
 1126TIP3    H1 3384   2.662   2.859   1.211
 1126TIP3    H2 3385   2.556   2.751   1.225
 1127TIP3   OH2 3386   5.186   3.543   2.678
 1127TIP3    H1 3387   5.122   3.606   2.712
 1127TIP3    H2 3388   5.140   3.500   2.605
 1128TIP3   OH2 3389   6.341   0.154   2.794
 1128TIP3    H1 3390   6.261   0.176   2.746
 1128TIP3    H2 3391   6.386   0.238   2.806
 1129TIP3   OH2 3392   2.282   5.152   2.682
 1129TIP3    H1 3393   2.294   5.081   2.619
 1129TIP3    H2 3394   2.289   5.110   2.768
 1130TIP3   OH2 3395   2.692   1.507   4.805
 1130TIP3    H1 3396   2.749   1.548   4.870
 1130TIP3    H2 3397   2.718   1.415   4.804
 1131TIP3   OH2 3398   3.295   2.527   0.409
 1131TIP3    H1 3399   3.326   2.595   0.469
 1131TIP3    H2 3400   3.277   2.574   0.328
 1132TIP3   OH2 3401   4.443   5.639   3.094
 1132TIP3    H1 3402   4.394   5.721   3.088
 1132TIP3    H2 3403   4.377   5.571   3.079
 1133TIP3   OH2 3404   5.767   5.861   2.415
 1133TIP3    H1 3405   5.850   5.909   2.412
 1133TIP3    H2 3406   5.792   5.770   2.433
 1134TIP3   OH2 3407   2.456   3.469   1.053
 1134TIP3    H1 3408   2.438   3.525   0.978
 1134TIP3    H2 3409   2.487   3.387   1.015
 1135TIP3   OH2 3410   3.261   5.067   3.234
 1135TIP3    H1 3411   3.317   5.144   3.247
 1135TIP3    H2 3412   3.172   5.101   3.245
 1136TIP3   OH2 3413   0.118   0.164   3.186
 1136TIP3    H1 3414   0.178   0.203   3.123
 1136TIP3    H2 3415   0.111   0.229   3.256
 1137TIP3   OH2 3416   5.550   2.963   4.537
 1137TIP3    H1 3417   5.527   2.938   4.626
 1137TIP3    H2 3418   5.637   2.925   4.522
 1138TIP3   OH2 3419   2.102   3.510   3.752
 1138TIP3    H1 3420   2.139   3.457   3.822
 1138TIP3    H2 3421   2.172   3.517   3.687
 1139TIP3   OH2 3422   4.182   0.901   3.289
 1139TIP3    H1 3423   4.160   0.811   3.314
 1139TIP3    H2 3424   4.276   0.908   3.305
 1140TIP3   OH2 3425   5.643   5.180   1.508
 1140TIP3    H1 3426   5.616   5.195   1.598
 1140TIP3    H2 3427   5.668   5.087   1.505
 1141TIP3   OH2 3428   6.146   2.615   5.024
 1141TIP3    H1 3429   6.212   2.576   5.081
 1141TIP3    H2 3430   6.078   2.648   5.084
 1142TIP3   OH2 3431   3.725   4.141   2.409
 1142TIP3    H1 3432   3.757   4.220   2.451
 1142TIP3    H2 3433   3.749   4.151   2.317
 1143TIP3   OH2 3434   0.356   0.370   1.984
 1143TIP3    H1 3435   0.449   0.374   1.961
 1143TIP3    H2 3436   0.326   0.286   1.948
 1144TIP3   OH2 3437   5.795   2.132   0.889
 1144TIP3    H1 3438   5.843   2.091   0.817
 1144TIP3    H2 3439   5.723   2.071   0.907
 1145TIP3   OH2 3440   6.269   3.525   2.788
 1145TIP3    H1 3441   6.262   3.615   2.820
 1145TIP3    H2 3442   6.362   3.513   2.768
 1146TIP3   OH2 3443   1.999   3.982   2.731
 1146TIP3    H1 3444   1.908   3.956   2.743
 1146TIP3    H2 3445   1.995   4.077   2.720
 1147TIP3   OH2 3446   5.194   5.383   0.553
 1147TIP3    H1 3447   5.123   5.342   0.602
 1147TIP3    H2 3448   5.192   5.340   0.467
 1148TIP3   OH2 3449   1.471   3.176   4.817
 1148TIP3    H1 3450   1.492   3.132   4.735
 1148TIP3    H2 3451   1.556   3.195   4.857
 1149TIP3   OH2 3452   1.226   1.417   3.024
 1149TIP3    H1 3453   1.282   1.450   3.095
 1149TIP3    H2 3454   1.269   1.336   2.996
 1150TIP3   OH2 3455   1.871   5.225   3.773
 1150TIP3    H1 3456   1.882   5.134   3.746
 1150TIP3    H2 3457   1.947   5.271   3.736
 1151TIP3   OH2 3458   3.559   4.093   3.459
 1151TIP3    H1 3459   3.563   4.172   3.513
 1151TIP3    H2 3460   3.560   4.021   3.521
 1152TIP3   OH2 3461   2.576   5.599   4.045
 1152TIP3    H1 3462   2.501   5.655   4.023
 1152TIP3    H2 3463   2.539   5.529   4.098
 1153TIP3   OH2 3464   2.528   1.199   0.893
 1153TIP3    H1 3465   2.581   1.223   0.969
 1153TIP3    H2 3466   2.493   1.113   0.913
 1154TIP3   OH2 3467   0.520   1.913   4.377
 1154TIP3    H1 3468   0.429   1.899   4.348
 1154TIP3    H2 3469   0.545   1.830   4.418
 1155TIP3   OH2 3470   4.451   5.920   0.886
 1155TIP3    H1 3471   4.376   5.900   0.943
 1155TIP3    H2 3472   4.441   6.012   0.865
 1156TIP3   OH2 3473   5.532   3.294   4.577
 1156TIP3    H1 3474   5.586   3.216   4.563
 1156TIP3    H2 3475   5.589   3.367   4.551
 1157TIP3   OH2 3476   0.151   1.253   3.647
 1157TIP3    H1 3477   0.154   1.257   3.552
 1157TIP3    H2 3478   0.158   1.344   3.675
 1158TIP3   OH2 3479   5.826   4.559   3.838
 1158TIP3    H1 3480   5.752   4.614   3.866
 1158TIP3    H2 3481   5.814   4.478   3.886
 1159TIP3   OH2 3482   3.822   3.464   2.500
 1159TIP3    H1 3483   3.902   3.440   2.453
 1159TIP3    H2 3484   3.756   3.403   2.468
 1160TIP3   OH2 3485   4.346   3.233   2.957
 1160TIP3    H1 3486   4.376   3.272   2.875
 1160TIP3    H2 3487   4.373   3.141   2.952
 1161TIP3   OH2 3488   1.689   5.074   0.443
 1161TIP3    H1 3489   1.679   5.050   0.351
 1161TIP3    H2 3490   1.645   5.159   0.451
 1162TIP3   OH2 3491   1.618   3.746   2.484
 1162TIP3    H1 3492   1.567   3.669   2.510
 1162TIP3    H2 3493   1.593   3.814   2.547
 1163TIP3   OH2 3494   1.740   1.810   4.754
 1163TIP3    H1 3495   1.654   1.827   4.716
 1163TIP3    H2 3496   1.767   1.893   4.793
 1164TIP3   OH2 3497   2.516   1.091   1.593
 1164TIP3    H1 3498   2.448   1.024   1.592
 1164TIP3    H2 3499   2.592   1.048   1.631
 1165TIP3   OH2 3500   2.491   2.303   3.433
 1165TIP3    H1 3501   2.522   2.228   3.382
 1165TIP3    H2 3502   2.564   2.327   3.489
 1166TIP3   OH2 3503   5.717   2.960   1.637
 1166TIP3    H1 3504   5.704   2.866   1.624
 1166TIP3    H2 3505   5.741   2.969   1.729
 1167TIP3   OH2 3506   2.958   1.340   4.419
 1167TIP3    H1 3507   3.032   1.330   4.359
 1167TIP3    H2 3508   2.968   1.429   4.455
 1168TIP3   OH2 3509   2.349   3.790   4.999
 1168TIP3    H1 3510   2.371   3.783   4.906
 1168TIP3    H2 3511   2.423   3.837   5.037
 1169TIP3   OH2 3512   1.272   0.199   0.975
 1169TIP3    H1 3513   1.194   0.251   0.996
 1169TIP3    H2 3514   1.237   0.120   0.935
 1170TIP3   OH2 3515   6.237   4.122   0.092
 1170TIP3    H1 3516   6.212   4.177   0.017
 1170TIP3    H2 3517   6.232   4.033   0.058
 1171TIP3   OH2 3518   5.138   5.368   5.089
 1171TIP3    H1 3519   5.219   5.413   5.116
 1171TIP3    H2 3520   5.152   5.349   4.996
 1172TIP3   OH2 3521   4.224   2.053   1.078
 1172TIP3    H1 3522   4.194   2.046   0.988
 1172TIP3    H2 3523   4.317   2.073   1.072
 1173TIP3   OH2 3524   2.639   3.693   3.374
 1173TIP3    H1 3525   2.703   3.622   3.382
 1173TIP3    H2 3526   2.556   3.648   3.360
 1174TIP3   OH2 3527   0.565   3.323   0.179
 1174TIP3    H1 3528   0.479   3.311   0.221
 1174TIP3    H2 3529   0.596   3.234   0.162
 1175TIP3   OH2 3530   4.143   4.172   3.451
 1175TIP3    H1 3531   4.191   4.191   3.370
 1175TIP3    H2 3532   4.156   4.078   3.465
 1176TIP3   OH2 3533   6.266   5.273   3.692
 1176TIP3    H1 3534   6.341   5.265   3.632
 1176TIP3    H2 3535   6.224   5.187   3.689
 1177TIP3   OH2 3536   4.712   0.571   1.728
 1177TIP3    H1 3537   4.633   0.625   1.732
 1177TIP3    H2 3538   4.701   0.508   1.799
 1178TIP3   OH2 3539   1.037   3.624   3.357
 1178TIP3    H1 3540   1.127   3.658   3.354
 1178TIP3    H2 3541   1.014   3.625   3.450
 1179TIP3   OH2 3542   1.787   3.672   4.496
 1179TIP3    H1 3543   1.881   3.685   4.502
 1179TIP3    H2 3544   1.750   3.734   4.559
 1180TIP3   OH2 3545   5.482   5.439   4.161
 1180TIP3    H1 3546   5.414   5.500   4.131
 1180TIP3    H2 3547   5.464   5.359   4.112
 1181TIP3   OH2 3548   2.611   3.980   3.994
 1181TIP3    H1 3549   2.691   3.933   4.020
 1181TIP3    H2 3550   2.553   3.971   4.069
 1182TIP3   OH2 3551   0.660   5.468   2.258
 1182TIP3    H1 3552   0.682   5.383   2.220
 1182TIP3    H2 3553   0.673   5.456   2.352
 1183TIP3   OH2 3554   2.535   0.110   3.683
 1183TIP3    H1 3555   2.470   0.041   3.669
 1183TIP3    H2 3556   2.594   0.104   3.608
 1184TIP3   OH2 3557   4.909   3.365   3.407
 1184TIP3    H1 3558   4.926   3.440   3.464
 1184TIP3    H2 3559   4.903   3.403   3.319
 1185TIP3   OH2 3560   4.616   4.545   0.332
 1185TIP3    H1 3561   4.620   4.463   0.381
 1185TIP3    H2 3562   4.701   4.585   0.346
 1186TIP3   OH2 3563   1.637   4.177   4.530
 1186TIP3    H1 3564   1.698   4.245   4.559
 1186TIP3    H2 3565   1.602   4.141   4.611
 1187TIP3   OH2 3566   5.757   4.676   1.196
 1187TIP3    H1 3567   5.670   4.652   1.227
 1187TIP3    H2 3568   5.778   4.757   1.241
 1188TIP3   OH2 3569   0.261   5.284   1.795
 1188TIP3    H1 3570   0.229   5.337   1.722
 1188TIP3    H2 3571   0.352   5.265   1.774
 1189TIP3   OH2 3572   1.797   1.147   2.882
 1189TIP3    H1 3573   1.743   1.224   2.869
 1189TIP3    H2 3574   1.832   1.156   2.971
 1190TIP3   OH2 3575   5.817   0.036   5.149
 1190TIP3    H1 3576   5.725   0.030   5.176
 1190TIP3    H2 3577   5.823   0.120   5.102
 1191TIP3   OH2 3578   5.134   2.044   3.625
 1191TIP3    H1 3579   5.132   2.138   3.607
 1191TIP3    H2 3580   5.124   2.003   3.539
 1192TIP3   OH2 3581   2.805   0.972   0.973
 1192TIP3    H1 3582   2.893   0.934   0.976
 1192TIP3    H2 3583   2.780   0.981   1.065
 1193TIP3   OH2 3584   4.738   4.858   2.493
 1193TIP3    H1 3585   4.790   4.851   2.574
 1193TIP3    H2 3586   4.739   4.770   2.457
 1194TIP3   OH2 3587   2.917   1.686   2.244
 1194TIP3    H1 3588   2.986   1.701   2.180
 1194TIP3    H2 3589   2.896   1.773   2.277
 1195TIP3   OH2 3590   6.203   3.069   3.022
 1195TIP3    H1 3591   6.188   3.163   3.007
 1195TIP3    H2 3592   6.291   3.065   3.062
 1196TIP3   OH2 3593   1.085   5.277   3.299
 1196TIP3    H1 3594   1.077   5.182   3.310
 1196TIP3    H2 3595   1.043   5.313   3.377
 1197TIP3   OH2 3596   0.298   2.364   4.906
 1197TIP3    H1 3597   0.343   2.411   4.976
 1197TIP3    H2 3598   0.310   2.271   4.928
 1198TIP3   OH2 3599   5.007   5.997   2.382
 1198TIP3    H1 3600   5.092   6.017   2.344
 1198TIP3    H2 3601   4.951   5.975   2.308
 1199TIP3   OH2 3602   5.403   0.882   1.493
 1199TIP3    H1 3603   5.396   0.808   1.554
 1199TIP3    H2 3604   5.458   0.848   1.422
 1200TIP3   OH2 3605   2.650   5.228   3.356
 1200TIP3    H1 3606   2.562   5.260   3.379
 1200TIP3    H2 3607   2.709   5.298   3.382
 1201TIP3   OH2 3608   5.681   5.886   4.027
 1201TIP3    H1 3609   5.712   5.832   3.954
 1201TIP3    H2 3610   5.603   5.841   4.058
 1202TIP3   OH2 3611   0.175   1.288   0.409
 1202TIP3    H1 3612   0.217   1.368   0.441
 1202TIP3    H2 3613   0.103   1.318   0.354
 1203TIP3   OH2 3614   5.980   2.051   1.995
 1203TIP3    H1 3615   5.896   2.006   2.004
 1203TIP3    H2 3616   6.038   1.984   1.958
 1204TIP3   OH2 3617   4.513   3.973   0.381
 1204TIP3    H1 3618   4.489   4.036   0.312
 1204TIP3    H2 3619   4.513   4.025   0.461
 1205TIP3   OH2 3620   1.332   1.729   4.048
 1205TIP3    H1 3621   1.364   1.777   3.971
 1205TIP3    H2 3622   1.410   1.711   4.100
 1206TIP3   OH2 3623   0.092   1.919   1.172
 1206TIP3    H1 3624   0.016   1.917   1.231
 1206TIP3    H2 3625   0.164   1.885   1.225
 1207TIP3   OH2 3626   2.013   3.762   4.128
 1207TIP3    H1 3627   2.042   3.704   4.199
 1207TIP3    H2 3628   1.997   3.846   4.171
 1208TIP3   OH2 3629   5.091   2.613   3.284
 1208TIP3    H1 3630   5.072   2.702   3.314
 1208TIP3    H2 3631   5.185   2.602   3.301
 1209TIP3   OH2 3632   0.991   4.955   0.772
 1209TIP3    H1 3633   1.082   4.969   0.800
 1209TIP3    H2 3634   0.960   5.043   0.747
 1210TIP3   OH2 3635   1.754   0.974   3.478
 1210TIP3    H1 3636   1.778   1.065   3.466
 1210TIP3    H2 3637   1.793   0.928   3.403
 1211TIP3   OH2 3638   3.754   4.955   2.512
 1211TIP3    H1 3639   3.696   5.021   2.550
 1211TIP3    H2 3640   3.817   5.006   2.460
 1212TIP3   OH2 3641   4.694   0.259   4.398
 1212TIP3    H1 3642   4.639   0.309   4.338
 1212TIP3    H2 3643   4.637   0.189   4.430
 1213TIP3   OH2 3644   6.194   3.783   2.952
 1213TIP3    H1 3645   6.160   3.701   2.988
 1213TIP3    H2 3646   6.171   3.848   3.018
 1214TIP3   OH2 3647   1.997   4.042   4.771
 1214TIP3    H1 3648   2.019   3.993   4.850
 1214TIP3    H2 3649   1.957   4.123   4.803
 1215TIP3   OH2 3650   2.145   2.670   4.713
 1215TIP3    H1 3651   2.087   2.686   4.639
 1215TIP3    H2 3652   2.129   2.578   4.736
 1216TIP3   OH2 3653   5.523   1.296   0.742
 1216TIP3    H1 3654   5.477   1.302   0.826
 1216TIP3    H2 3655   5.584   1.370   0.743
 1217TIP3   OH2 3656   4.925   2.980   2.725
 1217TIP3    H1 3657   5.017   3.004   2.715
 1217TIP3    H2 3658   4.924   2.914   2.794
 1218TIP3   OH2 3659   4.645   3.643   3.361
 1218TIP3    H1 3660   4.580   3.573   3.372
 1218TIP3    H2 3661   4.688   3.649   3.446
 1219TIP3   OH2 3662   3.898   4.212   1.178
 1219TIP3    H1 3663   3.903   4.123   1.146
 1219TIP3    H2 3664   3.849   4.205   1.260
 1220TIP3   OH2 3665   4.310   5.841   4.192
 1220TIP3    H1 3666   4.352   5.822   4.108
 1220TIP3    H2 3667   4.360   5.789   4.256
 1221TIP3   OH2 3668   2.986   1.096   1.904
 1221TIP3    H1 3669   3.029   1.013   1.881
 1221TIP3    H2 3670   2.902   1.093   1.859
 1222TIP3   OH2 3671   3.325   2.005   0.340
 1222TIP3    H1 3672   3.248   1.949   0.336
 1222TIP3    H2 3673   3.387   1.957   0.394
 1223TIP3   OH2 3674   2.509   1.089   4.618
 1223TIP3    H1 3675   2.563   1.146   4.563
 1223TIP3    H2 3676   2.434   1.068   4.563
 1224TIP3   OH2 3677   5.505   1.670   4.822
 1224TIP3    H1 3678   5.600   1.682   4.818
 1224TIP3    H2 3679   5.492   1.576   4.806
 1225TIP3   OH2 3680   5.661   1.324   2.917
 1225TIP3    H1 3681   5.609   1.296   2.842
 1225TIP3    H2 3682   5.607   1.389   2.962
 1226TIP3   OH2 3683   5.003   5.317   3.201
 1226TIP3    H1 3684   4.965   5.373   3.134
 1226TIP3    H2 3685   5.040   5.377   3.265
 1227TIP3   OH2 3686   3.589   4.613   1.415
 1227TIP3    H1 3687   3.568   4.575   1.501
 1227TIP3    H2 3688   3.662   4.560   1.383
 1228TIP3   OH2 3689   3.135   1.391   5.055
 1228TIP3    H1 3690   3.190   1.372   5.132
 1228TIP3    H2 3691   3.176   1.468   5.015
 1229TIP3   OH2 3692   1.503   0.288   5.145
 1229TIP3    H1 3693   1.503   0.380   5.119
 1229TIP3    H2 3694   1.414   0.257   5.127
 1230TIP3   OH2 3695   3.012   3.510   1.759
 1230TIP3    H1 3696   3.009   3.594   1.713
 1230TIP3    H2 3697   3.045   3.448   1.695
 1231TIP3   OH2 3698   6.249   3.496   0.452
 1231TIP3    H1 3699   6.194   3.574   0.457
 1231TIP3    H2 3700   6.243   3.456   0.538
 1232TIP3   OH2 3701   5.308   1.751   1.387
 1232TIP3    H1 3702   5.265   1.668   1.407
 1232TIP3    H2 3703   5.263   1.784   1.310
 1233TIP3   OH2 3704   5.376   3.365   3.647
 1233TIP3    H1 3705   5.317   3.297   3.678
 1233TIP3    H2 3706   5.319   3.434   3.613
 1234TIP3   OH2 3707   4.851   0.472   1.507
 1234TIP3    H1 3708   4.856   0.549   1.451
 1234TIP3    H2 3709   4.769   0.483   1.556
 1235TIP3   OH2 3710   0.474   5.152   2.499
 1235TIP3    H1 3711   0.401   5.187   2.549
 1235TIP3    H2 3712   0.436   5.125   2.416
 1236TIP3   OH2 3713   3.041   3.334   0.750
 1236TIP3    H1 3714   3.090   3.252   0.739
 1236TIP3    H2 3715   3.077   3.392   0.683
 1237TIP3   OH2 3716   0.394   1.557   0.188
 1237TIP3    H1 3717   0.404   1.536   0.281
 1237TIP3    H2 3718   0.308   1.598   0.182
 1238TIP3   OH2 3719   5.600   4.553   3.100
 1238TIP3    H1 3720   5.620   4.586   3.012
 1238TIP3    H2 3721   5.505   4.563   3.107
 1239TIP3   OH2 3722   3.261   1.400   2.820
 1239TIP3    H1 3723   3.266   1.448   2.903
 1239TIP3    H2 3724   3.347   1.359   2.810
 1240TIP3   OH2 3725   3.099   1.695   3.336
 1240TIP3    H1 3726   3.151   1.616   3.352
 1240TIP3    H2 3727   3.130   1.757   3.402
 1241TIP3   OH2 3728   4.020   0.286   2.208
 1241TIP3    H1 3729   4.092   0.232   2.242
 1241TIP3    H2 3730   3.949   0.273   2.270
 1242TIP3   OH2 3731  -0.050   3.937   4.451
 1242TIP3    H1 3732   0.020   3.878   4.479
 1242TIP3    H2 3733  -0.076   3.905   4.365
 1243TIP3   OH2 3734   1.303   4.376   1.901
 1243TIP3    H1 3735   1.209   4.393   1.901
 1243TIP3    H2 3736   1.340   4.448   1.953
 1244TIP3   OH2 3737   1.403   0.609   1.851
 1244TIP3    H1 3738   1.463   0.589   1.778
 1244TIP3    H2 3739   1.392   0.526   1.896
 1245TIP3   OH2 3740   5.115   4.982   1.659
 1245TIP3    H1 3741   5.115   5.077   1.672
 1245TIP3    H2 3742   5.168   4.968   1.581
 1246TIP3   OH2 3743   1.314   0.588   4.183
 1246TIP3    H1 3744   1.258   0.529   4.132
 1246TIP3    H2 3745   1.403   0.556   4.168
 1247TIP3   OH2 3746   1.324   1.593   5.033
 1247TIP3    H1 3747   1.369   1.625   5.111
 1247TIP3    H2 3748   1.231   1.604   5.052
 1248TIP3   OH2 3749   1.243   2.198   1.923
 1248TIP3    H1 3750   1.274   2.109   1.939
 1248TIP3    H2 3751   1.164   2.205   1.976
 1249TIP3   OH2 3752   0.682   3.812   0.729
 1249TIP3    H1 3753   0.640   3.892   0.760
 1249TIP3    H2 3754   0.616   3.769   0.674
 1250TIP3   OH2 3755   5.938   3.672   2.588
 1250TIP3    H1 3756   5.855   3.627   2.573
 1250TIP3    H2 3757   5.951   3.667   2.683
 1251TIP3   OH2 3758   6.218   0.506   0.278
 1251TIP3    H1 3759   6.236   0.579   0.337
 1251TIP3    H2 3760   6.148   0.457   0.321
 1252TIP3   OH2 3761   1.923   0.847   1.621
 1252TIP3    H1 3762   1.986   0.778   1.605
 1252TIP3    H2 3763   1.934   0.870   1.713
 1253TIP3   OH2 3764   5.049   5.291   2.174
 1253TIP3    H1 3765   5.127   5.333   2.210
 1253TIP3    H2 3766   5.079   5.204   2.148
 1254TIP3   OH2 3767   4.646   1.402   4.997
 1254TIP3    H1 3768   4.688   1.324   4.963
 1254TIP3    H2 3769   4.615   1.377   5.084
 1255TIP3   OH2 3770   3.612   5.583   3.168
 1255TIP3    H1 3771   3.683   5.543   3.117
 1255TIP3    H2 3772   3.615   5.676   3.144
 1256TIP3   OH2 3773   5.034   1.095   4.486
 1256TIP3    H1 3774   5.011   1.164   4.548
 1256TIP3    H2 3775   4.988   1.017   4.518
 1257TIP3   OH2 3776   1.882   4.869   3.211
 1257TIP3    H1 3777   1.829   4.835   3.138
 1257TIP3    H2 3778   1.954   4.916   3.169
 1258TIP3   OH2 3779   2.451   3.807   4.762
 1258TIP3    H1 3780   2.498   3.794   4.680
 1258TIP3    H2 3781   2.463   3.900   4.782
 1259TIP3   OH2 3782   3.713   3.876   1.854
 1259TIP3    H1 3783   3.803   3.846   1.845
 1259TIP3    H2 3784   3.670   3.806   1.905
 1260TIP3   OH2 3785   5.721   3.324   4.890
 1260TIP3    H1 3786   5.768   3.312   4.807
 1260TIP3    H2 3787   5.785   3.301   4.957
 1261TIP3   OH2 3788   1.782   2.012   3.741
 1261TIP3    H1 3789   1.753   1.926   3.771
 1261TIP3    H2 3790   1.704   2.052   3.705
 1262TIP3   OH2 3791   0.279   2.299   2.286
 1262TIP3    H1 3792   0.300   2.217   2.331
 1262TIP3    H2 3793   0.334   2.365   2.328
 1263TIP3   OH2 3794   2.781   3.427   2.852
 1263TIP3    H1 3795   2.734   3.344   2.858
 1263TIP3    H2 3796   2.788   3.457   2.943
 1264TIP3   OH2 3797   1.496   1.150   1.576
 1264TIP3    H1 3798   1.455   1.064   1.584
 1264TIP3    H2 3799   1.423   1.210   1.561
 1265TIP3   OH2 3800   6.217   3.589   4.042
 1265TIP3    H1 3801   6.241   3.616   3.953
 1265TIP3    H2 3802   6.216   3.493   4.038
 1266TIP3   OH2 3803   2.035   5.653   0.094
 1266TIP3    H1 3804   1.961   5.706   0.067
 1266TIP3    H2 3805   2.001   5.595   0.162
 1267TIP3   OH2 3806   5.998   3.982   3.556
 1267TIP3    H1 3807   6.014   3.949   3.468
 1267TIP3    H2 3808   6.080   4.026   3.580
 1268TIP3   OH2 3809   3.913   2.592   2.873
 1268TIP3    H1 3810   3.859   2.627   2.802
 1268TIP3    H2 3811   3.938   2.670   2.923
 1269TIP3   OH2 3812   5.340   0.806   0.813
 1269TIP3    H1 3813   5.365   0.748   0.741
 1269TIP3    H2 3814   5.259   0.770   0.847
 1270TIP3   OH2 3815   2.541   4.425   1.228
 1270TIP3    H1 3816   2.603   4.414   1.156
 1270TIP3    H2 3817   2.496   4.340   1.233
 1271TIP3   OH2 3818   2.815   0.563   2.628
 1271TIP3    H1 3819   2.748   0.546   2.694
 1271TIP3    H2 3820   2.770   0.551   2.544
 1272TIP3   OH2 3821   3.944   4.130   3.197
 1272TIP3    H1 3822   3.973   4.204   3.250
 1272TIP3    H2 3823   3.854   4.150   3.174
 1273TIP3   OH2 3824   4.958   4.063   1.772
 1273TIP3    H1 3825   4.872   4.029   1.794
 1273TIP3    H2 3826   4.968   4.047   1.678
 1274TIP3   OH2 3827   3.919   3.072   1.887
 1274TIP3    H1 3828   3.868   3.103   1.962
 1274TIP3    H2 3829   3.866   3.002   1.849
 1275TIP3   OH2 3830   2.123   2.250   1.228
 1275TIP3    H1 3831   2.193   2.192   1.198
 1275TIP3    H2 3832   2.142   2.265   1.321
 1276TIP3   OH2 3833   2.305   4.308   4.693
 1276TIP3    H1 3834   2.262   4.394   4.695
 1276TIP3    H2 3835   2.352   4.303   4.776
 1277TIP3   OH2 3836   3.287   0.861   1.350
 1277TIP3    H1 3837   3.291   0.777   1.396
 1277TIP3    H2 3838   3.340   0.848   1.272
 1278TIP3   OH2 3839   3.212   1.578   0.232
 1278TIP3    H1 3840   3.264   1.623   0.165
 1278TIP3    H2 3841   3.257   1.596   0.314
 1279TIP3   OH2 3842   2.242   1.000   1.925
 1279TIP3    H1 3843   2.329   1.001   1.885
 1279TIP3    H2 3844   2.247   0.930   1.991
 1280TIP3   OH2 3845   2.333   1.098   0.283
 1280TIP3    H1 3846   2.299   1.141   0.362
 1280TIP3    H2 3847   2.411   1.148   0.260
 1281TIP3   OH2 3848   3.513   0.513   0.546
 1281TIP3    H1 3849   3.433   0.563   0.558
 1281TIP3    H2 3850   3.539   0.529   0.455
 1282TIP3   OH2 3851   2.825   0.629   3.591
 1282TIP3    H1 3852   2.842   0.588   3.506
 1282TIP3    H2 3853   2.750   0.686   3.575
 1283TIP3   OH2 3854   4.417   2.671   0.013
 1283TIP3    H1 3855   4.324   2.652   0.002
 1283TIP3    H2 3856   4.420   2.747   0.071
 1284TIP3   OH2 3857   4.651   1.147   3.835
 1284TIP3    H1 3858   4.723   1.171   3.778
 1284TIP3    H2 3859   4.638   1.223   3.892
 1285TIP3   OH2 3860   3.794   3.790   0.100
 1285TIP3    H1 3861   3.835   3.874   0.124
 1285TIP3    H2 3862   3.842   3.761   0.023
 1286TIP3   OH2 3863   0.956   3.794   3.087
 1286TIP3    H1 3864   0.893   3.736   3.129
 1286TIP3    H2 3865   1.026   3.805   3.152
 1287TIP3   OH2 3866   4.478   0.932   4.711
 1287TIP3    H1 3867   4.430   0.948   4.792
 1287TIP3    H2 3868   4.445   0.997   4.649
 1288TIP3   OH2 3869   4.532   1.210   1.644
 1288TIP3    H1 3870   4.597   1.280   1.635
 1288TIP3    H2 3871   4.582   1.129   1.632
 1289TIP3   OH2 3872   0.286   0.336   2.245
 1289TIP3    H1 3873   0.319   0.356   2.157
 1289TIP3    H2 3874   0.341   0.388   2.303
 1290TIP3   OH2 3875   3.583   3.594   4.651
 1290TIP3    H1 3876   3.627   3.678   4.661
 1290TIP3    H2 3877   3.496   3.616   4.617
 1291TIP3   OH2 3878   5.139   0.847   1.248
 1291TIP3    H1 3879   5.197   0.825   1.320
 1291TIP3    H2 3880   5.176   0.929   1.212
 1292TIP3   OH2 3881   5.404   0.277   4.351
 1292TIP3    H1 3882   5.391   0.266   4.256
 1292TIP3    H2 3883   5.499   0.277   4.362
 1293TIP3   OH2 3884   6.225   1.473   2.677
 1293TIP3    H1 3885   6.169   1.512   2.610
 1293TIP3    H2 3886   6.238   1.383   2.648
 1294TIP3   OH2 3887   1.583   0.311   4.514
 1294TIP3    H1 3888   1.615   0.227   4.547
 1294TIP3    H2 3889   1.661   0.353   4.478
 1295TIP3   OH2 3890   1.910   3.564   1.633
 1295TIP3    H1 3891   1.952   3.587   1.716
 1295TIP3    H2 3892   1.836   3.624   1.625
 1296TIP3   OH2 3893   5.909   3.365   2.278
 1296TIP3    H1 3894   5.998   3.331   2.289
 1296TIP3    H2 3895   5.871   3.362   2.365
 1297TIP3   OH2 3896   2.532   4.455  -0.019
 1297TIP3    H1 3897   2.548   4.522   0.048
 1297TIP3    H2 3898   2.446   4.420   0.003
 1298TIP3   OH2 3899   0.004   3.211   4.210
 1298TIP3    H1 3900   0.058   3.287   4.227
 1298TIP3    H2 3901  -0.060   3.241   4.145
 1299TIP3   OH2 3902   2.974   2.168   4.842
 1299TIP3    H1 3903   2.889   2.178   4.798
 1299TIP3    H2 3904   3.029   2.236   4.804
 1300TIP3   OH2 3905   4.029   0.765   4.520
 1300TIP3    H1 3906   3.936   0.759   4.498
 1300TIP3    H2 3907   4.030   0.795   4.611
 1301TIP3   OH2 3908   0.576   2.117   1.608
 1301TIP3    H1 3909   0.652   2.148   1.657
 1301TIP3    H2 3910   0.548   2.038   1.654
 1302TIP3   OH2 3911   2.205   2.156   4.331
 1302TIP3    H1 3912   2.140   2.086   4.327
 1302TIP3    H2 3913   2.155   2.237   4.318
 1303TIP3   OH2 3914   1.419   5.683   4.378
 1303TIP3    H1 3915   1.386   5.767   4.344
 1303TIP3    H2 3916   1.353   5.619   4.353
 1304TIP3   OH2 3917   2.405   4.796   2.791
 1304TIP3    H1 3918   2.431   4.704   2.785
 1304TIP3    H2 3919   2.403   4.827   2.701
 1305TIP3   OH2 3920   1.679   2.074   2.951
 1305TIP3    H1 3921   1.753   2.013   2.950
 1305TIP3    H2 3922   1.611   2.031   2.899
 1306TIP3   OH2 3923   4.054   0.259   1.237
 1306TIP3    H1 3924   4.136   0.273   1.190
 1306TIP3    H2 3925   4.004   0.339   1.224
 1307TIP3   OH2 3926   1.761   5.141   4.417
 1307TIP3    H1 3927   1.852   5.164   4.400
 1307TIP3    H2 3928   1.747   5.163   4.509
 1308TIP3   OH2 3929   0.607   1.060   0.816
 1308TIP3    H1 3930   0.597   1.117   0.740
 1308TIP3    H2 3931   0.521   1.018   0.826
 1309TIP3   OH2 3932   1.684   1.745   3.814
 1309TIP3    H1 3933   1.672   1.703   3.900
 1309TIP3    H2 3934   1.597   1.745   3.775
 1310TIP3   OH2 3935   1.949   5.786   2.960
 1310TIP3    H1 3936   1.966   5.853   3.027
 1310TIP3    H2 3937   1.856   5.768   2.967
 1311TIP3   OH2 3938   0.874   4.385   2.781
 1311TIP3    H1 3939   0.863   4.291   2.765
 1311TIP3    H2 3940   0.904   4.390   2.872
 1312TIP3   OH2 3941   2.566   2.493   1.170
 1312TIP3    H1 3942   2.596   2.512   1.259
 1312TIP3    H2 3943   2.634   2.436   1.133
 1313TIP3   OH2 3944   6.077   4.599   3.787
 1313TIP3    H1 3945   6.118   4.658   3.850
 1313TIP3    H2 3946   5.984   4.599   3.811
 1314TIP3   OH2 3947   0.002   5.380   1.348
 1314TIP3    H1 3948   0.048   5.446   1.297
 1314TIP3    H2 3949  -0.028   5.426   1.427
 1315TIP3   OH2 3950   3.543   5.685   3.504
 1315TIP3    H1 3951   3.617   5.627   3.485
 1315TIP3    H2 3952   3.490   5.637   3.568
 1316TIP3   OH2 3953   0.913   2.454   1.293
 1316TIP3    H1 3954   0.916   2.540   1.334
 1316TIP3    H2 3955   0.991   2.452   1.236
 1317TIP3   OH2 3956   2.069   3.796   0.327
 1317TIP3    H1 3957   2.020   3.778   0.407
 1317TIP3    H2 3958   2.116   3.877   0.346
 1318TIP3   OH2 3959   0.127   1.178   2.316
 1318TIP3    H1 3960   0.155   1.206   2.229
 1318TIP3    H2 3961   0.035   1.204   2.321
 1319TIP3   OH2 3962   5.790   3.920   4.926
 1319TIP3    H1 3963   5.744   3.947   5.005
 1319TIP3    H2 3964   5.733   3.855   4.885
 1320TIP3   OH2 3965   4.048   4.770   4.868
 1320TIP3    H1 3966   3.987   4.715   4.818
 1320TIP3    H2 3967   4.102   4.812   4.801
 1321TIP3   OH2 3968   2.277   5.600   0.598
 1321TIP3    H1 3969   2.279   5.613   0.503
 1321TIP3    H2 3970   2.189   5.627   0.624
 1322TIP3   OH2 3971   5.536   4.888   1.007
 1322TIP3    H1 3972   5.619   4.916   1.046
 1322TIP3    H2 3973   5.508   4.963   0.955
 1323TIP3   OH2 3974   6.004   1.329   5.017
 1323TIP3    H1 3975   6.019   1.254   4.959
 1323TIP3    H2 3976   6.010   1.292   5.105
 1324TIP3   OH2 3977   3.428   1.124   0.209
 1324TIP3    H1 3978   3.352   1.181   0.201
 1324TIP3    H2 3979   3.393   1.035   0.196
 1325TIP3   OH2 3980   2.585   0.191   0.036
 1325TIP3    H1 3981   2.587   0.199   0.131
 1325TIP3    H2 3982   2.562   0.279   0.005
 1326TIP3   OH2 3983   0.202   2.434   2.818
 1326TIP3    H1 3984   0.226   2.465   2.730
 1326TIP3    H2 3985   0.284   2.439   2.868
 1327TIP3   OH2 3986   3.562   3.578   1.551
 1327TIP3    H1 3987   3.505   3.625   1.612
 1327TIP3    H2 3988   3.512   3.575   1.469
 1328TIP3   OH2 3989   4.268   5.067   3.812
 1328TIP3    H1 3990   4.240   4.979   3.838
 1328TIP3    H2 3991   4.218   5.125   3.869
 1329TIP3   OH2 3992   4.671   4.619   2.958
 1329TIP3    H1 3993   4.592   4.565   2.953
 1329TIP3    H2 3994   4.655   4.678   3.032
 1330TIP3   OH2 3995   6.120   4.355   1.308
 1330TIP3    H1 3996   6.085   4.389   1.391
 1330TIP3    H2 3997   6.178   4.283   1.334
 1331TIP3   OH2 3998   1.349   1.372   3.655
 1331TIP3    H1 3999   1.411   1.354   3.725
 1331TIP3    H2 4000   1.350   1.294   3.600
 1332TIP3   OH2 4001   1.505   2.701   0.553
 1332TIP3    H1 4002   1.575   2.759   0.582
 1332TIP3    H2 4003   1.531   2.614   0.583
 1333TIP3   OH2 4004   0.778   0.153   4.521
 1333TIP3    H1 4005   0.749   0.136   4.611
 1333TIP3    H2 4006   0.872   0.135   4.523
 1334TIP3   OH2 4007   6.151   4.119   0.450
 1334TIP3    H1 4008   6.211   4.114   0.376
 1334TIP3    H2 4009   6.076   4.169   0.417
 1335TIP3   OH2 4010   0.091   2.740   4.396
 1335TIP3    H1 4011   0.090   2.827   4.357
 1335TIP3    H2 4012   0.013   2.697   4.362
 1336TIP3   OH2 4013   5.730   4.311   3.082
 1336TIP3    H1 4014   5.685   4.385   3.122
 1336TIP3    H2 4015   5.823   4.327   3.101
 1337TIP3   OH2 4016   2.258   1.435   0.265
 1337TIP3    H1 4017   2.271   1.526   0.291
 1337TIP3    H2 4018   2.282   1.384   0.342
 1338TIP3   OH2 4019   6.237   3.799   2.227
 1338TIP3    H1 4020   6.194   3.805   2.142
 1338TIP3    H2 4021   6.300   3.871   2.227
 1339TIP3   OH2 4022   2.202   0.368   3.625
 1339TIP3    H1 4023   2.159   0.448   3.595
 1339TIP3    H2 4024   2.206   0.377   3.720
 1340TIP3   OH2 4025   3.422   3.681   3.176
 1340TIP3    H1 4026   3.502   3.734   3.178
 1340TIP3    H2 4027   3.364   3.722   3.240
 1341TIP3   OH2 4028   1.094   0.425   3.348
 1341TIP3    H1 4029   1.171   0.473   3.317
 1341TIP3    H2 4030   1.118   0.396   3.436
 1342TIP3   OH2 4031   0.264   4.201   1.779
 1342TIP3    H1 4032   0.178   4.214   1.738
 1342TIP3    H2 4033   0.315   4.155   1.712
 1343TIP3   OH2 4034   3.728   0.300   1.506
 1343TIP3    H1 4035   3.725   0.205   1.494
 1343TIP3    H2 4036   3.767   0.333   1.425
 1344TIP3   OH2 4037   1.483   1.167   0.146
 1344TIP3    H1 4038   1.531   1.235   0.195
 1344TIP3    H2 4039   1.435   1.119   0.214
 1345TIP3   OH2 4040   6.027   1.041   3.053
 1345TIP3    H1 4041   5.975   1.082   2.984
 1345TIP3    H2 4042   5.981   1.062   3.134
 1346TIP3   OH2 4043   5.852   4.847   0.916
 1346TIP3    H1 4044   5.885   4.757   0.919
 1346TIP3    H2 4045   5.783   4.845   0.849
 1347TIP3   OH2 4046   1.457   1.934   2.851
 1347TIP3    H1 4047   1.398   1.860   2.835
 1347TIP3    H2 4048   1.405   2.011   2.831
 1348TIP3   OH2 4049   1.816   3.266   0.780
 1348TIP3    H1 4050   1.814   3.265   0.684
 1348TIP3    H2 4051   1.847   3.353   0.803
 1349TIP3   OH2 4052   3.117   0.928   3.354
 1349TIP3    H1 4053   3.024   0.913   3.370
 1349TIP3    H2 4054   3.120   0.973   3.269
 1350TIP3   OH2 4055   1.406   4.633   4.175
 1350TIP3    H1 4056   1.437   4.584   4.251
 1350TIP3    H2 4057   1.381   4.719   4.210
 1351TIP3   OH2 4058   2.101   1.510   2.446
 1351TIP3    H1 4059   2.127   1.549   2.529
 1351TIP3    H2 4060   2.045   1.437   2.470
 1352TIP3   OH2 4061   5.050   3.142   0.406
 1352TIP3    H1 4062   5.034   3.060   0.359
 1352TIP3    H2 4063   4.992   3.205   0.364
 1353TIP3   OH2 4064   5.606   0.831   4.364
 1353TIP3    H1 4065   5.532   0.832   4.425
 1353TIP3    H2 4066   5.624   0.738   4.350
 1354TIP3   OH2 4067   2.748   1.796   0.567
 1354TIP3    H1 4068   2.778   1.872   0.617
 1354TIP3    H2 4069   2.690   1.832   0.500
 1355TIP3   OH2 4070   5.555   5.283   2.553
 1355TIP3    H1 4071   5.643   5.246   2.551
 1355TIP3    H2 4072   5.501   5.220   2.507
 1356TIP3   OH2 4073   0.696   3.560   1.585
 1356TIP3    H1 4074   0.714   3.466   1.594
 1356TIP3    H2 4075   0.601   3.567   1.593
 1357TIP3   OH2 4076   3.337   0.761   4.355
 1357TIP3    H1 4077   3.413   0.719   4.313
 1357TIP3    H2 4078   3.264   0.703   4.335
 1358TIP3   OH2 4079   5.814   3.350   2.522
 1358TIP3    H1 4080   5.767   3.422   2.564
 1358TIP3    H2 4081   5.767   3.271   2.551
 1359TIP3   OH2 4082   0.570   1.319   3.436
 1359TIP3    H1 4083   0.487   1.272   3.447
 1359TIP3    H2 4084   0.626   1.258   3.389
 1360TIP3   OH2 4085   6.270   2.476   0.332
 1360TIP3    H1 4086   6.357   2.491   0.295
 1360TIP3    H2 4087   6.251   2.385   0.310
 1361TIP3   OH2 4088   4.672   4.305   1.417
 1361TIP3    H1 4089   4.641   4.282   1.505
 1361TIP3    H2 4090   4.593   4.335   1.371
 1362TIP3   OH2 4091   3.555   1.342   2.813
 1362TIP3    H1 4092   3.626   1.310   2.757
 1362TIP3    H2 4093   3.583   1.319   2.902
 1363TIP3   OH2 4094   5.992   2.341   1.306
 1363TIP3    H1 4095   5.971   2.316   1.396
 1363TIP3    H2 4096   6.088   2.336   1.302
 1364TIP3   OH2 4097   0.218   5.312   0.059
 1364TIP3    H1 4098   0.233   5.317   0.153
 1364TIP3    H2 4099   0.303   5.290   0.021
 1365TIP3   OH2 4100   5.604   0.522   1.446
 1365TIP3    H1 4101   5.562   0.496   1.364
 1365TIP3    H2 4102   5.599   0.444   1.501
 1366TIP3   OH2 4103   4.257   3.532   0.584
 1366TIP3    H1 4104   4.303   3.583   0.651
 1366TIP3    H2 4105   4.311   3.540   0.506
 1367TIP3   OH2 4106   5.348   2.411   1.635
 1367TIP3    H1 4107   5.418   2.441   1.692
 1367TIP3    H2 4108   5.284   2.483   1.635
 1368TIP3   OH2 4109   4.466   4.103   4.779
 1368TIP3    H1 4110   4.414   4.100   4.859
 1368TIP3    H2 4111   4.509   4.018   4.774
 1369TIP3   OH2 4112   0.785   2.508   3.625
 1369TIP3    H1 4113   0.696   2.541   3.637
 1369TIP3    H2 4114   0.781   2.457   3.545
 1370TIP3   OH2 4115   0.410   3.478   1.604
 1370TIP3    H1 4116   0.437   3.443   1.519
 1370TIP3    H2 4117   0.341   3.418   1.633
 1371TIP3   OH2 4118   5.273   5.179   3.739
 1371TIP3    H1 4119   5.327   5.157   3.663
 1371TIP3    H2 4120   5.185   5.192   3.704
 1372TIP3   OH2 4121   1.848   0.138   0.548
 1372TIP3    H1 4122   1.756   0.138   0.522
 1372TIP3    H2 4123   1.896   0.121   0.467
 1373TIP3   OH2 4124   0.461   4.729   1.927
 1373TIP3    H1 4125   0.544   4.713   1.882
 1373TIP3    H2 4126   0.420   4.643   1.934
 1374TIP3   OH2 4127   3.143   4.233   3.896
 1374TIP3    H1 4128   3.074   4.194   3.949
 1374TIP3    H2 4129   3.213   4.168   3.897
 1375TIP3   OH2 4130   5.837   5.495   3.604
 1375TIP3    H1 4131   5.859   5.510   3.512
 1375TIP3    H2 4132   5.767   5.430   3.601
 1376TIP3   OH2 4133   0.388   0.253   1.092
 1376TIP3    H1 4134   0.457   0.304   1.050
 1376TIP3    H2 4135   0.362   0.189   1.026
 1377TIP3   OH2 4136   3.739   4.191   1.419
 1377TIP3    H1 4137   3.645   4.203   1.403
 1377TIP3    H2 4138   3.757   4.248   1.494
 1378TIP3   OH2 4139   5.275   2.920   3.862
 1378TIP3    H1 4140   5.307   2.958   3.944
 1378TIP3    H2 4141   5.194   2.876   3.887
 1379TIP3   OH2 4142   6.081   3.527   1.952
 1379TIP3    H1 4143   6.134   3.503   2.028
 1379TIP3    H2 4144   6.062   3.620   1.965
 1380TIP3   OH2 4145   1.212   1.934   5.124
 1380TIP3    H1 4146   1.196   1.915   5.032
 1380TIP3    H2 4147   1.155   1.873   5.172
 1381TIP3   OH2 4148   1.783   4.913   1.480
 1381TIP3    H1 4149   1.688   4.909   1.486
 1381TIP3    H2 4150   1.811   4.822   1.489
 1382TIP3   OH2 4151   2.465   3.242   4.002
 1382TIP3    H1 4152   2.447   3.163   4.052
 1382TIP3    H2 4153   2.546   3.277   4.038
 1383TIP3   OH2 4154   2.053   5.322   0.453
 1383TIP3    H1 4155   2.076   5.308   0.361
 1383TIP3    H2 4156   2.015   5.239   0.482
 1384TIP3   OH2 4157   5.767   5.284   1.287
 1384TIP3    H1 4158   5.854   5.289   1.325
 1384TIP3    H2 4159   5.708   5.279   1.362
 1385TIP3   OH2 4160   4.412   5.969   1.931
 1385TIP3    H1 4161   4.459   5.887   1.947
 1385TIP3    H2 4162   4.420   6.018   2.013
 1386TIP3   OH2 4163   1.608   5.372   1.611
 1386TIP3    H1 4164   1.612   5.369   1.516
 1386TIP3    H2 4165   1.649   5.291   1.640
 1387TIP3   OH2 4166   1.757   3.802   0.536
 1387TIP3    H1 4167   1.848   3.787   0.563
 1387TIP3    H2 4168   1.721   3.714   0.523
 1388TIP3   OH2 4169   4.541   5.343   4.880
 1388TIP3    H1 4170   4.542   5.251   4.853
 1388TIP3    H2 4171   4.571   5.341   4.972
 1389TIP3   OH2 4172   2.858   0.663   5.053
 1389TIP3    H1 4173   2.776   0.648   5.101
 1389TIP3    H2 4174   2.832   0.661   4.961
 1390TIP3   OH2 4175   5.662   0.133   0.576
 1390TIP3    H1 4176   5.591   0.141   0.512
 1390TIP3    H2 4177   5.740   0.116   0.523
 1391TIP3   OH2 4178   2.559   2.794   2.104
 1391TIP3    H1 4179   2.566   2.833   2.017
 1391TIP3    H2 4180   2.497   2.721   2.093
 1392TIP3   OH2 4181   0.180   4.694   4.408
 1392TIP3    H1 4182   0.226   4.654   4.482
 1392TIP3    H2 4183   0.095   4.650   4.407
 1393TIP3   OH2 4184   2.117   3.023   0.877
 1393TIP3    H1 4185   2.144   3.019   0.785
 1393TIP3    H2 4186   2.119   3.116   0.898
 1394TIP3   OH2 4187   3.063   4.632   3.681
 1394TIP3    H1 4188   3.030   4.721   3.686
 1394TIP3    H2 4189   3.014   4.592   3.609
 1395TIP3   OH2 4190   2.497   1.303   0.207
 1395TIP3    H1 4191   2.407   1.331   0.223
 1395TIP3    H2 4192   2.513   1.325   0.115
 1396TIP3   OH2 4193   4.736   0.988   4.648
 1396TIP3    H1 4194   4.782   0.912   4.613
 1396TIP3    H2 4195   4.653   0.953   4.680
 1397TIP3   OH2 4196   1.509   2.775   3.098
 1397TIP3    H1 4197   1.570   2.722   3.047
 1397TIP3    H2 4198   1.470   2.714   3.160
 1398TIP3   OH2 4199   5.726   2.792   1.015
 1398TIP3    H1 4200   5.804   2.737   1.011
 1398TIP3    H2 4201   5.741   2.851   1.089
 1399TIP3   OH2 4202   5.945   1.920   2.607
 1399TIP3    H1 4203   5.887   1.879   2.672
 1399TIP3    H2 4204   5.895   1.917   2.525
 1400TIP3   OH2 4205   6.079   3.133   4.354
 1400TIP3    H1 4206   6.017   3.175   4.293
 1400TIP3    H2 4207   6.064   3.039   4.343
 1401TIP3   OH2 4208   2.041   0.872   1.066
 1401TIP3    H1 4209   2.056   0.778   1.080
 1401TIP3    H2 4210   1.981   0.898   1.136
 1402TIP3   OH2 4211   0.627   4.544   1.354
 1402TIP3    H1 4212   0.563   4.609   1.381
 1402TIP3    H2 4213   0.666   4.513   1.436
 1403TIP3   OH2 4214   1.269   5.676   1.970
 1403TIP3    H1 4215   1.260   5.736   1.896
 1403TIP3    H2 4216   1.361   5.648   1.967
 1404TIP3   OH2 4217   4.248   0.025   2.795
 1404TIP3    H1 4218   4.326   0.076   2.774
 1404TIP3    H2 4219   4.264  -0.009   2.883
 1405TIP3   OH2 4220   3.538   1.484   4.490
 1405TIP3    H1 4221   3.458   1.531   4.466
 1405TIP3    H2 4222   3.571   1.447   4.408
 1406TIP3   OH2 4223   1.527   3.072   0.506
 1406TIP3    H1 4224   1.573   3.152   0.530
 1406TIP3    H2 4225   1.440   3.103   0.478
 1407TIP3   OH2 4226   5.616   0.182   2.350
 1407TIP3    H1 4227   5.690   0.220   2.304
 1407TIP3    H2 4228   5.650   0.101   2.389
 1408TIP3   OH2 4229   5.302   0.469   0.292
 1408TIP3    H1 4230   5.378   0.454   0.348
 1408TIP3    H2 4231   5.253   0.538   0.338
 1409TIP3   OH2 4232   1.459   0.683   2.224
 1409TIP3    H1 4233   1.501   0.726   2.299
 1409TIP3    H2 4234   1.499   0.596   2.221
 1410TIP3   OH2 4235   5.019   0.010   0.153
 1410TIP3    H1 4236   5.076  -0.033   0.089
 1410TIP3    H2 4237   4.996  -0.058   0.215
 1411TIP3   OH2 4238   3.181   3.650   1.539
 1411TIP3    H1 4239   3.162   3.557   1.530
 1411TIP3    H2 4240   3.200   3.661   1.632
 1412TIP3   OH2 4241   5.374   4.613   0.049
 1412TIP3    H1 4242   5.450   4.670   0.055
 1412TIP3    H2 4243   5.410   4.525   0.038
 1413TIP3   OH2 4244   0.575   1.760   3.760
 1413TIP3    H1 4245   0.527   1.842   3.765
 1413TIP3    H2 4246   0.614   1.750   3.847
 1414TIP3   OH2 4247   4.541   5.906   3.570
 1414TIP3    H1 4248   4.467   5.852   3.542
 1414TIP3    H2 4249   4.601   5.904   3.495
 1415TIP3   OH2 4250   0.815   4.415   3.480
 1415TIP3    H1 4251   0.809   4.444   3.389
 1415TIP3    H2 4252   0.779   4.487   3.531
 1416TIP3   OH2 4253   3.462   5.863   1.688
 1416TIP3    H1 4254   3.524   5.917   1.639
 1416TIP3    H2 4255   3.447   5.786   1.633
 1417TIP3   OH2 4256   4.257   5.297   0.570
 1417TIP3    H1 4257   4.244   5.306   0.665
 1417TIP3    H2 4258   4.269   5.386   0.538
 1418TIP3   OH2 4259   6.279   5.200   2.552
 1418TIP3    H1 4260   6.264   5.153   2.634
 1418TIP3    H2 4261   6.287   5.292   2.577
 1419TIP3   OH2 4262   1.889   2.699   4.144
 1419TIP3    H1 4263   1.975   2.725   4.176
 1419TIP3    H2 4264   1.883   2.605   4.164
 1420TIP3   OH2 4265   2.909   3.247   4.352
 1420TIP3    H1 4266   2.990   3.212   4.315
 1420TIP3    H2 4267   2.937   3.304   4.423
 1421TIP3   OH2 4268   0.889   1.749   1.216
 1421TIP3    H1 4269   0.826   1.711   1.155
 1421TIP3    H2 4270   0.857   1.725   1.303
 1422TIP3   OH2 4271   0.497   0.384   2.615
 1422TIP3    H1 4272   0.561   0.340   2.557
 1422TIP3    H2 4273   0.452   0.446   2.558
 1423TIP3   OH2 4274   5.201   1.528   0.961
 1423TIP3    H1 4275   5.240   1.455   1.009
 1423TIP3    H2 4276   5.153   1.578   1.027
 1424TIP3   OH2 4277   4.075   4.324   2.467
 1424TIP3    H1 4278   4.152   4.380   2.461
 1424TIP3    H2 4279   4.060   4.294   2.377
 1425TIP3   OH2 4280   2.156   4.769   1.534
 1425TIP3    H1 4281   2.158   4.706   1.462
 1425TIP3    H2 4282   2.235   4.821   1.523
 1426TIP3   OH2 4283   3.329   1.472   1.708
 1426TIP3    H1 4284   3.398   1.535   1.727
 1426TIP3    H2 4285   3.375   1.389   1.694
 1427TIP3   OH2 4286   3.796   3.978   2.644
 1427TIP3    H1 4287   3.727   3.989   2.579
 1427TIP3    H2 4288   3.874   4.012   2.602
 1428TIP3   OH2 4289   5.883   1.436   3.458
 1428TIP3    H1 4290   5.821   1.431   3.386
 1428TIP3    H2 4291   5.853   1.370   3.521
 1429TIP3   OH2 4292   1.781   2.231   2.752
 1429TIP3    H1 4293   1.876   2.216   2.760
 1429TIP3    H2 4294   1.743   2.181   2.824
 1430TIP3   OH2 4295   4.348   1.781   4.096
 1430TIP3    H1 4296   4.443   1.774   4.111
 1430TIP3    H2 4297   4.330   1.715   4.030
 1431TIP3   OH2 4298   1.897   1.715   1.709
 1431TIP3    H1 4299   1.808   1.718   1.744
 1431TIP3    H2 4300   1.940   1.645   1.758
 1432TIP3   OH2 4301   0.913   4.099   3.975
 1432TIP3    H1 4302   0.957   4.119   4.057
 1432TIP3    H2 4303   0.945   4.166   3.914
 1433TIP3   OH2 4304   2.296   4.669   2.174
 1433TIP3    H1 4305   2.304   4.661   2.270
 1433TIP3    H2 4306   2.321   4.582   2.141
 1434TIP3   OH2 4307   0.601   0.474   4.004
 1434TIP3    H1 4308   0.685   0.433   3.984
 1434TIP3    H2 4309   0.605   0.492   4.098
 1435TIP3   OH2 4310   4.103   3.458   3.864
 1435TIP3    H1 4311   4.158   3.513   3.808
 1435TIP3    H2 4312   4.164   3.395   3.903
 1436TIP3   OH2 4313   0.513   1.351   4.695
 1436TIP3    H1 4314   0.448   1.408   4.735
 1436TIP3    H2 4315   0.591   1.362   4.750
 1437TIP3   OH2 4316   2.794   2.098   3.871
 1437TIP3    H1 4317   2.745   2.042   3.931
 1437TIP3    H2 4318   2.829   2.168   3.926
 1438TIP3   OH2 4319   3.663   2.938   2.281
 1438TIP3    H1 4320   3.713   2.901   2.353
 1438TIP3    H2 4321   3.729   2.960   2.215
 1439TIP3   OH2 4322   3.949   4.604   3.732
 1439TIP3    H1 4323   3.907   4.576   3.813
 1439TIP3    H2 4324   3.960   4.523   3.681
 1440TIP3   OH2 4325   5.892   3.812   3.864
 1440TIP3    H1 4326   5.873   3.739   3.805
 1440TIP3    H2 4327   5.812   3.825   3.914
 1441TIP3   OH2 4328   0.831   3.966   2.511
 1441TIP3    H1 4329   0.873   4.020   2.578
 1441TIP3    H2 4330   0.872   3.994   2.429
 1442TIP3   OH2 4331   5.854   0.523   4.182
 1442TIP3    H1 4332   5.907   0.521   4.262
 1442TIP3    H2 4333   5.911   0.563   4.117
 1443TIP3   OH2 4334   4.442   4.634   0.923
 1443TIP3    H1 4335   4.423   4.540   0.922
 1443TIP3    H2 4336   4.519   4.644   0.868
 1444TIP3   OH2 4337   0.620   3.251   3.428
 1444TIP3    H1 4338   0.587   3.247   3.518
 1444TIP3    H2 4339   0.680   3.177   3.421
 1445TIP3   OH2 4340   2.708   1.867   4.041
 1445TIP3    H1 4341   2.698   1.784   4.087
 1445TIP3    H2 4342   2.782   1.854   3.983
 1446TIP3   OH2 4343   0.826   0.476   2.513
 1446TIP3    H1 4344   0.792   0.560   2.482
 1446TIP3    H2 4345   0.764   0.411   2.478
 1447TIP3   OH2 4346   0.702   0.497   0.303
 1447TIP3    H1 4347   0.711   0.412   0.345
 1447TIP3    H2 4348   0.771   0.551   0.341
 1448TIP3   OH2 4349   0.405   4.878   4.383
 1448TIP3    H1 4350   0.484   4.824   4.383
 1448TIP3    H2 4351   0.333   4.814   4.377
 1449TIP3   OH2 4352   5.724   5.241   2.048
 1449TIP3    H1 4353   5.755   5.194   1.971
 1449TIP3    H2 4354   5.803   5.270   2.093
 1450TIP3   OH2 4355   2.257   0.963   3.006
 1450TIP3    H1 4356   2.241   1.039   3.063
 1450TIP3    H2 4357   2.313   0.997   2.937
 1451TIP3   OH2 4358   0.646   0.865   1.408
 1451TIP3    H1 4359   0.707   0.861   1.482
 1451TIP3    H2 4360   0.633   0.774   1.382
 1452TIP3   OH2 4361   5.096   4.665   0.073
 1452TIP3    H1 4362   5.188   4.688   0.065
 1452TIP3    H2 4363   5.095   4.584   0.123
 1453TIP3   OH2 4364   2.023   2.249   0.081
 1453TIP3    H1 4365   1.936   2.214   0.061
 1453TIP3    H2 4366   2.054   2.196   0.154
 1454TIP3   OH2 4367   6.013  -0.013   1.721
 1454TIP3    H1 4368   5.951   0.058   1.738
 1454TIP3    H2 4369   5.988  -0.047   1.636
 1455TIP3   OH2 4370   2.691   1.599   4.130
 1455TIP3    H1 4371   2.731   1.568   4.211
 1455TIP3    H2 4372   2.722   1.539   4.063
 1456TIP3   OH2 4373   5.611   2.782   1.887
 1456TIP3    H1 4374   5.626   2.876   1.887
 1456TIP3    H2 4375   5.560   2.765   1.966
 1457TIP3   OH2 4376   1.298   4.365   3.074
 1457TIP3    H1 4377   1.276   4.382   3.166
 1457TIP3    H2 4378   1.389   4.393   3.067
 1458TIP3   OH2 4379   1.539   4.210   4.279
 1458TIP3    H1 4380   1.554   4.129   4.230
 1458TIP3    H2 4381   1.572   4.192   4.367
 1459TIP3   OH2 4382   1.181   3.353   1.300
 1459TIP3    H1 4383   1.129   3.386   1.373
 1459TIP3    H2 4384   1.122   3.358   1.225
 1460TIP3   OH2 4385   3.448   5.041   4.436
 1460TIP3    H1 4386   3.460   5.133   4.412
 1460TIP3    H2 4387   3.487   5.033   4.523
 1461TIP3   OH2 4388   2.103   2.465   4.966
 1461TIP3    H1 4389   2.192   2.466   5.001
 1461TIP3    H2 4390   2.047   2.480   5.042
 1462TIP3   OH2 4391   0.130   1.547   4.302
 1462TIP3    H1 4392   0.208   1.499   4.272
 1462TIP3    H2 4393   0.090   1.580   4.222
 1463TIP3   OH2 4394   5.450   3.044   2.116
 1463TIP3    H1 4395   5.354   3.039   2.124
 1463TIP3    H2 4396   5.466   3.048   2.022
 1464TIP3   OH2 4397   4.795   5.201   0.040
 1464TIP3    H1 4398   4.755   5.286   0.058
 1464TIP3    H2 4399   4.730   5.138   0.069
 1465TIP3   OH2 4400   0.317   5.287   0.328
 1465TIP3    H1 4401   0.404   5.252   0.311
 1465TIP3    H2 4402   0.294   5.255   0.416
 1466TIP3   OH2 4403   5.053   5.563   0.881
 1466TIP3    H1 4404   4.999   5.501   0.832
 1466TIP3    H2 4405   4.992   5.605   0.942
 1467TIP3   OH2 4406   6.014   0.480   4.422
 1467TIP3    H1 4407   5.956   0.412   4.455
 1467TIP3    H2 4408   6.086   0.484   4.486
 1468TIP3   OH2 4409   6.178   3.816   2.521
 1468TIP3    H1 4410   6.100   3.773   2.556
 1468TIP3    H2 4411   6.195   3.772   2.438
 1469TIP3   OH2 4412   3.654   2.921   3.584
 1469TIP3    H1 4413   3.706   2.979   3.528
 1469TIP3    H2 4414   3.571   2.910   3.537
 1470TIP3   OH2 4415   3.761   1.731   1.641
 1470TIP3    H1 4416   3.824   1.710   1.711
 1470TIP3    H2 4417   3.737   1.822   1.657
 1471TIP3   OH2 4418   5.355   0.078   3.972
 1471TIP3    H1 4419   5.327   0.044   3.887
 1471TIP3    H2 4420   5.349   0.002   4.030
 1472TIP3   OH2 4421   1.372   4.143   1.773
 1472TIP3    H1 4422   1.370   4.231   1.810
 1472TIP3    H2 4423   1.434   4.095   1.829
 1473TIP3   OH2 4424   4.071   1.819   3.171
 1473TIP3    H1 4425   4.166   1.811   3.174
 1473TIP3    H2 4426   4.056   1.906   3.134
 1474TIP3   OH2 4427   1.264   2.913   0.702
 1474TIP3    H1 4428   1.335   2.975   0.686
 1474TIP3    H2 4429   1.237   2.884   0.615
 1475TIP3   OH2 4430   0.186   3.504   0.861
 1475TIP3    H1 4431   0.240   3.570   0.906
 1475TIP3    H2 4432   0.143   3.456   0.932
 1476TIP3   OH2 4433   0.662   4.123   1.423
 1476TIP3    H1 4434   0.628   4.071   1.495
 1476TIP3    H2 4435   0.628   4.211   1.438
 1477TIP3   OH2 4436   6.212   1.939   3.437
 1477TIP3    H1 4437   6.264   1.961   3.515
 1477TIP3    H2 4438   6.254   1.860   3.402
 1478TIP3   OH2 4439   3.317   3.049   4.131
 1478TIP3    H1 4440   3.353   3.029   4.045
 1478TIP3    H2 4441   3.374   3.001   4.192
 1479TIP3   OH2 4442   2.218   0.956   4.877
 1479TIP3    H1 4443   2.141   1.012   4.891
 1479TIP3    H2 4444   2.237   0.920   4.964
 1480TIP3   OH2 4445   1.137   4.435   2.870
 1480TIP3    H1 4446   1.112   4.348   2.837
 1480TIP3    H2 4447   1.205   4.417   2.935
 1481TIP3   OH2 4448   5.588   1.831   4.459
 1481TIP3    H1 4449   5.675   1.810   4.425
 1481TIP3    H2 4450   5.551   1.747   4.486
 1482TIP3   OH2 4451   5.501   1.412   3.626
 1482TIP3    H1 4452   5.431   1.350   3.645
 1482TIP3    H2 4453   5.575   1.381   3.678
 1483TIP3   OH2 4454   4.886   4.367   1.793
 1483TIP3    H1 4455   4.936   4.297   1.834
 1483TIP3    H2 4456   4.872   4.431   1.863
 1484TIP3   OH2 4457   4.598   1.638   3.784
 1484TIP3    H1 4458   4.572   1.726   3.755
 1484TIP3    H2 4459   4.520   1.603   3.827
 1485TIP3   OH2 4460   0.978   0.100   1.273
 1485TIP3    H1 4461   1.068   0.069   1.278
 1485TIP3    H2 4462   0.944   0.092   1.362
 1486TIP3   OH2 4463   2.582   2.400   4.973
 1486TIP3    H1 4464   2.676   2.384   4.967
 1486TIP3    H2 4465   2.544   2.315   4.993
 1487TIP3   OH2 4466   3.372   2.774   0.465
 1487TIP3    H1 4467   3.370   2.814   0.379
 1487TIP3    H2 4468   3.447   2.814   0.509
 1488TIP3   OH2 4469   5.914   0.063   4.740
 1488TIP3    H1 4470   5.856   0.138   4.743
 1488TIP3    H2 4471   5.888   0.015   4.661
 1489TIP3   OH2 4472   3.771   1.060   2.824
 1489TIP3    H1 4473   3.734   1.008   2.753
 1489TIP3    H2 4474   3.779   1.148   2.788
 1490TIP3   OH2 4475   3.752   2.368   1.098
 1490TIP3    H1 4476   3.772   2.284   1.139
 1490TIP3    H2 4477   3.826   2.384   1.040
 1491TIP3   OH2 4478   0.504   1.520   0.888
 1491TIP3    H1 4479   0.514   1.453   0.956
 1491TIP3    H2 4480   0.461   1.593   0.933
 1492TIP3   OH2 4481   2.938   2.343   2.913
 1492TIP3    H1 4482   2.856   2.294   2.920
 1492TIP3    H2 4483   3.006   2.275   2.907
 1493TIP3   OH2 4484   4.606   0.196   1.853
 1493TIP3    H1 4485   4.626   0.162   1.940
 1493TIP3    H2 4486   4.692   0.210   1.813
 1494TIP3   OH2 4487   6.042   1.627   0.388
 1494TIP3    H1 4488   5.990   1.632   0.468
 1494TIP3    H2 4489   6.131   1.610   0.418
 1495TIP3   OH2 4490   5.459   5.225   2.100
 1495TIP3    H1 4491   5.553   5.237   2.093
 1495TIP3    H2 4492   5.423   5.285   2.034
 1496TIP3   OH2 4493   3.153   3.084   0.847
 1496TIP3    H1 4494   3.244   3.099   0.821
 1496TIP3    H2 4495   3.157   3.004   0.900
 1497TIP3   OH2 4496   4.491   3.853   3.325
 1497TIP3    H1 4497   4.534   3.768   3.338
 1497TIP3    H2 4498   4.520   3.882   3.239
 1498TIP3   OH2 4499   3.522   5.855   3.303
 1498TIP3    H1 4500   3.513   5.799   3.381
 1498TIP3    H2 4501   3.434   5.885   3.284
 1499TIP3   OH2 4502   2.137   5.526   0.983
 1499TIP3    H1 4503   2.188   5.445   0.981
 1499TIP3    H2 4504   2.053   5.502   1.021
 1500TIP3   OH2 4505   3.473   5.133   1.601
 1500TIP3    H1 4506   3.430   5.079   1.535
 1500TIP3    H2 4507   3.456   5.223   1.573
 1501TIP3   OH2 4508   1.141   5.950   2.798
 1501TIP3    H1 4509   1.185   6.008   2.860
 1501TIP3    H2 4510   1.051   5.943   2.830
 1502TIP3   OH2 4511   3.598   5.515   4.246
 1502TIP3    H1 4512   3.641   5.595   4.277
 1502TIP3    H2 4513   3.638   5.498   4.161
 1503TIP3   OH2 4514   6.024   4.916   2.149
 1503TIP3    H1 4515   6.014   4.916   2.054
 1503TIP3    H2 4516   5.940   4.946   2.182
 1504TIP3   OH2 4517   0.884   5.529   2.752
 1504TIP3    H1 4518   0.795   5.556   2.774
 1504TIP3    H2 4519   0.876   5.436   2.731
 1505TIP3   OH2 4520   1.170   3.318   4.109
 1505TIP3    H1 4521   1.133   3.403   4.133
 1505TIP3    H2 4522   1.257   3.317   4.149
 1506TIP3   OH2 4523   2.829   4.216   4.008
 1506TIP3    H1 4524   2.844   4.212   3.913
 1506TIP3    H2 4525   2.833   4.125   4.037
 1507TIP3   OH2 4526   5.571   5.801   2.048
 1507TIP3    H1 4527   5.493   5.769   2.093
 1507TIP3    H2 4528   5.596   5.879   2.099
 1508TIP3   OH2 4529   6.284   3.205   4.515
 1508TIP3    H1 4530   6.225   3.167   4.450
 1508TIP3    H2 4531   6.371   3.181   4.485
 1509TIP3   OH2 4532   5.703   2.036   4.177
 1509TIP3    H1 4533   5.691   2.124   4.214
 1509TIP3    H2 4534   5.773   2.048   4.112
 1510TIP3   OH2 4535   1.448   2.827   1.128
 1510TIP3    H1 4536   1.522   2.826   1.068
 1510TIP3    H2 4537   1.426   2.734   1.141
 1511TIP3   OH2 4538   4.811   2.674   2.847
 1511TIP3    H1 4539   4.753   2.598   2.849
 1511TIP3    H2 4540   4.885   2.647   2.794
 1512TIP3   OH2 4541   0.425   2.426   0.172
 1512TIP3    H1 4542   0.485   2.422   0.098
 1512TIP3    H2 4543   0.469   2.379   0.243
 1513TIP3   OH2 4544   0.138   4.511   1.320
 1513TIP3    H1 4545   0.093   4.436   1.280
 1513TIP3    H2 4546   0.230   4.495   1.304
 1514TIP3   OH2 4547   4.329   1.329   3.775
 1514TIP3    H1 4548   4.404   1.321   3.716
 1514TIP3    H2 4549   4.253   1.335   3.717
 1515TIP3   OH2 4550   1.444   1.689   1.664
 1515TIP3    H1 4551   1.351   1.708   1.664
 1515TIP3    H2 4552   1.473   1.709   1.576
 1516TIP3   OH2 4553   4.433   5.720   2.032
 1516TIP3    H1 4554   4.355   5.698   1.982
 1516TIP3    H2 4555   4.405   5.713   2.124
 1517TIP3   OH2 4556   0.419   5.882   3.232
 1517TIP3    H1 4557   0.329   5.879   3.266
 1517TIP3    H2 4558   0.474   5.887   3.310
 1518TIP3   OH2 4559   0.921   4.393   2.118
 1518TIP3    H1 4560   0.984   4.381   2.048
 1518TIP3    H2 4561   0.870   4.470   2.092
 1519TIP3   OH2 4562   5.161   4.560   4.992
 1519TIP3    H1 4563   5.203   4.643   5.013
 1519TIP3    H2 4564   5.228   4.494   5.009
 1520TIP3   OH2 4565   6.163   0.899   5.002
 1520TIP3    H1 4566   6.118   0.842   4.940
 1520TIP3    H2 4567   6.192   0.840   5.072
 1521TIP3   OH2 4568   5.080   2.667   0.340
 1521TIP3    H1 4569   5.146   2.706   0.397
 1521TIP3    H2 4570   4.997   2.685   0.384
 1522TIP3   OH2 4571   5.205   5.775   1.257
 1522TIP3    H1 4572   5.268   5.783   1.329
 1522TIP3    H2 4573   5.249   5.815   1.183
 1523TIP3   OH2 4574   3.569   3.340   1.707
 1523TIP3    H1 4575   3.476   3.328   1.727
 1523TIP3    H2 4576   3.576   3.431   1.680
 1524TIP3   OH2 4577   1.477   0.980   4.888
 1524TIP3    H1 4578   1.552   1.033   4.861
 1524TIP3    H2 4579   1.458   1.007   4.978
 1525TIP3   OH2 4580   1.307   2.199   4.954
 1525TIP3    H1 4581   1.349   2.246   4.881
 1525TIP3    H2 4582   1.379   2.172   5.010
 1526TIP3   OH2 4583   3.396   3.164   2.707
 1526TIP3    H1 4584   3.389   3.231   2.640
 1526TIP3    H2 4585   3.476   3.116   2.686
 1527TIP3   OH2 4586   3.414   1.101   4.651
 1527TIP3    H1 4587   3.376   1.013   4.643
 1527TIP3    H2 4588   3.443   1.106   4.743
 1528TIP3   OH2 4589   2.382   4.894   1.439
 1528TIP3    H1 4590   2.447   4.849   1.386
 1528TIP3    H2 4591   2.420   4.980   1.457
 1529TIP3   OH2 4592   0.802   1.528   2.357
 1529TIP3    H1 4593   0.746   1.455   2.335
 1529TIP3    H2 4594   0.875   1.489   2.405
 1530TIP3   OH2 4595   0.462   1.760   1.031
 1530TIP3    H1 4596   0.458   1.855   1.043
 1530TIP3    H2 4597   0.470   1.726   1.120
 1531TIP3   OH2 4598   0.192   2.400   3.317
 1531TIP3    H1 4599   0.120   2.418   3.256
 1531TIP3    H2 4600   0.194   2.475   3.375
 1532TIP3   OH2 4601   4.624   3.736   1.625
 1532TIP3    H1 4602   4.591   3.812   1.674
 1532TIP3    H2 4603   4.600   3.661   1.680
 1533TIP3   OH2 4604   4.350   0.474   2.962
 1533TIP3    H1 4605   4.388   0.538   3.022
 1533TIP3    H2 4606   4.423   0.420   2.934
 1534TIP3   OH2 4607   3.168   5.021   2.269
 1534TIP3    H1 4608   3.214   4.959   2.213
 1534TIP3    H2 4609   3.107   5.065   2.210
 1535TIP3   OH2 4610   0.466   1.665   4.417
 1535TIP3    H1 4611   0.393   1.638   4.473
 1535TIP3    H2 4612   0.540   1.610   4.445
 1536TIP3   OH2 4613   1.406   1.089   5.134
 1536TIP3    H1 4614   1.408   1.038   5.216
 1536TIP3    H2 4615   1.334   1.150   5.146
 1537TIP3   OH2 4616   3.735   1.922   4.080
 1537TIP3    H1 4617   3.818   1.944   4.037
 1537TIP3    H2 4618   3.746   1.953   4.170
 1538TIP3   OH2 4619   3.019   0.980   0.072
 1538TIP3    H1 4620   3.044   1.029  -0.007
 1538TIP3    H2 4621   3.080   0.907   0.076
 1539TIP3   OH2 4622   4.220   5.421   3.728
 1539TIP3    H1 4623   4.278   5.374   3.669
 1539TIP3    H2 4624   4.151   5.358   3.750
 1540TIP3   OH2 4625   4.237   0.528   1.793
 1540TIP3    H1 4626   4.225   0.605   1.849
 1540TIP3    H2 4627   4.253   0.456   1.853
 1541TIP3   OH2 4628   3.328   3.154   4.855
 1541TIP3    H1 4629   3.360   3.243   4.870
 1541TIP3    H2 4630   3.238   3.155   4.886
 1542TIP3   OH2 4631   2.288   5.506   2.349
 1542TIP3    H1 4632   2.320   5.547   2.429
 1542TIP3    H2 4633   2.336   5.549   2.278
 1543TIP3   OH2 4634   5.190   5.268   0.880
 1543TIP3    H1 4635   5.104   5.243   0.912
 1543TIP3    H2 4636   5.181   5.361   0.858
 1544TIP3   OH2 4637   4.995   3.860   3.037
 1544TIP3    H1 4638   5.049   3.876   3.114
 1544TIP3    H2 4639   4.915   3.820   3.071
 1545TIP3   OH2 4640   1.215   4.043   4.420
 1545TIP3    H1 4641   1.226   4.134   4.392
 1545TIP3    H2 4642   1.304   4.015   4.443
 1546TIP3   OH2 4643   3.575   3.327   3.688
 1546TIP3    H1 4644   3.584   3.316   3.783
 1546TIP3    H2 4645   3.593   3.419   3.672
 1547TIP3   OH2 4646   2.508   3.567   1.312
 1547TIP3    H1 4647   2.481   3.560   1.220
 1547TIP3    H2 4648   2.430   3.544   1.362
 1548TIP3   OH2 4649   3.277   2.954   1.619
 1548TIP3    H1 4650   3.242   2.867   1.639
 1548TIP3    H2 4651   3.268   3.002   1.702
 1549TIP3   OH2 4652   5.466   1.172   2.110
 1549TIP3    H1 4653   5.396   1.216   2.157
 1549TIP3    H2 4654   5.524   1.139   2.178
 1550TIP3   OH2 4655   3.844   0.249   2.944
 1550TIP3    H1 4656   3.889   0.184   2.889
 1550TIP3    H2 4657   3.902   0.325   2.943
 1551TIP3   OH2 4658   0.004   3.461   3.829
 1551TIP3    H1 4659  -0.014   3.373   3.862
 1551TIP3    H2 4660   0.078   3.492   3.882
 1552TIP3   OH2 4661   4.740   0.206   3.027
 1552TIP3    H1 4662   4.768   0.116   3.014
 1552TIP3    H2 4663   4.822   0.256   3.034
 1553TIP3   OH2 4664   4.896   0.752   3.302
 1553TIP3    H1 4665   4.890   0.749   3.206
 1553TIP3    H2 4666   4.806   0.764   3.332
 1554TIP3   OH2 4667   5.456   4.453   1.503
 1554TIP3    H1 4668   5.489   4.397   1.433
 1554TIP3    H2 4669   5.443   4.538   1.461
 1555TIP3   OH2 4670   1.304   2.135   3.386
 1555TIP3    H1 4671   1.312   2.204   3.320
 1555TIP3    H2 4672   1.391   2.096   3.392
 1556TIP3   OH2 4673   0.093   1.906   1.871
 1556TIP3    H1 4674   0.025   1.970   1.850
 1556TIP3    H2 4675   0.070   1.874   1.959
 1557TIP3   OH2 4676   2.084   4.384   1.920
 1557TIP3    H1 4677   2.090   4.453   1.985
 1557TIP3    H2 4678   2.017   4.415   1.858
 1558TIP3   OH2 4679   2.007   1.238   4.219
 1558TIP3    H1 4680   2.075   1.268   4.280
 1558TIP3    H2 4681   1.970   1.161   4.261
 1559TIP3   OH2 4682   0.665   5.746   4.265
 1559TIP3    H1 4683   0.748   5.730   4.310
 1559TIP3    H2 4684   0.670   5.838   4.238
 1560TIP3   OH2 4685   4.834   2.996   4.713
 1560TIP3    H1 4686   4.744   2.992   4.680
 1560TIP3    H2 4687   4.888   3.001   4.634
 1561TIP3   OH2 4688   1.500   3.536   1.284
 1561TIP3    H1 4689   1.468   3.525   1.373
 1561TIP3    H2 4690   1.510   3.447   1.251
 1562TIP3   OH2 4691   3.221   0.286   4.150
 1562TIP3    H1 4692   3.276   0.258   4.224
 1562TIP3    H2 4693   3.279   0.338   4.095
 1563TIP3   OH2 4694   5.856   0.279   1.670
 1563TIP3    H1 4695   5.770   0.271   1.710
 1563TIP3    H2 4696   5.893   0.360   1.707
 1564TIP3   OH2 4697   5.118   5.487   1.895
 1564TIP3    H1 4698   5.152   5.574   1.877
 1564TIP3    H2 4699   5.053   5.499   1.964
 1565TIP3   OH2 4700   1.209   4.601   2.107
 1565TIP3    H1 4701   1.185   4.689   2.136
 1565TIP3    H2 4702   1.267   4.568   2.175
 1566TIP3   OH2 4703   4.675   0.719   2.517
 1566TIP3    H1 4704   4.685   0.770   2.598
 1566TIP3    H2 4705   4.588   0.743   2.484
 1567TIP3   OH2 4706   4.174   3.035   4.655
 1567TIP3    H1 4707   4.196   2.999   4.741
 1567TIP3    H2 4708   4.204   2.968   4.593
 1568TIP3   OH2 4709   3.161   2.289   3.322
 1568TIP3    H1 4710   3.205   2.310   3.240
 1568TIP3    H2 4711   3.077   2.252   3.294
 1569TIP3   OH2 4712   2.827   0.031   4.522
 1569TIP3    H1 4713   2.816   0.091   4.595
 1569TIP3    H2 4714   2.773   0.067   4.452
 1570TIP3   OH2 4715   1.921   5.521   4.906
 1570TIP3    H1 4716   1.933   5.611   4.875
 1570TIP3    H2 4717   1.838   5.494   4.868
 1571TIP3   OH2 4718   3.316   3.396   0.588
 1571TIP3    H1 4719   3.407   3.383   0.617
 1571TIP3    H2 4720   3.311   3.489   0.569
 1572TIP3   OH2 4721   3.239   4.837   2.573
 1572TIP3    H1 4722   3.273   4.920   2.538
 1572TIP3    H2 4723   3.317   4.786   2.594
 1573TIP3   OH2 4724   4.699   5.755   1.590
 1573TIP3    H1 4725   4.774   5.722   1.641
 1573TIP3    H2 4726   4.735   5.828   1.540
 1574TIP3   OH2 4727   5.490   0.303   3.583
 1574TIP3    H1 4728   5.486   0.329   3.491
 1574TIP3    H2 4729   5.450   0.216   3.585
 1575TIP3   OH2 4730   6.203   2.647   1.516
 1575TIP3    H1 4731   6.284   2.683   1.480
 1575TIP3    H2 4732   6.134   2.698   1.475
 1576TIP3   OH2 4733   4.296   5.325   0.140
 1576TIP3    H1 4734   4.206   5.309   0.111
 1576TIP3    H2 4735   4.330   5.388   0.077
 1577TIP3   OH2 4736   2.517   4.579   1.557
 1577TIP3    H1 4737   2.511   4.668   1.521
 1577TIP3    H2 4738   2.578   4.534   1.498
 1578TIP3   OH2 4739   6.041   4.743   4.194
 1578TIP3    H1 4740   6.077   4.750   4.282
 1578TIP3    H2 4741   5.997   4.657   4.193
 1579TIP3   OH2 4742   4.421   4.151   2.392
 1579TIP3    H1 4743   4.382   4.086   2.450
 1579TIP3    H2 4744   4.481   4.102   2.336
 1580TIP3   OH2 4745   2.641   0.263   4.555
 1580TIP3    H1 4746   2.594   0.240   4.475
 1580TIP3    H2 4747   2.619   0.192   4.616
 1581TIP3   OH2 4748   5.658   1.360   2.009
 1581TIP3    H1 4749   5.594   1.301   2.049
 1581TIP3    H2 4750   5.617   1.387   1.927
 1582TIP3   OH2 4751   2.808   2.215   2.150
 1582TIP3    H1 4752   2.836   2.210   2.242
 1582TIP3    H2 4753   2.825   2.306   2.125
 1583TIP3   OH2 4754   5.257   2.065   1.124
 1583TIP3    H1 4755   5.193   2.134   1.143
 1583TIP3    H2 4756   5.220   1.987   1.165
 1584TIP3   OH2 4757   6.205   0.970   4.123
 1584TIP3    H1 4758   6.214   0.948   4.030
 1584TIP3    H2 4759   6.294   0.967   4.157
 1585TIP3   OH2 4760   4.903   1.209   3.695
 1585TIP3    H1 4761   4.966   1.199   3.623
 1585TIP3    H2 4762   4.932   1.147   3.762
 1586TIP3   OH2 4763   3.238   5.918   4.599
 1586TIP3    H1 4764   3.220   5.837   4.645
 1586TIP3    H2 4765   3.223   5.987   4.664
 1587TIP3   OH2 4766   1.701   2.632   3.954
 1587TIP3    H1 4767   1.768   2.591   4.009
 1587TIP3    H2 4768   1.731   2.617   3.865
 1588TIP3   OH2 4769   4.875   5.715   2.852
 1588TIP3    H1 4770   4.917   5.710   2.765
 1588TIP3    H2 4771   4.825   5.796   2.850
 1589TIP3   OH2 4772   1.059   2.330   4.994
 1589TIP3    H1 4773   1.134   2.272   4.984
 1589TIP3    H2 4774   1.061   2.386   4.916
 1590TIP3   OH2 4775   0.769   1.790   4.496
 1590TIP3    H1 4776   0.716   1.847   4.552
 1590TIP3    H2 4777   0.790   1.844   4.420
 1591TIP3   OH2 4778   1.185   1.140   1.329
 1591TIP3    H1 4779   1.130   1.066   1.356
 1591TIP3    H2 4780   1.230   1.108   1.250
 1592TIP3   OH2 4781   4.791   2.354   2.620
 1592TIP3    H1 4782   4.883   2.373   2.598
 1592TIP3    H2 4783   4.774   2.268   2.581
 1593TIP3   OH2 4784   6.205   1.098   4.699
 1593TIP3    H1 4785   6.132   1.117   4.758
 1593TIP3    H2 4786   6.182   1.015   4.658
 1594TIP3   OH2 4787   4.778   3.454   2.403
 1594TIP3    H1 4788   4.691   3.441   2.364
 1594TIP3    H2 4789   4.774   3.405   2.485
 1595TIP3   OH2 4790   0.613   5.264   3.471
 1595TIP3    H1 4791   0.526   5.245   3.507
 1595TIP3    H2 4792   0.600   5.261   3.376
 1596TIP3   OH2 4793   1.335   1.251   0.654
 1596TIP3    H1 4794   1.386   1.332   0.662
 1596TIP3    H2 4795   1.396   1.182   0.681
 1597TIP3   OH2 4796   3.248   1.634   0.918
 1597TIP3    H1 4797   3.165   1.681   0.915
 1597TIP3    H2 4798   3.226   1.544   0.896
 1598TIP3   OH2 4799   2.279   4.316   0.032
 1598TIP3    H1 4800   2.198   4.322  -0.019
 1598TIP3    H2 4801   2.267   4.238   0.087
 1599TIP3   OH2 4802   6.039   4.033   0.678
 1599TIP3    H1 4803   6.041   4.120   0.717
 1599TIP3    H2 4804   6.095   4.041   0.601
 1600TIP3   OH2 4805   0.931   4.703   4.507
 1600TIP3    H1 4806   0.895   4.615   4.508
 1600TIP3    H2 4807   0.986   4.706   4.429
 1601TIP3   OH2 4808   6.137   5.155   2.052
 1601TIP3    H1 4809   6.232   5.146   2.045
 1601TIP3    H2 4810   6.114   5.104   2.130
 1602TIP3   OH2 4811   6.173   1.565   3.342
 1602TIP3    H1 4812   6.165   1.476   3.375
 1602TIP3    H2 4813   6.263   1.591   3.365
 1603TIP3   OH2 4814   4.714   5.135   1.172
 1603TIP3    H1 4815   4.703   5.229   1.162
 1603TIP3    H2 4816   4.784   5.112   1.111
 1604TIP3   OH2 4817   4.087   0.758   4.928
 1604TIP3    H1 4818   4.009   0.763   4.873
 1604TIP3    H2 4819   4.119   0.669   4.917
 1605TIP3   OH2 4820   3.452   5.136   4.065
 1605TIP3    H1 4821   3.533   5.168   4.025
 1605TIP3    H2 4822   3.386   5.148   3.998
 1606TIP3   OH2 4823   0.366   2.716   0.932
 1606TIP3    H1 4824   0.272   2.719   0.915
 1606TIP3    H2 4825   0.405   2.697   0.847
 1607TIP3   OH2 4826   4.077   3.942   4.617
 1607TIP3    H1 4827   4.060   3.857   4.575
 1607TIP3    H2 4828   4.089   3.921   4.709
 1608TIP3   OH2 4829   3.113   5.927   2.607
 1608TIP3    H1 4830   3.208   5.937   2.607
 1608TIP3    H2 4831   3.079   6.015   2.592
 1609TIP3   OH2 4832   5.370   3.338   4.227
 1609TIP3    H1 4833   5.339   3.377   4.310
 1609TIP3    H2 4834   5.394   3.249   4.251
 1610TIP3   OH2 4835   0.744   3.868   2.091
 1610TIP3    H1 4836   0.769   3.778   2.071
 1610TIP3    H2 4837   0.817   3.903   2.142
 1611TIP3   OH2 4838   5.799   1.595   0.557
 1611TIP3    H1 4839   5.860   1.537   0.603
 1611TIP3    H2 4840   5.731   1.614   0.622
 1612TIP3   OH2 4841   5.854   2.898   2.115
 1612TIP3    H1 4842   5.845   2.827   2.052
 1612TIP3    H2 4843   5.938   2.881   2.158
 1613TIP3   OH2 4844   5.242   1.085   0.808
 1613TIP3    H1 4845   5.243   0.997   0.771
 1613TIP3    H2 4846   5.209   1.141   0.738
 1614TIP3   OH2 4847   3.059   1.424   2.312
 1614TIP3    H1 4848   3.143   1.390   2.281
 1614TIP3    H2 4849   3.022   1.470   2.237
 1615TIP3   OH2 4850   2.758   6.018   4.287
 1615TIP3    H1 4851   2.665   6.036   4.297
 1615TIP3    H2 4852   2.772   5.939   4.340
 1616TIP3   OH2 4853   3.803   1.062   3.615
 1616TIP3    H1 4854   3.796   1.028   3.526
 1616TIP3    H2 4855   3.892   1.041   3.642
 1617TIP3   OH2 4856   0.142   1.737   2.169
 1617TIP3    H1 4857   0.190   1.663   2.205
 1617TIP3    H2 4858   0.126   1.795   2.244
 1618TIP3   OH2 4859   4.724   2.292   2.924
 1618TIP3    H1 4860   4.776   2.308   2.846
 1618TIP3    H2 4861   4.660   2.227   2.897
 1619TIP3   OH2 4862   0.194   4.870   0.524
 1619TIP3    H1 4863   0.147   4.882   0.607
 1619TIP3    H2 4864   0.233   4.783   0.531
 1620TIP3   OH2 4865   1.843   2.397   4.777
 1620TIP3    H1 4866   1.918   2.343   4.751
 1620TIP3    H2 4867   1.881   2.482   4.800
 1621TIP3   OH2 4868   1.178   5.479   0.489
 1621TIP3    H1 4869   1.242   5.551   0.494
 1621TIP3    H2 4870   1.225   5.408   0.445
 1622TIP3   OH2 4871   4.781   1.705   2.877
 1622TIP3    H1 4872   4.786   1.691   2.972
 1622TIP3    H2 4873   4.834   1.784   2.862
 1623TIP3   OH2 4874   5.940   5.573   1.537
 1623TIP3    H1 4875   5.922   5.536   1.623
 1623TIP3    H2 4876   5.983   5.656   1.554
 1624TIP3   OH2 4877   0.459   5.713   4.511
 1624TIP3    H1 4878   0.512   5.741   4.436
 1624TIP3    H2 4879   0.468   5.618   4.512
 1625TIP3   OH2 4880   1.599   2.353   3.963
 1625TIP3    H1 4881   1.620   2.445   3.947
 1625TIP3    H2 4882   1.532   2.332   3.898
 1626TIP3   OH2 4883   4.840   4.146   4.074
 1626TIP3    H1 4884   4.757   4.099   4.066
 1626TIP3    H2 4885   4.877   4.116   4.157
 1627TIP3   OH2 4886   0.933   3.810   4.152
 1627TIP3    H1 4887   0.883   3.764   4.220
 1627TIP3    H2 4888   0.946   3.898   4.187
 1628TIP3   OH2 4889   6.060   1.448   2.884
 1628TIP3    H1 4890   6.139   1.455   2.831
 1628TIP3    H2 4891   6.070   1.516   2.951
 1629TIP3   OH2 4892   4.804   3.725   3.156
 1629TIP3    H1 4893   4.768   3.698   3.240
 1629TIP3    H2 4894   4.761   3.808   3.136
 1630TIP3   OH2 4895   0.633   2.986   2.179
 1630TIP3    H1 4896   0.706   3.047   2.166
 1630TIP3    H2 4897   0.555   3.042   2.181
 1631TIP3   OH2 4898   1.673   5.279  -0.006
 1631TIP3    H1 4899   1.683   5.197   0.044
 1631TIP3    H2 4900   1.756   5.324   0.007
 1632TIP3   OH2 4901   2.060   0.121   5.116
 1632TIP3    H1 4902   1.998   0.063   5.072
 1632TIP3    H2 4903   2.109   0.162   5.044
 1633TIP3   OH2 4904   3.527   1.064   0.631
 1633TIP3    H1 4905   3.470   1.079   0.706
 1633TIP3    H2 4906   3.563   1.151   0.611
 1634TIP3   OH2 4907   0.236   1.538   2.832
 1634TIP3    H1 4908   0.174   1.466   2.844
 1634TIP3    H2 4909   0.185   1.617   2.848
 1635TIP3   OH2 4910   0.554   3.459   4.147
 1635TIP3    H1 4911   0.640   3.442   4.185
 1635TIP3    H2 4912   0.516   3.373   4.134
 1636TIP3   OH2 4913   0.785   2.105   0.289
 1636TIP3    H1 4914   0.760   2.013   0.280
 1636TIP3    H2 4915   0.858   2.104   0.352
 1637TIP3   OH2 4916   4.398   1.955   3.511
 1637TIP3    H1 4917   4.410   1.995   3.424
 1637TIP3    H2 4918   4.304   1.964   3.528
 1638TIP3   OH2 4919   5.239   2.292   3.475
 1638TIP3    H1 4920   5.300   2.328   3.539
 1638TIP3    H2 4921   5.294   2.244   3.414
 1639TIP3   OH2 4922   0.051   5.655   4.850
 1639TIP3    H1 4923   0.043   5.750   4.859
 1639TIP3    H2 4924   0.145   5.639   4.850
 1640TIP3   OH2 4925   2.341   0.870   4.424
 1640TIP3    H1 4926   2.278   0.864   4.496
 1640TIP3    H2 4927   2.424   0.843   4.462
 1641TIP3   OH2 4928   4.477   5.080   3.623
 1641TIP3    H1 4929   4.395   5.073   3.673
 1641TIP3    H2 4930   4.546   5.069   3.689
 1642TIP3   OH2 4931   3.319   1.011   4.249
 1642TIP3    H1 4932   3.269   0.983   4.173
 1642TIP3    H2 4933   3.345   0.929   4.292
 1643TIP3   OH2 4934   5.463   2.960   3.413
 1643TIP3    H1 4935   5.542   2.906   3.409
 1643TIP3    H2 4936   5.433   2.951   3.503
 1644TIP3   OH2 4937   5.485   0.543   3.338
 1644TIP3    H1 4938   5.568   0.585   3.315
 1644TIP3    H2 4939   5.501   0.450   3.325
 1645TIP3   OH2 4940   4.444   4.845   3.018
 1645TIP3    H1 4941   4.512   4.910   3.038
 1645TIP3    H2 4942   4.410   4.872   2.932
 1646TIP3   OH2 4943   4.768   1.343   1.591
 1646TIP3    H1 4944   4.750   1.431   1.558
 1646TIP3    H2 4945   4.817   1.300   1.521
 1647TIP3   OH2 4946   1.239   3.443   2.400
 1647TIP3    H1 4947   1.276   3.356   2.416
 1647TIP3    H2 4948   1.162   3.447   2.457
 1648TIP3   OH2 4949   4.341   1.172   1.330
 1648TIP3    H1 4950   4.343   1.084   1.369
 1648TIP3    H2 4951   4.258   1.209   1.358
 1649TIP3   OH2 4952   4.371   1.108   4.518
 1649TIP3    H1 4953   4.276   1.108   4.518
 1649TIP3    H2 4954   4.395   1.105   4.425
 1650TIP3   OH2 4955   0.588   3.506   2.502
 1650TIP3    H1 4956   0.494   3.517   2.518
 1650TIP3    H2 4957   0.620   3.594   2.486
 1651TIP3   OH2 4958   2.400   2.790   2.925
 1651TIP3    H1 4959   2.406   2.808   3.019
 1651TIP3    H2 4960   2.457   2.854   2.884
 1652TIP3   OH2 4961   4.563   2.924   0.371
 1652TIP3    H1 4962   4.620   2.986   0.417
 1652TIP3    H2 4963   4.529   2.867   0.440
 1653TIP3   OH2 4964   4.651   4.798   5.082
 1653TIP3    H1 4965   4.607   4.807   4.998
 1653TIP3    H2 4966   4.709   4.873   5.088
 1654TIP3   OH2 4967   0.233   5.873   1.749
 1654TIP3    H1 4968   0.175   5.948   1.762
 1654TIP3    H2 4969   0.317   5.902   1.784
 1655TIP3   OH2 4970   4.964   3.073   5.171
 1655TIP3    H1 4971   5.010   3.109   5.246
 1655TIP3    H2 4972   4.873   3.099   5.184
 1656TIP3   OH2 4973   2.650   3.511   1.618
 1656TIP3    H1 4974   2.689   3.592   1.586
 1656TIP3    H2 4975   2.720   3.446   1.614
 1657TIP3   OH2 4976   2.364   2.868   3.178
 1657TIP3    H1 4977   2.318   2.815   3.242
 1657TIP3    H2 4978   2.435   2.910   3.228
 1658TIP3   OH2 4979   5.215   0.217   3.686
 1658TIP3    H1 4980   5.260   0.156   3.628
 1658TIP3    H2 4981   5.129   0.178   3.702
 1659TIP3   OH2 4982   4.207   3.316   4.659
 1659TIP3    H1 4983   4.121   3.354   4.639
 1659TIP3    H2 4984   4.203   3.228   4.622
 1660TIP3   OH2 4985   2.588   5.305   2.328
 1660TIP3    H1 4986   2.566   5.213   2.316
 1660TIP3    H2 4987   2.548   5.329   2.411
 1661TIP3   OH2 4988   3.026   5.160   0.054
 1661TIP3    H1 4989   3.069   5.219   0.115
 1661TIP3    H2 4990   2.972   5.218   0.000
 1662TIP3   OH2 4991   0.975   1.286   4.053
 1662TIP3    H1 4992   0.907   1.330   4.003
 1662TIP3    H2 4993   1.002   1.213   3.996
 1663TIP3   OH2 4994   2.093   5.467   1.994
 1663TIP3    H1 4995   2.181   5.441   1.966
 1663TIP3    H2 4996   2.106   5.549   2.042
 1664TIP3   OH2 4997   0.709   5.824   1.276
 1664TIP3    H1 4998   0.739   5.871   1.354
 1664TIP3    H2 4999   0.680   5.893   1.216
 1665TIP3   OH2 5000   2.967   2.579   3.157
 1665TIP3    H1 5001   2.911   2.510   3.122
 1665TIP3    H2 5002   3.001   2.543   3.239
 1666TIP3   OH2 5003   6.185   5.074   0.310
 1666TIP3    H1 5004   6.228   5.159   0.306
 1666TIP3    H2 5005   6.256   5.011   0.297
 1667TIP3   OH2 5006   2.197   4.293   2.263
 1667TIP3    H1 5007   2.278   4.339   2.245
 1667TIP3    H2 5008   2.128   4.359   2.249
 1668TIP3   OH2 5009   1.482   0.707   3.075
 1668TIP3    H1 5010   1.472   0.801   3.060
 1668TIP3    H2 5011   1.569   0.698   3.115
 1669TIP3   OH2 5012   2.276   0.499   0.840
 1669TIP3    H1 5013   2.203   0.447   0.874
 1669TIP3    H2 5014   2.239   0.585   0.823
 1670TIP3   OH2 5015   3.136   2.206   0.736
 1670TIP3    H1 5016   3.048   2.237   0.717
 1670TIP3    H2 5017   3.187   2.229   0.657
 1671TIP3   OH2 5018   0.291   2.669   4.605
 1671TIP3    H1 5019   0.265   2.746   4.656
 1671TIP3    H2 5020   0.234   2.673   4.527
 1672TIP3   OH2 5021   2.634   4.001   1.320
 1672TIP3    H1 5022   2.573   4.053   1.267
 1672TIP3    H2 5023   2.720   4.040   1.302
 1673TIP3   OH2 5024   0.281   4.192   2.230
 1673TIP3    H1 5025   0.359   4.140   2.212
 1673TIP3    H2 5026   0.309   4.255   2.296
 1674TIP3   OH2 5027   3.202   4.370   5.007
 1674TIP3    H1 5028   3.136   4.353   5.074
 1674TIP3    H2 5029   3.188   4.301   4.942
 1675TIP3   OH2 5030   3.398   0.810   4.637
 1675TIP3    H1 5031   3.373   0.800   4.545
 1675TIP3    H2 5032   3.334   0.759   4.685
 1676TIP3   OH2 5033   4.925   4.947   1.841
 1676TIP3    H1 5034   4.898   5.029   1.883
 1676TIP3    H2 5035   4.960   4.974   1.756
 1677TIP3   OH2 5036   2.122   5.498   5.120
 1677TIP3    H1 5037   2.076   5.503   5.036
 1677TIP3    H2 5038   2.140   5.589   5.142
 1678TIP3   OH2 5039   2.610   0.484   1.777
 1678TIP3    H1 5040   2.643   0.568   1.743
 1678TIP3    H2 5041   2.636   0.420   1.711
 1679TIP3   OH2 5042   3.633   1.861   3.671
 1679TIP3    H1 5043   3.642   1.798   3.743
 1679TIP3    H2 5044   3.681   1.938   3.700
 1680TIP3   OH2 5045   0.066   4.886   1.235
 1680TIP3    H1 5046  -0.021   4.851   1.215
 1680TIP3    H2 5047   0.080   4.867   1.328
 1681TIP3   OH2 5048   1.630   3.877   2.096
 1681TIP3    H1 5049   1.546   3.845   2.127
 1681TIP3    H2 5050   1.688   3.871   2.172
 1682TIP3   OH2 5051   1.635   0.778   4.448
 1682TIP3    H1 5052   1.560   0.829   4.479
 1682TIP3    H2 5053   1.637   0.793   4.354
 1683TIP3   OH2 5054   4.850   3.281   2.931
 1683TIP3    H1 5055   4.916   3.246   2.990
 1683TIP3    H2 5056   4.767   3.247   2.964
 1684TIP3   OH2 5057   1.461   0.484   2.824
 1684TIP3    H1 5058   1.465   0.545   2.898
 1684TIP3    H2 5059   1.494   0.535   2.750
 1685TIP3   OH2 5060   0.633   0.251   0.439
 1685TIP3    H1 5061   0.583   0.203   0.372
 1685TIP3    H2 5062   0.569   0.272   0.507
 1686TIP3   OH2 5063   3.182   4.573   2.613
 1686TIP3    H1 5064   3.196   4.664   2.638
 1686TIP3    H2 5065   3.185   4.525   2.696
 1687TIP3   OH2 5066   2.839   5.111   4.646
 1687TIP3    H1 5067   2.766   5.050   4.641
 1687TIP3    H2 5068   2.800   5.195   4.666
 1688TIP3   OH2 5069   3.125   2.261   1.427
 1688TIP3    H1 5070   3.140   2.245   1.520
 1688TIP3    H2 5071   3.203   2.307   1.397
 1689TIP3   OH2 5072   5.014   0.907   3.510
 1689TIP3    H1 5073   4.974   0.866   3.434
 1689TIP3    H2 5074   5.020   0.837   3.575
 1690TIP3   OH2 5075   1.951   0.475   1.403
 1690TIP3    H1 5076   1.939   0.568   1.418
 1690TIP3    H2 5077   1.905   0.432   1.475
 1691TIP3   OH2 5078   4.360   1.202   1.880
 1691TIP3    H1 5079   4.407   1.128   1.919
 1691TIP3    H2 5080   4.315   1.164   1.805
 1692TIP3   OH2 5081   3.933   5.122   4.967
 1692TIP3    H1 5082   4.026   5.116   4.986
 1692TIP3    H2 5083   3.928   5.152   4.877
 1693TIP3   OH2 5084   1.120   2.173   4.305
 1693TIP3    H1 5085   1.194   2.223   4.338
 1693TIP3    H2 5086   1.064   2.159   4.382
 1694TIP3   OH2 5087   5.557   5.362   3.543
 1694TIP3    H1 5088   5.548   5.374   3.448
 1694TIP3    H2 5089   5.589   5.273   3.552
 1695TIP3   OH2 5090   2.972   4.297   2.151
 1695TIP3    H1 5091   2.893   4.244   2.140
 1695TIP3    H2 5092   2.969   4.359   2.079
 1696TIP3   OH2 5093   5.768   5.627   3.911
 1696TIP3    H1 5094   5.851   5.597   3.877
 1696TIP3    H2 5095   5.702   5.579   3.861
 1697TIP3   OH2 5096   5.923   3.303   4.171
 1697TIP3    H1 5097   5.841   3.256   4.161
 1697TIP3    H2 5098   5.898   3.393   4.189
 1698TIP3   OH2 5099   4.636   2.090   0.786
 1698TIP3    H1 5100   4.579   2.015   0.801
 1698TIP3    H2 5101   4.602   2.129   0.705
 1699TIP3   OH2 5102   5.970   5.668   4.230
 1699TIP3    H1 5103   5.897   5.606   4.229
 1699TIP3    H2 5104   5.942   5.736   4.291
 1700TIP3   OH2 5105   0.930   3.281   1.902
 1700TIP3    H1 5106   0.866   3.296   1.833
 1700TIP3    H2 5107   0.968   3.367   1.919
 1701TIP3   OH2 5108   2.196   1.615   3.396
 1701TIP3    H1 5109   2.279   1.625   3.443
 1701TIP3    H2 5110   2.218   1.632   3.305
 1702TIP3   OH2 5111   3.469   5.152   0.313
 1702TIP3    H1 5112   3.432   5.175   0.227
 1702TIP3    H2 5113   3.510   5.233   0.343
 1703TIP3   OH2 5114   4.040   5.503   1.137
 1703TIP3    H1 5115   4.131   5.506   1.105
 1703TIP3    H2 5116   4.010   5.415   1.113
 1704TIP3   OH2 5117   2.243   2.787   1.762
 1704TIP3    H1 5118   2.313   2.796   1.697
 1704TIP3    H2 5119   2.231   2.693   1.772
 1705TIP3   OH2 5120   3.964   1.966   4.355
 1705TIP3    H1 5121   3.913   2.047   4.356
 1705TIP3    H2 5122   4.013   1.969   4.274
 1706TIP3   OH2 5123   1.275   1.359   4.377
 1706TIP3    H1 5124   1.357   1.375   4.423
 1706TIP3    H2 5125   1.269   1.264   4.370
 1707TIP3   OH2 5126   1.376   3.611   1.841
 1707TIP3    H1 5127   1.318   3.680   1.875
 1707TIP3    H2 5128   1.356   3.608   1.747
 1708TIP3   OH2 5129   0.646   1.987   2.744
 1708TIP3    H1 5130   0.632   1.946   2.829
 1708TIP3    H2 5131   0.730   1.953   2.713
 1709TIP3   OH2 5132   5.306   2.413   2.376
 1709TIP3    H1 5133   5.399   2.435   2.383
 1709TIP3    H2 5134   5.301   2.355   2.300
 1710TIP3   OH2 5135   1.349   1.958   1.478
 1710TIP3    H1 5136   1.426   1.991   1.432
 1710TIP3    H2 5137   1.331   1.873   1.437
 1711TIP3   OH2 5138   2.066   4.113   0.304
 1711TIP3    H1 5139   2.025   4.095   0.219
 1711TIP3    H2 5140   1.993   4.134   0.361
 1712TIP3   OH2 5141   2.074   3.366   2.854
 1712TIP3    H1 5142   2.159   3.392   2.818
 1712TIP3    H2 5143   2.064   3.275   2.828
 1713TIP3   OH2 5144   0.178   5.649   3.043
 1713TIP3    H1 5145   0.175   5.642   2.947
 1713TIP3    H2 5146   0.105   5.707   3.065
 1714TIP3   OH2 5147   1.182   5.854   4.300
 1714TIP3    H1 5148   1.172   5.852   4.395
 1714TIP3    H2 5149   1.140   5.774   4.269
 1715TIP3   OH2 5150   0.983   4.689   1.391
 1715TIP3    H1 5151   0.893   4.674   1.363
 1715TIP3    H2 5152   1.025   4.734   1.318
 1716TIP3   OH2 5153   2.199   1.081   2.594
 1716TIP3    H1 5154   2.230   1.163   2.633
 1716TIP3    H2 5155   2.203   1.097   2.499
 1717TIP3   OH2 5156   5.070   3.713   4.853
 1717TIP3    H1 5157   5.049   3.633   4.804
 1717TIP3    H2 5158   5.005   3.777   4.824
 1718TIP3   OH2 5159   3.549   2.615   1.422
 1718TIP3    H1 5160   3.560   2.559   1.499
 1718TIP3    H2 5161   3.638   2.631   1.391
 1719TIP3   OH2 5162   2.283   1.309   5.095
 1719TIP3    H1 5163   2.330   1.285   5.015
 1719TIP3    H2 5164   2.346   1.360   5.146
 1720TIP3   OH2 5165   4.740   5.869   2.115
 1720TIP3    H1 5166   4.654   5.851   2.153
 1720TIP3    H2 5167   4.802   5.821   2.171
 1721TIP3   OH2 5168   2.973   3.585   3.768
 1721TIP3    H1 5169   3.029   3.653   3.806
 1721TIP3    H2 5170   3.020   3.555   3.691
 1722TIP3   OH2 5171   5.312   3.881   4.412
 1722TIP3    H1 5172   5.381   3.883   4.345
 1722TIP3    H2 5173   5.242   3.828   4.374
 1723TIP3   OH2 5174   2.588   4.972   4.581
 1723TIP3    H1 5175   2.532   5.004   4.510
 1723TIP3    H2 5176   2.619   4.887   4.551
 1724TIP3   OH2 5177   3.563   2.514   3.083
 1724TIP3    H1 5178   3.536   2.605   3.072
 1724TIP3    H2 5179   3.579   2.505   3.177
 1725TIP3   OH2 5180   1.644   5.878   2.829
 1725TIP3    H1 5181   1.637   5.913   2.918
 1725TIP3    H2 5182   1.710   5.933   2.787
 1726TIP3   OH2 5183   5.160   2.213   0.081
 1726TIP3    H1 5184   5.114   2.236   0.161
 1726TIP3    H2 5185   5.231   2.277   0.074
 1727TIP3   OH2 5186   5.323   4.776   2.851
 1727TIP3    H1 5187   5.308   4.777   2.756
 1727TIP3    H2 5188   5.307   4.685   2.876
 1728TIP3   OH2 5189   3.586   2.288   4.437
 1728TIP3    H1 5190   3.568   2.356   4.502
 1728TIP3    H2 5191   3.627   2.218   4.488
 1729TIP3   OH2 5192   5.157   2.528   3.735
 1729TIP3    H1 5193   5.205   2.447   3.751
 1729TIP3    H2 5194   5.093   2.504   3.668
 1730TIP3   OH2 5195   0.719   5.616   0.497
 1730TIP3    H1 5196   0.721   5.576   0.583
 1730TIP3    H2 5197   0.726   5.542   0.436
 1731TIP3   OH2 5198   1.386   4.089   1.293
 1731TIP3    H1 5199   1.371   3.995   1.287
 1731TIP3    H2 5200   1.315   4.128   1.241
 1732TIP3   OH2 5201   0.626   5.913   0.610
 1732TIP3    H1 5202   0.646   5.854   0.537
 1732TIP3    H2 5203   0.643   5.861   0.688
 1733TIP3   OH2 5204   2.286   0.207   4.722
 1733TIP3    H1 5205   2.354   0.146   4.692
 1733TIP3    H2 5206   2.319   0.240   4.805
 1734TIP3   OH2 5207   3.660   5.839   1.245
 1734TIP3    H1 5208   3.605   5.829   1.168
 1734TIP3    H2 5209   3.749   5.826   1.213
 1735TIP3   OH2 5210   0.145   1.249   3.389
 1735TIP3    H1 5211   0.217   1.310   3.373
 1735TIP3    H2 5212   0.184   1.163   3.375
 1736TIP3   OH2 5213   3.068   3.136   1.498
 1736TIP3    H1 5214   3.049   3.111   1.408
 1736TIP3    H2 5215   3.110   3.059   1.537
 1737TIP3   OH2 5216   0.381   0.297   4.418
 1737TIP3    H1 5217   0.402   0.376   4.468
 1737TIP3    H2 5218   0.411   0.225   4.473
 1738TIP3   OH2 5219   4.993   2.637   1.134
 1738TIP3    H1 5220   4.903   2.624   1.165
 1738TIP3    H2 5221   5.044   2.572   1.182
 1739TIP3   OH2 5222   3.717   0.020   3.058
 1739TIP3    H1 5223   3.746   0.039   3.147
 1739TIP3    H2 5224   3.719   0.105   3.014
 1740TIP3   OH2 5225   6.332   4.985   4.348
 1740TIP3    H1 5226   6.352   5.009   4.438
 1740TIP3    H2 5227   6.259   5.042   4.323
 1741TIP3   OH2 5228   6.186   2.751   3.248
 1741TIP3    H1 5229   6.158   2.684   3.186
 1741TIP3    H2 5230   6.113   2.813   3.252
 1742TIP3   OH2 5231   4.908   3.803   0.261
 1742TIP3    H1 5232   4.966   3.808   0.336
 1742TIP3    H2 5233   4.891   3.709   0.250
 1743TIP3   OH2 5234   4.259   2.426   3.699
 1743TIP3    H1 5235   4.302   2.398   3.780
 1743TIP3    H2 5236   4.193   2.359   3.682
 1744TIP3   OH2 5237   0.141   3.070   2.983
 1744TIP3    H1 5238   0.142   3.098   3.074
 1744TIP3    H2 5239   0.223   3.105   2.946
 1745TIP3   OH2 5240   3.631   1.861   0.180
 1745TIP3    H1 5241   3.600   1.884   0.268
 1745TIP3    H2 5242   3.656   1.945   0.141
 1746TIP3   OH2 5243   1.319   5.170   3.944
 1746TIP3    H1 5244   1.241   5.163   3.889
 1746TIP3    H2 5245   1.312   5.097   4.005
 1747TIP3   OH2 5246   2.871   5.708   4.904
 1747TIP3    H1 5247   2.880   5.649   4.829
 1747TIP3    H2 5248   2.782   5.742   4.897
 1748TIP3   OH2 5249   3.067   3.668   3.299
 1748TIP3    H1 5250   2.979   3.705   3.301
 1748TIP3    H2 5251   3.062   3.595   3.237
 1749TIP3   OH2 5252   1.987   3.441   4.209
 1749TIP3    H1 5253   1.943   3.412   4.288
 1749TIP3    H2 5254   2.042   3.515   4.238
 1750TIP3   OH2 5255   3.883   5.213   0.786
 1750TIP3    H1 5256   3.852   5.235   0.874
 1750TIP3    H2 5257   3.857   5.121   0.774
 1751TIP3   OH2 5258   1.523   4.522   4.723
 1751TIP3    H1 5259   1.491   4.470   4.797
 1751TIP3    H2 5260   1.489   4.610   4.740
 1752TIP3   OH2 5261   6.013   4.368   2.177
 1752TIP3    H1 5262   6.005   4.424   2.099
 1752TIP3    H2 5263   6.105   4.340   2.176
 1753TIP3   OH2 5264   1.696   2.906   0.635
 1753TIP3    H1 5265   1.773   2.906   0.578
 1753TIP3    H2 5266   1.632   2.958   0.588
 1754TIP3   OH2 5267   3.025   4.105   0.718
 1754TIP3    H1 5268   3.002   4.139   0.804
 1754TIP3    H2 5269   2.946   4.060   0.687
 1755TIP3   OH2 5270   2.932   2.092   4.291
 1755TIP3    H1 5271   3.025   2.106   4.312
 1755TIP3    H2 5272   2.932   2.018   4.230
 1756TIP3   OH2 5273   5.648   4.868   0.730
 1756TIP3    H1 5274   5.569   4.884   0.783
 1756TIP3    H2 5275   5.621   4.891   0.641
 1757TIP3   OH2 5276   4.498   0.114   3.118
 1757TIP3    H1 5277   4.477   0.149   3.204
 1757TIP3    H2 5278   4.569   0.169   3.086
 1758TIP3   OH2 5279   5.001   3.733   2.786
 1758TIP3    H1 5280   5.000   3.763   2.876
 1758TIP3    H2 5281   4.923   3.680   2.777
 1759TIP3   OH2 5282   0.503   2.406   3.429
 1759TIP3    H1 5283   0.582   2.427   3.379
 1759TIP3    H2 5284   0.486   2.314   3.411
 1760TIP3   OH2 5285   3.075   3.506   3.093
 1760TIP3    H1 5286   3.108   3.508   3.004
 1760TIP3    H2 5287   2.991   3.460   3.086
 1761TIP3   OH2 5288   5.178   1.769   2.883
 1761TIP3    H1 5289   5.184   1.712   2.806
 1761TIP3    H2 5290   5.243   1.837   2.867
 1762TIP3   OH2 5291   1.167   1.154   0.430
 1762TIP3    H1 5292   1.237   1.092   0.411
 1762TIP3    H2 5293   1.197   1.203   0.507
 1763TIP3   OH2 5294   5.910   1.768   0.174
 1763TIP3    H1 5295   5.821   1.797   0.196
 1763TIP3    H2 5296   5.932   1.705   0.243
 1764TIP3   OH2 5297   3.000   5.120   4.986
 1764TIP3    H1 5298   3.050   5.062   5.043
 1764TIP3    H2 5299   2.929   5.065   4.953
 1765TIP3   OH2 5300   2.016   0.453   4.310
 1765TIP3    H1 5301   1.992   0.538   4.347
 1765TIP3    H2 5302   2.067   0.410   4.378
 1766TIP3   OH2 5303   2.497   0.317   1.589
 1766TIP3    H1 5304   2.455   0.296   1.672
 1766TIP3    H2 5305   2.469   0.247   1.530
 1767TIP3   OH2 5306   4.320   6.004   1.305
 1767TIP3    H1 5307   4.298   5.949   1.380
 1767TIP3    H2 5308   4.311   5.945   1.229
 1768TIP3   OH2 5309   3.475   5.237   3.376
 1768TIP3    H1 5310   3.393   5.264   3.416
 1768TIP3    H2 5311   3.538   5.304   3.403
 1769TIP3   OH2 5312   5.885   3.317   0.312
 1769TIP3    H1 5313   5.906   3.385   0.247
 1769TIP3    H2 5314   5.962   3.315   0.369
 1770TIP3   OH2 5315   3.032   0.678   0.081
 1770TIP3    H1 5316   3.085   0.685   0.002
 1770TIP3    H2 5317   2.981   0.598   0.069
 1771TIP3   OH2 5318   3.691   1.995   1.724
 1771TIP3    H1 5319   3.695   1.984   1.819
 1771TIP3    H2 5320   3.597   2.002   1.705
 1772TIP3   OH2 5321   4.161   3.703   2.520
 1772TIP3    H1 5322   4.089   3.727   2.461
 1772TIP3    H2 5323   4.153   3.608   2.530
 1773TIP3   OH2 5324   1.551   1.249   3.822
 1773TIP3    H1 5325   1.536   1.155   3.816
 1773TIP3    H2 5326   1.571   1.264   3.914
 1774TIP3   OH2 5327   6.363   2.665   1.851
 1774TIP3    H1 5328   6.281   2.703   1.881
 1774TIP3    H2 5329   6.369   2.581   1.895
 1775TIP3   OH2 5330   1.677   1.485   4.872
 1775TIP3    H1 5331   1.632   1.440   4.943
 1775TIP3    H2 5332   1.736   1.547   4.916
 1776TIP3   OH2 5333   3.394   5.181   0.060
 1776TIP3    H1 5334   3.371   5.089   0.049
 1776TIP3    H2 5335   3.390   5.217  -0.028
 1777TIP3   OH2 5336   4.846   2.489   4.720
 1777TIP3    H1 5337   4.813   2.411   4.765
 1777TIP3    H2 5338   4.889   2.540   4.788
 1778TIP3   OH2 5339   1.555   3.504   3.493
 1778TIP3    H1 5340   1.492   3.432   3.486
 1778TIP3    H2 5341   1.552   3.530   3.585
 1779TIP3   OH2 5342   5.376   0.062   3.535
 1779TIP3    H1 5343   5.346   0.035   3.448
 1779TIP3    H2 5344   5.462   0.021   3.545
 1780TIP3   OH2 5345   4.322   0.097   1.111
 1780TIP3    H1 5346   4.351   0.011   1.081
 1780TIP3    H2 5347   4.381   0.119   1.183
 1781TIP3   OH2 5348   0.611   1.640   4.881
 1781TIP3    H1 5349   0.663   1.572   4.838
 1781TIP3    H2 5350   0.526   1.599   4.898
 1782TIP3   OH2 5351   2.764   2.257   4.709
 1782TIP3    H1 5352   2.678   2.240   4.669
 1782TIP3    H2 5353   2.783   2.348   4.686
 1783TIP3   OH2 5354   1.206   0.214   3.563
 1783TIP3    H1 5355   1.163   0.279   3.617
 1783TIP3    H2 5356   1.245   0.152   3.625
 1784TIP3   OH2 5357   5.976   2.803   1.452
 1784TIP3    H1 5358   5.949   2.892   1.434
 1784TIP3    H2 5359   5.897   2.750   1.440
 1785TIP3   OH2 5360   4.517   4.153   3.550
 1785TIP3    H1 5361   4.473   4.068   3.549
 1785TIP3    H2 5362   4.553   4.163   3.462
 1786TIP3   OH2 5363   1.955   2.837   0.470
 1786TIP3    H1 5364   2.031   2.895   0.462
 1786TIP3    H2 5365   1.982   2.772   0.535
 1787TIP3   OH2 5366   3.861   5.898   1.466
 1787TIP3    H1 5367   3.782   5.872   1.419
 1787TIP3    H2 5368   3.868   5.992   1.452
 1788TIP3   OH2 5369   6.261   2.582   4.134
 1788TIP3    H1 5370   6.355   2.585   4.147
 1788TIP3    H2 5371   6.250   2.541   4.048
 1789TIP3   OH2 5372   3.648   3.507   2.238
 1789TIP3    H1 5373   3.676   3.417   2.255
 1789TIP3    H2 5374   3.724   3.560   2.261
 1790TIP3   OH2 5375   5.238   1.386   1.613
 1790TIP3    H1 5376   5.270   1.297   1.599
 1790TIP3    H2 5377   5.221   1.420   1.525
 1791TIP3   OH2 5378   2.776   5.365   3.644
 1791TIP3    H1 5379   2.790   5.388   3.552
 1791TIP3    H2 5380   2.858   5.322   3.670
 1792TIP3   OH2 5381   3.868   0.494   4.899
 1792TIP3    H1 5382   3.900   0.444   4.974
 1792TIP3    H2 5383   3.773   0.482   4.902
 1793TIP3   OH2 5384   0.174   0.322   3.673
 1793TIP3    H1 5385   0.245   0.261   3.654
 1793TIP3    H2 5386   0.153   0.362   3.589
 1794TIP3   OH2 5387   0.530   1.303   4.421
 1794TIP3    H1 5388   0.516   1.302   4.516
 1794TIP3    H2 5389   0.593   1.374   4.408
 1795TIP3   OH2 5390   3.695   0.210   5.159
 1795TIP3    H1 5391   3.781   0.251   5.166
 1795TIP3    H2 5392   3.634   0.278   5.188
 1796TIP3   OH2 5393   2.832   5.653   2.045
 1796TIP3    H1 5394   2.788   5.631   1.963
 1796TIP3    H2 5395   2.777   5.721   2.084
 1797TIP3   OH2 5396   2.071   1.755   0.286
 1797TIP3    H1 5397   2.035   1.801   0.210
 1797TIP3    H2 5398   1.995   1.737   0.341
 1798TIP3   OH2 5399   2.729   1.403   0.747
 1798TIP3    H1 5400   2.669   1.347   0.699
 1798TIP3    H2 5401   2.815   1.362   0.734
 1799TIP3   OH2 5402   4.970   5.078   3.336
 1799TIP3    H1 5403   5.013   5.015   3.278
 1799TIP3    H2 5404   4.985   5.163   3.295
 1800TIP3   OH2 5405   2.602   3.159   1.894
 1800TIP3    H1 5406   2.522   3.173   1.945
 1800TIP3    H2 5407   2.637   3.247   1.882
 1801TIP3   OH2 5408   3.749   0.759   4.448
 1801TIP3    H1 5409   3.685   0.719   4.507
 1801TIP3    H2 5410   3.740   0.853   4.463
 1802TIP3   OH2 5411   2.065   1.956   0.604
 1802TIP3    H1 5412   2.147   1.975   0.649
 1802TIP3    H2 5413   2.009   2.032   0.623
 1803TIP3   OH2 5414   2.252   2.478   0.775
 1803TIP3    H1 5415   2.327   2.450   0.723
 1803TIP3    H2 5416   2.287   2.492   0.863
 1804TIP3   OH2 5417   5.176   3.288   0.150
 1804TIP3    H1 5418   5.236   3.242   0.092
 1804TIP3    H2 5419   5.222   3.295   0.233
 1805TIP3   OH2 5420   4.617   3.593   4.862
 1805TIP3    H1 5421   4.589   3.505   4.837
 1805TIP3    H2 5422   4.696   3.578   4.915
 1806TIP3   OH2 5423   4.997   4.286   2.540
 1806TIP3    H1 5424   4.931   4.250   2.480
 1806TIP3    H2 5425   4.947   4.344   2.597
 1807TIP3   OH2 5426   1.809   2.872   2.039
 1807TIP3    H1 5427   1.829   2.958   2.002
 1807TIP3    H2 5428   1.825   2.881   2.133
 1808TIP3   OH2 5429   6.132   0.425   2.430
 1808TIP3    H1 5430   6.218   0.390   2.406
 1808TIP3    H2 5431   6.118   0.497   2.369
 1809TIP3   OH2 5432   3.671   1.927   1.976
 1809TIP3    H1 5433   3.721   1.991   2.026
 1809TIP3    H2 5434   3.687   1.844   2.020
 1810TIP3   OH2 5435   5.388   3.374   1.561
 1810TIP3    H1 5436   5.439   3.297   1.585
 1810TIP3    H2 5437   5.404   3.437   1.632
 1811TIP3   OH2 5438   5.607   6.023   0.514
 1811TIP3    H1 5439   5.641   5.944   0.472
 1811TIP3    H2 5440   5.524   5.995   0.553
 1812TIP3   OH2 5441   1.017   1.917   1.052
 1812TIP3    H1 5442   0.971   1.857   1.111
 1812TIP3    H2 5443   0.950   1.944   0.989
 1813TIP3   OH2 5444   5.278   1.407   0.053
 1813TIP3    H1 5445   5.332   1.475   0.093
 1813TIP3    H2 5446   5.320   1.325   0.079
 1814TIP3   OH2 5447   3.651   3.201   1.162
 1814TIP3    H1 5448   3.594   3.272   1.192
 1814TIP3    H2 5449   3.598   3.152   1.100
 1815TIP3   OH2 5450   4.397   4.803   3.926
 1815TIP3    H1 5451   4.474   4.780   3.876
 1815TIP3    H2 5452   4.328   4.744   3.893
 1816TIP3   OH2 5453   5.211   5.468   1.527
 1816TIP3    H1 5454   5.257   5.552   1.524
 1816TIP3    H2 5455   5.135   5.480   1.470
 1817TIP3   OH2 5456   4.462   3.283   1.271
 1817TIP3    H1 5457   4.423   3.369   1.285
 1817TIP3    H2 5458   4.440   3.261   1.180
 1818TIP3   OH2 5459   5.126   2.711   2.129
 1818TIP3    H1 5460   5.036   2.735   2.108
 1818TIP3    H2 5461   5.147   2.641   2.068
 1819TIP3   OH2 5462   0.839   4.978   1.222
 1819TIP3    H1 5463   0.915   5.001   1.168
 1819TIP3    H2 5464   0.825   4.885   1.205
 1820TIP3   OH2 5465   2.685   4.174   1.588
 1820TIP3    H1 5466   2.701   4.113   1.516
 1820TIP3    H2 5467   2.612   4.135   1.636
 1821TIP3   OH2 5468   4.422   0.813   5.121
 1821TIP3    H1 5469   4.422   0.806   5.025
 1821TIP3    H2 5470   4.511   0.842   5.143
 1822TIP3   OH2 5471   0.681   0.823   4.852
 1822TIP3    H1 5472   0.613   0.805   4.917
 1822TIP3    H2 5473   0.744   0.752   4.862
 1823TIP3   OH2 5474   2.784   4.073   4.447
 1823TIP3    H1 5475   2.761   4.098   4.357
 1823TIP3    H2 5476   2.858   4.130   4.469
 1824TIP3   OH2 5477   4.057   3.269   4.972
 1824TIP3    H1 5478   4.062   3.364   4.974
 1824TIP3    H2 5479   4.136   3.242   4.925
 1825TIP3   OH2 5480   6.294   1.354   5.059
 1825TIP3    H1 5481   6.209   1.317   5.034
 1825TIP3    H2 5482   6.347   1.350   4.980
 1826TIP3   OH2 5483   4.590   1.575   4.764
 1826TIP3    H1 5484   4.592   1.553   4.858
 1826TIP3    H2 5485   4.546   1.501   4.723
 1827TIP3   OH2 5486   3.082   3.859   3.835
 1827TIP3    H1 5487   3.084   3.903   3.920
 1827TIP3    H2 5488   3.021   3.911   3.783
 1828TIP3   OH2 5489   4.960   0.506   3.863
 1828TIP3    H1 5490   4.930   0.416   3.872
 1828TIP3    H2 5491   4.984   0.533   3.952
 1829TIP3   OH2 5492   1.636   4.562   0.326
 1829TIP3    H1 5493   1.715   4.616   0.322
 1829TIP3    H2 5494   1.565   4.624   0.339
 1830TIP3   OH2 5495   5.342   1.401   4.666
 1830TIP3    H1 5496   5.274   1.430   4.727
 1830TIP3    H2 5497   5.294   1.363   4.592
 1831TIP3   OH2 5498   3.386   3.331   1.011
 1831TIP3    H1 5499   3.418   3.242   0.996
 1831TIP3    H2 5500   3.291   3.323   1.013
 1832TIP3   OH2 5501   4.092   1.245   0.746
 1832TIP3    H1 5502   4.059   1.310   0.685
 1832TIP3    H2 5503   4.156   1.195   0.695
 1833TIP3   OH2 5504   4.953   5.716   2.223
 1833TIP3    H1 5505   5.012   5.785   2.192
 1833TIP3    H2 5506   4.929   5.667   2.143
 1834TIP3   OH2 5507   3.565   2.513   2.629
 1834TIP3    H1 5508   3.551   2.605   2.655
 1834TIP3    H2 5509   3.478   2.473   2.636
 1835TIP3   OH2 5510   1.096   1.421   0.396
 1835TIP3    H1 5511   1.073   1.413   0.489
 1835TIP3    H2 5512   1.118   1.332   0.370
 1836TIP3   OH2 5513   5.524   3.796   3.733
 1836TIP3    H1 5514   5.536   3.870   3.793
 1836TIP3    H2 5515   5.593   3.808   3.668
 1837TIP3   OH2 5516   0.691   2.321   4.748
 1837TIP3    H1 5517   0.767   2.333   4.691
 1837TIP3    H2 5518   0.658   2.409   4.763
 1838TIP3   OH2 5519   0.814   3.564   2.275
 1838TIP3    H1 5520   0.789   3.480   2.313
 1838TIP3    H2 5521   0.753   3.576   2.203
 1839TIP3   OH2 5522   6.035   1.107   0.713
 1839TIP3    H1 5523   5.972   1.155   0.659
 1839TIP3    H2 5524   5.982   1.065   0.780
 1840TIP3   OH2 5525   5.072   2.130   0.873
 1840TIP3    H1 5526   5.010   2.135   0.800
 1840TIP3    H2 5527   5.152   2.095   0.834
 1841TIP3   OH2 5528   5.632   0.106   1.247
 1841TIP3    H1 5529   5.569   0.038   1.272
 1841TIP3    H2 5530   5.711   0.083   1.294
 1842TIP3   OH2 5531   0.534   1.406   3.843
 1842TIP3    H1 5532   0.626   1.385   3.831
 1842TIP3    H2 5533   0.529   1.447   3.929
 1843TIP3   OH2 5534   1.667   3.790   3.672
 1843TIP3    H1 5535   1.659   3.786   3.577
 1843TIP3    H2 5536   1.629   3.707   3.703
 1844TIP3   OH2 5537   2.622   5.116   2.566
 1844TIP3    H1 5538   2.672   5.184   2.611
 1844TIP3    H2 5539   2.629   5.040   2.623
 1845TIP3   OH2 5540   0.557   3.728   3.530
 1845TIP3    H1 5541   0.593   3.666   3.467
 1845TIP3    H2 5542   0.511   3.673   3.594
 1846TIP3   OH2 5543   2.123   4.801   4.489
 1846TIP3    H1 5544   2.110   4.775   4.580
 1846TIP3    H2 5545   2.050   4.763   4.442
 1847TIP3   OH2 5546   1.186   0.101   3.296
 1847TIP3    H1 5547   1.226   0.142   3.373
 1847TIP3    H2 5548   1.198   0.165   3.226
 1848TIP3   OH2 5549   4.126   4.598   2.319
 1848TIP3    H1 5550   4.135   4.693   2.312
 1848TIP3    H2 5551   4.216   4.565   2.313
 1849TIP3   OH2 5552   1.385   5.236   0.667
 1849TIP3    H1 5553   1.357   5.323   0.696
 1849TIP3    H2 5554   1.325   5.176   0.710
 1850TIP3   OH2 5555   3.079   2.562   3.768
 1850TIP3    H1 5556   3.018   2.601   3.705
 1850TIP3    H2 5557   3.085   2.470   3.740
 1851TIP3   OH2 5558   3.298   5.853   0.562
 1851TIP3    H1 5559   3.287   5.932   0.510
 1851TIP3    H2 5560   3.272   5.878   0.650
 1852TIP3   OH2 5561   1.624   2.476   1.897
 1852TIP3    H1 5562   1.622   2.442   1.986
 1852TIP3    H2 5563   1.562   2.421   1.849
 1853TIP3   OH2 5564   0.782   2.589   2.691
 1853TIP3    H1 5565   0.855   2.649   2.671
 1853TIP3    H2 5566   0.751   2.618   2.777
 1854TIP3   OH2 5567   5.426   1.029   1.858
 1854TIP3    H1 5568   5.407   1.096   1.924
 1854TIP3    H2 5569   5.445   1.078   1.778
 1855TIP3   OH2 5570   6.357   5.812   1.502
 1855TIP3    H1 5571   6.371   5.903   1.526
 1855TIP3    H2 5572   6.401   5.762   1.570
 1856TIP3   OH2 5573   0.137   0.583   2.545
 1856TIP3    H1 5574   0.067   0.634   2.504
 1856TIP3    H2 5575   0.217   0.611   2.500
 1857TIP3   OH2 5576   0.311   2.095   4.968
 1857TIP3    H1 5577   0.271   2.009   4.953
 1857TIP3    H2 5578   0.405   2.077   4.972
 1858TIP3   OH2 5579   3.220   5.718   3.399
 1858TIP3    H1 5580   3.295   5.680   3.354
 1858TIP3    H2 5581   3.194   5.792   3.343
 1859TIP3   OH2 5582   0.740   0.541   0.021
 1859TIP3    H1 5583   0.747   0.503   0.109
 1859TIP3    H2 5584   0.824   0.523  -0.020
 1860TIP3   OH2 5585   2.202   2.555   2.230
 1860TIP3    H1 5586   2.149   2.496   2.176
 1860TIP3    H2 5587   2.248   2.497   2.291
 1861TIP3   OH2 5588   5.319   4.592   3.555
 1861TIP3    H1 5589   5.409   4.582   3.527
 1861TIP3    H2 5590   5.301   4.515   3.609
 1862TIP3   OH2 5591   2.946   5.024   2.482
 1862TIP3    H1 5592   2.993   5.011   2.399
 1862TIP3    H2 5593   2.989   5.100   2.521
 1863TIP3   OH2 5594   3.159   2.442   4.959
 1863TIP3    H1 5595   3.081   2.490   4.933
 1863TIP3    H2 5596   3.231   2.505   4.950
 1864TIP3   OH2 5597   3.098   3.893   0.430
 1864TIP3    H1 5598   3.035   3.824   0.410
 1864TIP3    H2 5599   3.072   3.925   0.516
 1865TIP3   OH2 5600   6.122   3.224   3.387
 1865TIP3    H1 5601   6.175   3.152   3.422
 1865TIP3    H2 5602   6.154   3.302   3.434
 1866TIP3   OH2 5603   3.309   4.000   0.296
 1866TIP3    H1 5604   3.386   3.945   0.285
 1866TIP3    H2 5605   3.252   3.951   0.355
 1867TIP3   OH2 5606   2.939   5.632   0.166
 1867TIP3    H1 5607   2.936   5.548   0.212
 1867TIP3    H2 5608   2.990   5.614   0.086
 1868TIP3   OH2 5609   0.859   0.121   0.533
 1868TIP3    H1 5610   0.884   0.133   0.441
 1868TIP3    H2 5611   0.779   0.172   0.543
 1869TIP3   OH2 5612   5.135   5.086   4.919
 1869TIP3    H1 5613   5.213   5.048   4.960
 1869TIP3    H2 5614   5.167   5.163   4.872
 1870TIP3   OH2 5615   3.749   3.441   1.007
 1870TIP3    H1 5616   3.737   3.386   1.085
 1870TIP3    H2 5617   3.774   3.527   1.042
 1871TIP3   OH2 5618   5.625   4.851   1.925
 1871TIP3    H1 5619   5.663   4.880   1.842
 1871TIP3    H2 5620   5.547   4.801   1.899
 1872TIP3   OH2 5621   6.059   3.574   3.134
 1872TIP3    H1 5622   6.124   3.504   3.133
 1872TIP3    H2 5623   5.980   3.534   3.170
 1873TIP3   OH2 5624   3.278   2.413  -0.004
 1873TIP3    H1 5625   3.319   2.336   0.035
 1873TIP3    H2 5626   3.336   2.437  -0.076
 1874TIP3   OH2 5627   4.621   1.647   0.720
 1874TIP3    H1 5628   4.648   1.608   0.636
 1874TIP3    H2 5629   4.680   1.609   0.784
 1875TIP3   OH2 5630   0.036   0.120   4.833
 1875TIP3    H1 5631   0.049   0.215   4.825
 1875TIP3    H2 5632   0.095   0.094   4.904
 1876TIP3   OH2 5633   4.374   3.226   1.798
 1876TIP3    H1 5634   4.332   3.154   1.846
 1876TIP3    H2 5635   4.467   3.202   1.797
 1877TIP3   OH2 5636   2.774   4.116   1.851
 1877TIP3    H1 5637   2.758   4.210   1.858
 1877TIP3    H2 5638   2.745   4.093   1.763
 1878TIP3   OH2 5639   0.445   2.896   3.570
 1878TIP3    H1 5640   0.507   2.964   3.599
 1878TIP3    H2 5641   0.359   2.935   3.584
 1879TIP3   OH2 5642   1.977   4.014   4.363
 1879TIP3    H1 5643   2.007   4.096   4.403
 1879TIP3    H2 5644   1.921   4.040   4.291
 1880TIP3   OH2 5645   1.047   0.528   4.063
 1880TIP3    H1 5646   0.962   0.486   4.048
 1880TIP3    H2 5647   1.030   0.621   4.049
 1881TIP3   OH2 5648   5.976   5.437   1.034
 1881TIP3    H1 5649   5.996   5.386   0.956
 1881TIP3    H2 5650   6.050   5.422   1.093
 1882TIP3   OH2 5651   4.502   3.442   0.159
 1882TIP3    H1 5652   4.496   3.523   0.109
 1882TIP3    H2 5653   4.422   3.394   0.136
 1883TIP3   OH2 5654   5.517   1.793   1.760
 1883TIP3    H1 5655   5.606   1.757   1.767
 1883TIP3    H2 5656   5.502   1.800   1.666
 1884TIP3   OH2 5657   3.277   3.144   0.539
 1884TIP3    H1 5658   3.183   3.132   0.524
 1884TIP3    H2 5659   3.285   3.234   0.572
 1885TIP3   OH2 5660   2.137   3.007   4.854
 1885TIP3    H1 5661   2.155   2.926   4.805
 1885TIP3    H2 5662   2.212   3.064   4.834
 1886TIP3   OH2 5663   3.224   2.231   2.888
 1886TIP3    H1 5664   3.208   2.233   2.794
 1886TIP3    H2 5665   3.270   2.148   2.902
 1887TIP3   OH2 5666   5.659   3.271   0.649
 1887TIP3    H1 5667   5.579   3.285   0.700
 1887TIP3    H2 5668   5.675   3.356   0.608
 1888TIP3   OH2 5669   0.522   4.238   4.603
 1888TIP3    H1 5670   0.434   4.229   4.639
 1888TIP3    H2 5671   0.544   4.151   4.570
 1889TIP3   OH2 5672   6.023   5.517   3.822
 1889TIP3    H1 5673   6.112   5.513   3.789
 1889TIP3    H2 5674   5.968   5.504   3.745
 1890TIP3   OH2 5675   1.976   4.935   4.219
 1890TIP3    H1 5676   2.020   4.904   4.140
 1890TIP3    H2 5677   2.009   4.877   4.288
 1891TIP3   OH2 5678   1.159   5.053   4.349
 1891TIP3    H1 5679   1.211   5.094   4.418
 1891TIP3    H2 5680   1.123   5.126   4.299
 1892TIP3   OH2 5681   0.960   3.851   1.051
 1892TIP3    H1 5682   0.996   3.811   0.972
 1892TIP3    H2 5683   0.891   3.909   1.019
 1893TIP3   OH2 5684   2.113   5.738   0.815
 1893TIP3    H1 5685   2.019   5.736   0.799
 1893TIP3    H2 5686   2.134   5.651   0.849
 1894TIP3   OH2 5687   0.596   0.563   2.818
 1894TIP3    H1 5688   0.540   0.492   2.789
 1894TIP3    H2 5689   0.581   0.634   2.755
 1895TIP3   OH2 5690   1.003   4.952   4.090
 1895TIP3    H1 5691   0.954   4.939   4.009
 1895TIP3    H2 5692   0.937   4.951   4.159
 1896TIP3   OH2 5693   1.099   2.371   1.095
 1896TIP3    H1 5694   1.128   2.289   1.136
 1896TIP3    H2 5695   1.006   2.357   1.078
 1897TIP3   OH2 5696   3.378   2.870   4.769
 1897TIP3    H1 5697   3.471   2.863   4.746
 1897TIP3    H2 5698   3.364   2.964   4.780
 1898TIP3   OH2 5699   5.201   0.754   4.960
 1898TIP3    H1 5700   5.222   0.665   4.930
 1898TIP3    H2 5701   5.143   0.788   4.892
 1899TIP3   OH2 5702   4.434   3.427   3.998
 1899TIP3    H1 5703   4.416   3.507   3.948
 1899TIP3    H2 5704   4.524   3.404   3.975
 1900TIP3   OH2 5705   0.471   2.011   3.787
 1900TIP3    H1 5706   0.490   2.088   3.733
 1900TIP3    H2 5707   0.447   2.046   3.872
 1901TIP3   OH2 5708   5.605   5.581   1.171
 1901TIP3    H1 5709   5.687   5.593   1.218
 1901TIP3    H2 5710   5.560   5.512   1.219
 1902TIP3   OH2 5711   5.316   4.255   0.310
 1902TIP3    H1 5712   5.368   4.177   0.295
 1902TIP3    H2 5713   5.245   4.226   0.367
 1903TIP3   OH2 5714   6.312   3.393   4.934
 1903TIP3    H1 5715   6.386   3.433   4.888
 1903TIP3    H2 5716   6.275   3.464   4.986
 1904TIP3   OH2 5717   1.127   2.471   2.172
 1904TIP3    H1 5718   1.057   2.469   2.107
 1904TIP3    H2 5719   1.084   2.451   2.255
 1905TIP3   OH2 5720   1.901   3.141   4.905
 1905TIP3    H1 5721   1.963   3.074   4.875
 1905TIP3    H2 5722   1.927   3.159   4.995
 1906TIP3   OH2 5723   1.323   4.845   4.397
 1906TIP3    H1 5724   1.412   4.875   4.418
 1906TIP3    H2 5725   1.269   4.923   4.409
 1907TIP3   OH2 5726   0.500   2.293   5.213
 1907TIP3    H1 5727   0.524   2.277   5.304
 1907TIP3    H2 5728   0.583   2.310   5.169
 1908TIP3   OH2 5729   4.822   2.348   3.167
 1908TIP3    H1 5730   4.908   2.307   3.156
 1908TIP3    H2 5731   4.786   2.353   3.079
 1909TIP3   OH2 5732   3.330   0.202   2.608
 1909TIP3    H1 5733   3.276   0.184   2.532
 1909TIP3    H2 5734   3.316   0.127   2.666
 1910TIP3   OH2 5735   6.206   2.874   1.153
 1910TIP3    H1 5736   6.114   2.897   1.164
 1910TIP3    H2 5737   6.254   2.955   1.171
 1911TIP3   OH2 5738   0.454   4.148   1.088
 1911TIP3    H1 5739   0.516   4.118   1.154
 1911TIP3    H2 5740   0.484   4.236   1.065
 1912TIP3   OH2 5741   5.259   0.505   3.109
 1912TIP3    H1 5742   5.294   0.473   3.192
 1912TIP3    H2 5743   5.180   0.554   3.134
 1913TIP3   OH2 5744   5.830   1.473   1.112
 1913TIP3    H1 5745   5.793   1.386   1.097
 1913TIP3    H2 5746   5.803   1.496   1.200
 1914TIP3   OH2 5747   4.100   5.557   4.002
 1914TIP3    H1 5748   4.105   5.560   3.906
 1914TIP3    H2 5749   4.039   5.626   4.026
 1915TIP3   OH2 5750   5.996   0.077   3.498
 1915TIP3    H1 5751   5.962  -0.004   3.460
 1915TIP3    H2 5752   5.929   0.104   3.560
 1916TIP3   OH2 5753   5.483   1.847   4.164
 1916TIP3    H1 5754   5.550   1.911   4.188
 1916TIP3    H2 5755   5.488   1.780   4.231
 1917TIP3   OH2 5756   6.238   0.611   4.317
 1917TIP3    H1 5757   6.277   0.556   4.249
 1917TIP3    H2 5758   6.145   0.586   4.318
 1918TIP3   OH2 5759   5.794   1.682   4.361
 1918TIP3    H1 5760   5.746   1.627   4.300
 1918TIP3    H2 5761   5.812   1.626   4.436
 1919TIP3   OH2 5762   4.270   2.915   2.122
 1919TIP3    H1 5763   4.341   2.946   2.179
 1919TIP3    H2 5764   4.296   2.826   2.098
 1920TIP3   OH2 5765   0.655   4.287   2.544
 1920TIP3    H1 5766   0.699   4.294   2.460
 1920TIP3    H2 5767   0.691   4.207   2.583
 1921TIP3   OH2 5768   3.076   3.081   3.655
 1921TIP3    H1 5769   3.135   3.153   3.672
 1921TIP3    H2 5770   3.083   3.065   3.561
 1922TIP3   OH2 5771   2.670   2.070   0.059
 1922TIP3    H1 5772   2.754   2.105   0.090
 1922TIP3    H2 5773   2.694   2.010  -0.012
 1923TIP3   OH2 5774   3.337   3.685   3.984
 1923TIP3    H1 5775   3.339   3.629   3.906
 1923TIP3    H2 5776   3.417   3.737   3.978
 1924TIP3   OH2 5777   3.726   4.805   0.115
 1924TIP3    H1 5778   3.766   4.723   0.087
 1924TIP3    H2 5779   3.649   4.814   0.061
 1925TIP3   OH2 5780   3.042   1.767   1.048
 1925TIP3    H1 5781   3.072   1.695   1.104
 1925TIP3    H2 5782   2.948   1.773   1.065
 1926TIP3   OH2 5783   1.166   3.882   3.245
 1926TIP3    H1 5784   1.239   3.838   3.288
 1926TIP3    H2 5785   1.129   3.938   3.313
 1927TIP3   OH2 5786   3.564   4.638   1.013
 1927TIP3    H1 5787   3.505   4.588   0.957
 1927TIP3    H2 5788   3.638   4.579   1.030
 1928TIP3   OH2 5789   1.561   2.147   2.359
 1928TIP3    H1 5790   1.499   2.189   2.418
 1928TIP3    H2 5791   1.583   2.064   2.403
 1929TIP3   OH2 5792   0.421   5.269   1.151
 1929TIP3    H1 5793   0.339   5.234   1.187
 1929TIP3    H2 5794   0.393   5.323   1.076
 1930TIP3   OH2 5795   0.982   1.067   4.305
 1930TIP3    H1 5796   0.929   1.072   4.385
 1930TIP3    H2 5797   0.950   1.139   4.250
 1931TIP3   OH2 5798   4.179   2.288   4.544
 1931TIP3    H1 5799   4.203   2.197   4.530
 1931TIP3    H2 5800   4.251   2.338   4.506
 1932TIP3   OH2 5801   4.009   1.156   3.870
 1932TIP3    H1 5802   4.027   1.099   3.796
 1932TIP3    H2 5803   4.071   1.128   3.938
 1933TIP3   OH2 5804   5.996   5.202   4.240
 1933TIP3    H1 5805   5.929   5.134   4.229
 1933TIP3    H2 5806   6.023   5.223   4.151
 1934TIP3   OH2 5807   3.651   1.025   4.474
 1934TIP3    H1 5808   3.572   1.052   4.520
 1934TIP3    H2 5809   3.706   1.104   4.473
 1935TIP3   OH2 5810   3.305   0.499   2.528
 1935TIP3    H1 5811   3.332   0.417   2.569
 1935TIP3    H2 5812   3.218   0.516   2.563
 1936TIP3   OH2 5813   2.314   5.370   4.699
 1936TIP3    H1 5814   2.372   5.423   4.754
 1936TIP3    H2 5815   2.270   5.311   4.759
 1937TIP3   OH2 5816   1.619   5.077   0.951
 1937TIP3    H1 5817   1.674   5.055   1.026
 1937TIP3    H2 5818   1.540   5.024   0.962
 1938TIP3   OH2 5819   0.081   4.014   4.151
 1938TIP3    H1 5820   0.151   3.983   4.093
 1938TIP3    H2 5821   0.071   3.944   4.216
 1939TIP3   OH2 5822   4.509   2.680   4.145
 1939TIP3    H1 5823   4.569   2.663   4.218
 1939TIP3    H2 5824   4.563   2.720   4.078
 1940TIP3   OH2 5825   0.510   0.763   3.026
 1940TIP3    H1 5826   0.444   0.704   3.062
 1940TIP3    H2 5827   0.562   0.708   2.968
 1941TIP3   OH2 5828   5.625   2.273   0.102
 1941TIP3    H1 5829   5.641   2.356   0.057
 1941TIP3    H2 5830   5.659   2.206   0.042
 1942TIP3   OH2 5831   5.846   0.622   3.843
 1942TIP3    H1 5832   5.771   0.583   3.888
 1942TIP3    H2 5833   5.808   0.685   3.782
 1943TIP3   OH2 5834   0.686   0.231   1.240
 1943TIP3    H1 5835   0.596   0.251   1.218
 1943TIP3    H2 5836   0.714   0.304   1.296
 1944TIP3   OH2 5837   1.265   4.944   4.107
 1944TIP3    H1 5838   1.170   4.954   4.111
 1944TIP3    H2 5839   1.294   4.946   4.199
 1945TIP3   OH2 5840   3.047   0.329   1.709
 1945TIP3    H1 5841   3.097   0.249   1.728
 1945TIP3    H2 5842   3.030   0.325   1.615
 1946TIP3   OH2 5843   3.659   3.880   4.405
 1946TIP3    H1 5844   3.610   3.916   4.479
 1946TIP3    H2 5845   3.742   3.929   4.405
 1947TIP3   OH2 5846   2.072   2.686   0.675
 1947TIP3    H1 5847   2.047   2.708   0.765
 1947TIP3    H2 5848   2.141   2.621   0.685
 1948TIP3   OH2 5849   5.711   3.783   3.119
 1948TIP3    H1 5850   5.769   3.859   3.123
 1948TIP3    H2 5851   5.625   3.821   3.098
 1949TIP3   OH2 5852   1.043   4.937   4.578
 1949TIP3    H1 5853   0.988   4.875   4.530
 1949TIP3    H2 5854   1.098   4.977   4.510
 1950TIP3   OH2 5855   5.756   5.389   4.712
 1950TIP3    H1 5856   5.851   5.376   4.710
 1950TIP3    H2 5857   5.738   5.449   4.640
 1951TIP3   OH2 5858   3.856   0.584   1.962
 1951TIP3    H1 5859   3.782   0.534   1.997
 1951TIP3    H2 5860   3.926   0.571   2.026
 1952TIP3   OH2 5861   3.742   5.536   1.162
 1952TIP3    H1 5862   3.739   5.568   1.072
 1952TIP3    H2 5863   3.832   5.508   1.175
 1953TIP3   OH2 5864   5.517   3.989   4.584
 1953TIP3    H1 5865   5.425   3.969   4.569
 1953TIP3    H2 5866   5.536   3.952   4.671
 1954TIP3   OH2 5867   3.331   0.579   1.493
 1954TIP3    H1 5868   3.414   0.562   1.536
 1954TIP3    H2 5869   3.290   0.648   1.546
 1955TIP3   OH2 5870   5.924   5.439   0.683
 1955TIP3    H1 5871   5.880   5.394   0.610
 1955TIP3    H2 5872   5.853   5.474   0.736
 1956TIP3   OH2 5873   1.852   1.408   1.707
 1956TIP3    H1 5874   1.760   1.433   1.700
 1956TIP3    H2 5875   1.857   1.322   1.665
 1957TIP3   OH2 5876   0.519   2.359   2.879
 1957TIP3    H1 5877   0.484   2.350   2.968
 1957TIP3    H2 5878   0.547   2.450   2.874
 1958TIP3   OH2 5879   1.139   4.071   4.753
 1958TIP3    H1 5880   1.144   4.137   4.684
 1958TIP3    H2 5881   1.068   4.012   4.725
 1959TIP3   OH2 5882   2.084   0.523   0.118
 1959TIP3    H1 5883   2.130   0.468   0.055
 1959TIP3    H2 5884   2.049   0.463   0.183
 1960TIP3   OH2 5885   5.293   0.425   1.983
 1960TIP3    H1 5886   5.270   0.337   2.014
 1960TIP3    H2 5887   5.208   0.466   1.963
 1961TIP3   OH2 5888   1.338   4.609   2.587
 1961TIP3    H1 5889   1.273   4.679   2.596
 1961TIP3    H2 5890   1.421   4.655   2.573
 1962TIP3   OH2 5891   4.739   1.312   0.629
 1962TIP3    H1 5892   4.783   1.243   0.579
 1962TIP3    H2 5893   4.802   1.338   0.695
 1963TIP3   OH2 5894   5.108   2.094   2.328
 1963TIP3    H1 5895   5.121   2.043   2.408
 1963TIP3    H2 5896   5.151   2.043   2.260
 1964TIP3   OH2 5897   5.665   5.590   0.505
 1964TIP3    H1 5898   5.601   5.579   0.575
 1964TIP3    H2 5899   5.669   5.504   0.462
 1965TIP3   OH2 5900   4.267   4.102   0.959
 1965TIP3    H1 5901   4.252   4.030   0.898
 1965TIP3    H2 5902   4.321   4.063   1.028
 1966TIP3   OH2 5903   0.475   4.706   4.043
 1966TIP3    H1 5904   0.463   4.639   3.976
 1966TIP3    H2 5905   0.406   4.770   4.026
 1967TIP3   OH2 5906   5.446   4.257   2.945
 1967TIP3    H1 5907   5.428   4.349   2.964
 1967TIP3    H2 5908   5.538   4.255   2.919
 1968TIP3   OH2 5909   1.751   4.603   4.928
 1968TIP3    H1 5910   1.734   4.558   4.845
 1968TIP3    H2 5911   1.683   4.570   4.987
 1969TIP3   OH2 5912   5.872   1.199   4.662
 1969TIP3    H1 5913   5.809   1.133   4.632
 1969TIP3    H2 5914   5.836   1.230   4.745
 1970TIP3   OH2 5915   6.244   1.217   1.149
 1970TIP3    H1 5916   6.274   1.149   1.210
 1970TIP3    H2 5917   6.252   1.299   1.197
 1971TIP3   OH2 5918   5.599   2.430   2.386
 1971TIP3    H1 5919   5.615   2.495   2.317
 1971TIP3    H2 5920   5.627   2.347   2.348
 1972TIP3   OH2 5921   0.071   4.693   3.768
 1972TIP3    H1 5922  -0.008   4.656   3.806
 1972TIP3    H2 5923   0.042   4.735   3.687
 1973TIP3   OH2 5924   0.076   4.137   0.284
 1973TIP3    H1 5925   0.018   4.156   0.210
 1973TIP3    H2 5926   0.082   4.042   0.286
 1974TIP3   OH2 5927   2.967   2.149   0.505
 1974TIP3    H1 5928   3.018   2.230   0.504
 1974TIP3    H2 5929   2.882   2.174   0.541
 1975TIP3   OH2 5930   5.240   3.163   4.885
 1975TIP3    H1 5931   5.195   3.079   4.878
 1975TIP3    H2 5932   5.325   3.148   4.842
 1976TIP3   OH2 5933   4.888   0.228   3.888
 1976TIP3    H1 5934   4.936   0.209   3.968
 1976TIP3    H2 5935   4.916   0.161   3.825
 1977TIP3   OH2 5936   4.086   2.529   4.752
 1977TIP3    H1 5937   4.064   2.455   4.810
 1977TIP3    H2 5938   4.027   2.599   4.780
 1978TIP3   OH2 5939   4.382   0.288   2.489
 1978TIP3    H1 5940   4.400   0.236   2.567
 1978TIP3    H2 5941   4.311   0.347   2.515
 1979TIP3   OH2 5942   1.464   5.482   1.072
 1979TIP3    H1 5943   1.543   5.507   1.121
 1979TIP3    H2 5944   1.443   5.394   1.103
 1980TIP3   OH2 5945   2.681   2.950   2.307
 1980TIP3    H1 5946   2.687   3.039   2.271
 1980TIP3    H2 5947   2.658   2.896   2.231
 1981TIP3   OH2 5948   4.962   4.665   4.290
 1981TIP3    H1 5949   5.021   4.738   4.272
 1981TIP3    H2 5950   5.019   4.596   4.325
 1982TIP3   OH2 5951   2.538   5.716   2.783
 1982TIP3    H1 5952   2.627   5.718   2.818
 1982TIP3    H2 5953   2.485   5.761   2.850
 1983TIP3   OH2 5954   4.597   5.299   4.518
 1983TIP3    H1 5955   4.628   5.389   4.511
 1983TIP3    H2 5956   4.535   5.289   4.446
 1984TIP3   OH2 5957   4.982   1.261   1.380
 1984TIP3    H1 5958   5.018   1.200   1.444
 1984TIP3    H2 5959   4.975   1.210   1.299
 1985TIP3   OH2 5960   3.905   4.759   2.003
 1985TIP3    H1 5961   3.900   4.832   1.942
 1985TIP3    H2 5962   3.956   4.692   1.957
 1986TIP3   OH2 5963   1.418   1.622   3.117
 1986TIP3    H1 5964   1.351   1.655   3.177
 1986TIP3    H2 5965   1.501   1.647   3.156
 1987TIP3   OH2 5966   4.018   5.291   3.041
 1987TIP3    H1 5967   4.043   5.275   3.132
 1987TIP3    H2 5968   3.926   5.264   3.035
 1988TIP3   OH2 5969   5.313   2.838   4.522
 1988TIP3    H1 5970   5.361   2.755   4.516
 1988TIP3    H2 5971   5.378   2.905   4.500
 1989TIP3   OH2 5972   3.487   2.490   1.812
 1989TIP3    H1 5973   3.497   2.422   1.879
 1989TIP3    H2 5974   3.569   2.488   1.763
 1990TIP3   OH2 5975   2.532   2.554   4.735
 1990TIP3    H1 5976   2.512   2.644   4.761
 1990TIP3    H2 5977   2.577   2.517   4.811
 1991TIP3   OH2 5978   0.089   5.580   3.427
 1991TIP3    H1 5979   0.034   5.549   3.356
 1991TIP3    H2 5980   0.112   5.501   3.476
 1992TIP3   OH2 5981   4.672   0.510   3.930
 1992TIP3    H1 5982   4.732   0.561   3.984
 1992TIP3    H2 5983   4.718   0.498   3.847
 1993TIP3   OH2 5984   1.322   2.957   3.295
 1993TIP3    H1 5985   1.285   3.045   3.295
 1993TIP3    H2 5986   1.376   2.953   3.216
 1994TIP3   OH2 5987   5.832   5.176   1.805
 1994TIP3    H1 5988   5.787   5.114   1.747
 1994TIP3    H2 5989   5.804   5.262   1.776
 1995TIP3   OH2 5990   1.328   0.355   4.609
 1995TIP3    H1 5991   1.412   0.327   4.574
 1995TIP3    H2 5992   1.305   0.432   4.558
 1996TIP3   OH2 5993   0.197   0.539   4.538
 1996TIP3    H1 5994   0.167   0.551   4.448
 1996TIP3    H2 5995   0.288   0.570   4.538
 1997TIP3   OH2 5996   4.682   2.749   4.648
 1997TIP3    H1 5997   4.715   2.670   4.605
 1997TIP3    H2 5998   4.760   2.792   4.684
 1998TIP3   OH2 5999   5.492   5.306   4.743
 1998TIP3    H1 6000   5.572   5.354   4.759
 1998TIP3    H2 6001   5.450   5.352   4.671
 1999TIP3   OH2 6002   2.971   2.460   1.794
 1999TIP3    H1 6003   3.036   2.444   1.862
 1999TIP3    H2 6004   2.920   2.379   1.789
 2000TIP3   OH2 6005   0.963   2.144   2.508
 2000TIP3    H1 6006   0.942   2.093   2.586
 2000TIP3    H2 6007   1.054   2.122   2.489
 2001TIP3   OH2 6008   3.406   3.436   0.123
 2001TIP3    H1 6009   3.499   3.458   0.120
 2001TIP3    H2 6010   3.368   3.499   0.184
 2002TIP3   OH2 6011   4.421   0.788   2.363
 2002TIP3    H1 6012   4.420   0.882   2.345
 2002TIP3    H2 6013   4.429   0.747   2.277
 2003TIP3   OH2 6014   3.860   1.807   0.794
 2003TIP3    H1 6015   3.769   1.822   0.767
 2003TIP3    H2 6016   3.859   1.824   0.889
 2004TIP3   OH2 6017   5.495   4.955   2.153
 2004TIP3    H1 6018   5.545   4.910   2.085
 2004TIP3    H2 6019   5.461   5.034   2.109
 2005TIP3   OH2 6020   3.274   5.866   0.083
 2005TIP3    H1 6021   3.360   5.853   0.043
 2005TIP3    H2 6022   3.262   5.791   0.141
 2006TIP3   OH2 6023   3.235   0.116   1.716
 2006TIP3    H1 6024   3.293   0.099   1.642
 2006TIP3    H2 6025   3.195   0.031   1.736
 2007TIP3   OH2 6026   4.472   1.232   0.735
 2007TIP3    H1 6027   4.561   1.246   0.703
 2007TIP3    H2 6028   4.430   1.181   0.666
 2008TIP3   OH2 6029   5.054   5.519   1.310
 2008TIP3    H1 6030   5.114   5.462   1.262
 2008TIP3    H2 6031   5.096   5.605   1.310
 2009TIP3   OH2 6032   5.388   5.080   2.800
 2009TIP3    H1 6033   5.329   5.016   2.841
 2009TIP3    H2 6034   5.337   5.161   2.798
 2010TIP3   OH2 6035   3.245   1.392   0.807
 2010TIP3    H1 6036   3.262   1.298   0.811
 2010TIP3    H2 6037   3.183   1.402   0.734
 2011TIP3   OH2 6038   5.202   1.394   3.027
 2011TIP3    H1 6039   5.213   1.409   2.933
 2011TIP3    H2 6040   5.206   1.299   3.037
 2012TIP3   OH2 6041   1.328   5.831   1.150
 2012TIP3    H1 6042   1.338   5.793   1.063
 2012TIP3    H2 6043   1.240   5.806   1.178
 2013TIP3   OH2 6044   4.724   1.462   2.080
 2013TIP3    H1 6045   4.787   1.530   2.055
 2013TIP3    H2 6046   4.755   1.383   2.034
 2014TIP3   OH2 6047   4.579   3.741   1.342
 2014TIP3    H1 6048   4.580   3.741   1.438
 2014TIP3    H2 6049   4.669   3.718   1.318
 2015TIP3   OH2 6050   5.331   0.194   5.057
 2015TIP3    H1 6051   5.302   0.196   5.148
 2015TIP3    H2 6052   5.385   0.273   5.048
 2016TIP3   OH2 6053   4.013   4.161   4.073
 2016TIP3    H1 6054   4.053   4.248   4.079
 2016TIP3    H2 6055   4.062   4.107   4.134
 2017TIP3   OH2 6056   1.940   1.153   2.092
 2017TIP3    H1 6057   1.935   1.082   2.157
 2017TIP3    H2 6058   1.960   1.231   2.144
 2018TIP3   OH2 6059   3.595   0.261   1.022
 2018TIP3    H1 6060   3.582   0.305   0.938
 2018TIP3    H2 6061   3.571   0.327   1.087
 2019TIP3   OH2 6062   2.922   0.777   1.796
 2019TIP3    H1 6063   2.869   0.731   1.731
 2019TIP3    H2 6064   2.860   0.798   1.866
 2020TIP3   OH2 6065   1.558  -0.001   1.305
 2020TIP3    H1 6066   1.507   0.026   1.381
 2020TIP3    H2 6067   1.579   0.081   1.260
 2021TIP3   OH2 6068   2.360   2.161   4.674
 2021TIP3    H1 6069   2.410   2.225   4.623
 2021TIP3    H2 6070   2.372   2.078   4.628
 2022TIP3   OH2 6071   2.207   1.855   4.096
 2022TIP3    H1 6072   2.194   1.905   4.176
 2022TIP3    H2 6073   2.148   1.780   4.105
 2023TIP3   OH2 6074   5.958   2.631   0.995
 2023TIP3    H1 6075   5.918   2.559   0.946
 2023TIP3    H2 6076   6.049   2.633   0.965
 2024TIP3   OH2 6077   1.821   4.730   2.357
 2024TIP3    H1 6078   1.783   4.718   2.270
 2024TIP3    H2 6079   1.878   4.807   2.347
 2025TIP3   OH2 6080   3.056   1.212   4.859
 2025TIP3    H1 6081   3.091   1.272   4.925
 2025TIP3    H2 6082   3.106   1.232   4.780
 2026TIP3   OH2 6083   5.418   4.068   1.989
 2026TIP3    H1 6084   5.446   4.069   1.897
 2026TIP3    H2 6085   5.420   4.160   2.015
 2027TIP3   OH2 6086   5.082   0.233   1.624
 2027TIP3    H1 6087   5.146   0.183   1.675
 2027TIP3    H2 6088   5.130   0.261   1.546
 2028TIP3   OH2 6089   3.014   2.035   0.219
 2028TIP3    H1 6090   3.025   2.081   0.302
 2028TIP3    H2 6091   2.948   2.085   0.172
 2029TIP3   OH2 6092   0.793   0.889   2.834
 2029TIP3    H1 6093   0.841   0.839   2.900
 2029TIP3    H2 6094   0.787   0.977   2.870
 2030TIP3   OH2 6095   2.475   5.252   3.610
 2030TIP3    H1 6096   2.527   5.327   3.640
 2030TIP3    H2 6097   2.526   5.176   3.638
 2031TIP3   OH2 6098   3.910   2.679   1.916
 2031TIP3    H1 6099   3.961   2.629   1.852
 2031TIP3    H2 6100   3.881   2.757   1.869
 2032TIP3   OH2 6101   0.584   4.465   4.443
 2032TIP3    H1 6102   0.586   4.398   4.512
 2032TIP3    H2 6103   0.492   4.470   4.417
 2033TIP3   OH2 6104   5.959   1.956   1.374
 2033TIP3    H1 6105   5.936   2.036   1.421
 2033TIP3    H2 6106   6.004   1.987   1.295
 2034TIP3   OH2 6107   6.013   2.954   3.337
 2034TIP3    H1 6108   5.923   2.941   3.306
 2034TIP3    H2 6109   6.029   3.047   3.326
 2035TIP3   OH2 6110   3.228   5.315   3.468
 2035TIP3    H1 6111   3.280   5.396   3.473
 2035TIP3    H2 6112   3.171   5.319   3.545
 2036TIP3   OH2 6113   5.807   2.347   3.961
 2036TIP3    H1 6114   5.770   2.274   3.913
 2036TIP3    H2 6115   5.902   2.336   3.954
 2037TIP3   OH2 6116   0.659   1.052   1.201
 2037TIP3    H1 6117   0.590   1.010   1.149
 2037TIP3    H2 6118   0.679   0.989   1.270
 2038TIP3   OH2 6119   0.034   3.212   0.399
 2038TIP3    H1 6120  -0.019   3.193   0.322
 2038TIP3    H2 6121  -0.028   3.242   0.465
 2039TIP3   OH2 6122   1.578   1.998   3.365
 2039TIP3    H1 6123   1.591   2.045   3.447
 2039TIP3    H2 6124   1.590   2.064   3.297
 2040TIP3   OH2 6125   2.584   2.753   4.148
 2040TIP3    H1 6126   2.608   2.739   4.239
 2040TIP3    H2 6127   2.653   2.810   4.114
 2041TIP3   OH2 6128   2.925   3.815   4.759
 2041TIP3    H1 6129   2.974   3.894   4.780
 2041TIP3    H2 6130   2.906   3.775   4.844
 2042TIP3   OH2 6131   5.141   1.296   0.628
 2042TIP3    H1 6132   5.088   1.322   0.553
 2042TIP3    H2 6133   5.229   1.325   0.606
 2043TIP3   OH2 6134   2.656   1.338   1.668
 2043TIP3    H1 6135   2.651   1.271   1.600
 2043TIP3    H2 6136   2.679   1.290   1.747
 2044TIP3   OH2 6137   5.337   0.835   3.475
 2044TIP3    H1 6138   5.250   0.805   3.449
 2044TIP3    H2 6139   5.364   0.774   3.543
 2045TIP3   OH2 6140   3.324   3.315   1.858
 2045TIP3    H1 6141   3.308   3.221   1.849
 2045TIP3    H2 6142   3.238   3.355   1.845
 2046TIP3   OH2 6143   2.053   4.316   3.288
 2046TIP3    H1 6144   1.964   4.350   3.292
 2046TIP3    H2 6145   2.107   4.384   3.328
 2047TIP3   OH2 6146   3.788   2.576   4.710
 2047TIP3    H1 6147   3.853   2.595   4.643
 2047TIP3    H2 6148   3.829   2.604   4.792
 2048TIP3   OH2 6149   5.441   5.718   2.987
 2048TIP3    H1 6150   5.436   5.753   3.076
 2048TIP3    H2 6151   5.351   5.721   2.955
 2049TIP3   OH2 6152   2.079   3.068   3.154
 2049TIP3    H1 6153   2.120   3.019   3.083
 2049TIP3    H2 6154   2.147   3.127   3.185
 2050TIP3   OH2 6155   5.363   2.480   0.427
 2050TIP3    H1 6156   5.285   2.496   0.479
 2050TIP3    H2 6157   5.355   2.389   0.399
 2051TIP3   OH2 6158   5.467   2.975   3.694
 2051TIP3    H1 6159   5.493   3.033   3.766
 2051TIP3    H2 6160   5.388   2.931   3.725
 2052TIP3   OH2 6161   0.086   3.913   5.138
 2052TIP3    H1 6162   0.177   3.944   5.132
 2052TIP3    H2 6163   0.034   3.990   5.114
 2053TIP3   OH2 6164   4.235   0.194   4.064
 2053TIP3    H1 6165   4.152   0.162   4.027
 2053TIP3    H2 6166   4.210   0.272   4.113
 2054TIP3   OH2 6167   2.162   3.125   2.506
 2054TIP3    H1 6168   2.157   3.219   2.486
 2054TIP3    H2 6169   2.213   3.089   2.433
 2055TIP3   OH2 6170   0.667   0.472   5.109
 2055TIP3    H1 6171   0.691   0.529   5.035
 2055TIP3    H2 6172   0.718   0.392   5.096
 2056TIP3   OH2 6173   3.593   2.378   0.244
 2056TIP3    H1 6174   3.522   2.440   0.230
 2056TIP3    H2 6175   3.668   2.416   0.199
 2057TIP3   OH2 6176   1.634   2.178   4.596
 2057TIP3    H1 6177   1.613   2.179   4.690
 2057TIP3    H2 6178   1.550   2.196   4.553
 2058TIP3   OH2 6179   0.673   5.358   4.629
 2058TIP3    H1 6180   0.694   5.430   4.688
 2058TIP3    H2 6181   0.672   5.280   4.685
 2059TIP3   OH2 6182   4.556   3.297   2.260
 2059TIP3    H1 6183   4.626   3.276   2.198
 2059TIP3    H2 6184   4.518   3.379   2.227
 2060TIP3   OH2 6185   5.168   3.190   4.075
 2060TIP3    H1 6186   5.237   3.135   4.111
 2060TIP3    H2 6187   5.214   3.262   4.033
 2061TIP3   OH2 6188   1.205   4.072   0.267
 2061TIP3    H1 6189   1.260   4.135   0.315
 2061TIP3    H2 6190   1.229   3.987   0.303
 2062TIP3   OH2 6191   4.867   1.517   2.703
 2062TIP3    H1 6192   4.916   1.442   2.739
 2062TIP3    H2 6193   4.850   1.572   2.780
 2063TIP3   OH2 6194   3.822   2.892   1.706
 2063TIP3    H1 6195   3.747   2.934   1.665
 2063TIP3    H2 6196   3.855   2.831   1.640
 2064TIP3   OH2 6197   2.517   5.912   0.643
 2064TIP3    H1 6198   2.559   5.993   0.614
 2064TIP3    H2 6199   2.431   5.913   0.600
 2065TIP3   OH2 6200   5.413   1.059   2.871
 2065TIP3    H1 6201   5.397   1.103   2.788
 2065TIP3    H2 6202   5.326   1.046   2.909
 2066TIP3   OH2 6203   3.174   3.358   0.337
 2066TIP3    H1 6204   3.225   3.439   0.338
 2066TIP3    H2 6205   3.211   3.306   0.409
 2067TIP3   OH2 6206   5.355   4.359   5.059
 2067TIP3    H1 6207   5.441   4.329   5.033
 2067TIP3    H2 6208   5.337   4.312   5.141
 2068TIP3   OH2 6209   6.201   4.746   3.971
 2068TIP3    H1 6210   6.163   4.737   4.058
 2068TIP3    H2 6211   6.288   4.784   3.987
 2069TIP3   OH2 6212   0.721   5.566   4.791
 2069TIP3    H1 6213   0.685   5.649   4.761
 2069TIP3    H2 6214   0.740   5.581   4.884
 2070TIP3   OH2 6215   3.213   1.980   0.996
 2070TIP3    H1 6216   3.169   1.977   0.911
 2070TIP3    H2 6217   3.156   1.930   1.054
 2071TIP3   OH2 6218   4.145   1.958   4.150
 2071TIP3    H1 6219   4.194   2.034   4.119
 2071TIP3    H2 6220   4.206   1.885   4.140
 2072TIP3   OH2 6221   0.840   1.833   0.186
 2072TIP3    H1 6222   0.773   1.771   0.157
 2072TIP3    H2 6223   0.905   1.779   0.231
 2073TIP3   OH2 6224   0.602   3.336   3.688
 2073TIP3    H1 6225   0.652   3.385   3.753
 2073TIP3    H2 6226   0.512   3.334   3.722
 2074TIP3   OH2 6227   4.629   5.324   4.187
 2074TIP3    H1 6228   4.619   5.355   4.098
 2074TIP3    H2 6229   4.563   5.255   4.196
 2075TIP3   OH2 6230   4.433   4.581   1.681
 2075TIP3    H1 6231   4.501   4.646   1.660
 2075TIP3    H2 6232   4.391   4.615   1.759
 2076TIP3   OH2 6233   0.586   2.409   4.471
 2076TIP3    H1 6234   0.618   2.320   4.486
 2076TIP3    H2 6235   0.652   2.465   4.510
 2077TIP3   OH2 6236   6.132   1.993   0.913
 2077TIP3    H1 6237   6.082   2.016   0.835
 2077TIP3    H2 6238   6.223   2.011   0.889
 2078TIP3   OH2 6239   3.612   1.258   3.886
 2078TIP3    H1 6240   3.610   1.258   3.981
 2078TIP3    H2 6241   3.678   1.324   3.863
 2079TIP3   OH2 6242   1.622   6.019   4.169
 2079TIP3    H1 6243   1.661   6.016   4.081
 2079TIP3    H2 6244   1.530   5.996   4.156
 2080TIP3   OH2 6245   3.298   1.519   3.369
 2080TIP3    H1 6246   3.240   1.443   3.369
 2080TIP3    H2 6247   3.386   1.482   3.372
 2081TIP3   OH2 6248   6.092   0.836   0.154
 2081TIP3    H1 6249   6.016   0.781   0.134
 2081TIP3    H2 6250   6.072   0.920   0.113
 2082TIP3   OH2 6251   5.024   0.028   3.718
 2082TIP3    H1 6252   5.100  -0.026   3.742
 2082TIP3    H2 6253   4.983  -0.020   3.646
 2083TIP3   OH2 6254   4.862   5.902   4.347
 2083TIP3    H1 6255   4.861   5.896   4.442
 2083TIP3    H2 6256   4.919   5.829   4.320
 2084TIP3   OH2 6257   3.190   5.347   0.184
 2084TIP3    H1 6258   3.229   5.412   0.126
 2084TIP3    H2 6259   3.255   5.276   0.188
 2085TIP3   OH2 6260   3.585   0.181   2.148
 2085TIP3    H1 6261   3.631   0.115   2.096
 2085TIP3    H2 6262   3.492   0.158   2.138
 2086TIP3   OH2 6263   5.121   2.679   3.014
 2086TIP3    H1 6264   5.075   2.763   3.011
 2086TIP3    H2 6265   5.097   2.641   3.099
 2087TIP3   OH2 6266   3.771   4.260   2.872
 2087TIP3    H1 6267   3.787   4.343   2.916
 2087TIP3    H2 6268   3.857   4.231   2.841
 2088TIP3   OH2 6269   4.171   1.891   1.810
 2088TIP3    H1 6270   4.130   1.902   1.896
 2088TIP3    H2 6271   4.202   1.978   1.786
 2089TIP3   OH2 6272   0.484   5.168   3.040
 2089TIP3    H1 6273   0.541   5.161   2.964
 2089TIP3    H2 6274   0.408   5.217   3.008
 2090TIP3   OH2 6275   4.582   5.646   3.349
 2090TIP3    H1 6276   4.639   5.718   3.377
 2090TIP3    H2 6277   4.536   5.681   3.272
 2091TIP3   OH2 6278   1.895   4.554   3.526
 2091TIP3    H1 6279   1.837   4.622   3.491
 2091TIP3    H2 6280   1.864   4.473   3.485
 2092TIP3   OH2 6281   5.043   1.239   4.123
 2092TIP3    H1 6282   5.033   1.164   4.064
 2092TIP3    H2 6283   5.132   1.233   4.156
 2093TIP3   OH2 6284   2.585   2.526   2.285
 2093TIP3    H1 6285   2.592   2.447   2.338
 2093TIP3    H2 6286   2.500   2.563   2.308
 2094TIP3   OH2 6287   2.207   1.556   2.875
 2094TIP3    H1 6288   2.140   1.538   2.942
 2094TIP3    H2 6289   2.282   1.589   2.925
 2095TIP3   OH2 6290   6.315   2.208   2.313
 2095TIP3    H1 6291   6.261   2.287   2.310
 2095TIP3    H2 6292   6.397   2.233   2.272
 2096TIP3   OH2 6293   2.179   3.217   0.614
 2096TIP3    H1 6294   2.130   3.296   0.637
 2096TIP3    H2 6295   2.269   3.238   0.639
 2097TIP3   OH2 6296   3.613   4.957   2.012
 2097TIP3    H1 6297   3.539   4.924   1.961
 2097TIP3    H2 6298   3.685   4.964   1.948
 2098TIP3   OH2 6299   0.183   1.744   0.276
 2098TIP3    H1 6300   0.103   1.774   0.232
 2098TIP3    H2 6301   0.152   1.686   0.345
 2099TIP3   OH2 6302   2.782   3.499   3.113
 2099TIP3    H1 6303   2.800   3.485   3.206
 2099TIP3    H2 6304   2.793   3.594   3.101
 2100TIP3   OH2 6305   0.121   0.455   0.952
 2100TIP3    H1 6306   0.050   0.503   0.909
 2100TIP3    H2 6307   0.129   0.496   1.038
 2101TIP3   OH2 6308   5.384   5.403   1.917
 2101TIP3    H1 6309   5.291   5.426   1.916
 2101TIP3    H2 6310   5.409   5.403   1.824
 2102TIP3   OH2 6311   1.089   5.492   0.131
 2102TIP3    H1 6312   1.080   5.397   0.119
 2102TIP3    H2 6313   1.138   5.521   0.054
 2103TIP3   OH2 6314   6.054   4.968   1.103
 2103TIP3    H1 6315   6.037   4.952   1.196
 2103TIP3    H2 6316   5.970   4.949   1.060
 2104TIP3   OH2 6317   3.339   4.135   2.581
 2104TIP3    H1 6318   3.405   4.171   2.641
 2104TIP3    H2 6319   3.318   4.207   2.522
 2105TIP3   OH2 6320   4.394   1.580   1.274
 2105TIP3    H1 6321   4.410   1.538   1.358
 2105TIP3    H2 6322   4.350   1.513   1.222
 2106TIP3   OH2 6323   2.994   0.270   4.604
 2106TIP3    H1 6324   2.990   0.276   4.508
 2106TIP3    H2 6325   3.046   0.192   4.621
 2107TIP3   OH2 6326   3.249   3.291   3.654
 2107TIP3    H1 6327   3.292   3.350   3.592
 2107TIP3    H2 6328   3.246   3.340   3.736
 2108TIP3   OH2 6329   1.328   0.907   3.618
 2108TIP3    H1 6330   1.353   0.926   3.709
 2108TIP3    H2 6331   1.234   0.923   3.615
 2109TIP3   OH2 6332   4.236   3.177   4.403
 2109TIP3    H1 6333   4.174   3.245   4.379
 2109TIP3    H2 6334   4.291   3.166   4.326
 2110TIP3   OH2 6335   1.670   4.774   2.111
 2110TIP3    H1 6336   1.628   4.702   2.064
 2110TIP3    H2 6337   1.598   4.830   2.140
 2111TIP3   OH2 6338   4.583   4.297   5.074
 2111TIP3    H1 6339   4.569   4.206   5.100
 2111TIP3    H2 6340   4.631   4.291   4.991
 2112TIP3   OH2 6341   5.178   4.903   3.857
 2112TIP3    H1 6342   5.223   4.897   3.773
 2112TIP3    H2 6343   5.171   4.997   3.874
 2113TIP3   OH2 6344   5.130   2.642   1.438
 2113TIP3    H1 6345   5.133   2.563   1.383
 2113TIP3    H2 6346   5.044   2.680   1.421
 2114TIP3   OH2 6347   3.942   5.893   1.056
 2114TIP3    H1 6348   3.886   5.959   1.016
 2114TIP3    H2 6349   3.916   5.811   1.015
 2115TIP3   OH2 6350   3.542   1.269   2.187
 2115TIP3    H1 6351   3.592   1.189   2.202
 2115TIP3    H2 6352   3.564   1.295   2.097
 2116TIP3   OH2 6353   4.202   1.515   4.390
 2116TIP3    H1 6354   4.145   1.497   4.314
 2116TIP3    H2 6355   4.200   1.610   4.398
 2117TIP3   OH2 6356   1.842   4.819   5.157
 2117TIP3    H1 6357   1.788   4.818   5.078
 2117TIP3    H2 6358   1.782   4.796   5.228
 2118TIP3   OH2 6359   0.853   0.326   4.327
 2118TIP3    H1 6360   0.805   0.260   4.376
 2118TIP3    H2 6361   0.784   0.380   4.287
 2119TIP3   OH2 6362   0.207   1.696   0.892
 2119TIP3    H1 6363   0.234   1.698   0.800
 2119TIP3    H2 6364   0.273   1.749   0.937
 2120TIP3   OH2 6365   4.033   1.046   2.910
 2120TIP3    H1 6366   3.956   1.050   2.853
 2120TIP3    H2 6367   4.040   0.953   2.933
 2121TIP3   OH2 6368   4.544   5.025   3.370
 2121TIP3    H1 6369   4.505   5.053   3.452
 2121TIP3    H2 6370   4.551   4.930   3.377
 2122TIP3   OH2 6371   3.171   4.863   1.697
 2122TIP3    H1 6372   3.247   4.870   1.755
 2122TIP3    H2 6373   3.187   4.784   1.646
 2123TIP3   OH2 6374   5.031   2.454   0.829
 2123TIP3    H1 6375   5.060   2.376   0.875
 2123TIP3    H2 6376   5.106   2.513   0.834
 2124TIP3   OH2 6377   0.741   3.392   0.986
 2124TIP3    H1 6378   0.646   3.391   0.975
 2124TIP3    H2 6379   0.774   3.337   0.915
 2125TIP3   OH2 6380   6.282   4.140   3.958
 2125TIP3    H1 6381   6.324   4.101   4.034
 2125TIP3    H2 6382   6.311   4.086   3.884
 2126TIP3   OH2 6383   3.089   4.087   1.391
 2126TIP3    H1 6384   3.063   3.996   1.379
 2126TIP3    H2 6385   3.140   4.087   1.473
 2127TIP3   OH2 6386   5.533   4.185   4.009
 2127TIP3    H1 6387   5.541   4.227   4.094
 2127TIP3    H2 6388   5.440   4.191   3.987
 2128TIP3   OH2 6389   2.453   4.083   4.818
 2128TIP3    H1 6390   2.468   4.096   4.911
 2128TIP3    H2 6391   2.533   4.114   4.776
 2129TIP3   OH2 6392   2.018   0.415   3.300
 2129TIP3    H1 6393   2.020   0.495   3.353
 2129TIP3    H2 6394   1.939   0.369   3.328
 2130TIP3   OH2 6395   3.186   2.226   2.588
 2130TIP3    H1 6396   3.249   2.174   2.539
 2130TIP3    H2 6397   3.101   2.205   2.548
 2131TIP3   OH2 6398   6.127   3.187   2.214
 2131TIP3    H1 6399   6.141   3.149   2.128
 2131TIP3    H2 6400   6.096   3.114   2.268
 2132TIP3   OH2 6401   2.134   4.561   1.355
 2132TIP3    H1 6402   2.119   4.600   1.269
 2132TIP3    H2 6403   2.133   4.467   1.339
 2133TIP3   OH2 6404   2.978   5.435   2.195
 2133TIP3    H1 6405   3.027   5.370   2.143
 2133TIP3    H2 6406   2.956   5.504   2.132
 2134TIP3   OH2 6407   0.254   5.487   4.699
 2134TIP3    H1 6408   0.321   5.450   4.642
 2134TIP3    H2 6409   0.177   5.498   4.642
 2135TIP3   OH2 6410   0.924   3.695   3.893
 2135TIP3    H1 6411   0.920   3.638   3.970
 2135TIP3    H2 6412   0.962   3.777   3.925
 2136TIP3   OH2 6413   5.346   4.429   1.767
 2136TIP3    H1 6414   5.384   4.453   1.682
 2136TIP3    H2 6415   5.296   4.506   1.794
 2137TIP3   OH2 6416   0.670   4.878   4.737
 2137TIP3    H1 6417   0.591   4.835   4.770
 2137TIP3    H2 6418   0.743   4.828   4.775
 2138TIP3   OH2 6419   5.453   1.590   0.158
 2138TIP3    H1 6420   5.457   1.656   0.226
 2138TIP3    H2 6421   5.509   1.624   0.088
 2139TIP3   OH2 6422   6.308   2.556   2.801
 2139TIP3    H1 6423   6.265   2.486   2.752
 2139TIP3    H2 6424   6.392   2.519   2.827
 2140TIP3   OH2 6425   1.539   0.987   1.290
 2140TIP3    H1 6426   1.547   0.955   1.200
 2140TIP3    H2 6427   1.599   0.933   1.341
 2141TIP3   OH2 6428   3.195   1.305   3.590
 2141TIP3    H1 6429   3.180   1.263   3.674
 2141TIP3    H2 6430   3.289   1.324   3.589
 2142TIP3   OH2 6431   3.916   2.177   2.698
 2142TIP3    H1 6432   3.920   2.242   2.768
 2142TIP3    H2 6433   3.870   2.103   2.738
 2143TIP3   OH2 6434   4.837   3.141   1.376
 2143TIP3    H1 6435   4.791   3.223   1.390
 2143TIP3    H2 6436   4.928   3.166   1.359
 2144TIP3   OH2 6437   2.999   4.850   3.323
 2144TIP3    H1 6438   2.979   4.916   3.390
 2144TIP3    H2 6439   2.949   4.878   3.246
 2145TIP3   OH2 6440   4.208   4.649   1.115
 2145TIP3    H1 6441   4.125   4.655   1.069
 2145TIP3    H2 6442   4.273   4.631   1.047
 2146TIP3   OH2 6443   2.746   4.449   1.442
 2146TIP3    H1 6444   2.761   4.367   1.489
 2146TIP3    H2 6445   2.713   4.422   1.357
 2147TIP3   OH2 6446   3.875   4.029   0.187
 2147TIP3    H1 6447   3.888   4.123   0.181
 2147TIP3    H2 6448   3.842   4.015   0.275
 2148TIP3   OH2 6449   0.854   1.977   4.282
 2148TIP3    H1 6450   0.942   2.015   4.283
 2148TIP3    H2 6451   0.832   1.967   4.190
 2149TIP3   OH2 6452   4.262   3.913   0.762
 2149TIP3    H1 6453   4.237   3.954   0.680
 2149TIP3    H2 6454   4.317   3.839   0.736
 2150TIP3   OH2 6455   1.961   4.420   5.150
 2150TIP3    H1 6456   1.892   4.478   5.120
 2150TIP3    H2 6457   2.034   4.479   5.172
 2151TIP3   OH2 6458   2.696   5.546   1.814
 2151TIP3    H1 6459   2.656   5.527   1.730
 2151TIP3    H2 6460   2.721   5.461   1.849
 2152TIP3   OH2 6461   5.422   4.113   3.694
 2152TIP3    H1 6462   5.375   4.037   3.659
 2152TIP3    H2 6463   5.357   4.162   3.743
 2153TIP3   OH2 6464   4.682   2.139   5.143
 2153TIP3    H1 6465   4.737   2.197   5.090
 2153TIP3    H2 6466   4.704   2.051   5.114
 2154TIP3   OH2 6467   5.357   1.436   0.497
 2154TIP3    H1 6468   5.319   1.523   0.484
 2154TIP3    H2 6469   5.429   1.451   0.559
 2155TIP3   OH2 6470   5.820   0.933   5.236
 2155TIP3    H1 6471   5.773   1.002   5.282
 2155TIP3    H2 6472   5.789   0.939   5.146
 2156TIP3   OH2 6473   5.946   0.007   0.816
 2156TIP3    H1 6474   5.894   0.055   0.752
 2156TIP3    H2 6475   5.992  -0.060   0.765
 2157TIP3   OH2 6476   3.527   4.879   0.644
 2157TIP3    H1 6477   3.538   4.974   0.655
 2157TIP3    H2 6478   3.553   4.862   0.554
 2158TIP3   OH2 6479   4.712   3.784   0.700
 2158TIP3    H1 6480   4.752   3.710   0.746
 2158TIP3    H2 6481   4.711   3.757   0.608
 2159TIP3   OH2 6482   5.605   3.577   4.121
 2159TIP3    H1 6483   5.590   3.573   4.027
 2159TIP3    H2 6484   5.698   3.560   4.132
 2160TIP3   OH2 6485   2.243   3.501   2.664
 2160TIP3    H1 6486   2.175   3.564   2.684
 2160TIP3    H2 6487   2.322   3.536   2.705
 2161TIP3   OH2 6488   0.772   4.266   2.311
 2161TIP3    H1 6489   0.852   4.295   2.268
 2161TIP3    H2 6490   0.713   4.243   2.239
 2162TIP3   OH2 6491   3.782   3.221   1.422
 2162TIP3    H1 6492   3.725   3.218   1.345
 2162TIP3    H2 6493   3.727   3.189   1.494
 2163TIP3   OH2 6494   5.297   5.830   0.995
 2163TIP3    H1 6495   5.367   5.855   0.935
 2163TIP3    H2 6496   5.302   5.734   0.998
 2164TIP3   OH2 6497   2.837   3.773   3.024
 2164TIP3    H1 6498   2.859   3.764   2.932
 2164TIP3    H2 6499   2.762   3.832   3.026
 2165TIP3   OH2 6500   1.990   5.566   0.592
 2165TIP3    H1 6501   1.895   5.565   0.590
 2165TIP3    H2 6502   2.016   5.475   0.577
 2166TIP3   OH2 6503   0.595   3.052   0.100
 2166TIP3    H1 6504   0.614   3.038   0.007
 2166TIP3    H2 6505   0.570   2.965   0.132
 2167TIP3   OH2 6506   3.560   5.133   3.723
 2167TIP3    H1 6507   3.565   5.061   3.785
 2167TIP3    H2 6508   3.542   5.092   3.639
 2168TIP3   OH2 6509   4.168   0.823   3.953
 2168TIP3    H1 6510   4.224   0.832   3.876
 2168TIP3    H2 6511   4.196   0.893   4.012
 2169TIP3   OH2 6512   3.273   4.797   0.506
 2169TIP3    H1 6513   3.308   4.827   0.589
 2169TIP3    H2 6514   3.329   4.723   0.482
 2170TIP3   OH2 6515   2.116   0.173   1.233
 2170TIP3    H1 6516   2.099   0.078   1.239
 2170TIP3    H2 6517   2.160   0.184   1.149
 2171TIP3   OH2 6518   4.364   1.463   0.777
 2171TIP3    H1 6519   4.432   1.528   0.761
 2171TIP3    H2 6520   4.405   1.379   0.758
 2172TIP3   OH2 6521   3.597   2.456   3.365
 2172TIP3    H1 6522   3.627   2.514   3.435
 2172TIP3    H2 6523   3.638   2.372   3.385
 2173TIP3   OH2 6524   2.775   5.336   2.701
 2173TIP3    H1 6525   2.748   5.393   2.628
 2173TIP3    H2 6526   2.870   5.346   2.705
 2174TIP3   OH2 6527   3.632   1.642   0.653
 2174TIP3    H1 6528   3.574   1.701   0.701
 2174TIP3    H2 6529   3.638   1.564   0.707
 2175TIP3   OH2 6530   0.960   1.078   5.104
 2175TIP3    H1 6531   0.958   1.004   5.043
 2175TIP3    H2 6532   1.053   1.101   5.111
 2176TIP3   OH2 6533   2.597   3.703   3.843
 2176TIP3    H1 6534   2.616   3.645   3.917
 2176TIP3    H2 6535   2.587   3.790   3.883
 2177TIP3   OH2 6536   3.059   1.379   1.672
 2177TIP3    H1 6537   3.139   1.431   1.664
 2177TIP3    H2 6538   2.992   1.442   1.699
 2178TIP3   OH2 6539   4.150   0.181   3.585
 2178TIP3    H1 6540   4.109   0.110   3.535
 2178TIP3    H2 6541   4.128   0.160   3.677
 2179TIP3   OH2 6542   3.801   2.298   3.479
 2179TIP3    H1 6543   3.883   2.337   3.450
 2179TIP3    H2 6544   3.802   2.210   3.443
 2180TIP3   OH2 6545   1.784   1.211   4.513
 2180TIP3    H1 6546   1.866   1.257   4.532
 2180TIP3    H2 6547   1.755   1.177   4.597
 2181TIP3   OH2 6548   4.577   5.092   0.163
 2181TIP3    H1 6549   4.515   5.091   0.090
 2181TIP3    H2 6550   4.555   5.014   0.213
 2182TIP3   OH2 6551   6.131   2.817   1.933
 2182TIP3    H1 6552   6.111   2.906   1.961
 2182TIP3    H2 6553   6.070   2.799   1.862
 2183TIP3   OH2 6554   1.277   5.678   3.981
 2183TIP3    H1 6555   1.203   5.688   4.042
 2183TIP3    H2 6556   1.247   5.614   3.917
 2184TIP3   OH2 6557   0.477   2.836   3.960
 2184TIP3    H1 6558   0.560   2.882   3.951
 2184TIP3    H2 6559   0.415   2.903   3.989
 2185TIP3   OH2 6560   4.621   4.309   2.159
 2185TIP3    H1 6561   4.529   4.327   2.140
 2185TIP3    H2 6562   4.669   4.350   2.087
 2186TIP3   OH2 6563   3.516   4.481   4.889
 2186TIP3    H1 6564   3.546   4.558   4.937
 2186TIP3    H2 6565   3.562   4.407   4.931
 2187TIP3   OH2 6566   5.740   5.441   0.260
 2187TIP3    H1 6567   5.818   5.489   0.233
 2187TIP3    H2 6568   5.768   5.389   0.335
 2188TIP3   OH2 6569   6.152   0.766   1.240
 2188TIP3    H1 6570   6.111   0.753   1.326
 2188TIP3    H2 6571   6.180   0.678   1.214
 2189TIP3   OH2 6572   0.921   4.466   4.976
 2189TIP3    H1 6573   0.974   4.407   4.923
 2189TIP3    H2 6574   0.959   4.460   5.064
 2190TIP3   OH2 6575   2.910   0.380   0.279
 2190TIP3    H1 6576   2.894   0.419   0.193
 2190TIP3    H2 6577   2.884   0.288   0.269
 2191TIP3   OH2 6578   4.745   4.071   2.650
 2191TIP3    H1 6579   4.827   4.041   2.690
 2191TIP3    H2 6580   4.767   4.082   2.557
 2192TIP3   OH2 6581   1.676   5.223   0.717
 2192TIP3    H1 6582   1.668   5.163   0.791
 2192TIP3    H2 6583   1.597   5.277   0.721
 2193TIP3   OH2 6584   2.238   1.307   4.363
 2193TIP3    H1 6585   2.233   1.342   4.451
 2193TIP3    H2 6586   2.289   1.372   4.314
 2194TIP3   OH2 6587   0.286   4.795   3.042
 2194TIP3    H1 6588   0.238   4.853   3.102
 2194TIP3    H2 6589   0.223   4.775   2.973
 2195TIP3   OH2 6590   3.635   4.559   3.009
 2195TIP3    H1 6591   3.608   4.650   3.021
 2195TIP3    H2 6592   3.565   4.520   2.957
 2196TIP3   OH2 6593   5.726   0.072   1.533
 2196TIP3    H1 6594   5.778   0.140   1.577
 2196TIP3    H2 6595   5.647   0.118   1.504
 2197TIP3   OH2 6596   6.081   1.428   4.663
 2197TIP3    H1 6597   6.160   1.472   4.695
 2197TIP3    H2 6598   6.041   1.390   4.741
 2198TIP3   OH2 6599   4.509   0.217   3.390
 2198TIP3    H1 6600   4.547   0.272   3.459
 2198TIP3    H2 6601   4.419   0.249   3.381
 2199TIP3   OH2 6602   2.880   1.439   3.001
 2199TIP3    H1 6603   2.850   1.449   2.910
 2199TIP3    H2 6604   2.932   1.517   3.017
 2200TIP3   OH2 6605   2.816   3.819   0.334
 2200TIP3    H1 6606   2.794   3.863   0.252
 2200TIP3    H2 6607   2.867   3.743   0.308
 2201TIP3   OH2 6608   1.736   0.598   3.325
 2201TIP3    H1 6609   1.670   0.542   3.283
 2201TIP3    H2 6610   1.772   0.545   3.395
 2202TIP3   OH2 6611   5.192   4.081   4.612
 2202TIP3    H1 6612   5.253   4.035   4.554
 2202TIP3    H2 6613   5.199   4.034   4.695
 2203TIP3   OH2 6614   2.417   4.131   3.183
 2203TIP3    H1 6615   2.382   4.128   3.094
 2203TIP3    H2 6616   2.420   4.040   3.211
 2204TIP3   OH2 6617   3.384   3.162   1.474
 2204TIP3    H1 6618   3.306   3.118   1.509
 2204TIP3    H2 6619   3.393   3.126   1.385
 2205TIP3   OH2 6620   6.037   0.180   1.464
 2205TIP3    H1 6621   5.986   0.253   1.500
 2205TIP3    H2 6622   6.123   0.190   1.503
 2206TIP3   OH2 6623   1.797   1.572   1.098
 2206TIP3    H1 6624   1.734   1.644   1.102
 2206TIP3    H2 6625   1.882   1.614   1.113
 2207TIP3   OH2 6626   1.266   5.087   2.009
 2207TIP3    H1 6627   1.303   5.155   1.952
 2207TIP3    H2 6628   1.184   5.062   1.965
 2208TIP3   OH2 6629   4.446   2.229   0.073
 2208TIP3    H1 6630   4.522   2.281   0.047
 2208TIP3    H2 6631   4.455   2.219   0.168
 2209TIP3   OH2 6632   1.641   1.735   1.858
 2209TIP3    H1 6633   1.629   1.829   1.851
 2209TIP3    H2 6634   1.560   1.698   1.823
 2210TIP3   OH2 6635   4.794   5.419   1.366
 2210TIP3    H1 6636   4.881   5.452   1.385
 2210TIP3    H2 6637   4.774   5.361   1.440
 2211TIP3   OH2 6638   4.727   5.964  -0.009
 2211TIP3    H1 6639   4.816   5.998  -0.006
 2211TIP3    H2 6640   4.737   5.875  -0.042
 2212TIP3   OH2 6641   1.373   0.842   0.829
 2212TIP3    H1 6642   1.279   0.841   0.846
 2212TIP3    H2 6643   1.398   0.749   0.827
 2213TIP3   OH2 6644   2.431   0.934   2.187
 2213TIP3    H1 6645   2.391   0.851   2.162
 2213TIP3    H2 6646   2.493   0.911   2.257
 2214TIP3   OH2 6647   3.994   1.775   0.546
 2214TIP3    H1 6648   3.949   1.694   0.521
 2214TIP3    H2 6649   3.974   1.786   0.639
 2215TIP3   OH2 6650   4.031   5.611   2.606
 2215TIP3    H1 6651   3.946   5.573   2.582
 2215TIP3    H2 6652   4.024   5.627   2.700
 2216TIP3   OH2 6653   2.076   2.039   2.541
 2216TIP3    H1 6654   2.132   1.995   2.477
 2216TIP3    H2 6655   2.018   2.095   2.489
 2217TIP3   OH2 6656   4.740   5.242   3.663
 2217TIP3    H1 6657   4.699   5.280   3.740
 2217TIP3    H2 6658   4.714   5.300   3.591
 2218TIP3   OH2 6659   1.804   0.265   1.233
 2218TIP3    H1 6660   1.885   0.266   1.284
 2218TIP3    H2 6661   1.816   0.335   1.168
 2219TIP3   OH2 6662   5.150   3.413   2.155
 2219TIP3    H1 6663   5.165   3.507   2.157
 2219TIP3    H2 6664   5.229   3.377   2.115
 2220TIP3   OH2 6665   6.006   0.437   3.315
 2220TIP3    H1 6666   5.949   0.447   3.391
 2220TIP3    H2 6667   6.086   0.398   3.351
 2221TIP3   OH2 6668   3.029   5.457   2.756
 2221TIP3    H1 6669   3.023   5.535   2.701
 2221TIP3    H2 6670   3.086   5.484   2.829
 2222TIP3   OH2 6671   4.388   1.991   3.874
 2222TIP3    H1 6672   4.323   1.926   3.846
 2222TIP3    H2 6673   4.471   1.945   3.871
 2223TIP3   OH2 6674   5.861   5.839   4.409
 2223TIP3    H1 6675   5.898   5.863   4.494
 2223TIP3    H2 6676   5.806   5.914   4.385
 2224TIP3   OH2 6677   1.572   1.699   2.259
 2224TIP3    H1 6678   1.530   1.759   2.320
 2224TIP3    H2 6679   1.662   1.733   2.250
 2225TIP3   OH2 6680   1.120   4.848   0.126
 2225TIP3    H1 6681   1.165   4.787   0.067
 2225TIP3    H2 6682   1.139   4.816   0.214
 2226TIP3   OH2 6683   1.495   4.334   2.154
 2226TIP3    H1 6684   1.461   4.250   2.123
 2226TIP3    H2 6685   1.439   4.357   2.227
 2227TIP3   OH2 6686   4.929   5.742   3.188
 2227TIP3    H1 6687   5.013   5.784   3.170
 2227TIP3    H2 6688   4.941   5.652   3.158
 2228TIP3   OH2 6689   0.993   0.144   3.839
 2228TIP3    H1 6690   0.971   0.052   3.854
 2228TIP3    H2 6691   1.075   0.156   3.887
 2229TIP3   OH2 6692   1.181   4.311   1.149
 2229TIP3    H1 6693   1.208   4.329   1.059
 2229TIP3    H2 6694   1.128   4.231   1.142
 2230TIP3   OH2 6695   1.940   2.158   1.910
 2230TIP3    H1 6696   1.930   2.251   1.887
 2230TIP3    H2 6697   1.976   2.118   1.830
 2231TIP3   OH2 6698   1.333   2.663   4.569
 2231TIP3    H1 6699   1.294   2.626   4.489
 2231TIP3    H2 6700   1.419   2.622   4.574
 2232TIP3   OH2 6701   5.449   2.850   2.738
 2232TIP3    H1 6702   5.460   2.837   2.644
 2232TIP3    H2 6703   5.479   2.940   2.753
 2233TIP3   OH2 6704   2.208   5.067   4.548
 2233TIP3    H1 6705   2.173   4.978   4.539
 2233TIP3    H2 6706   2.221   5.078   4.642
 2234TIP3   OH2 6707   0.827   1.407   3.827
 2234TIP3    H1 6708   0.795   1.417   3.737
 2234TIP3    H2 6709   0.891   1.478   3.838
 2235TIP3   OH2 6710   2.896   2.128   3.185
 2235TIP3    H1 6711   2.873   2.063   3.251
 2235TIP3    H2 6712   2.825   2.192   3.188
 2236TIP3   OH2 6713   1.027   2.356   3.292
 2236TIP3    H1 6714   1.093   2.425   3.302
 2236TIP3    H2 6715   0.976   2.383   3.216
 2237TIP3   OH2 6716   2.318   1.269   0.502
 2237TIP3    H1 6717   2.330   1.359   0.533
 2237TIP3    H2 6718   2.223   1.255   0.509
 2238TIP3   OH2 6719   5.963   2.910   3.916
 2238TIP3    H1 6720   5.964   2.814   3.916
 2238TIP3    H2 6721   5.889   2.934   3.860
 2239TIP3   OH2 6722   5.548   0.915   0.965
 2239TIP3    H1 6723   5.478   0.883   0.907
 2239TIP3    H2 6724   5.529   0.876   1.050
 2240TIP3   OH2 6725   5.533   1.923   1.483
 2240TIP3    H1 6726   5.604   1.879   1.437
 2240TIP3    H2 6727   5.455   1.872   1.461
 2241TIP3   OH2 6728   4.324   4.391   3.972
 2241TIP3    H1 6729   4.239   4.405   4.013
 2241TIP3    H2 6730   4.386   4.438   4.028
 2242TIP3   OH2 6731   3.344   2.225   0.942
 2242TIP3    H1 6732   3.339   2.145   0.995
 2242TIP3    H2 6733   3.258   2.232   0.901
 2243TIP3   OH2 6734   1.857   3.441   3.251
 2243TIP3    H1 6735   1.801   3.373   3.287
 2243TIP3    H2 6736   1.906   3.474   3.326
 2244TIP3   OH2 6737   1.803   2.500   3.070
 2244TIP3    H1 6738   1.883   2.503   3.017
 2244TIP3    H2 6739   1.732   2.508   3.006
 2245TIP3   OH2 6740   2.146   4.048   2.380
 2245TIP3    H1 6741   2.147   4.122   2.319
 2245TIP3    H2 6742   2.056   4.045   2.413
 2246TIP3   OH2 6743   6.289   0.845   3.512
 2246TIP3    H1 6744   6.237   0.842   3.432
 2246TIP3    H2 6745   6.371   0.887   3.487
 2247TIP3   OH2 6746   4.583   3.338   4.664
 2247TIP3    H1 6747   4.613   3.401   4.598
 2247TIP3    H2 6748   4.558   3.260   4.613
 2248TIP3   OH2 6749   2.909   4.247   3.731
 2248TIP3    H1 6750   2.996   4.209   3.726
 2248TIP3    H2 6751   2.850   4.177   3.703
 2249TIP3   OH2 6752   1.575   3.335   2.312
 2249TIP3    H1 6753   1.566   3.424   2.278
 2249TIP3    H2 6754   1.660   3.334   2.355
 2250TIP3   OH2 6755   5.894   3.593   4.101
 2250TIP3    H1 6756   5.881   3.652   4.175
 2250TIP3    H2 6757   5.986   3.603   4.077
 2251TIP3   OH2 6758   5.488   3.714   0.535
 2251TIP3    H1 6759   5.500   3.699   0.629
 2251TIP3    H2 6760   5.419   3.652   0.509
 2252TIP3   OH2 6761   3.705   4.162   0.784
 2252TIP3    H1 6762   3.745   4.091   0.834
 2252TIP3    H2 6763   3.775   4.196   0.729
 2253TIP3   OH2 6764   3.190   3.789   3.005
 2253TIP3    H1 6765   3.123   3.723   2.984
 2253TIP3    H2 6766   3.260   3.740   3.047
 2254TIP3   OH2 6767   5.425   1.721   1.060
 2254TIP3    H1 6768   5.330   1.721   1.073
 2254TIP3    H2 6769   5.453   1.636   1.093
 2255TIP3   OH2 6770   2.686   0.949   0.629
 2255TIP3    H1 6771   2.655   1.040   0.626
 2255TIP3    H2 6772   2.631   0.908   0.696
 2256TIP3   OH2 6773   4.860   5.341   2.467
 2256TIP3    H1 6774   4.858   5.255   2.425
 2256TIP3    H2 6775   4.898   5.399   2.401
 2257TIP3   OH2 6776   4.192   4.255   0.053
 2257TIP3    H1 6777   4.137   4.333   0.043
 2257TIP3    H2 6778   4.265   4.270  -0.007
 2258TIP3   OH2 6779   3.021   2.930   3.879
 2258TIP3    H1 6780   3.078   2.854   3.869
 2258TIP3    H2 6781   3.038   2.984   3.802
 2259TIP3   OH2 6782   5.876   4.551   2.030
 2259TIP3    H1 6783   5.841   4.585   2.113
 2259TIP3    H2 6784   5.798   4.521   1.983
 2260TIP3   OH2 6785   6.173   0.350   1.665
 2260TIP3    H1 6786   6.142   0.274   1.713
 2260TIP3    H2 6787   6.229   0.397   1.726
 2261TIP3   OH2 6788   5.581   0.545   3.672
 2261TIP3    H1 6789   5.578   0.563   3.766
 2261TIP3    H2 6790   5.560   0.451   3.666
 2262TIP3   OH2 6791   2.661   4.483   2.117
 2262TIP3    H1 6792   2.738   4.529   2.151
 2262TIP3    H2 6793   2.687   4.453   2.030
 2263TIP3   OH2 6794   6.366   5.386   4.589
 2263TIP3    H1 6795   6.296   5.390   4.654
 2263TIP3    H2 6796   6.321   5.397   4.505
 2264TIP3   OH2 6797   6.022   0.754   3.031
 2264TIP3    H1 6798   6.051   0.732   3.120
 2264TIP3    H2 6799   6.037   0.848   3.023
 2265TIP3   OH2 6800   3.178   2.219   5.159
 2265TIP3    H1 6801   3.217   2.240   5.244
 2265TIP3    H2 6802   3.163   2.304   5.119
 2266TIP3   OH2 6803   1.666   2.893   2.396
 2266TIP3    H1 6804   1.734   2.947   2.436
 2266TIP3    H2 6805   1.647   2.935   2.312
 2267TIP3   OH2 6806   6.163   4.393   3.643
 2267TIP3    H1 6807   6.074   4.358   3.650
 2267TIP3    H2 6808   6.161   4.474   3.693
 2268TIP3   OH2 6809   0.966   4.065   4.267
 2268TIP3    H1 6810   1.054   4.102   4.262
 2268TIP3    H2 6811   0.909   4.138   4.242
 2269TIP3   OH2 6812   1.853   4.572   1.079
 2269TIP3    H1 6813   1.903   4.508   1.130
 2269TIP3    H2 6814   1.784   4.521   1.037
 2270TIP3   OH2 6815   5.670   3.271   4.022
 2270TIP3    H1 6816   5.717   3.311   3.949
 2270TIP3    H2 6817   5.582   3.308   4.017
 2271TIP3   OH2 6818   1.369   3.194   2.453
 2271TIP3    H1 6819   1.430   3.217   2.383
 2271TIP3    H2 6820   1.419   3.137   2.511
 2272TIP3   OH2 6821   1.757   5.555   0.933
 2272TIP3    H1 6822   1.812   5.478   0.919
 2272TIP3    H2 6823   1.670   5.519   0.951
 2273TIP3   OH2 6824   6.185   5.962   4.251
 2273TIP3    H1 6825   6.268   5.977   4.206
 2273TIP3    H2 6826   6.183   5.868   4.266
 2274TIP3   OH2 6827   0.401   0.664   4.840
 2274TIP3    H1 6828   0.316   0.628   4.864
 2274TIP3    H2 6829   0.391   0.759   4.848
 2275TIP3   OH2 6830   6.023   3.323   4.604
 2275TIP3    H1 6831   6.081   3.336   4.678
 2275TIP3    H2 6832   6.080   3.292   4.533
 2276TIP3   OH2 6833   3.492   2.734   3.734
 2276TIP3    H1 6834   3.493   2.817   3.686
 2276TIP3    H2 6835   3.417   2.742   3.794
 2277TIP3   OH2 6836   3.374   3.009   1.218
 2277TIP3    H1 6837   3.444   2.967   1.270
 2277TIP3    H2 6838   3.396   2.988   1.127
 2278TIP3   OH2 6839   2.031   1.821   5.079
 2278TIP3    H1 6840   2.123   1.823   5.053
 2278TIP3    H2 6841   2.032   1.841   5.173
 2279TIP3   OH2 6842   2.155   2.387   4.694
 2279TIP3    H1 6843   2.138   2.374   4.787
 2279TIP3    H2 6844   2.238   2.341   4.679
 2280TIP3   OH2 6845   1.262   1.902   4.351
 2280TIP3    H1 6846   1.342   1.860   4.384
 2280TIP3    H2 6847   1.227   1.841   4.287
 2281TIP3   OH2 6848   3.363   0.930   0.464
 2281TIP3    H1 6849   3.424   0.997   0.495
 2281TIP3    H2 6850   3.279   0.975   0.455
 2282TIP3   OH2 6851   5.119   2.495   1.955
 2282TIP3    H1 6852   5.206   2.456   1.969
 2282TIP3    H2 6853   5.121   2.527   1.865
 2283TIP3   OH2 6854   4.023   5.019   2.412
 2283TIP3    H1 6855   4.001   4.947   2.353
 2283TIP3    H2 6856   4.108   4.996   2.448
 2284TIP3   OH2 6857   6.150   1.662   2.396
 2284TIP3    H1 6858   6.201   1.719   2.455
 2284TIP3    H2 6859   6.101   1.722   2.340
 2285TIP3   OH2 6860   2.975   4.781   4.417
 2285TIP3    H1 6861   3.063   4.816   4.400
 2285TIP3    H2 6862   2.916   4.837   4.366
 2286TIP3   OH2 6863   3.226   5.221   1.771
 2286TIP3    H1 6864   3.173   5.195   1.696
 2286TIP3    H2 6865   3.270   5.140   1.798
 2287TIP3   OH2 6866   2.904   3.714   1.126
 2287TIP3    H1 6867   2.954   3.674   1.054
 2287TIP3    H2 6868   2.891   3.805   1.098
 2288TIP3   OH2 6869   2.267   2.946   3.500
 2288TIP3    H1 6870   2.203   2.936   3.430
 2288TIP3    H2 6871   2.216   2.978   3.574
 2289TIP3   OH2 6872   0.692   3.389   4.660
 2289TIP3    H1 6873   0.608   3.406   4.618
 2289TIP3    H2 6874   0.683   3.426   4.747
 2290TIP3   OH2 6875   4.415   2.258   1.189
 2290TIP3    H1 6876   4.490   2.305   1.154
 2290TIP3    H2 6877   4.353   2.327   1.214
 2291TIP3   OH2 6878   3.430   4.577   0.515
 2291TIP3    H1 6879   3.391   4.490   0.522
 2291TIP3    H2 6880   3.523   4.563   0.533
 2292TIP3   OH2 6881   1.810   1.440   3.879
 2292TIP3    H1 6882   1.770   1.506   3.936
 2292TIP3    H2 6883   1.773   1.458   3.792
 2293TIP3   OH2 6884   4.031   0.953   0.926
 2293TIP3    H1 6885   4.044   1.044   0.952
 2293TIP3    H2 6886   3.951   0.926   0.973
 2294TIP3   OH2 6887   3.166   4.468   0.183
 2294TIP3    H1 6888   3.128   4.502   0.264
 2294TIP3    H2 6889   3.120   4.386   0.168
 2295TIP3   OH2 6890   4.883   0.781   1.632
 2295TIP3    H1 6891   4.877   0.723   1.708
 2295TIP3    H2 6892   4.887   0.722   1.557
 2296TIP3   OH2 6893   6.226   3.671   4.966
 2296TIP3    H1 6894   6.146   3.639   4.925
 2296TIP3    H2 6895   6.227   3.765   4.946
 2297TIP3   OH2 6896   0.977   3.527   1.027
 2297TIP3    H1 6897   0.991   3.562   0.939
 2297TIP3    H2 6898   0.902   3.467   1.017
 2298TIP3   OH2 6899   1.772   2.102   1.552
 2298TIP3    H1 6900   1.793   2.196   1.553
 2298TIP3    H2 6901   1.764   2.078   1.644
 2299TIP3   OH2 6902   6.298   0.732   3.982
 2299TIP3    H1 6903   6.319   0.663   4.045
 2299TIP3    H2 6904   6.336   0.702   3.899
 2300TIP3   OH2 6905   3.699   5.823   0.203
 2300TIP3    H1 6906   3.776   5.834   0.147
 2300TIP3    H2 6907   3.625   5.821   0.142
 2301TIP3   OH2 6908   5.707   2.978   4.907
 2301TIP3    H1 6909   5.740   3.053   4.859
 2301TIP3    H2 6910   5.635   2.945   4.853
 2302TIP3   OH2 6911   4.823   4.982   3.593
 2302TIP3    H1 6912   4.875   5.017   3.520
 2302TIP3    H2 6913   4.784   5.059   3.634
 2303TIP3   OH2 6914   2.091   4.701   4.756
 2303TIP3    H1 6915   2.146   4.680   4.831
 2303TIP3    H2 6916   2.057   4.616   4.727
 2304TIP3   OH2 6917   0.218   2.059   3.066
 2304TIP3    H1 6918   0.153   2.111   3.020
 2304TIP3    H2 6919   0.244   1.992   3.003
 2305TIP3   OH2 6920   3.485   5.166   1.196
 2305TIP3    H1 6921   3.419   5.166   1.266
 2305TIP3    H2 6922   3.460   5.093   1.139
 2306TIP3   OH2 6923   5.580   2.496   1.478
 2306TIP3    H1 6924   5.494   2.453   1.477
 2306TIP3    H2 6925   5.607   2.494   1.570
 2307TIP3   OH2 6926   1.591   1.195   2.156
 2307TIP3    H1 6927   1.569   1.251   2.231
 2307TIP3    H2 6928   1.686   1.205   2.146
 2308TIP3   OH2 6929   3.546   2.049   1.032
 2308TIP3    H1 6930   3.584   2.081   0.950
 2308TIP3    H2 6931   3.494   1.973   1.006
 2309TIP3   OH2 6932   6.193   2.976   5.003
 2309TIP3    H1 6933   6.169   2.898   4.953
 2309TIP3    H2 6934   6.200   3.046   4.938
 2310TIP3   OH2 6935   1.657   4.342   3.876
 2310TIP3    H1 6936   1.746   4.358   3.844
 2310TIP3    H2 6937   1.661   4.367   3.969
 2311TIP3   OH2 6938   1.792   5.508   3.061
 2311TIP3    H1 6939   1.765   5.542   3.147
 2311TIP3    H2 6940   1.886   5.493   3.070
 2312TIP3   OH2 6941   4.706   2.484   3.792
 2312TIP3    H1 6942   4.687   2.549   3.724
 2312TIP3    H2 6943   4.743   2.536   3.864
 2313TIP3   OH2 6944   4.966   0.953   0.893
 2313TIP3    H1 6945   5.002   1.011   0.826
 2313TIP3    H2 6946   5.020   0.875   0.890
 2314TIP3   OH2 6947   3.585   0.503   1.151
 2314TIP3    H1 6948   3.557   0.573   1.091
 2314TIP3    H2 6949   3.641   0.547   1.215
 2315TIP3   OH2 6950   1.939   1.148   0.044
 2315TIP3    H1 6951   1.961   1.240   0.057
 2315TIP3    H2 6952   2.021   1.106   0.020
 2316TIP3   OH2 6953   0.888   5.577   1.370
 2316TIP3    H1 6954   0.922   5.661   1.342
 2316TIP3    H2 6955   0.830   5.549   1.299
 2317TIP3   OH2 6956   5.427   0.811   2.102
 2317TIP3    H1 6957   5.473   0.833   2.184
 2317TIP3    H2 6958   5.411   0.896   2.061
 2318TIP3   OH2 6959   1.035   2.738   2.653
 2318TIP3    H1 6960   1.093   2.695   2.591
 2318TIP3    H2 6961   1.061   2.830   2.651
 2319TIP3   OH2 6962   1.093   4.850   3.235
 2319TIP3    H1 6963   1.017   4.899   3.266
 2319TIP3    H2 6964   1.062   4.759   3.229
 2320TIP3   OH2 6965   6.003   0.796   1.794
 2320TIP3    H1 6966   6.083   0.840   1.825
 2320TIP3    H2 6967   5.933   0.836   1.845
 2321TIP3   OH2 6968   0.175   3.404   1.317
 2321TIP3    H1 6969   0.151   3.401   1.410
 2321TIP3    H2 6970   0.267   3.428   1.317
 2322TIP3   OH2 6971   4.614   2.419   1.121
 2322TIP3    H1 6972   4.574   2.500   1.152
 2322TIP3    H2 6973   4.658   2.443   1.040
 2323TIP3   OH2 6974   4.137   2.646   2.474
 2323TIP3    H1 6975   4.220   2.692   2.474
 2323TIP3    H2 6976   4.133   2.601   2.558
 2324TIP3   OH2 6977   0.086   4.328   4.292
 2324TIP3    H1 6978  -0.001   4.288   4.297
 2324TIP3    H2 6979   0.145   4.255   4.273
 2325TIP3   OH2 6980   2.411   0.254   2.978
 2325TIP3    H1 6981   2.506   0.242   2.982
 2325TIP3    H2 6982   2.383   0.201   2.903
 2326TIP3   OH2 6983   2.339   0.543   1.776
 2326TIP3    H1 6984   2.286   0.466   1.798
 2326TIP3    H2 6985   2.429   0.514   1.786
 2327TIP3   OH2 6986   1.077   2.798   3.307
 2327TIP3    H1 6987   1.024   2.854   3.364
 2327TIP3    H2 6988   1.157   2.848   3.293
 2328TIP3   OH2 6989   5.649   4.463   1.840
 2328TIP3    H1 6990   5.554   4.458   1.854
 2328TIP3    H2 6991   5.679   4.373   1.854
 2329TIP3   OH2 6992   1.611   5.909   2.483
 2329TIP3    H1 6993   1.699   5.947   2.481
 2329TIP3    H2 6994   1.560   5.968   2.538
 2330TIP3   OH2 6995   3.469   3.963   0.610
 2330TIP3    H1 6996   3.425   4.034   0.656
 2330TIP3    H2 6997   3.403   3.894   0.604
 2331TIP3   OH2 6998   3.747   5.262   4.448
 2331TIP3    H1 6999   3.837   5.230   4.448
 2331TIP3    H2 7000   3.712   5.237   4.363
 2332TIP3   OH2 7001   0.885   5.966   0.763
 2332TIP3    H1 7002   0.922   5.933   0.681
 2332TIP3    H2 7003   0.811   5.908   0.781
 2333TIP3   OH2 7004   1.215   5.149   1.701
 2333TIP3    H1 7005   1.142   5.131   1.760
 2333TIP3    H2 7006   1.178   5.141   1.613
 2334TIP3   OH2 7007   4.898   2.696   4.471
 2334TIP3    H1 7008   4.936   2.773   4.429
 2334TIP3    H2 7009   4.953   2.680   4.547
 2335TIP3   OH2 7010   2.731   5.746   1.353
 2335TIP3    H1 7011   2.792   5.797   1.406
 2335TIP3    H2 7012   2.644   5.774   1.382
 2336TIP3   OH2 7013   0.105   0.944   4.209
 2336TIP3    H1 7014   0.145   0.889   4.275
 2336TIP3    H2 7015   0.126   0.902   4.126
 2337TIP3   OH2 7016   6.248   5.259   1.116
 2337TIP3    H1 7017   6.184   5.199   1.156
 2337TIP3    H2 7018   6.276   5.315   1.189
 2338TIP3   OH2 7019   3.922   3.421   4.649
 2338TIP3    H1 7020   3.857   3.369   4.698
 2338TIP3    H2 7021   3.876   3.501   4.625
 2339TIP3   OH2 7022   4.855   5.097   0.389
 2339TIP3    H1 7023   4.918   5.036   0.350
 2339TIP3    H2 7024   4.857   5.174   0.331
 2340TIP3   OH2 7025   6.257   2.119   1.773
 2340TIP3    H1 7026   6.248   2.207   1.809
 2340TIP3    H2 7027   6.264   2.132   1.679
 2341TIP3   OH2 7028   6.239   4.474   0.814
 2341TIP3    H1 7029   6.331   4.463   0.791
 2341TIP3    H2 7030   6.234   4.452   0.907
 2342TIP3   OH2 7031   1.765   1.318   0.935
 2342TIP3    H1 7032   1.766   1.275   1.020
 2342TIP3    H2 7033   1.817   1.397   0.948
 2343TIP3   OH2 7034   5.670   0.330   4.288
 2343TIP3    H1 7035   5.701   0.248   4.327
 2343TIP3    H2 7036   5.751   0.376   4.263
 2344TIP3   OH2 7037   4.876   3.863   5.069
 2344TIP3    H1 7038   4.938   3.900   5.133
 2344TIP3    H2 7039   4.868   3.771   5.095
 2345TIP3   OH2 7040   2.409   3.359   3.033
 2345TIP3    H1 7041   2.421   3.304   2.956
 2345TIP3    H2 7042   2.336   3.319   3.080
 2346TIP3   OH2 7043   5.220   4.121   4.229
 2346TIP3    H1 7044   5.166   4.169   4.292
 2346TIP3    H2 7045   5.230   4.034   4.268
 2347TIP3   OH2 7046   4.385   4.755   2.486
 2347TIP3    H1 7047   4.314   4.718   2.539
 2347TIP3    H2 7048   4.464   4.742   2.538
 2348TIP3   OH2 7049   1.365   2.233   2.559
 2348TIP3    H1 7050   1.329   2.188   2.635
 2348TIP3    H2 7051   1.308   2.208   2.487
 2349TIP3   OH2 7052   3.852   0.594   1.552
 2349TIP3    H1 7053   3.896   0.538   1.617
 2349TIP3    H2 7054   3.848   0.680   1.594
 2350TIP3   OH2 7055   5.039   2.958   4.916
 2350TIP3    H1 7056   4.999   2.981   5.000
 2350TIP3    H2 7057   4.965   2.934   4.860
 2351TIP3   OH2 7058   5.241   0.263   4.112
 2351TIP3    H1 7059   5.277   0.197   4.052
 2351TIP3    H2 7060   5.148   0.239   4.120
 2352TIP3   OH2 7061   5.204   0.207   0.768
 2352TIP3    H1 7062   5.134   0.262   0.733
 2352TIP3    H2 7063   5.285   0.255   0.747
 2353TIP3   OH2 7064   3.682   3.200   4.612
 2353TIP3    H1 7065   3.654   3.253   4.686
 2353TIP3    H2 7066   3.768   3.167   4.637
 2354TIP3   OH2 7067   2.900   1.551   3.829
 2354TIP3    H1 7068   2.907   1.466   3.873
 2354TIP3    H2 7069   2.977   1.555   3.772
 2355TIP3   OH2 7070   4.437   2.132   1.928
 2355TIP3    H1 7071   4.436   2.099   2.018
 2355TIP3    H2 7072   4.346   2.154   1.910
 2356TIP3   OH2 7073   6.259   2.034   4.109
 2356TIP3    H1 7074   6.268   1.973   4.036
 2356TIP3    H2 7075   6.244   2.119   4.067
 2357TIP3   OH2 7076   0.257   0.100   4.123
 2357TIP3    H1 7077   0.184   0.056   4.079
 2357TIP3    H2 7078   0.216   0.175   4.167
 2358TIP3   OH2 7079   4.332   3.045   1.216
 2358TIP3    H1 7080   4.354   2.956   1.242
 2358TIP3    H2 7081   4.395   3.100   1.263
 2359TIP3   OH2 7082   3.252   4.589   5.182
 2359TIP3    H1 7083   3.276   4.544   5.262
 2359TIP3    H2 7084   3.265   4.524   5.113
 2360TIP3   OH2 7085   3.647   0.578   4.617
 2360TIP3    H1 7086   3.603   0.616   4.693
 2360TIP3    H2 7087   3.650   0.484   4.635
 2361TIP3   OH2 7088   1.808   3.626   1.080
 2361TIP3    H1 7089   1.858   3.662   1.154
 2361TIP3    H2 7090   1.810   3.532   1.094
 2362TIP3   OH2 7091   1.780   4.780   3.451
 2362TIP3    H1 7092   1.802   4.804   3.361
 2362TIP3    H2 7093   1.722   4.850   3.481
 2363TIP3   OH2 7094   2.147   5.089   0.721
 2363TIP3    H1 7095   2.085   5.036   0.672
 2363TIP3    H2 7096   2.194   5.139   0.655
 2364TIP3   OH2 7097   1.380   5.294   3.171
 2364TIP3    H1 7098   1.342   5.277   3.257
 2364TIP3    H2 7099   1.320   5.252   3.109
 2365TIP3   OH2 7100   2.024   1.956   4.299
 2365TIP3    H1 7101   1.981   1.900   4.363
 2365TIP3    H2 7102   1.957   2.021   4.275
 2366TIP3   OH2 7103   4.410   4.382   4.670
 2366TIP3    H1 7104   4.445   4.296   4.693
 2366TIP3    H2 7105   4.483   4.442   4.681
 2367TIP3   OH2 7106   3.272   0.165   5.182
 2367TIP3    H1 7107   3.329   0.230   5.224
 2367TIP3    H2 7108   3.325   0.127   5.113
 2368TIP3   OH2 7109   1.022   1.979   1.365
 2368TIP3    H1 7110   0.967   1.909   1.330
 2368TIP3    H2 7111   0.960   2.045   1.397
 2369TIP3   OH2 7112   1.074   5.787   2.534
 2369TIP3    H1 7113   1.005   5.852   2.533
 2369TIP3    H2 7114   1.147   5.829   2.580
 2370TIP3   OH2 7115   1.098   4.619   1.644
 2370TIP3    H1 7116   1.115   4.539   1.596
 2370TIP3    H2 7117   1.066   4.681   1.578
 2371TIP3   OH2 7118   5.075   1.913   3.368
 2371TIP3    H1 7119   5.074   1.889   3.275
 2371TIP3    H2 7120   4.995   1.876   3.404
 2372TIP3   OH2 7121   5.922   1.170   1.911
 2372TIP3    H1 7122   5.829   1.150   1.897
 2372TIP3    H2 7123   5.934   1.162   2.005
 2373TIP3   OH2 7124   0.754   1.754   0.831
 2373TIP3    H1 7125   0.753   1.690   0.902
 2373TIP3    H2 7126   0.734   1.838   0.873
 2374TIP3   OH2 7127   0.377   1.154   3.925
 2374TIP3    H1 7128   0.448   1.181   3.866
 2374TIP3    H2 7129   0.333   1.236   3.947
 2375TIP3   OH2 7130   2.660   1.037   4.245
 2375TIP3    H1 7131   2.659   1.118   4.295
 2375TIP3    H2 7132   2.661   0.967   4.310
 2376TIP3   OH2 7133   3.379   2.378   1.380
 2376TIP3    H1 7134   3.431   2.458   1.387
 2376TIP3    H2 7135   3.424   2.326   1.314
 2377TIP3   OH2 7136   4.140   4.909   1.566
 2377TIP3    H1 7137   4.185   4.866   1.493
 2377TIP3    H2 7138   4.099   4.986   1.528
 2378TIP3   OH2 7139   4.492   1.570   4.365
 2378TIP3    H1 7140   4.496   1.521   4.447
 2378TIP3    H2 7141   4.407   1.550   4.327
 2379TIP3   OH2 7142   4.337   2.281   3.404
 2379TIP3    H1 7143   4.319   2.220   3.476
 2379TIP3    H2 7144   4.432   2.277   3.393
 2380TIP3   OH2 7145   5.819   1.505   4.575
 2380TIP3    H1 7146   5.809   1.469   4.663
 2380TIP3    H2 7147   5.887   1.451   4.535
 2381TIP3   OH2 7148   0.739   4.647   4.127
 2381TIP3    H1 7149   0.652   4.673   4.095
 2381TIP3    H2 7150   0.721   4.577   4.190
 2382TIP3   OH2 7151   3.383   1.781   0.742
 2382TIP3    H1 7152   3.343   1.718   0.802
 2382TIP3    H2 7153   3.315   1.847   0.726
 2383TIP3   OH2 7154   2.202   4.475   0.627
 2383TIP3    H1 7155   2.155   4.457   0.708
 2383TIP3    H2 7156   2.228   4.388   0.595
 2384TIP3   OH2 7157   5.546   0.778   1.811
 2384TIP3    H1 7158   5.497   0.696   1.822
 2384TIP3    H2 7159   5.483   0.847   1.829
 2385TIP3   OH2 7160   1.205   0.815   3.029
 2385TIP3    H1 7161   1.229   0.734   2.985
 2385TIP3    H2 7162   1.243   0.807   3.117
 2386TIP3   OH2 7163   5.818   4.128   0.257
 2386TIP3    H1 7164   5.895   4.180   0.281
 2386TIP3    H2 7165   5.794   4.082   0.338
 2387TIP3   OH2 7166   0.556   5.174   0.242
 2387TIP3    H1 7167   0.622   5.109   0.268
 2387TIP3    H2 7168   0.514   5.135   0.165
 2388TIP3   OH2 7169   2.380   2.788   4.792
 2388TIP3    H1 7170   2.372   2.851   4.721
 2388TIP3    H2 7171   2.317   2.719   4.771
 2389TIP3   OH2 7172   1.338   5.566   3.594
 2389TIP3    H1 7173   1.305   5.653   3.568
 2389TIP3    H2 7174   1.406   5.585   3.658
 2390TIP3   OH2 7175   1.252   1.943   0.427
 2390TIP3    H1 7176   1.242   2.012   0.493
 2390TIP3    H2 7177   1.166   1.937   0.385
 2391TIP3   OH2 7178   5.390   5.791   4.689
 2391TIP3    H1 7179   5.458   5.839   4.643
 2391TIP3    H2 7180   5.391   5.826   4.778
 2392TIP3   OH2 7181   3.397   2.645   0.760
 2392TIP3    H1 7182   3.322   2.614   0.811
 2392TIP3    H2 7183   3.389   2.740   0.760
 2393TIP3   OH2 7184   1.871   3.556   0.308
 2393TIP3    H1 7185   1.851   3.635   0.258
 2393TIP3    H2 7186   1.808   3.557   0.380
 2394TIP3   OH2 7187   5.424   0.124   0.436
 2394TIP3    H1 7188   5.406   0.213   0.467
 2394TIP3    H2 7189   5.417   0.130   0.341
 2395TIP3   OH2 7190   0.393   2.065   2.406
 2395TIP3    H1 7191   0.459   2.038   2.343
 2395TIP3    H2 7192   0.443   2.088   2.485
 2396TIP3   OH2 7193   1.904   2.729   2.586
 2396TIP3    H1 7194   1.863   2.777   2.658
 2396TIP3    H2 7195   1.998   2.750   2.594
 2397TIP3   OH2 7196   1.806   3.415   1.905
 2397TIP3    H1 7197   1.815   3.361   1.826
 2397TIP3    H2 7198   1.750   3.487   1.878
 2398TIP3   OH2 7199   4.435   2.551   5.053
 2398TIP3    H1 7200   4.403   2.470   5.092
 2398TIP3    H2 7201   4.472   2.525   4.969
 2399TIP3   OH2 7202   4.513   0.438   1.971
 2399TIP3    H1 7203   4.473   0.393   2.045
 2399TIP3    H2 7204   4.534   0.368   1.909
 2400TIP3   OH2 7205   1.192   2.417   2.696
 2400TIP3    H1 7206   1.199   2.505   2.659
 2400TIP3    H2 7207   1.265   2.369   2.657
 2401TIP3   OH2 7208   1.807   2.858   4.710
 2401TIP3    H1 7209   1.776   2.821   4.628
 2401TIP3    H2 7210   1.859   2.934   4.685
 2402TIP3   OH2 7211   5.550   0.491   0.138
 2402TIP3    H1 7212   5.473   0.532   0.179
 2402TIP3    H2 7213   5.621   0.506   0.200
 2403TIP3   OH2 7214   3.982   4.917   3.700
 2403TIP3    H1 7215   3.898   4.895   3.660
 2403TIP3    H2 7216   4.047   4.868   3.650
 2404TIP3   OH2 7217   1.463   5.096   5.083
 2404TIP3    H1 7218   1.476   5.174   5.029
 2404TIP3    H2 7219   1.502   5.025   5.032
 2405TIP3   OH2 7220   2.132   4.092   1.352
 2405TIP3    H1 7221   2.105   4.026   1.416
 2405TIP3    H2 7222   2.101   4.175   1.388
 2406TIP3   OH2 7223   0.932   0.113   1.551
 2406TIP3    H1 7224   0.980   0.043   1.595
 2406TIP3    H2 7225   0.995   0.184   1.541
 2407TIP3   OH2 7226   2.762   0.790   0.174
 2407TIP3    H1 7227   2.731   0.866   0.223
 2407TIP3    H2 7228   2.856   0.803   0.166
 2408TIP3   OH2 7229   0.815   5.406   1.597
 2408TIP3    H1 7230   0.867   5.448   1.665
 2408TIP3    H2 7231   0.839   5.454   1.517
 2409TIP3   OH2 7232   0.363   5.474   5.095
 2409TIP3    H1 7233   0.303   5.544   5.121
 2409TIP3    H2 7234   0.397   5.440   5.177
 2410TIP3   OH2 7235   3.294   5.578   4.883
 2410TIP3    H1 7236   3.313   5.484   4.890
 2410TIP3    H2 7237   3.352   5.608   4.813
 2411TIP3   OH2 7238   4.786   3.230   2.652
 2411TIP3    H1 7239   4.801   3.227   2.747
 2411TIP3    H2 7240   4.844   3.162   2.617
 2412TIP3   OH2 7241   0.709   2.917   1.489
 2412TIP3    H1 7242   0.644   2.900   1.558
 2412TIP3    H2 7243   0.774   2.973   1.532
 2413TIP3   OH2 7244   1.207   4.477   3.700
 2413TIP3    H1 7245   1.170   4.520   3.623
 2413TIP3    H2 7246   1.266   4.541   3.738
 2414TIP3   OH2 7247   0.281   4.229   2.889
 2414TIP3    H1 7248   0.375   4.212   2.880
 2414TIP3    H2 7249   0.270   4.318   2.856
 2415TIP3   OH2 7250   2.867   3.870   3.363
 2415TIP3    H1 7251   2.886   3.909   3.277
 2415TIP3    H2 7252   2.780   3.831   3.353
 2416TIP3   OH2 7253   2.333   2.787   4.042
 2416TIP3    H1 7254   2.316   2.874   4.076
 2416TIP3    H2 7255   2.427   2.773   4.056
 2417TIP3   OH2 7256   1.092   5.785   5.003
 2417TIP3    H1 7257   1.135   5.754   5.083
 2417TIP3    H2 7258   1.163   5.821   4.950
 2418TIP3   OH2 7259   3.506   0.765   1.049
 2418TIP3    H1 7260   3.480   0.851   1.082
 2418TIP3    H2 7261   3.509   0.775   0.954
 2419TIP3   OH2 7262   4.912   1.487   3.897
 2419TIP3    H1 7263   5.000   1.506   3.866
 2419TIP3    H2 7264   4.908   1.391   3.899
 2420TIP3   OH2 7265   4.500   4.455   1.224
 2420TIP3    H1 7266   4.575   4.515   1.221
 2420TIP3    H2 7267   4.506   4.405   1.143
 2421TIP3   OH2 7268   5.664   2.207   1.400
 2421TIP3    H1 7269   5.638   2.157   1.323
 2421TIP3    H2 7270   5.668   2.298   1.369
 2422TIP3   OH2 7271   5.410   2.647   3.823
 2422TIP3    H1 7272   5.421   2.580   3.890
 2422TIP3    H2 7273   5.358   2.715   3.865
 2423TIP3   OH2 7274   2.046   2.185   2.846
 2423TIP3    H1 7275   2.094   2.199   2.928
 2423TIP3    H2 7276   2.110   2.145   2.788
 2424TIP3   OH2 7277   1.558   2.070   1.353
 2424TIP3    H1 7278   1.637   2.066   1.407
 2424TIP3    H2 7279   1.567   2.150   1.301
 2425TIP3   OH2 7280   4.969   1.409   0.389
 2425TIP3    H1 7281   4.953   1.317   0.410
 2425TIP3    H2 7282   4.998   1.409   0.298
 2426TIP3   OH2 7283   2.667   4.691   3.257
 2426TIP3    H1 7284   2.702   4.656   3.175
 2426TIP3    H2 7285   2.731   4.666   3.323
 2427TIP3   OH2 7286   4.651   5.006   2.998
 2427TIP3    H1 7287   4.631   5.088   2.953
 2427TIP3    H2 7288   4.677   5.033   3.086
 2428TIP3   OH2 7289   5.083   3.892   1.054
 2428TIP3    H1 7290   5.105   3.833   1.127
 2428TIP3    H2 7291   5.114   3.845   0.976
 2429TIP3   OH2 7292   1.396   3.288   3.481
 2429TIP3    H1 7293   1.408   3.198   3.512
 2429TIP3    H2 7294   1.327   3.282   3.415
 2430TIP3   OH2 7295   5.483   3.238   3.353
 2430TIP3    H1 7296   5.457   3.147   3.369
 2430TIP3    H2 7297   5.475   3.280   3.439
 2431TIP3   OH2 7298   1.708   4.885   4.221
 2431TIP3    H1 7299   1.685   4.825   4.149
 2431TIP3    H2 7300   1.803   4.888   4.219
 2432TIP3   OH2 7301   4.202   4.065   0.559
 2432TIP3    H1 7302   4.215   4.131   0.491
 2432TIP3    H2 7303   4.194   3.982   0.511
 2433TIP3   OH2 7304   1.878   6.028   0.726
 2433TIP3    H1 7305   1.834   6.012   0.643
 2433TIP3    H2 7306   1.902   5.941   0.757
 2434TIP3   OH2 7307   1.847   3.623   3.933
 2434TIP3    H1 7308   1.914   3.610   3.866
 2434TIP3    H2 7309   1.889   3.676   4.001
 2435TIP3   OH2 7310   0.154   3.502   0.393
 2435TIP3    H1 7311   0.061   3.480   0.392
 2435TIP3    H2 7312   0.195   3.431   0.441
 2436TIP3   OH2 7313   5.598   0.502   3.949
 2436TIP3    H1 7314   5.641   0.458   4.022
 2436TIP3    H2 7315   5.527   0.442   3.924
 2437TIP3   OH2 7316   5.055   0.063   4.061
 2437TIP3    H1 7317   5.125   0.000   4.080
 2437TIP3    H2 7318   4.994   0.053   4.134
 2438TIP3   OH2 7319   0.800   5.606   5.045
 2438TIP3    H1 7320   0.896   5.611   5.050
 2438TIP3    H2 7321   0.772   5.599   5.136
 2439TIP3   OH2 7322   3.074   5.382   3.697
 2439TIP3    H1 7323   3.115   5.467   3.714
 2439TIP3    H2 7324   3.039   5.354   3.782
 2440TIP3   OH2 7325   4.047   5.776   3.779
 2440TIP3    H1 7326   4.010   5.770   3.691
 2440TIP3    H2 7327   3.971   5.780   3.836
 2441TIP3   OH2 7328   0.938   3.693   2.495
 2441TIP3    H1 7329   0.901   3.778   2.519
 2441TIP3    H2 7330   0.871   3.653   2.438
 2442TIP3   OH2 7331   1.894   4.157   2.439
 2442TIP3    H1 7332   1.864   4.225   2.378
 2442TIP3    H2 7333   1.834   4.164   2.513
 2443TIP3   OH2 7334   0.353   3.220   1.489
 2443TIP3    H1 7335   0.311   3.134   1.483
 2443TIP3    H2 7336   0.404   3.227   1.408
 2444TIP3   OH2 7337   4.418   2.801   3.234
 2444TIP3    H1 7338   4.378   2.714   3.240
 2444TIP3    H2 7339   4.505   2.784   3.197
 2445TIP3   OH2 7340   0.694   0.729   0.849
 2445TIP3    H1 7341   0.749   0.717   0.772
 2445TIP3    H2 7342   0.674   0.823   0.851
 2446TIP3   OH2 7343   1.534   3.671   1.026
 2446TIP3    H1 7344   1.624   3.666   1.057
 2446TIP3    H2 7345   1.483   3.622   1.090
 2447TIP3   OH2 7346   0.531   2.427   1.149
 2447TIP3    H1 7347   0.453   2.403   1.100
 2447TIP3    H2 7348   0.538   2.361   1.218
 2448TIP3   OH2 7349   1.865   3.192   0.216
 2448TIP3    H1 7350   1.954   3.225   0.228
 2448TIP3    H2 7351   1.876   3.099   0.196
 2449TIP3   OH2 7352   5.745   4.481   0.760
 2449TIP3    H1 7353   5.777   4.490   0.671
 2449TIP3    H2 7354   5.655   4.451   0.751
 2450TIP3   OH2 7355   5.947   0.487   4.850
 2450TIP3    H1 7356   5.969   0.412   4.795
 2450TIP3    H2 7357   5.901   0.449   4.925
 2451TIP3   OH2 7358   2.456   4.548   4.630
 2451TIP3    H1 7359   2.512   4.601   4.573
 2451TIP3    H2 7360   2.417   4.483   4.572
 2452TIP3   OH2 7361   1.127   5.464   3.815
 2452TIP3    H1 7362   1.191   5.446   3.746
 2452TIP3    H2 7363   1.059   5.515   3.772
 2453TIP3   OH2 7364   3.656   0.300   4.686
 2453TIP3    H1 7365   3.567   0.312   4.654
 2453TIP3    H2 7366   3.652   0.322   4.779
 2454TIP3   OH2 7367   2.297   3.336   5.092
 2454TIP3    H1 7368   2.241   3.346   5.168
 2454TIP3    H2 7369   2.367   3.401   5.105
 2455TIP3   OH2 7370   4.004   4.846   3.127
 2455TIP3    H1 7371   4.088   4.892   3.122
 2455TIP3    H2 7372   3.952   4.885   3.056
 2456TIP3   OH2 7373   5.205   1.829   3.807
 2456TIP3    H1 7374   5.275   1.809   3.744
 2456TIP3    H2 7375   5.172   1.914   3.778
 2457TIP3   OH2 7376   5.342   5.916   4.053
 2457TIP3    H1 7377   5.288   5.898   3.976
 2457TIP3    H2 7378   5.296   5.987   4.098
 2458TIP3   OH2 7379   3.915   0.852   3.337
 2458TIP3    H1 7380   3.985   0.915   3.320
 2458TIP3    H2 7381   3.960   0.768   3.345
 2459TIP3   OH2 7382   3.170   1.952   0.680
 2459TIP3    H1 7383   3.162   2.039   0.718
 2459TIP3    H2 7384   3.110   1.953   0.606
 2460TIP3   OH2 7385   2.853   3.453   3.408
 2460TIP3    H1 7386   2.927   3.454   3.468
 2460TIP3    H2 7387   2.823   3.362   3.410
 2461TIP3   OH2 7388   4.733   5.210   3.259
 2461TIP3    H1 7389   4.829   5.216   3.256
 2461TIP3    H2 7390   4.715   5.124   3.296
 2462TIP3   OH2 7391   1.039   0.693   2.512
 2462TIP3    H1 7392   0.954   0.656   2.487
 2462TIP3    H2 7393   1.075   0.728   2.431
 2463TIP3   OH2 7394   4.340   4.290   1.674
 2463TIP3    H1 7395   4.314   4.380   1.654
 2463TIP3    H2 7396   4.435   4.292   1.671
 2464TIP3   OH2 7397   0.625   4.364   1.174
 2464TIP3    H1 7398   0.715   4.339   1.154
 2464TIP3    H2 7399   0.630   4.411   1.257
 2465TIP3   OH2 7400   1.081   1.261   4.820
 2465TIP3    H1 7401   1.040   1.329   4.766
 2465TIP3    H2 7402   1.021   1.187   4.814
 2466TIP3   OH2 7403   2.091   2.698   0.149
 2466TIP3    H1 7404   2.036   2.777   0.148
 2466TIP3    H2 7405   2.066   2.651   0.069
 2467TIP3   OH2 7406   0.692   3.702   5.019
 2467TIP3    H1 7407   0.715   3.620   5.063
 2467TIP3    H2 7408   0.665   3.675   4.931
 2468TIP3   OH2 7409   0.084   5.356   4.940
 2468TIP3    H1 7410   0.170   5.319   4.921
 2468TIP3    H2 7411   0.070   5.421   4.871
 2469TIP3   OH2 7412   1.894   5.112   2.595
 2469TIP3    H1 7413   1.819   5.103   2.537
 2469TIP3    H2 7414   1.962   5.057   2.556
 2470TIP3   OH2 7415   0.637   1.720   2.198
 2470TIP3    H1 7416   0.663   1.656   2.264
 2470TIP3    H2 7417   0.555   1.686   2.162
 2471TIP3   OH2 7418   2.900   0.847   2.739
 2471TIP3    H1 7419   2.877   0.776   2.679
 2471TIP3    H2 7420   2.993   0.836   2.756
 2472TIP3   OH2 7421   3.283   2.482   4.459
 2472TIP3    H1 7422   3.192   2.511   4.466
 2472TIP3    H2 7423   3.327   2.524   4.533
 2473TIP3   OH2 7424   2.452   5.154   4.412
 2473TIP3    H1 7425   2.376   5.172   4.467
 2473TIP3    H2 7426   2.420   5.096   4.343
 2474TIP3   OH2 7427   2.958   3.598   4.065
 2474TIP3    H1 7428   2.863   3.608   4.068
 2474TIP3    H2 7429   2.974   3.552   3.982
 2475TIP3   OH2 7430   5.061   2.357   2.432
 2475TIP3    H1 7431   5.090   2.267   2.418
 2475TIP3    H2 7432   5.140   2.409   2.423
 2476TIP3   OH2 7433   1.849   5.086   2.851
 2476TIP3    H1 7434   1.893   5.001   2.847
 2476TIP3    H2 7435   1.876   5.130   2.771
 2477TIP3   OH2 7436   2.941   1.812   3.912
 2477TIP3    H1 7437   2.931   1.717   3.906
 2477TIP3    H2 7438   3.026   1.830   3.871
 2478TIP3   OH2 7439   1.440   4.295   2.709
 2478TIP3    H1 7440   1.391   4.212   2.705
 2478TIP3    H2 7441   1.410   4.344   2.632
 2479TIP3   OH2 7442   3.921   5.384   1.989
 2479TIP3    H1 7443   3.983   5.366   2.060
 2479TIP3    H2 7444   3.877   5.301   1.975
 2480TIP3   OH2 7445   0.705   1.784   4.017
 2480TIP3    H1 7446   0.652   1.859   4.044
 2480TIP3    H2 7447   0.747   1.754   4.098
 2481TIP3   OH2 7448   6.152   4.965   0.852
 2481TIP3    H1 7449   6.139   4.951   0.946
 2481TIP3    H2 7450   6.090   5.033   0.829
 2482TIP3   OH2 7451   0.338   1.069   3.284
 2482TIP3    H1 7452   0.406   1.009   3.254
 2482TIP3    H2 7453   0.346   1.069   3.380
 2483TIP3   OH2 7454   2.158   5.335   3.811
 2483TIP3    H1 7455   2.180   5.426   3.829
 2483TIP3    H2 7456   2.154   5.330   3.715
 2484TIP3   OH2 7457   4.304   5.722   0.744
 2484TIP3    H1 7458   4.328   5.742   0.653
 2484TIP3    H2 7459   4.365   5.773   0.797
 2485TIP3   OH2 7460   1.838   1.484   2.840
 2485TIP3    H1 7461   1.878   1.455   2.922
 2485TIP3    H2 7462   1.778   1.554   2.866
 2486TIP3   OH2 7463   0.891   3.171   1.435
 2486TIP3    H1 7464   0.906   3.137   1.347
 2486TIP3    H2 7465   0.917   3.099   1.493
 2487TIP3   OH2 7466   0.173   5.987   3.625
 2487TIP3    H1 7467   0.098   6.018   3.677
 2487TIP3    H2 7468   0.183   5.895   3.650
 2488TIP3   OH2 7469   3.363   4.803   2.173
 2488TIP3    H1 7470   3.418   4.859   2.228
 2488TIP3    H2 7471   3.379   4.714   2.206
 2489TIP3   OH2 7472   4.379   3.819   2.916
 2489TIP3    H1 7473   4.349   3.787   2.831
 2489TIP3    H2 7474   4.348   3.754   2.979
 2490TIP3   OH2 7475   2.961   5.433   0.388
 2490TIP3    H1 7476   2.961   5.452   0.481
 2490TIP3    H2 7477   3.054   5.423   0.365
 2491TIP3   OH2 7478   1.714   1.707   3.013
 2491TIP3    H1 7479   1.763   1.775   2.967
 2491TIP3    H2 7480   1.650   1.755   3.066
 2492TIP3   OH2 7481   3.860   1.159   2.118
 2492TIP3    H1 7482   3.892   1.200   2.198
 2492TIP3    H2 7483   3.782   1.111   2.146
 2493TIP3   OH2 7484   2.740   3.037   4.321
 2493TIP3    H1 7485   2.776   3.002   4.240
 2493TIP3    H2 7486   2.805   3.102   4.350
 2494TIP3   OH2 7487   0.665   5.188   2.168
 2494TIP3    H1 7488   0.601   5.151   2.107
 2494TIP3    H2 7489   0.674   5.122   2.236
 2495TIP3   OH2 7490   0.976   1.422   4.321
 2495TIP3    H1 7491   1.063   1.424   4.361
 2495TIP3    H2 7492   0.984   1.359   4.249
 2496TIP3   OH2 7493   1.338   2.629   0.078
 2496TIP3    H1 7494   1.423   2.597   0.048
 2496TIP3    H2 7495   1.353   2.659   0.168
 2497TIP3   OH2 7496   1.891   4.407   2.962
 2497TIP3    H1 7497   1.906   4.437   3.052
 2497TIP3    H2 7498   1.890   4.488   2.910
 2498TIP3   OH2 7499   5.924   2.329   2.365
 2498TIP3    H1 7500   5.988   2.340   2.294
 2498TIP3    H2 7501   5.849   2.287   2.323
 2499TIP3   OH2 7502   2.146   3.297   0.915
 2499TIP3    H1 7503   2.078   3.354   0.878
 2499TIP3    H2 7504   2.228   3.335   0.885
 2500TIP3   OH2 7505   4.153   1.057   2.223
 2500TIP3    H1 7506   4.088   1.100   2.278
 2500TIP3    H2 7507   4.221   1.029   2.284
 2501TIP3   OH2 7508   5.518   3.040   0.507
 2501TIP3    H1 7509   5.478   3.018   0.591
 2501TIP3    H2 7510   5.580   3.109   0.527
 2502TIP3   OH2 7511   0.578   2.027   4.115
 2502TIP3    H1 7512   0.562   1.973   4.193
 2502TIP3    H2 7513   0.566   2.117   4.146
 2503TIP3   OH2 7514   3.271   5.298   2.330
 2503TIP3    H1 7515   3.234   5.293   2.242
 2503TIP3    H2 7516   3.243   5.216   2.372
 2504TIP3   OH2 7517   5.023   1.560   1.727
 2504TIP3    H1 7518   4.974   1.615   1.666
 2504TIP3    H2 7519   5.084   1.511   1.672
 2505TIP3   OH2 7520   2.522   4.138   2.611
 2505TIP3    H1 7521   2.531   4.048   2.644
 2505TIP3    H2 7522   2.594   4.186   2.651
 2506TIP3   OH2 7523   0.425   4.261   3.357
 2506TIP3    H1 7524   0.333   4.237   3.349
 2506TIP3    H2 7525   0.426   4.355   3.339
 2507TIP3   OH2 7526   5.681   5.632   4.847
 2507TIP3    H1 7527   5.588   5.651   4.858
 2507TIP3    H2 7528   5.683   5.545   4.806
 2508TIP3   OH2 7529   4.211   3.052   2.453
 2508TIP3    H1 7530   4.176   3.083   2.537
 2508TIP3    H2 7531   4.135   3.025   2.403
 2509TIP3   OH2 7532   4.393   0.564   4.000
 2509TIP3    H1 7533   4.483   0.574   3.969
 2509TIP3    H2 7534   4.339   0.573   3.921
 2510TIP3   OH2 7535   2.157   4.976   1.242
 2510TIP3    H1 7536   2.136   4.903   1.183
 2510TIP3    H2 7537   2.171   4.933   1.327
 2511TIP3   OH2 7538   6.270   4.737   2.905
 2511TIP3    H1 7539   6.258   4.758   2.813
 2511TIP3    H2 7540   6.194   4.683   2.928
 2512TIP3   OH2 7541   3.849   4.513   3.979
 2512TIP3    H1 7542   3.830   4.582   4.043
 2512TIP3    H2 7543   3.771   4.457   3.980
 2513TIP3   OH2 7544   1.601   2.548   1.138
 2513TIP3    H1 7545   1.611   2.453   1.130
 2513TIP3    H2 7546   1.644   2.583   1.060
 2514TIP3   OH2 7547   3.024   3.611   0.904
 2514TIP3    H1 7548   3.033   3.682   0.841
 2514TIP3    H2 7549   2.961   3.551   0.866
 2515TIP3   OH2 7550   1.872   4.146   0.864
 2515TIP3    H1 7551   1.927   4.104   0.797
 2515TIP3    H2 7552   1.806   4.079   0.884
 2516TIP3   OH2 7553   6.292   3.173   3.834
 2516TIP3    H1 7554   6.302   3.087   3.875
 2516TIP3    H2 7555   6.348   3.169   3.757
 2517TIP3   OH2 7556   5.429   3.365   0.765
 2517TIP3    H1 7557   5.458   3.452   0.792
 2517TIP3    H2 7558   5.428   3.314   0.846
 2518TIP3   OH2 7559   5.553   2.315   0.819
 2518TIP3    H1 7560   5.515   2.258   0.752
 2518TIP3    H2 7561   5.607   2.256   0.872
 2519TIP3   OH2 7562   5.495   3.121   4.309
 2519TIP3    H1 7563   5.565   3.179   4.281
 2519TIP3    H2 7564   5.526   3.086   4.393
 2520TIP3   OH2 7565   1.642   4.049   1.885
 2520TIP3    H1 7566   1.665   3.994   1.810
 2520TIP3    H2 7567   1.649   3.990   1.961
 2521TIP3   OH2 7568   3.323   1.604   4.330
 2521TIP3    H1 7569   3.345   1.696   4.338
 2521TIP3    H2 7570   3.243   1.594   4.383
 2522TIP3   OH2 7571   2.186   1.453   1.445
 2522TIP3    H1 7572   2.136   1.372   1.456
 2522TIP3    H2 7573   2.120   1.521   1.442
 2523TIP3   OH2 7574   2.047   3.369   0.335
 2523TIP3    H1 7575   1.989   3.445   0.328
 2523TIP3    H2 7576   2.029   3.334   0.422
 2524TIP3   OH2 7577   5.798   3.642   1.827
 2524TIP3    H1 7578   5.808   3.572   1.763
 2524TIP3    H2 7579   5.823   3.602   1.910
 2525TIP3   OH2 7580   1.777   5.614   1.504
 2525TIP3    H1 7581   1.686   5.601   1.477
 2525TIP3    H2 7582   1.772   5.628   1.599
 2526TIP3   OH2 7583   0.780   2.358   2.238
 2526TIP3    H1 7584   0.754   2.417   2.308
 2526TIP3    H2 7585   0.778   2.271   2.277
 2527TIP3   OH2 7586   1.478   1.559   2.865
 2527TIP3    H1 7587   1.464   1.578   2.958
 2527TIP3    H2 7588   1.415   1.616   2.819
 2528TIP3   OH2 7589   3.543   2.875   3.144
 2528TIP3    H1 7590   3.564   2.958   3.101
 2528TIP3    H2 7591   3.488   2.829   3.080
 2529TIP3   OH2 7592   5.759   2.957   3.743
 2529TIP3    H1 7593   5.707   2.902   3.685
 2529TIP3    H2 7594   5.796   3.025   3.685
 2530TIP3   OH2 7595   2.040   2.045   3.287
 2530TIP3    H1 7596   2.059   2.054   3.381
 2530TIP3    H2 7597   1.952   2.080   3.278
 2531TIP3   OH2 7598   3.876   5.775   2.393
 2531TIP3    H1 7599   3.894   5.706   2.457
 2531TIP3    H2 7600   3.910   5.740   2.310
 2532TIP3   OH2 7601   0.692   0.172   1.660
 2532TIP3    H1 7602   0.776   0.128   1.650
 2532TIP3    H2 7603   0.678   0.216   1.577
 2533TIP3   OH2 7604   5.453   5.071   1.735
 2533TIP3    H1 7605   5.529   5.025   1.700
 2533TIP3    H2 7606   5.414   5.009   1.797
 2534TIP3   OH2 7607   1.024   3.222   0.131
 2534TIP3    H1 7608   1.063   3.162   0.195
 2534TIP3    H2 7609   0.957   3.269   0.180
 2535TIP3   OH2 7610   2.246   4.173   0.872
 2535TIP3    H1 7611   2.185   4.170   0.798
 2535TIP3    H2 7612   2.191   4.157   0.949
 2536TIP3   OH2 7613   5.531   0.865   4.781
 2536TIP3    H1 7614   5.504   0.850   4.872
 2536TIP3    H2 7615   5.608   0.809   4.769
 2537TIP3   OH2 7616   1.206   4.501   0.426
 2537TIP3    H1 7617   1.252   4.474   0.347
 2537TIP3    H2 7618   1.196   4.596   0.416
 2538TIP3   OH2 7619   2.337   3.540   4.724
 2538TIP3    H1 7620   2.256   3.565   4.769
 2538TIP3    H2 7621   2.407   3.582   4.775
 2539TIP3   OH2 7622   2.901   1.567   0.522
 2539TIP3    H1 7623   2.939   1.560   0.609
 2539TIP3    H2 7624   2.852   1.649   0.523
 2540TIP3   OH2 7625   5.291   3.499   0.541
 2540TIP3    H1 7626   5.309   3.431   0.605
 2540TIP3    H2 7627   5.210   3.540   0.572
 2541TIP3   OH2 7628   2.549   0.282   2.499
 2541TIP3    H1 7629   2.467   0.258   2.455
 2541TIP3    H2 7630   2.531   0.268   2.592
 2542TIP3   OH2 7631   5.164   3.091   0.659
 2542TIP3    H1 7632   5.126   3.119   0.576
 2542TIP3    H2 7633   5.104   3.024   0.692
 2543TIP3   OH2 7634   4.623   0.354   2.559
 2543TIP3    H1 7635   4.630   0.450   2.559
 2543TIP3    H2 7636   4.554   0.335   2.495
 2544TIP3   OH2 7637   3.674   3.108   2.691
 2544TIP3    H1 7638   3.719   3.047   2.751
 2544TIP3    H2 7639   3.686   3.194   2.731
 2545TIP3   OH2 7640   6.369   2.137   0.317
 2545TIP3    H1 7641   6.356   2.145   0.222
 2545TIP3    H2 7642   6.282   2.113   0.351
 2546TIP3   OH2 7643   3.148   1.011   0.935
 2546TIP3    H1 7644   3.106   0.971   1.011
 2546TIP3    H2 7645   3.135   0.948   0.864
 2547TIP3   OH2 7646   0.613   2.128   1.955
 2547TIP3    H1 7647   0.580   2.109   2.043
 2547TIP3    H2 7648   0.560   2.073   1.897
 2548TIP3   OH2 7649   1.069   2.646   3.038
 2548TIP3    H1 7650   0.998   2.582   3.047
 2548TIP3    H2 7651   1.077   2.685   3.125
 2549TIP3   OH2 7652   2.485   0.781   2.598
 2549TIP3    H1 7653   2.501   0.875   2.610
 2549TIP3    H2 7654   2.487   0.769   2.503
 2550TIP3   OH2 7655   2.807   1.515   1.069
 2550TIP3    H1 7656   2.803   1.497   1.163
 2550TIP3    H2 7657   2.877   1.459   1.036
 2551TIP3   OH2 7658   1.644   5.303   3.224
 2551TIP3    H1 7659   1.555   5.269   3.235
 2551TIP3    H2 7660   1.644   5.345   3.138
 2552TIP3   OH2 7661   4.238   0.300   1.950
 2552TIP3    H1 7662   4.230   0.212   1.914
 2552TIP3    H2 7663   4.292   0.290   2.028
 2553TIP3   OH2 7664   5.663   5.069   2.794
 2553TIP3    H1 7665   5.683   5.149   2.842
 2553TIP3    H2 7666   5.568   5.070   2.783
 2554TIP3   OH2 7667   0.399   5.979   0.390
 2554TIP3    H1 7668   0.418   5.961   0.482
 2554TIP3    H2 7669   0.438   6.065   0.374
 2555TIP3   OH2 7670   4.673   5.625   1.930
 2555TIP3    H1 7671   4.638   5.565   1.865
 2555TIP3    H2 7672   4.596   5.663   1.972
 2556TIP3   OH2 7673   3.613   0.347   2.792
 2556TIP3    H1 7674   3.669   0.344   2.870
 2556TIP3    H2 7675   3.554   0.421   2.808
 2557TIP3   OH2 7676   4.567   4.872   4.818
 2557TIP3    H1 7677   4.567   4.959   4.778
 2557TIP3    H2 7678   4.646   4.830   4.785
 2558TIP3   OH2 7679   2.353   2.611   2.604
 2558TIP3    H1 7680   2.400   2.560   2.670
 2558TIP3    H2 7681   2.420   2.662   2.560
 2559TIP3   OH2 7682   5.774   2.946   3.124
 2559TIP3    H1 7683   5.711   2.874   3.118
 2559TIP3    H2 7684   5.854   2.911   3.085
 2560TIP3   OH2 7685   3.062   0.366   2.272
 2560TIP3    H1 7686   3.099   0.402   2.352
 2560TIP3    H2 7687   3.119   0.400   2.202
 2561TIP3   OH2 7688   3.890   2.150   3.969
 2561TIP3    H1 7689   3.806   2.196   3.973
 2561TIP3    H2 7690   3.936   2.179   4.047
 2562TIP3   OH2 7691   4.129   5.832   4.798
 2562TIP3    H1 7692   4.051   5.817   4.852
 2562TIP3    H2 7693   4.126   5.926   4.778
 2563TIP3   OH2 7694   4.018   2.536   4.094
 2563TIP3    H1 7695   4.023   2.543   3.999
 2563TIP3    H2 7696   4.037   2.625   4.126
 2564TIP3   OH2 7697   5.838   3.579   3.730
 2564TIP3    H1 7698   5.769   3.576   3.664
 2564TIP3    H2 7699   5.830   3.496   3.777
 2565TIP3   OH2 7700   1.736   4.637   1.571
 2565TIP3    H1 7701   1.747   4.589   1.489
 2565TIP3    H2 7702   1.650   4.609   1.604
 2566TIP3   OH2 7703   5.987   1.797   1.586
 2566TIP3    H1 7704   5.963   1.855   1.514
 2566TIP3    H2 7705   5.989   1.710   1.546
 2567TIP3   OH2 7706   4.585   4.284   2.595
 2567TIP3    H1 7707   4.642   4.210   2.613
 2567TIP3    H2 7708   4.526   4.253   2.526
 2568TIP3   OH2 7709   4.374   4.934   2.086
 2568TIP3    H1 7710   4.312   5.002   2.059
 2568TIP3    H2 7711   4.392   4.884   2.006
 2569TIP3   OH2 7712   5.351   1.727   1.993
 2569TIP3    H1 7713   5.432   1.734   1.942
 2569TIP3    H2 7714   5.310   1.646   1.963
 2570TIP3   OH2 7715   4.806   3.603   3.841
 2570TIP3    H1 7716   4.894   3.572   3.860
 2570TIP3    H2 7717   4.779   3.554   3.763
 2571TIP3   OH2 7718   4.139   2.053   3.547
 2571TIP3    H1 7719   4.060   2.031   3.498
 2571TIP3    H2 7720   4.108   2.108   3.619
 2572TIP3   OH2 7721   4.431   2.329   2.474
 2572TIP3    H1 7722   4.346   2.292   2.497
 2572TIP3    H2 7723   4.461   2.372   2.553
 2573TIP3   OH2 7724   0.351   3.651   2.999
 2573TIP3    H1 7725   0.315   3.699   2.924
 2573TIP3    H2 7726   0.345   3.713   3.072
 2574TIP3   OH2 7727   2.991   5.025   0.488
 2574TIP3    H1 7728   3.081   5.055   0.471
 2574TIP3    H2 7729   2.969   5.063   0.573
 2575TIP3   OH2 7730   1.856   1.849   0.450
 2575TIP3    H1 7731   1.778   1.905   0.455
 2575TIP3    H2 7732   1.924   1.898   0.497
 2576TIP3   OH2 7733   3.851   2.318   1.888
 2576TIP3    H1 7734   3.916   2.252   1.863
 2576TIP3    H2 7735   3.898   2.378   1.945
 2577TIP3   OH2 7736   0.169   4.234   1.241
 2577TIP3    H1 7737   0.137   4.223   1.151
 2577TIP3    H2 7738   0.107   4.186   1.295
 2578TIP3   OH2 7739   4.584   0.904   3.599
 2578TIP3    H1 7740   4.637   0.838   3.643
 2578TIP3    H2 7741   4.646   0.974   3.578
 2579TIP3   OH2 7742   4.625   3.574   4.534
 2579TIP3    H1 7743   4.646   3.584   4.441
 2579TIP3    H2 7744   4.544   3.623   4.546
 2580TIP3   OH2 7745   0.668   1.631   0.099
 2580TIP3    H1 7746   0.650   1.655   0.008
 2580TIP3    H2 7747   0.585   1.597   0.132
 2581TIP3   OH2 7748   0.147   4.746   4.700
 2581TIP3    H1 7749   0.092   4.748   4.778
 2581TIP3    H2 7750   0.102   4.804   4.638
 2582TIP3   OH2 7751   4.264   2.088   1.666
 2582TIP3    H1 7752   4.205   2.147   1.620
 2582TIP3    H2 7753   4.344   2.088   1.613
 2583TIP3   OH2 7754   2.338   2.465   3.884
 2583TIP3    H1 7755   2.321   2.421   3.800
 2583TIP3    H2 7756   2.355   2.556   3.859
 2584TIP3   OH2 7757   3.846   0.144   3.272
 2584TIP3    H1 7758   3.918   0.175   3.218
 2584TIP3    H2 7759   3.801   0.224   3.299
 2585TIP3   OH2 7760   5.712   1.799   0.405
 2585TIP3    H1 7761   5.619   1.802   0.383
 2585TIP3    H2 7762   5.726   1.709   0.435
 2586TIP3   OH2 7763   3.423   0.273   3.157
 2586TIP3    H1 7764   3.457   0.207   3.218
 2586TIP3    H2 7765   3.329   0.274   3.172
 2587TIP3   OH2 7766   2.622   4.666   0.137
 2587TIP3    H1 7767   2.571   4.725   0.192
 2587TIP3    H2 7768   2.713   4.681   0.164
 2588TIP3   OH2 7769   4.014   2.247   4.209
 2588TIP3    H1 7770   4.023   2.322   4.150
 2588TIP3    H2 7771   4.102   2.211   4.216
 2589TIP3   OH2 7772   0.715   1.727   3.495
 2589TIP3    H1 7773   0.701   1.795   3.560
 2589TIP3    H2 7774   0.667   1.757   3.418
 2590TIP3   OH2 7775   0.711   2.572   2.401
 2590TIP3    H1 7776   0.736   2.582   2.493
 2590TIP3    H2 7777   0.762   2.638   2.355
 2591TIP3   OH2 7778   5.691   3.628   2.862
 2591TIP3    H1 7779   5.670   3.644   2.954
 2591TIP3    H2 7780   5.781   3.659   2.853
 2592TIP3   OH2 7781   4.071   4.196   2.229
 2592TIP3    H1 7782   4.115   4.170   2.147
 2592TIP3    H2 7783   3.991   4.239   2.201
 2593TIP3   OH2 7784   3.944   5.247   1.091
 2593TIP3    H1 7785   3.967   5.154   1.087
 2593TIP3    H2 7786   3.848   5.248   1.086
 2594TIP3   OH2 7787   1.902   5.343   0.972
 2594TIP3    H1 7788   1.938   5.255   0.964
 2594TIP3    H2 7789   1.897   5.359   1.066
 2595TIP3   OH2 7790   5.691   1.790   1.266
 2595TIP3    H1 7791   5.655   1.805   1.179
 2595TIP3    H2 7792   5.780   1.823   1.261
 2596TIP3   OH2 7793   3.581   5.367   2.089
 2596TIP3    H1 7794   3.513   5.435   2.083
 2596TIP3    H2 7795   3.582   5.327   2.002
 2597TIP3   OH2 7796   4.752   4.621   4.099
 2597TIP3    H1 7797   4.823   4.646   4.158
 2597TIP3    H2 7798   4.706   4.703   4.080
 2598TIP3   OH2 7799   5.706   1.023   4.939
 2598TIP3    H1 7800   5.662   0.967   4.874
 2598TIP3    H2 7801   5.635   1.074   4.977
 2599TIP3   OH2 7802   2.578   3.850   4.527
 2599TIP3    H1 7803   2.650   3.835   4.466
 2599TIP3    H2 7804   2.570   3.946   4.530
 2600TIP3   OH2 7805   0.535   0.606   3.758
 2600TIP3    H1 7806   0.517   0.522   3.716
 2600TIP3    H2 7807   0.542   0.585   3.851
 2601TIP3   OH2 7808   4.805   5.604   5.071
 2601TIP3    H1 7809   4.714   5.603   5.043
 2601TIP3    H2 7810   4.855   5.601   4.990
 2602TIP3   OH2 7811   0.807   1.801   4.985
 2602TIP3    H1 7812   0.732   1.742   4.980
 2602TIP3    H2 7813   0.841   1.789   5.074
 2603TIP3   OH2 7814   5.776   1.529   1.373
 2603TIP3    H1 7815   5.726   1.486   1.443
 2603TIP3    H2 7816   5.717   1.598   1.342
 2604TIP3   OH2 7817   1.162   5.276   4.151
 2604TIP3    H1 7818   1.077   5.282   4.107
 2604TIP3    H2 7819   1.226   5.281   4.080
 2605TIP3   OH2 7820   6.387   5.294   3.224
 2605TIP3    H1 7821   6.346   5.268   3.141
 2605TIP3    H2 7822   6.331   5.365   3.256
 2606TIP3   OH2 7823   0.175   5.935   2.562
 2606TIP3    H1 7824   0.133   5.849   2.556
 2606TIP3    H2 7825   0.224   5.943   2.480
 2607TIP3   OH2 7826   4.002   0.952   0.308
 2607TIP3    H1 7827   3.941   1.003   0.361
 2607TIP3    H2 7828   4.024   0.876   0.362
 2608TIP3   OH2 7829   3.970   1.568   2.866
 2608TIP3    H1 7830   4.021   1.547   2.787
 2608TIP3    H2 7831   3.886   1.599   2.832
 2609TIP3   OH2 7832   5.882   5.716   2.672
 2609TIP3    H1 7833   5.960   5.730   2.726
 2609TIP3    H2 7834   5.833   5.798   2.680
 2610TIP3   OH2 7835   5.850   4.350   2.389
 2610TIP3    H1 7836   5.915   4.364   2.320
 2610TIP3    H2 7837   5.870   4.263   2.424
 2611TIP3   OH2 7838   2.276   0.929   1.575
 2611TIP3    H1 7839   2.266   0.957   1.483
 2611TIP3    H2 7840   2.272   0.834   1.572
 2612TIP3   OH2 7841   2.938   3.239   3.070
 2612TIP3    H1 7842   2.883   3.230   2.991
 2612TIP3    H2 7843   2.877   3.225   3.143
 2613TIP3   OH2 7844   3.016   3.581   2.314
 2613TIP3    H1 7845   2.949   3.623   2.259
 2613TIP3    H2 7846   3.062   3.522   2.254
 2614TIP3   OH2 7847   0.391   4.535   4.252
 2614TIP3    H1 7848   0.421   4.601   4.189
 2614TIP3    H2 7849   0.304   4.564   4.277
 2615TIP3   OH2 7850   3.794   5.582   1.866
 2615TIP3    H1 7851   3.836   5.588   1.780
 2615TIP3    H2 7852   3.851   5.524   1.917
 2616TIP3   OH2 7853   0.346   3.865   3.168
 2616TIP3    H1 7854   0.280   3.843   3.234
 2616TIP3    H2 7855   0.420   3.900   3.219
 2617TIP3   OH2 7856   3.665   1.917   1.423
 2617TIP3    H1 7857   3.619   1.904   1.505
 2617TIP3    H2 7858   3.735   1.851   1.424
 2618TIP3   OH2 7859   0.159   5.181   2.368
 2618TIP3    H1 7860   0.117   5.229   2.439
 2618TIP3    H2 7861   0.165   5.091   2.401
 2619TIP3   OH2 7862   5.109   0.205   2.606
 2619TIP3    H1 7863   5.129   0.226   2.697
 2619TIP3    H2 7864   5.014   0.195   2.604
 2620TIP3   OH2 7865   0.791   5.465   1.129
 2620TIP3    H1 7866   0.706   5.494   1.095
 2620TIP3    H2 7867   0.783   5.370   1.137
 2621TIP3   OH2 7868   3.572   4.001   0.214
 2621TIP3    H1 7869   3.632   3.942   0.168
 2621TIP3    H2 7870   3.609   4.008   0.302
 2622TIP3   OH2 7871   5.990   2.850   3.013
 2622TIP3    H1 7872   6.017   2.775   3.066
 2622TIP3    H2 7873   6.069   2.905   3.007
 2623TIP3   OH2 7874   2.801   3.438   0.814
 2623TIP3    H1 7875   2.853   3.373   0.767
 2623TIP3    H2 7876   2.753   3.388   0.880
 2624TIP3   OH2 7877   3.691   2.871   0.681
 2624TIP3    H1 7878   3.605   2.844   0.649
 2624TIP3    H2 7879   3.675   2.952   0.730
 2625TIP3   OH2 7880   6.273   2.552   4.616
 2625TIP3    H1 7881   6.247   2.478   4.561
 2625TIP3    H2 7882   6.350   2.520   4.664
 2626TIP3   OH2 7883   1.374   3.410   1.026
 2626TIP3    H1 7884   1.440   3.366   1.081
 2626TIP3    H2 7885   1.352   3.345   0.959
 2627TIP3   OH2 7886   3.055   5.599   1.337
 2627TIP3    H1 7887   3.006   5.678   1.358
 2627TIP3    H2 7888   3.094   5.617   1.251
 2628TIP3   OH2 7889   2.546   2.714   0.341
 2628TIP3    H1 7890   2.591   2.797   0.357
 2628TIP3    H2 7891   2.468   2.718   0.397
 2629TIP3   OH2 7892   3.570   2.098   2.747
 2629TIP3    H1 7893   3.573   2.186   2.785
 2629TIP3    H2 7894   3.487   2.061   2.777
 2630TIP3   OH2 7895   4.533   2.044   4.731
 2630TIP3    H1 7896   4.592   1.975   4.703
 2630TIP3    H2 7897   4.502   2.017   4.817
 2631TIP3   OH2 7898   2.452   5.653   1.150
 2631TIP3    H1 7899   2.379   5.691   1.101
 2631TIP3    H2 7900   2.411   5.615   1.228
 2632TIP3   OH2 7901   0.937   3.303   3.881
 2632TIP3    H1 7902   0.922   3.364   3.808
 2632TIP3    H2 7903   0.954   3.360   3.956
 2633TIP3   OH2 7904   6.261   5.335   4.318
 2633TIP3    H1 7905   6.167   5.329   4.300
 2633TIP3    H2 7906   6.297   5.380   4.241
 2634TIP3   OH2 7907   1.359   4.067   4.984
 2634TIP3    H1 7908   1.295   4.118   4.934
 2634TIP3    H2 7909   1.307   4.019   5.048
 2635TIP3   OH2 7910   5.879   4.913   3.940
 2635TIP3    H1 7911   5.851   4.961   4.019
 2635TIP3    H2 7912   5.947   4.854   3.972
 2636TIP3   OH2 7913   1.177   1.851   4.875
 2636TIP3    H1 7914   1.105   1.802   4.835
 2636TIP3    H2 7915   1.204   1.913   4.808
 2637TIP3   OH2 7916   2.357   2.156   0.348
 2637TIP3    H1 7917   2.385   2.240   0.312
 2637TIP3    H2 7918   2.410   2.146   0.428
 2638TIP3   OH2 7919   3.268   3.495   4.212
 2638TIP3    H1 7920   3.251   3.463   4.124
 2638TIP3    H2 7921   3.357   3.467   4.231
 2639TIP3   OH2 7922   1.057   0.938   0.638
 2639TIP3    H1 7923   1.096   0.999   0.576
 2639TIP3    H2 7924   1.014   0.994   0.703
 2640TIP3   OH2 7925   2.587   3.485   2.563
 2640TIP3    H1 7926   2.669   3.437   2.548
 2640TIP3    H2 7927   2.556   3.508   2.476
 2641TIP3   OH2 7928   0.180   5.410   2.015
 2641TIP3    H1 7929   0.149   5.321   2.001
 2641TIP3    H2 7930   0.252   5.421   1.953
 2642TIP3   OH2 7931   2.864   0.010   3.181
 2642TIP3    H1 7932   2.905  -0.022   3.100
 2642TIP3    H2 7933   2.937   0.026   3.240
 2643TIP3   OH2 7934   1.603   2.458   0.628
 2643TIP3    H1 7935   1.696   2.458   0.608
 2643TIP3    H2 7936   1.581   2.365   0.640
 2644TIP3   OH2 7937   0.440   0.168   3.927
 2644TIP3    H1 7938   0.518   0.212   3.961
 2644TIP3    H2 7939   0.386   0.152   4.005
 2645TIP3   OH2 7940   4.504   0.176   0.495
 2645TIP3    H1 7941   4.570   0.235   0.457
 2645TIP3    H2 7942   4.497   0.104   0.432
 2646TIP3   OH2 7943   4.976   2.903   0.778
 2646TIP3    H1 7944   5.003   2.903   0.870
 2646TIP3    H2 7945   4.934   2.818   0.766
 2647TIP3   OH2 7946   3.863   4.040   4.361
 2647TIP3    H1 7947   3.857   4.128   4.400
 2647TIP3    H2 7948   3.955   4.033   4.333
 2648TIP3   OH2 7949   0.672   3.547   2.031
 2648TIP3    H1 7950   0.581   3.554   2.002
 2648TIP3    H2 7951   0.714   3.489   1.967
 2649TIP3   OH2 7952   6.254   4.824   3.149
 2649TIP3    H1 7953   6.245   4.814   3.054
 2649TIP3    H2 7954   6.284   4.738   3.179
 2650TIP3   OH2 7955   1.699   4.427   0.565
 2650TIP3    H1 7956   1.673   4.451   0.476
 2650TIP3    H2 7957   1.619   4.435   0.617
 2651TIP3   OH2 7958   1.494   3.026   3.509
 2651TIP3    H1 7959   1.584   2.993   3.515
 2651TIP3    H2 7960   1.452   2.968   3.445
 2652TIP3   OH2 7961   5.102   5.896   0.307
 2652TIP3    H1 7962   5.153   5.836   0.361
 2652TIP3    H2 7963   5.095   5.975   0.360
 2653TIP3   OH2 7964   2.742   1.633   3.617
 2653TIP3    H1 7965   2.789   1.586   3.685
 2653TIP3    H2 7966   2.719   1.717   3.658
 2654TIP3   OH2 7967   2.959   2.748   1.728
 2654TIP3    H1 7968   2.998   2.661   1.731
 2654TIP3    H2 7969   2.953   2.774   1.820
 2655TIP3   OH2 7970   6.267   4.590   1.707
 2655TIP3    H1 7971   6.356   4.608   1.736
 2655TIP3    H2 7972   6.222   4.674   1.715
 2656TIP3   OH2 7973   4.566   5.945   4.831
 2656TIP3    H1 7974   4.489   5.897   4.859
 2656TIP3    H2 7975   4.631   5.930   4.900
 2657TIP3   OH2 7976   5.518   5.765   3.684
 2657TIP3    H1 7977   5.532   5.678   3.723
 2657TIP3    H2 7978   5.527   5.750   3.590
 2658TIP3   OH2 7979   4.144   5.927   2.985
 2658TIP3    H1 7980   4.152   6.011   2.941
 2658TIP3    H2 7981   4.231   5.910   3.021
 2659TIP3   OH2 7982   2.439   3.865   3.211
 2659TIP3    H1 7983   2.358   3.867   3.261
 2659TIP3    H2 7984   2.430   3.788   3.154
 2660TIP3   OH2 7985   5.246   1.272   1.242
 2660TIP3    H1 7986   5.177   1.229   1.191
 2660TIP3    H2 7987   5.283   1.202   1.296
 2661TIP3   OH2 7988   0.718   4.921   3.161
 2661TIP3    H1 7989   0.673   4.842   3.191
 2661TIP3    H2 7990   0.759   4.895   3.078
 2662TIP3   OH2 7991   3.782   2.617   1.259
 2662TIP3    H1 7992   3.746   2.647   1.176
 2662TIP3    H2 7993   3.808   2.526   1.243
 2663TIP3   OH2 7994   1.376   5.672   0.524
 2663TIP3    H1 7995   1.429   5.694   0.448
 2663TIP3    H2 7996   1.437   5.669   0.597
 2664TIP3   OH2 7997   0.351   3.782   0.267
 2664TIP3    H1 7998   0.272   3.830   0.290
 2664TIP3    H2 7999   0.340   3.695   0.306
 2665TIP3   OH2 8000   2.793   5.973   2.973
 2665TIP3    H1 8001   2.878   5.979   2.928
 2665TIP3    H2 8002   2.765   5.882   2.959
 2666TIP3   OH2 8003   4.089   4.553   1.534
 2666TIP3    H1 8004   4.033   4.598   1.471
 2666TIP3    H2 8005   4.175   4.550   1.492
 2667TIP3   OH2 8006   1.523   0.087   1.821
 2667TIP3    H1 8007   1.441   0.133   1.836
 2667TIP3    H2 8008   1.587   0.134   1.874
 2668TIP3   OH2 8009   4.926   5.472   2.967
 2668TIP3    H1 8010   4.896   5.552   2.923
 2668TIP3    H2 8011   4.974   5.424   2.899
 2669TIP3   OH2 8012   2.852   1.546   1.718
 2669TIP3    H1 8013   2.771   1.498   1.706
 2669TIP3    H2 8014   2.828   1.623   1.770
 2670TIP3   OH2 8015   2.488   4.618   3.842
 2670TIP3    H1 8016   2.417   4.565   3.876
 2670TIP3    H2 8017   2.566   4.586   3.888
 2671TIP3   OH2 8018   1.576   3.271   1.174
 2671TIP3    H1 8019   1.567   3.195   1.232
 2671TIP3    H2 8020   1.670   3.289   1.173
 2672TIP3   OH2 8021   5.102   4.811   1.318
 2672TIP3    H1 8022   5.098   4.850   1.231
 2672TIP3    H2 8023   5.187   4.838   1.352
 2673TIP3   OH2 8024   4.036   2.640   3.830
 2673TIP3    H1 8025   3.982   2.719   3.819
 2673TIP3    H2 8026   4.051   2.609   3.741
 2674TIP3   OH2 8027   5.739   3.688   1.216
 2674TIP3    H1 8028   5.713   3.766   1.265
 2674TIP3    H2 8029   5.834   3.691   1.215
 2675TIP3   OH2 8030   5.776   1.751   4.784
 2675TIP3    H1 8031   5.819   1.748   4.698
 2675TIP3    H2 8032   5.811   1.675   4.830
 2676TIP3   OH2 8033   5.058   0.550   0.074
 2676TIP3    H1 8034   5.073   0.457   0.095
 2676TIP3    H2 8035   4.971   0.569   0.108
 2677TIP3   OH2 8036   1.461   4.485   4.404
 2677TIP3    H1 8037   1.456   4.392   4.381
 2677TIP3    H2 8038   1.454   4.487   4.499
 2678TIP3   OH2 8039   0.684   4.976   0.774
 2678TIP3    H1 8040   0.638   4.948   0.853
 2678TIP3    H2 8041   0.776   4.957   0.793
 2679TIP3   OH2 8042   5.874   3.440   1.626
 2679TIP3    H1 8043   5.933   3.442   1.550
 2679TIP3    H2 8044   5.820   3.362   1.613
 2680TIP3   OH2 8045   1.037   5.640   4.122
 2680TIP3    H1 8046   0.972   5.571   4.135
 2680TIP3    H2 8047   0.999   5.695   4.054
 2681TIP3   OH2 8048   4.853   2.837   2.000
 2681TIP3    H1 8049   4.874   2.869   2.088
 2681TIP3    H2 8050   4.766   2.798   2.009
 2682TIP3   OH2 8051   0.235   5.728   3.700
 2682TIP3    H1 8052   0.279   5.665   3.757
 2682TIP3    H2 8053   0.223   5.681   3.618
 2683TIP3   OH2 8054   5.417   5.012   4.723
 2683TIP3    H1 8055   5.486   4.966   4.771
 2683TIP3    H2 8056   5.437   5.105   4.736
 2684TIP3   OH2 8057   2.888   1.945   3.635
 2684TIP3    H1 8058   2.906   2.026   3.683
 2684TIP3    H2 8059   2.805   1.913   3.672
 2685TIP3   OH2 8060   0.664   2.560   3.014
 2685TIP3    H1 8061   0.671   2.649   2.979
 2685TIP3    H2 8062   0.613   2.569   3.094
 2686TIP3   OH2 8063   5.769   0.769   2.853
 2686TIP3    H1 8064   5.846   0.744   2.904
 2686TIP3    H2 8065   5.725   0.833   2.909
 2687TIP3   OH2 8066   6.169   3.323   4.031
 2687TIP3    H1 8067   6.089   3.323   4.084
 2687TIP3    H2 8068   6.175   3.234   3.997
 2688TIP3   OH2 8069   0.420   4.019   1.573
 2688TIP3    H1 8070   0.393   4.066   1.494
 2688TIP3    H2 8071   0.440   3.930   1.543
 2689TIP3   OH2 8072   5.077   4.573   0.530
 2689TIP3    H1 8073   5.145   4.537   0.587
 2689TIP3    H2 8074   5.124   4.600   0.450
 2690TIP3   OH2 8075   1.729   5.650   3.279
 2690TIP3    H1 8076   1.749   5.743   3.284
 2690TIP3    H2 8077   1.634   5.644   3.284
 2691TIP3   OH2 8078   1.908   2.915   0.213
 2691TIP3    H1 8079   1.931   2.899   0.304
 2691TIP3    H2 8080   1.821   2.877   0.202
 2692TIP3   OH2 8081   1.835   4.815   0.827
 2692TIP3    H1 8082   1.828   4.721   0.815
 2692TIP3    H2 8083   1.772   4.835   0.896
 2693TIP3   OH2 8084   0.351   0.322   5.112
 2693TIP3    H1 8085   0.435   0.304   5.154
 2693TIP3    H2 8086   0.340   0.417   5.120
 2694TIP3   OH2 8087   0.536   4.971   1.987
 2694TIP3    H1 8088   0.495   4.886   1.972
 2694TIP3    H2 8089   0.463   5.030   2.006
 2695TIP3   OH2 8090   4.643   0.854   1.406
 2695TIP3    H1 8091   4.567   0.797   1.393
 2695TIP3    H2 8092   4.636   0.920   1.337
 2696TIP3   OH2 8093   6.032   2.074   0.677
 2696TIP3    H1 8094   5.961   2.030   0.632
 2696TIP3    H2 8095   6.022   2.166   0.655
 2697TIP3   OH2 8096   4.115   0.486   4.483
 2697TIP3    H1 8097   4.109   0.508   4.390
 2697TIP3    H2 8098   4.132   0.570   4.527
 2698TIP3   OH2 8099   5.528   0.126   1.797
 2698TIP3    H1 8100   5.547   0.037   1.767
 2698TIP3    H2 8101   5.592   0.142   1.866
 2699TIP3   OH2 8102   4.461   2.328   1.512
 2699TIP3    H1 8103   4.404   2.405   1.509
 2699TIP3    H2 8104   4.504   2.333   1.597
 2700TIP3   OH2 8105   1.214   4.965   1.277
 2700TIP3    H1 8106   1.200   5.018   1.355
 2700TIP3    H2 8107   1.235   4.878   1.311
 2701TIP3   OH2 8108   1.017   4.407   1.853
 2701TIP3    H1 8109   1.030   4.475   1.787
 2701TIP3    H2 8110   0.939   4.360   1.824
 2702TIP3   OH2 8111   5.714   4.933   2.546
 2702TIP3    H1 8112   5.697   4.951   2.639
 2702TIP3    H2 8113   5.789   4.988   2.524
 2703TIP3   OH2 8114   1.906   0.677   4.417
 2703TIP3    H1 8115   1.812   0.676   4.435
 2703TIP3    H2 8116   1.923   0.763   4.378
 2704TIP3   OH2 8117   0.236   1.647   1.929
 2704TIP3    H1 8118   0.206   1.678   2.014
 2704TIP3    H2 8119   0.156   1.620   1.883
 2705TIP3   OH2 8120   0.080   1.092   2.706
 2705TIP3    H1 8121   0.099   1.026   2.639
 2705TIP3    H2 8122   0.008   1.055   2.756
 2706TIP3   OH2 8123   4.164   2.170   0.190
 2706TIP3    H1 8124   4.197   2.083   0.211
 2706TIP3    H2 8125   4.106   2.192   0.262
 2707TIP3   OH2 8126   0.559   1.063   0.353
 2707TIP3    H1 8127   0.634   1.005   0.370
 2707TIP3    H2 8128   0.583   1.109   0.272
 2708TIP3   OH2 8129   4.020   5.550   3.120
 2708TIP3    H1 8130   4.027   5.466   3.074
 2708TIP3    H2 8131   4.097   5.552   3.178
 2709TIP3   OH2 8132   5.390   1.042   1.210
 2709TIP3    H1 8133   5.407   0.992   1.130
 2709TIP3    H2 8134   5.477   1.060   1.246
 2710TIP3   OH2 8135   4.429   5.275   3.944
 2710TIP3    H1 8136   4.341   5.291   3.976
 2710TIP3    H2 8137   4.424   5.189   3.902
 2711TIP3   OH2 8138   3.612   4.923   3.914
 2711TIP3    H1 8139   3.659   4.847   3.881
 2711TIP3    H2 8140   3.583   4.897   4.002
 2712TIP3   OH2 8141   1.071   4.723   0.924
 2712TIP3    H1 8142   1.046   4.814   0.910
 2712TIP3    H2 8143   1.068   4.683   0.836
 2713TIP3   OH2 8144   5.321   2.029   3.334
 2713TIP3    H1 8145   5.349   1.976   3.260
 2713TIP3    H2 8146   5.236   1.994   3.359
 2714TIP3   OH2 8147   3.830   1.281   5.215
 2714TIP3    H1 8148   3.763   1.335   5.173
 2714TIP3    H2 8149   3.797   1.266   5.304
 2715TIP3   OH2 8150   2.825   0.495   4.581
 2715TIP3    H1 8151   2.905   0.442   4.586
 2715TIP3    H2 8152   2.754   0.431   4.581
 2716TIP3   OH2 8153   0.214   0.419   1.685
 2716TIP3    H1 8154   0.193   0.349   1.623
 2716TIP3    H2 8155   0.310   0.418   1.691
 2717TIP3   OH2 8156   1.884   5.877   3.244
 2717TIP3    H1 8157   1.860   5.969   3.253
 2717TIP3    H2 8158   1.938   5.858   3.320
 2718TIP3   OH2 8159   1.828   0.012   1.133
 2718TIP3    H1 8160   1.803  -0.063   1.187
 2718TIP3    H2 8161   1.801   0.088   1.183
 2719TIP3   OH2 8162   3.701   1.909   2.337
 2719TIP3    H1 8163   3.647   1.986   2.316
 2719TIP3    H2 8164   3.675   1.844   2.272
 2720TIP3   OH2 8165   5.861   5.626   1.256
 2720TIP3    H1 8166   5.849   5.583   1.341
 2720TIP3    H2 8167   5.941   5.677   1.266
 2721TIP3   OH2 8168   4.380   4.699   2.221
 2721TIP3    H1 8169   4.404   4.696   2.313
 2721TIP3    H2 8170   4.375   4.792   2.200
 2722TIP3   OH2 8171   5.363   4.821   0.589
 2722TIP3    H1 8172   5.427   4.888   0.565
 2722TIP3    H2 8173   5.339   4.780   0.506
 2723TIP3   OH2 8174   5.739   3.715   0.929
 2723TIP3    H1 8175   5.748   3.806   0.902
 2723TIP3    H2 8176   5.728   3.718   1.024
 2724TIP3   OH2 8177   6.219   5.848   0.109
 2724TIP3    H1 8178   6.140   5.802   0.136
 2724TIP3    H2 8179   6.189   5.934   0.079
 2725TIP3   OH2 8180   5.951   1.943   3.371
 2725TIP3    H1 8181   6.042   1.969   3.387
 2725TIP3    H2 8182   5.946   1.853   3.402
 2726TIP3   OH2 8183   5.926   4.989   0.294
 2726TIP3    H1 8184   5.883   5.006   0.378
 2726TIP3    H2 8185   6.019   5.002   0.312
 2727TIP3   OH2 8186   3.223   3.357   3.974
 2727TIP3    H1 8187   3.236   3.265   3.996
 2727TIP3    H2 8188   3.150   3.356   3.912
 2728TIP3   OH2 8189   6.119   1.632   3.071
 2728TIP3    H1 8190   6.199   1.682   3.054
 2728TIP3    H2 8191   6.132   1.594   3.158
 2729TIP3   OH2 8192   0.911   5.388   3.484
 2729TIP3    H1 8193   0.912   5.358   3.575
 2729TIP3    H2 8194   0.826   5.359   3.451
 2730TIP3   OH2 8195   4.758   4.382   4.844
 2730TIP3    H1 8196   4.801   4.309   4.889
 2730TIP3    H2 8197   4.821   4.453   4.848
 2731TIP3   OH2 8198   0.675   4.362   4.958
 2731TIP3    H1 8199   0.632   4.424   4.899
 2731TIP3    H2 8200   0.759   4.403   4.978
 2732TIP3   OH2 8201   4.798   0.555   2.192
 2732TIP3    H1 8202   4.837   0.518   2.271
 2732TIP3    H2 8203   4.837   0.642   2.185
 2733TIP3   OH2 8204   6.350   2.191   3.894
 2733TIP3    H1 8205   6.429   2.239   3.867
 2733TIP3    H2 8206   6.375   2.099   3.891
 2734TIP3   OH2 8207   5.225   0.531   4.049
 2734TIP3    H1 8208   5.241   0.446   4.090
 2734TIP3    H2 8209   5.253   0.519   3.958
 2735TIP3   OH2 8210   5.789   0.903   1.954
 2735TIP3    H1 8211   5.705   0.870   1.924
 2735TIP3    H2 8212   5.781   0.907   2.049
 2736TIP3   OH2 8213   4.390   4.613   0.158
 2736TIP3    H1 8214   4.420   4.561   0.233
 2736TIP3    H2 8215   4.450   4.687   0.155
 2737TIP3   OH2 8216   2.384   2.781   0.720
 2737TIP3    H1 8217   2.373   2.703   0.775
 2737TIP3    H2 8218   2.395   2.853   0.782
 2738TIP3   OH2 8219   5.939   4.591   3.530
 2738TIP3    H1 8220   5.987   4.609   3.611
 2738TIP3    H2 8221   5.882   4.517   3.551
 2739TIP3   OH2 8222   4.483   1.343   4.633
 2739TIP3    H1 8223   4.567   1.345   4.586
 2739TIP3    H2 8224   4.440   1.264   4.600
 2740TIP3   OH2 8225   4.061   0.957   1.979
 2740TIP3    H1 8226   4.067   1.012   2.057
 2740TIP3    H2 8227   4.132   0.894   1.988
 2741TIP3   OH2 8228   4.066   5.585   0.205
 2741TIP3    H1 8229   4.072   5.490   0.197
 2741TIP3    H2 8230   4.011   5.612   0.132
 2742TIP3   OH2 8231   5.402   1.263   0.990
 2742TIP3    H1 8232   5.367   1.275   1.078
 2742TIP3    H2 8233   5.343   1.199   0.950
 2743TIP3   OH2 8234   2.056   0.641   2.144
 2743TIP3    H1 8235   2.089   0.588   2.217
 2743TIP3    H2 8236   1.983   0.690   2.182
 2744TIP3   OH2 8237   3.352   5.746   3.767
 2744TIP3    H1 8238   3.421   5.730   3.832
 2744TIP3    H2 8239   3.391   5.808   3.706
 2745TIP3   OH2 8240   2.290   5.236   1.397
 2745TIP3    H1 8241   2.261   5.263   1.310
 2745TIP3    H2 8242   2.372   5.189   1.381
 2746TIP3   OH2 8243   3.470   3.064   3.879
 2746TIP3    H1 8244   3.546   3.114   3.848
 2746TIP3    H2 8245   3.507   2.982   3.910
 2747TIP3   OH2 8246   6.083   5.811   3.138
 2747TIP3    H1 8247   6.172   5.817   3.104
 2747TIP3    H2 8248   6.091   5.757   3.216
 2748TIP3   OH2 8249   2.457   4.329   0.730
 2748TIP3    H1 8250   2.500   4.319   0.815
 2748TIP3    H2 8251   2.396   4.256   0.726
 2749TIP3   OH2 8252   6.239   1.415   4.300
 2749TIP3    H1 8253   6.245   1.476   4.374
 2749TIP3    H2 8254   6.190   1.462   4.234
 2750TIP3   OH2 8255   0.346   2.542   3.036
 2750TIP3    H1 8256   0.260   2.576   3.013
 2750TIP3    H2 8257   0.398   2.620   3.057
 2751TIP3   OH2 8258   4.636   4.025   3.963
 2751TIP3    H1 8259   4.548   4.062   3.969
 2751TIP3    H2 8260   4.686   4.089   3.912
 2752TIP3   OH2 8261   1.743   3.125   2.785
 2752TIP3    H1 8262   1.822   3.120   2.732
 2752TIP3    H2 8263   1.772   3.104   2.874
 2753TIP3   OH2 8264   0.844   1.957   4.740
 2753TIP3    H1 8265   0.858   1.901   4.817
 2753TIP3    H2 8266   0.751   1.947   4.720
 2754TIP3   OH2 8267   5.539   2.697   2.527
 2754TIP3    H1 8268   5.600   2.633   2.490
 2754TIP3    H2 8269   5.482   2.722   2.454
 2755TIP3   OH2 8270   1.473   0.985   4.522
 2755TIP3    H1 8271   1.509   1.037   4.451
 2755TIP3    H2 8272   1.383   1.016   4.533
 2756TIP3   OH2 8273   2.666   4.955   5.199
 2756TIP3    H1 8274   2.656   5.020   5.128
 2756TIP3    H2 8275   2.682   4.873   5.153
 2757TIP3   OH2 8276   0.088   0.311   2.452
 2757TIP3    H1 8277   0.157   0.333   2.389
 2757TIP3    H2 8278   0.108   0.365   2.528
 2758TIP3   OH2 8279   5.240   2.495   0.112
 2758TIP3    H1 8280   5.164   2.489   0.169
 2758TIP3    H2 8281   5.277   2.581   0.130
 2759TIP3   OH2 8282   1.236  -0.015   1.192
 2759TIP3    H1 8283   1.299   0.045   1.152
 2759TIP3    H2 8284   1.187  -0.051   1.118
 2760TIP3   OH2 8285   4.475   2.068   3.215
 2760TIP3    H1 8286   4.539   2.001   3.193
 2760TIP3    H2 8287   4.524   2.150   3.211
 2761TIP3   OH2 8288   2.587   5.197   4.802
 2761TIP3    H1 8289   2.584   5.123   4.741
 2761TIP3    H2 8290   2.556   5.162   4.885
 2762TIP3   OH2 8291   0.120   2.108   1.496
 2762TIP3    H1 8292   0.184   2.059   1.548
 2762TIP3    H2 8293   0.067   2.041   1.454
 2763TIP3   OH2 8294   2.422   3.502   2.313
 2763TIP3    H1 8295   2.335   3.535   2.337
 2763TIP3    H2 8296   2.404   3.422   2.264
 2764TIP3   OH2 8297   4.366   0.993   2.675
 2764TIP3    H1 8298   4.359   1.088   2.677
 2764TIP3    H2 8299   4.277   0.963   2.657
 2765TIP3   OH2 8300   2.043   5.590   3.224
 2765TIP3    H1 8301   2.130   5.618   3.196
 2765TIP3    H2 8302   1.986   5.664   3.204
 2766TIP3   OH2 8303   1.198   0.624   1.622
 2766TIP3    H1 8304   1.226   0.603   1.712
 2766TIP3    H2 8305   1.133   0.693   1.634
 2767TIP3   OH2 8306   3.405   2.588   4.876
 2767TIP3    H1 8307   3.460   2.620   4.948
 2767TIP3    H2 8308   3.360   2.666   4.844
 2768TIP3   OH2 8309   3.549   2.133   2.279
 2768TIP3    H1 8310   3.465   2.154   2.237
 2768TIP3    H2 8311   3.559   2.201   2.346
 2769TIP3   OH2 8312   5.679   0.241   4.759
 2769TIP3    H1 8313   5.589   0.257   4.730
 2769TIP3    H2 8314   5.673   0.235   4.854
 2770TIP3   OH2 8315   2.690   0.488   2.411
 2770TIP3    H1 8316   2.702   0.447   2.325
 2770TIP3    H2 8317   2.628   0.430   2.457
 2771TIP3   OH2 8318   1.560   0.842   3.322
 2771TIP3    H1 8319   1.564   0.911   3.388
 2771TIP3    H2 8320   1.647   0.842   3.282
 2772TIP3   OH2 8321   0.722   1.153   3.276
 2772TIP3    H1 8322   0.698   1.062   3.256
 2772TIP3    H2 8323   0.765   1.185   3.196
 2773TIP3   OH2 8324   0.909   0.777   4.474
 2773TIP3    H1 8325   0.865   0.760   4.391
 2773TIP3    H2 8326   1.001   0.758   4.457
 2774TIP3   OH2 8327   3.544   5.375   2.456
 2774TIP3    H1 8328   3.558   5.305   2.519
 2774TIP3    H2 8329   3.457   5.357   2.419
 2775TIP3   OH2 8330   2.894   0.246   0.692
 2775TIP3    H1 8331   2.903   0.199   0.609
 2775TIP3    H2 8332   2.901   0.177   0.759
 2776TIP3   OH2 8333   2.060   4.801   3.472
 2776TIP3    H1 8334   2.005   4.741   3.522
 2776TIP3    H2 8335   2.003   4.831   3.401
 2777TIP3   OH2 8336   0.816   5.426   3.769
 2777TIP3    H1 8337   0.751   5.357   3.784
 2777TIP3    H2 8338   0.784   5.501   3.819
 2778TIP3   OH2 8339   5.055   4.517   2.395
 2778TIP3    H1 8340   5.011   4.458   2.457
 2778TIP3    H2 8341   5.122   4.561   2.447
 2779TIP3   OH2 8342   5.501   5.791   0.247
 2779TIP3    H1 8343   5.570   5.818   0.308
 2779TIP3    H2 8344   5.460   5.874   0.221
 2780TIP3   OH2 8345   0.672   4.010   4.320
 2780TIP3    H1 8346   0.656   3.916   4.315
 2780TIP3    H2 8347   0.756   4.018   4.365
 2781TIP3   OH2 8348   5.529   1.246   4.378
 2781TIP3    H1 8349   5.447   1.296   4.374
 2781TIP3    H2 8350   5.522   1.196   4.460
 2782TIP3   OH2 8351   5.292   3.525   4.426
 2782TIP3    H1 8352   5.237   3.583   4.373
 2782TIP3    H2 8353   5.345   3.585   4.479
 2783TIP3   OH2 8354   1.839   0.842   3.244
 2783TIP3    H1 8355   1.856   0.851   3.150
 2783TIP3    H2 8356   1.867   0.754   3.266
 2784TIP3   OH2 8357   3.358   2.214   0.146
 2784TIP3    H1 8358   3.447   2.233   0.174
 2784TIP3    H2 8359   3.328   2.145   0.206
 2785TIP3   OH2 8360   1.843   1.121   5.122
 2785TIP3    H1 8361   1.817   1.074   5.201
 2785TIP3    H2 8362   1.925   1.163   5.146
 2786TIP3   OH2 8363   5.572   5.677   1.787
 2786TIP3    H1 8364   5.558   5.697   1.880
 2786TIP3    H2 8365   5.633   5.745   1.757
 2787TIP3   OH2 8366   5.738   3.973   0.866
 2787TIP3    H1 8367   5.784   4.009   0.790
 2787TIP3    H2 8368   5.694   4.049   0.904
 2788TIP3   OH2 8369   5.080   3.735   1.286
 2788TIP3    H1 8370   5.007   3.721   1.345
 2788TIP3    H2 8371   5.155   3.696   1.331
 2789TIP3   OH2 8372   4.257   4.807   0.813
 2789TIP3    H1 8373   4.330   4.758   0.850
 2789TIP3    H2 8374   4.187   4.800   0.879
 2790TIP3   OH2 8375   0.316   1.725   4.747
 2790TIP3    H1 8376   0.329   1.681   4.831
 2790TIP3    H2 8377   0.301   1.655   4.684
 2791TIP3   OH2 8378   5.427   1.456   3.344
 2791TIP3    H1 8379   5.419   1.455   3.439
 2791TIP3    H2 8380   5.340   1.481   3.312
 2792TIP3   OH2 8381   0.346   0.369   1.360
 2792TIP3    H1 8382   0.403   0.313   1.412
 2792TIP3    H2 8383   0.334   0.322   1.278
 2793TIP3   OH2 8384   1.084   1.192   3.128
 2793TIP3    H1 8385   1.132   1.270   3.102
 2793TIP3    H2 8386   1.052   1.154   3.046
 2794TIP3   OH2 8387   5.087   5.026   2.097
 2794TIP3    H1 8388   5.133   5.002   2.016
 2794TIP3    H2 8389   4.998   5.048   2.068
 2795TIP3   OH2 8390   2.792   3.653   4.972
 2795TIP3    H1 8391   2.796   3.635   5.066
 2795TIP3    H2 8392   2.723   3.596   4.938
 2796TIP3   OH2 8393   0.803   2.854   3.882
 2796TIP3    H1 8394   0.882   2.873   3.832
 2796TIP3    H2 8395   0.803   2.918   3.953
 2797TIP3   OH2 8396   1.024   2.266   3.651
 2797TIP3    H1 8397   0.943   2.222   3.626
 2797TIP3    H2 8398   0.996   2.336   3.711
 2798TIP3   OH2 8399   0.260   2.601   1.784
 2798TIP3    H1 8400   0.238   2.539   1.714
 2798TIP3    H2 8401   0.177   2.639   1.809
 2799TIP3   OH2 8402   1.557   4.974   2.711
 2799TIP3    H1 8403   1.632   5.031   2.696
 2799TIP3    H2 8404   1.483   5.033   2.725
 2800TIP3   OH2 8405   6.148   5.866   4.742
 2800TIP3    H1 8406   6.145   5.883   4.836
 2800TIP3    H2 8407   6.062   5.891   4.710
 2801TIP3   OH2 8408   1.389   5.455   2.336
 2801TIP3    H1 8409   1.483   5.441   2.325
 2801TIP3    H2 8410   1.383   5.536   2.387
 2802TIP3   OH2 8411   6.078   0.246   2.787
 2802TIP3    H1 8412   6.012   0.177   2.793
 2802TIP3    H2 8413   6.031   0.326   2.810
 2803TIP3   OH2 8414   1.214   5.133   2.283
 2803TIP3    H1 8415   1.147   5.200   2.271
 2803TIP3    H2 8416   1.249   5.118   2.195
 2804TIP3   OH2 8417   6.145   5.734   1.904
 2804TIP3    H1 8418   6.052   5.713   1.918
 2804TIP3    H2 8419   6.192   5.676   1.964
 2805TIP3   OH2 8420   0.893   2.982   4.438
 2805TIP3    H1 8421   0.925   3.036   4.366
 2805TIP3    H2 8422   0.807   2.950   4.408
 2806TIP3   OH2 8423   0.732   0.637   1.182
 2806TIP3    H1 8424   0.652   0.594   1.150
 2806TIP3    H2 8425   0.768   0.576   1.245
 2807TIP3   OH2 8426   0.686   2.971   1.218
 2807TIP3    H1 8427   0.669   2.959   1.311
 2807TIP3    H2 8428   0.777   2.998   1.212
 2808TIP3   OH2 8429   2.823   3.892   0.621
 2808TIP3    H1 8430   2.745   3.859   0.665
 2808TIP3    H2 8431   2.805   3.882   0.528
 2809TIP3   OH2 8432   3.077   1.576   4.116
 2809TIP3    H1 8433   3.141   1.596   4.047
 2809TIP3    H2 8434   3.014   1.518   4.074
 2810TIP3   OH2 8435   2.714   5.048   4.283
 2810TIP3    H1 8436   2.709   5.090   4.369
 2810TIP3    H2 8437   2.780   5.099   4.235
 2811TIP3   OH2 8438   1.045   5.067   2.575
 2811TIP3    H1 8439   1.103   5.117   2.518
 2811TIP3    H2 8440   0.957   5.100   2.555
 2812TIP3   OH2 8441   0.330   4.466   3.623
 2812TIP3    H1 8442   0.240   4.445   3.601
 2812TIP3    H2 8443   0.324   4.518   3.703
 2813TIP3   OH2 8444   4.206   1.611   3.501
 2813TIP3    H1 8445   4.220   1.685   3.561
 2813TIP3    H2 8446   4.222   1.533   3.555
 2814TIP3   OH2 8447   0.406   5.163   1.537
 2814TIP3    H1 8448   0.343   5.234   1.535
 2814TIP3    H2 8449   0.480   5.194   1.485
 2815TIP3   OH2 8450   2.477   1.260   2.291
 2815TIP3    H1 8451   2.515   1.341   2.325
 2815TIP3    H2 8452   2.533   1.191   2.326
 2816TIP3   OH2 8453   0.570   0.745   0.128
 2816TIP3    H1 8454   0.642   0.691   0.096
 2816TIP3    H2 8455   0.521   0.687   0.187
 2817TIP3   OH2 8456   5.075   2.810   2.503
 2817TIP3    H1 8457   5.066   2.896   2.544
 2817TIP3    H2 8458   5.096   2.751   2.575
 2818TIP3   OH2 8459   3.319   3.868   3.643
 2818TIP3    H1 8460   3.408   3.894   3.665
 2818TIP3    H2 8461   3.268   3.891   3.721
 2819TIP3   OH2 8462   4.980   0.916   4.773
 2819TIP3    H1 8463   4.955   0.950   4.858
 2819TIP3    H2 8464   4.922   0.842   4.758
 2820TIP3   OH2 8465   1.839   3.016   3.038
 2820TIP3    H1 8466   1.918   3.037   3.088
 2820TIP3    H2 8467   1.858   2.931   2.997
 2821TIP3   OH2 8468   0.585   0.383   3.580
 2821TIP3    H1 8469   0.534   0.307   3.607
 2821TIP3    H2 8470   0.676   0.354   3.584
 2822TIP3   OH2 8471   1.274   2.771   3.539
 2822TIP3    H1 8472   1.283   2.829   3.463
 2822TIP3    H2 8473   1.328   2.695   3.519
 2823TIP3   OH2 8474   5.002   3.894   1.522
 2823TIP3    H1 8475   5.094   3.908   1.542
 2823TIP3    H2 8476   4.991   3.930   1.434
 2824TIP3   OH2 8477   3.397   0.148   2.893
 2824TIP3    H1 8478   3.442   0.190   2.819
 2824TIP3    H2 8479   3.418   0.203   2.968
 2825TIP3   OH2 8480   2.094   3.191   1.897
 2825TIP3    H1 8481   2.156   3.119   1.904
 2825TIP3    H2 8482   2.148   3.268   1.878
 2826TIP3   OH2 8483   4.058   2.575   0.737
 2826TIP3    H1 8484   4.005   2.654   0.747
 2826TIP3    H2 8485   4.100   2.586   0.652
 2827TIP3   OH2 8486   3.093   1.768   4.963
 2827TIP3    H1 8487   3.149   1.842   4.985
 2827TIP3    H2 8488   3.154   1.697   4.943
 2828TIP3   OH2 8489   0.083   4.423   3.120
 2828TIP3    H1 8490   0.108   4.492   3.182
 2828TIP3    H2 8491   0.127   4.448   3.038
 2829TIP3   OH2 8492   4.673   2.767   3.065
 2829TIP3    H1 8493   4.718   2.722   3.136
 2829TIP3    H2 8494   4.705   2.724   2.985
 2830TIP3   OH2 8495   4.112   1.058   4.559
 2830TIP3    H1 8496   4.067   1.077   4.477
 2830TIP3    H2 8497   4.044   1.071   4.626
 2831TIP3   OH2 8498   5.047   3.542   3.589
 2831TIP3    H1 8499   5.112   3.518   3.523
 2831TIP3    H2 8500   5.097   3.549   3.671
 2832TIP3   OH2 8501   4.178   0.095   4.573
 2832TIP3    H1 8502   4.179   0.002   4.551
 2832TIP3    H2 8503   4.270   0.119   4.580
 2833TIP3   OH2 8504   0.765   2.122   3.882
 2833TIP3    H1 8505   0.758   2.206   3.928
 2833TIP3    H2 8506   0.750   2.056   3.949
 2834TIP3   OH2 8507   4.731   5.822   2.499
 2834TIP3    H1 8508   4.692   5.749   2.548
 2834TIP3    H2 8509   4.823   5.798   2.490
 2835TIP3   OH2 8510   5.382   2.749   1.369
 2835TIP3    H1 8511   5.392   2.843   1.383
 2835TIP3    H2 8512   5.298   2.728   1.410
 2836TIP3   OH2 8513   5.946   5.710   1.003
 2836TIP3    H1 8514   5.880   5.728   1.070
 2836TIP3    H2 8515   5.959   5.616   1.005
 2837TIP3   OH2 8516   5.714   0.601   5.076
 2837TIP3    H1 8517   5.672   0.686   5.086
 2837TIP3    H2 8518   5.808   0.621   5.077
 2838TIP3   OH2 8519   1.867   2.361   1.259
 2838TIP3    H1 8520   1.889   2.432   1.319
 2838TIP3    H2 8521   1.950   2.317   1.242
 2839TIP3   OH2 8522   5.321   4.759   5.058
 2839TIP3    H1 8523   5.401   4.707   5.059
 2839TIP3    H2 8524   5.350   4.849   5.075
 2840TIP3   OH2 8525   2.578   1.778   4.579
 2840TIP3    H1 8526   2.568   1.834   4.502
 2840TIP3    H2 8527   2.638   1.709   4.551
 2841TIP3   OH2 8528   0.117   3.386   2.573
 2841TIP3    H1 8529   0.051   3.349   2.515
 2841TIP3    H2 8530   0.083   3.373   2.661
 2842TIP3   OH2 8531   3.357   0.604   0.121
 2842TIP3    H1 8532   3.398   0.566   0.044
 2842TIP3    H2 8533   3.280   0.549   0.136
 2843TIP3   OH2 8534   6.057   2.148   4.775
 2843TIP3    H1 8535   6.152   2.134   4.783
 2843TIP3    H2 8536   6.019   2.072   4.821
 2844TIP3   OH2 8537   2.240   5.166   4.854
 2844TIP3    H1 8538   2.153   5.148   4.890
 2844TIP3    H2 8539   2.297   5.170   4.931
 2845TIP3   OH2 8540   3.283   5.038   3.857
 2845TIP3    H1 8541   3.273   5.067   3.766
 2845TIP3    H2 8542   3.300   4.944   3.850
 2846TIP3   OH2 8543   0.113   5.133   2.076
 2846TIP3    H1 8544   0.093   5.040   2.072
 2846TIP3    H2 8545   0.145   5.148   2.164
 2847TIP3   OH2 8546   3.041   1.822   0.425
 2847TIP3    H1 8547   3.003   1.855   0.344
 2847TIP3    H2 8548   2.990   1.743   0.445
 2848TIP3   OH2 8549   5.652   2.441   4.186
 2848TIP3    H1 8550   5.657   2.387   4.264
 2848TIP3    H2 8551   5.719   2.406   4.128
 2849TIP3   OH2 8552   2.864   1.830   1.471
 2849TIP3    H1 8553   2.831   1.874   1.549
 2849TIP3    H2 8554   2.958   1.821   1.486
 2850TIP3   OH2 8555   0.160   1.374   3.960
 2850TIP3    H1 8556   0.150   1.425   3.880
 2850TIP3    H2 8557   0.133   1.434   4.030
 2851TIP3   OH2 8558   3.985   4.718   1.348
 2851TIP3    H1 8559   4.059   4.733   1.289
 2851TIP3    H2 8560   3.954   4.805   1.371
 2852TIP3   OH2 8561   5.687   1.986   3.532
 2852TIP3    H1 8562   5.631   1.921   3.490
 2852TIP3    H2 8563   5.776   1.956   3.512
 2853TIP3   OH2 8564   2.839   3.669   2.758
 2853TIP3    H1 8565   2.825   3.585   2.801
 2853TIP3    H2 8566   2.917   3.655   2.704
 2854TIP3   OH2 8567   3.302   1.683   2.062
 2854TIP3    H1 8568   3.307   1.616   1.994
 2854TIP3    H2 8569   3.209   1.704   2.068
 2855TIP3   OH2 8570   5.671   1.239   0.997
 2855TIP3    H1 8571   5.581   1.271   0.993
 2855TIP3    H2 8572   5.669   1.156   0.951
 2856TIP3   OH2 8573   6.150   1.062   1.833
 2856TIP3    H1 8574   6.189   1.108   1.759
 2856TIP3    H2 8575   6.063   1.100   1.842
 2857TIP3   OH2 8576   2.691   0.181   0.330
 2857TIP3    H1 8577   2.769   0.130   0.353
 2857TIP3    H2 8578   2.698   0.261   0.382
 2858TIP3   OH2 8579   4.601   3.904   3.086
 2858TIP3    H1 8580   4.622   3.997   3.077
 2858TIP3    H2 8581   4.537   3.887   3.017
 2859TIP3   OH2 8582   1.630   0.342   0.236
 2859TIP3    H1 8583   1.700   0.361   0.173
 2859TIP3    H2 8584   1.573   0.419   0.231
 2860TIP3   OH2 8585   3.439   4.931   1.781
 2860TIP3    H1 8586   3.472   4.999   1.722
 2860TIP3    H2 8587   3.497   4.857   1.767
 2861TIP3   OH2 8588   4.183   2.096   3.161
 2861TIP3    H1 8589   4.249   2.085   3.230
 2861TIP3    H2 8590   4.229   2.071   3.080
 2862TIP3   OH2 8591   5.880   1.295   4.220
 2862TIP3    H1 8592   5.796   1.262   4.251
 2862TIP3    H2 8593   5.937   1.292   4.298
 2863TIP3   OH2 8594   5.778   4.117   1.880
 2863TIP3    H1 8595   5.775   4.125   1.975
 2863TIP3    H2 8596   5.686   4.119   1.852
 2864TIP3   OH2 8597   2.423   1.843   2.491
 2864TIP3    H1 8598   2.400   1.796   2.411
 2864TIP3    H2 8599   2.420   1.777   2.560
 2865TIP3   OH2 8600   5.214   5.318   4.825
 2865TIP3    H1 8601   5.217   5.410   4.799
 2865TIP3    H2 8602   5.306   5.292   4.834
 2866TIP3   OH2 8603   1.143   1.778   2.354
 2866TIP3    H1 8604   1.185   1.819   2.278
 2866TIP3    H2 8605   1.206   1.712   2.384
 2867TIP3   OH2 8606   6.250   4.399   1.080
 2867TIP3    H1 8607   6.289   4.485   1.098
 2867TIP3    H2 8608   6.200   4.379   1.159
 2868TIP3   OH2 8609   1.304   4.973   2.922
 2868TIP3    H1 8610   1.256   4.912   2.867
 2868TIP3    H2 8611   1.294   4.940   3.011
 2869TIP3   OH2 8612   2.277   0.200   1.023
 2869TIP3    H1 8613   2.286   0.133   0.955
 2869TIP3    H2 8614   2.218   0.265   0.984
 2870TIP3   OH2 8615   1.231   3.137   2.196
 2870TIP3    H1 8616   1.152   3.136   2.250
 2870TIP3    H2 8617   1.221   3.215   2.142
 2871TIP3   OH2 8618   5.336   0.857   4.578
 2871TIP3    H1 8619   5.269   0.918   4.610
 2871TIP3    H2 8620   5.401   0.854   4.648
 2872TIP3   OH2 8621   1.118   4.689   3.938
 2872TIP3    H1 8622   1.143   4.762   3.880
 2872TIP3    H2 8623   1.201   4.645   3.957
 2873TIP3   OH2 8624   3.512   5.795   0.986
 2873TIP3    H1 8625   3.422   5.804   1.018
 2873TIP3    H2 8626   3.525   5.871   0.929
 2874TIP3   OH2 8627   2.850   2.491   4.882
 2874TIP3    H1 8628   2.876   2.579   4.908
 2874TIP3    H2 8629   2.837   2.496   4.787
 2875TIP3   OH2 8630   6.316   3.256   2.391
 2875TIP3    H1 8631   6.259   3.223   2.460
 2875TIP3    H2 8632   6.257   3.275   2.318
 2876TIP3   OH2 8633   1.549   5.985   3.722
 2876TIP3    H1 8634   1.593   6.067   3.697
 2876TIP3    H2 8635   1.606   5.916   3.687
 2877TIP3   OH2 8636   4.261   5.206   2.915
 2877TIP3    H1 8637   4.226   5.117   2.915
 2877TIP3    H2 8638   4.188   5.260   2.945
 2878TIP3   OH2 8639   0.460   5.440   4.471
 2878TIP3    H1 8640   0.475   5.415   4.380
 2878TIP3    H2 8641   0.538   5.410   4.518
 2879TIP3   OH2 8642   0.333   0.234   2.794
 2879TIP3    H1 8643   0.247   0.255   2.757
 2879TIP3    H2 8644   0.395   0.261   2.726
 2880TIP3   OH2 8645   5.223   4.514   2.876
 2880TIP3    H1 8646   5.135   4.503   2.914
 2880TIP3    H2 8647   5.209   4.513   2.781
 2881TIP3   OH2 8648   3.620   3.922   3.673
 2881TIP3    H1 8649   3.656   4.000   3.715
 2881TIP3    H2 8650   3.685   3.853   3.690
 2882TIP3   OH2 8651   2.252   0.533   4.629
 2882TIP3    H1 8652   2.210   0.542   4.715
 2882TIP3    H2 8653   2.243   0.440   4.608
 2883TIP3   OH2 8654   0.524   3.100   1.647
 2883TIP3    H1 8655   0.483   3.014   1.644
 2883TIP3    H2 8656   0.472   3.153   1.587
 2884TIP3   OH2 8657   5.172   4.935   1.074
 2884TIP3    H1 8658   5.231   4.886   1.017
 2884TIP3    H2 8659   5.095   4.951   1.020
 2885TIP3   OH2 8660   1.637   3.923   2.946
 2885TIP3    H1 8661   1.577   3.938   3.020
 2885TIP3    H2 8662   1.692   4.001   2.945
 2886TIP3   OH2 8663   1.223   0.521   2.635
 2886TIP3    H1 8664   1.302   0.569   2.613
 2886TIP3    H2 8665   1.154   0.563   2.583
 2887TIP3   OH2 8666   4.550   2.106   0.538
 2887TIP3    H1 8667   4.454   2.100   0.530
 2887TIP3    H2 8668   4.582   2.086   0.450
 2888TIP3   OH2 8669   6.257   2.201   3.316
 2888TIP3    H1 8670   6.165   2.199   3.289
 2888TIP3    H2 8671   6.263   2.133   3.384
 2889TIP3   OH2 8672   6.262   2.398   1.242
 2889TIP3    H1 8673   6.228   2.380   1.154
 2889TIP3    H2 8674   6.262   2.493   1.249
 2890TIP3   OH2 8675   3.878   4.562   2.856
 2890TIP3    H1 8676   3.858   4.629   2.791
 2890TIP3    H2 8677   3.799   4.557   2.910
 2891TIP3   OH2 8678   4.502   2.009   2.214
 2891TIP3    H1 8679   4.485   1.929   2.165
 2891TIP3    H2 8680   4.417   2.033   2.251
 2892TIP3   OH2 8681   1.115   3.993   3.508
 2892TIP3    H1 8682   1.113   3.939   3.586
 2892TIP3    H2 8683   1.078   4.077   3.536
 2893TIP3   OH2 8684   4.577   3.855   4.415
 2893TIP3    H1 8685   4.638   3.784   4.397
 2893TIP3    H2 8686   4.493   3.811   4.430
 2894TIP3   OH2 8687   3.803   5.869   3.330
 2894TIP3    H1 8688   3.832   5.866   3.239
 2894TIP3    H2 8689   3.708   5.860   3.325
 2895TIP3   OH2 8690   2.803   0.892   3.386
 2895TIP3    H1 8691   2.716   0.928   3.399
 2895TIP3    H2 8692   2.792   0.798   3.394
 2896TIP3   OH2 8693   2.197   3.493   1.787
 2896TIP3    H1 8694   2.263   3.542   1.738
 2896TIP3    H2 8695   2.154   3.558   1.843
 2897TIP3   OH2 8696   6.232   5.139   1.536
 2897TIP3    H1 8697   6.229   5.118   1.629
 2897TIP3    H2 8698   6.312   5.098   1.504
 2898TIP3   OH2 8699   1.893   4.701   3.779
 2898TIP3    H1 8700   1.905   4.644   3.704
 2898TIP3    H2 8701   1.958   4.671   3.843
 2899TIP3   OH2 8702   5.623   0.853   0.529
 2899TIP3    H1 8703   5.604   0.946   0.541
 2899TIP3    H2 8704   5.718   0.847   0.542
 2900TIP3   OH2 8705   4.992   1.844   0.902
 2900TIP3    H1 8706   4.938   1.923   0.897
 2900TIP3    H2 8707   5.014   1.824   0.810
 2901TIP3   OH2 8708   2.452   0.566   1.053
 2901TIP3    H1 8709   2.527   0.601   1.005
 2901TIP3    H2 8710   2.386   0.547   0.986
 2902TIP3   OH2 8711   4.266   3.338   0.077
 2902TIP3    H1 8712   4.237   3.269   0.018
 2902TIP3    H2 8713   4.186   3.382   0.104
 2903TIP3   OH2 8714   4.607   2.731   1.819
 2903TIP3    H1 8715   4.666   2.700   1.750
 2903TIP3    H2 8716   4.597   2.824   1.802
 2904TIP3   OH2 8717   2.251   3.461   1.373
 2904TIP3    H1 8718   2.239   3.434   1.464
 2904TIP3    H2 8719   2.229   3.383   1.322
 2905TIP3   OH2 8720   4.318   0.834   3.645
 2905TIP3    H1 8721   4.408   0.868   3.642
 2905TIP3    H2 8722   4.320   0.756   3.590
 2906TIP3   OH2 8723   2.621   4.166   0.504
 2906TIP3    H1 8724   2.712   4.168   0.474
 2906TIP3    H2 8725   2.569   4.174   0.425
 2907TIP3   OH2 8726   0.228   2.912   0.269
 2907TIP3    H1 8727   0.186   2.996   0.253
 2907TIP3    H2 8728   0.269   2.888   0.186
 2908TIP3   OH2 8729   1.939   3.912   2.008
 2908TIP3    H1 8730   1.914   3.846   2.072
 2908TIP3    H2 8731   1.931   3.995   2.055
 2909TIP3   OH2 8732   4.299   2.543   1.435
 2909TIP3    H1 8733   4.299   2.595   1.516
 2909TIP3    H2 8734   4.214   2.500   1.434
 2910TIP3   OH2 8735   1.945   4.176   2.103
 2910TIP3    H1 8736   1.996   4.220   2.035
 2910TIP3    H2 8737   1.878   4.239   2.129
 2911TIP3   OH2 8738   3.475   1.310   0.007
 2911TIP3    H1 8739   3.525   1.363   0.069
 2911TIP3    H2 8740   3.447   1.234   0.057
 2912TIP3   OH2 8741   5.664   5.579   3.089
 2912TIP3    H1 8742   5.727   5.648   3.069
 2912TIP3    H2 8743   5.596   5.589   3.022
 2913TIP3   OH2 8744   1.458   5.629   3.268
 2913TIP3    H1 8745   1.388   5.665   3.322
 2913TIP3    H2 8746   1.417   5.613   3.183
 2914TIP3   OH2 8747   3.172   2.567   2.439
 2914TIP3    H1 8748   3.161   2.656   2.472
 2914TIP3    H2 8749   3.242   2.530   2.493
 2915TIP3   OH2 8750   4.331   3.879   3.858
 2915TIP3    H1 8751   4.386   3.864   3.781
 2915TIP3    H2 8752   4.384   3.931   3.917
 2916TIP3   OH2 8753   1.979   3.483   0.833
 2916TIP3    H1 8754   2.007   3.525   0.915
 2916TIP3    H2 8755   1.983   3.552   0.768
 2917TIP3   OH2 8756   0.702   0.668   2.147
 2917TIP3    H1 8757   0.734   0.725   2.077
 2917TIP3    H2 8758   0.757   0.590   2.142
 2918TIP3   OH2 8759   5.399   0.825   2.660
 2918TIP3    H1 8760   5.397   0.813   2.755
 2918TIP3    H2 8761   5.388   0.737   2.624
 2919TIP3   OH2 8762   0.550   0.241   4.837
 2919TIP3    H1 8763   0.459   0.233   4.865
 2919TIP3    H2 8764   0.549   0.312   4.773
 2920TIP3   OH2 8765   5.837   3.429   3.205
 2920TIP3    H1 8766   5.857   3.338   3.181
 2920TIP3    H2 8767   5.742   3.433   3.203
 2921TIP3   OH2 8768   5.296   0.106   4.796
 2921TIP3    H1 8769   5.284   0.144   4.883
 2921TIP3    H2 8770   5.326   0.179   4.742
 2922TIP3   OH2 8771   3.386   1.132   0.850
 2922TIP3    H1 8772   3.319   1.082   0.896
 2922TIP3    H2 8773   3.417   1.196   0.915
 2923TIP3   OH2 8774   0.716   1.170   3.925
 2923TIP3    H1 8775   0.692   1.188   4.016
 2923TIP3    H2 8776   0.751   1.253   3.893
 2924TIP3   OH2 8777   1.426   0.689   2.519
 2924TIP3    H1 8778   1.504   0.734   2.488
 2924TIP3    H2 8779   1.361   0.759   2.529
 2925TIP3   OH2 8780   1.344   2.902   2.362
 2925TIP3    H1 8781   1.438   2.896   2.378
 2925TIP3    H2 8782   1.333   2.983   2.314
 2926TIP3   OH2 8783   4.134   5.851   1.899
 2926TIP3    H1 8784   4.173   5.914   1.838
 2926TIP3    H2 8785   4.155   5.765   1.861
 2927TIP3   OH2 8786   2.444   2.516   4.249
 2927TIP3    H1 8787   2.519   2.564   4.214
 2927TIP3    H2 8788   2.450   2.429   4.208
 2928TIP3   OH2 8789   3.173   4.114   3.590
 2928TIP3    H1 8790   3.155   4.206   3.569
 2928TIP3    H2 8791   3.140   4.066   3.514
 2929TIP3   OH2 8792   5.515   3.984   2.748
 2929TIP3    H1 8793   5.427   4.006   2.780
 2929TIP3    H2 8794   5.549   3.921   2.811
 2930TIP3   OH2 8795   3.594   1.345   1.925
 2930TIP3    H1 8796   3.555   1.353   1.838
 2930TIP3    H2 8797   3.672   1.291   1.911
 2931TIP3   OH2 8798   4.930   0.623   5.111
 2931TIP3    H1 8799   4.844   0.581   5.108
 2931TIP3    H2 8800   4.921   0.692   5.177
 2932TIP3   OH2 8801   0.834   2.081   3.595
 2932TIP3    H1 8802   0.807   2.081   3.687
 2932TIP3    H2 8803   0.752   2.092   3.546
 2933TIP3   OH2 8804   2.743   1.133   4.001
 2933TIP3    H1 8805   2.682   1.106   3.932
 2933TIP3    H2 8806   2.713   1.087   4.079
 2934TIP3   OH2 8807   2.467   4.265   0.308
 2934TIP3    H1 8808   2.407   4.238   0.239
 2934TIP3    H2 8809   2.446   4.357   0.325
 2935TIP3   OH2 8810   2.874   2.297   4.059
 2935TIP3    H1 8811   2.956   2.267   4.019
 2935TIP3    H2 8812   2.889   2.389   4.079
 2936TIP3   OH2 8813   2.349   5.625   3.409
 2936TIP3    H1 8814   2.313   5.549   3.453
 2936TIP3    H2 8815   2.376   5.683   3.480
 2937TIP3   OH2 8816   2.264   3.708   4.038
 2937TIP3    H1 8817   2.273   3.775   3.971
 2937TIP3    H2 8818   2.172   3.714   4.066
 2938TIP3   OH2 8819   5.857   2.451  -0.016
 2938TIP3    H1 8820   5.924   2.513   0.013
 2938TIP3    H2 8821   5.779   2.504  -0.030
 2939TIP3   OH2 8822   1.347   0.857   4.229
 2939TIP3    H1 8823   1.441   0.862   4.213
 2939TIP3    H2 8824   1.323   0.768   4.204
 2940TIP3   OH2 8825   4.890   5.917   3.998
 2940TIP3    H1 8826   4.869   5.825   4.016
 2940TIP3    H2 8827   4.815   5.966   4.030
 2941TIP3   OH2 8828   2.522   5.736   3.229
 2941TIP3    H1 8829   2.517   5.822   3.271
 2941TIP3    H2 8830   2.458   5.683   3.278
 2942TIP3   OH2 8831   1.238   2.399   3.929
 2942TIP3    H1 8832   1.216   2.328   3.989
 2942TIP3    H2 8833   1.153   2.432   3.899
 2943TIP3   OH2 8834   2.257   4.505   1.618
 2943TIP3    H1 8835   2.347   4.535   1.608
 2943TIP3    H2 8836   2.209   4.554   1.550
 2944TIP3   OH2 8837   4.541   1.661   5.060
 2944TIP3    H1 8838   4.577   1.573   5.045
 2944TIP3    H2 8839   4.452   1.645   5.093
 2945TIP3   OH2 8840   6.213   0.118   2.038
 2945TIP3    H1 8841   6.263   0.040   2.012
 2945TIP3    H2 8842   6.251   0.144   2.122
 2946TIP3   OH2 8843   3.773   5.725   4.331
 2946TIP3    H1 8844   3.868   5.734   4.323
 2946TIP3    H2 8845   3.744   5.807   4.371
 2947TIP3   OH2 8846   2.765   0.266   1.673
 2947TIP3    H1 8847   2.773   0.267   1.578
 2947TIP3    H2 8848   2.850   0.294   1.705
 2948TIP3   OH2 8849   0.070   0.522   5.129
 2948TIP3    H1 8850   0.164   0.520   5.113
 2948TIP3    H2 8851   0.031   0.512   5.042
 2949TIP3   OH2 8852   0.211   0.759   0.769
 2949TIP3    H1 8853   0.139   0.707   0.734
 2949TIP3    H2 8854   0.275   0.695   0.799
 2950TIP3   OH2 8855   3.876   2.008   3.421
 2950TIP3    H1 8856   3.851   1.930   3.469
 2950TIP3    H2 8857   3.849   1.991   3.331
 2951TIP3   OH2 8858   3.253   3.705   0.707
 2951TIP3    H1 8859   3.169   3.690   0.663
 2951TIP3    H2 8860   3.239   3.786   0.757
 2952TIP3   OH2 8861   0.278   3.954   1.105
 2952TIP3    H1 8862   0.189   3.985   1.091
 2952TIP3    H2 8863   0.332   4.033   1.104
 2953TIP3   OH2 8864   0.601   3.617   0.369
 2953TIP3    H1 8865   0.592   3.539   0.315
 2953TIP3    H2 8866   0.513   3.636   0.401
 2954TIP3   OH2 8867   4.474   5.490   0.836
 2954TIP3    H1 8868   4.564   5.522   0.834
 2954TIP3    H2 8869   4.429   5.543   0.770
 2955TIP3   OH2 8870   2.564   2.069   3.318
 2955TIP3    H1 8871   2.646   2.019   3.315
 2955TIP3    H2 8872   2.498   2.008   3.285
 2956TIP3   OH2 8873   0.640   3.777   2.536
 2956TIP3    H1 8874   0.554   3.815   2.515
 2956TIP3    H2 8875   0.701   3.849   2.527
 2957TIP3   OH2 8876   4.809   4.177   2.381
 2957TIP3    H1 8877   4.878   4.145   2.323
 2957TIP3    H2 8878   4.748   4.223   2.323
 2958TIP3   OH2 8879   2.423   1.553   4.995
 2958TIP3    H1 8880   2.435   1.491   4.923
 2958TIP3    H2 8881   2.328   1.564   5.001
 2959TIP3   OH2 8882   0.118   2.659   3.044
 2959TIP3    H1 8883   0.060   2.590   3.012
 2959TIP3    H2 8884   0.117   2.725   2.974
 2960TIP3   OH2 8885   6.047   5.918   2.455
 2960TIP3    H1 8886   6.105   5.972   2.402
 2960TIP3    H2 8887   6.089   5.914   2.541
 2961TIP3   OH2 8888   6.010   4.406   1.808
 2961TIP3    H1 8889   6.004   4.421   1.714
 2961TIP3    H2 8890   5.948   4.468   1.847
 2962TIP3   OH2 8891   1.786   1.123   1.582
 2962TIP3    H1 8892   1.807   1.029   1.585
 2962TIP3    H2 8893   1.696   1.129   1.613
 2963TIP3   OH2 8894   5.495   3.641   0.809
 2963TIP3    H1 8895   5.585   3.636   0.843
 2963TIP3    H2 8896   5.460   3.722   0.845
 2964TIP3   OH2 8897   1.982   3.513   2.105
 2964TIP3    H1 8898   1.916   3.502   2.174
 2964TIP3    H2 8899   1.951   3.458   2.033
 2965TIP3   OH2 8900   2.106   3.382   2.444
 2965TIP3    H1 8901   2.097   3.451   2.378
 2965TIP3    H2 8902   2.174   3.415   2.503
 2966TIP3   OH2 8903   3.746   0.004   0.248
 2966TIP3    H1 8904   3.703   0.084   0.276
 2966TIP3    H2 8905   3.809   0.033   0.181
 2967TIP3   OH2 8906   2.397   4.656   0.736
 2967TIP3    H1 8907   2.392   4.722   0.666
 2967TIP3    H2 8908   2.328   4.593   0.714
 2968TIP3   OH2 8909   0.398   5.313   4.036
 2968TIP3    H1 8910   0.454   5.360   4.098
 2968TIP3    H2 8911   0.310   5.323   4.071
 2969TIP3   OH2 8912   1.229   0.544   4.808
 2969TIP3    H1 8913   1.233   0.476   4.740
 2969TIP3    H2 8914   1.297   0.607   4.782
 2970TIP3   OH2 8915   2.829   5.647   2.402
 2970TIP3    H1 8916   2.841   5.552   2.405
 2970TIP3    H2 8917   2.904   5.679   2.353
 2971TIP3   OH2 8918   0.070   0.860   1.763
 2971TIP3    H1 8919   0.052   0.881   1.855
 2971TIP3    H2 8920   0.035   0.772   1.751
 2972TIP3   OH2 8921   4.807   0.811   2.263
 2972TIP3    H1 8922   4.753   0.890   2.262
 2972TIP3    H2 8923   4.770   0.756   2.332
 2973TIP3   OH2 8924   0.281   1.008   0.401
 2973TIP3    H1 8925   0.251   1.097   0.420
 2973TIP3    H2 8926   0.371   1.018   0.372
 2974TIP3   OH2 8927   1.945   0.169   2.308
 2974TIP3    H1 8928   1.878   0.230   2.338
 2974TIP3    H2 8929   1.981   0.209   2.229
 2975TIP3   OH2 8930   1.404   5.211   2.864
 2975TIP3    H1 8931   1.336   5.277   2.871
 2975TIP3    H2 8932   1.360   5.129   2.885
 2976TIP3   OH2 8933   0.215   5.379   1.550
 2976TIP3    H1 8934   0.139   5.343   1.504
 2976TIP3    H2 8935   0.202   5.474   1.546
 2977TIP3   OH2 8936   0.282   4.588   0.495
 2977TIP3    H1 8937   0.377   4.580   0.505
 2977TIP3    H2 8938   0.268   4.597   0.401
 2978TIP3   OH2 8939   2.886   5.879   0.684
 2978TIP3    H1 8940   2.835   5.960   0.676
 2978TIP3    H2 8941   2.850   5.821   0.617
 2979TIP3   OH2 8942   2.989   0.275   1.422
 2979TIP3    H1 8943   3.063   0.319   1.380
 2979TIP3    H2 8944   2.915   0.291   1.364
 2980TIP3   OH2 8945   0.353   5.818   4.195
 2980TIP3    H1 8946   0.443   5.799   4.224
 2980TIP3    H2 8947   0.316   5.732   4.176
 2981TIP3   OH2 8948   0.066   5.867   0.714
 2981TIP3    H1 8949   0.004   5.897   0.781
 2981TIP3    H2 8950   0.144   5.922   0.727
 2982TIP3   OH2 8951   4.066   4.656   4.284
 2982TIP3    H1 8952   4.145   4.658   4.231
 2982TIP3    H2 8953   4.077   4.727   4.348
 2983TIP3   OH2 8954   3.615   4.883   0.916
 2983TIP3    H1 8955   3.620   4.884   0.821
 2983TIP3    H2 8956   3.602   4.791   0.939
 2984TIP3   OH2 8957   0.126   3.094   2.218
 2984TIP3    H1 8958   0.069   3.130   2.286
 2984TIP3    H2 8959   0.113   2.999   2.223
 2985TIP3   OH2 8960   3.350   5.511   3.242
 2985TIP3    H1 8961   3.355   5.428   3.193
 2985TIP3    H2 8962   3.440   5.542   3.245
 2986TIP3   OH2 8963   0.671   1.998   1.282
 2986TIP3    H1 8964   0.698   1.936   1.214
 2986TIP3    H2 8965   0.684   1.951   1.364
 2987TIP3   OH2 8966   4.104   4.768   3.530
 2987TIP3    H1 8967   4.036   4.704   3.512
 2987TIP3    H2 8968   4.186   4.719   3.524
 2988TIP3   OH2 8969   1.847   2.164   2.446
 2988TIP3    H1 8970   1.772   2.156   2.387
 2988TIP3    H2 8971   1.814   2.135   2.531
 2989TIP3   OH2 8972   1.975   1.340   2.626
 2989TIP3    H1 8973   1.995   1.246   2.623
 2989TIP3    H2 8974   1.944   1.355   2.715
 2990TIP3   OH2 8975   0.726   3.861   0.408
 2990TIP3    H1 8976   0.685   3.902   0.484
 2990TIP3    H2 8977   0.698   3.769   0.412
 2991TIP3   OH2 8978   6.125   2.538   0.043
 2991TIP3    H1 8979   6.115   2.499   0.130
 2991TIP3    H2 8980   6.213   2.512   0.015
 2992TIP3   OH2 8981   3.325   2.441   2.668
 2992TIP3    H1 8982   3.271   2.496   2.723
 2992TIP3    H2 8983   3.267   2.371   2.638
 2993TIP3   OH2 8984   2.929   0.519   3.337
 2993TIP3    H1 8985   2.914   0.546   3.247
 2993TIP3    H2 8986   2.883   0.435   3.345
 2994TIP3   OH2 8987   1.215   2.096   3.701
 2994TIP3    H1 8988   1.144   2.158   3.719
 2994TIP3    H2 8989   1.295   2.149   3.707
 2995TIP3   OH2 8990   4.138   5.811   3.303
 2995TIP3    H1 8991   4.135   5.895   3.258
 2995TIP3    H2 8992   4.053   5.803   3.345
 2996TIP3   OH2 8993   3.030   0.953   5.071
 2996TIP3    H1 8994   3.000   1.034   5.029
 2996TIP3    H2 8995   3.022   0.887   5.002
 2997TIP3   OH2 8996   1.827   1.615   2.042
 2997TIP3    H1 8997   1.815   1.694   2.095
 2997TIP3    H2 8998   1.779   1.633   1.961
 2998TIP3   OH2 8999   2.714   0.313   1.315
 2998TIP3    H1 9000   2.697   0.395   1.361
 2998TIP3    H2 9001   2.675   0.326   1.228
 2999TIP3   OH2 9002   5.566   1.325   0.307
 2999TIP3    H1 9003   5.504   1.395   0.331
 2999TIP3    H2 9004   5.649   1.371   0.292
 3000TIP3   OH2 9005   5.466   2.746   2.106
 3000TIP3    H1 9006   5.442   2.780   2.192
 3000TIP3    H2 9007   5.413   2.666   2.097
 3001TIP3   OH2 9008   1.082   4.353   1.555
 3001TIP3    H1 9009   1.035   4.315   1.481
 3001TIP3    H2 9010   1.136   4.282   1.588
 3002TIP3   OH2 9011   2.075   3.235   4.043
 3002TIP3    H1 9012   2.041   3.300   4.104
 3002TIP3    H2 9013   2.136   3.284   3.987
 3003TIP3   OH2 9014   5.918   4.500   4.146
 3003TIP3    H1 9015   5.852   4.455   4.199
 3003TIP3    H2 9016   5.932   4.442   4.071
 3004TIP3   OH2 9017   5.786   1.972   0.623
 3004TIP3    H1 9018   5.719   2.041   0.614
 3004TIP3    H2 9019   5.760   1.906   0.559
 3005TIP3   OH2 9020   0.839   4.078   2.771
 3005TIP3    H1 9021   0.784   4.094   2.848
 3005TIP3    H2 9022   0.899   4.009   2.799
 3006TIP3   OH2 9023   3.809   3.745   4.645
 3006TIP3    H1 9024   3.845   3.736   4.733
 3006TIP3    H2 9025   3.884   3.727   4.587
 3007TIP3   OH2 9026   3.797   1.168   1.851
 3007TIP3    H1 9027   3.864   1.124   1.800
 3007TIP3    H2 9028   3.828   1.162   1.942
 3008TIP3   OH2 9029   4.613   0.077   5.068
 3008TIP3    H1 9030   4.667   0.004   5.039
 3008TIP3    H2 9031   4.638   0.150   5.011
 3009TIP3   OH2 9032   3.074   0.533   5.171
 3009TIP3    H1 9033   3.013   0.594   5.131
 3009TIP3    H2 9034   3.023   0.453   5.184
 3010TIP3   OH2 9035   6.168   4.483   4.723
 3010TIP3    H1 9036   6.184   4.522   4.809
 3010TIP3    H2 9037   6.102   4.416   4.739
 3011TIP3   OH2 9038   6.190   1.692   4.384
 3011TIP3    H1 9039   6.263   1.754   4.386
 3011TIP3    H2 9040   6.148   1.707   4.299
 3012TIP3   OH2 9041   1.253   2.553   4.335
 3012TIP3    H1 9042   1.193   2.575   4.263
 3012TIP3    H2 9043   1.327   2.510   4.292
 3013TIP3   OH2 9044   6.325   5.936   2.289
 3013TIP3    H1 9045   6.357   5.938   2.199
 3013TIP3    H2 9046   6.279   6.019   2.300
 3014TIP3   OH2 9047   0.817   3.251   5.170
 3014TIP3    H1 9048   0.812   3.231   5.263
 3014TIP3    H2 9049   0.856   3.173   5.131
 3015TIP3   OH2 9050   3.187   0.999   3.725
 3015TIP3    H1 9051   3.101   0.991   3.767
 3015TIP3    H2 9052   3.205   0.911   3.692
 3016TIP3   OH2 9053   1.269   5.661   1.433
 3016TIP3    H1 9054   1.359   5.662   1.400
 3016TIP3    H2 9055   1.218   5.703   1.364
 3017TIP3   OH2 9056   2.813   0.255   3.304
 3017TIP3    H1 9057   2.826   0.193   3.232
 3017TIP3    H2 9058   2.723   0.286   3.294
 3018TIP3   OH2 9059   0.789   3.359   4.278
 3018TIP3    H1 9060   0.813   3.389   4.365
 3018TIP3    H2 9061   0.832   3.274   4.270
 3019TIP3   OH2 9062   0.278   0.019   2.439
 3019TIP3    H1 9063   0.224   0.008   2.517
 3019TIP3    H2 9064   0.351  -0.042   2.451
 3020TIP3   OH2 9065   4.913   2.555   0.094
 3020TIP3    H1 9066   4.939   2.468   0.124
 3020TIP3    H2 9067   4.844   2.582   0.154
 3021TIP3   OH2 9068   1.031   0.621   0.066
 3021TIP3    H1 9069   0.941   0.652   0.056
 3021TIP3    H2 9070   1.084   0.693   0.033
 3022TIP3   OH2 9071   4.289   2.788   0.357
 3022TIP3    H1 9072   4.221   2.735   0.315
 3022TIP3    H2 9073   4.321   2.845   0.287
 3023TIP3   OH2 9074   4.175   2.437   1.120
 3023TIP3    H1 9075   4.233   2.433   1.044
 3023TIP3    H2 9076   4.087   2.435   1.084
 3024TIP3   OH2 9077   2.431   1.674   3.549
 3024TIP3    H1 9078   2.443   1.766   3.525
 3024TIP3    H2 9079   2.500   1.657   3.613
 3025TIP3   OH2 9080   1.794   2.441   4.466
 3025TIP3    H1 9081   1.872   2.393   4.438
 3025TIP3    H2 9082   1.775   2.406   4.554
 3026TIP3   OH2 9083   3.729   2.097   4.602
 3026TIP3    H1 9084   3.695   2.099   4.692
 3026TIP3    H2 9085   3.800   2.032   4.605
 3027TIP3   OH2 9086   1.400   2.171   1.017
 3027TIP3    H1 9087   1.316   2.159   1.060
 3027TIP3    H2 9088   1.459   2.200   1.086
 3028TIP3   OH2 9089   3.904   1.569   3.652
 3028TIP3    H1 9090   3.832   1.508   3.671
 3028TIP3    H2 9091   3.871   1.620   3.578
 3029TIP3   OH2 9092   2.551   5.476   4.790
 3029TIP3    H1 9093   2.633   5.510   4.754
 3029TIP3    H2 9094   2.561   5.381   4.786
 3030TIP3   OH2 9095   4.568   4.434   0.721
 3030TIP3    H1 9096   4.516   4.421   0.800
 3030TIP3    H2 9097   4.638   4.369   0.727
 3031TIP3   OH2 9098   3.857   2.819   2.432
 3031TIP3    H1 9099   3.893   2.767   2.360
 3031TIP3    H2 9100   3.908   2.900   2.432
 3032TIP3   OH2 9101   2.153   1.898   2.771
 3032TIP3    H1 9102   2.139   1.808   2.744
 3032TIP3    H2 9103   2.132   1.950   2.693
 3033TIP3   OH2 9104   3.929   1.667   3.365
 3033TIP3    H1 9105   3.953   1.722   3.291
 3033TIP3    H2 9106   4.010   1.622   3.389
 3034TIP3   OH2 9107   3.110   4.498   3.914
 3034TIP3    H1 9108   3.074   4.540   3.835
 3034TIP3    H2 9109   3.087   4.405   3.904
 3035TIP3   OH2 9110   2.633   3.279   0.629
 3035TIP3    H1 9111   2.693   3.260   0.557
 3035TIP3    H2 9112   2.612   3.194   0.667
 3036TIP3   OH2 9113   1.497   2.936   4.039
 3036TIP3    H1 9114   1.590   2.947   4.058
 3036TIP3    H2 9115   1.473   3.014   3.988
 3037TIP3   OH2 9116   1.321   2.946   1.557
 3037TIP3    H1 9117   1.232   2.982   1.549
 3037TIP3    H2 9118   1.319   2.866   1.504
 3038TIP3   OH2 9119   4.145   0.846   5.181
 3038TIP3    H1 9120   4.089   0.832   5.104
 3038TIP3    H2 9121   4.230   0.811   5.156
 3039TIP3   OH2 9122   2.508   5.351   4.193
 3039TIP3    H1 9123   2.484   5.316   4.279
 3039TIP3    H2 9124   2.599   5.379   4.203
 3040TIP3   OH2 9125   5.327   4.712   2.385
 3040TIP3    H1 9126   5.414   4.750   2.368
 3040TIP3    H2 9127   5.266   4.776   2.349
 3041TIP3   OH2 9128   5.620   1.496   2.348
 3041TIP3    H1 9129   5.566   1.555   2.296
 3041TIP3    H2 9130   5.702   1.488   2.299
 3042TIP3   OH2 9131   0.652   4.044   0.201
 3042TIP3    H1 9132   0.707   4.017   0.275
 3042TIP3    H2 9133   0.704   4.110   0.156
 3043TIP3   OH2 9134   0.516   3.926   2.864
 3043TIP3    H1 9135   0.532   3.873   2.942
 3043TIP3    H2 9136   0.502   4.014   2.898
 3044TIP3   OH2 9137   3.261   4.500   3.125
 3044TIP3    H1 9138   3.230   4.557   3.055
 3044TIP3    H2 9139   3.191   4.436   3.137
 3045TIP3   OH2 9140   5.275   2.409   4.391
 3045TIP3    H1 9141   5.321   2.493   4.398
 3045TIP3    H2 9142   5.248   2.390   4.481
 3046TIP3   OH2 9143   2.211   0.881   0.470
 3046TIP3    H1 9144   2.258   0.908   0.391
 3046TIP3    H2 9145   2.153   0.955   0.490
 3047TIP3   OH2 9146   2.744   1.282   2.063
 3047TIP3    H1 9147   2.655   1.249   2.061
 3047TIP3    H2 9148   2.793   1.219   2.116
 3048TIP3   OH2 9149   3.146   1.898   1.800
 3048TIP3    H1 9150   3.092   1.836   1.849
 3048TIP3    H2 9151   3.151   1.862   1.712
 3049TIP3   OH2 9152   1.403   4.356   0.934
 3049TIP3    H1 9153   1.389   4.283   0.874
 3049TIP3    H2 9154   1.477   4.327   0.989
 3050TIP3   OH2 9155   1.505   1.447   0.824
 3050TIP3    H1 9156   1.453   1.490   0.891
 3050TIP3    H2 9157   1.578   1.407   0.871
 3051TIP3   OH2 9158   2.053   4.369   1.106
 3051TIP3    H1 9159   2.140   4.409   1.101
 3051TIP3    H2 9160   2.070   4.275   1.108
 3052TIP3   OH2 9161   3.875   0.384   1.003
 3052TIP3    H1 9162   3.793   0.347   1.036
 3052TIP3    H2 9163   3.848   0.446   0.935
 3053TIP3   OH2 9164   1.898   2.174   0.547
 3053TIP3    H1 9165   1.844   2.196   0.471
 3053TIP3    H2 9166   1.948   2.254   0.565
 3054TIP3   OH2 9167   6.044   3.887   1.427
 3054TIP3    H1 9168   6.006   3.949   1.365
 3054TIP3    H2 9169   6.106   3.939   1.478
 3055TIP3   OH2 9170   4.968   1.047   3.228
 3055TIP3    H1 9171   4.921   1.056   3.145
 3055TIP3    H2 9172   5.020   0.967   3.219
 3056TIP3   OH2 9173   0.432   1.644   1.726
 3056TIP3    H1 9174   0.371   1.629   1.798
 3056TIP3    H2 9175   0.472   1.558   1.710
 3057TIP3   OH2 9176   0.159   0.378   0.446
 3057TIP3    H1 9177   0.223   0.371   0.517
 3057TIP3    H2 9178   0.153   0.472   0.429
 3058TIP3   OH2 9179   1.245   4.882   3.753
 3058TIP3    H1 9180   1.277   4.961   3.708
 3058TIP3    H2 9181   1.318   4.820   3.747
 3059TIP3   OH2 9182   4.952   5.825   1.351
 3059TIP3    H1 9183   5.045   5.814   1.328
 3059TIP3    H2 9184   4.949   5.812   1.446
 3060TIP3   OH2 9185   2.022   1.227   1.504
 3060TIP3    H1 9186   1.936   1.184   1.509
 3060TIP3    H2 9187   2.074   1.184   1.571
 3061TIP3   OH2 9188   5.823   1.779   2.025
 3061TIP3    H1 9189   5.808   1.729   1.945
 3061TIP3    H2 9190   5.737   1.816   2.046
 3062TIP3   OH2 9191   2.510   5.881   4.147
 3062TIP3    H1 9192   2.587   5.925   4.110
 3062TIP3    H2 9193   2.441   5.947   4.143
 3063TIP3   OH2 9194   4.379   5.070   1.046
 3063TIP3    H1 9195   4.378   5.134   0.974
 3063TIP3    H2 9196   4.472   5.060   1.068
 3064TIP3   OH2 9197   1.936   4.974   3.714
 3064TIP3    H1 9198   1.933   4.898   3.772
 3064TIP3    H2 9199   2.029   4.995   3.707
 3065TIP3   OH2 9200   5.762   0.882   2.588
 3065TIP3    H1 9201   5.679   0.930   2.581
 3065TIP3    H2 9202   5.753   0.831   2.668
 3066TIP3   OH2 9203   4.429   2.478   0.581
 3066TIP3    H1 9204   4.461   2.565   0.557
 3066TIP3    H2 9205   4.462   2.465   0.670
 3067TIP3   OH2 9206   5.202   1.680   0.475
 3067TIP3    H1 9207   5.138   1.655   0.542
 3067TIP3    H2 9208   5.150   1.721   0.406
 3068TIP3   OH2 9209   4.999   4.301   1.517
 3068TIP3    H1 9210   4.964   4.315   1.605
 3068TIP3    H2 9211   4.963   4.372   1.465
 3069TIP3   OH2 9212   6.134   3.395   1.249
 3069TIP3    H1 9213   6.042   3.386   1.223
 3069TIP3    H2 9214   6.153   3.488   1.237
 3070TIP3   OH2 9215   4.368   0.310   4.384
 3070TIP3    H1 9216   4.431   0.359   4.330
 3070TIP3    H2 9217   4.303   0.375   4.410
 3071TIP3   OH2 9218   5.157   5.863   3.853
 3071TIP3    H1 9219   5.087   5.856   3.918
 3071TIP3    H2 9220   5.114   5.846   3.770
 3072TIP3   OH2 9221   0.862   4.446   4.443
 3072TIP3    H1 9222   0.879   4.398   4.363
 3072TIP3    H2 9223   0.766   4.443   4.453
 3073TIP3   OH2 9224   4.863   2.178   2.223
 3073TIP3    H1 9225   4.834   2.089   2.243
 3073TIP3    H2 9226   4.956   2.178   2.249
 3074TIP3   OH2 9227   0.408   0.511   0.212
 3074TIP3    H1 9228   0.470   0.441   0.229
 3074TIP3    H2 9229   0.348   0.509   0.287
 3075TIP3   OH2 9230   3.292   1.667   0.473
 3075TIP3    H1 9231   3.365   1.728   0.461
 3075TIP3    H2 9232   3.215   1.722   0.484
 3076TIP3   OH2 9233   0.462   0.831   2.207
 3076TIP3    H1 9234   0.420   0.905   2.163
 3076TIP3    H2 9235   0.550   0.828   2.171
 3077TIP3   OH2 9236   1.647   4.299   3.169
 3077TIP3    H1 9237   1.696   4.222   3.139
 3077TIP3    H2 9238   1.619   4.342   3.088
 3078TIP3   OH2 9239   5.484   3.510   3.885
 3078TIP3    H1 9240   5.460   3.598   3.859
 3078TIP3    H2 9241   5.456   3.454   3.813
 3079TIP3   OH2 9242   0.471   3.377   5.123
 3079TIP3    H1 9243   0.439   3.448   5.067
 3079TIP3    H2 9244   0.493   3.306   5.063
 3080TIP3   OH2 9245   0.328   4.082   4.388
 3080TIP3    H1 9246   0.366   4.161   4.352
 3080TIP3    H2 9247   0.351   4.013   4.326
 3081TIP3   OH2 9248   1.968   4.732   0.092
 3081TIP3    H1 9249   1.908   4.791   0.047
 3081TIP3    H2 9250   1.940   4.734   0.184
 3082TIP3   OH2 9251   2.462   2.489   3.212
 3082TIP3    H1 9252   2.429   2.435   3.140
 3082TIP3    H2 9253   2.481   2.426   3.282
 3083TIP3   OH2 9254   1.292   4.313   3.402
 3083TIP3    H1 9255   1.198   4.326   3.412
 3083TIP3    H2 9256   1.299   4.229   3.356
 3084TIP3   OH2 9257   1.560   0.392   3.248
 3084TIP3    H1 9258   1.606   0.356   3.172
 3084TIP3    H2 9259   1.529   0.316   3.297
 3085TIP3   OH2 9260   4.054   1.863   2.877
 3085TIP3    H1 9261   3.961   1.864   2.900
 3085TIP3    H2 9262   4.075   1.771   2.865
 3086TIP3   OH2 9263   2.357   4.515   2.440
 3086TIP3    H1 9264   2.354   4.464   2.521
 3086TIP3    H2 9265   2.450   4.538   2.430
 3087TIP3   OH2 9266   2.060   1.184   3.625
 3087TIP3    H1 9267   1.991   1.181   3.691
 3087TIP3    H2 9268   2.046   1.268   3.581
 3088TIP3   OH2 9269   2.031   1.344   4.864
 3088TIP3    H1 9270   2.019   1.252   4.886
 3088TIP3    H2 9271   1.978   1.357   4.785
 3089TIP3   OH2 9272   2.683   1.919   4.314
 3089TIP3    H1 9273   2.742   1.994   4.317
 3089TIP3    H2 9274   2.690   1.886   4.224
 3090TIP3   OH2 9275   0.172   1.836   5.026
 3090TIP3    H1 9276   0.261   1.802   5.019
 3090TIP3    H2 9277   0.122   1.763   5.062
 3091TIP3   OH2 9278   3.438   0.083   3.872
 3091TIP3    H1 9279   3.453   0.038   3.955
 3091TIP3    H2 9280   3.517   0.065   3.820
 3092TIP3   OH2 9281   4.048   4.223   4.949
 3092TIP3    H1 9282   3.995   4.194   5.023
 3092TIP3    H2 9283   4.138   4.213   4.978
 3093TIP3   OH2 9284   2.698   2.409   3.562
 3093TIP3    H1 9285   2.675   2.375   3.649
 3093TIP3    H2 9286   2.746   2.489   3.579
 3094TIP3   OH2 9287   2.384   1.611   1.333
 3094TIP3    H1 9288   2.319   1.562   1.384
 3094TIP3    H2 9289   2.332   1.677   1.286
 3095TIP3   OH2 9290   3.405   5.946   4.389
 3095TIP3    H1 9291   3.495   5.972   4.412
 3095TIP3    H2 9292   3.362   5.932   4.474
 3096TIP3   OH2 9293   1.269   0.763   1.384
 3096TIP3    H1 9294   1.254   0.692   1.447
 3096TIP3    H2 9295   1.353   0.802   1.410
 3097TIP3   OH2 9296   5.951   4.176   4.619
 3097TIP3    H1 9297   5.979   4.247   4.561
 3097TIP3    H2 9298   5.858   4.166   4.602
 3098TIP3   OH2 9299   4.409   0.639   1.398
 3098TIP3    H1 9300   4.450   0.622   1.482
 3098TIP3    H2 9301   4.330   0.585   1.399
 3099TIP3   OH2 9302   1.164   4.655   3.493
 3099TIP3    H1 9303   1.241   4.711   3.479
 3099TIP3    H2 9304   1.091   4.716   3.503
 3100TIP3   OH2 9305   2.594   1.456   1.323
 3100TIP3    H1 9306   2.581   1.436   1.415
 3100TIP3    H2 9307   2.516   1.505   1.298
 3101TIP3   OH2 9308   0.764   2.609   4.617
 3101TIP3    H1 9309   0.801   2.687   4.660
 3101TIP3    H2 9310   0.671   2.611   4.639
 3102TIP3   OH2 9311   2.740   1.241   0.426
 3102TIP3    H1 9312   2.707   1.256   0.515
 3102TIP3    H2 9313   2.673   1.278   0.369
 3103TIP3   OH2 9314   6.376   5.130   4.034
 3103TIP3    H1 9315   6.450   5.071   4.018
 3103TIP3    H2 9316   6.299   5.074   4.029
 3104TIP3   OH2 9317   3.967   1.605   1.829
 3104TIP3    H1 9318   4.027   1.545   1.874
 3104TIP3    H2 9319   3.991   1.598   1.737
 3105TIP3   OH2 9320   3.802   2.632   0.538
 3105TIP3    H1 9321   3.769   2.604   0.624
 3105TIP3    H2 9322   3.732   2.685   0.501
 3106TIP3   OH2 9323   4.138   4.008   4.273
 3106TIP3    H1 9324   4.160   3.916   4.260
 3106TIP3    H2 9325   4.213   4.046   4.318
 3107TIP3   OH2 9326   1.513   1.069   0.749
 3107TIP3    H1 9327   1.465   0.991   0.776
 3107TIP3    H2 9328   1.602   1.054   0.783
 3108TIP3   OH2 9329   1.870   3.155   2.042
 3108TIP3    H1 9330   1.947   3.173   1.988
 3108TIP3    H2 9331   1.821   3.237   2.042
 3109TIP3   OH2 9332   0.019   5.981   2.041
 3109TIP3    H1 9333   0.050   5.896   2.009
 3109TIP3    H2 9334   0.070   6.045   1.991
 3110TIP3   OH2 9335   3.123   5.717   4.732
 3110TIP3    H1 9336   3.168   5.659   4.793
 3110TIP3    H2 9337   3.039   5.736   4.775
 3111TIP3   OH2 9338   4.168   1.574   2.640
 3111TIP3    H1 9339   4.217   1.652   2.617
 3111TIP3    H2 9340   4.234   1.513   2.674
 3112TIP3   OH2 9341   1.605   2.793   0.911
 3112TIP3    H1 9342   1.681   2.736   0.905
 3112TIP3    H2 9343   1.615   2.856   0.840
 3113TIP3   OH2 9344   0.194   4.934   2.453
 3113TIP3    H1 9345   0.276   4.889   2.433
 3113TIP3    H2 9346   0.202   4.959   2.545
 3114TIP3   OH2 9347   4.379   2.431   4.419
 3114TIP3    H1 9348   4.472   2.409   4.433
 3114TIP3    H2 9349   4.367   2.513   4.466
 3115TIP3   OH2 9350   1.233   2.543   3.305
 3115TIP3    H1 9351   1.221   2.634   3.332
 3115TIP3    H2 9352   1.321   2.539   3.270
 3116TIP3   OH2 9353   3.006   5.400   1.804
 3116TIP3    H1 9354   3.065   5.341   1.758
 3116TIP3    H2 9355   3.001   5.478   1.749
 3117TIP3   OH2 9356   1.312   2.984   4.929
 3117TIP3    H1 9357   1.239   3.043   4.950
 3117TIP3    H2 9358   1.379   3.042   4.894
 3118TIP3   OH2 9359   5.414   3.660   3.269
 3118TIP3    H1 9360   5.343   3.677   3.206
 3118TIP3    H2 9361   5.414   3.737   3.326
 3119TIP3   OH2 9362   0.478   5.851   3.500
 3119TIP3    H1 9363   0.464   5.863   3.593
 3119TIP3    H2 9364   0.539   5.777   3.494
 3120TIP3   OH2 9365   4.863   4.389   0.682
 3120TIP3    H1 9366   4.936   4.424   0.632
 3120TIP3    H2 9367   4.784   4.419   0.636
 3121TIP3   OH2 9368   2.501   5.970   0.325
 3121TIP3    H1 9369   2.574   6.026   0.297
 3121TIP3    H2 9370   2.541   5.885   0.342
 3122TIP3   OH2 9371   1.396   4.724   5.139
 3122TIP3    H1 9372   1.463   4.742   5.073
 3122TIP3    H2 9373   1.350   4.807   5.150
 3123TIP3   OH2 9374   4.082   5.473   4.859
 3123TIP3    H1 9375   4.014   5.438   4.802
 3123TIP3    H2 9376   4.159   5.481   4.803
 3124TIP3   OH2 9377   6.004   4.374   4.426
 3124TIP3    H1 9378   5.951   4.375   4.346
 3124TIP3    H2 9379   6.088   4.338   4.399
 3125TIP3   OH2 9380   3.750   0.623   4.211
 3125TIP3    H1 9381   3.812   0.662   4.149
 3125TIP3    H2 9382   3.762   0.673   4.292
 3126TIP3   OH2 9383   6.216   3.141   0.176
 3126TIP3    H1 9384   6.290   3.114   0.121
 3126TIP3    H2 9385   6.154   3.069   0.171
 3127TIP3   OH2 9386   5.332   3.598   0.205
 3127TIP3    H1 9387   5.277   3.556   0.271
 3127TIP3    H2 9388   5.293   3.571   0.121
 3128TIP3   OH2 9389   6.188   5.546   4.726
 3128TIP3    H1 9390   6.201   5.604   4.651
 3128TIP3    H2 9391   6.261   5.567   4.785
 3129TIP3   OH2 9392   0.269   5.338   2.993
 3129TIP3    H1 9393   0.320   5.419   3.003
 3129TIP3    H2 9394   0.182   5.369   2.966
 3130TIP3   OH2 9395   2.965   4.243   2.724
 3130TIP3    H1 9396   2.955   4.209   2.635
 3130TIP3    H2 9397   2.940   4.170   2.781
 3131TIP3   OH2 9398   1.867   0.647   4.069
 3131TIP3    H1 9399   1.821   0.579   4.118
 3131TIP3    H2 9400   1.838   0.637   3.979
 3132TIP3   OH2 9401   2.531   0.784   4.149
 3132TIP3    H1 9402   2.539   0.858   4.209
 3132TIP3    H2 9403   2.611   0.788   4.096
 3133TIP3   OH2 9404   4.144   3.013   0.433
 3133TIP3    H1 9405   4.050   3.001   0.432
 3133TIP3    H2 9406   4.180   2.926   0.420
 3134TIP3   OH2 9407   5.748   2.612   4.410
 3134TIP3    H1 9408   5.746   2.641   4.319
 3134TIP3    H2 9409   5.771   2.691   4.460
 3135TIP3   OH2 9410   4.545   5.458   1.767
 3135TIP3    H1 9411   4.468   5.410   1.798
 3135TIP3    H2 9412   4.581   5.402   1.698
 3136TIP3   OH2 9413   5.600   4.363   3.396
 3136TIP3    H1 9414   5.517   4.322   3.370
 3136TIP3    H2 9415   5.657   4.290   3.420
 3137TIP3   OH2 9416   2.520   2.524   2.845
 3137TIP3    H1 9417   2.569   2.501   2.924
 3137TIP3    H2 9418   2.513   2.620   2.848
 3138TIP3   OH2 9419   1.530   4.929   0.664
 3138TIP3    H1 9420   1.534   5.016   0.625
 3138TIP3    H2 9421   1.576   4.938   0.747
 3139TIP3   OH2 9422   3.726   3.937   1.201
 3139TIP3    H1 9423   3.752   3.915   1.291
 3139TIP3    H2 9424   3.636   3.969   1.210
 3140TIP3   OH2 9425   4.746   4.172   3.741
 3140TIP3    H1 9426   4.689   4.190   3.666
 3140TIP3    H2 9427   4.794   4.093   3.716
 3141TIP3   OH2 9428   3.628   0.843   3.691
 3141TIP3    H1 9429   3.678   0.921   3.714
 3141TIP3    H2 9430   3.674   0.771   3.734
 3142TIP3   OH2 9431   3.366   3.493   4.886
 3142TIP3    H1 9432   3.371   3.447   4.802
 3142TIP3    H2 9433   3.319   3.574   4.867
 3143TIP3   OH2 9434   0.928   0.646   0.337
 3143TIP3    H1 9435   0.945   0.671   0.246
 3143TIP3    H2 9436   1.009   0.668   0.383
 3144TIP3   OH2 9437   4.724   5.695   3.970
 3144TIP3    H1 9438   4.674   5.721   4.047
 3144TIP3    H2 9439   4.696   5.756   3.901
 3145TIP3   OH2 9440   3.974   0.043   2.781
 3145TIP3    H1 9441   4.062   0.030   2.817
 3145TIP3    H2 9442   3.987   0.103   2.707
 3146TIP3   OH2 9443   2.662   0.673   0.875
 3146TIP3    H1 9444   2.645   0.766   0.860
 3146TIP3    H2 9445   2.741   0.671   0.929
 3147TIP3   OH2 9446   0.388   2.886   4.228
 3147TIP3    H1 9447   0.383   2.811   4.287
 3147TIP3    H2 9448   0.298   2.920   4.226
 3148TIP3   OH2 9449   5.735   0.947   2.222
 3148TIP3    H1 9450   5.679   0.964   2.298
 3148TIP3    H2 9451   5.768   0.858   2.236
 3149TIP3   OH2 9452   2.342   5.265   0.071
 3149TIP3    H1 9453   2.431   5.256   0.038
 3149TIP3    H2 9454   2.352   5.299   0.160
 3150TIP3   OH2 9455   1.220   3.405   2.091
 3150TIP3    H1 9456   1.151   3.458   2.052
 3150TIP3    H2 9457   1.239   3.448   2.174
 3151TIP3   OH2 9458   4.023   1.420   3.926
 3151TIP3    H1 9459   4.022   1.328   3.902
 3151TIP3    H2 9460   3.962   1.461   3.864
 3152TIP3   OH2 9461   5.493   3.086   1.326
 3152TIP3    H1 9462   5.427   3.099   1.395
 3152TIP3    H2 9463   5.444   3.091   1.244
 3153TIP3   OH2 9464   0.404   0.603   1.110
 3153TIP3    H1 9465   0.338   0.534   1.117
 3153TIP3    H2 9466   0.429   0.621   1.201
 3154TIP3   OH2 9467   2.594   4.510   0.890
 3154TIP3    H1 9468   2.522   4.572   0.877
 3154TIP3    H2 9469   2.627   4.493   0.802
 3155TIP3   OH2 9470   6.016   3.700   1.158
 3155TIP3    H1 9471   6.065   3.645   1.097
 3155TIP3    H2 9472   6.073   3.776   1.173
 3156TIP3   OH2 9473   3.592   3.579   3.760
 3156TIP3    H1 9474   3.559   3.515   3.824
 3156TIP3    H2 9475   3.686   3.584   3.778
 3157TIP3   OH2 9476   4.998   3.352   1.758
 3157TIP3    H1 9477   5.028   3.363   1.668
 3157TIP3    H2 9478   5.068   3.302   1.801
 3158TIP3   OH2 9479   1.183   1.526   1.359
 3158TIP3    H1 9480   1.122   1.583   1.404
 3158TIP3    H2 9481   1.147   1.518   1.271
 3159TIP3   OH2 9482   5.797   1.375   0.754
 3159TIP3    H1 9483   5.783   1.467   0.775
 3159TIP3    H2 9484   5.776   1.329   0.835
 3160TIP3   OH2 9485   1.663   3.098   3.229
 3160TIP3    H1 9486   1.730   3.068   3.168
 3160TIP3    H2 9487   1.584   3.108   3.174
 3161TIP3   OH2 9488   6.194   4.995   3.720
 3161TIP3    H1 9489   6.112   4.993   3.768
 3161TIP3    H2 9490   6.181   4.933   3.648
 3162TIP3   OH2 9491   1.342   4.335   4.859
 3162TIP3    H1 9492   1.330   4.278   4.934
 3162TIP3    H2 9493   1.301   4.418   4.885
 3163TIP3   OH2 9494   3.608   1.718   2.178
 3163TIP3    H1 9495   3.535   1.659   2.197
 3163TIP3    H2 9496   3.670   1.664   2.130
 3164TIP3   OH2 9497   3.763   2.771   3.284
 3164TIP3    H1 9498   3.798   2.858   3.303
 3164TIP3    H2 9499   3.676   2.787   3.248
 3165TIP3   OH2 9500   4.787   3.553   0.864
 3165TIP3    H1 9501   4.768   3.496   0.938
 3165TIP3    H2 9502   4.879   3.577   0.874
 3166TIP3   OH2 9503   6.025   1.880   2.996
 3166TIP3    H1 9504   6.062   1.805   3.043
 3166TIP3    H2 9505   6.072   1.882   2.913
 3167TIP3   OH2 9506   5.949   0.072   2.115
 3167TIP3    H1 9507   6.045   0.074   2.124
 3167TIP3    H2 9508   5.927  -0.021   2.109
 3168TIP3   OH2 9509   5.847   1.087   0.232
 3168TIP3    H1 9510   5.888   1.073   0.318
 3168TIP3    H2 9511   5.885   1.168   0.200
 3169TIP3   OH2 9512   0.641   4.870   3.757
 3169TIP3    H1 9513   0.626   4.895   3.848
 3169TIP3    H2 9514   0.731   4.896   3.740
 3170TIP3   OH2 9515   2.070   3.829   0.989
 3170TIP3    H1 9516   2.043   3.819   0.898
 3170TIP3    H2 9517   2.107   3.744   1.014
 3171TIP3   OH2 9518   2.327   1.196   4.059
 3171TIP3    H1 9519   2.264   1.125   4.072
 3171TIP3    H2 9520   2.274   1.275   4.055
 3172TIP3   OH2 9521   1.743   4.135   2.681
 3172TIP3    H1 9522   1.680   4.064   2.691
 3172TIP3    H2 9523   1.753   4.171   2.769
 3173TIP3   OH2 9524   0.803   4.258   1.731
 3173TIP3    H1 9525   0.707   4.256   1.739
 3173TIP3    H2 9526   0.833   4.180   1.776
 3174TIP3   OH2 9527   1.675   1.133   2.482
 3174TIP3    H1 9528   1.682   1.228   2.496
 3174TIP3    H2 9529   1.622   1.101   2.555
 3175TIP3   OH2 9530   0.312   0.420   0.700
 3175TIP3    H1 9531   0.376   0.488   0.720
 3175TIP3    H2 9532   0.264   0.406   0.781
 3176TIP3   OH2 9533   5.233   3.919   3.553
 3176TIP3    H1 9534   5.294   3.932   3.481
 3176TIP3    H2 9535   5.183   4.001   3.558
 3177TIP3   OH2 9536   0.355   0.927   4.787
 3177TIP3    H1 9537   0.339   0.999   4.848
 3177TIP3    H2 9538   0.276   0.923   4.733
 3178TIP3   OH2 9539   2.448   6.016   4.474
 3178TIP3    H1 9540   2.464   5.927   4.507
 3178TIP3    H2 9541   2.382   6.004   4.405
 3179TIP3   OH2 9542   4.863   0.121   0.602
 3179TIP3    H1 9543   4.909   0.205   0.610
 3179TIP3    H2 9544   4.852   0.109   0.508
 3180TIP3   OH2 9545   4.049   4.385   0.425
 3180TIP3    H1 9546   4.135   4.343   0.428
 3180TIP3    H2 9547   4.068   4.478   0.410
 3181TIP3   OH2 9548   4.056   5.266   1.710
 3181TIP3    H1 9549   3.969   5.238   1.739
 3181TIP3    H2 9550   4.040   5.310   1.626
 3182TIP3   OH2 9551   5.745   2.757   4.168
 3182TIP3    H1 9552   5.707   2.835   4.128
 3182TIP3    H2 9553   5.735   2.689   4.101
 3183TIP3   OH2 9554   2.124   4.142   4.562
 3183TIP3    H1 9555   2.195   4.194   4.599
 3183TIP3    H2 9556   2.072   4.117   4.638
 3184TIP3   OH2 9557   1.446   2.625   1.593
 3184TIP3    H1 9558   1.514   2.690   1.574
 3184TIP3    H2 9559   1.442   2.570   1.515
 3185TIP3   OH2 9560   4.283   5.661   3.784
 3185TIP3    H1 9561   4.267   5.568   3.768
 3185TIP3    H2 9562   4.200   5.704   3.763
 3186TIP3   OH2 9563   4.364   1.396   0.353
 3186TIP3    H1 9564   4.271   1.398   0.373
 3186TIP3    H2 9565   4.369   1.367   0.262
 3187TIP3   OH2 9566   2.608   1.915   0.371
 3187TIP3    H1 9567   2.626   2.009   0.361
 3187TIP3    H2 9568   2.516   1.905   0.349
 3188TIP3   OH2 9569   0.294   1.847   1.362
 3188TIP3    H1 9570   0.326   1.937   1.362
 3188TIP3    H2 9571   0.241   1.840   1.441
 3189TIP3   OH2 9572   2.998   4.266   4.646
 3189TIP3    H1 9573   3.059   4.340   4.650
 3189TIP3    H2 9574   3.037   4.199   4.702
 3190TIP3   OH2 9575   3.233   5.412   3.969
 3190TIP3    H1 9576   3.253   5.487   4.026
 3190TIP3    H2 9577   3.317   5.385   3.934
 3191TIP3   OH2 9578   3.893   0.214   3.994
 3191TIP3    H1 9579   3.870   0.284   3.933
 3191TIP3    H2 9580   3.885   0.254   4.080
 3192TIP3   OH2 9581   3.119   5.883   3.813
 3192TIP3    H1 9582   3.196   5.828   3.808
 3192TIP3    H2 9583   3.073   5.854   3.892
 3193TIP3   OH2 9584   1.644   3.110   0.904
 3193TIP3    H1 9585   1.702   3.180   0.872
 3193TIP3    H2 9586   1.702   3.036   0.920
 3194TIP3   OH2 9587   3.176   0.296   3.222
 3194TIP3    H1 9588   3.139   0.212   3.252
 3194TIP3    H2 9589   3.155   0.357   3.292
 3195TIP3   OH2 9590   0.774   4.709   1.808
 3195TIP3    H1 9591   0.750   4.659   1.886
 3195TIP3    H2 9592   0.806   4.642   1.747
 3196TIP3   OH2 9593   4.706   1.453   4.217
 3196TIP3    H1 9594   4.757   1.405   4.282
 3196TIP3    H2 9595   4.631   1.488   4.266
 3197TIP3   OH2 9596   4.772   5.896   4.649
 3197TIP3    H1 9597   4.691   5.914   4.697
 3197TIP3    H2 9598   4.834   5.962   4.680
 3198TIP3   OH2 9599   2.361   2.404   1.367
 3198TIP3    H1 9600   2.443   2.454   1.369
 3198TIP3    H2 9601   2.298   2.462   1.410
 3199TIP3   OH2 9602   1.725   0.614   0.349
 3199TIP3    H1 9603   1.783   0.638   0.422
 3199TIP3    H2 9604   1.785   0.589   0.279
 3200TIP3   OH2 9605   2.368   4.242   1.525
 3200TIP3    H1 9606   2.362   4.337   1.512
 3200TIP3    H2 9607   2.302   4.223   1.592
 3201TIP3   OH2 9608   6.358   3.836   2.719
 3201TIP3    H1 9609   6.297   3.829   2.792
 3201TIP3    H2 9610   6.303   3.833   2.641
 3202TIP3   OH2 9611   0.989   5.658   3.631
 3202TIP3    H1 9612   0.981   5.573   3.588
 3202TIP3    H2 9613   1.077   5.688   3.606
 3203TIP3   OH2 9614   3.838   0.636   0.606
 3203TIP3    H1 9615   3.807   0.724   0.629
 3203TIP3    H2 9616   3.853   0.640   0.511
 3204TIP3   OH2 9617   4.683   2.633   3.523
 3204TIP3    H1 9618   4.598   2.671   3.543
 3204TIP3    H2 9619   4.742   2.708   3.516
 3205TIP3   OH2 9620   0.375   4.103   5.118
 3205TIP3    H1 9621   0.360   4.095   5.212
 3205TIP3    H2 9622   0.435   4.031   5.096
 3206TIP3   OH2 9623   6.115   2.567   3.046
 3206TIP3    H1 9624   6.176   2.559   2.973
 3206TIP3    H2 9625   6.034   2.528   3.015
 3207TIP3   OH2 9626   3.046   4.487   1.956
 3207TIP3    H1 9627   3.067   4.578   1.974
 3207TIP3    H2 9628   3.117   4.456   1.900
 3208TIP3   OH2 9629   1.462   1.862   5.044
 3208TIP3    H1 9630   1.374   1.893   5.064
 3208TIP3    H2 9631   1.453   1.813   4.962
 3209TIP3   OH2 9632   3.863   2.677   2.182
 3209TIP3    H1 9633   3.779   2.631   2.192
 3209TIP3    H2 9634   3.883   2.669   2.088
 3210TIP3   OH2 9635   4.118   2.476   2.721
 3210TIP3    H1 9636   4.058   2.527   2.775
 3210TIP3    H2 9637   4.152   2.409   2.781
 3211TIP3   OH2 9638   0.746   5.859   0.200
 3211TIP3    H1 9639   0.677   5.850   0.134
 3211TIP3    H2 9640   0.756   5.771   0.236
 3212TIP3   OH2 9641   2.934   2.772   1.450
 3212TIP3    H1 9642   2.940   2.756   1.544
 3212TIP3    H2 9643   3.024   2.785   1.421
 3213TIP3   OH2 9644   5.208   3.198   3.801
 3213TIP3    H1 9645   5.123   3.216   3.761
 3213TIP3    H2 9646   5.198   3.111   3.841
 3214TIP3   OH2 9647   5.723   3.855   0.602
 3214TIP3    H1 9648   5.645   3.801   0.590
 3214TIP3    H2 9649   5.796   3.797   0.583
 3215TIP3   OH2 9650   1.061   5.025   1.064
 3215TIP3    H1 9651   1.079   5.109   1.022
 3215TIP3    H2 9652   1.100   5.033   1.152
 3216TIP3   OH2 9653   2.615   5.116   1.812
 3216TIP3    H1 9654   2.604   5.168   1.732
 3216TIP3    H2 9655   2.542   5.142   1.868
 3217TIP3   OH2 9656   1.332   4.620   1.017
 3217TIP3    H1 9657   1.372   4.551   0.964
 3217TIP3    H2 9658   1.243   4.628   0.984
 3218TIP3   OH2 9659   1.475   0.548   5.033
 3218TIP3    H1 9660   1.441   0.609   5.098
 3218TIP3    H2 9661   1.550   0.593   4.994
 3219TIP3   OH2 9662   5.891   0.152   0.182
 3219TIP3    H1 9663   5.836   0.109   0.117
 3219TIP3    H2 9664   5.976   0.163   0.139
 3220TIP3   OH2 9665   0.737   0.718   2.426
 3220TIP3    H1 9666   0.750   0.795   2.482
 3220TIP3    H2 9667   0.699   0.753   2.346
 3221TIP3   OH2 9668   5.972   3.550   4.925
 3221TIP3    H1 9669   5.978   3.474   4.984
 3221TIP3    H2 9670   5.892   3.595   4.952
 3222TIP3   OH2 9671   5.213   5.299   2.855
 3222TIP3    H1 9672   5.169   5.232   2.908
 3222TIP3    H2 9673   5.160   5.304   2.775
 3223TIP3   OH2 9674   0.681   0.575   3.151
 3223TIP3    H1 9675   0.692   0.489   3.191
 3223TIP3    H2 9676   0.729   0.571   3.068
 3224TIP3   OH2 9677   5.054   1.127   1.101
 3224TIP3    H1 9678   5.045   1.180   1.022
 3224TIP3    H2 9679   5.018   1.041   1.076
 3225TIP3   OH2 9680   5.601   4.186   2.599
 3225TIP3    H1 9681   5.695   4.179   2.584
 3225TIP3    H2 9682   5.579   4.109   2.651
 3226TIP3   OH2 9683   1.778   0.689   1.933
 3226TIP3    H1 9684   1.702   0.737   1.901
 3226TIP3    H2 9685   1.852   0.748   1.918
 3227TIP3   OH2 9686   2.773   5.199   0.235
 3227TIP3    H1 9687   2.867   5.204   0.215
 3227TIP3    H2 9688   2.757   5.106   0.252
 3228TIP3   OH2 9689   3.025   5.326   4.744
 3228TIP3    H1 9690   3.001   5.237   4.769
 3228TIP3    H2 9691   3.110   5.341   4.787
 3229TIP3   OH2 9692   1.305   1.691   4.548
 3229TIP3    H1 9693   1.210   1.681   4.540
 3229TIP3    H2 9694   1.327   1.643   4.628
 3230TIP3   OH2 9695   1.148   2.503   4.781
 3230TIP3    H1 9696   1.240   2.480   4.768
 3230TIP3    H2 9697   1.150   2.592   4.816
 3231TIP3   OH2 9698   3.522   2.236   3.879
 3231TIP3    H1 9699   3.561   2.158   3.840
 3231TIP3    H2 9700   3.514   2.298   3.806
 3232TIP3   OH2 9701   3.467   1.664   3.541
 3232TIP3    H1 9702   3.392   1.657   3.482
 3232TIP3    H2 9703   3.494   1.755   3.535
 3233TIP3   OH2 9704   5.859   1.979   4.917
 3233TIP3    H1 9705   5.836   1.901   4.866
 3233TIP3    H2 9706   5.780   1.999   4.967
 3234TIP3   OH2 9707   6.121   4.670   1.095
 3234TIP3    H1 9708   6.078   4.617   1.029
 3234TIP3    H2 9709   6.050   4.724   1.131
 3235TIP3   OH2 9710   1.177   5.284   0.977
 3235TIP3    H1 9711   1.219   5.333   0.907
 3235TIP3    H2 9712   1.249   5.253   1.032
 3236TIP3   OH2 9713   5.939   2.782   1.738
 3236TIP3    H1 9714   5.946   2.694   1.701
 3236TIP3    H2 9715   5.973   2.840   1.669
 3237TIP3   OH2 9716   5.508   2.849   4.768
 3237TIP3    H1 9717   5.510   2.755   4.749
 3237TIP3    H2 9718   5.436   2.860   4.830
 3238TIP3   OH2 9719   3.303   5.435   0.785
 3238TIP3    H1 9720   3.229   5.492   0.805
 3238TIP3    H2 9721   3.376   5.470   0.836
 3239TIP3   OH2 9722   2.482   4.703   4.243
 3239TIP3    H1 9723   2.506   4.627   4.190
 3239TIP3    H2 9724   2.397   4.681   4.281
 3240TIP3   OH2 9725   5.451   0.789   0.300
 3240TIP3    H1 9726   5.507   0.798   0.377
 3240TIP3    H2 9727   5.487   0.850   0.236
 3241TIP3   OH2 9728   1.642   2.261   1.165
 3241TIP3    H1 9729   1.649   2.254   1.069
 3241TIP3    H2 9730   1.721   2.306   1.192
 3242TIP3   OH2 9731   3.530   5.580   1.800
 3242TIP3    H1 9732   3.624   5.590   1.818
 3242TIP3    H2 9733   3.523   5.586   1.705
 3243TIP3   OH2 9734   1.573   5.616   2.909
 3243TIP3    H1 9735   1.585   5.711   2.898
 3243TIP3    H2 9736   1.487   5.608   2.949
 3244TIP3   OH2 9737   1.761   4.367   2.251
 3244TIP3    H1 9738   1.762   4.408   2.338
 3244TIP3    H2 9739   1.668   4.365   2.227
 3245TIP3   OH2 9740   2.740   3.520   3.663
 3245TIP3    H1 9741   2.832   3.545   3.669
 3245TIP3    H2 9742   2.696   3.573   3.730
 3246TIP3   OH2 9743   3.786   4.394   3.170
 3246TIP3    H1 9744   3.869   4.438   3.186
 3246TIP3    H2 9745   3.733   4.460   3.123
 3247TIP3   OH2 9746   3.749   0.018   4.666
 3247TIP3    H1 9747   3.788   0.020   4.579
 3247TIP3    H2 9748   3.728   0.109   4.685
 3248TIP3   OH2 9749   2.143   0.869   5.163
 3248TIP3    H1 9750   2.130   0.882   5.257
 3248TIP3    H2 9751   2.226   0.913   5.144
 3249TIP3   OH2 9752   5.360   2.581   3.542
 3249TIP3    H1 9753   5.416   2.596   3.618
 3249TIP3    H2 9754   5.271   2.576   3.579
 3250TIP3   OH2 9755   4.974   2.071   5.038
 3250TIP3    H1 9756   5.004   2.138   5.099
 3250TIP3    H2 9757   5.026   1.994   5.059
 3251TIP3   OH2 9758   5.550   4.582   5.031
 3251TIP3    H1 9759   5.542   4.493   5.066
 3251TIP3    H2 9760   5.608   4.573   4.956
 3252TIP3   OH2 9761   1.691   3.949   4.147
 3252TIP3    H1 9762   1.685   3.902   4.230
 3252TIP3    H2 9763   1.625   3.908   4.091
 3253TIP3   OH2 9764   2.520   4.653   4.887
 3253TIP3    H1 9765   2.507   4.658   4.793
 3253TIP3    H2 9766   2.436   4.680   4.925
 3254TIP3   OH2 9767   1.688   5.720   4.420
 3254TIP3    H1 9768   1.592   5.717   4.425
 3254TIP3    H2 9769   1.710   5.810   4.444
 3255TIP3   OH2 9770   3.498   1.497   2.336
 3255TIP3    H1 9771   3.487   1.424   2.275
 3255TIP3    H2 9772   3.440   1.476   2.409
 3256TIP3   OH2 9773   4.273   2.090   0.591
 3256TIP3    H1 9774   4.239   2.178   0.576
 3256TIP3    H2 9775   4.204   2.046   0.642
 3257TIP3   OH2 9776   3.336   4.100   0.795
 3257TIP3    H1 9777   3.267   4.146   0.843
 3257TIP3    H2 9778   3.415   4.114   0.849
 3258TIP3   OH2 9779   3.994   1.740   4.046
 3258TIP3    H1 9780   4.059   1.788   4.096
 3258TIP3    H2 9781   3.927   1.715   4.110
 3259TIP3   OH2 9782   5.247   4.958   0.190
 3259TIP3    H1 9783   5.205   5.009   0.121
 3259TIP3    H2 9784   5.333   4.935   0.154
 3260TIP3   OH2 9785   3.691   1.686   1.132
 3260TIP3    H1 9786   3.757   1.751   1.109
 3260TIP3    H2 9787   3.613   1.736   1.155
 3261TIP3   OH2 9788   4.319   2.271   3.942
 3261TIP3    H1 9789   4.325   2.235   4.031
 3261TIP3    H2 9790   4.307   2.195   3.886
 3262TIP3   OH2 9791   3.003   1.115   1.617
 3262TIP3    H1 9792   2.994   1.204   1.651
 3262TIP3    H2 9793   3.094   1.110   1.586
 3263TIP3   OH2 9794   1.874   2.182   3.934
 3263TIP3    H1 9795   1.808   2.158   3.869
 3263TIP3    H2 9796   1.949   2.126   3.914
 3264TIP3   OH2 9797   5.581   3.946   5.113
 3264TIP3    H1 9798   5.506   3.939   5.172
 3264TIP3    H2 9799   5.555   3.897   5.035
 3265TIP3   OH2 9800   0.053   5.292   0.897
 3265TIP3    H1 9801  -0.002   5.269   0.822
 3265TIP3    H2 9802  -0.007   5.290   0.972
 3266TIP3   OH2 9803   6.025   1.781   0.751
 3266TIP3    H1 9804   6.029   1.863   0.702
 3266TIP3    H2 9805   6.101   1.784   0.809
 3267TIP3   OH2 9806   3.596   2.046   4.849
 3267TIP3    H1 9807   3.563   1.956   4.846
 3267TIP3    H2 9808   3.621   2.059   4.941
 3268TIP3   OH2 9809   5.531   5.222   4.403
 3268TIP3    H1 9810   5.549   5.146   4.458
 3268TIP3    H2 9811   5.617   5.261   4.389
 3269TIP3   OH2 9812   5.924   0.255   2.332
 3269TIP3    H1 9813   5.950   0.193   2.263
 3269TIP3    H2 9814   5.865   0.316   2.288
 3270TIP3   OH2 9815   2.208   5.928   4.859
 3270TIP3    H1 9816   2.250   5.842   4.855
 3270TIP3    H2 9817   2.266   5.986   4.810
 3271TIP3   OH2 9818   0.982   5.639   0.355
 3271TIP3    H1 9819   1.014   5.566   0.409
 3271TIP3    H2 9820   0.999   5.612   0.265
 3272TIP3   OH2 9821   4.760   2.298   0.394
 3272TIP3    H1 9822   4.703   2.233   0.435
 3272TIP3    H2 9823   4.750   2.376   0.449
 3273TIP3   OH2 9824   1.672   0.666   4.878
 3273TIP3    H1 9825   1.704   0.756   4.875
 3273TIP3    H2 9826   1.699   0.628   4.794
 3274TIP3   OH2 9827   0.266   3.285   1.802
 3274TIP3    H1 9828   0.318   3.206   1.786
 3274TIP3    H2 9829   0.195   3.281   1.738
 3275TIP3   OH2 9830   1.599   5.775   0.660
 3275TIP3    H1 9831   1.574   5.827   0.737
 3275TIP3    H2 9832   1.616   5.840   0.592
 3276TIP3   OH2 9833   1.905   3.669   2.450
 3276TIP3    H1 9834   1.990   3.677   2.494
 3276TIP3    H2 9835   1.853   3.614   2.509
 3277TIP3   OH2 9836   5.850   4.606   4.578
 3277TIP3    H1 9837   5.842   4.671   4.509
 3277TIP3    H2 9838   5.930   4.558   4.557
 3278TIP3   OH2 9839   2.565   3.990   0.723
 3278TIP3    H1 9840   2.578   4.033   0.638
 3278TIP3    H2 9841   2.470   3.986   0.733
 3279TIP3   OH2 9842   4.826   0.464   1.955
 3279TIP3    H1 9843   4.848   0.371   1.956
 3279TIP3    H2 9844   4.816   0.488   2.047
 3280TIP3   OH2 9845   2.234   3.935   3.909
 3280TIP3    H1 9846   2.201   4.021   3.882
 3280TIP3    H2 9847   2.243   3.886   3.828
 3281TIP3   OH2 9848  -0.029   0.674   3.035
 3281TIP3    H1 9849   0.043   0.625   2.994
 3281TIP3    H2 9850  -0.037   0.753   2.981
 3282TIP3   OH2 9851   2.436   1.805   3.967
 3282TIP3    H1 9852   2.476   1.750   4.034
 3282TIP3    H2 9853   2.348   1.823   4.000
 3283TIP3   OH2 9854   0.730   1.987   0.979
 3283TIP3    H1 9855   0.771   2.059   0.932
 3283TIP3    H2 9856   0.654   2.027   1.021
 3284TIP3   OH2 9857   0.655   2.927   4.342
 3284TIP3    H1 9858   0.601   2.879   4.280
 3284TIP3    H2 9859   0.596   2.947   4.415
 3285TIP3   OH2 9860   4.649   3.055   1.814
 3285TIP3    H1 9861   4.669   3.148   1.809
 3285TIP3    H2 9862   4.631   3.039   1.907
 3286TIP3   OH2 9863   0.282   5.439   0.963
 3286TIP3    H1 9864   0.217   5.376   0.933
 3286TIP3    H2 9865   0.279   5.510   0.899
 3287TIP3   OH2 9866   1.881   5.129   3.357
 3287TIP3    H1 9867   1.893   5.045   3.312
 3287TIP3    H2 9868   1.837   5.185   3.293
 3288TIP3   OH2 9869   2.434   2.136   4.969
 3288TIP3    H1 9870   2.350   2.125   5.014
 3288TIP3    H2 9871   2.416   2.113   4.878
 3289TIP3   OH2 9872   1.202   4.842   4.767
 3289TIP3    H1 9873   1.136   4.851   4.697
 3289TIP3    H2 9874   1.156   4.872   4.845
 3290TIP3   OH2 9875   2.934   5.220   4.186
 3290TIP3    H1 9876   2.930   5.281   4.112
 3290TIP3    H2 9877   2.990   5.149   4.156
 3291TIP3   OH2 9878   0.511   5.680   2.345
 3291TIP3    H1 9879   0.426   5.640   2.363
 3291TIP3    H2 9880   0.564   5.608   2.310
 3292TIP3   OH2 9881   2.663   1.293   1.102
 3292TIP3    H1 9882   2.621   1.301   1.188
 3292TIP3    H2 9883   2.680   1.383   1.075
 3293TIP3   OH2 9884   3.080   0.527   2.721
 3293TIP3    H1 9885   2.988   0.530   2.694
 3293TIP3    H2 9886   3.079   0.488   2.808
 3294TIP3   OH2 9887   0.398   2.728   2.767
 3294TIP3    H1 9888   0.487   2.753   2.792
 3294TIP3    H2 9889   0.342   2.774   2.829
 3295TIP3   OH2 9890   5.952   0.354   0.673
 3295TIP3    H1 9891   5.926   0.362   0.765
 3295TIP3    H2 9892   6.027   0.295   0.673
 3296TIP3   OH2 9893   5.877   3.421   1.194
 3296TIP3    H1 9894   5.841   3.398   1.109
 3296TIP3    H2 9895   5.842   3.509   1.211
 3297TIP3   OH2 9896   5.931   4.832   3.384
 3297TIP3    H1 9897   5.932   4.757   3.443
 3297TIP3    H2 9898   5.842   4.833   3.348
 3298TIP3   OH2 9899   4.266   3.369   1.060
 3298TIP3    H1 9900   4.210   3.442   1.087
 3298TIP3    H2 9901   4.206   3.298   1.040
 3299TIP3   OH2 9902   3.400   0.110   0.741
 3299TIP3    H1 9903   3.359   0.051   0.678
 3299TIP3    H2 9904   3.335   0.120   0.811
 3300TIP3   OH2 9905   0.743   2.552   1.089
 3300TIP3    H1 9906   0.651   2.540   1.114
 3300TIP3    H2 9907   0.793   2.531   1.168
 3301TIP3   OH2 9908   3.058   1.850   4.149
 3301TIP3    H1 9909   3.000   1.856   4.073
 3301TIP3    H2 9910   3.079   1.757   4.156
 3302TIP3   OH2 9911   0.155   4.073   2.689
 3302TIP3    H1 9912   0.101   4.001   2.724
 3302TIP3    H2 9913   0.163   4.134   2.763
 3303TIP3   OH2 9914   2.238   2.623   1.465
 3303TIP3    H1 9915   2.241   2.581   1.551
 3303TIP3    H2 9916   2.293   2.702   1.475
 3304TIP3   OH2 9917   0.651   3.511   3.370
 3304TIP3    H1 9918   0.628   3.420   3.390
 3304TIP3    H2 9919   0.718   3.505   3.301
 3305TIP3   OH2 9920   4.755   3.307   0.696
 3305TIP3    H1 9921   4.662   3.324   0.681
 3305TIP3    H2 9922   4.800   3.372   0.642
 3306TIP3   OH2 9923   1.926   2.746   4.937
 3306TIP3    H1 9924   1.988   2.725   4.867
 3306TIP3    H2 9925   1.860   2.801   4.895
 3307TIP3   OH2 9926   5.023   4.384   1.024
 3307TIP3    H1 9927   5.076   4.305   1.014
 3307TIP3    H2 9928   4.950   4.356   1.079
 3308TIP3   OH2 9929   4.026   2.535   0.446
 3308TIP3    H1 9930   3.945   2.582   0.466
 3308TIP3    H2 9931   4.048   2.562   0.357
 3309TIP3   OH2 9932   1.417   5.462   4.574
 3309TIP3    H1 9933   1.346   5.410   4.537
 3309TIP3    H2 9934   1.444   5.520   4.504
 3310TIP3   OH2 9935   1.255   1.035   1.079
 3310TIP3    H1 9936   1.202   0.979   1.022
 3310TIP3    H2 9937   1.342   1.033   1.041
 3311TIP3   OH2 9938   6.115   2.408   3.652
 3311TIP3    H1 9939   6.086   2.322   3.682
 3311TIP3    H2 9940   6.200   2.390   3.610
 3312TIP3   OH2 9941   4.981   5.183   0.625
 3312TIP3    H1 9942   5.035   5.105   0.617
 3312TIP3    H2 9943   4.942   5.195   0.538
 3313TIP3   OH2 9944   5.318   2.737   0.498
 3313TIP3    H1 9945   5.381   2.666   0.484
 3313TIP3    H2 9946   5.363   2.797   0.558
 3314TIP3   OH2 9947   4.685   4.600   3.516
 3314TIP3    H1 9948   4.692   4.517   3.563
 3314TIP3    H2 9949   4.772   4.640   3.523
 3315TIP3   OH2 9950   2.003   2.103   0.912
 3315TIP3    H1 9951   2.081   2.080   0.862
 3315TIP3    H2 9952   1.983   2.025   0.964
 3316TIP3   OH2 9953   2.866   1.363   2.509
 3316TIP3    H1 9954   2.893   1.368   2.417
 3316TIP3    H2 9955   2.943   1.328   2.555
 3317TIP3   OH2 9956   4.706   4.480   5.219
 3317TIP3    H1 9957   4.793   4.449   5.241
 3317TIP3    H2 9958   4.685   4.438   5.135
 3318TIP3   OH2 9959   1.211   4.937   5.156
 3318TIP3    H1 9960   1.189   4.948   5.249
 3318TIP3    H2 9961   1.258   5.017   5.133
 3319TIP3   OH2 9962   5.216   5.652   0.408
 3319TIP3    H1 9963   5.252   5.571   0.445
 3319TIP3    H2 9964   5.223   5.640   0.314
 3320TIP3   OH2 9965   4.562   1.757   3.407
 3320TIP3    H1 9966   4.531   1.824   3.467
 3320TIP3    H2 9967   4.482   1.718   3.371
 3321TIP3   OH2 9968   4.677   3.630   4.277
 3321TIP3    H1 9969   4.760   3.582   4.274
 3321TIP3    H2 9970   4.672   3.675   4.193
 3322TIP3   OH2 9971   3.161   0.272   0.865
 3322TIP3    H1 9972   3.136   0.303   0.778
 3322TIP3    H2 9973   3.178   0.352   0.915
 3323TIP3   OH2 9974   1.515   4.850   1.473
 3323TIP3    H1 9975   1.460   4.878   1.546
 3323TIP3    H2 9976   1.465   4.782   1.430
 3324TIP3   OH2 9977   0.705   0.799   3.636
 3324TIP3    H1 9978   0.627   0.749   3.661
 3324TIP3    H2 9979   0.752   0.741   3.576
 3325TIP3   OH2 9980   2.255   5.800   4.562
 3325TIP3    H1 9981   2.160   5.813   4.557
 3325TIP3    H2 9982   2.272   5.726   4.503
 3326TIP3   OH2 9983   3.788   4.207   2.164
 3326TIP3    H1 9984   3.722   4.193   2.097
 3326TIP3    H2 9985   3.806   4.301   2.161
 3327TIP3   OH2 9986   3.788   1.705   2.727
 3327TIP3    H1 9987   3.782   1.787   2.677
 3327TIP3    H2 9988   3.697   1.685   2.751
 3328TIP3   OH2 9989   4.642   3.055   4.204
 3328TIP3    H1 9990   4.635   3.105   4.285
 3328TIP3    H2 9991   4.609   2.968   4.227
 3329TIP3   OH2 9992   1.812   4.779   2.941
 3329TIP3    H1 9993   1.873   4.725   2.890
 3329TIP3    H2 9994   1.726   4.761   2.902
 3330TIP3   OH2 9995   5.964   4.769   4.797
 3330TIP3    H1 9996   5.994   4.733   4.880
 3330TIP3    H2 9997   5.990   4.703   4.732
 3331TIP3   OH2 9998   1.083   5.773   1.257
 3331TIP3    H1 9999   1.050   5.860   1.277
 3331TIP3    H210000   1.030   5.743   1.183
 3332TIP3   OH210001   0.887   0.542   0.991
 3332TIP3    H110002   0.849   0.610   0.934
 3332TIP3    H210003   0.853   0.561   1.078
 3333TIP3   OH210004   5.745   5.313   0.497
 3333TIP3    H110005   5.649   5.308   0.496
 3333TIP3    H210006   5.772   5.237   0.549
 3334TIP3   OH210007   5.434   5.339   1.641
 3334TIP3    H110008   5.405   5.249   1.658
 3334TIP3    H210009   5.358   5.382   1.603
 3335TIP3   OH210010   5.159   1.794   1.104
 3335TIP3    H110011   5.091   1.783   1.171
 3335TIP3    H210012   5.110   1.818   1.025
 3336TIP3   OH210013   2.071   3.113   2.803
 3336TIP3    H110014   2.103   3.041   2.857
 3336TIP3    H210015   2.115   3.102   2.719
 3337TIP3   OH210016   1.764   1.426   0.175
 3337TIP3    H110017   1.856   1.400   0.172
 3337TIP3    H210018   1.759   1.493   0.242
 3338TIP3   OH210019   2.833   2.917   1.221
 3338TIP3    H110020   2.896   2.869   1.275
 3338TIP3    H210021   2.847   3.009   1.244
 3339TIP3   OH210022   2.419   0.450   2.216
 3339TIP3    H110023   2.505   0.420   2.187
 3339TIP3    H210024   2.397   0.390   2.288
 3340TIP3   OH210025   5.282   4.573   4.703
 3340TIP3    H110026   5.233   4.633   4.759
 3340TIP3    H210027   5.214   4.522   4.657
 3341TIP3   OH210028   0.728   1.519   1.896
 3341TIP3    H110029   0.670   1.447   1.919
 3341TIP3    H210030   0.796   1.518   1.963
 3342TIP3   OH210031   5.854   1.238   0.527
 3342TIP3    H110032   5.775   1.187   0.513
 3342TIP3    H210033   5.837   1.287   0.608
 3343TIP3   OH210034   4.304   4.404   0.648
 3343TIP3    H110035   4.301   4.458   0.570
 3343TIP3    H210036   4.395   4.408   0.677
 3344TIP3   OH210037   5.980   4.074   1.201
 3344TIP3    H110038   5.968   4.077   1.106
 3344TIP3    H210039   6.037   4.149   1.221
 3345TIP3   OH210040   5.110   3.333   0.874
 3345TIP3    H110041   5.033   3.279   0.861
 3345TIP3    H210042   5.184   3.278   0.846
 3346TIP3   OH210043   5.290   3.688   2.929
 3346TIP3    H110044   5.235   3.645   2.994
 3346TIP3    H210045   5.257   3.656   2.845
 3347TIP3   OH210046   1.408   3.434   4.906
 3347TIP3    H110047   1.403   3.344   4.876
 3347TIP3    H210048   1.439   3.484   4.831
 3348TIP3   OH210049   1.374   0.190   2.800
 3348TIP3    H110050   1.288   0.194   2.757
 3348TIP3    H210051   1.405   0.280   2.800
 3349TIP3   OH210052   4.369   4.900   4.414
 3349TIP3    H110053   4.361   4.806   4.426
 3349TIP3    H210054   4.379   4.911   4.319
 3350TIP3   OH210055   4.603   5.117   4.728
 3350TIP3    H110056   4.611   5.167   4.647
 3350TIP3    H210057   4.684   5.136   4.776
 3351TIP3   OH210058   4.524   3.404   3.448
 3351TIP3    H110059   4.527   3.317   3.489
 3351TIP3    H210060   4.462   3.394   3.376
 3352TIP3   OH210061   5.968   1.982   4.356
 3352TIP3    H110062   5.874   1.983   4.371
 3352TIP3    H210063   5.979   2.020   4.268
 3353TIP3   OH210064   1.654   3.443   4.347
 3353TIP3    H110065   1.668   3.537   4.357
 3353TIP3    H210066   1.731   3.402   4.385
 3354TIP3   OH210067   2.365   2.760   5.061
 3354TIP3    H110068   2.364   2.772   4.966
 3354TIP3    H210069   2.327   2.841   5.096
 3355TIP3   OH210070   1.225   0.239   1.824
 3355TIP3    H110071   1.296   0.293   1.859
 3355TIP3    H210072   1.145   0.279   1.857
 3356TIP3   OH210073   3.179   4.285   0.937
 3356TIP3    H110074   3.111   4.288   1.004
 3356TIP3    H210075   3.151   4.350   0.872
 3357TIP3   OH210076   2.889   1.918   4.756
 3357TIP3    H110077   2.940   1.861   4.813
 3357TIP3    H210078   2.909   2.006   4.787
 3358TIP3   OH210079   3.578   1.119   4.124
 3358TIP3    H110080   3.654   1.061   4.121
 3358TIP3    H210081   3.516   1.075   4.182
 3359TIP3   OH210082   1.099   4.081   1.978
 3359TIP3    H110083   1.098   4.174   1.954
 3359TIP3    H210084   1.023   4.044   1.932
 3360TIP3   OH210085   0.026   5.043   5.160
 3360TIP3    H110086   0.104   5.098   5.151
 3360TIP3    H210087  -0.019   5.080   5.236
 3361TIP3   OH210088   3.049   5.229   1.560
 3361TIP3    H110089   2.985   5.276   1.507
 3361TIP3    H210090   2.998   5.163   1.607
 3362TIP3   OH210091   6.262   4.787   3.532
 3362TIP3    H110092   6.301   4.802   3.446
 3362TIP3    H210093   6.222   4.700   3.525
 3363TIP3   OH210094   6.046   4.508   1.554
 3363TIP3    H110095   5.966   4.553   1.580
 3363TIP3    H210096   6.112   4.539   1.616
 3364TIP3   OH210097   2.569   1.812   4.846
 3364TIP3    H110098   2.579   1.816   4.751
 3364TIP3    H210099   2.575   1.719   4.867
 3365TIP3   OH210100   5.653   1.085   1.277
 3365TIP3    H110101   5.704   1.137   1.215
 3365TIP3    H210102   5.707   1.008   1.295
 3366TIP3   OH210103   0.934   5.059   3.302
 3366TIP3    H110104   0.881   5.082   3.225
 3366TIP3    H210105   0.873   5.064   3.376
 3367TIP3   OH210106   4.863   3.619   2.140
 3367TIP3    H110107   4.950   3.621   2.181
 3367TIP3    H210108   4.811   3.680   2.191
 3368TIP3   OH210109   2.342   1.582   2.038
 3368TIP3    H110110   2.332   1.487   2.031
 3368TIP3    H210111   2.305   1.604   2.123
 3369TIP3   OH210112   4.530   3.855   3.622
 3369TIP3    H110113   4.612   3.806   3.629
 3369TIP3    H210114   4.512   3.859   3.528
 3370TIP3   OH210115   5.625   0.210   2.967
 3370TIP3    H110116   5.672   0.224   3.050
 3370TIP3    H210117   5.585   0.295   2.949
 3371TIP3   OH210118   1.546   2.734   4.277
 3371TIP3    H110119   1.478   2.668   4.263
 3371TIP3    H210120   1.566   2.766   4.189
 3372TIP3   OH210121   1.032   3.498   4.906
 3372TIP3    H110122   1.080   3.504   4.823
 3372TIP3    H210123   1.087   3.546   4.968
 3373TIP3   OH210124   6.025   2.321   2.061
 3373TIP3    H110125   5.942   2.342   2.017
 3373TIP3    H210126   6.017   2.229   2.085
 3374TIP3   OH210127   3.355   3.633   2.088
 3374TIP3    H110128   3.344   3.728   2.096
 3374TIP3    H210129   3.281   3.596   2.136
 3375TIP3   OH210130   0.292   3.878   3.968
 3375TIP3    H110131   0.347   3.936   4.020
 3375TIP3    H210132   0.349   3.848   3.897
 3376TIP3   OH210133   4.454   5.696   1.686
 3376TIP3    H110134   4.535   5.730   1.648
 3376TIP3    H210135   4.478   5.611   1.722
 3377TIP3   OH210136   3.711   2.924   4.209
 3377TIP3    H110137   3.772   2.991   4.240
 3377TIP3    H210138   3.734   2.846   4.258
 3378TIP3   OH210139   5.877   2.904   0.052
 3378TIP3    H110140   5.838   2.891   0.139
 3378TIP3    H210141   5.881   2.999   0.041
 3379TIP3   OH210142   0.491   0.858   5.065
 3379TIP3    H110143   0.396   0.856   5.074
 3379TIP3    H210144   0.517   0.946   5.093
 3380TIP3   OH210145   3.119   0.910   4.017
 3380TIP3    H110146   3.182   0.962   3.967
 3380TIP3    H210147   3.034   0.932   3.979
 3381TIP3   OH210148   5.482   3.072   3.029
 3381TIP3    H110149   5.491   3.118   2.946
 3381TIP3    H210150   5.564   3.025   3.040
 3382TIP3   OH210151   0.748   4.655   0.387
 3382TIP3    H110152   0.824   4.597   0.380
 3382TIP3    H210153   0.784   4.737   0.420
 3383TIP3   OH210154   1.475   1.837   0.625
 3383TIP3    H110155   1.472   1.885   0.543
 3383TIP3    H210156   1.569   1.823   0.641
 3384TIP3   OH210157   0.753   1.483   3.583
 3384TIP3    H110158   0.756   1.577   3.567
 3384TIP3    H210159   0.683   1.451   3.527
 3385TIP3   OH210160   5.842   1.546   4.997
 3385TIP3    H110161   5.906   1.475   5.001
 3385TIP3    H210162   5.870   1.608   5.064
 3386TIP3   OH210163   3.928   3.107   4.716
 3386TIP3    H110164   3.941   3.156   4.797
 3386TIP3    H210165   4.016   3.096   4.680
 3387TIP3   OH210166   1.466   0.561   0.152
 3387TIP3    H110167   1.519   0.641   0.145
 3387TIP3    H210168   1.376   0.592   0.146
 3388TIP3   OH210169   5.116   3.325   1.507
 3388TIP3    H110170   5.085   3.380   1.435
 3388TIP3    H210171   5.209   3.346   1.514
 3389TIP3   OH210172   4.145   0.907   4.291
 3389TIP3    H110173   4.097   0.864   4.361
 3389TIP3    H210174   4.224   0.854   4.279
 3390TIP3   OH210175   1.030   2.889   1.017
 3390TIP3    H110176   1.043   2.812   1.073
 3390TIP3    H210177   1.112   2.937   1.023
 3391TIP3   OH210178   5.429   0.769   3.192
 3391TIP3    H110179   5.434   0.699   3.257
 3391TIP3    H210180   5.443   0.849   3.243
 3392TIP3   OH210181   2.153   5.420   4.109
 3392TIP3    H110182   2.229   5.478   4.103
 3392TIP3    H210183   2.190   5.333   4.122
 3393TIP3   OH210184   0.796   1.436   1.536
 3393TIP3    H110185   0.807   1.341   1.544
 3393TIP3    H210186   0.837   1.458   1.452
 3394TIP3   OH210187   5.589   2.099   3.060
 3394TIP3    H110188   5.660   2.121   3.121
 3394TIP3    H210189   5.533   2.177   3.060
 3395TIP3   OH210190   1.761   5.048   0.160
 3395TIP3    H110191   1.853   5.059   0.185
 3395TIP3    H210192   1.763   4.987   0.087
 3396TIP3   OH210193   6.091   5.136   2.341
 3396TIP3    H110194   6.174   5.169   2.375
 3396TIP3    H210195   6.088   5.045   2.370
 3397TIP3   OH210196   1.669   4.055   0.595
 3397TIP3    H110197   1.677   3.961   0.578
 3397TIP3    H210198   1.701   4.066   0.684
 3398TIP3   OH210199   2.121   1.759   3.686
 3398TIP3    H110200   2.149   1.767   3.595
 3398TIP3    H210201   2.152   1.673   3.714
 3399TIP3   OH210202   0.592   1.988   2.221
 3399TIP3    H110203   0.681   2.021   2.231
 3399TIP3    H210204   0.603   1.899   2.189
 3400TIP3   OH210205   3.148   0.740   1.623
 3400TIP3    H110206   3.082   0.783   1.677
 3400TIP3    H210207   3.221   0.802   1.620
 3401TIP3   OH210208   1.919   3.340   4.446
 3401TIP3    H110209   1.919   3.248   4.472
 3401TIP3    H210210   1.913   3.388   4.529
 3402TIP3   OH210211   2.558   1.002   3.322
 3402TIP3    H110212   2.543   0.963   3.236
 3402TIP3    H210213   2.471   1.004   3.362
 3403TIP3   OH210214   5.113   3.860   3.280
 3403TIP3    H110215   5.061   3.855   3.361
 3403TIP3    H210216   5.123   3.954   3.264
 3404TIP3   OH210217   3.776   5.096   4.704
 3404TIP3    H110218   3.810   5.051   4.627
 3404TIP3    H210219   3.681   5.080   4.700
 3405TIP3   OH210220   2.830   2.697   2.282
 3405TIP3    H110221   2.738   2.672   2.274
 3405TIP3    H210222   2.862   2.646   2.357
 3406TIP3   OH210223   2.840   3.318   5.011
 3406TIP3    H110224   2.895   3.390   5.044
 3406TIP3    H210225   2.759   3.325   5.061
 3407TIP3   OH210226   4.610   0.085   2.130
 3407TIP3    H110227   4.549   0.013   2.115
 3407TIP3    H210228   4.568   0.140   2.196
 3408TIP3   OH210229   1.298   3.616   0.754
 3408TIP3    H110230   1.279   3.694   0.806
 3408TIP3    H210231   1.212   3.577   0.737
 3409TIP3   OH210232   2.888   1.080   3.575
 3409TIP3    H110233   2.980   1.088   3.549
 3409TIP3    H210234   2.851   1.016   3.513
 3410TIP3   OH210235   3.848   3.602   1.540
 3410TIP3    H110236   3.756   3.579   1.527
 3410TIP3    H210237   3.863   3.587   1.633
 3411TIP3   OH210238   5.770   3.049   0.269
 3411TIP3    H110239   5.822   3.127   0.286
 3411TIP3    H210240   5.684   3.082   0.244
 3412TIP3   OH210241   3.792   4.907   2.950
 3412TIP3    H110242   3.699   4.929   2.939
 3412TIP3    H210243   3.807   4.837   2.887
 3413TIP3   OH210244   4.742   1.139   4.981
 3413TIP3    H110245   4.759   1.045   4.975
 3413TIP3    H210246   4.807   1.171   5.044
 3414TIP3   OH210247   3.820   2.267   1.501
 3414TIP3    H110248   3.728   2.259   1.526
 3414TIP3    H210249   3.864   2.194   1.545
 3415TIP3   OH210250   2.638   4.894   0.916
 3415TIP3    H110251   2.732   4.905   0.934
 3415TIP3    H210252   2.613   4.818   0.969
 3416TIP3   OH210253   2.835   5.239   1.923
 3416TIP3    H110254   2.881   5.284   1.853
 3416TIP3    H210255   2.775   5.178   1.879
 3417TIP3   OH210256   3.065   1.946   2.282
 3417TIP3    H110257   3.030   2.001   2.351
 3417TIP3    H210258   3.028   1.982   2.201
 3418TIP3   OH210259   6.119   3.087   1.949
 3418TIP3    H110260   6.059   3.143   1.900
 3418TIP3    H210261   6.205   3.125   1.933
 3419TIP3   OH210262   1.603   3.371   2.933
 3419TIP3    H110263   1.581   3.305   2.999
 3419TIP3    H210264   1.698   3.373   2.933
 3420TIP3   OH210265   0.421   2.275   3.154
 3420TIP3    H110266   0.375   2.358   3.153
 3420TIP3    H210267   0.352   2.209   3.145
 3421TIP3   OH210268   5.735   0.674   4.773
 3421TIP3    H110269   5.767   0.596   4.819
 3421TIP3    H210270   5.801   0.691   4.706
 3422TIP3   OH210271   5.012   2.123   4.151
 3422TIP3    H110272   4.982   2.214   4.146
 3422TIP3    H210273   4.932   2.071   4.157
 3423TIP3   OH210274   3.604   4.317   0.350
 3423TIP3    H110275   3.650   4.233   0.361
 3423TIP3    H210276   3.526   4.295   0.299
 3424TIP3   OH210277   6.332   4.756   2.610
 3424TIP3    H110278   6.307   4.764   2.518
 3424TIP3    H210279   6.416   4.710   2.608
 3425TIP3   OH210280   3.139   0.054   3.826
 3425TIP3    H110281   3.093   0.095   3.899
 3425TIP3    H210282   3.232   0.064   3.847
 3426TIP3   OH210283   4.688   2.104   2.482
 3426TIP3    H110284   4.606   2.070   2.517
 3426TIP3    H210285   4.665   2.138   2.395
 3427TIP3   OH210286   5.201   4.194   0.991
 3427TIP3    H110287   5.265   4.249   1.036
 3427TIP3    H210288   5.254   4.128   0.946
 3428TIP3   OH210289   4.449   3.880   1.799
 3428TIP3    H110290   4.403   3.800   1.824
 3428TIP3    H210291   4.382   3.932   1.753
 3429TIP3   OH210292   3.931   1.197   4.321
 3429TIP3    H110293   3.977   1.270   4.279
 3429TIP3    H210294   3.903   1.233   4.405
 3430TIP3   OH210295   3.649   0.695   2.773
 3430TIP3    H110296   3.575   0.735   2.818
 3430TIP3    H210297   3.692   0.642   2.839
 3431TIP3   OH210298   5.755   0.437   2.213
 3431TIP3    H110299   5.820   0.505   2.196
 3431TIP3    H210300   5.671   0.479   2.193
 3432TIP3   OH210301   0.652   4.797   1.501
 3432TIP3    H110302   0.708   4.873   1.485
 3432TIP3    H210303   0.709   4.734   1.546
 3433TIP3   OH210304   0.899   1.171   3.519
 3433TIP3    H110305   0.819   1.134   3.480
 3433TIP3    H210306   0.901   1.136   3.608
 3434TIP3   OH210307   1.539   3.613   3.055
 3434TIP3    H110308   1.564   3.524   3.030
 3434TIP3    H210309   1.480   3.642   2.985
 3435TIP3   OH210310   2.362   5.419   1.967
 3435TIP3    H110311   2.445   5.465   1.955
 3435TIP3    H210312   2.387   5.330   1.992
 3436TIP3   OH210313   4.142   5.026   1.165
 3436TIP3    H110314   4.127   4.938   1.128
 3436TIP3    H210315   4.229   5.051   1.131
 3437TIP3   OH210316   0.881   4.714   4.780
 3437TIP3    H110317   0.894   4.626   4.816
 3437TIP3    H210318   0.924   4.712   4.695
 3438TIP3   OH210319   2.135   1.613   4.404
 3438TIP3    H110320   2.166   1.600   4.315
 3438TIP3    H210321   2.069   1.682   4.397
 3439TIP3   OH210322   0.830   3.202   0.362
 3439TIP3    H110323   0.774   3.278   0.379
 3439TIP3    H210324   0.770   3.128   0.358
 3440TIP3   OH210325   1.851   5.454   2.763
 3440TIP3    H110326   1.933   5.408   2.747
 3440TIP3    H210327   1.847   5.520   2.693
 3441TIP3   OH210328   0.347   4.596   4.607
 3441TIP3    H110329   0.272   4.639   4.649
 3441TIP3    H210330   0.323   4.504   4.605
 3442TIP3   OH210331   2.491   2.726   3.530
 3442TIP3    H110332   2.437   2.652   3.557
 3442TIP3    H210333   2.432   2.801   3.531
 3443TIP3   OH210334   0.064   3.777   0.933
 3443TIP3    H110335   0.055   3.843   0.864
 3443TIP3    H210336   0.158   3.765   0.942
 3444TIP3   OH210337   0.559   3.769   4.223
 3444TIP3    H110338   0.568   3.802   4.134
 3444TIP3    H210339   0.573   3.675   4.216
 3445TIP3   OH210340   4.771   4.793   0.179
 3445TIP3    H110341   4.681   4.826   0.172
 3445TIP3    H210342   4.771   4.713   0.127
 3446TIP3   OH210343   3.301   3.826  -0.032
 3446TIP3    H110344   3.384   3.780  -0.024
 3446TIP3    H210345   3.286   3.863   0.054
 3447TIP3   OH210346   4.588   2.390   1.757
 3447TIP3    H110347   4.594   2.378   1.852
 3447TIP3    H210348   4.674   2.423   1.732
 3448TIP3   OH210349   0.319   3.963   4.637
 3448TIP3    H110350   0.327   4.034   4.573
 3448TIP3    H210351   0.362   3.888   4.596
 3449TIP3   OH210352   2.935   1.192   0.762
 3449TIP3    H110353   2.898   1.113   0.802
 3449TIP3    H210354   3.007   1.159   0.708
 3450TIP3   OH210355   1.224   5.206   4.783
 3450TIP3    H110356   1.149   5.231   4.729
 3450TIP3    H210357   1.185   5.178   4.866
 3451TIP3   OH210358   0.574   1.883   4.679
 3451TIP3    H110359   0.564   1.948   4.749
 3451TIP3    H210360   0.514   1.813   4.703
 3452TIP3   OH210361   3.833   1.306   3.353
 3452TIP3    H110362   3.812   1.216   3.326
 3452TIP3    H210363   3.928   1.312   3.345
 3453TIP3   OH210364   1.364   3.247   1.463
 3453TIP3    H110365   1.312   3.272   1.386
 3453TIP3    H210366   1.403   3.163   1.440
 3454TIP3   OH210367   4.970   0.554   2.403
 3454TIP3    H110368   5.024   0.623   2.366
 3454TIP3    H210369   5.033   0.492   2.442
 3455TIP3   OH210370   4.590   4.354   1.682
 3455TIP3    H110371   4.673   4.371   1.725
 3455TIP3    H210372   4.549   4.440   1.672
 3456TIP3   OH210373   5.072   3.607   3.925
 3456TIP3    H110374   5.076   3.697   3.893
 3456TIP3    H210375   5.133   3.606   3.999
 3457TIP3   OH210376   1.594   1.837   4.203
 3457TIP3    H110377   1.628   1.857   4.290
 3457TIP3    H210378   1.558   1.920   4.172
 3458TIP3   OH210379   5.921   2.277   0.208
 3458TIP3    H110380   5.869   2.317   0.138
 3458TIP3    H210381   5.860   2.269   0.282
 3459TIP3   OH210382   4.906   1.435   3.060
 3459TIP3    H110383   4.993   1.472   3.076
 3459TIP3    H210384   4.869   1.423   3.148
 3460TIP3   OH210385   0.240   2.630   2.567
 3460TIP3    H110386   0.157   2.676   2.559
 3460TIP3    H210387   0.293   2.687   2.624
 3461TIP3   OH210388   4.722   2.882   3.999
 3461TIP3    H110389   4.713   2.948   4.067
 3461TIP3    H210390   4.668   2.915   3.927
 3462TIP3   OH210391   5.742   4.763   0.317
 3462TIP3    H110392   5.794   4.793   0.392
 3462TIP3    H210393   5.796   4.782   0.241
 3463TIP3   OH210394   4.259   0.548   3.775
 3463TIP3    H110395   4.170   0.516   3.759
 3463TIP3    H210396   4.287   0.583   3.690
 3464TIP3   OH210397   0.225   1.537   2.368
 3464TIP3    H110398   0.302   1.517   2.315
 3464TIP3    H210399   0.257   1.598   2.434
 3465TIP3   OH210400   2.605   4.051   0.980
 3465TIP3    H110401   2.587   4.019   0.891
 3465TIP3    H210402   2.518   4.061   1.019
 3466TIP3   OH210403   2.462   2.964   0.969
 3466TIP3    H110404   2.400   3.011   1.025
 3466TIP3    H210405   2.512   2.909   1.030
 3467TIP3   OH210406   5.386   5.606   4.938
 3467TIP3    H110407   5.302   5.616   4.893
 3467TIP3    H210408   5.364   5.606   5.031
 3468TIP3   OH210409   2.808   5.669   3.202
 3468TIP3    H110410   2.716   5.695   3.214
 3468TIP3    H210411   2.834   5.709   3.119
 3469TIP3   OH210412   2.992   4.889   3.695
 3469TIP3    H110413   3.072   4.934   3.667
 3469TIP3    H210414   2.922   4.929   3.643
 3470TIP3   OH210415   2.854   1.625   4.987
 3470TIP3    H110416   2.868   1.622   5.081
 3470TIP3    H210417   2.940   1.646   4.950
 3471TIP3   OH210418   3.561   3.672   5.052
 3471TIP3    H110419   3.543   3.586   5.015
 3471TIP3    H210420   3.600   3.722   4.981
 3472TIP3   OH210421   5.535   1.164   5.128
 3472TIP3    H110422   5.456   1.162   5.182
 3472TIP3    H210423   5.605   1.186   5.190
 3473TIP3   OH210424   5.589   1.000   0.118
 3473TIP3    H110425   5.667   1.031   0.166
 3473TIP3    H210426   5.621   0.929   0.063
 3474TIP3   OH210427   4.612   0.997   2.176
 3474TIP3    H110428   4.596   0.949   2.095
 3474TIP3    H210429   4.673   1.067   2.151
 3475TIP3   OH210430   1.931   1.001   0.288
 3475TIP3    H110431   1.912   1.050   0.208
 3475TIP3    H210432   1.942   0.911   0.258
 3476TIP3   OH210433   0.992   1.384   0.983
 3476TIP3    H110434   1.084   1.398   1.006
 3476TIP3    H210435   0.971   1.299   1.020
 3477TIP3   OH210436   2.529   6.070   1.518
 3477TIP3    H110437   2.481   6.081   1.600
 3477TIP3    H210438   2.497   5.988   1.482
 3478TIP3   OH210439   4.119   3.397   2.985
 3478TIP3    H110440   4.059   3.325   2.963
 3478TIP3    H210441   4.205   3.355   2.993
 3479TIP3   OH210442   5.987   4.454   3.039
 3479TIP3    H110443   5.966   4.547   3.037
 3479TIP3    H210444   6.061   4.448   3.100
 3480TIP3   OH210445   3.185   1.280   0.148
 3480TIP3    H110446   3.106   1.256   0.196
 3480TIP3    H210447   3.192   1.375   0.159
 3481TIP3   OH210448   0.566   3.214   0.695
 3481TIP3    H110449   0.536   3.146   0.755
 3481TIP3    H210450   0.489   3.236   0.643
 3482TIP3   OH210451   0.717   0.840   3.233
 3482TIP3    H110452   0.803   0.835   3.191
 3482TIP3    H210453   0.662   0.782   3.180
 3483TIP3   OH210454   0.849   2.672   1.460
 3483TIP3    H110455   0.820   2.761   1.440
 3483TIP3    H210456   0.768   2.622   1.467
 3484TIP3   OH210457   4.036   4.204   2.750
 3484TIP3    H110458   4.068   4.244   2.669
 3484TIP3    H210459   4.104   4.140   2.773
 3485TIP3   OH210460   0.930   5.773   3.893
 3485TIP3    H110461   0.946   5.867   3.904
 3485TIP3    H210462   0.923   5.761   3.799
 3486TIP3   OH210463   5.939   2.431   4.432
 3486TIP3    H110464   5.880   2.358   4.450
 3486TIP3    H210465   5.881   2.504   4.410
 3487TIP3   OH210466   2.378   3.299   1.877
 3487TIP3    H110467   2.436   3.275   1.804
 3487TIP3    H210468   2.316   3.361   1.838
 3488TIP3   OH210469   3.579   1.531   0.941
 3488TIP3    H110470   3.612   1.595   1.004
 3488TIP3    H210471   3.507   1.487   0.987
 3489TIP3   OH210472   1.002   2.565   5.147
 3489TIP3    H110473   1.080   2.568   5.203
 3489TIP3    H210474   1.011   2.484   5.097
 3490TIP3   OH210475   3.150   4.790   5.022
 3490TIP3    H110476   3.150   4.863   5.083
 3490TIP3    H210477   3.171   4.714   5.076
 3491TIP3   OH210478   1.241   2.499   0.420
 3491TIP3    H110479   1.213   2.462   0.336
 3491TIP3    H210480   1.313   2.442   0.448
 3492TIP3   OH210481   1.123   3.810   0.120
 3492TIP3    H110482   1.180   3.792   0.195
 3492TIP3    H210483   1.038   3.773   0.146
 3493TIP3   OH210484   1.916   1.841   2.487
 3493TIP3    H110485   1.951   1.907   2.547
 3493TIP3    H210486   1.941   1.757   2.526
 3494TIP3   OH210487   4.084   0.268   4.781
 3494TIP3    H110488   4.001   0.310   4.758
 3494TIP3    H210489   4.098   0.204   4.712
 3495TIP3   OH210490   2.663   1.965   3.033
 3495TIP3    H110491   2.605   1.941   2.961
 3495TIP3    H210492   2.680   1.882   3.078
 3496TIP3   OH210493   5.107   1.214   1.914
 3496TIP3    H110494   5.123   1.121   1.899
 3496TIP3    H210495   5.030   1.234   1.862
 3497TIP3   OH210496   1.695   1.613   4.060
 3497TIP3    H110497   1.712   1.540   4.120
 3497TIP3    H210498   1.660   1.682   4.115
 3498TIP3   OH210499   2.598   2.298   2.465
 3498TIP3    H110500   2.532   2.240   2.502
 3498TIP3    H210501   2.681   2.252   2.479
 3499TIP3   OH210502   3.056   5.316   0.751
 3499TIP3    H110503   3.006   5.360   0.682
 3499TIP3    H210504   3.120   5.381   0.781
 3500TIP3   OH210505   4.858   2.965   1.183
 3500TIP3    H110506   4.817   3.018   1.251
 3500TIP3    H210507   4.802   2.888   1.174
 3501TIP3   OH210508   3.265   3.899   2.124
 3501TIP3    H110509   3.174   3.915   2.149
 3501TIP3    H210510   3.314   3.914   2.205
 3502TIP3   OH210511   5.668   3.552   2.600
 3502TIP3    H110512   5.583   3.585   2.569
 3502TIP3    H210513   5.675   3.585   2.690
 3503TIP3   OH210514   5.975   1.696   4.128
 3503TIP3    H110515   5.922   1.619   4.104
 3503TIP3    H210516   5.930   1.733   4.204
 3504TIP3   OH210517   3.484   5.930   3.607
 3504TIP3    H110518   3.558   5.979   3.644
 3504TIP3    H210519   3.524   5.876   3.539
 3505TIP3   OH210520   4.710   2.726   1.122
 3505TIP3    H110521   4.650   2.686   1.185
 3505TIP3    H210522   4.654   2.768   1.058
 3506TIP3   OH210523   1.237   0.817   0.005
 3506TIP3    H110524   1.279   0.857   0.081
 3506TIP3    H210525   1.304   0.820  -0.064
 3507TIP3   OH210526   0.441   1.886   0.268
 3507TIP3    H110527   0.482   1.918   0.188
 3507TIP3    H210528   0.359   1.846   0.239
 3508TIP3   OH210529   4.693   0.213   1.084
 3508TIP3    H110530   4.706   0.122   1.108
 3508TIP3    H210531   4.692   0.213   0.989
 3509TIP3   OH210532   3.769   5.551   2.839
 3509TIP3    H110533   3.674   5.543   2.835
 3509TIP3    H210534   3.803   5.467   2.809
 3510TIP3   OH210535   0.021   1.466   0.666
 3510TIP3    H110536   0.097   1.409   0.648
 3510TIP3    H210537   0.006   1.456   0.760
 3511TIP3   OH210538   2.080   1.351   3.999
 3511TIP3    H110539   2.036   1.307   4.072
 3511TIP3    H210540   2.014   1.352   3.929
 3512TIP3   OH210541   2.789   3.070   3.820
 3512TIP3    H110542   2.828   3.134   3.880
 3512TIP3    H210543   2.853   2.999   3.816
 3513TIP3   OH210544   2.927   1.048   2.171
 3513TIP3    H110545   2.993   1.033   2.239
 3513TIP3    H210546   2.978   1.075   2.094
 3514TIP3   OH210547   1.584   1.271   1.344
 3514TIP3    H110548   1.539   1.198   1.302
 3514TIP3    H210549   1.587   1.247   1.437
 3515TIP3   OH210550   1.795   3.027   1.503
 3515TIP3    H110551   1.853   3.102   1.493
 3515TIP3    H210552   1.790   3.013   1.598
 3516TIP3   OH210553   3.841   1.037   4.085
 3516TIP3    H110554   3.840   1.098   4.011
 3516TIP3    H210555   3.905   1.075   4.146
 3517TIP3   OH210556   5.461   4.918   4.280
 3517TIP3    H110557   5.490   4.845   4.225
 3517TIP3    H210558   5.521   4.917   4.354
 3518TIP3   OH210559   0.560   1.038   2.965
 3518TIP3    H110560   0.473   1.076   2.979
 3518TIP3    H210561   0.548   0.944   2.981
 3519TIP3   OH210562   4.102   4.198   1.409
 3519TIP3    H110563   4.168   4.266   1.397
 3519TIP3    H210564   4.026   4.245   1.443
 3520TIP3   OH210565   2.749   1.001   1.254
 3520TIP3    H110566   2.672   1.038   1.296
 3520TIP3    H210567   2.807   1.077   1.242
 3521TIP3   OH210568   2.813   3.313   0.428
 3521TIP3    H110569   2.813   3.288   0.335
 3521TIP3    H210570   2.746   3.381   0.433
 3522TIP3   OH210571   2.323   5.537   1.376
 3522TIP3    H110572   2.315   5.443   1.363
 3522TIP3    H210573   2.300   5.552   1.467
 3523TIP3   OH210574   3.173   0.471   4.604
 3523TIP3    H110575   3.115   0.404   4.641
 3523TIP3    H210576   3.191   0.530   4.677
 3524TIP3   OH210577   5.367   2.304   3.720
 3524TIP3    H110578   5.421   2.375   3.686
 3524TIP3    H210579   5.418   2.225   3.703
 3525TIP3   OH210580   3.873   2.866   3.790
 3525TIP3    H110581   3.833   2.893   3.707
 3525TIP3    H210582   3.900   2.948   3.831
 3526TIP3   OH210583   1.509   4.495   1.694
 3526TIP3    H110584   1.446   4.496   1.767
 3526TIP3    H210585   1.454   4.505   1.616
 3527TIP3   OH210586   0.593   2.510   1.477
 3527TIP3    H110587   0.509   2.547   1.453
 3527TIP3    H210588   0.603   2.434   1.420
 3528TIP3   OH210589   2.943   5.844   1.484
 3528TIP3    H110590   2.888   5.912   1.522
 3528TIP3    H210591   3.022   5.843   1.538
 3529TIP3   OH210592   3.660   0.940   3.052
 3529TIP3    H110593   3.735   0.883   3.037
 3529TIP3    H210594   3.672   1.013   2.991
 3530TIP3   OH210595   5.282   5.687   0.112
 3530TIP3    H110596   5.282   5.742   0.034
 3530TIP3    H210597   5.367   5.702   0.152
 3531TIP3   OH210598   5.587   0.938   3.380
 3531TIP3    H110599   5.627   0.997   3.444
 3531TIP3    H210600   5.513   0.899   3.426
 3532TIP3   OH210601   1.904   3.462   4.722
 3532TIP3    H110602   1.967   3.461   4.793
 3532TIP3    H210603   1.862   3.548   4.728
 3533TIP3   OH210604   5.376   5.814   3.260
 3533TIP3    H110605   5.378   5.909   3.269
 3533TIP3    H210606   5.416   5.781   3.340
 3534TIP3   OH210607   0.274   3.388   2.973
 3534TIP3    H110608   0.317   3.469   2.999
 3534TIP3    H210609   0.295   3.327   3.044
 3535TIP3   OH210610   2.203   2.810   2.301
 3535TIP3    H110611   2.234   2.788   2.389
 3535TIP3    H210612   2.179   2.725   2.263
 3536TIP3   OH210613   1.777   0.362   4.192
 3536TIP3    H110614   1.743   0.295   4.251
 3536TIP3    H210615   1.859   0.391   4.233
 3537TIP3   OH210616   6.175   3.388   3.606
 3537TIP3    H110617   6.113   3.461   3.605
 3537TIP3    H210618   6.191   3.372   3.699
 3538TIP3   OH210619   1.853   4.738   0.366
 3538TIP3    H110620   1.849   4.790   0.446
 3538TIP3    H210621   1.923   4.674   0.383
 3539TIP3   OH210622   4.333   5.125   0.337
 3539TIP3    H110623   4.325   5.212   0.299
 3539TIP3    H210624   4.302   5.066   0.269
 3540TIP3   OH210625   3.153   4.373   1.261
 3540TIP3    H110626   3.124   4.347   1.349
 3540TIP3    H210627   3.186   4.292   1.222
 3541TIP3   OH210628   2.867   2.726   3.445
 3541TIP3    H110629   2.797   2.712   3.381
 3541TIP3    H210630   2.826   2.706   3.530
 3542TIP3   OH210631   3.506   5.161   4.942
 3542TIP3    H110632   3.592   5.126   4.965
 3542TIP3    H210633   3.455   5.155   5.022
 3543TIP3   OH210634   3.631   2.533   2.194
 3543TIP3    H110635   3.631   2.477   2.116
 3543TIP3    H210636   3.550   2.584   2.187
 3544TIP3   OH210637   1.891   3.497   5.119
 3544TIP3    H110638   1.951   3.455   5.057
 3544TIP3    H210639   1.936   3.577   5.146
 3545TIP3   OH210640   5.746   5.079   4.153
 3545TIP3    H110641   5.702   5.026   4.087
 3545TIP3    H210642   5.677   5.135   4.189
 3546TIP3   OH210643   5.558   5.290   3.283
 3546TIP3    H110644   5.597   5.217   3.235
 3546TIP3    H210645   5.475   5.307   3.238
 3547TIP3   OH210646   4.832   4.467   3.746
 3547TIP3    H110647   4.806   4.539   3.803
 3547TIP3    H210648   4.840   4.392   3.806
 3548TIP3   OH210649   4.441   2.656   3.686
 3548TIP3    H110650   4.385   2.586   3.653
 3548TIP3    H210651   4.413   2.669   3.777
 3549TIP3   OH210652   4.833   4.443   2.666
 3549TIP3    H110653   4.738   4.443   2.654
 3549TIP3    H210654   4.855   4.535   2.679
 3550TIP3   OH210655   2.398   4.527   0.351
 3550TIP3    H110656   2.440   4.610   0.326
 3550TIP3    H210657   2.411   4.521   0.446
 3551TIP3   OH210658   4.342   4.264   2.129
 3551TIP3    H110659   4.324   4.178   2.090
 3551TIP3    H210660   4.300   4.260   2.215
 3552TIP3   OH210661   2.819   6.012   5.038
 3552TIP3    H110662   2.758   5.955   4.992
 3552TIP3    H210663   2.905   5.976   5.017
 3553TIP3   OH210664   4.899   1.987   2.616
 3553TIP3    H110665   4.937   2.041   2.685
 3553TIP3    H210666   4.852   2.048   2.560
 3554TIP3   OH210667   2.013   1.511   3.068
 3554TIP3    H110668   2.064   1.450   3.122
 3554TIP3    H210669   1.972   1.569   3.132
 3555TIP3   OH210670   1.554   3.576   0.732
 3555TIP3    H110671   1.581   3.575   0.824
 3555TIP3    H210672   1.460   3.590   0.735
 3556TIP3   OH210673   0.618   1.883   1.738
 3556TIP3    H110674   0.557   1.811   1.754
 3556TIP3    H210675   0.691   1.868   1.797
 3557TIP3   OH210676   6.006   4.206   2.898
 3557TIP3    H110677   5.996   4.281   2.955
 3557TIP3    H210678   6.099   4.187   2.899
 3558TIP3   OH210679   1.692   3.817   4.723
 3558TIP3    H110680   1.762   3.863   4.769
 3558TIP3    H210681   1.631   3.793   4.792
 3559TIP3   OH210682   5.640   1.995   2.822
 3559TIP3    H110683   5.721   1.949   2.843
 3559TIP3    H210684   5.616   2.039   2.904
 3560TIP3   OH210685   4.859   2.656   3.978
 3560TIP3    H110686   4.830   2.737   3.935
 3560TIP3    H210687   4.948   2.674   4.007
 3561TIP3   OH210688   4.899   4.909   2.926
 3561TIP3    H110689   4.809   4.941   2.930
 3561TIP3    H210690   4.908   4.855   3.005
 3562TIP3   OH210691   0.646   1.263   0.111
 3562TIP3    H110692   0.589   1.243   0.037
 3562TIP3    H210693   0.733   1.274   0.072
 3563TIP3   OH210694   5.264   0.380   1.131
 3563TIP3    H110695   5.205   0.435   1.183
 3563TIP3    H210696   5.300   0.439   1.065
 3564TIP3   OH210697   5.061   2.887   1.027
 3564TIP3    H110698   4.982   2.912   1.074
 3564TIP3    H210699   5.089   2.805   1.069
 3565TIP3   OH210700   0.785   2.297   5.017
 3565TIP3    H110701   0.750   2.312   4.929
 3565TIP3    H210702   0.876   2.274   5.003
 3566TIP3   OH210703   1.591   3.221   1.696
 3566TIP3    H110704   1.531   3.205   1.623
 3566TIP3    H210705   1.535   3.250   1.768
 3567TIP3   OH210706   3.617   0.859   0.322
 3567TIP3    H110707   3.599   0.805   0.245
 3567TIP3    H210708   3.539   0.850   0.377
 3568TIP3   OH210709   0.915   5.142   1.615
 3568TIP3    H110710   0.860   5.079   1.662
 3568TIP3    H210711   0.881   5.228   1.641
 3569TIP3   OH210712   6.268   1.021   0.955
 3569TIP3    H110713   6.302   1.058   0.874
 3569TIP3    H210714   6.260   1.095   1.014
 3570TIP3   OH210715   3.269   0.065   3.573
 3570TIP3    H110716   3.209   0.073   3.648
 3570TIP3    H210717   3.319   0.147   3.573
 3571TIP3   OH210718   6.288   1.764   0.184
 3571TIP3    H110719   6.243   1.795   0.105
 3571TIP3    H210720   6.221   1.767   0.252
 3572TIP3   OH210721   3.714   2.661   3.894
 3572TIP3    H110722   3.786   2.723   3.883
 3572TIP3    H210723   3.641   2.701   3.845
 3573TIP3   OH210724   5.316   3.641   3.653
 3573TIP3    H110725   5.257   3.706   3.615
 3573TIP3    H210726   5.397   3.689   3.672
 3574TIP3   OH210727   1.271   4.992   0.766
 3574TIP3    H110728   1.308   4.988   0.854
 3574TIP3    H210729   1.340   4.958   0.709
 3575TIP3   OH210730   0.967   3.478   0.712
 3575TIP3    H110731   0.926   3.509   0.631
 3575TIP3    H210732   0.934   3.389   0.723
 3576TIP3   OH210733   0.714   0.268   3.188
 3576TIP3    H110734   0.741   0.235   3.102
 3576TIP3    H210735   0.788   0.246   3.246
 3577TIP3   OH210736   4.821   4.851   4.723
 3577TIP3    H110737   4.916   4.839   4.716
 3577TIP3    H210738   4.794   4.878   4.636
 3578TIP3   OH210739   4.731   0.327   4.938
 3578TIP3    H110740   4.812   0.316   4.988
 3578TIP3    H210741   4.689   0.404   4.977
 3579TIP3   OH210742   5.245   3.268   4.563
 3579TIP3    H110743   5.340   3.264   4.570
 3579TIP3    H210744   5.229   3.338   4.501
 3580TIP3   OH210745   2.161   2.243   3.111
 3580TIP3    H110746   2.138   2.151   3.099
 3580TIP3    H210747   2.256   2.243   3.116
 3581TIP3   OH210748   0.423   0.527   3.168
 3581TIP3    H110749   0.410   0.539   3.262
 3581TIP3    H210750   0.515   0.549   3.154
 3582TIP3   OH210751   3.865   3.646   4.310
 3582TIP3    H110752   3.777   3.626   4.342
 3582TIP3    H210753   3.851   3.684   4.223
 3583TIP3   OH210754   3.185   2.641   1.983
 3583TIP3    H110755   3.145   2.559   2.011
 3583TIP3    H210756   3.231   2.620   1.902
 3584TIP3   OH210757   0.271   3.711   1.763
 3584TIP3    H110758   0.176   3.709   1.747
 3584TIP3    H210759   0.288   3.799   1.798
 3585TIP3   OH210760   1.150   2.984   2.571
 3585TIP3    H110761   1.114   3.052   2.514
 3585TIP3    H210762   1.229   2.954   2.525
 3586TIP3   OH210763   1.330   5.768   1.714
 3586TIP3    H110764   1.401   5.823   1.682
 3586TIP3    H210765   1.296   5.724   1.636
 3587TIP3   OH210766   0.461   2.148   2.667
 3587TIP3    H110767   0.515   2.072   2.685
 3587TIP3    H210768   0.481   2.209   2.739
 3588TIP3   OH210769   1.028   3.708   2.192
 3588TIP3    H110770   1.082   3.765   2.246
 3588TIP3    H210771   0.982   3.651   2.254
 3589TIP3   OH210772   4.041   3.122   1.555
 3589TIP3    H110773   4.133   3.147   1.551
 3589TIP3    H210774   4.035   3.065   1.632
 3590TIP3   OH210775   4.061   1.856   2.477
 3590TIP3    H110776   3.989   1.904   2.517
 3590TIP3    H210777   4.118   1.832   2.550
 3591TIP3   OH210778   5.894   2.746   4.964
 3591TIP3    H110779   5.818   2.700   4.929
 3591TIP3    H210780   5.858   2.809   5.026
 3592TIP3   OH210781   3.782   5.657   0.427
 3592TIP3    H110782   3.836   5.711   0.485
 3592TIP3    H210783   3.717   5.719   0.391
 3593TIP3   OH210784   5.964   3.084   2.729
 3593TIP3    H110785   5.911   3.005   2.714
 3593TIP3    H210786   6.044   3.052   2.770
 3594TIP3   OH210787   2.137   3.305   3.492
 3594TIP3    H110788   2.200   3.241   3.523
 3594TIP3    H210789   2.060   3.292   3.547
 3595TIP3   OH210790   4.790   0.474   4.589
 3595TIP3    H110791   4.752   0.392   4.560
 3595TIP3    H210792   4.733   0.503   4.661
 3596TIP3   OH210793   5.453   4.361   0.076
 3596TIP3    H110794   5.407   4.334   0.155
 3596TIP3    H210795   5.502   4.284   0.049
 3597TIP3   OH210796   0.072   4.403   3.551
 3597TIP3    H110797   0.003   4.380   3.613
 3597TIP3    H210798   0.070   4.333   3.486
 3598TIP3   OH210799   0.948   2.989   5.096
 3598TIP3    H110800   1.012   2.935   5.143
 3598TIP3    H210801   0.997   3.030   5.025
 3599TIP3   OH210802   6.200   4.346   2.465
 3599TIP3    H110803   6.198   4.250   2.472
 3599TIP3    H210804   6.188   4.363   2.372
 3600TIP3   OH210805   6.312   4.989   2.745
 3600TIP3    H110806   6.381   5.016   2.805
 3600TIP3    H210807   6.335   4.901   2.718
 3601TIP3   OH210808   0.476   2.813   1.653
 3601TIP3    H110809   0.474   2.730   1.605
 3601TIP3    H210810   0.389   2.820   1.693
 3602TIP3   OH210811   0.277   5.153   0.812
 3602TIP3    H110812   0.211   5.193   0.868
 3602TIP3    H210813   0.256   5.060   0.814
 3603TIP3   OH210814   6.329   4.247   4.726
 3603TIP3    H110815   6.295   4.180   4.786
 3603TIP3    H210816   6.376   4.308   4.784
 3604TIP3   OH210817   1.125   4.101   2.479
 3604TIP3    H110818   1.182   4.079   2.553
 3604TIP3    H210819   1.120   4.197   2.480
 3605TIP3   OH210820   1.009   5.044   1.909
 3605TIP3    H110821   0.977   5.121   1.955
 3605TIP3    H210822   0.935   4.983   1.909
 3606TIP3   OH210823   5.135   0.246   1.349
 3606TIP3    H110824   5.042   0.262   1.362
 3606TIP3    H210825   5.148   0.253   1.255
 3607TIP3   OH210826   0.700   4.768   2.528
 3607TIP3    H110827   0.611   4.733   2.540
 3607TIP3    H210828   0.751   4.728   2.598
 3608TIP3   OH210829   5.617   0.532   1.117
 3608TIP3    H110830   5.692   0.503   1.169
 3608TIP3    H210831   5.654   0.548   1.030
 3609TIP3   OH210832   1.016   0.122   1.963
 3609TIP3    H110833   0.993   0.197   1.909
 3609TIP3    H210834   1.065   0.065   1.904
 3610TIP3   OH210835   1.921   5.263   1.832
 3610TIP3    H110836   2.001   5.257   1.780
 3610TIP3    H210837   1.861   5.201   1.792
 3611TIP3   OH210838   1.182   1.799   0.185
 3611TIP3    H110839   1.135   1.774   0.264
 3611TIP3    H210840   1.194   1.717   0.136
 3612TIP3   OH210841   2.265   4.297   5.205
 3612TIP3    H110842   2.350   4.336   5.183
 3612TIP3    H210843   2.265   4.213   5.159
 3613TIP3   OH210844   2.296   0.639   5.125
 3613TIP3    H110845   2.245   0.717   5.149
 3613TIP3    H210846   2.248   0.601   5.051
 3614TIP3   OH210847   2.218   5.393   2.972
 3614TIP3    H110848   2.196   5.345   2.892
 3614TIP3    H210849   2.230   5.483   2.944
 3615TIP3   OH210850   4.493   5.218   0.804
 3615TIP3    H110851   4.476   5.312   0.815
 3615TIP3    H210852   4.572   5.215   0.750
 3616TIP3   OH210853   1.168   5.186   3.659
 3616TIP3    H110854   1.233   5.234   3.607
 3616TIP3    H210855   1.134   5.119   3.599
 3617TIP3   OH210856   3.763   5.791   2.054
 3617TIP3    H110857   3.770   5.711   2.107
 3617TIP3    H210858   3.740   5.759   1.967
 3618TIP3   OH210859   5.508   5.944   0.867
 3618TIP3    H110860   5.601   5.922   0.864
 3618TIP3    H210861   5.488   5.981   0.782
 3619TIP3   OH210862   2.714   5.105   2.860
 3619TIP3    H110863   2.724   5.179   2.800
 3619TIP3    H210864   2.646   5.133   2.921
 3620TIP3   OH210865   5.514   1.128   4.633
 3620TIP3    H110866   5.515   1.041   4.672
 3620TIP3    H210867   5.428   1.164   4.655
 3621TIP3   OH210868   1.392   5.337   1.820
 3621TIP3    H110869   1.320   5.286   1.782
 3621TIP3    H210870   1.444   5.364   1.745
 3622TIP3   OH210871   2.056   4.315   1.503
 3622TIP3    H110872   1.979   4.371   1.488
 3622TIP3    H210873   2.079   4.330   1.594
 3623TIP3   OH210874   5.425   0.316   2.498
 3623TIP3    H110875   5.485   0.286   2.430
 3623TIP3    H210876   5.452   0.268   2.577
 3624TIP3   OH210877   3.881   0.674   0.311
 3624TIP3    H110878   3.923   0.630   0.237
 3624TIP3    H210879   3.819   0.735   0.271
 3625TIP3   OH210880   5.049   5.946   2.052
 3625TIP3    H110881   4.986   5.999   2.004
 3625TIP3    H210882   5.128   6.000   2.057
 3626TIP3   OH210883   4.783   0.850   0.254
 3626TIP3    H110884   4.861   0.794   0.248
 3626TIP3    H210885   4.714   0.791   0.286
 3627TIP3   OH210886   1.591   5.925   3.441
 3627TIP3    H110887   1.670   5.958   3.397
 3627TIP3    H210888   1.623   5.853   3.496
 3628TIP3   OH210889   4.266   4.206   0.327
 3628TIP3    H110890   4.358   4.226   0.309
 3628TIP3    H210891   4.225   4.205   0.241
 3629TIP3   OH210892   1.661   0.884   0.268
 3629TIP3    H110893   1.683   0.796   0.298
 3629TIP3    H210894   1.725   0.940   0.312
 3630TIP3   OH210895   1.448   0.284   4.863
 3630TIP3    H110896   1.456   0.376   4.889
 3630TIP3    H210897   1.405   0.286   4.778
 3631TIP3   OH210898   2.433   1.708   3.000
 3631TIP3    H110899   2.448   1.794   2.961
 3631TIP3    H210900   2.521   1.679   3.028
 3632TIP3   OH210901   4.658   0.253   3.730
 3632TIP3    H110902   4.568   0.277   3.750
 3632TIP3    H210903   4.706   0.268   3.812
 3633TIP3   OH210904   1.168   3.870   5.073
 3633TIP3    H110905   1.076   3.867   5.096
 3633TIP3    H210906   1.197   3.779   5.081
 3634TIP3   OH210907   4.643   0.598   1.096
 3634TIP3    H110908   4.704   0.536   1.136
 3634TIP3    H210909   4.697   0.652   1.040
 3635TIP3   OH210910   0.134   0.940   2.486
 3635TIP3    H110911   0.201   0.882   2.448
 3635TIP3    H210912   0.125   1.011   2.423
 3636TIP3   OH210913   3.530   3.953   1.644
 3636TIP3    H110914   3.484   4.035   1.661
 3636TIP3    H210915   3.586   3.940   1.721
 3637TIP3   OH210916   3.977   2.083   0.504
 3637TIP3    H110917   4.015   2.001   0.471
 3637TIP3    H210918   3.966   2.137   0.426
 3638TIP3   OH210919   0.222   4.619   2.615
 3638TIP3    H110920   0.300   4.563   2.624
 3638TIP3    H210921   0.256   4.707   2.628
 3639TIP3   OH210922   4.114   0.551   2.101
 3639TIP3    H110923   4.127   0.587   2.189
 3639TIP3    H210924   4.081   0.462   2.117
 3640TIP3   OH210925   5.635   0.967   2.980
 3640TIP3    H110926   5.559   0.977   2.923
 3640TIP3    H210927   5.648   1.054   3.018
 3641TIP3   OH210928   1.507   1.487   1.196
 3641TIP3    H110929   1.514   1.420   1.264
 3641TIP3    H210930   1.592   1.484   1.152
 3642TIP3   OH210931   0.094   1.245   4.361
 3642TIP3    H110932   0.061   1.324   4.317
 3642TIP3    H210933   0.100   1.180   4.291
 3643TIP3   OH210934   4.351   4.656   4.144
 3643TIP3    H110935   4.420   4.599   4.179
 3643TIP3    H210936   4.398   4.733   4.112
 3644TIP3   OH210937   1.105   3.266   3.041
 3644TIP3    H110938   1.161   3.289   2.967
 3644TIP3    H210939   1.073   3.179   3.020
 3645TIP3   OH210940   1.296   3.818   0.963
 3645TIP3    H110941   1.387   3.791   0.955
 3645TIP3    H210942   1.261   3.764   1.034
 3646TIP3   OH210943   1.370   0.505   3.717
 3646TIP3    H110944   1.404   0.560   3.647
 3646TIP3    H210945   1.395   0.416   3.693
 3647TIP3   OH210946  -0.001   2.375   3.554
 3647TIP3    H110947   0.018   2.344   3.465
 3647TIP3    H210948   0.053   2.319   3.610
 3648TIP3   OH210949   3.703   3.872   3.300
 3648TIP3    H110950   3.693   3.965   3.280
 3648TIP3    H210951   3.702   3.829   3.214
 3649TIP3   OH210952   3.951   2.618   4.455
 3649TIP3    H110953   3.911   2.615   4.368
 3649TIP3    H210954   3.958   2.527   4.482
 3650TIP3   OH210955   4.879   4.296   1.244
 3650TIP3    H110956   4.912   4.210   1.267
 3650TIP3    H210957   4.795   4.302   1.289
 3651TIP3   OH210958   2.279   5.180   4.157
 3651TIP3    H110959   2.357   5.236   4.149
 3651TIP3    H210960   2.312   5.101   4.199
 3652TIP3   OH210961   1.632   1.898   2.480
 3652TIP3    H110962   1.722   1.867   2.481
 3652TIP3    H210963   1.588   1.844   2.545
 3653TIP3   OH210964   6.293   5.589   1.056
 3653TIP3    H110965   6.371   5.555   1.100
 3653TIP3    H210966   6.251   5.644   1.122
 3654TIP3   OH210967   2.220   3.023   4.176
 3654TIP3    H110968   2.161   3.091   4.143
 3654TIP3    H210969   2.296   3.071   4.209
 3655TIP3   OH210970   2.073   4.261   2.800
 3655TIP3    H110971   2.025   4.322   2.856
 3655TIP3    H210972   2.058   4.293   2.711
 3656TIP3   OH210973   6.108   2.191   0.406
 3656TIP3    H110974   6.058   2.220   0.482
 3656TIP3    H210975   6.062   2.229   0.331
 3657TIP3   OH210976   4.311   3.311   2.391
 3657TIP3    H110977   4.301   3.216   2.396
 3657TIP3    H210978   4.381   3.323   2.326
 3658TIP3   OH210979   1.496   2.585   5.074
 3658TIP3    H110980   1.500   2.509   5.133
 3658TIP3    H210981   1.534   2.553   4.993
 3659TIP3   OH210982   6.373   0.593   0.664
 3659TIP3    H110983   6.293   0.588   0.716
 3659TIP3    H210984   6.396   0.502   0.646
 3660TIP3   OH210985   1.353   5.502   4.847
 3660TIP3    H110986   1.268   5.457   4.847
 3660TIP3    H210987   1.383   5.495   4.757
 3661TIP3   OH210988   5.459   3.073   5.087
 3661TIP3    H110989   5.408   2.992   5.075
 3661TIP3    H210990   5.492   3.093   5.000
 3662TIP3   OH210991   1.123   1.150   3.869
 3662TIP3    H110992   1.089   1.085   3.808
 3662TIP3    H210993   1.217   1.134   3.871
 3663TIP3   OH210994   4.757   1.101   3.413
 3663TIP3    H110995   4.823   1.072   3.350
 3663TIP3    H210996   4.807   1.147   3.481
 3664TIP3   OH210997   3.257   3.001   3.253
 3664TIP3    H110998   3.206   2.937   3.203
 3664TIP3    H210999   3.200   3.025   3.326
 3665TIP3   OH211000   4.464   2.614   1.220
 3665TIP3    H111001   4.399   2.667   1.173
 3665TIP3    H211002   4.416   2.579   1.294
 3666TIP3   OH211003   4.067   0.297   0.319
 3666TIP3    H111004   3.992   0.309   0.377
 3666TIP3    H211005   4.139   0.273   0.377
 3667TIP3   OH211006   4.284   4.112   4.542
 3667TIP3    H111007   4.223   4.046   4.574
 3667TIP3    H211008   4.350   4.119   4.611
 3668TIP3   OH211009   5.530   2.101   1.939
 3668TIP3    H111010   5.546   2.187   1.979
 3668TIP3    H211011   5.540   2.117   1.845
 3669TIP3   OH211012   3.812   3.942   0.945
 3669TIP3    H111013   3.890   3.886   0.953
 3669TIP3    H211014   3.789   3.963   1.036
 3670TIP3   OH211015   4.198   5.148   2.045
 3670TIP3    H111016   4.255   5.191   2.110
 3670TIP3    H211017   4.115   5.195   2.051
 3671TIP3   OH211018   4.839   1.805   3.506
 3671TIP3    H111019   4.819   1.884   3.557
 3671TIP3    H211020   4.755   1.777   3.470
 3672TIP3   OH211021   1.887   3.049   2.501
 3672TIP3    H111022   1.867   3.136   2.466
 3672TIP3    H211023   1.980   3.053   2.524
 3673TIP3   OH211024   1.558   4.865   4.957
 3673TIP3    H111025   1.645   4.874   4.917
 3673TIP3    H211026   1.499   4.853   4.883
 3674TIP3   OH211027   3.758   5.159   2.143
 3674TIP3    H111028   3.704   5.104   2.085
 3674TIP3    H211029   3.696   5.222   2.180
 3675TIP3   OH211030   6.256   2.574   3.874
 3675TIP3    H111031   6.218   2.523   3.803
 3675TIP3    H211032   6.350   2.574   3.856
 3676TIP3   OH211033   5.921   2.241   1.790
 3676TIP3    H111034   5.969   2.198   1.861
 3676TIP3    H211035   5.838   2.267   1.829
 3677TIP3   OH211036   5.634   2.993   3.978
 3677TIP3    H111037   5.668   3.082   3.986
 3677TIP3    H211038   5.679   2.957   3.902
 3678TIP3   OH211039   4.082   3.291   0.539
 3678TIP3    H111040   4.116   3.380   0.528
 3678TIP3    H211041   4.116   3.243   0.463
 3679TIP3   OH211042   3.787   1.296   2.676
 3679TIP3    H111043   3.880   1.321   2.680
 3679TIP3    H211044   3.756   1.331   2.593
 3680TIP3   OH211045   3.716   5.534   4.545
 3680TIP3    H111046   3.699   5.446   4.513
 3680TIP3    H211047   3.722   5.588   4.466
 3681TIP3   OH211048   1.899   2.594   3.748
 3681TIP3    H111049   1.977   2.643   3.772
 3681TIP3    H211050   1.904   2.586   3.652
 3682TIP3   OH211051   1.503   2.606   3.367
 3682TIP3    H111052   1.558   2.533   3.336
 3682TIP3    H211053   1.518   2.609   3.461
 3683TIP3   OH211054   1.017   0.728   2.784
 3683TIP3    H111055   1.024   0.723   2.689
 3683TIP3    H211056   0.953   0.661   2.808
 3684TIP3   OH211057   1.261   0.983   1.651
 3684TIP3    H111058   1.313   0.903   1.643
 3684TIP3    H211059   1.171   0.955   1.633
 3685TIP3   OH211060   0.239   3.898   0.586
 3685TIP3    H111061   0.153   3.866   0.558
 3685TIP3    H211062   0.225   3.992   0.600
 3686TIP3   OH211063   4.189   2.796   4.471
 3686TIP3    H111064   4.114   2.736   4.469
 3686TIP3    H211065   4.253   2.752   4.527
 3687TIP3   OH211066   0.950   2.388   4.648
 3687TIP3    H111067   0.897   2.463   4.621
 3687TIP3    H211068   1.025   2.426   4.693
 3688TIP3   OH211069   1.094   5.958   0.927
 3688TIP3    H111070   1.014   5.951   0.875
 3688TIP3    H211071   1.068   6.008   1.004
 3689TIP3   OH211072   0.110   2.401   4.327
 3689TIP3    H111073   0.027   2.388   4.372
 3689TIP3    H211074   0.161   2.322   4.347
 3690TIP3   OH211075   2.009   2.006   1.397
 3690TIP3    H111076   1.969   2.077   1.447
 3690TIP3    H211077   2.076   1.970   1.455
 3691TIP3   OH211078   4.333   4.331   3.697
 3691TIP3    H111079   4.336   4.376   3.782
 3691TIP3    H211080   4.422   4.298   3.685
 3692TIP3   OH211081   5.312   2.737   2.345
 3692TIP3    H111082   5.244   2.760   2.409
 3692TIP3    H211083   5.268   2.742   2.260
 3693TIP3   OH211084   4.893   2.080   1.811
 3693TIP3    H111085   4.933   2.164   1.790
 3693TIP3    H211086   4.865   2.045   1.726
 3694TIP3   OH211087   5.483   5.631   0.719
 3694TIP3    H111088   5.484   5.621   0.814
 3694TIP3    H211089   5.394   5.605   0.694
 3695TIP3   OH211090   2.234   0.368   3.910
 3695TIP3    H111091   2.204   0.456   3.934
 3695TIP3    H211092   2.230   0.318   3.992
 3696TIP3   OH211093   0.218   5.148   0.562
 3696TIP3    H111094   0.278   5.075   0.546
 3696TIP3    H211095   0.229   5.168   0.655
 3697TIP3   OH211096   3.491   3.714   2.735
 3697TIP3    H111097   3.476   3.640   2.794
 3697TIP3    H211098   3.577   3.696   2.697
 3698TIP3   OH211099   2.938   2.884   0.355
 3698TIP3    H111100   2.870   2.949   0.339
 3698TIP3    H211101   2.988   2.880   0.274
 3699TIP3   OH211102   4.650   3.144   3.061
 3699TIP3    H111103   4.630   3.135   3.154
 3699TIP3    H211104   4.584   3.091   3.017
 3700TIP3   OH211105   4.544   5.595   4.989
 3700TIP3    H111106   4.468   5.653   4.979
 3700TIP3    H211107   4.518   5.513   4.946
 3701TIP3   OH211108   4.100   0.588   4.223
 3701TIP3    H111109   4.041   0.661   4.207
 3701TIP3    H211110   4.178   0.608   4.171
 3702TIP3   OH211111   1.252   2.073   2.744
 3702TIP3    H111112   1.203   1.991   2.741
 3702TIP3    H211113   1.235   2.108   2.832
 3703TIP3   OH211114   4.677   3.280   3.940
 3703TIP3    H111115   4.700   3.348   3.877
 3703TIP3    H211116   4.746   3.283   4.006
 3704TIP3   OH211117   0.284   4.876   2.728
 3704TIP3    H111118   0.266   4.955   2.779
 3704TIP3    H211119   0.372   4.851   2.754
 3705TIP3   OH211120   3.385   1.777   3.287
 3705TIP3    H111121   3.349   1.689   3.275
 3705TIP3    H211122   3.473   1.773   3.250
 3706TIP3   OH211123   6.296   2.371   1.935
 3706TIP3    H111124   6.378   2.382   1.982
 3706TIP3    H211125   6.228   2.391   1.999
 3707TIP3   OH211126   3.586   4.622   4.337
 3707TIP3    H111127   3.671   4.585   4.362
 3707TIP3    H211128   3.546   4.647   4.420
 3708TIP3   OH211129   4.610   3.889   4.706
 3708TIP3    H111130   4.603   3.870   4.613
 3708TIP3    H211131   4.704   3.899   4.722
 3709TIP3   OH211132   5.478   2.605   4.487
 3709TIP3    H111133   5.570   2.600   4.463
 3709TIP3    H211134   5.477   2.586   4.581
 3710TIP3   OH211135   3.623   5.061   3.216
 3710TIP3    H111136   3.693   5.029   3.274
 3710TIP3    H211137   3.568   5.115   3.272
 3711TIP3   OH211138   3.319   1.735   2.672
 3711TIP3    H111139   3.386   1.702   2.612
 3711TIP3    H211140   3.238   1.695   2.641
 3712TIP3   OH211141   2.801   2.955   3.251
 3712TIP3    H111142   2.876   2.969   3.193
 3712TIP3    H211143   2.730   2.931   3.192
 3713TIP3   OH211144   4.139   0.476   0.118
 3713TIP3    H111145   4.195   0.413   0.072
 3713TIP3    H211146   4.102   0.427   0.191
 3714TIP3   OH211147   1.603   2.505   0.041
 3714TIP3    H111148   1.623   2.411   0.046
 3714TIP3    H211149   1.659   2.537  -0.029
 3715TIP3   OH211150   0.110   3.228   3.625
 3715TIP3    H111151   0.064   3.203   3.544
 3715TIP3    H211152   0.108   3.323   3.625
 3716TIP3   OH211153   3.274   0.872   0.116
 3716TIP3    H111154   3.211   0.869   0.188
 3716TIP3    H211155   3.316   0.786   0.117
 3717TIP3   OH211156   2.629   1.728   0.183
 3717TIP3    H111157   2.697   1.687   0.237
 3717TIP3    H211158   2.634   1.821   0.205
 3718TIP3   OH211159   2.652   2.168   1.506
 3718TIP3    H111160   2.617   2.249   1.543
 3718TIP3    H211161   2.576   2.124   1.468
 3719TIP3   OH211162   0.908   1.172   1.131
 3719TIP3    H111163   0.871   1.084   1.120
 3719TIP3    H211164   0.965   1.163   1.208
 3720TIP3   OH211165   2.295   2.360   3.627
 3720TIP3    H111166   2.249   2.284   3.663
 3720TIP3    H211167   2.372   2.324   3.585
 3721TIP3   OH211168   0.956   1.225   2.712
 3721TIP3    H111169   0.896   1.265   2.650
 3721TIP3    H211170   0.899   1.182   2.776
 3722TIP3   OH211171   2.023   1.404   3.474
 3722TIP3    H111172   2.090   1.437   3.415
 3722TIP3    H211173   1.970   1.480   3.497
 3723TIP3   OH211174   3.722   2.508   1.649
 3723TIP3    H111175   3.759   2.593   1.626
 3723TIP3    H211176   3.787   2.469   1.707
 3724TIP3   OH211177   2.002   3.738   0.021
 3724TIP3    H111178   2.002   3.740   0.116
 3724TIP3    H211179   2.047   3.657  -0.002
 3725TIP3   OH211180   2.354   3.207   3.708
 3725TIP3    H111181   2.413   3.266   3.660
 3725TIP3    H211182   2.413   3.144   3.751
 3726TIP3   OH211183   2.838   3.119   0.822
 3726TIP3    H111184   2.774   3.083   0.761
 3726TIP3    H211185   2.920   3.121   0.773
 3727TIP3   OH211186   2.945   0.862   0.564
 3727TIP3    H111187   2.935   0.773   0.530
 3727TIP3    H211188   2.856   0.891   0.581
 3728TIP3   OH211189   1.847   2.023   4.934
 3728TIP3    H111190   1.908   1.968   4.984
 3728TIP3    H211191   1.902   2.072   4.874
 3729TIP3   OH211192   1.161   2.074   0.849
 3729TIP3    H111193   1.178   1.985   0.821
 3729TIP3    H211194   1.247   2.110   0.872
 3730TIP3   OH211195   2.232   5.903   0.538
 3730TIP3    H111196   2.142   5.878   0.520
 3730TIP3    H211197   2.227   5.998   0.554
 3731TIP3   OH211198   3.700   5.630   3.760
 3731TIP3    H111199   3.693   5.541   3.795
 3731TIP3    H211200   3.767   5.624   3.693
 3732TIP3   OH211201   0.878   3.729   0.203
 3732TIP3    H111202   0.849   3.644   0.170
 3732TIP3    H211203   0.814   3.751   0.271
 3733TIP3   OH211204   1.241   1.514   1.841
 3733TIP3    H111205   1.209   1.426   1.823
 3733TIP3    H211206   1.331   1.501   1.870
 3734TIP3   OH211207   4.947   4.321   3.375
 3734TIP3    H111208   4.853   4.311   3.388
 3734TIP3    H211209   4.956   4.404   3.328
 3735TIP3   OH211210   6.347   1.149   0.657
 3735TIP3    H111211   6.287   1.223   0.656
 3735TIP3    H211212   6.420   1.176   0.601
 3736TIP3   OH211213   3.860   2.092   2.133
 3736TIP3    H111214   3.917   2.167   2.117
 3736TIP3    H211215   3.847   2.092   2.228
 3737TIP3   OH211216   2.811   5.038   3.497
 3737TIP3    H111217   2.741   5.019   3.560
 3737TIP3    H211218   2.770   5.094   3.432
 3738TIP3   OH211219   6.322   2.880   1.664
 3738TIP3    H111220   6.278   2.829   1.596
 3738TIP3    H211221   6.329   2.821   1.739
 3739TIP3   OH211222   2.764   4.843   2.914
 3739TIP3    H111223   2.752   4.938   2.925
 3739TIP3    H211224   2.773   4.831   2.819
 3740TIP3   OH211225   4.344   0.667   0.080
 3740TIP3    H111226   4.261   0.624   0.101
 3740TIP3    H211227   4.317   0.749   0.037
 3741TIP3   OH211228   5.037   0.723   3.719
 3741TIP3    H111229   5.011   0.661   3.788
 3741TIP3    H211230   5.132   0.711   3.712
 3742TIP3   OH211231   1.510   5.938   2.029
 3742TIP3    H111232   1.533   5.868   1.968
 3742TIP3    H211233   1.415   5.931   2.038
 3743TIP3   OH211234   5.071   0.314   0.266
 3743TIP3    H111235   5.099   0.232   0.306
 3743TIP3    H211236   5.144   0.374   0.277
 3744TIP3   OH211237   5.088   2.459   0.540
 3744TIP3    H111238   5.066   2.443   0.632
 3744TIP3    H211239   5.026   2.528   0.513
 3745TIP3   OH211240   5.838   1.786   2.829
 3745TIP3    H111241   5.802   1.707   2.868
 3745TIP3    H211242   5.887   1.828   2.900
 3746TIP3   OH211243   1.253   5.964   2.108
 3746TIP3    H111244   1.233   5.941   2.198
 3746TIP3    H211245   1.168   5.986   2.069
 3747TIP3   OH211246   0.007   5.870   1.236
 3747TIP3    H111247   0.102   5.867   1.222
 3747TIP3    H211248  -0.008   5.811   1.309
 3748TIP3   OH211249   1.209   2.754   1.375
 3748TIP3    H111250   1.174   2.766   1.287
 3748TIP3    H211251   1.153   2.686   1.414
 3749TIP3   OH211252   1.584   4.198   4.818
 3749TIP3    H111253   1.599   4.144   4.895
 3749TIP3    H211254   1.491   4.223   4.824
 3750TIP3   OH211255   1.003   2.261   0.416
 3750TIP3    H111256   1.043   2.201   0.479
 3750TIP3    H211257   1.076   2.291   0.362
 3751TIP3   OH211258   1.705   2.021   0.820
 3751TIP3    H111259   1.690   1.927   0.809
 3751TIP3    H211260   1.775   2.026   0.885
 3752TIP3   OH211261   2.145   4.151   3.745
 3752TIP3    H111262   2.192   4.227   3.710
 3752TIP3    H211263   2.140   4.091   3.671
 3753TIP3   OH211264   1.239   3.832   1.961
 3753TIP3    H111265   1.174   3.893   1.998
 3753TIP3    H211266   1.201   3.806   1.877
 3754TIP3   OH211267   4.059   1.460   5.093
 3754TIP3    H111268   4.027   1.498   5.012
 3754TIP3    H211269   3.980   1.436   5.141
 3755TIP3   OH211270   0.248   0.736   4.027
 3755TIP3    H111271   0.251   0.806   3.961
 3755TIP3    H211272   0.265   0.656   3.978
 3756TIP3   OH211273   5.038   4.661   3.872
 3756TIP3    H111274   5.091   4.599   3.923
 3756TIP3    H211275   5.087   4.744   3.877
 3757TIP3   OH211276   5.966   5.465   4.979
 3757TIP3    H111277   6.054   5.453   5.015
 3757TIP3    H211278   5.970   5.550   4.935
 3758TIP3   OH211279   1.003   5.857   1.713
 3758TIP3    H111280   0.962   5.775   1.739
 3758TIP3    H211281   1.096   5.844   1.732
 3759TIP3   OH211282   6.156   3.237   5.118
 3759TIP3    H111283   6.171   3.143   5.125
 3759TIP3    H211284   6.229   3.269   5.065
 3760TIP3   OH211285   5.746   3.419   2.033
 3760TIP3    H111286   5.768   3.357   1.963
 3760TIP3    H211287   5.792   3.386   2.110
 3761TIP3   OH211288   1.536   1.551   0.557
 3761TIP3    H111289   1.520   1.522   0.647
 3761TIP3    H211290   1.449   1.572   0.523
 3762TIP3   OH211291   4.035   0.233   2.595
 3762TIP3    H111292   3.973   0.305   2.587
 3762TIP3    H211293   4.120   0.272   2.574
 3763TIP3   OH211294   3.742   5.560   2.211
 3763TIP3    H111295   3.752   5.522   2.298
 3763TIP3    H211296   3.726   5.484   2.153
 3764TIP3   OH211297   5.860   5.214   3.222
 3764TIP3    H111298   5.916   5.184   3.294
 3764TIP3    H211299   5.818   5.135   3.190
 3765TIP3   OH211300   5.175   4.828   4.281
 3765TIP3    H111301   5.264   4.824   4.246
 3765TIP3    H211302   5.185   4.862   4.370
 3766TIP3   OH211303   5.619   2.718   3.125
 3766TIP3    H111304   5.547   2.703   3.065
 3766TIP3    H211305   5.609   2.651   3.193
 3767TIP3   OH211306   0.005   3.209   1.978
 3767TIP3    H111307   0.037   3.296   2.004
 3767TIP3    H211308   0.059   3.148   2.029
 3768TIP3   OH211309   4.371   3.090   0.783
 3768TIP3    H111310   4.390   3.171   0.832
 3768TIP3    H211311   4.370   3.118   0.692
 3769TIP3   OH211312   0.356   0.160   0.183
 3769TIP3    H111313   0.303   0.090   0.221
 3769TIP3    H211314   0.418   0.116   0.126
 3770TIP3   OH211315   5.026   5.960   0.014
 3770TIP3    H111316   5.065   5.919   0.091
 3770TIP3    H211317   5.042   5.899  -0.057
 3771TIP3   OH211318   5.731   2.498   5.218
 3771TIP3    H111319   5.762   2.564   5.280
 3771TIP3    H211320   5.804   2.438   5.208
 3772TIP3   OH211321   5.518   4.922   0.071
 3772TIP3    H111322   5.598   4.886   0.033
 3772TIP3    H211323   5.548   4.976   0.143
 3773TIP3   OH211324   0.795   4.505   1.618
 3773TIP3    H111325   0.777   4.413   1.638
 3773TIP3    H211326   0.883   4.505   1.580
 3774TIP3   OH211327   3.945   3.093   3.936
 3774TIP3    H111328   3.929   3.025   4.002
 3774TIP3    H211329   4.033   3.125   3.955
 3775TIP3   OH211330   2.962   0.298   4.337
 3775TIP3    H111331   2.955   0.216   4.288
 3775TIP3    H211332   2.896   0.355   4.297
 3776TIP3   OH211333   0.508   4.472   2.209
 3776TIP3    H111334   0.415   4.448   2.202
 3776TIP3    H211335   0.527   4.464   2.302
 3777TIP3   OH211336   2.742   4.585   2.993
 3777TIP3    H111337   2.722   4.670   2.954
 3777TIP3    H211338   2.736   4.522   2.921
 3778TIP3   OH211339   4.039   3.000   3.552
 3778TIP3    H111340   4.046   3.069   3.617
 3778TIP3    H211341   4.116   2.945   3.566
 3779TIP3   OH211342   0.588   4.900   1.025
 3779TIP3    H111343   0.574   4.805   1.025
 3779TIP3    H211344   0.572   4.926   1.116
 3780TIP3   OH211345   6.034   1.725   4.627
 3780TIP3    H111346   6.080   1.750   4.547
 3780TIP3    H211347   6.006   1.634   4.612
 3781TIP3   OH211348   1.939   0.285   1.823
 3781TIP3    H111349   1.905   0.243   1.902
 3781TIP3    H211350   2.034   0.270   1.826
 3782TIP3   OH211351   5.449   5.064   1.238
 3782TIP3    H111352   5.394   5.081   1.161
 3782TIP3    H211353   5.538   5.083   1.208
 3783TIP3   OH211354   0.905   0.869   1.126
 3783TIP3    H111355   0.820   0.825   1.133
 3783TIP3    H211356   0.944   0.860   1.214
 3784TIP3   OH211357   5.010   4.895   0.311
 3784TIP3    H111358   5.081   4.928   0.256
 3784TIP3    H211359   4.949   4.855   0.250
 3785TIP3   OH211360   2.668   5.707   0.554
 3785TIP3    H111361   2.608   5.777   0.579
 3785TIP3    H211362   2.657   5.697   0.460
 3786TIP3   OH211363   3.086   2.751   4.850
 3786TIP3    H111364   2.997   2.757   4.883
 3786TIP3    H211365   3.133   2.822   4.894
 3787TIP3   OH211366   5.011   0.278   5.110
 3787TIP3    H111367   5.102   0.273   5.137
 3787TIP3    H211368   4.986   0.187   5.093
 3788TIP3   OH211369   2.896   4.395   0.164
 3788TIP3    H111370   2.863   4.343   0.237
 3788TIP3    H211371   2.847   4.477   0.168
 3789TIP3   OH211372   1.072   1.691   3.981
 3789TIP3    H111373   1.158   1.693   4.024
 3789TIP3    H211374   1.088   1.644   3.898
 3790TIP3   OH211375   3.374   5.511   4.444
 3790TIP3    H111376   3.363   5.416   4.445
 3790TIP3    H211377   3.449   5.525   4.386
 3791TIP3   OH211378   0.827   2.411   0.784
 3791TIP3    H111379   0.885   2.477   0.748
 3791TIP3    H211380   0.770   2.459   0.844
 3792TIP3   OH211381   5.058   4.358   4.654
 3792TIP3    H111382   5.011   4.393   4.729
 3792TIP3    H211383   5.090   4.273   4.683
 3793TIP3   OH211384   4.688   5.270   1.636
 3793TIP3    H111385   4.750   5.209   1.597
 3793TIP3    H211386   4.653   5.223   1.712
 3794TIP3   OH211387   6.290   3.876   1.200
 3794TIP3    H111388   6.345   3.812   1.245
 3794TIP3    H211389   6.318   3.873   1.109
 3795TIP3   OH211390   2.629   2.968   0.399
 3795TIP3    H111391   2.543   3.008   0.387
 3795TIP3    H211392   2.691   3.033   0.366
 3796TIP3   OH211393   2.012   2.478   2.924
 3796TIP3    H111394   2.094   2.527   2.935
 3796TIP3    H211395   2.028   2.422   2.848
 3797TIP3   OH211396   5.123   0.299   2.175
 3797TIP3    H111397   5.200   0.242   2.173
 3797TIP3    H211398   5.128   0.343   2.260
 3798TIP3   OH211399   1.553   5.336   0.415
 3798TIP3    H111400   1.518   5.334   0.326
 3798TIP3    H211401   1.483   5.300   0.469
 3799TIP3   OH211402   6.345   1.666   2.825
 3799TIP3    H111403   6.276   1.731   2.833
 3799TIP3    H211404   6.307   1.597   2.770
 3800TIP3   OH211405   5.631   3.526   3.560
 3800TIP3    H111406   5.607   3.536   3.468
 3800TIP3    H211407   5.559   3.475   3.599
 3801TIP3   OH211408   0.284   3.308   0.232
 3801TIP3    H111409   0.245   3.394   0.249
 3801TIP3    H211410   0.216   3.260   0.185
 3802TIP3   OH211411   4.958   0.542   4.143
 3802TIP3    H111412   4.961   0.467   4.203
 3802TIP3    H211413   5.047   0.549   4.109
 3803TIP3   OH211414   3.619   0.439   3.071
 3803TIP3    H111415   3.583   0.355   3.099
 3803TIP3    H211416   3.542   0.493   3.054
 3804TIP3   OH211417   3.337   2.315   3.123
 3804TIP3    H111418   3.295   2.296   3.039
 3804TIP3    H211419   3.402   2.382   3.102
 3805TIP3   OH211420   3.078   0.507   3.793
 3805TIP3    H111421   3.000   0.453   3.792
 3805TIP3    H211422   3.072   0.558   3.874
 3806TIP3   OH211423   4.226   3.447   1.881
 3806TIP3    H111424   4.139   3.410   1.865
 3806TIP3    H211425   4.285   3.393   1.829
 3807TIP3   OH211426   2.707   3.534   4.421
 3807TIP3    H111427   2.781   3.473   4.413
 3807TIP3    H211428   2.733   3.610   4.370
 3808TIP3   OH211429   2.297   3.829   2.443
 3808TIP3    H111430   2.382   3.849   2.404
 3808TIP3    H211431   2.245   3.909   2.430
 3809TIP3   OH211432   0.007   5.613   0.120
 3809TIP3    H111433   0.074   5.607   0.187
 3809TIP3    H211434  -0.048   5.687   0.148
 3810TIP3   OH211435   4.169   4.883   4.655
 3810TIP3    H111436   4.105   4.852   4.591
 3810TIP3    H211437   4.254   4.866   4.614
 3811TIP3   OH211438  -0.033   2.137   4.776
 3811TIP3    H111439  -0.002   2.214   4.729
 3811TIP3    H211440   0.028   2.068   4.752
 3812TIP3   OH211441   1.234   1.226   1.756
 3812TIP3    H111442   1.239   1.265   1.669
 3812TIP3    H211443   1.253   1.134   1.743
 3813TIP3   OH211444   3.931   4.344   1.576
 3813TIP3    H111445   3.996   4.408   1.604
 3813TIP3    H211446   3.873   4.334   1.651
 3814TIP3   OH211447   2.806   4.403   1.087
 3814TIP3    H111448   2.884   4.456   1.100
 3814TIP3    H211449   2.748   4.458   1.033
 3815TIP3   OH211450   5.707   2.086   2.497
 3815TIP3    H111451   5.703   1.991   2.488
 3815TIP3    H211452   5.756   2.116   2.420
 3816TIP3   OH211453   0.989   2.485   3.809
 3816TIP3    H111454   1.056   2.551   3.790
 3816TIP3    H211455   0.923   2.499   3.741
 3817TIP3   OH211456   3.792   3.845   2.374
 3817TIP3    H111457   3.858   3.904   2.409
 3817TIP3    H211458   3.714   3.899   2.362
 3818TIP3   OH211459   2.855   1.337   0.067
 3818TIP3    H111460   2.883   1.425   0.093
 3818TIP3    H211461   2.914   1.278   0.115
 3819TIP3   OH211462   3.170   5.367   5.096
 3819TIP3    H111463   3.121   5.449   5.090
 3819TIP3    H211464   3.108   5.301   5.065
 3820TIP3   OH211465   5.784   5.021   2.255
 3820TIP3    H111466   5.815   5.111   2.264
 3820TIP3    H211467   5.689   5.028   2.248
 3821TIP3   OH211468   4.543   1.209   0.999
 3821TIP3    H111469   4.481   1.188   0.929
 3821TIP3    H211470   4.628   1.179   0.966
 3822TIP3   OH211471   6.043   4.316   0.270
 3822TIP3    H111472   6.079   4.385   0.326
 3822TIP3    H211473   6.038   4.355   0.183
 3823TIP3   OH211474   4.599   4.508   2.422
 3823TIP3    H111475   4.610   4.426   2.470
 3823TIP3    H211476   4.661   4.503   2.350
 3824TIP3   OH211477   5.206   4.642   1.885
 3824TIP3    H111478   5.198   4.627   1.979
 3824TIP3    H211479   5.116   4.637   1.852
 3825TIP3   OH211480   2.411   5.369   2.552
 3825TIP3    H111481   2.385   5.288   2.596
 3825TIP3    H211482   2.353   5.376   2.477
 3826TIP3   OH211483   5.741   5.031   1.164
 3826TIP3    H111484   5.764   4.992   1.248
 3826TIP3    H211485   5.737   5.125   1.182
 3827TIP3   OH211486   4.031   2.300   2.198
 3827TIP3    H111487   4.047   2.392   2.217
 3827TIP3    H211488   3.980   2.268   2.272
 3828TIP3   OH211489  -0.009   4.248   3.307
 3828TIP3    H111490   0.042   4.294   3.241
 3828TIP3    H211491   0.026   4.160   3.309
 3829TIP3   OH211492   4.892   0.895   2.023
 3829TIP3    H111493   4.944   0.866   1.948
 3829TIP3    H211494   4.898   0.823   2.086
 3830TIP3   OH211495   2.469   1.055   2.606
 3830TIP3    H111496   2.374   1.045   2.607
 3830TIP3    H211497   2.488   1.117   2.676
 3831TIP3   OH211498   5.042   0.476   4.912
 3831TIP3    H111499   5.046   0.395   4.963
 3831TIP3    H211500   5.011   0.542   4.975
 3832TIP3   OH211501   2.977   3.674   0.597
 3832TIP3    H111502   2.928   3.753   0.622
 3832TIP3    H211503   2.911   3.614   0.565
 3833TIP3   OH211504   5.890   0.062   0.442
 3833TIP3    H111505   5.850  -0.024   0.429
 3833TIP3    H211506   5.902   0.097   0.354
 3834TIP3   OH211507   4.867   0.675   4.802
 3834TIP3    H111508   4.914   0.592   4.790
 3834TIP3    H211509   4.775   0.653   4.786
 3835TIP3   OH211510   5.242   2.408   4.652
 3835TIP3    H111511   5.167   2.423   4.709
 3835TIP3    H211512   5.311   2.463   4.688
 3836TIP3   OH211513   5.779   1.709   1.766
 3836TIP3    H111514   5.844   1.640   1.752
 3836TIP3    H211515   5.820   1.788   1.730
 3837TIP3   OH211516   5.688   2.234   4.358
 3837TIP3    H111517   5.606   2.192   4.380
 3837TIP3    H211518   5.746   2.217   4.432
 3838TIP3   OH211519   3.269   1.877   3.063
 3838TIP3    H111520   3.290   1.845   3.151
 3838TIP3    H211521   3.176   1.900   3.067
 3839TIP3   OH211522   3.944   0.279   5.060
 3839TIP3    H111523   3.912   0.201   5.014
 3839TIP3    H211524   4.035   0.259   5.081
 3840TIP3   OH211525   2.082   5.129   3.969
 3840TIP3    H111526   2.114   5.205   3.920
 3840TIP3    H211527   2.107   5.147   4.060
 3841TIP3   OH211528   5.017   3.899   2.587
 3841TIP3    H111529   5.000   3.848   2.666
 3841TIP3    H211530   5.053   3.982   2.619
 3842TIP3   OH211531   4.962   3.849   4.494
 3842TIP3    H111532   5.029   3.917   4.501
 3842TIP3    H211533   4.914   3.855   4.577
 3843TIP3   OH211534   4.449   2.068   1.460
 3843TIP3    H111535   4.464   2.163   1.463
 3843TIP3    H211536   4.522   2.034   1.409
 3844TIP3   OH211537   3.360   1.436   4.131
 3844TIP3    H111538   3.330   1.466   4.046
 3844TIP3    H211539   3.327   1.502   4.193
 3845TIP3   OH211540   4.280   1.068   1.624
 3845TIP3    H111541   4.334   1.136   1.583
 3845TIP3    H211542   4.297   0.989   1.573
 3846TIP3   OH211543   4.233   0.332   0.538
 3846TIP3    H111544   4.225   0.420   0.573
 3846TIP3    H211545   4.324   0.307   0.553
 3847TIP3   OH211546   2.447   4.834   0.295
 3847TIP3    H111547   2.410   4.859   0.211
 3847TIP3    H211548   2.392   4.879   0.360
 3848TIP3   OH211549   0.895   1.658   4.197
 3848TIP3    H111550   0.938   1.600   4.260
 3848TIP3    H211551   0.953   1.656   4.120
 3849TIP3   OH211552   4.123   2.804   1.522
 3849TIP3    H111553   4.196   2.816   1.582
 3849TIP3    H211554   4.148   2.855   1.444
 3850TIP3   OH211555   2.691   1.689   3.118
 3850TIP3    H111556   2.718   1.640   3.195
 3850TIP3    H211557   2.761   1.673   3.054
 3851TIP3   OH211558   0.552   5.467   4.210
 3851TIP3    H111559   0.644   5.443   4.199
 3851TIP3    H211560   0.551   5.563   4.201
 3852TIP3   OH211561   0.152   1.444   1.090
 3852TIP3    H111562   0.127   1.509   1.024
 3852TIP3    H211563   0.087   1.455   1.159
 3853TIP3   OH211564   5.234   3.454   3.389
 3853TIP3    H111565   5.226   3.373   3.338
 3853TIP3    H211566   5.306   3.502   3.348
 3854TIP3   OH211567   1.625   0.559   4.627
 3854TIP3    H111568   1.606   0.621   4.557
 3854TIP3    H211569   1.547   0.562   4.684
 3855TIP3   OH211570   3.542   3.733   0.041
 3855TIP3    H111571   3.632   3.764   0.048
 3855TIP3    H211572   3.532   3.671   0.113
 3856TIP3   OH211573   6.079   5.942   5.024
 3856TIP3    H111574   5.989   5.923   4.996
 3856TIP3    H211575   6.076   5.935   5.120
 3857TIP3   OH211576   2.917   1.648   0.793
 3857TIP3    H111577   2.853   1.709   0.830
 3857TIP3    H211578   2.923   1.578   0.858
 3858TIP3   OH211579   2.066   5.709   2.103
 3858TIP3    H111580   1.992   5.727   2.160
 3858TIP3    H211581   2.036   5.734   2.016
 3859TIP3   OH211582   0.529   3.186   1.191
 3859TIP3    H111583   0.451   3.178   1.136
 3859TIP3    H211584   0.583   3.110   1.167
 3860TIP3   OH211585   4.895   3.648   1.865
 3860TIP3    H111586   4.871   3.610   1.949
 3860TIP3    H211587   4.906   3.572   1.807
 3861TIP3   OH211588   3.043   3.966   4.327
 3861TIP3    H111589   3.113   3.929   4.273
 3861TIP3    H211590   3.026   4.052   4.287
 3862TIP3   OH211591   5.232   2.236   2.654
 3862TIP3    H111592   5.321   2.210   2.629
 3862TIP3    H211593   5.239   2.330   2.674
 3863TIP3   OH211594   2.873   5.412   1.399
 3863TIP3    H111595   2.944   5.471   1.372
 3863TIP3    H211596   2.837   5.379   1.317
 3864TIP3   OH211597   3.730   1.098   0.118
 3864TIP3    H111598   3.671   1.085   0.044
 3864TIP3    H211599   3.685   1.060   0.193
 3865TIP3   OH211600   0.856   0.834   0.143
 3865TIP3    H111601   0.919   0.900   0.112
 3865TIP3    H211602   0.770   0.876   0.133
 3866TIP3   OH211603   0.311   4.342   0.065
 3866TIP3    H111604   0.322   4.370   0.156
 3866TIP3    H211605   0.293   4.248   0.071
 3867TIP3   OH211606   4.518   2.038   4.238
 3867TIP3    H111607   4.574   2.111   4.213
 3867TIP3    H211608   4.526   1.976   4.167
 3868TIP3   OH211609   2.508   2.077   4.021
 3868TIP3    H111610   2.422   2.051   4.054
 3868TIP3    H211611   2.553   1.994   4.003
 3869TIP3   OH211612   1.886   5.881   1.457
 3869TIP3    H111613   1.811   5.935   1.433
 3869TIP3    H211614   1.851   5.792   1.464
 3870TIP3   OH211615   4.955   4.580   4.806
 3870TIP3    H111616   4.974   4.671   4.785
 3870TIP3    H211617   5.020   4.556   4.873
 3871TIP3   OH211618   1.928   4.308   3.870
 3871TIP3    H111619   1.962   4.397   3.860
 3871TIP3    H211620   1.991   4.253   3.823
 3872TIP3   OH211621   3.935   3.370   3.258
 3872TIP3    H111622   3.845   3.364   3.289
 3872TIP3    H211623   3.961   3.460   3.275
 3873TIP3   OH211624   6.101   2.143   3.738
 3873TIP3    H111625   6.087   2.051   3.715
 3873TIP3    H211626   6.180   2.142   3.792
 3874TIP3   OH211627   5.781   4.150   0.511
 3874TIP3    H111628   5.769   4.236   0.551
 3874TIP3    H211629   5.823   4.098   0.579
 3875TIP3   OH211630   3.823   4.959   1.801
 3875TIP3    H111631   3.822   5.050   1.772
 3875TIP3    H211632   3.860   4.910   1.727
 3876TIP3   OH211633   2.231   4.854   0.861
 3876TIP3    H111634   2.319   4.828   0.833
 3876TIP3    H211635   2.223   4.946   0.834
 3877TIP3   OH211636   3.462   2.189   0.687
 3877TIP3    H111637   3.397   2.196   0.756
 3877TIP3    H211638   3.413   2.201   0.606
 3878TIP3   OH211639   5.957   3.309   1.863
 3878TIP3    H111640   5.992   3.383   1.912
 3878TIP3    H211641   5.964   3.336   1.771
 3879TIP3   OH211642   0.455   1.187   1.491
 3879TIP3    H111643   0.415   1.109   1.452
 3879TIP3    H211644   0.458   1.250   1.420
 3880TIP3   OH211645   3.361   2.540   4.055
 3880TIP3    H111646   3.448   2.500   4.060
 3880TIP3    H211647   3.304   2.481   4.104
 3881TIP3   OH211648   3.695   3.378   2.783
 3881TIP3    H111649   3.725   3.407   2.869
 3881TIP3    H211650   3.727   3.444   2.722
 3882TIP3   OH211651   3.291   5.604   4.142
 3882TIP3    H111652   3.296   5.691   4.101
 3882TIP3    H211653   3.375   5.594   4.186
 3883TIP3   OH211654   6.147   2.539   0.706
 3883TIP3    H111655   6.210   2.605   0.737
 3883TIP3    H211656   6.073   2.590   0.673
 3884TIP3   OH211657   1.149   1.922   3.045
 3884TIP3    H111658   1.133   1.889   2.957
 3884TIP3    H211659   1.175   1.845   3.096
 3885TIP3   OH211660   3.258   2.206   4.849
 3885TIP3    H111661   3.208   2.282   4.876
 3885TIP3    H211662   3.220   2.133   4.898
 3886TIP3   OH211663   1.257   4.715   1.842
 3886TIP3    H111664   1.256   4.651   1.914
 3886TIP3    H211665   1.187   4.685   1.784
 3887TIP3   OH211666   5.017   1.524   2.270
 3887TIP3    H111667   5.015   1.536   2.175
 3887TIP3    H211668   4.993   1.609   2.306
 3888TIP3   OH211669   1.869   0.694   5.117
 3888TIP3    H111670   1.840   0.648   5.038
 3888TIP3    H211671   1.941   0.750   5.088
 3889TIP3   OH211672   5.720   0.145   1.983
 3889TIP3    H111673   5.793   0.111   2.035
 3889TIP3    H211674   5.731   0.240   1.986
 3890TIP3   OH211675   1.211   0.270   3.990
 3890TIP3    H111676   1.165   0.350   4.018
 3890TIP3    H211677   1.257   0.240   4.069
 3891TIP3   OH211678   5.110   3.702   4.320
 3891TIP3    H111679   5.054   3.742   4.386
 3891TIP3    H211680   5.061   3.712   4.238
 3892TIP3   OH211681   5.260   5.121   4.319
 3892TIP3    H111682   5.323   5.059   4.282
 3892TIP3    H211683   5.297   5.207   4.301
 3893TIP3   OH211684   0.953   3.533   4.508
 3893TIP3    H111685   0.923   3.451   4.548
 3893TIP3    H211686   1.010   3.572   4.574
 3894TIP3   OH211687   5.719   3.703   2.136
 3894TIP3    H111688   5.733   3.610   2.121
 3894TIP3    H211689   5.742   3.716   2.228
 3895TIP3   OH211690   2.516   1.071   3.755
 3895TIP3    H111691   2.529   1.123   3.676
 3895TIP3    H211692   2.441   1.015   3.735
 3896TIP3   OH211693   0.544   2.240   0.371
 3896TIP3    H111694   0.623   2.201   0.334
 3896TIP3    H211695   0.493   2.166   0.404
 3897TIP3   OH211696   5.904   5.135   0.905
 3897TIP3    H111697   5.952   5.144   0.988
 3897TIP3    H211698   5.875   5.044   0.905
 3898TIP3   OH211699   0.345   2.111   1.302
 3898TIP3    H111700   0.410   2.154   1.357
 3898TIP3    H211701   0.272   2.173   1.298
 3899TIP3   OH211702   0.792   1.801   1.946
 3899TIP3    H111703   0.819   1.720   1.987
 3899TIP3    H211704   0.720   1.833   2.000
 3900TIP3   OH211705   3.712   4.889   4.908
 3900TIP3    H111706   3.760   4.965   4.875
 3900TIP3    H211707   3.749   4.814   4.860
 3901TIP3   OH211708   0.196   1.191   1.011
 3901TIP3    H111709   0.101   1.197   1.002
 3901TIP3    H211710   0.221   1.274   1.051
 3902TIP3   OH211711   3.238   2.149   1.642
 3902TIP3    H111712   3.184   2.139   1.721
 3902TIP3    H211713   3.294   2.072   1.642
 3903TIP3   OH211714   0.855   5.924   2.636
 3903TIP3    H111715   0.838   5.990   2.704
 3903TIP3    H211716   0.776   5.870   2.635
 3904TIP3   OH211717   5.823   0.873   1.385
 3904TIP3    H111718   5.767   0.832   1.451
 3904TIP3    H211719   5.907   0.828   1.394
 3905TIP3   OH211720   3.924   0.190   1.976
 3905TIP3    H111721   3.973   0.255   1.926
 3905TIP3    H211722   3.925   0.224   2.066
 3906TIP3   OH211723   0.866   3.883  -0.017
 3906TIP3    H111724   0.894   3.831   0.058
 3906TIP3    H211725   0.892   3.831  -0.094
 3907TIP3   OH211726   0.657   3.540   3.875
 3907TIP3    H111727   0.742   3.582   3.889
 3907TIP3    H211728   0.611   3.549   3.959
 3908TIP3   OH211729   1.448   5.627   2.548
 3908TIP3    H111730   1.398   5.703   2.577
 3908TIP3    H211731   1.530   5.663   2.515
 3909TIP3   OH211732   2.864   4.249   0.401
 3909TIP3    H111733   2.870   4.292   0.486
 3909TIP3    H211734   2.952   4.213   0.386
 3910TIP3   OH211735   3.540   1.148   4.884
 3910TIP3    H111736   3.635   1.144   4.890
 3910TIP3    H211737   3.513   1.196   4.963
 3911TIP3   OH211738   0.548   4.029   3.752
 3911TIP3    H111739   0.583   4.081   3.679
 3911TIP3    H211740   0.525   4.094   3.818
 3912TIP3   OH211741   1.639   0.983   3.732
 3912TIP3    H111742   1.692   0.960   3.656
 3912TIP3    H211743   1.579   0.909   3.743
 3913TIP3   OH211744   1.200   5.513   4.303
 3913TIP3    H111745   1.150   5.581   4.256
 3913TIP3    H211746   1.194   5.436   4.247
 3914TIP3   OH211747   1.024   1.069   2.448
 3914TIP3    H111748   1.098   1.048   2.390
 3914TIP3    H211749   1.063   1.119   2.519
 3915TIP3   OH211750   5.362   4.834   3.151
 3915TIP3    H111751   5.450   4.869   3.164
 3915TIP3    H211752   5.344   4.849   3.058
 3916TIP3   OH211753   4.404   0.693   3.122
 3916TIP3    H111754   4.409   0.744   3.041
 3916TIP3    H211755   4.433   0.753   3.191
 3917TIP3   OH211756   1.801   0.112   2.831
 3917TIP3    H111757   1.750   0.147   2.758
 3917TIP3    H211758   1.816   0.020   2.807
 3918TIP3   OH211759   5.740   5.532   2.342
 3918TIP3    H111760   5.803   5.460   2.335
 3918TIP3    H211761   5.727   5.561   2.251
 3919TIP3   OH211762   0.013   0.339   4.509
 3919TIP3    H111763   0.105   0.346   4.534
 3919TIP3    H211764  -0.027   0.420   4.541
 3920TIP3   OH211765   2.444   5.866   2.973
 3920TIP3    H111766   2.481   5.802   3.034
 3920TIP3    H211767   2.412   5.937   3.028
 3921TIP3   OH211768   0.172   2.689   3.768
 3921TIP3    H111769   0.169   2.664   3.676
 3921TIP3    H211770   0.253   2.650   3.800
 3922TIP3   OH211771   3.675   4.124   4.171
 3922TIP3    H111772   3.597   4.078   4.202
 3922TIP3    H211773   3.746   4.094   4.228
 3923TIP3   OH211774   2.683   2.595   1.701
 3923TIP3    H111775   2.763   2.550   1.726
 3923TIP3    H211776   2.692   2.683   1.739
 3924TIP3   OH211777   1.786   3.325   3.907
 3924TIP3    H111778   1.795   3.415   3.937
 3924TIP3    H211779   1.860   3.279   3.948
 3925TIP3   OH211780   4.338   5.285   2.232
 3925TIP3    H111781   4.425   5.324   2.241
 3925TIP3    H211782   4.305   5.279   2.321
 3926TIP3   OH211783   0.550   2.805   0.216
 3926TIP3    H111784   0.461   2.780   0.189
 3926TIP3    H211785   0.584   2.729   0.262
 3927TIP3   OH211786   5.417   5.014   3.437
 3927TIP3    H111787   5.508   5.030   3.411
 3927TIP3    H211788   5.365   5.061   3.372
 3928TIP3   OH211789   2.147   0.630   4.010
 3928TIP3    H111790   2.197   0.712   4.004
 3928TIP3    H211791   2.067   0.655   4.057
 3929TIP3   OH211792   6.277   1.914   1.389
 3929TIP3    H111793   6.311   1.844   1.445
 3929TIP3    H211794   6.184   1.920   1.412
 3930TIP3   OH211795   2.886   2.574   2.810
 3930TIP3    H111796   2.895   2.493   2.860
 3930TIP3    H211797   2.878   2.546   2.719
 3931TIP3   OH211798   0.867   4.914   4.988
 3931TIP3    H111799   0.804   4.857   5.032
 3931TIP3    H211800   0.907   4.858   4.921
 3932TIP3   OH211801   4.374   0.773   4.210
 3932TIP3    H111802   4.400   0.726   4.131
 3932TIP3    H211803   4.428   0.852   4.210
 3933TIP3   OH211804   0.469   3.420   0.971
 3933TIP3    H111805   0.445   3.333   1.002
 3933TIP3    H211806   0.415   3.433   0.892
 3934TIP3   OH211807   0.956   3.032   2.036
 3934TIP3    H111808   0.966   3.063   1.946
 3934TIP3    H211809   0.948   3.111   2.088
 3935TIP3   OH211810   5.483   4.324   4.252
 3935TIP3    H111811   5.430   4.271   4.312
 3935TIP3    H211812   5.442   4.411   4.254
 3936TIP3   OH211813   1.093   2.093   1.649
 3936TIP3    H111814   1.015   2.102   1.594
 3936TIP3    H211815   1.060   2.054   1.730
 3937TIP3   OH211816   5.156   3.967   0.145
 3937TIP3    H111817   5.163   3.965   0.050
 3937TIP3    H211818   5.065   3.941   0.163
 3938TIP3   OH211819   4.834   2.649   0.798
 3938TIP3    H111820   4.783   2.666   0.878
 3938TIP3    H211821   4.890   2.575   0.821
 3939TIP3   OH211822   5.040   0.864   2.859
 3939TIP3    H111823   4.970   0.881   2.922
 3939TIP3    H211824   5.073   0.778   2.883
 3940TIP3   OH211825   0.645   0.130   1.930
 3940TIP3    H111826   0.559   0.091   1.915
 3940TIP3    H211827   0.663   0.180   1.850
 3941TIP3   OH211828   4.763   5.867   3.379
 3941TIP3    H111829   4.824   5.810   3.333
 3941TIP3    H211830   4.808   5.952   3.385
 3942TIP3   OH211831   2.409   3.330   0.803
 3942TIP3    H111832   2.463   3.258   0.835
 3942TIP3    H211833   2.467   3.380   0.745
 3943TIP3   OH211834   5.337   3.183   2.411
 3943TIP3    H111835   5.390   3.254   2.376
 3943TIP3    H211836   5.328   3.121   2.339
 3944TIP3   OH211837   2.984   1.183   0.283
 3944TIP3    H111838   2.973   1.098   0.240
 3944TIP3    H211839   2.898   1.201   0.321
 3945TIP3   OH211840   6.164   2.982   0.476
 3945TIP3    H111841   6.192   2.912   0.416
 3945TIP3    H211842   6.069   2.971   0.482
 3946TIP3   OH211843   1.900   4.031   4.002
 3946TIP3    H111844   1.827   4.005   4.058
 3946TIP3    H211845   1.863   4.096   3.943
 3947TIP3   OH211846   2.161   2.426   4.153
 3947TIP3    H111847   2.109   2.456   4.078
 3947TIP3    H211848   2.237   2.484   4.154
 3948TIP3   OH211849   3.301   4.405   2.459
 3948TIP3    H111850   3.339   4.446   2.381
 3948TIP3    H211851   3.258   4.478   2.505
 3949TIP3   OH211852   1.162   2.159   4.037
 3949TIP3    H111853   1.103   2.093   4.000
 3949TIP3    H211854   1.136   2.166   4.129
 3950TIP3   OH211855   5.303   3.659   5.011
 3950TIP3    H111856   5.375   3.680   4.951
 3950TIP3    H211857   5.226   3.653   4.955
 3951TIP3   OH211858   4.097   3.719   1.420
 3951TIP3    H111859   4.010   3.695   1.454
 3951TIP3    H211860   4.106   3.812   1.442
 3952TIP3   OH211861   5.232   2.630   0.862
 3952TIP3    H111862   5.257   2.610   0.952
 3952TIP3    H211863   5.314   2.659   0.821
 3953TIP3   OH211864   3.993   3.732   4.843
 3953TIP3    H111865   4.032   3.645   4.838
 3953TIP3    H211866   4.065   3.790   4.867
 3954TIP3   OH211867   0.442   4.524   2.910
 3954TIP3    H111868   0.515   4.581   2.937
 3954TIP3    H211869   0.367   4.556   2.960
 3955TIP3   OH211870   5.839   0.338   4.549
 3955TIP3    H111871   5.845   0.257   4.498
 3955TIP3    H211872   5.770   0.321   4.613
 3956TIP3   OH211873   4.670   1.550   1.416
 3956TIP3    H111874   4.610   1.533   1.489
 3956TIP3    H211875   4.662   1.473   1.360
 3957TIP3   OH211876   6.255   3.634   0.749
 3957TIP3    H111877   6.175   3.624   0.802
 3957TIP3    H211878   6.315   3.683   0.806
 3958TIP3   OH211879   4.743   4.443   4.533
 3958TIP3    H111880   4.770   4.533   4.513
 3958TIP3    H211881   4.750   4.437   4.628
 3959TIP3   OH211882   0.122   5.031   1.551
 3959TIP3    H111883   0.204   5.051   1.505
 3959TIP3    H211884   0.149   4.979   1.626
 3960TIP3   OH211885   2.363   1.916   0.208
 3960TIP3    H111886   2.313   1.923   0.127
 3960TIP3    H211887   2.352   2.000   0.251
 3961TIP3   OH211888   0.323   5.867   1.375
 3961TIP3    H111889   0.286   5.789   1.417
 3961TIP3    H211890   0.370   5.833   1.300
 3962TIP3   OH211891   3.421   5.301   3.034
 3962TIP3    H111892   3.371   5.258   2.964
 3962TIP3    H211893   3.513   5.288   3.009
 3963TIP3   OH211894   1.475   1.923   4.711
 3963TIP3    H111895   1.441   1.836   4.732
 3963TIP3    H211896   1.396   1.976   4.696
 3964TIP3   OH211897   0.134   3.724   4.158
 3964TIP3    H111898   0.129   3.645   4.103
 3964TIP3    H211899   0.189   3.784   4.108
 3965TIP3   OH211900   0.672   2.542   0.037
 3965TIP3    H111901   0.731   2.595  -0.017
 3965TIP3    H211902   0.716   2.536   0.122
 3966TIP3   OH211903   6.090   0.495   1.454
 3966TIP3    H111904   6.117   0.425   1.514
 3966TIP3    H211905   6.146   0.484   1.377
 3967TIP3   OH211906   5.994   1.432   2.409
 3967TIP3    H111907   6.061   1.500   2.407
 3967TIP3    H211908   5.928   1.461   2.347
 3968TIP3   OH211909   5.245   1.149   0.342
 3968TIP3    H111910   5.288   1.126   0.260
 3968TIP3    H211911   5.292   1.226   0.374
 3969TIP3   OH211912   4.651   4.670   2.196
 3969TIP3    H111913   4.559   4.679   2.219
 3969TIP3    H211914   4.659   4.710   2.109
 3970TIP3   OH211915   4.657   5.406   3.877
 3970TIP3    H111916   4.571   5.365   3.890
 3970TIP3    H211917   4.657   5.481   3.936
 3971TIP3   OH211918   3.939   3.600   0.596
 3971TIP3    H111919   3.887   3.667   0.640
 3971TIP3    H211920   3.984   3.554   0.668
 3972TIP3   OH211921   5.407   2.532   3.283
 3972TIP3    H111922   5.431   2.621   3.260
 3972TIP3    H211923   5.413   2.529   3.379
 3973TIP3   OH211924   0.351   0.765   2.434
 3973TIP3    H111925   0.417   0.779   2.502
 3973TIP3    H211926   0.397   0.781   2.352
 3974TIP3   OH211927   4.329   4.945   4.149
 3974TIP3    H111928   4.236   4.941   4.172
 3974TIP3    H211929   4.334   4.906   4.062
 3975TIP3   OH211930   1.332   3.320   2.841
 3975TIP3    H111931   1.421   3.353   2.854
 3975TIP3    H211932   1.338   3.226   2.858
 3976TIP3   OH211933   4.692   1.211   2.683
 3976TIP3    H111934   4.672   1.255   2.766
 3976TIP3    H211935   4.784   1.188   2.689
 3977TIP3   OH211936   5.163   3.680   2.172
 3977TIP3    H111937   5.092   3.726   2.216
 3977TIP3    H211938   5.228   3.749   2.153
 3978TIP3   OH211939   1.507   4.894   4.027
 3978TIP3    H111940   1.413   4.889   4.041
 3978TIP3    H211941   1.530   4.809   3.988
 3979TIP3   OH211942   1.621   0.738   2.727
 3979TIP3    H111943   1.637   0.736   2.821
 3979TIP3    H211944   1.661   0.820   2.697
 3980TIP3   OH211945   2.354   4.341   2.639
 3980TIP3    H111946   2.260   4.326   2.650
 3980TIP3    H211947   2.392   4.253   2.642
 3981TIP3   OH211948   1.371   4.282   5.180
 3981TIP3    H111949   1.375   4.276   5.275
 3981TIP3    H211950   1.363   4.191   5.150
 3982TIP3   OH211951   3.743   0.770   0.073
 3982TIP3    H111952   3.836   0.760   0.053
 3982TIP3    H211953   3.699   0.702   0.021
 3983TIP3   OH211954   2.062   1.984   3.886
 3983TIP3    H111955   2.037   1.904   3.840
 3983TIP3    H211956   2.124   1.956   3.953
 3984TIP3   OH211957   0.184   1.989   3.323
 3984TIP3    H111958   0.200   2.027   3.237
 3984TIP3    H211959   0.201   1.896   3.313
 3985TIP3   OH211960   5.289   0.476   5.158
 3985TIP3    H111961   5.244   0.561   5.167
 3985TIP3    H211962   5.348   0.489   5.084
 3986TIP3   OH211963   5.793   3.057   1.889
 3986TIP3    H111964   5.873   3.102   1.859
 3986TIP3    H211965   5.810   3.037   1.981
 3987TIP3   OH211966   4.280   5.015   2.521
 3987TIP3    H111967   4.353   5.077   2.522
 3987TIP3    H211968   4.320   4.932   2.494
 3988TIP3   OH211969   4.864   1.721   1.603
 3988TIP3    H111970   4.827   1.803   1.570
 3988TIP3    H211971   4.802   1.692   1.670
 3989TIP3   OH211972   1.303   5.750   0.078
 3989TIP3    H111973   1.269   5.808   0.146
 3989TIP3    H211974   1.234   5.749   0.010
 3990TIP3   OH211975   4.006   2.293   3.139
 3990TIP3    H111976   4.070   2.226   3.117
 3990TIP3    H211977   3.942   2.288   3.067
 3991TIP3   OH211978   3.828   5.310   1.365
 3991TIP3    H111979   3.915   5.330   1.401
 3991TIP3    H211980   3.774   5.385   1.390
 3992TIP3   OH211981   4.370   5.791   4.907
 3992TIP3    H111982   4.295   5.774   4.849
 3992TIP3    H211983   4.332   5.837   4.982
 3993TIP3   OH211984   5.191   1.104   3.058
 3993TIP3    H111985   5.199   1.130   3.150
 3993TIP3    H211986   5.169   1.011   3.061
 3994TIP3   OH211987   5.588   3.266   0.219
 3994TIP3    H111988   5.520   3.263   0.287
 3994TIP3    H211989   5.667   3.296   0.265
 3995TIP3   OH211990   5.947   2.464   3.452
 3995TIP3    H111991   6.008   2.446   3.523
 3995TIP3    H211992   5.977   2.409   3.380
 3996TIP3   OH211993   5.530   2.095   0.579
 3996TIP3    H111994   5.464   2.031   0.608
 3996TIP3    H211995   5.491   2.135   0.501
 3997TIP3   OH211996   3.319   5.154   5.154
 3997TIP3    H111997   3.270   5.233   5.133
 3997TIP3    H211998   3.253   5.089   5.175
 3998TIP3   OH211999   1.763   2.338   3.519
 3998TIP3    H112000   1.801   2.415   3.562
 3998TIP3    H212001   1.735   2.370   3.433
 3999TIP3   OH212002   2.136   0.283   2.155
 3999TIP3    H112003   2.131   0.365   2.204
 3999TIP3    H212004   2.171   0.308   2.069
 4000TIP3   OH212005   3.434   5.617   2.146
 4000TIP3    H112006   3.529   5.626   2.152
 4000TIP3    H212007   3.408   5.681   2.080
 4001TIP3   OH212008   4.416   0.908   0.692
 4001TIP3    H112009   4.434   0.818   0.663
 4001TIP3    H212010   4.357   0.897   0.767
 4002TIP3   OH212011   4.412   0.460   4.653
 4002TIP3    H112012   4.393   0.368   4.668
 4002TIP3    H212013   4.342   0.507   4.697
 4003TIP3   OH212014   2.513   1.399   4.637
 4003TIP3    H112015   2.598   1.428   4.670
 4003TIP3    H212016   2.467   1.479   4.616
 4004TIP3   OH212017   0.433   1.749   5.052
 4004TIP3    H112018   0.509   1.737   4.995
 4004TIP3    H212019   0.467   1.731   5.140
 4005TIP3   OH212020   4.115   1.347   3.597
 4005TIP3    H112021   4.062   1.413   3.553
 4005TIP3    H212022   4.057   1.309   3.663
 4006TIP3   OH212023   4.011   5.443   1.498
 4006TIP3    H112024   3.986   5.517   1.554
 4006TIP3    H212025   4.094   5.470   1.457
 4007TIP3   OH212026   5.076   2.891   3.291
 4007TIP3    H112027   5.139   2.918   3.224
 4007TIP3    H212028   5.080   2.960   3.357
 4008TIP3   OH212029   1.289   4.053   2.692
 4008TIP3    H112030   1.365   3.995   2.692
 4008TIP3    H212031   1.263   4.059   2.784
 4009TIP3   OH212032   3.161   0.764   3.558
 4009TIP3    H112033   3.163   0.822   3.483
 4009TIP3    H212034   3.089   0.703   3.539
 4010TIP3   OH212035   2.787   0.089   3.546
 4010TIP3    H112036   2.844   0.013   3.546
 4010TIP3    H212037   2.805   0.133   3.463
 4011TIP3   OH212038   3.530   5.465   1.291
 4011TIP3    H112039   3.603   5.492   1.235
 4011TIP3    H212040   3.532   5.370   1.288
 4012TIP3   OH212041   4.546   2.109   2.847
 4012TIP3    H112042   4.510   2.090   2.760
 4012TIP3    H212043   4.470   2.105   2.905
 4013TIP3   OH212044   0.035   1.137   3.900
 4013TIP3    H112045   0.048   1.230   3.921
 4013TIP3    H212046   0.066   1.129   3.810
 4014TIP3   OH212047   0.032   1.626   4.062
 4014TIP3    H112048   0.022   1.715   4.030
 4014TIP3    H212049  -0.040   1.577   4.022
 4015TIP3   OH212050   2.825   0.745   1.239
 4015TIP3    H112051   2.792   0.835   1.243
 4015TIP3    H212052   2.883   0.744   1.163
 4016TIP3   OH212053   4.333   1.704   1.707
 4016TIP3    H112054   4.269   1.756   1.756
 4016TIP3    H212055   4.348   1.753   1.627
 4017TIP3   OH212056   3.354   4.169   4.175
 4017TIP3    H112057   3.333   4.261   4.158
 4017TIP3    H212058   3.375   4.165   4.269
 4018TIP3   OH212059   5.672   5.402   1.753
 4018TIP3    H112060   5.659   5.491   1.786
 4018TIP3    H212061   5.589   5.379   1.712
 4019TIP3   OH212062   5.865   3.864   2.372
 4019TIP3    H112063   5.904   3.810   2.440
 4019TIP3    H212064   5.894   3.824   2.290
 4020TIP3   OH212065   5.151   3.611   3.151
 4020TIP3    H112066   5.073   3.556   3.141
 4020TIP3    H212067   5.116   3.697   3.175
 4021TIP3   OH212068   1.349   5.125   4.549
 4021TIP3    H112069   1.435   5.083   4.554
 4021TIP3    H212070   1.324   5.140   4.641
 4022TIP3   OH212071   0.796   3.210   2.175
 4022TIP3    H112072   0.721   3.255   2.215
 4022TIP3    H212073   0.796   3.241   2.084
 4023TIP3   OH212074   5.776   0.177   3.612
 4023TIP3    H112075   5.687   0.213   3.611
 4023TIP3    H212076   5.825   0.236   3.670
 4024TIP3   OH212077   6.128   1.334   3.748
 4024TIP3    H112078   6.166   1.266   3.804
 4024TIP3    H212079   6.036   1.310   3.740
 4025TIP3   OH212080   3.478   5.661   2.820
 4025TIP3    H112081   3.409   5.595   2.818
 4025TIP3    H212082   3.433   5.742   2.844
 4026TIP3   OH212083   2.354   0.140   1.435
 4026TIP3    H112084   2.362   0.046   1.454
 4026TIP3    H212085   2.305   0.144   1.353
 4027TIP3   OH212086   4.020   4.862   5.171
 4027TIP3    H112087   3.926   4.844   5.172
 4027TIP3    H212088   4.044   4.857   5.078
 4028TIP3   OH212089   1.813   2.767   3.288
 4028TIP3    H112090   1.810   2.695   3.225
 4028TIP3    H212091   1.796   2.846   3.236
 4029TIP3   OH212092   3.794   1.160   4.970
 4029TIP3    H112093   3.813   1.204   5.053
 4029TIP3    H212094   3.876   1.162   4.922
 4030TIP3   OH212095   2.667   5.421   1.178
 4030TIP3    H112096   2.598   5.482   1.203
 4030TIP3    H212097   2.636   5.336   1.208
 4031TIP3   OH212098   0.021   5.655   1.785
 4031TIP3    H112099   0.089   5.680   1.846
 4031TIP3    H212100  -0.060   5.691   1.822
 4032TIP3   OH212101   3.496   0.069   3.347
 4032TIP3    H112102   3.471   0.141   3.405
 4032TIP3    H212103   3.570   0.027   3.390
 4033TIP3   OH212104   2.523   0.304   1.109
 4033TIP3    H112105   2.439   0.268   1.079
 4033TIP3    H212106   2.516   0.398   1.094
 4034TIP3   OH212107   4.996   5.656   4.099
 4034TIP3    H112108   5.024   5.654   4.191
 4034TIP3    H212109   4.921   5.597   4.096
 4035TIP3   OH212110   1.350   5.465   0.814
 4035TIP3    H112111   1.294   5.542   0.803
 4035TIP3    H212112   1.385   5.473   0.902
 4036TIP3   OH212113   5.590   4.252   4.911
 4036TIP3    H112114   5.649   4.237   4.837
 4036TIP3    H212115   5.644   4.238   4.988
 4037TIP3   OH212116   0.440   4.325   3.881
 4037TIP3    H112117   0.477   4.309   3.794
 4037TIP3    H212118   0.367   4.385   3.866
 4038TIP3   OH212119   6.292   0.986   1.317
 4038TIP3    H112120   6.233   0.920   1.281
 4038TIP3    H212121   6.362   0.935   1.357
 4039TIP3   OH212122   2.761   4.424   4.318
 4039TIP3    H112123   2.765   4.418   4.414
 4039TIP3    H212124   2.850   4.451   4.293
 4040TIP3   OH212125   2.767   1.125   3.043
 4040TIP3    H112126   2.839   1.095   3.098
 4040TIP3    H212127   2.791   1.214   3.017
 4041TIP3   OH212128   2.571   4.860   1.701
 4041TIP3    H112129   2.547   4.904   1.619
 4041TIP3    H212130   2.613   4.928   1.753
 4042TIP3   OH212131   0.143   0.183   0.855
 4042TIP3    H112132   0.132   0.265   0.904
 4042TIP3    H212133   0.055   0.161   0.825
 4043TIP3   OH212134   6.237   4.106   3.591
 4043TIP3    H112135   6.277   4.031   3.636
 4043TIP3    H212136   6.309   4.145   3.542
 4044TIP3   OH212137   4.472   2.481   2.704
 4044TIP3    H112138   4.395   2.521   2.743
 4044TIP3    H212139   4.495   2.409   2.762
 4045TIP3   OH212140   1.749   0.901   4.735
 4045TIP3    H112141   1.672   0.894   4.679
 4045TIP3    H212142   1.820   0.927   4.676
 4046TIP3   OH212143   2.237   1.026   4.250
 4046TIP3    H112144   2.252   1.117   4.273
 4046TIP3    H212145   2.297   0.977   4.307
 4047TIP3   OH212146   0.288   2.755   0.036
 4047TIP3    H112147   0.324   2.685  -0.018
 4047TIP3    H212148   0.216   2.791  -0.017
 4048TIP3   OH212149   3.209   1.281   4.307
 4048TIP3    H112150   3.254   1.197   4.294
 4048TIP3    H212151   3.261   1.344   4.256
 4049TIP3   OH212152   2.468   4.249   4.488
 4049TIP3    H112153   2.382   4.269   4.524
 4049TIP3    H212154   2.526   4.245   4.563
 4050TIP3   OH212155   0.996   5.340   4.706
 4050TIP3    H112156   0.954   5.412   4.754
 4050TIP3    H212157   0.939   5.265   4.720
 4051TIP3   OH212158   2.654   1.774   0.956
 4051TIP3    H112159   2.620   1.741   0.873
 4051TIP3    H212160   2.678   1.695   1.005
 4052TIP3   OH212161   6.272   0.678   3.299
 4052TIP3    H112162   6.178   0.695   3.308
 4052TIP3    H212163   6.286   0.666   3.205
 4053TIP3   OH212164   3.873   0.007   4.417
 4053TIP3    H112165   3.818   0.005   4.339
 4053TIP3    H212166   3.914   0.094   4.415
 4054TIP3   OH212167   2.225   5.669   2.944
 4054TIP3    H112168   2.134   5.698   2.933
 4054TIP3    H212169   2.277   5.750   2.936
 4055TIP3   OH212170   0.520   0.264   0.693
 4055TIP3    H112171   0.503   0.170   0.693
 4055TIP3    H212172   0.435   0.304   0.714
 4056TIP3   OH212173   4.031   3.199   0.974
 4056TIP3    H112174   3.952   3.150   0.949
 4056TIP3    H212175   4.038   3.268   0.908
 4057TIP3   OH212176   0.210   2.742   5.079
 4057TIP3    H112177   0.140   2.744   5.144
 4057TIP3    H212178   0.184   2.674   5.017
 4058TIP3   OH212179   3.572   3.042   1.893
 4058TIP3    H112180   3.603   3.053   1.803
 4058TIP3    H212181   3.561   2.948   1.903
 4059TIP3   OH212182   1.600   3.085   4.575
 4059TIP3    H112183   1.587   3.001   4.532
 4059TIP3    H212184   1.694   3.090   4.592
 4060TIP3   OH212185   4.611   4.200   3.297
 4060TIP3    H112186   4.578   4.289   3.304
 4060TIP3    H212187   4.543   4.152   3.251
 4061TIP3   OH212188   0.756   2.931   2.577
 4061TIP3    H112189   0.670   2.942   2.535
 4061TIP3    H212190   0.777   3.018   2.610
 4062TIP3   OH212191   1.034   3.985   0.654
 4062TIP3    H112192   1.098   3.958   0.719
 4062TIP3    H212193   0.977   3.909   0.643
 4063TIP3   OH212194   3.745   1.927   3.192
 4063TIP3    H112195   3.695   1.849   3.168
 4063TIP3    H212196   3.779   1.960   3.109
 4064TIP3   OH212197   4.225   4.989   3.107
 4064TIP3    H112198   4.286   4.917   3.090
 4064TIP3    H212199   4.282   5.062   3.133
 4065TIP3   OH212200   6.307   1.680   0.975
 4065TIP3    H112201   6.386   1.688   0.921
 4065TIP3    H212202   6.296   1.767   1.013
 4066TIP3   OH212203   1.417   2.311   3.755
 4066TIP3    H112204   1.349   2.331   3.819
 4066TIP3    H212205   1.384   2.348   3.673
 4067TIP3   OH212206   1.276   4.330   4.576
 4067TIP3    H112207   1.330   4.330   4.655
 4067TIP3    H212208   1.189   4.358   4.607
 4068TIP3   OH212209   0.727   2.554   1.711
 4068TIP3    H112210   0.687   2.523   1.630
 4068TIP3    H212211   0.655   2.591   1.761
 4069TIP3   OH212212   3.339   3.623   1.786
 4069TIP3    H112213   3.308   3.713   1.791
 4069TIP3    H212214   3.341   3.593   1.877
 4070TIP3   OH212215   2.462   2.404   0.625
 4070TIP3    H112216   2.397   2.423   0.557
 4070TIP3    H212217   2.544   2.438   0.591
 4071TIP3   OH212218   4.808   4.001   3.351
 4071TIP3    H112219   4.877   4.035   3.294
 4071TIP3    H212220   4.731   4.053   3.331
 4072TIP3   OH212221   4.701   3.405   3.663
 4072TIP3    H112222   4.614   3.446   3.655
 4072TIP3    H212223   4.703   3.341   3.591
 4073TIP3   OH212224   4.244   4.053   2.838
 4073TIP3    H112225   4.250   3.974   2.892
 4073TIP3    H212226   4.317   4.107   2.867
 4074TIP3   OH212227   4.863   0.240   1.401
 4074TIP3    H112228   4.850   0.325   1.443
 4074TIP3    H212229   4.786   0.189   1.426
 4075TIP3   OH212230   3.508   3.695   1.249
 4075TIP3    H112231   3.462   3.729   1.326
 4075TIP3    H212232   3.461   3.734   1.175
 4076TIP3   OH212233   5.188   1.330   5.116
 4076TIP3    H112234   5.152   1.402   5.167
 4076TIP3    H212235   5.194   1.257   5.178
 4077TIP3   OH212236   3.589   5.812   0.701
 4077TIP3    H112237   3.598   5.884   0.763
 4077TIP3    H212238   3.505   5.827   0.658
 4078TIP3   OH212239   4.378   2.650   2.262
 4078TIP3    H112240   4.378   2.678   2.354
 4078TIP3    H212241   4.290   2.614   2.249
 4079TIP3   OH212242   3.700   0.268   0.365
 4079TIP3    H112243   3.751   0.297   0.441
 4079TIP3    H212244   3.655   0.347   0.335
 4080TIP3   OH212245   2.397   4.423   2.150
 4080TIP3    H112246   2.485   4.453   2.171
 4080TIP3    H212247   2.408   4.370   2.071
 4081TIP3   OH212248   0.924   5.716   1.056
 4081TIP3    H112249   0.895   5.788   0.999
 4081TIP3    H212250   0.861   5.646   1.040
 4082TIP3   OH212251   3.953   2.726   4.897
 4082TIP3    H112252   3.888   2.795   4.901
 4082TIP3    H212253   4.022   2.753   4.957
 4083TIP3   OH212254   1.835   2.665   1.854
 4083TIP3    H112255   1.753   2.615   1.859
 4083TIP3    H212256   1.849   2.696   1.943
 4084TIP3   OH212257   3.832   3.488   3.843
 4084TIP3    H112258   3.797   3.414   3.894
 4084TIP3    H212259   3.924   3.466   3.829
 4085TIP3   OH212260   0.453   5.141   4.355
 4085TIP3    H112261   0.544   5.133   4.327
 4085TIP3    H212262   0.421   5.051   4.360
 4086TIP3   OH212263   5.163   5.595   4.787
 4086TIP3    H112264   5.081   5.628   4.825
 4086TIP3    H212265   5.178   5.651   4.711
 4087TIP3   OH212266   3.324   3.610   0.339
 4087TIP3    H112267   3.392   3.627   0.403
 4087TIP3    H212268   3.278   3.694   0.329
 4088TIP3   OH212269   0.588   2.256   1.360
 4088TIP3    H112270   0.628   2.187   1.307
 4088TIP3    H212271   0.609   2.233   1.450
 4089TIP3   OH212272   4.009   2.987   2.278
 4089TIP3    H112273   4.090   2.973   2.229
 4089TIP3    H212274   3.962   3.053   2.227
 4090TIP3   OH212275   1.159   0.690   0.497
 4090TIP3    H112276   1.161   0.785   0.486
 4090TIP3    H212277   1.233   0.670   0.553
 4091TIP3   OH212278   2.062   4.691   1.778
 4091TIP3    H112279   2.087   4.722   1.691
 4091TIP3    H212280   2.013   4.611   1.762
 4092TIP3   OH212281   5.938   4.561   0.087
 4092TIP3    H112282   5.859   4.532   0.130
 4092TIP3    H212283   5.921   4.653   0.063
 4093TIP3   OH212284   3.132   1.038   3.089
 4093TIP3    H112285   3.106   1.070   3.003
 4093TIP3    H212286   3.206   0.980   3.072
 4094TIP3   OH212287   3.566   2.714   5.058
 4094TIP3    H112288   3.621   2.648   5.101
 4094TIP3    H212289   3.541   2.773   5.129
 4095TIP3   OH212290   1.172   2.795   4.768
 4095TIP3    H112291   1.226   2.848   4.825
 4095TIP3    H212292   1.231   2.766   4.698
 4096TIP3   OH212293   4.923   2.907   2.261
 4096TIP3    H112294   4.928   2.858   2.342
 4096TIP3    H212295   4.880   2.990   2.285
 4097TIP3   OH212296   2.488   2.093   1.810
 4097TIP3    H112297   2.472   2.159   1.743
 4097TIP3    H212298   2.521   2.143   1.885
 4098TIP3   OH212299   1.303   3.756   0.321
 4098TIP3    H112300   1.245   3.691   0.360
 4098TIP3    H212301   1.375   3.705   0.283
 4099TIP3   OH212302   5.081   5.532   2.390
 4099TIP3    H112303   5.033   5.600   2.343
 4099TIP3    H212304   5.141   5.497   2.325
 4100TIP3   OH212305   1.779   3.377   1.462
 4100TIP3    H112306   1.858   3.387   1.515
 4100TIP3    H212307   1.730   3.307   1.505
 4101TIP3   OH212308   2.597   1.637   0.732
 4101TIP3    H112309   2.632   1.670   0.649
 4101TIP3    H212310   2.649   1.559   0.750
 4102TIP3   OH212311   0.306   1.359   0.679
 4102TIP3    H112312   0.319   1.392   0.768
 4102TIP3    H212313   0.388   1.315   0.657
 4103TIP3   OH212314   0.983   3.017   0.535
 4103TIP3    H112315   1.001   2.927   0.508
 4103TIP3    H212316   0.932   3.054   0.463
 4104TIP3   OH212317   3.475   4.488   1.643
 4104TIP3    H112318   3.405   4.520   1.699
 4104TIP3    H212319   3.451   4.397   1.623
 4105TIP3   OH212320   1.492   5.738   0.266
 4105TIP3    H112321   1.550   5.814   0.263
 4105TIP3    H212322   1.444   5.740   0.184
 4106TIP3   OH212323   0.108   2.777   0.477
 4106TIP3    H112324   0.029   2.770   0.423
 4106TIP3    H212325   0.166   2.833   0.426
 4107TIP3   OH212326   1.403   0.374   2.002
 4107TIP3    H112327   1.366   0.337   2.081
 4107TIP3    H212328   1.484   0.325   1.988
 4108TIP3   OH212329   6.249   4.079   2.517
 4108TIP3    H112330   6.318   4.070   2.451
 4108TIP3    H212331   6.220   3.989   2.533
 4109TIP3   OH212332   2.778   0.851   2.003
 4109TIP3    H112333   2.730   0.773   2.031
 4109TIP3    H212334   2.804   0.893   2.085
 4110TIP3   OH212335   5.550   6.044   3.762
 4110TIP3    H112336   5.531   5.956   3.731
 4110TIP3    H212337   5.511   6.048   3.850
 4111TIP3   OH212338   0.902   0.089   4.138
 4111TIP3    H112339   0.820   0.042   4.122
 4111TIP3    H212340   0.880   0.153   4.206
 4112TIP3   OH212341   2.203   1.170   1.708
 4112TIP3    H112342   2.191   1.147   1.801
 4112TIP3    H212343   2.205   1.086   1.662
 4113TIP3   OH212344   0.110   0.876   2.063
 4113TIP3    H112345   0.159   0.793   2.057
 4113TIP3    H212346   0.175   0.940   2.093
 4114TIP3   OH212347   5.621   4.573   3.571
 4114TIP3    H112348   5.627   4.497   3.513
 4114TIP3    H212349   5.650   4.541   3.656
 4115TIP3   OH212350   3.114   5.077   4.624
 4115TIP3    H112351   3.019   5.090   4.632
 4115TIP3    H212352   3.126   5.036   4.539
 4116TIP3   OH212353   2.415   3.265   2.143
 4116TIP3    H112354   2.408   3.195   2.208
 4116TIP3    H212355   2.359   3.237   2.071
 4117TIP3   OH212356   4.772   2.372   3.528
 4117TIP3    H112357   4.729   2.457   3.525
 4117TIP3    H212358   4.863   2.390   3.505
 4118TIP3   OH212359   1.592   0.867   2.360
 4118TIP3    H112360   1.579   0.943   2.417
 4118TIP3    H212361   1.647   0.899   2.289
 4119TIP3   OH212362   0.557   5.304   3.789
 4119TIP3    H112363   0.508   5.293   3.870
 4119TIP3    H212364   0.513   5.246   3.727
 4120TIP3   OH212365   4.290   1.340   1.070
 4120TIP3    H112366   4.384   1.327   1.060
 4120TIP3    H212367   4.259   1.362   0.982
 4121TIP3   OH212368   5.056   0.538   4.486
 4121TIP3    H112369   4.964   0.536   4.514
 4121TIP3    H212370   5.064   0.464   4.426
 4122TIP3   OH212371   4.249   1.508   4.668
 4122TIP3    H112372   4.218   1.501   4.577
 4122TIP3    H212373   4.312   1.437   4.677
 4123TIP3   OH212374   3.100   0.146   0.114
 4123TIP3    H112375   3.115   0.214   0.049
 4123TIP3    H212376   3.156   0.074   0.086
 4124TIP3   OH212377   2.088   0.606   3.480
 4124TIP3    H112378   2.149   0.671   3.446
 4124TIP3    H212379   2.064   0.638   3.567
 4125TIP3   OH212380   4.758   3.249   4.418
 4125TIP3    H112381   4.810   3.278   4.493
 4125TIP3    H212382   4.681   3.208   4.456
 4126TIP3   OH212383   0.155   2.687   1.153
 4126TIP3    H112384   0.231   2.648   1.110
 4126TIP3    H212385   0.163   2.780   1.135
 4127TIP3   OH212386   4.072   1.003   3.639
 4127TIP3    H112387   4.167   1.014   3.641
 4127TIP3    H212388   4.059   0.908   3.632
 4128TIP3   OH212389   5.147   3.989   1.970
 4128TIP3    H112390   5.085   4.018   1.903
 4128TIP3    H212391   5.224   4.043   1.957
 4129TIP3   OH212392   3.136   5.684   4.455
 4129TIP3    H112393   3.124   5.709   4.547
 4129TIP3    H212394   3.218   5.635   4.454
 4130TIP3   OH212395   1.009   3.143   2.334
 4130TIP3    H112396   1.004   3.206   2.406
 4130TIP3    H212397   0.930   3.160   2.282
 4131TIP3   OH212398   4.052   1.987   0.851
 4131TIP3    H112399   3.978   1.927   0.838
 4131TIP3    H212400   4.020   2.071   0.820
 4132TIP3   OH212401   0.691   1.832   0.505
 4132TIP3    H112402   0.671   1.924   0.523
 4132TIP3    H212403   0.775   1.817   0.547
 4133TIP3   OH212404   4.219   1.774   0.907
 4133TIP3    H112405   4.164   1.696   0.909
 4133TIP3    H212406   4.163   1.843   0.872
 4134TIP3   OH212407   5.758   3.861   1.459
 4134TIP3    H112408   5.728   3.882   1.547
 4134TIP3    H212409   5.849   3.890   1.457
 4135TIP3   OH212410   6.036   1.096   4.909
 4135TIP3    H112411   5.956   1.046   4.920
 4135TIP3    H212412   6.104   1.043   4.951
 4136TIP3   OH212413   0.280   1.797   4.274
 4136TIP3    H112414   0.208   1.779   4.334
 4136TIP3    H212415   0.342   1.725   4.289
 4137TIP3   OH212416   3.474   3.161   2.968
 4137TIP3    H112417   3.416   3.196   3.035
 4137TIP3    H212418   3.419   3.150   2.891
 4138TIP3   OH212419   1.916   0.422   0.644
 4138TIP3    H112420   1.939   0.365   0.718
 4138TIP3    H212421   1.821   0.419   0.640
 4139TIP3   OH212422   4.535   3.025   2.710
 4139TIP3    H112423   4.544   3.120   2.715
 4139TIP3    H212424   4.611   2.996   2.659
 4140TIP3   OH212425   4.981   2.781   1.780
 4140TIP3    H112426   5.022   2.867   1.769
 4140TIP3    H212427   4.925   2.791   1.856
 4141TIP3   OH212428   3.653   0.697   5.103
 4141TIP3    H112429   3.663   0.786   5.137
 4141TIP3    H212430   3.624   0.709   5.012
 4142TIP3   OH212431   4.260   2.778   1.075
 4142TIP3    H112432   4.177   2.801   1.117
 4142TIP3    H212433   4.239   2.706   1.017
 4143TIP3   OH212434   2.497   1.163   2.004
 4143TIP3    H112435   2.480   1.083   2.054
 4143TIP3    H212436   2.463   1.234   2.058
 4144TIP3   OH212437   2.859   3.390   2.573
 4144TIP3    H112438   2.929   3.455   2.565
 4144TIP3    H212439   2.857   3.368   2.666
 4145TIP3   OH212440   5.895   5.092   0.615
 4145TIP3    H112441   5.919   5.104   0.707
 4145TIP3    H212442   5.890   4.998   0.603
 4146TIP3   OH212443   0.886   4.284   1.114
 4146TIP3    H112444   0.853   4.220   1.050
 4146TIP3    H212445   0.958   4.328   1.069
 4147TIP3   OH212446   0.761   3.127   3.180
 4147TIP3    H112447   0.810   3.173   3.248
 4147TIP3    H212448   0.728   3.048   3.224
 4148TIP3   OH212449   4.701   2.223   1.968
 4148TIP3    H112450   4.762   2.164   1.924
 4148TIP3    H212451   4.614   2.197   1.936
 4149TIP3   OH212452   2.207   1.956   1.561
 4149TIP3    H112453   2.246   2.038   1.529
 4149TIP3    H212454   2.277   1.892   1.555
 4150TIP3   OH212455   2.097   1.496   1.763
 4150TIP3    H112456   2.006   1.466   1.760
 4150TIP3    H212457   2.148   1.416   1.757
 4151TIP3   OH212458   1.020   1.405   2.455
 4151TIP3    H112459   1.113   1.384   2.452
 4151TIP3    H212460   0.992   1.384   2.544
 4152TIP3   OH212461   5.660   4.125   3.537
 4152TIP3    H112462   5.595   4.136   3.606
 4152TIP3    H212463   5.666   4.030   3.524
 4153TIP3   OH212464   3.768   3.925   1.489
 4153TIP3    H112465   3.696   3.882   1.536
 4153TIP3    H212466   3.734   4.012   1.467
 4154TIP3   OH212467   2.454   3.615   3.617
 4154TIP3    H112468   2.484   3.690   3.667
 4154TIP3    H212469   2.531   3.559   3.608
 4155TIP3   OH212470   3.564   4.889   0.350
 4155TIP3    H112471   3.606   4.858   0.270
 4155TIP3    H212472   3.517   4.968   0.323
 4156TIP3   OH212473   2.894   3.007   2.759
 4156TIP3    H112474   2.855   3.072   2.701
 4156TIP3    H212475   2.975   3.047   2.789
 4157TIP3   OH212476   3.219   4.250   0.563
 4157TIP3    H112477   3.146   4.214   0.613
 4157TIP3    H212478   3.280   4.283   0.629
 4158TIP3   OH212479   4.910   2.627   4.941
 4158TIP3    H112480   4.947   2.668   5.019
 4158TIP3    H212481   4.832   2.678   4.921
 4159TIP3   OH212482   3.885   1.874   4.605
 4159TIP3    H112483   3.916   1.913   4.686
 4159TIP3    H212484   3.949   1.902   4.539
 4160TIP3   OH212485   6.065   3.928   4.536
 4160TIP3    H112486   6.160   3.920   4.538
 4160TIP3    H212487   6.049   4.023   4.534
 4161TIP3   OH212488   4.872   3.439   4.264
 4161TIP3    H112489   4.884   3.387   4.184
 4161TIP3    H212490   4.804   3.393   4.313
 4162TIP3   OH212491   1.583   0.525   4.092
 4162TIP3    H112492   1.592   0.435   4.121
 4162TIP3    H212493   1.595   0.521   3.997
 4163TIP3   OH212494   0.322   3.543   2.437
 4163TIP3    H112495   0.247   3.519   2.492
 4163TIP3    H212496   0.339   3.464   2.385
 4164TIP3   OH212497   3.201   5.544   1.570
 4164TIP3    H112498   3.159   5.590   1.642
 4164TIP3    H212499   3.145   5.562   1.494
 4165TIP3   OH212500   5.661   5.551   2.597
 4165TIP3    H112501   5.731   5.603   2.636
 4165TIP3    H212502   5.689   5.539   2.506
 4166TIP3   OH212503   6.052   2.136  -0.044
 4166TIP3    H112504   6.015   2.212   0.001
 4166TIP3    H212505   6.003   2.062  -0.009
 4167TIP3   OH212506   4.310   5.301   1.808
 4167TIP3    H112507   4.224   5.267   1.783
 4167TIP3    H212508   4.372   5.235   1.778
 4168TIP3   OH212509   6.158   3.297   2.875
 4168TIP3    H112510   6.068   3.279   2.850
 4168TIP3    H212511   6.177   3.383   2.837
 4169TIP3   OH212512   1.351   3.491   4.455
 4169TIP3    H112513   1.419   3.533   4.401
 4169TIP3    H212514   1.374   3.398   4.454
 4170TIP3   OH212515   5.522   2.202   3.353
 4170TIP3    H112516   5.507   2.276   3.295
 4170TIP3    H212517   5.450   2.142   3.335
 4171TIP3   OH212518   5.852   0.062   2.855
 4171TIP3    H112519   5.841  -0.031   2.839
 4171TIP3    H212520   5.763   0.098   2.853
 4172TIP3   OH212521   3.439   2.889   3.436
 4172TIP3    H112522   3.360   2.836   3.451
 4172TIP3    H212523   3.430   2.922   3.347
 4173TIP3   OH212524   5.622   1.917   0.983
 4173TIP3    H112525   5.683   1.844   0.965
 4173TIP3    H212526   5.535   1.879   0.970
 4174TIP3   OH212527   3.825   0.561   2.952
 4174TIP3    H112528   3.768   0.503   3.002
 4174TIP3    H212529   3.911   0.521   2.958
 4175TIP3   OH212530   1.848   1.284   0.670
 4175TIP3    H112531   1.828   1.276   0.763
 4175TIP3    H212532   1.901   1.364   0.663
 4176TIP3   OH212533   0.395   2.116   4.555
 4176TIP3    H112534   0.438   2.035   4.579
 4176TIP3    H212535   0.460   2.184   4.571
 4177TIP3   OH212536   0.894   4.878   0.495
 4177TIP3    H112537   0.985   4.908   0.487
 4177TIP3    H212538   0.875   4.882   0.588
 4178TIP3   OH212539   3.557   1.427   3.363
 4178TIP3    H112540   3.587   1.503   3.414
 4178TIP3    H212541   3.631   1.367   3.365
 4179TIP3   OH212542   5.492   0.897   2.389
 4179TIP3    H112543   5.483   0.863   2.478
 4179TIP3    H212544   5.416   0.954   2.377
 4180TIP3   OH212545   1.621   4.752  -0.016
 4180TIP3    H112546   1.701   4.803  -0.026
 4180TIP3    H212547   1.579   4.789   0.062
 4181TIP3   OH212548   1.946   0.914   1.898
 4181TIP3    H112549   2.039   0.938   1.900
 4181TIP3    H212550   1.900   0.997   1.914
 4182TIP3   OH212551   4.103   0.931   1.295
 4182TIP3    H112552   4.032   0.929   1.359
 4182TIP3    H212553   4.077   1.001   1.234
 4183TIP3   OH212554   4.375   1.754   2.544
 4183TIP3    H112555   4.371   1.737   2.450
 4183TIP3    H212556   4.453   1.707   2.573
 4184TIP3   OH212557   4.719   4.898   4.093
 4184TIP3    H112558   4.696   4.923   4.182
 4184TIP3    H212559   4.810   4.926   4.083
 4185TIP3   OH212560   3.816   4.377   2.566
 4185TIP3    H112561   3.826   4.374   2.661
 4185TIP3    H212562   3.906   4.371   2.532
 4186TIP3   OH212563   5.467   3.604   1.240
 4186TIP3    H112564   5.459   3.623   1.333
 4186TIP3    H212565   5.558   3.624   1.219
 4187TIP3   OH212566   6.022   5.671   0.123
 4187TIP3    H112567   6.044   5.624   0.204
 4187TIP3    H212568   5.992   5.603   0.063
 4188TIP3   OH212569   0.427   3.676   3.812
 4188TIP3    H112570   0.374   3.602   3.782
 4188TIP3    H212571   0.517   3.643   3.813
 4189TIP3   OH212572   1.720   1.410   2.548
 4189TIP3    H112573   1.692   1.409   2.640
 4189TIP3    H212574   1.815   1.415   2.552
 4190TIP3   OH212575   0.569   5.654   0.053
 4190TIP3    H112576   0.503   5.654  -0.017
 4190TIP3    H212577   0.522   5.622   0.130
 4191TIP3   OH212578   4.291   5.959   2.602
 4191TIP3    H112579   4.245   6.001   2.675
 4191TIP3    H212580   4.222   5.915   2.553
 4192TIP3   OH212581   3.021   2.532   4.059
 4192TIP3    H112582   3.051   2.588   4.130
 4192TIP3    H212583   3.053   2.574   3.979
 4193TIP3   OH212584   5.077   3.403   4.792
 4193TIP3    H112585   5.081   3.385   4.698
 4193TIP3    H212586   5.105   3.321   4.833
 4194TIP3   OH212587   4.358   1.582   3.883
 4194TIP3    H112588   4.277   1.619   3.848
 4194TIP3    H212589   4.347   1.487   3.876
 4195TIP3   OH212590   4.966   4.086   2.853
 4195TIP3    H112591   5.060   4.071   2.842
 4195TIP3    H212592   4.939   4.027   2.923
 4196TIP3   OH212593   0.690   2.638   0.394
 4196TIP3    H112594   0.749   2.566   0.371
 4196TIP3    H212595   0.639   2.604   0.468
 4197TIP3   OH212596   1.531   5.711   1.392
 4197TIP3    H112597   1.510   5.797   1.430
 4197TIP3    H212598   1.601   5.729   1.329
 4198TIP3   OH212599   5.311   5.759   2.175
 4198TIP3    H112600   5.305   5.851   2.200
 4198TIP3    H212601   5.282   5.712   2.253
 4199TIP3   OH212602   1.459   4.825   0.209
 4199TIP3    H112603   1.448   4.807   0.303
 4199TIP3    H212604   1.423   4.913   0.197
 4200TIP3   OH212605   4.616   1.664   2.288
 4200TIP3    H112606   4.643   1.572   2.287
 4200TIP3    H212607   4.530   1.664   2.247
 4201TIP3   OH212608   5.091   0.525   1.640
 4201TIP3    H112609   5.006   0.504   1.602
 4201TIP3    H212610   5.128   0.441   1.665
 4202TIP3   OH212611   1.293   4.423   1.384
 4202TIP3    H112612   1.268   4.412   1.292
 4202TIP3    H212613   1.232   4.367   1.433
 4203TIP3   OH212614   5.403   2.652   2.940
 4203TIP3    H112615   5.314   2.663   2.973
 4203TIP3    H212616   5.410   2.714   2.867
 4204TIP3   OH212617   3.230   5.054   0.740
 4204TIP3    H112618   3.179   5.135   0.738
 4204TIP3    H212619   3.275   5.052   0.655
 4205TIP3   OH212620   2.881   2.300   5.054
 4205TIP3    H112621   2.877   2.382   5.004
 4205TIP3    H212622   2.917   2.237   4.992
 4206TIP3   OH212623   0.456   5.833   1.986
 4206TIP3    H112624   0.495   5.892   1.922
 4206TIP3    H212625   0.517   5.833   2.060
 4207TIP3   OH212626   4.445   0.695   1.685
 4207TIP3    H112627   4.385   0.768   1.668
 4207TIP3    H212628   4.390   0.629   1.729
 4208TIP3   OH212629   2.908   0.100   5.074
 4208TIP3    H112630   2.916   0.021   5.128
 4208TIP3    H212631   2.907   0.067   4.984
 4209TIP3   OH212632   3.643   1.799   4.404
 4209TIP3    H112633   3.676   1.868   4.460
 4209TIP3    H212634   3.552   1.822   4.388
 4210TIP3   OH212635   4.742   3.925   0.070
 4210TIP3    H112636   4.752   4.020   0.081
 4210TIP3    H212637   4.830   3.890   0.086
 4211TIP3   OH212638   2.904   0.529   0.699
 4211TIP3    H112639   2.869   0.583   0.769
 4211TIP3    H212640   2.911   0.442   0.737
 4212TIP3   OH212641   3.038   3.541   4.991
 4212TIP3    H112642   2.967   3.597   4.962
 4212TIP3    H212643   3.116   3.575   4.946
 4213TIP3   OH212644   3.340   2.850   4.324
 4213TIP3    H112645   3.393   2.914   4.373
 4213TIP3    H212646   3.400   2.776   4.310
 4214TIP3   OH212647   4.145   0.717   2.345
 4214TIP3    H112648   4.067   0.739   2.395
 4214TIP3    H212649   4.209   0.784   2.367
 4215TIP3   OH212650   3.585   3.805   3.994
 4215TIP3    H112651   3.630   3.873   3.942
 4215TIP3    H212652   3.653   3.772   4.053
 4216TIP3   OH212653   1.618   0.384   0.814
 4216TIP3    H112654   1.587   0.301   0.849
 4216TIP3    H212655   1.637   0.366   0.722
 4217TIP3   OH212656   0.322   2.565   1.438
 4217TIP3    H112657   0.278   2.523   1.364
 4217TIP3    H212658   0.332   2.495   1.502
 4218TIP3   OH212659   1.899   1.640   3.289
 4218TIP3    H112660   1.820   1.692   3.276
 4218TIP3    H212661   1.901   1.622   3.383
 4219TIP3   OH212662   1.451   1.120   4.130
 4219TIP3    H112663   1.506   1.078   4.196
 4219TIP3    H212664   1.434   1.207   4.166
 4220TIP3   OH212665   1.117   4.262   0.732
 4220TIP3    H112666   1.190   4.210   0.765
 4220TIP3    H212667   1.063   4.200   0.683
 4221TIP3   OH212668   5.132   0.245   3.217
 4221TIP3    H112669   5.158   0.153   3.221
 4221TIP3    H212670   5.164   0.283   3.298
 4222TIP3   OH212671   0.413   3.904   1.952
 4222TIP3    H112672   0.461   3.914   2.035
 4222TIP3    H212673   0.331   3.952   1.966
 4223TIP3   OH212674   6.122   0.625   2.218
 4223TIP3    H112675   6.117   0.706   2.166
 4223TIP3    H212676   6.210   0.591   2.199
 4224TIP3   OH212677   3.550   5.499   0.910
 4224TIP3    H112678   3.625   5.501   0.851
 4224TIP3    H212679   3.537   5.590   0.936
 4225TIP3   OH212680   4.170   5.629   1.353
 4225TIP3    H112681   4.260   5.608   1.324
 4225TIP3    H212682   4.114   5.585   1.288
 4226TIP3   OH212683   2.820   1.524   2.719
 4226TIP3    H112684   2.823   1.474   2.637
 4226TIP3    H212685   2.821   1.616   2.692
 4227TIP3   OH212686   4.653   4.742   3.830
 4227TIP3    H112687   4.714   4.771   3.898
 4227TIP3    H212688   4.685   4.783   3.750
 4228TIP3   OH212689   3.785   5.200   1.718
 4228TIP3    H112690   3.713   5.242   1.766
 4228TIP3    H212691   3.750   5.185   1.630
 4229TIP3   OH212692   4.308   4.902   5.178
 4229TIP3    H112693   4.292   4.996   5.167
 4229TIP3    H212694   4.220   4.863   5.174
 4230TIP3   OH212695   5.869   4.270   1.003
 4230TIP3    H112696   5.777   4.244   1.002
 4230TIP3    H212697   5.875   4.333   1.074
 4231TIP3   OH212698   4.882   0.600   2.689
 4231TIP3    H112699   4.894   0.681   2.640
 4231TIP3    H212700   4.827   0.546   2.632
 4232TIP3   OH212701   0.614   3.346   3.081
 4232TIP3    H112702   0.698   3.301   3.086
 4232TIP3    H212703   0.637   3.438   3.072
 4233TIP3   OH212704   3.136   5.914   0.794
 4233TIP3    H112705   3.053   5.866   0.789
 4233TIP3    H212706   3.109   6.006   0.795
 4234TIP3   OH212707   1.803   0.461   2.107
 4234TIP3    H112708   1.896   0.463   2.130
 4234TIP3    H212709   1.794   0.523   2.035
 4235TIP3   OH212710   1.595   1.319   2.807
 4235TIP3    H112711   1.522   1.263   2.831
 4235TIP3    H212712   1.565   1.408   2.825
 4236TIP3   OH212713   4.862   1.159   2.974
 4236TIP3    H112714   4.865   1.254   2.981
 4236TIP3    H212715   4.911   1.139   2.894
 4237TIP3   OH212716   2.529   2.328   4.534
 4237TIP3    H112717   2.534   2.410   4.582
 4237TIP3    H212718   2.587   2.341   4.459
 4238TIP3   OH212719   2.356   0.536   2.980
 4238TIP3    H112720   2.313   0.453   3.002
 4238TIP3    H212721   2.352   0.541   2.885
 4239TIP3   OH212722   5.259   1.449   1.922
 4239TIP3    H112723   5.181   1.396   1.941
 4239TIP3    H212724   5.267   1.447   1.826
 4240TIP3   OH212725   1.886   1.024   2.315
 4240TIP3    H112726   1.911   0.939   2.351
 4240TIP3    H212727   1.846   1.070   2.388
 4241TIP3   OH212728   0.528   4.035   2.196
 4241TIP3    H112729   0.590   4.038   2.123
 4241TIP3    H212730   0.554   3.957   2.246
 4242TIP3   OH212731   5.903   2.197   1.518
 4242TIP3    H112732   5.812   2.188   1.488
 4242TIP3    H212733   5.897   2.191   1.613
 4243TIP3   OH212734   1.239   4.120   1.537
 4243TIP3    H112735   1.290   4.118   1.618
 4243TIP3    H212736   1.301   4.092   1.469
 4244TIP3   OH212737   4.270   3.997   2.583
 4244TIP3    H112738   4.249   3.904   2.586
 4244TIP3    H212739   4.284   4.022   2.674
 4245TIP3   OH212740   3.812   3.622   1.200
 4245TIP3    H112741   3.815   3.583   1.288
 4245TIP3    H212742   3.763   3.704   1.213
 4246TIP3   OH212743   1.817   1.239   3.400
 4246TIP3    H112744   1.796   1.305   3.334
 4246TIP3    H212745   1.907   1.260   3.427
 4247TIP3   OH212746   6.061   2.737   3.567
 4247TIP3    H112747   6.000   2.678   3.523
 4247TIP3    H212748   6.148   2.706   3.540
 4248TIP3   OH212749   0.305   4.560   0.951
 4248TIP3    H112750   0.254   4.559   0.870
 4248TIP3    H212751   0.243   4.538   1.020
 4249TIP3   OH212752   2.289   0.430   3.359
 4249TIP3    H112753   2.283   0.406   3.452
 4249TIP3    H212754   2.199   0.423   3.327
 4250TIP3   OH212755   2.040   3.695   1.892
 4250TIP3    H112756   2.003   3.645   1.964
 4250TIP3    H212757   2.003   3.783   1.902
 4251TIP3   OH212758   4.714   1.861   5.125
 4251TIP3    H112759   4.770   1.833   5.197
 4251TIP3    H212760   4.675   1.779   5.092
 4252TIP3   OH212761   5.024   5.237   3.591
 4252TIP3    H112762   5.038   5.175   3.520
 4252TIP3    H212763   4.932   5.226   3.615
 4253TIP3   OH212764  -0.037   1.824   2.528
 4253TIP3    H112765   0.023   1.885   2.487
 4253TIP3    H212766   0.014   1.744   2.539
 4254TIP3   OH212767   0.816   0.593   4.904
 4254TIP3    H112768   0.891   0.561   4.954
 4254TIP3    H212769   0.819   0.543   4.822
 4255TIP3   OH212770   4.484   4.775   0.538
 4255TIP3    H112771   4.544   4.701   0.529
 4255TIP3    H212772   4.495   4.803   0.629
 4256TIP3   OH212773   5.810   1.655   0.879
 4256TIP3    H112774   5.885   1.697   0.837
 4256TIP3    H212775   5.848   1.598   0.946
 4257TIP3   OH212776   2.968   5.706   2.631
 4257TIP3    H112777   3.034   5.773   2.616
 4257TIP3    H212778   2.909   5.713   2.555
 4258TIP3   OH212779   1.573   2.671   2.514
 4258TIP3    H112780   1.649   2.651   2.570
 4258TIP3    H212781   1.604   2.741   2.456
 4259TIP3   OH212782   5.283   1.114   4.113
 4259TIP3    H112783   5.359   1.173   4.110
 4259TIP3    H212784   5.289   1.071   4.198
 4260TIP3   OH212785   5.384   0.529   0.958
 4260TIP3    H112786   5.371   0.621   0.934
 4260TIP3    H212787   5.467   0.529   1.006
 4261TIP3   OH212788   2.449   2.119   0.608
 4261TIP3    H112789   2.529   2.094   0.654
 4261TIP3    H212790   2.436   2.211   0.631
 4262TIP3   OH212791   5.986   0.490   0.440
 4262TIP3    H112792   6.050   0.556   0.468
 4262TIP3    H212793   5.952   0.453   0.522
 4263TIP3   OH212794   5.803   2.867   4.517
 4263TIP3    H112795   5.848   2.842   4.598
 4263TIP3    H212796   5.873   2.900   4.460
 4264TIP3   OH212797   4.394   3.660   0.780
 4264TIP3    H112798   4.387   3.669   0.875
 4264TIP3    H212799   4.488   3.666   0.762
 4265TIP3   OH212800   6.244   3.566   1.024
 4265TIP3    H112801   6.300   3.488   1.029
 4265TIP3    H212802   6.303   3.636   0.994
 4266TIP3   OH212803   3.541   2.650   4.344
 4266TIP3    H112804   3.616   2.608   4.303
 4266TIP3    H212805   3.538   2.613   4.432
 4267TIP3   OH212806   0.847   2.631   4.009
 4267TIP3    H112807   0.862   2.560   3.947
 4267TIP3    H212808   0.847   2.710   3.955
 4268TIP3   OH212809   5.518   2.460   4.719
 4268TIP3    H112810   5.495   2.373   4.754
 4268TIP3    H212811   5.612   2.468   4.736
 4269TIP3   OH212812   0.994   3.147   4.233
 4269TIP3    H112813   1.042   3.183   4.308
 4269TIP3    H212814   1.056   3.152   4.160
 4270TIP3   OH212815   5.241   1.909   4.060
 4270TIP3    H112816   5.290   1.844   4.110
 4270TIP3    H212817   5.228   1.868   3.975
 4271TIP3   OH212818   3.194   3.706   4.851
 4271TIP3    H112819   3.226   3.791   4.881
 4271TIP3    H212820   3.178   3.717   4.758
 4272TIP3   OH212821   1.617   3.491   5.160
 4272TIP3    H112822   1.592   3.428   5.092
 4272TIP3    H212823   1.713   3.491   5.159
 4273TIP3   OH212824   3.524   0.380   0.799
 4273TIP3    H112825   3.551   0.394   0.708
 4273TIP3    H212826   3.447   0.324   0.793
 4274TIP3   OH212827   4.634   5.018   4.328
 4274TIP3    H112828   4.564   5.082   4.316
 4274TIP3    H212829   4.693   5.058   4.393
 4275TIP3   OH212830   1.038   4.613   2.408
 4275TIP3    H112831   0.955   4.620   2.360
 4275TIP3    H212832   1.092   4.684   2.372
 4276TIP3   OH212833   3.522   1.021   1.169
 4276TIP3    H112834   3.547   1.113   1.160
 4276TIP3    H212835   3.485   1.015   1.257
 4277TIP3   OH212836   4.712   2.558   4.312
 4277TIP3    H112837   4.786   2.603   4.353
 4277TIP3    H212838   4.659   2.527   4.386
 4278TIP3   OH212839   4.710   2.960   1.564
 4278TIP3    H112840   4.689   2.999   1.649
 4278TIP3    H212841   4.763   3.026   1.520
 4279TIP3   OH212842   3.044   3.087   4.938
 4279TIP3    H112843   2.965   3.136   4.961
 4279TIP3    H212844   3.027   3.053   4.850
 4280TIP3   OH212845   2.562   5.789   1.815
 4280TIP3    H112846   2.575   5.695   1.811
 4280TIP3    H212847   2.468   5.800   1.831
 4281TIP3   OH212848   2.166   5.800   1.097
 4281TIP3    H112849   2.158   5.725   1.038
 4281TIP3    H212850   2.076   5.816   1.127
 4282TIP3   OH212851   1.111   3.228   4.698
 4282TIP3    H112852   1.173   3.206   4.629
 4282TIP3    H212853   1.024   3.217   4.658
 4283TIP3   OH212854   4.417   2.044   2.627
 4283TIP3    H112855   4.373   1.962   2.605
 4283TIP3    H212856   4.349   2.111   2.621
 4284TIP3   OH212857   0.670   5.679   2.995
 4284TIP3    H112858   0.609   5.650   2.928
 4284TIP3    H212859   0.617   5.687   3.075
 4285TIP3   OH212860   4.237   5.319   1.258
 4285TIP3    H112861   4.290   5.359   1.188
 4285TIP3    H212862   4.181   5.256   1.212
 4286TIP3   OH212863   2.391   1.388   3.467
 4286TIP3    H112864   2.456   1.391   3.397
 4286TIP3    H212865   2.401   1.471   3.513
 4287TIP3   OH212866   1.897   2.739   1.585
 4287TIP3    H112867   1.948   2.813   1.617
 4287TIP3    H212868   1.850   2.707   1.662
 4288TIP3   OH212869   3.478   2.405   1.113
 4288TIP3    H112870   3.570   2.378   1.122
 4288TIP3    H212871   3.442   2.348   1.045
 4289TIP3   OH212872   2.114   3.313   0.086
 4289TIP3    H112873   2.148   3.388   0.036
 4289TIP3    H212874   2.118   3.341   0.177
 4290TIP3   OH212875   2.731   2.661   3.662
 4290TIP3    H112876   2.706   2.655   3.755
 4290TIP3    H212877   2.652   2.695   3.619
 4291TIP3   OH212878   0.183   3.582   0.122
 4291TIP3    H112879   0.179   3.646   0.051
 4291TIP3    H212880   0.129   3.619   0.192
 4292TIP3   OH212881   1.568   2.117   3.612
 4292TIP3    H112882   1.516   2.170   3.673
 4292TIP3    H212883   1.640   2.175   3.586
 4293TIP3   OH212884   0.846   2.862   3.183
 4293TIP3    H112885   0.916   2.805   3.217
 4293TIP3    H212886   0.788   2.876   3.257
 4294TIP3   OH212887   5.404   1.781   3.634
 4294TIP3    H112888   5.453   1.707   3.599
 4294TIP3    H212889   5.427   1.854   3.576
 4295TIP3   OH212890   4.937   1.062   2.710
 4295TIP3    H112891   4.963   1.100   2.626
 4295TIP3    H212892   5.001   0.992   2.725
 4296TIP3   OH212893   4.459   3.348   0.678
 4296TIP3    H112894   4.448   3.297   0.598
 4296TIP3    H212895   4.436   3.438   0.654
 4297TIP3   OH212896   3.133   5.015   1.179
 4297TIP3    H112897   3.096   4.929   1.162
 4297TIP3    H212898   3.224   5.008   1.150
 4298TIP3   OH212899   1.058   1.543   5.097
 4298TIP3    H112900   1.046   1.555   5.191
 4298TIP3    H212901   0.999   1.472   5.074
 4299TIP3   OH212902   0.319   0.731   3.634
 4299TIP3    H112903   0.283   0.811   3.674
 4299TIP3    H212904   0.371   0.692   3.704
 4300TIP3   OH212905   5.074   2.131   2.861
 4300TIP3    H112906   5.083   2.220   2.895
 4300TIP3    H212907   5.102   2.137   2.770
 4301TIP3   OH212908   1.770   0.152   4.359
 4301TIP3    H112909   1.738   0.108   4.438
 4301TIP3    H212910   1.852   0.108   4.338
 4302TIP3   OH212911   3.064   5.532   3.283
 4302TIP3    H112912   2.998   5.589   3.245
 4302TIP3    H212913   3.147   5.567   3.251
 4303TIP3   OH212914   3.280   0.290   2.110
 4303TIP3    H112915   3.222   0.221   2.077
 4303TIP3    H212916   3.300   0.343   2.033
 4304TIP3   OH212917   2.583   2.256   3.777
 4304TIP3    H112918   2.637   2.182   3.804
 4304TIP3    H212919   2.518   2.265   3.846
 4305TIP3   OH212920   1.412   4.109   3.255
 4305TIP3    H112921   1.436   4.018   3.242
 4305TIP3    H212922   1.491   4.158   3.236
 4306TIP3   OH212923   1.921   5.686   1.096
 4306TIP3    H112924   1.874   5.653   1.019
 4306TIP3    H212925   1.860   5.670   1.169
 4307TIP3   OH212926   1.411   0.015   3.009
 4307TIP3    H112927   1.348  -0.053   2.987
 4307TIP3    H212928   1.397   0.083   2.943
 4308TIP3   OH212929   3.765   3.184   4.323
 4308TIP3    H112930   3.758   3.202   4.416
 4308TIP3    H212931   3.834   3.244   4.292
 4309TIP3   OH212932   5.459   3.814   1.655
 4309TIP3    H112933   5.428   3.727   1.683
 4309TIP3    H212934   5.543   3.825   1.701
 4310TIP3   OH212935   6.198   2.908   3.733
 4310TIP3    H112936   6.154   2.843   3.678
 4310TIP3    H212937   6.134   2.927   3.802
 4311TIP3   OH212938   1.960   1.080   4.874
 4311TIP3    H112939   1.903   1.020   4.827
 4311TIP3    H212940   1.910   1.105   4.952
 4312TIP3   OH212941   3.521   0.055   0.439
 4312TIP3    H112942   3.592   0.112   0.468
 4312TIP3    H212943   3.460   0.054   0.512
 4313TIP3   OH212944   3.626   1.705   3.105
 4313TIP3    H112945   3.600   1.694   3.013
 4313TIP3    H212946   3.664   1.620   3.129
 4314TIP3   OH212947   6.139   4.773   4.507
 4314TIP3    H112948   6.180   4.848   4.551
 4314TIP3    H212949   6.197   4.699   4.527
 4315TIP3   OH212950   5.721   4.547   4.809
 4315TIP3    H112951   5.795   4.520   4.863
 4315TIP3    H212952   5.760   4.570   4.724
 4316TIP3   OH212953   4.332   1.739   2.254
 4316TIP3    H112954   4.374   1.745   2.168
 4316TIP3    H212955   4.243   1.711   2.234
 4317TIP3   OH212956   1.858   5.357   2.161
 4317TIP3    H112957   1.900   5.354   2.247
 4317TIP3    H212958   1.774   5.400   2.177
 4318TIP3   OH212959   3.812   4.726   2.639
 4318TIP3    H112960   3.731   4.685   2.609
 4318TIP3    H212961   3.816   4.809   2.592
 4319TIP3   OH212962   0.186   3.545   4.579
 4319TIP3    H112963   0.167   3.583   4.664
 4319TIP3    H212964   0.102   3.549   4.532
 4320TIP3   OH212965   3.822   2.418   3.752
 4320TIP3    H112966   3.805   2.506   3.786
 4320TIP3    H212967   3.774   2.414   3.670
 4321TIP3   OH212968   0.688   5.863   2.172
 4321TIP3    H112969   0.655   5.849   2.261
 4321TIP3    H212970   0.707   5.957   2.169
 4322TIP3   OH212971   0.146   3.433   2.020
 4322TIP3    H112972   0.220   3.484   2.054
 4322TIP3    H212973   0.186   3.374   1.956
 4323TIP3   OH212974   2.172   3.613   2.306
 4323TIP3    H112975   2.127   3.634   2.224
 4323TIP3    H212976   2.180   3.697   2.351
 4324TIP3   OH212977   1.556   5.408   2.683
 4324TIP3    H112978   1.483   5.353   2.711
 4324TIP3    H212979   1.515   5.488   2.650
 4325TIP3   OH212980   0.948   5.043   2.848
 4325TIP3    H112981   1.010   5.034   2.776
 4325TIP3    H212982   0.993   5.100   2.911
 4326TIP3   OH212983   1.875   2.965   0.979
 4326TIP3    H112984   1.883   2.871   0.963
 4326TIP3    H212985   1.963   3.000   0.963
 4327TIP3   OH212986   2.700   2.877   1.551
 4327TIP3    H112987   2.767   2.827   1.505
 4327TIP3    H212988   2.679   2.949   1.491
 4328TIP3   OH212989   2.446   0.998   1.088
 4328TIP3    H112990   2.511   1.032   1.148
 4328TIP3    H212991   2.363   1.003   1.136
 4329TIP3   OH212992   5.087   2.618   2.721
 4329TIP3    H112993   5.107   2.629   2.814
 4329TIP3    H212994   5.156   2.561   2.688
 4330TIP3   OH212995   3.620   2.433   4.040
 4330TIP3    H112996   3.645   2.489   3.968
 4330TIP3    H212997   3.570   2.362   3.999
 4331TIP3   OH212998   0.263   1.271   1.703
 4331TIP3    H112999   0.308   1.223   1.634
 4331TIP3    H213000   0.194   1.319   1.658
 4332TIP3   OH213001   0.545   0.511   4.666
 4332TIP3    H113002   0.518   0.571   4.597
 4332TIP3    H213003   0.507   0.548   4.746
 4333TIP3   OH213004   4.601   1.631   2.625
 4333TIP3    H113005   4.671   1.638   2.690
 4333TIP3    H213006   4.645   1.611   2.543
 4334TIP3   OH213007   2.921   5.209   1.175
 4334TIP3    H113008   2.846   5.178   1.124
 4334TIP3    H213009   2.991   5.145   1.156
 4335TIP3   OH213010   4.446   3.029   2.315
 4335TIP3    H113011   4.372   3.006   2.370
 4335TIP3    H213012   4.522   2.994   2.361
 4336TIP3   OH213013   3.040   3.982   1.874
 4336TIP3    H113014   2.978   4.052   1.853
 4336TIP3    H213015   2.989   3.919   1.925
 4337TIP3   OH213016   4.620   5.013   2.302
 4337TIP3    H113017   4.543   4.971   2.265
 4337TIP3    H213018   4.667   4.943   2.347
 4338TIP3   OH213019   1.930   0.714   0.831
 4338TIP3    H113020   2.022   0.706   0.806
 4338TIP3    H213021   1.913   0.808   0.829
 4339TIP3   OH213022   5.976   1.697   3.477
 4339TIP3    H113023   5.965   1.620   3.532
 4339TIP3    H213024   6.022   1.666   3.399
 4340TIP3   OH213025   3.295   0.333   1.353
 4340TIP3    H113026   3.357   0.361   1.285
 4340TIP3    H213027   3.295   0.405   1.416
 4341TIP3   OH213028   4.879   2.131   4.656
 4341TIP3    H113029   4.858   2.111   4.565
 4341TIP3    H213030   4.901   2.046   4.695
 4342TIP3   OH213031   2.266   1.322   2.713
 4342TIP3    H113032   2.243   1.384   2.783
 4342TIP3    H213033   2.356   1.345   2.689
 4343TIP3   OH213034   5.524   4.973   3.964
 4343TIP3    H113035   5.541   4.929   3.881
 4343TIP3    H213036   5.473   4.909   4.015
 4344TIP3   OH213037   5.888   4.870   4.473
 4344TIP3    H113038   5.916   4.961   4.488
 4344TIP3    H213039   5.968   4.819   4.484
 4345TIP3   OH213040   5.010   5.586   0.066
 4345TIP3    H113041   5.025   5.495   0.094
 4345TIP3    H213042   5.097   5.626   0.065
 4346TIP3   OH213043   0.178   5.175   1.212
 4346TIP3    H113044   0.106   5.211   1.264
 4346TIP3    H213045   0.148   5.087   1.189
 4347TIP3   OH213046   6.238   3.003   2.759
 4347TIP3    H113047   6.239   3.008   2.854
 4347TIP3    H213048   6.274   3.087   2.730
 4348TIP3   OH213049   5.161   0.849   3.170
 4348TIP3    H113050   5.253   0.828   3.149
 4348TIP3    H213051   5.136   0.784   3.235
 4349TIP3   OH213052   0.560   5.126   4.823
 4349TIP3    H113053   0.593   5.041   4.794
 4349TIP3    H213054   0.608   5.143   4.905
 4350TIP3   OH213055   4.902   5.749   1.860
 4350TIP3    H113056   4.824   5.698   1.881
 4350TIP3    H213057   4.902   5.821   1.923
 4351TIP3   OH213058   3.770   5.045   0.475
 4351TIP3    H113059   3.735   4.974   0.422
 4351TIP3    H213060   3.820   5.001   0.545
 4352TIP3   OH213061   2.293   2.742   0.450
 4352TIP3    H113062   2.258   2.830   0.438
 4352TIP3    H213063   2.314   2.738   0.544
 4353TIP3   OH213064   1.244   0.554   4.450
 4353TIP3    H113065   1.274   0.564   4.360
 4353TIP3    H213066   1.225   0.644   4.479
 4354TIP3   OH213067   3.436   0.462   2.246
 4354TIP3    H113068   3.381   0.474   2.323
 4354TIP3    H213069   3.424   0.370   2.222
 4355TIP3   OH213070   1.267   2.663   2.499
 4355TIP3    H113071   1.277   2.738   2.441
 4355TIP3    H213072   1.351   2.619   2.496
 4356TIP3   OH213073   0.598   0.324   0.929
 4356TIP3    H113074   0.582   0.305   0.837
 4356TIP3    H213075   0.692   0.312   0.941
 4357TIP3   OH213076   5.784   3.232   1.379
 4357TIP3    H113077   5.769   3.159   1.319
 4357TIP3    H213078   5.826   3.299   1.326
 4358TIP3   OH213079   1.563   4.480   5.127
 4358TIP3    H113080   1.485   4.425   5.130
 4358TIP3    H213081   1.554   4.539   5.202
 4359TIP3   OH213082   5.519   2.074   3.723
 4359TIP3    H113083   5.581   2.047   3.656
 4359TIP3    H213084   5.544   2.025   3.801
 4360TIP3   OH213085   5.914   3.773   4.371
 4360TIP3    H113086   5.872   3.725   4.443
 4360TIP3    H213087   5.963   3.843   4.414
 4361TIP3   OH213088   2.065   0.088   2.566
 4361TIP3    H113089   2.088   0.046   2.649
 4361TIP3    H213090   2.106   0.033   2.500
 4362TIP3   OH213091   1.069   0.992   2.874
 4362TIP3    H113092   1.135   0.948   2.926
 4362TIP3    H213093   1.024   0.922   2.827
 4363TIP3   OH213094   4.048   2.768   4.205
 4363TIP3    H113095   4.113   2.754   4.273
 4363TIP3    H213096   4.037   2.863   4.200
 4364TIP3   OH213097   3.529   1.650   1.789
 4364TIP3    H113098   3.608   1.627   1.739
 4364TIP3    H213099   3.562   1.667   1.878
 4365TIP3   OH213100   6.052   5.513   2.528
 4365TIP3    H113101   6.027   5.436   2.580
 4365TIP3    H213102   5.985   5.578   2.549
 4366TIP3   OH213103   2.114   3.035   3.708
 4366TIP3    H113104   2.051   3.107   3.711
 4366TIP3    H213105   2.196   3.074   3.739
 4367TIP3   OH213106   1.610   1.935   4.457
 4367TIP3    H113107   1.673   2.005   4.477
 4367TIP3    H213108   1.562   1.922   4.539
 4368TIP3   OH213109   4.454   2.357   0.334
 4368TIP3    H113110   4.441   2.385   0.425
 4368TIP3    H213111   4.389   2.407   0.285
 4369TIP3   OH213112   4.286   4.396   4.291
 4369TIP3    H113113   4.278   4.306   4.258
 4369TIP3    H213114   4.377   4.420   4.274
 4370TIP3   OH213115   1.356   4.684   3.070
 4370TIP3    H113116   1.264   4.707   3.059
 4370TIP3    H213117   1.362   4.654   3.161
 4371TIP3   OH213118   5.981   2.023   4.071
 4371TIP3    H113119   6.071   2.005   4.098
 4371TIP3    H213120   5.946   1.938   4.043
 4372TIP3   OH213121   4.775   1.424   4.537
 4372TIP3    H113122   4.821   1.385   4.463
 4372TIP3    H213123   4.816   1.385   4.614
 4373TIP3   OH213124   4.819   3.537   2.807
 4373TIP3    H113125   4.724   3.529   2.812
 4373TIP3    H213126   4.850   3.449   2.786
 4374TIP3   OH213127   5.136   2.685   3.963
 4374TIP3    H113128   5.147   2.629   4.039
 4374TIP3    H213129   5.147   2.626   3.888
 4375TIP3   OH213130   4.508   4.750   3.391
 4375TIP3    H113131   4.432   4.692   3.388
 4375TIP3    H213132   4.579   4.694   3.425
 4376TIP3   OH213133   3.828   6.061   2.560
 4376TIP3    H113134   3.826   6.037   2.652
 4376TIP3    H213135   3.811   5.980   2.513
 4377TIP3   OH213136   1.139   3.138   1.782
 4377TIP3    H113137   1.223   3.184   1.782
 4377TIP3    H213138   1.078   3.201   1.821
 4378TIP3   OH213139   5.182   3.065   2.194
 4378TIP3    H113140   5.134   2.985   2.213
 4378TIP3    H213141   5.119   3.123   2.152
 4379TIP3   OH213142   5.374   0.129   0.180
 4379TIP3    H113143   5.381   0.045   0.135
 4379TIP3    H213144   5.368   0.193   0.109
 4380TIP3   OH213145   4.897   5.527   3.469
 4380TIP3    H113146   4.809   5.490   3.473
 4380TIP3    H213147   4.927   5.528   3.560
 4381TIP3   OH213148   4.561   1.906   1.159
 4381TIP3    H113149   4.538   1.879   1.070
 4381TIP3    H213150   4.591   1.997   1.149
 4382TIP3   OH213151   4.309   4.274   2.992
 4382TIP3    H113152   4.238   4.333   2.968
 4382TIP3    H213153   4.282   4.235   3.075
 4383TIP3   OH213154   2.767   0.044   1.123
 4383TIP3    H113155   2.678   0.072   1.148
 4383TIP3    H213156   2.811   0.125   1.098
 4384TIP3   OH213157   4.229   0.751   1.987
 4384TIP3    H113158   4.314   0.733   2.029
 4384TIP3    H213159   4.168   0.694   2.034
 4385TIP3   OH213160   4.293   2.670   3.945
 4385TIP3    H113161   4.323   2.628   4.025
 4385TIP3    H213162   4.209   2.629   3.926
 4386TIP3   OH213163   0.417   4.822   4.812
 4386TIP3    H113164   0.387   4.800   4.900
 4386TIP3    H213165   0.343   4.799   4.755
 4387TIP3   OH213166   0.964   0.518   3.132
 4387TIP3    H113167   0.981   0.444   3.074
 4387TIP3    H213168   1.025   0.507   3.204
 4388TIP3   OH213169   2.624   1.003   4.849
 4388TIP3    H113170   2.583   1.029   4.767
 4388TIP3    H213171   2.634   0.908   4.842
 4389TIP3   OH213172   1.616   5.273   1.988
 4389TIP3    H113173   1.646   5.357   2.024
 4389TIP3    H213174   1.541   5.297   1.933
 4390TIP3   OH213175   2.489   3.260   1.632
 4390TIP3    H113176   2.542   3.339   1.620
 4390TIP3    H213177   2.519   3.200   1.563
 4391TIP3   OH213178   3.755   1.399   2.374
 4391TIP3    H113179   3.792   1.483   2.346
 4391TIP3    H213180   3.660   1.411   2.366
 4392TIP3   OH213181   0.074   5.936   4.864
 4392TIP3    H113182   0.157   5.970   4.899
 4392TIP3    H213183   0.081   5.948   4.770
 4393TIP3   OH213184   1.213   4.771   0.401
 4393TIP3    H113185   1.298   4.763   0.444
 4393TIP3    H213186   1.198   4.866   0.397
 4394TIP3   OH213187   2.543   1.155   1.312
 4394TIP3    H113188   2.551   1.152   1.408
 4394TIP3    H213189   2.451   1.172   1.296
 4395TIP3   OH213190   0.477   4.952   1.274
 4395TIP3    H113191   0.431   4.875   1.307
 4395TIP3    H213192   0.522   4.988   1.350
 4396TIP3   OH213193   0.114   4.600   1.928
 4396TIP3    H113194   0.026   4.583   1.962
 4396TIP3    H213195   0.172   4.562   1.993
 4397TIP3   OH213196   4.188   2.220   2.577
 4397TIP3    H113197   4.211   2.272   2.654
 4397TIP3    H213198   4.093   2.207   2.584
 4398TIP3   OH213199   0.084   2.400   2.497
 4398TIP3    H113200   0.144   2.473   2.513
 4398TIP3    H213201   0.012   2.438   2.447
 4399TIP3   OH213202   0.791   4.892   4.250
 4399TIP3    H113203   0.793   4.819   4.188
 4399TIP3    H213204   0.760   4.854   4.331
 4400TIP3   OH213205   5.373   4.364   1.138
 4400TIP3    H113206   5.329   4.437   1.181
 4400TIP3    H213207   5.437   4.333   1.201
 4401TIP3   OH213208   5.550   2.251   2.632
 4401TIP3    H113209   5.593   2.303   2.564
 4401TIP3    H213210   5.601   2.171   2.636
 4402TIP3   OH213211   3.293   5.469   1.906
 4402TIP3    H113212   3.270   5.415   1.830
 4402TIP3    H213213   3.376   5.509   1.882
 4403TIP3   OH213214   1.954   2.677   0.940
 4403TIP3    H113215   2.036   2.687   0.988
 4403TIP3    H213216   1.952   2.585   0.915
 4404TIP3   OH213217   4.698   5.916   5.072
 4404TIP3    H113218   4.610   5.887   5.097
 4404TIP3    H213219   4.753   5.838   5.081
 4405TIP3   OH213220   2.302   3.019   5.145
 4405TIP3    H113221   2.283   3.111   5.159
 4405TIP3    H213222   2.398   3.013   5.155
 4406TIP3   OH213223   0.313   2.183   3.447
 4406TIP3    H113224   0.269   2.107   3.409
 4406TIP3    H213225   0.265   2.258   3.412
 4407TIP3   OH213226   1.300   0.448   1.449
 4407TIP3    H113227   1.245   0.429   1.373
 4407TIP3    H213228   1.250   0.512   1.500
 4408TIP3   OH213229   4.741   0.240   0.816
 4408TIP3    H113230   4.765   0.180   0.745
 4408TIP3    H213231   4.819   0.244   0.871
 4409TIP3   OH213232   5.735   5.501   0.939
 4409TIP3    H113233   5.689   5.550   1.007
 4409TIP3    H213234   5.817   5.475   0.981
 4410TIP3   OH213235   2.590   5.792   2.448
 4410TIP3    H113236   2.656   5.724   2.462
 4410TIP3    H213237   2.615   5.833   2.365
 4411TIP3   OH213238   2.452   2.216   2.819
 4411TIP3    H113239   2.445   2.311   2.830
 4411TIP3    H213240   2.426   2.201   2.728
 4412TIP3   OH213241   4.884   1.230   4.717
 4412TIP3    H113242   4.874   1.236   4.812
 4412TIP3    H213243   4.836   1.152   4.692
 4413TIP3   OH213244   1.048   4.477   4.115
 4413TIP3    H113245   1.044   4.555   4.060
 4413TIP3    H213246   1.089   4.507   4.196
 4414TIP3   OH213247   2.332   1.647   0.079
 4414TIP3    H113248   2.277   1.719   0.048
 4414TIP3    H213249   2.270   1.575   0.094
 4415TIP3   OH213250   5.142   3.851   3.834
 4415TIP3    H113251   5.222   3.879   3.789
 4415TIP3    H213252   5.074   3.857   3.768
 4416TIP3   OH213253   1.913   0.489   1.125
 4416TIP3    H113254   1.936   0.537   1.205
 4416TIP3    H213255   1.850   0.546   1.080
 4417TIP3   OH213256   4.830   0.205   2.650
 4417TIP3    H113257   4.769   0.135   2.673
 4417TIP3    H213258   4.774   0.277   2.621
 4418TIP3   OH213259   1.732   0.620   0.965
 4418TIP3    H113260   1.794   0.648   0.898
 4418TIP3    H213261   1.673   0.560   0.920
 4419TIP3   OH213262   4.755   1.480   3.607
 4419TIP3    H113263   4.808   1.450   3.681
 4419TIP3    H213264   4.710   1.558   3.640
 4420TIP3   OH213265   5.668   4.739   3.311
 4420TIP3    H113266   5.645   4.690   3.390
 4420TIP3    H213267   5.668   4.673   3.241
 4421TIP3   OH213268   0.859   0.313   3.680
 4421TIP3    H113269   0.936   0.368   3.663
 4421TIP3    H213270   0.894   0.234   3.719
 4422TIP3   OH213271   0.042   1.574   1.721
 4422TIP3    H113272   0.028   1.546   1.811
 4422TIP3    H213273   0.032   1.495   1.669
 4423TIP3   OH213274   0.636   2.525   5.083
 4423TIP3    H113275   0.683   2.608   5.079
 4423TIP3    H213276   0.701   2.459   5.058
 4424TIP3   OH213277   3.100   4.905   2.833
 4424TIP3    H113278   3.082   4.998   2.830
 4424TIP3    H213279   3.129   4.883   2.745
 4425TIP3   OH213280   1.587   1.287   5.067
 4425TIP3    H113281   1.516   1.233   5.103
 4425TIP3    H213282   1.660   1.227   5.058
 4426TIP3   OH213283   0.035   2.812   2.230
 4426TIP3    H113284   0.089   2.774   2.161
 4426TIP3    H213285   0.038   2.748   2.301
 4427TIP3   OH213286   5.188   4.466   4.349
 4427TIP3    H113287   5.254   4.532   4.326
 4427TIP3    H213288   5.239   4.389   4.377
 4428TIP3   OH213289   2.586   5.557   0.099
 4428TIP3    H113290   2.523   5.486   0.088
 4428TIP3    H213291   2.643   5.551   0.023
 4429TIP3   OH213292   5.775   3.644   4.686
 4429TIP3    H113293   5.840   3.599   4.740
 4429TIP3    H213294   5.708   3.672   4.748
 4430TIP3   OH213295   1.804   5.411   3.398
 4430TIP3    H113296   1.760   5.345   3.344
 4430TIP3    H213297   1.767   5.494   3.369
 4431TIP3   OH213298   5.362   5.032   5.168
 4431TIP3    H113299   5.435   5.081   5.207
 4431TIP3    H213300   5.284   5.068   5.211
 4432TIP3   OH213301   3.090   2.380   2.259
 4432TIP3    H113302   3.044   2.319   2.316
 4432TIP3    H213303   3.099   2.460   2.312
 4433TIP3   OH213304   0.262   1.504   1.383
 4433TIP3    H113305   0.283   1.514   1.290
 4433TIP3    H213306   0.299   1.419   1.406
 4434TIP3   OH213307   5.806   2.542   4.735
 4434TIP3    H113308   5.870   2.499   4.791
 4434TIP3    H213309   5.844   2.539   4.648
 4435TIP3   OH213310   3.766   0.871   0.989
 4435TIP3    H113311   3.744   0.779   1.003
 4435TIP3    H213312   3.689   0.919   1.020
 4436TIP3   OH213313   0.837   3.455   0.146
 4436TIP3    H113314   0.758   3.422   0.103
 4436TIP3    H213315   0.908   3.434   0.085
 4437TIP3   OH213316   1.400   4.589   3.881
 4437TIP3    H113317   1.400   4.590   3.976
 4437TIP3    H213318   1.460   4.517   3.858
 4438TIP3   OH213319   0.890   5.649   1.831
 4438TIP3    H113320   0.831   5.630   1.904
 4438TIP3    H213321   0.957   5.581   1.834
 4439TIP3   OH213322   1.081   3.268   0.478
 4439TIP3    H113323   1.087   3.256   0.573
 4439TIP3    H213324   0.989   3.254   0.458
 4440TIP3   OH213325   4.476   0.179   2.725
 4440TIP3    H113326   4.512   0.265   2.747
 4440TIP3    H213327   4.553   0.125   2.705
 4441TIP3   OH213328   3.148   4.110   2.957
 4441TIP3    H113329   3.054   4.128   2.953
 4441TIP3    H213330   3.179   4.162   3.032
 4442TIP3   OH213331   4.417   1.491   1.548
 4442TIP3    H113332   4.412   1.416   1.607
 4442TIP3    H213333   4.407   1.568   1.604
 4443TIP3   OH213334   1.442   3.368   4.191
 4443TIP3    H113335   1.485   3.372   4.106
 4443TIP3    H213336   1.512   3.386   4.254
 4444TIP3   OH213337   3.291   3.811   3.382
 4444TIP3    H113338   3.287   3.812   3.478
 4444TIP3    H213339   3.209   3.768   3.355
 4445TIP3   OH213340   4.274   0.941   4.897
 4445TIP3    H113341   4.248   1.026   4.932
 4445TIP3    H213342   4.193   0.892   4.891
 4446TIP3   OH213343   5.260   4.209   1.515
 4446TIP3    H113344   5.307   4.288   1.542
 4446TIP3    H213345   5.173   4.240   1.491
 4447TIP3   OH213346   5.650   0.594   0.849
 4447TIP3    H113347   5.730   0.637   0.818
 4447TIP3    H213348   5.593   0.590   0.772
 4448TIP3   OH213349   1.409   2.826   2.726
 4448TIP3    H113350   1.332   2.855   2.776
 4448TIP3    H213351   1.379   2.748   2.679
 4449TIP3   OH213352   0.480   0.806   2.692
 4449TIP3    H113353   0.424   0.845   2.759
 4449TIP3    H213354   0.561   0.857   2.697
 4450TIP3   OH213355   1.787   4.408   1.410
 4450TIP3    H113356   1.764   4.321   1.441
 4450TIP3    H213357   1.711   4.437   1.360
 4451TIP3   OH213358   0.640   2.933   3.352
 4451TIP3    H113359   0.549   2.931   3.322
 4451TIP3    H213360   0.633   2.927   3.447
 4452TIP3   OH213361   1.013   3.967   3.756
 4452TIP3    H113362   1.101   3.959   3.793
 4452TIP3    H213363   0.966   4.023   3.819
 4453TIP3   OH213364   3.531   4.322   0.616
 4453TIP3    H113365   3.544   4.314   0.521
 4453TIP3    H213366   3.575   4.245   0.653
 4454TIP3   OH213367   4.796   3.869   1.056
 4454TIP3    H113368   4.877   3.820   1.038
 4454TIP3    H213369   4.729   3.801   1.063
 4455TIP3   OH213370   4.951   0.395   3.101
 4455TIP3    H113371   4.989   0.413   3.015
 4455TIP3    H213372   5.014   0.336   3.142
 4456TIP3   OH213373   1.047   0.037   2.222
 4456TIP3    H113374   1.055   0.078   2.135
 4456TIP3    H213375   1.115   0.080   2.274
 4457TIP3   OH213376   0.545   1.248   0.590
 4457TIP3    H113377   0.608   1.311   0.554
 4457TIP3    H213378   0.521   1.194   0.514
 4458TIP3   OH213379   0.617   5.679   1.706
 4458TIP3    H113380   0.575   5.764   1.703
 4458TIP3    H213381   0.694   5.692   1.762
 4459TIP3   OH213382   4.307   4.551   3.537
 4459TIP3    H113383   4.327   4.458   3.550
 4459TIP3    H213384   4.292   4.585   3.625
 4460TIP3   OH213385   2.310   5.865   2.135
 4460TIP3    H113386   2.227   5.819   2.135
 4460TIP3    H213387   2.376   5.797   2.147
 4461TIP3   OH213388   1.588   2.648   3.626
 4461TIP3    H113389   1.546   2.671   3.709
 4461TIP3    H213390   1.643   2.724   3.605
 4462TIP3   OH213391   1.153   5.690   4.523
 4462TIP3    H113392   1.184   5.706   4.612
 4462TIP3    H213393   1.187   5.603   4.502
 4463TIP3   OH213394   0.992   4.583   3.033
 4463TIP3    H113395   1.023   4.543   2.952
 4463TIP3    H213396   0.943   4.514   3.077
 4464TIP3   OH213397   1.408   0.567   0.754
 4464TIP3    H113398   1.337   0.507   0.776
 4464TIP3    H213399   1.487   0.511   0.753
 4465TIP3   OH213400   3.481   5.285   4.312
 4465TIP3    H113401   3.546   5.351   4.288
 4465TIP3    H213402   3.456   5.246   4.229
 4466TIP3   OH213403   4.522   0.618   4.418
 4466TIP3    H113404   4.443   0.666   4.394
 4466TIP3    H213405   4.496   0.566   4.494
 4467TIP3   OH213406   1.875   4.177   0.462
 4467TIP3    H113407   1.870   4.268   0.492
 4467TIP3    H213408   1.803   4.133   0.507
 4468TIP3   OH213409   4.268   2.416   0.117
 4468TIP3    H113410   4.351   2.400   0.072
 4468TIP3    H213411   4.236   2.329   0.142
 4469TIP3   OH213412   2.531   0.041   4.699
 4469TIP3    H113413   2.477  -0.028   4.660
 4469TIP3    H213414   2.522   0.028   4.794
 4470TIP3   OH213415   1.014   5.151   4.979
 4470TIP3    H113416   0.940   5.152   4.918
 4470TIP3    H213417   1.014   5.062   5.014
 4471TIP3   OH213418   2.235   2.650   3.317
 4471TIP3    H113419   2.168   2.582   3.316
 4471TIP3    H213420   2.251   2.666   3.410
 4472TIP3   OH213421   0.689   2.937   0.432
 4472TIP3    H113422   0.697   2.844   0.415
 4472TIP3    H213423   0.604   2.961   0.395
 4473TIP3   OH213424   2.044   2.495   0.333
 4473TIP3    H113425   2.018   2.435   0.263
 4473TIP3    H213426   2.076   2.573   0.288
 4474TIP3   OH213427   2.781   4.387   1.879
 4474TIP3    H113428   2.859   4.437   1.903
 4474TIP3    H213429   2.749   4.427   1.798
 4475TIP3   OH213430   5.199   2.183   3.922
 4475TIP3    H113431   5.259   2.223   3.859
 4475TIP3    H213432   5.112   2.212   3.893
 4476TIP3   OH213433   5.750   4.388   4.321
 4476TIP3    H113434   5.740   4.390   4.416
 4476TIP3    H213435   5.663   4.368   4.288
 4477TIP3   OH213436   2.614   4.492   0.572
 4477TIP3    H113437   2.548   4.437   0.615
 4477TIP3    H213438   2.669   4.430   0.524
 4478TIP3   OH213439   1.589   3.593   2.228
 4478TIP3    H113440   1.518   3.658   2.224
 4478TIP3    H213441   1.662   3.638   2.269
 4479TIP3   OH213442   3.823   4.496   5.108
 4479TIP3    H113443   3.777   4.422   5.148
 4479TIP3    H213444   3.817   4.566   5.172
 4480TIP3   OH213445   2.672   0.835   4.451
 4480TIP3    H113446   2.611   0.788   4.507
 4480TIP3    H213447   2.736   0.769   4.424
 4481TIP3   OH213448   3.632   1.460   4.740
 4481TIP3    H113449   3.578   1.398   4.789
 4481TIP3    H213450   3.592   1.464   4.653
 4482TIP3   OH213451   3.029   3.198   0.161
 4482TIP3    H113452   3.093   3.198   0.090
 4482TIP3    H213453   3.065   3.258   0.226
 4483TIP3   OH213454   4.742   3.357   1.076
 4483TIP3    H113455   4.667   3.349   1.018
 4483TIP3    H213456   4.754   3.270   1.114
 4484TIP3   OH213457   4.621   4.019   5.098
 4484TIP3    H113458   4.681   3.963   5.147
 4484TIP3    H213459   4.596   3.968   5.022
 4485TIP3   OH213460   5.336   5.523   2.566
 4485TIP3    H113461   5.305   5.608   2.536
 4485TIP3    H213462   5.287   5.460   2.514
 4486TIP3   OH213463   6.109   2.669   4.383
 4486TIP3    H113464   6.123   2.602   4.450
 4486TIP3    H213465   6.147   2.631   4.303
 4487TIP3   OH213466   4.360   2.545   1.735
 4487TIP3    H113467   4.390   2.576   1.821
 4487TIP3    H213468   4.415   2.469   1.717
 4488TIP3   OH213469   6.082   3.804   3.303
 4488TIP3    H113470   6.077   3.880   3.246
 4488TIP3    H213471   6.063   3.729   3.246
 4489TIP3   OH213472   2.216   0.223   0.225
 4489TIP3    H113473   2.252   0.194   0.141
 4489TIP3    H213474   2.291   0.261   0.271
 4490TIP3   OH213475   3.381   4.649   0.168
 4490TIP3    H113476   3.455   4.590   0.155
 4490TIP3    H213477   3.305   4.590   0.177
 4491TIP3   OH213478   2.103   3.279   1.208
 4491TIP3    H113479   2.131   3.275   1.117
 4491TIP3    H213480   2.079   3.189   1.230
 4492TIP3   OH213481   4.425   3.795   4.950
 4492TIP3    H113482   4.385   3.760   5.030
 4492TIP3    H213483   4.489   3.729   4.924
 4493TIP3   OH213484   4.170   0.673   2.829
 4493TIP3    H113485   4.237   0.607   2.849
 4493TIP3    H213486   4.126   0.688   2.913
 4494TIP3   OH213487   5.793   5.819   0.086
 4494TIP3    H113488   5.877   5.774   0.085
 4494TIP3    H213489   5.763   5.813   0.176
 4495TIP3   OH213490   1.644   0.895   1.776
 4495TIP3    H113491   1.699   0.971   1.798
 4495TIP3    H213492   1.589   0.882   1.853
 4496TIP3   OH213493   3.821   0.835   1.679
 4496TIP3    H113494   3.753   0.866   1.739
 4496TIP3    H213495   3.902   0.868   1.716
 4497TIP3   OH213496   4.614  -0.023   3.767
 4497TIP3    H113497   4.626   0.072   3.761
 4497TIP3    H213498   4.521  -0.035   3.782
 4498TIP3   OH213499   5.985   3.649   2.249
 4498TIP3    H113500   6.073   3.679   2.274
 4498TIP3    H213501   5.986   3.555   2.267
 4499TIP3   OH213502   5.016   1.367   0.121
 4499TIP3    H113503   5.107   1.391   0.104
 4499TIP3    H213504   5.014   1.272   0.114
 4500TIP3   OH213505   5.413   0.151   1.464
 4500TIP3    H113506   5.413   0.058   1.440
 4500TIP3    H213507   5.354   0.192   1.401
 4501TIP3   OH213508   1.259   3.019   1.114
 4501TIP3    H113509   1.319   2.952   1.148
 4501TIP3    H213510   1.312   3.099   1.110
 4502TIP3   OH213511   5.960   5.821   0.522
 4502TIP3    H113512   5.985   5.914   0.521
 4502TIP3    H213513   5.973   5.795   0.613
 4503TIP3   OH213514   0.749   0.863   0.431
 4503TIP3    H113515   0.782   0.811   0.504
 4503TIP3    H213516   0.726   0.799   0.364
 4504TIP3   OH213517   5.926   1.459   1.815
 4504TIP3    H113518   5.902   1.366   1.819
 4504TIP3    H213519   5.980   1.466   1.736
 4505TIP3   OH213520   2.493   0.694   2.347
 4505TIP3    H113521   2.437   0.628   2.306
 4505TIP3    H213522   2.580   0.676   2.313
 4506TIP3   OH213523   2.672   2.010   5.000
 4506TIP3    H113524   2.581   2.041   4.993
 4506TIP3    H213525   2.681   1.945   4.930
 4507TIP3   OH213526   0.876   4.131   3.303
 4507TIP3    H113527   0.932   4.194   3.350
 4507TIP3    H213528   0.849   4.068   3.371
 4508TIP3   OH213529   2.327   1.817   4.967
 4508TIP3    H113530   2.392   1.847   4.903
 4508TIP3    H213531   2.357   1.730   4.992
 4509TIP3   OH213532   2.546   1.436   2.699
 4509TIP3    H113533   2.575   1.455   2.610
 4509TIP3    H213534   2.618   1.467   2.754
 4510TIP3   OH213535   3.196   2.860   2.265
 4510TIP3    H113536   3.110   2.895   2.290
 4510TIP3    H213537   3.257   2.932   2.281
 4511TIP3   OH213538   5.303   0.656   4.378
 4511TIP3    H113539   5.208   0.651   4.372
 4511TIP3    H213540   5.320   0.710   4.456
 4512TIP3   OH213541   0.254   3.707   2.709
 4512TIP3    H113542   0.302   3.782   2.673
 4512TIP3    H213543   0.163   3.735   2.709
 4513TIP3   OH213544   1.400   2.410   1.750
 4513TIP3    H113545   1.432   2.493   1.715
 4513TIP3    H213546   1.306   2.411   1.734
 4514TIP3   OH213547   4.565   1.354   2.870
 4514TIP3    H113548   4.572   1.445   2.898
 4514TIP3    H213549   4.511   1.313   2.937
 4515TIP3   OH213550   2.037   1.943   1.771
 4515TIP3    H113551   1.983   1.890   1.713
 4515TIP3    H213552   2.123   1.945   1.730
 4516TIP3   OH213553   4.188   3.033   1.888
 4516TIP3    H113554   4.213   3.009   1.978
 4516TIP3    H213555   4.093   3.039   1.890
 4517TIP3   OH213556   4.731   3.158   3.398
 4517TIP3    H113557   4.697   3.153   3.487
 4517TIP3    H213558   4.764   3.247   3.390
 4518TIP3   OH213559   0.163   0.340   4.272
 4518TIP3    H113560   0.087   0.323   4.328
 4518TIP3    H213561   0.239   0.326   4.329
 4519TIP3   OH213562   4.252   3.524   4.373
 4519TIP3    H113563   4.211   3.448   4.331
 4519TIP3    H213564   4.315   3.486   4.435
 4520TIP3   OH213565   2.481   5.770   1.478
 4520TIP3    H113566   2.409   5.729   1.431
 4520TIP3    H213567   2.478   5.731   1.565
 4521TIP3   OH213568   6.194   0.465   0.847
 4521TIP3    H113569   6.184   0.371   0.862
 4521TIP3    H213570   6.159   0.506   0.926
 4522TIP3   OH213571   1.225   5.790   3.528
 4522TIP3    H113572   1.204   5.882   3.542
 4522TIP3    H213573   1.210   5.776   3.434
 4523TIP3   OH213574   4.797   2.038   1.548
 4523TIP3    H113575   4.761   1.979   1.481
 4523TIP3    H213576   4.844   2.105   1.498
 4524TIP3   OH213577   3.380   4.011   1.209
 4524TIP3    H113578   3.391   3.955   1.131
 4524TIP3    H213579   3.348   3.951   1.277
 4525TIP3   OH213580   5.005   2.873   4.251
 4525TIP3    H113581   5.050   2.950   4.287
 4525TIP3    H213582   5.003   2.888   4.157
 4526TIP3   OH213583   2.640   4.448   3.418
 4526TIP3    H113584   2.592   4.468   3.337
 4526TIP3    H213585   2.619   4.356   3.436
 4527TIP3   OH213586   5.360   5.293   0.228
 4527TIP3    H113587   5.394   5.381   0.243
 4527TIP3    H213588   5.266   5.300   0.245
 4528TIP3   OH213589   5.453   3.460   4.821
 4528TIP3    H113590   5.460   3.428   4.731
 4528TIP3    H213591   5.476   3.553   4.815
 4529TIP3   OH213592   0.050   4.641   1.077
 4529TIP3    H113593  -0.040   4.669   1.064
 4529TIP3    H213594   0.056   4.624   1.171
 4530TIP3   OH213595   3.730   3.735   0.768
 4530TIP3    H113596   3.653   3.696   0.810
 4530TIP3    H213597   3.748   3.813   0.819
 4531TIP3   OH213598   3.394   1.481   4.945
 4531TIP3    H113599   3.329   1.477   4.875
 4531TIP3    H213600   3.433   1.568   4.937
 4532TIP3   OH213601   5.552   2.147   1.160
 4532TIP3    H113602   5.456   2.147   1.160
 4532TIP3    H213603   5.575   2.080   1.095
 4533TIP3   OH213604   1.993   3.664   1.335
 4533TIP3    H113605   2.057   3.735   1.331
 4533TIP3    H213606   2.012   3.619   1.417
 4534TIP3   OH213607   1.827   5.527   1.771
 4534TIP3    H113608   1.764   5.467   1.729
 4534TIP3    H213609   1.883   5.470   1.823
 4535TIP3   OH213610   4.020   5.262   0.120
 4535TIP3    H113611   3.970   5.181   0.115
 4535TIP3    H213612   3.956   5.331   0.102
 4536TIP3   OH213613   2.194   1.018   0.038
 4536TIP3    H113614   2.259   1.030   0.107
 4536TIP3    H213615   2.186   0.923   0.029
 4537TIP3   OH213616   5.700   1.412   3.266
 4537TIP3    H113617   5.617   1.396   3.310
 4537TIP3    H213618   5.724   1.327   3.228
 4538TIP3   OH213619   2.669   5.138   1.060
 4538TIP3    H113620   2.613   5.062   1.055
 4538TIP3    H213621   2.641   5.195   0.988
 4539TIP3   OH213622   4.651   1.643   1.736
 4539TIP3    H113623   4.590   1.714   1.716
 4539TIP3    H213624   4.595   1.570   1.761
 4540TIP3   OH213625   1.549   5.755   2.262
 4540TIP3    H113626   1.466   5.784   2.223
 4540TIP3    H213627   1.555   5.805   2.344
 4541TIP3   OH213628   0.581   1.145   5.122
 4541TIP3    H113629   0.567   1.237   5.144
 4541TIP3    H213630   0.603   1.145   5.029
 4542TIP3   OH213631   6.323   5.510   4.116
 4542TIP3    H113632   6.267   5.567   4.063
 4542TIP3    H213633   6.369   5.455   4.052
 4543TIP3   OH213634   3.628   5.151   2.640
 4543TIP3    H113635   3.593   5.097   2.711
 4543TIP3    H213636   3.700   5.200   2.680
 4544TIP3   OH213637   4.061   0.082   3.825
 4544TIP3    H113638   3.979   0.119   3.858
 4544TIP3    H213639   4.041  -0.010   3.807
 4545TIP3   OH213640   5.045   4.639   0.941
 4545TIP3    H113641   5.014   4.555   0.974
 4545TIP3    H213642   5.140   4.637   0.956
 4546TIP3   OH213643   6.222   1.310   3.451
 4546TIP3    H113644   6.308   1.269   3.442
 4546TIP3    H213645   6.209   1.316   3.546
 4547TIP3   OH213646   2.391   2.113   2.554
 4547TIP3    H113647   2.424   2.029   2.522
 4547TIP3    H213648   2.335   2.145   2.483
 4548TIP3   OH213649   3.763   1.336   3.635
 4548TIP3    H113650   3.805   1.313   3.553
 4548TIP3    H213651   3.728   1.253   3.668
 4549TIP3   OH213652   2.859   3.731   1.691
 4549TIP3    H113653   2.866   3.778   1.607
 4549TIP3    H213654   2.784   3.772   1.734
 4550TIP3   OH213655   4.458   1.111   5.120
 4550TIP3    H113656   4.539   1.124   5.071
 4550TIP3    H213657   4.421   1.029   5.086
 4551TIP3   OH213658   4.337   5.542   1.106
 4551TIP3    H113659   4.366   5.514   1.020
 4551TIP3    H213660   4.414   5.583   1.145
 4552TIP3   OH213661   4.856   5.754   0.275
 4552TIP3    H113662   4.947   5.779   0.290
 4552TIP3    H213663   4.852   5.732   0.182
 4553TIP3   OH213664   4.845   1.153   2.069
 4553TIP3    H113665   4.936   1.177   2.053
 4553TIP3    H213666   4.837   1.065   2.032
 4554TIP3   OH213667   5.633   5.257   0.906
 4554TIP3    H113668   5.711   5.208   0.931
 4554TIP3    H213669   5.653   5.348   0.927
 4555TIP3   OH213670   6.134   3.159   1.403
 4555TIP3    H113671   6.156   3.244   1.366
 4555TIP3    H213672   6.082   3.115   1.335
 4556TIP3   OH213673   0.248   5.848   0.025
 4556TIP3    H113674   0.185   5.777   0.022
 4556TIP3    H213675   0.265   5.861   0.119
 4557TIP3   OH213676   3.670   3.377   4.819
 4557TIP3    H113677   3.642   3.456   4.772
 4557TIP3    H213678   3.665   3.402   4.912
 4558TIP3   OH213679   4.899   1.957   1.172
 4558TIP3    H113680   4.861   2.003   1.097
 4558TIP3    H213681   4.960   2.020   1.211
 4559TIP3   OH213682   1.189   5.870   3.256
 4559TIP3    H113683   1.214   5.883   3.165
 4559TIP3    H213684   1.232   5.941   3.303
 4560TIP3   OH213685   2.611   0.825   3.621
 4560TIP3    H113686   2.517   0.829   3.636
 4560TIP3    H213687   2.648   0.891   3.680
 4561TIP3   OH213688   0.932   1.048   4.797
 4561TIP3    H113689   0.898   1.018   4.713
 4561TIP3    H213690   0.911   0.978   4.858
 4562TIP3   OH213691   3.902   0.814   3.044
 4562TIP3    H113692   3.855   0.754   2.986
 4562TIP3    H213693   3.961   0.757   3.095
 4563TIP3   OH213694   3.153   5.750   3.033
 4563TIP3    H113695   3.156   5.793   3.118
 4563TIP3    H213696   3.140   5.821   2.970
 4564TIP3   OH213697   3.094   2.820   3.118
 4564TIP3    H113698   3.135   2.762   3.053
 4564TIP3    H213699   3.041   2.761   3.172
 4565TIP3   OH213700   6.315   1.466   1.267
 4565TIP3    H113701   6.223   1.461   1.294
 4565TIP3    H213702   6.345   1.552   1.297
 4566TIP3   OH213703   5.883   0.329   2.610
 4566TIP3    H113704   5.794   0.321   2.644
 4566TIP3    H213705   5.889   0.419   2.579
 4567TIP3   OH213706   3.034   3.822   1.413
 4567TIP3    H113707   3.067   3.787   1.330
 4567TIP3    H213708   3.065   3.760   1.479
 4568TIP3   OH213709   1.555   1.420   2.333
 4568TIP3    H113710   1.553   1.509   2.299
 4568TIP3    H213711   1.607   1.425   2.414
 4569TIP3   OH213712   3.434   2.912   0.227
 4569TIP3    H113713   3.350   2.924   0.182
 4569TIP3    H213714   3.497   2.958   0.171
 4570TIP3   OH213715   2.141   1.557   4.977
 4570TIP3    H113716   2.116   1.599   4.895
 4570TIP3    H213717   2.093   1.474   4.977
 4571TIP3   OH213718   3.414   0.884   2.542
 4571TIP3    H113719   3.362   0.835   2.606
 4571TIP3    H213720   3.494   0.832   2.530
 4572TIP3   OH213721   0.047   0.403   2.763
 4572TIP3    H113722  -0.046   0.423   2.765
 4572TIP3    H213723   0.090   0.488   2.772
 4573TIP3   OH213724   1.390   2.253   4.380
 4573TIP3    H113725   1.463   2.306   4.349
 4573TIP3    H213726   1.405   2.167   4.341
 4574TIP3   OH213727   4.023   3.366   2.249
 4574TIP3    H113728   4.013   3.430   2.179
 4574TIP3    H213729   4.117   3.366   2.268
 4575TIP3   OH213730   3.140   0.774   2.418
 4575TIP3    H113731   3.153   0.869   2.413
 4575TIP3    H213732   3.199   0.738   2.351
 4576TIP3   OH213733   3.368   5.364   0.523
 4576TIP3    H113734   3.345   5.384   0.613
 4576TIP3    H213735   3.455   5.402   0.511
 4577TIP3   OH213736   4.808   5.631   1.145
 4577TIP3    H113737   4.755   5.631   1.225
 4577TIP3    H213738   4.877   5.566   1.162
 4578TIP3   OH213739   1.049   2.932   3.812
 4578TIP3    H113740   1.102   3.007   3.838
 4578TIP3    H213741   1.109   2.858   3.817
 4579TIP3   OH213742   3.346   4.441   4.200
 4579TIP3    H113743   3.319   4.523   4.241
 4579TIP3    H213744   3.394   4.468   4.122
 4580TIP3   OH213745   4.529   2.948   4.729
 4580TIP3    H113746   4.542   2.859   4.697
 4580TIP3    H213747   4.474   2.938   4.807
 4581TIP3   OH213748   0.172   0.943   4.548
 4581TIP3    H113749   0.089   0.916   4.508
 4581TIP3    H213750   0.225   0.973   4.474
 4582TIP3   OH213751   0.455   3.737   0.615
 4582TIP3    H113752   0.387   3.804   0.621
 4582TIP3    H213753   0.408   3.654   0.624
 4583TIP3   OH213754   2.211   4.532   3.388
 4583TIP3    H113755   2.233   4.488   3.471
 4583TIP3    H213756   2.132   4.582   3.408
 4584TIP3   OH213757   0.232   2.944   1.720
 4584TIP3    H113758   0.168   2.944   1.792
 4584TIP3    H213759   0.183   2.912   1.644
 4585TIP3   OH213760   3.339   3.825   1.437
 4585TIP3    H113761   3.388   3.863   1.510
 4585TIP3    H213762   3.287   3.755   1.477
 4586TIP3   OH213763   1.296   3.823   4.790
 4586TIP3    H113764   1.255   3.899   4.749
 4586TIP3    H213765   1.257   3.819   4.878
 4587TIP3   OH213766   0.096   2.728   1.412
 4587TIP3    H113767   0.179   2.691   1.442
 4587TIP3    H213768   0.091   2.702   1.319
 4588TIP3   OH213769   4.600   5.708   0.647
 4588TIP3    H113770   4.635   5.632   0.601
 4588TIP3    H213771   4.640   5.705   0.733
 4589TIP3   OH213772   3.077   2.148   3.899
 4589TIP3    H113773   3.161   2.180   3.932
 4589TIP3    H213774   3.082   2.053   3.907
 4590TIP3   OH213775   5.705   1.774   3.164
 4590TIP3    H113776   5.750   1.709   3.111
 4590TIP3    H213777   5.773   1.840   3.182
 4591TIP3   OH213778   1.619   1.249   4.745
 4591TIP3    H113779   1.666   1.322   4.786
 4591TIP3    H213780   1.530   1.256   4.779
 4592TIP3   OH213781   0.176   5.846   3.346
 4592TIP3    H113782   0.202   5.883   3.430
 4592TIP3    H213783   0.166   5.752   3.362
 4593TIP3   OH213784   0.647   5.839   3.747
 4593TIP3    H113785   0.619   5.749   3.766
 4593TIP3    H213786   0.699   5.831   3.667
 4594TIP3   OH213787   3.079   5.622   0.854
 4594TIP3    H113788   3.018   5.568   0.905
 4594TIP3    H213789   3.107   5.689   0.916
 4595TIP3   OH213790   2.212   0.713   2.468
 4595TIP3    H113791   2.239   0.641   2.526
 4595TIP3    H213792   2.286   0.773   2.468
 4596TIP3   OH213793   0.914   5.003   3.810
 4596TIP3    H113794   0.992   4.950   3.788
 4596TIP3    H213795   0.909   5.067   3.740
 4597TIP3   OH213796   3.932   0.500   2.687
 4597TIP3    H113797   3.890   0.512   2.772
 4597TIP3    H213798   3.931   0.587   2.647
 4598TIP3   OH213799   0.541   4.215   2.837
 4598TIP3    H113800   0.598   4.246   2.908
 4598TIP3    H213801   0.595   4.223   2.759
 4599TIP3   OH213802   2.281   5.929   0.160
 4599TIP3    H113803   2.328   5.968   0.086
 4599TIP3    H213804   2.346   5.927   0.231
 4600TIP3   OH213805   5.016   4.064   2.219
 4600TIP3    H113806   5.096   4.107   2.250
 4600TIP3    H213807   5.024   4.065   2.123
 4601TIP3   OH213808   0.883   3.663   1.765
 4601TIP3    H113809   0.805   3.719   1.770
 4601TIP3    H213810   0.868   3.609   1.687
 4602TIP3   OH213811   0.061   4.841   4.979
 4602TIP3    H113812   0.033   4.914   5.034
 4602TIP3    H213813   0.136   4.804   5.025
 4603TIP3   OH213814   1.386   4.553   3.321
 4603TIP3    H113815   1.353   4.464   3.334
 4603TIP3    H213816   1.384   4.592   3.408
 4604TIP3   OH213817   2.071   3.652   3.089
 4604TIP3    H113818   2.124   3.627   3.013
 4604TIP3    H213819   1.982   3.653   3.056
 4605TIP3   OH213820   4.234   5.443   3.232
 4605TIP3    H113821   4.309   5.477   3.280
 4605TIP3    H213822   4.249   5.348   3.228
 4606TIP3   OH213823   5.291   5.426   2.222
 4606TIP3    H113824   5.349   5.354   2.248
 4606TIP3    H213825   5.339   5.470   2.151
 4607TIP3   OH213826   0.810   4.042   3.059
 4607TIP3    H113827   0.838   4.075   3.144
 4607TIP3    H213828   0.857   3.959   3.049
 4608TIP3   OH213829   3.384   5.553   0.042
 4608TIP3    H113830   3.441   5.582  -0.029
 4608TIP3    H213831   3.442   5.503   0.100
 4609TIP3   OH213832   0.561   4.555   4.772
 4609TIP3    H113833   0.486   4.582   4.719
 4609TIP3    H213834   0.586   4.634   4.820
 4610TIP3   OH213835   3.183   2.098   1.988
 4610TIP3    H113836   3.269   2.059   2.001
 4610TIP3    H213837   3.137   2.036   1.931
 4611TIP3   OH213838   1.605   1.745   3.285
 4611TIP3    H113839   1.563   1.702   3.359
 4611TIP3    H213840   1.594   1.838   3.303
 4612TIP3   OH213841   2.345   0.877   3.673
 4612TIP3    H113842   2.266   0.853   3.721
 4612TIP3    H213843   2.322   0.864   3.581
 4613TIP3   OH213844   5.849   3.811   0.271
 4613TIP3    H113845   5.842   3.868   0.195
 4613TIP3    H213846   5.771   3.755   0.266
 4614TIP3   OH213847   0.670   1.370   0.360
 4614TIP3    H113848   0.627   1.343   0.279
 4614TIP3    H213849   0.741   1.307   0.372
 4615TIP3   OH213850   1.814   3.712   3.019
 4615TIP3    H113851   1.777   3.624   3.011
 4615TIP3    H213852   1.745   3.769   2.985
 4616TIP3   OH213853   1.041   0.244   0.795
 4616TIP3    H113854   1.093   0.322   0.773
 4616TIP3    H213855   1.009   0.212   0.710
 4617TIP3   OH213856   4.549   0.952   4.044
 4617TIP3    H113857   4.545   1.012   3.969
 4617TIP3    H213858   4.619   0.890   4.022
 4618TIP3   OH213859   2.220   0.445   1.410
 4618TIP3    H113860   2.261   0.362   1.431
 4618TIP3    H213861   2.132   0.422   1.380
 4619TIP3   OH213862   1.830   3.315   2.447
 4619TIP3    H113863   1.920   3.323   2.414
 4619TIP3    H213864   1.828   3.372   2.524
 4620TIP3   OH213865   4.668   1.661   1.017
 4620TIP3    H113866   4.621   1.744   1.022
 4620TIP3    H213867   4.702   1.648   1.106
 4621TIP3   OH213868   2.928   1.877   4.504
 4621TIP3    H113869   2.899   1.910   4.589
 4621TIP3    H213870   2.920   1.952   4.446
 4622TIP3   OH213871   3.118   0.317   4.934
 4622TIP3    H113872   3.104   0.259   5.009
 4622TIP3    H213873   3.072   0.273   4.862
 4623TIP3   OH213874   4.308   4.638   4.466
 4623TIP3    H113875   4.388   4.601   4.503
 4623TIP3    H213876   4.271   4.568   4.413
 4624TIP3   OH213877   6.232   4.030   1.596
 4624TIP3    H113878   6.283   3.954   1.625
 4624TIP3    H213879   6.166   4.042   1.664
 4625TIP3   OH213880   3.284   5.467   2.604
 4625TIP3    H113881   3.288   5.504   2.516
 4625TIP3    H213882   3.191   5.464   2.625
 4626TIP3   OH213883   1.674   5.311   1.357
 4626TIP3    H113884   1.740   5.313   1.288
 4626TIP3    H213885   1.613   5.242   1.331
 4627TIP3   OH213886   4.347   1.281   2.682
 4627TIP3    H113887   4.405   1.282   2.606
 4627TIP3    H213888   4.401   1.314   2.754
 4628TIP3   OH213889   4.058   0.279   0.823
 4628TIP3    H113890   3.993   0.315   0.883
 4628TIP3    H213891   4.013   0.207   0.779
 4629TIP3   OH213892   1.723   5.127   1.703
 4629TIP3    H113893   1.718   5.066   1.776
 4629TIP3    H213894   1.744   5.073   1.627
 4630TIP3   OH213895   5.784   2.861   2.713
 4630TIP3    H113896   5.709   2.812   2.747
 4630TIP3    H213897   5.820   2.806   2.644
 4631TIP3   OH213898   4.392   4.363   0.935
 4631TIP3    H113899   4.331   4.352   1.008
 4631TIP3    H213900   4.397   4.277   0.895
 4632TIP3   OH213901   1.822   4.029   5.168
 4632TIP3    H113902   1.808   4.112   5.213
 4632TIP3    H213903   1.741   4.013   5.121
 4633TIP3   OH213904   4.911   4.425   4.025
 4633TIP3    H113905   4.885   4.359   4.090
 4633TIP3    H213906   4.858   4.501   4.048
 4634TIP3   OH213907   2.047   5.153   2.082
 4634TIP3    H113908   2.136   5.124   2.103
 4634TIP3    H213909   1.990   5.094   2.131
 4635TIP3   OH213910   2.837   5.849   4.559
 4635TIP3    H113911   2.886   5.815   4.634
 4635TIP3    H213912   2.844   5.944   4.567
 4636TIP3   OH213913   0.511   0.870   3.414
 4636TIP3    H113914   0.526   0.822   3.496
 4636TIP3    H213915   0.588   0.852   3.361
 4637TIP3   OH213916   2.769   0.069   3.927
 4637TIP3    H113917   2.852   0.114   3.944
 4637TIP3    H213918   2.791   0.002   3.862
 4638TIP3   OH213919   0.798   4.810   2.922
 4638TIP3    H113920   0.847   4.738   2.963
 4638TIP3    H213921   0.866   4.869   2.889
 4639TIP3   OH213922   2.868   3.987   0.106
 4639TIP3    H113923   2.942   4.048   0.108
 4639TIP3    H213924   2.798   4.036   0.061
 4640TIP3   OH213925   0.326   2.036   1.925
 4640TIP3    H113926   0.348   1.970   1.991
 4640TIP3    H213927   0.254   1.996   1.875
 4641TIP3   OH213928   5.995   1.817   2.238
 4641TIP3    H113929   5.908   1.790   2.211
 4641TIP3    H213930   6.042   1.835   2.157
 4642TIP3   OH213931   0.226   2.344   3.833
 4642TIP3    H113932   0.249   2.435   3.853
 4642TIP3    H213933   0.310   2.297   3.833
 4643TIP3   OH213934   4.606   3.076   2.071
 4643TIP3    H113935   4.681   3.051   2.126
 4643TIP3    H213936   4.536   3.095   2.133
 4644TIP3   OH213937   2.581   5.748   4.572
 4644TIP3    H113938   2.658   5.805   4.577
 4644TIP3    H213939   2.610   5.672   4.522
 4645TIP3   OH213940   1.838   2.169   4.213
 4645TIP3    H113941   1.859   2.260   4.233
 4645TIP3    H213942   1.828   2.167   4.118
 4646TIP3   OH213943   2.914   2.186   1.823
 4646TIP3    H113944   2.883   2.175   1.913
 4646TIP3    H213945   2.874   2.114   1.775
 4647TIP3   OH213946   3.265   3.558   1.207
 4647TIP3    H113947   3.193   3.544   1.268
 4647TIP3    H213948   3.323   3.483   1.220
 4648TIP3   OH213949   1.211   3.216   3.288
 4648TIP3    H113950   1.205   3.260   3.203
 4648TIP3    H213951   1.121   3.214   3.321
 4649TIP3   OH213952   0.004   0.253   1.211
 4649TIP3    H113953   0.028   0.230   1.121
 4649TIP3    H213954   0.031   0.177   1.263
 4650TIP3   OH213955   0.886   4.809  -0.010
 4650TIP3    H113956   0.864   4.719   0.015
 4650TIP3    H213957   0.974   4.823   0.025
 4651TIP3   OH213958   6.275   5.551   3.675
 4651TIP3    H113959   6.258   5.608   3.600
 4651TIP3    H213960   6.306   5.469   3.636
 4652TIP3   OH213961   3.146   0.076   4.757
 4652TIP3    H113962   3.237   0.047   4.770
 4652TIP3    H213963   3.094   0.007   4.798
 4653TIP3   OH213964   4.720   0.706   4.244
 4653TIP3    H113965   4.648   0.683   4.302
 4653TIP3    H213966   4.780   0.631   4.250
 4654TIP3   OH213967   3.103   2.870   4.455
 4654TIP3    H113968   3.184   2.866   4.404
 4654TIP3    H213969   3.035   2.884   4.389
 4655TIP3   OH213970   1.115   0.843   0.920
 4655TIP3    H113971   1.052   0.832   0.992
 4655TIP3    H213972   1.062   0.838   0.841
 4656TIP3   OH213973   1.847   0.064   1.989
 4656TIP3    H113974   1.933   0.024   2.002
 4656TIP3    H213975   1.785  -0.007   2.004
 4657TIP3   OH213976   3.409   0.777   3.279
 4657TIP3    H113977   3.475   0.820   3.333
 4657TIP3    H213978   3.338   0.756   3.340
 4658TIP3   OH213979   5.219   1.954   2.107
 4658TIP3    H113980   5.273   1.891   2.058
 4658TIP3    H213981   5.131   1.941   2.073
 4659TIP3   OH213982   1.360   2.324   2.157
 4659TIP3    H113983   1.298   2.392   2.183
 4659TIP3    H213984   1.329   2.295   2.071
 4660TIP3   OH213985   3.138   1.256   3.333
 4660TIP3    H113986   3.210   1.212   3.288
 4660TIP3    H213987   3.149   1.232   3.425
 4661TIP3   OH213988   4.505   4.415   2.834
 4661TIP3    H113989   4.436   4.373   2.885
 4661TIP3    H213990   4.523   4.353   2.763
 4662TIP3   OH213991   6.017   4.260   4.012
 4662TIP3    H113992   5.972   4.198   3.955
 4662TIP3    H213993   6.107   4.226   4.018
 4663TIP3   OH213994   0.906   3.507   4.080
 4663TIP3    H113995   0.973   3.543   4.138
 4663TIP3    H213996   0.863   3.439   4.131
 4664TIP3   OH213997   6.133   5.666   4.007
 4664TIP3    H113998   6.087   5.655   4.090
 4664TIP3    H213999   6.088   5.606   3.947
 4665TIP3   OH214000   2.739   0.045   4.242
 4665TIP3    H114001   2.726   0.028   4.149
 4665TIP3    H214002   2.676   0.114   4.263
 4666TIP3   OH214003   4.901   2.094   0.679
 4666TIP3    H114004   4.908   2.061   0.589
 4666TIP3    H214005   4.813   2.067   0.707
 4667TIP3   OH214006   2.058   5.327   2.674
 4667TIP3    H114007   2.148   5.295   2.676
 4667TIP3    H214008   2.008   5.257   2.632
 4668TIP3   OH214009   0.357   0.134   4.638
 4668TIP3    H114010   0.313   0.071   4.580
 4668TIP3    H214011   0.355   0.093   4.724
 4669TIP3   OH214012   0.280   0.617   2.096
 4669TIP3    H114013   0.358   0.649   2.141
 4669TIP3    H214014   0.307   0.534   2.057
 4670TIP3   OH214015   0.892   1.122   0.364
 4670TIP3    H114016   0.980   1.159   0.375
 4670TIP3    H214017   0.888   1.050   0.427
 4671TIP3   OH214018   4.350   2.951   4.014
 4671TIP3    H114019   4.357   2.976   4.106
 4671TIP3    H214020   4.344   2.856   4.015
 4672TIP3   OH214021   3.630   3.055   0.083
 4672TIP3    H114022   3.706   2.996   0.087
 4672TIP3    H214023   3.654   3.119   0.016
 4673TIP3   OH214024   2.908   4.915   1.003
 4673TIP3    H114025   2.960   4.848   0.958
 4673TIP3    H214026   2.928   4.996   0.955
 4674TIP3   OH214027   6.210   0.161   2.451
 4674TIP3    H114028   6.237   0.072   2.427
 4674TIP3    H214029   6.292   0.210   2.455
 4675TIP3   OH214030   1.898   2.581   3.480
 4675TIP3    H114031   1.937   2.528   3.410
 4675TIP3    H214032   1.887   2.668   3.442
 4676TIP3   OH214033   2.602   3.132   1.390
 4676TIP3    H114034   2.519   3.100   1.355
 4676TIP3    H214035   2.641   3.182   1.318
 4677TIP3   OH214036   0.935   3.925   4.530
 4677TIP3    H114037   0.903   4.006   4.571
 4677TIP3    H214038   0.977   3.955   4.450
 4678TIP3   OH214039   6.299   0.712   0.010
 4678TIP3    H114040   6.277   0.771   0.082
 4678TIP3    H214041   6.387   0.681   0.030
 4679TIP3   OH214042   4.394   2.102   4.498
 4679TIP3    H114043   4.450   2.068   4.428
 4679TIP3    H214044   4.446   2.092   4.577
 4680TIP3   OH214045   2.346   1.679   0.371
 4680TIP3    H114046   2.412   1.719   0.315
 4680TIP3    H214047   2.268   1.733   0.358
 4681TIP3   OH214048   4.372   0.153   5.211
 4681TIP3    H114049   4.306   0.138   5.144
 4681TIP3    H214050   4.454   0.119   5.173
 4682TIP3   OH214051   5.346   5.568   4.360
 4682TIP3    H114052   5.380   5.518   4.286
 4682TIP3    H214053   5.359   5.511   4.436
 4683TIP3   OH214054   2.368   3.058   2.322
 4683TIP3    H114055   2.349   2.991   2.257
 4683TIP3    H214056   2.403   3.010   2.397
 4684TIP3   OH214057   6.017   5.849   1.381
 4684TIP3    H114058   5.928   5.884   1.387
 4684TIP3    H214059   6.064   5.890   1.453
 4685TIP3   OH214060   2.829   5.468   3.394
 4685TIP3    H114061   2.911   5.456   3.347
 4685TIP3    H214062   2.778   5.528   3.339
 4686TIP3   OH214063   6.288   4.134   1.327
 4686TIP3    H114064   6.254   4.098   1.409
 4686TIP3    H214065   6.300   4.057   1.271
 4687TIP3   OH214066   1.693   3.317   4.892
 4687TIP3    H114067   1.695   3.401   4.845
 4687TIP3    H214068   1.776   3.275   4.868
 4688TIP3   OH214069   0.534   2.869   2.404
 4688TIP3    H114070   0.519   2.779   2.431
 4688TIP3    H214071   0.541   2.865   2.309
 4689TIP3   OH214072   5.952   2.114   1.153
 4689TIP3    H114073   5.940   2.200   1.193
 4689TIP3    H214074   5.927   2.126   1.061
 4690TIP3   OH214075   0.213   1.687   2.599
 4690TIP3    H114076   0.221   1.648   2.687
 4690TIP3    H214077   0.227   1.780   2.613
 4691TIP3   OH214078   0.971   2.710   1.767
 4691TIP3    H114079   0.903   2.658   1.724
 4691TIP3    H214080   0.949   2.706   1.860
 4692TIP3   OH214081   2.551   0.541   2.721
 4692TIP3    H114082   2.481   0.486   2.686
 4692TIP3    H214083   2.527   0.630   2.693
 4693TIP3   OH214084   6.217   4.633   4.943
 4693TIP3    H114085   6.200   4.607   5.034
 4693TIP3    H214086   6.262   4.717   4.951
 4694TIP3   OH214087   4.482   2.957   2.989
 4694TIP3    H114088   4.460   2.950   2.897
 4694TIP3    H214089   4.535   2.880   3.007
 4695TIP3   OH214090   3.617   1.309   3.129
 4695TIP3    H114091   3.696   1.346   3.089
 4695TIP3    H214092   3.592   1.374   3.195
 4696TIP3   OH214093   5.285   5.804   2.505
 4696TIP3    H114094   5.241   5.857   2.572
 4696TIP3    H214095   5.370   5.847   2.493
 4697TIP3   OH214096   4.794   2.768   0.342
 4697TIP3    H114097   4.714   2.817   0.363
 4697TIP3    H214098   4.834   2.816   0.270
 4698TIP3   OH214099   4.052   2.637   3.546
 4698TIP3    H114100   4.068   2.554   3.501
 4698TIP3    H214101   3.967   2.665   3.513
 4699TIP3   OH214102   3.385   0.980   2.292
 4699TIP3    H114103   3.387   0.961   2.386
 4699TIP3    H214104   3.370   0.895   2.251
 4700TIP3   OH214105   5.970   2.888   4.745
 4700TIP3    H114106   5.930   2.858   4.826
 4700TIP3    H214107   6.054   2.842   4.741
 4701TIP3   OH214108   2.638   4.243   4.692
 4701TIP3    H114109   2.707   4.256   4.626
 4701TIP3    H214110   2.650   4.316   4.753
 4702TIP3   OH214111   0.774   2.396   3.351
 4702TIP3    H114112   0.742   2.329   3.291
 4702TIP3    H214113   0.869   2.395   3.340
 4703TIP3   OH214114   6.186   1.066   0.364
 4703TIP3    H114115   6.259   1.035   0.417
 4703TIP3    H214116   6.225   1.088   0.280
 4704TIP3   OH214117   1.149   4.209   4.125
 4704TIP3    H114118   1.137   4.303   4.137
 4704TIP3    H214119   1.166   4.199   4.031
 4705TIP3   OH214120   4.399   1.607   2.801
 4705TIP3    H114121   4.463   1.617   2.730
 4705TIP3    H214122   4.411   1.686   2.855
 4706TIP3   OH214123   5.277   1.906   2.480
 4706TIP3    H114124   5.206   1.843   2.491
 4706TIP3    H214125   5.327   1.901   2.561
 4707TIP3   OH214126   5.315   4.468   3.146
 4707TIP3    H114127   5.252   4.509   3.205
 4707TIP3    H214128   5.292   4.501   3.059
 4708TIP3   OH214129   6.217   0.983   2.824
 4708TIP3    H114130   6.172   1.013   2.903
 4708TIP3    H214131   6.147   0.973   2.759
 4709TIP3   OH214132   1.701   1.266   4.069
 4709TIP3    H114133   1.633   1.296   4.129
 4709TIP3    H214134   1.721   1.343   4.015
 4710TIP3   OH214135   0.011   0.473   4.096
 4710TIP3    H114136   0.019   0.420   4.017
 4710TIP3    H214137   0.064   0.427   4.161
 4711TIP3   OH214138   4.518   1.258   3.612
 4711TIP3    H114139   4.573   1.184   3.635
 4711TIP3    H214140   4.577   1.319   3.568
 4712TIP3   OH214141   2.355   5.231   3.261
 4712TIP3    H114142   2.274   5.256   3.218
 4712TIP3    H214143   2.363   5.292   3.334
 4713TIP3   OH214144   1.648   1.386   3.594
 4713TIP3    H114145   1.692   1.331   3.529
 4713TIP3    H214146   1.617   1.324   3.661
 4714TIP3   OH214147   1.473   0.164   3.428
 4714TIP3    H114148   1.530   0.133   3.498
 4714TIP3    H214149   1.422   0.235   3.468
 4715TIP3   OH214150   6.272   5.454   2.663
 4715TIP3    H114151   6.206   5.486   2.601
 4715TIP3    H214152   6.324   5.532   2.684
 4716TIP3   OH214153   1.836   5.825   0.058
 4716TIP3    H114154   1.762   5.842   0.000
 4716TIP3    H214155   1.879   5.910   0.067
 4717TIP3   OH214156   0.213   1.877   3.779
 4717TIP3    H114157   0.300   1.896   3.744
 4717TIP3    H214158   0.222   1.892   3.873
 4718TIP3   OH214159   5.551   2.451   1.089
 4718TIP3    H114160   5.628   2.461   1.145
 4718TIP3    H214161   5.548   2.358   1.068
 4719TIP3   OH214162   3.872   2.960   0.143
 4719TIP3    H114163   3.925   2.948   0.222
 4719TIP3    H214164   3.852   3.054   0.142
 4720TIP3   OH214165   3.863   4.317   0.219
 4720TIP3    H114166   3.794   4.365   0.265
 4720TIP3    H214167   3.943   4.338   0.268
 4721TIP3   OH214168   5.306   1.149   4.936
 4721TIP3    H114169   5.259   1.213   4.991
 4721TIP3    H214170   5.367   1.106   4.997
 4722TIP3   OH214171   5.901   2.940   0.491
 4722TIP3    H114172   5.835   2.937   0.422
 4722TIP3    H214173   5.854   2.914   0.570
 4723TIP3   OH214174   4.260   4.796   1.343
 4723TIP3    H114175   4.273   4.745   1.262
 4723TIP3    H214176   4.347   4.800   1.383
 4724TIP3   OH214177   1.108   2.555   1.549
 4724TIP3    H114178   1.117   2.506   1.631
 4724TIP3    H214179   1.042   2.622   1.569
 4725TIP3   OH214180   6.290   4.421   2.693
 4725TIP3    H114181   6.218   4.478   2.718
 4725TIP3    H214182   6.272   4.397   2.602
 4726TIP3   OH214183   0.037   0.687   3.711
 4726TIP3    H114184   0.130   0.689   3.686
 4726TIP3    H214185  -0.005   0.748   3.651
 4727TIP3   OH214186   0.390   4.863   3.666
 4727TIP3    H114187   0.480   4.862   3.698
 4727TIP3    H214188   0.337   4.884   3.744
 4728TIP3   OH214189   5.768   4.860   2.965
 4728TIP3    H114190   5.711   4.796   2.922
 4728TIP3    H214191   5.753   4.942   2.918
 4729TIP3   OH214192   1.580   1.344   0.337
 4729TIP3    H114193   1.580   1.394   0.419
 4729TIP3    H214194   1.655   1.378   0.288
 4730TIP3   OH214195   5.125   2.388   1.299
 4730TIP3    H114196   5.196   2.337   1.339
 4730TIP3    H214197   5.090   2.331   1.231
 4731TIP3   OH214198   3.431   1.773   1.104
 4731TIP3    H114199   3.357   1.831   1.117
 4731TIP3    H214200   3.399   1.705   1.045
 4732TIP3   OH214201   1.908   4.464   0.187
 4732TIP3    H114202   1.953   4.536   0.143
 4732TIP3    H214203   1.953   4.454   0.271
 4733TIP3   OH214204   0.162   0.612   0.115
 4733TIP3    H114205   0.121   0.608   0.201
 4733TIP3    H214206   0.242   0.559   0.124
 4734TIP3   OH214207   0.071   2.856   4.645
 4734TIP3    H114208  -0.006   2.828   4.694
 4734TIP3    H214209   0.067   2.806   4.563
 4735TIP3   OH214210   1.994   4.487   2.228
 4735TIP3    H114211   2.010   4.568   2.180
 4735TIP3    H214212   1.902   4.467   2.211
 4736TIP3   OH214213   0.970   4.028   2.259
 4736TIP3    H114214   1.026   4.017   2.182
 4736TIP3    H214215   1.031   4.052   2.329
 4737TIP3   OH214216   5.277   5.401   1.141
 4737TIP3    H114217   5.288   5.323   1.087
 4737TIP3    H214218   5.333   5.387   1.217
 4738TIP3   OH214219   4.094   3.166   3.214
 4738TIP3    H114220   4.064   3.098   3.274
 4738TIP3    H214221   4.028   3.235   3.220
 4739TIP3   OH214222   0.848   3.650   1.377
 4739TIP3    H114223   0.795   3.639   1.456
 4739TIP3    H214224   0.831   3.572   1.325
 4740TIP3   OH214225   2.735   2.036   1.005
 4740TIP3    H114226   2.798   2.047   1.076
 4740TIP3    H214227   2.715   1.943   1.004
 4741TIP3   OH214228   0.480   2.777   3.095
 4741TIP3    H114229   0.527   2.843   3.045
 4741TIP3    H214230   0.425   2.827   3.155
 4742TIP3   OH214231   0.920   3.725   0.815
 4742TIP3    H114232   0.825   3.736   0.808
 4742TIP3    H214233   0.936   3.637   0.779
 4743TIP3   OH214234   5.526   4.264   0.716
 4743TIP3    H114235   5.535   4.199   0.646
 4743TIP3    H214236   5.432   4.282   0.719
 4744TIP3   OH214237   0.452   3.497  -0.007
 4744TIP3    H114238   0.386   3.540   0.048
 4744TIP3    H214239   0.489   3.430   0.050
 4745TIP3   OH214240   0.167   4.171   0.569
 4745TIP3    H114241   0.223   4.156   0.493
 4745TIP3    H214242   0.087   4.208   0.533
 4746TIP3   OH214243   0.898   2.783   2.379
 4746TIP3    H114244   0.981   2.778   2.426
 4746TIP3    H214245   0.849   2.852   2.424
 4747TIP3   OH214246   5.434   0.825   5.048
 4747TIP3    H114247   5.346   0.807   5.014
 4747TIP3    H214248   5.425   0.822   5.143
 4748TIP3   OH214249   1.066   3.636   3.649
 4748TIP3    H114250   1.150   3.682   3.655
 4748TIP3    H214251   1.020   3.661   3.729
 4749TIP3   OH214252   4.990   1.722   4.525
 4749TIP3    H114253   4.912   1.697   4.574
 4749TIP3    H214254   5.062   1.708   4.587
 4750TIP3   OH214255   4.140   4.324   4.661
 4750TIP3    H114256   4.142   4.268   4.583
 4750TIP3    H214257   4.228   4.361   4.665
 4751TIP3   OH214258   3.100   2.792   4.172
 4751TIP3    H114259   3.131   2.836   4.093
 4751TIP3    H214260   3.178   2.784   4.227
 4752TIP3   OH214261   0.172   1.962   4.717
 4752TIP3    H114262   0.247   2.005   4.675
 4752TIP3    H214263   0.203   1.873   4.734
 4753TIP3   OH214264   0.254   2.704   2.080
 4753TIP3    H114265   0.271   2.749   1.998
 4753TIP3    H214266   0.341   2.691   2.118
 4754TIP3   OH214267   0.146   0.104   2.196
 4754TIP3    H114268   0.177   0.190   2.225
 4754TIP3    H214269   0.173   0.044   2.266
 4755TIP3   OH214270   2.102   5.032   2.449
 4755TIP3    H114271   2.144   4.961   2.400
 4755TIP3    H214272   2.115   5.110   2.394
 4756TIP3   OH214273   2.545   0.320   3.886
 4756TIP3    H114274   2.497   0.371   3.820
 4756TIP3    H214275   2.574   0.385   3.950
 4757TIP3   OH214276   3.221   2.018   1.338
 4757TIP3    H114277   3.198   2.094   1.391
 4757TIP3    H214278   3.268   2.054   1.263
 4758TIP3   OH214279   3.642   0.469   3.352
 4758TIP3    H114280   3.621   0.481   3.259
 4758TIP3    H214281   3.570   0.511   3.398
 4759TIP3   OH214282   3.550   0.166   0.061
 4759TIP3    H114283   3.534   0.162   0.155
 4759TIP3    H214284   3.465   0.145   0.022
 4760TIP3   OH214285   4.940   5.431   4.370
 4760TIP3    H114286   4.855   5.476   4.373
 4760TIP3    H214287   5.005   5.501   4.374
 4761TIP3   OH214288   3.469   4.693   2.716
 4761TIP3    H114289   3.507   4.649   2.640
 4761TIP3    H214290   3.455   4.623   2.779
 4762TIP3   OH214291   1.793   1.174   1.199
 4762TIP3    H114292   1.791   1.088   1.240
 4762TIP3    H214293   1.728   1.226   1.247
 4763TIP3   OH214294   3.908   1.594   4.562
 4763TIP3    H114295   3.908   1.683   4.597
 4763TIP3    H214296   3.869   1.602   4.475
 4764TIP3   OH214297   3.578   2.756   1.916
 4764TIP3    H114298   3.531   2.711   1.986
 4764TIP3    H214299   3.596   2.687   1.852
 4765TIP3   OH214300   2.890   4.636   2.183
 4765TIP3    H114301   2.920   4.609   2.270
 4765TIP3    H214302   2.971   4.650   2.133
 4766TIP3   OH214303   2.316   3.999   3.481
 4766TIP3    H114304   2.273   3.941   3.544
 4766TIP3    H214305   2.243   4.038   3.431
 4767TIP3   OH214306   3.566   4.456   0.077
 4767TIP3    H114307   3.652   4.449   0.035
 4767TIP3    H214308   3.535   4.365   0.084
 4768TIP3   OH214309   4.511   5.786   2.682
 4768TIP3    H114310   4.566   5.832   2.745
 4768TIP3    H214311   4.444   5.850   2.657
 4769TIP3   OH214312   2.599   4.757   2.086
 4769TIP3    H114313   2.516   4.783   2.047
 4769TIP3    H214314   2.590   4.663   2.102
 4770TIP3   OH214315   5.120   0.663   0.872
 4770TIP3    H114316   5.044   0.629   0.826
 4770TIP3    H214317   5.116   0.623   0.959
 4771TIP3   OH214318   6.004   2.428   4.825
 4771TIP3    H114319   6.040   2.339   4.817
 4771TIP3    H214320   6.079   2.480   4.855
 4772TIP3   OH214321   1.560   5.320   4.917
 4772TIP3    H114322   1.596   5.365   4.993
 4772TIP3    H214323   1.493   5.379   4.883
 4773TIP3   OH214324   0.039   2.147   2.595
 4773TIP3    H114325   0.069   2.237   2.579
 4773TIP3    H214326  -0.044   2.141   2.547
 4774TIP3   OH214327   4.447   2.300   4.722
 4774TIP3    H114328   4.355   2.322   4.737
 4774TIP3    H214329   4.450   2.204   4.725
 4775TIP3   OH214330   2.174   4.344   4.393
 4775TIP3    H114331   2.174   4.258   4.435
 4775TIP3    H214332   2.123   4.331   4.313
 4776TIP3   OH214333   0.450   2.230   0.701
 4776TIP3    H114334   0.489   2.155   0.655
 4776TIP3    H214335   0.356   2.222   0.682
 4777TIP3   OH214336   5.538   4.095   1.493
 4777TIP3    H114337   5.584   4.017   1.464
 4777TIP3    H214338   5.446   4.076   1.474
 4778TIP3   OH214339   0.670   4.244   3.146
 4778TIP3    H114340   0.670   4.215   3.237
 4778TIP3    H214341   0.683   4.164   3.095
 4779TIP3   OH214342   3.952   4.568   3.429
 4779TIP3    H114343   3.859   4.567   3.450
 4779TIP3    H214344   3.991   4.508   3.493
 4780TIP3   OH214345   3.584   3.658   3.448
 4780TIP3    H114346   3.585   3.739   3.398
 4780TIP3    H214347   3.626   3.681   3.531
 4781TIP3   OH214348   4.420   0.296   0.831
 4781TIP3    H114349   4.442   0.231   0.764
 4781TIP3    H214350   4.490   0.361   0.825
 4782TIP3   OH214351   6.150   3.045   4.052
 4782TIP3    H114352   6.140   3.019   4.144
 4782TIP3    H214353   6.077   3.001   4.008
 4783TIP3   OH214354   3.137   2.354   1.986
 4783TIP3    H114355   3.154   2.262   1.965
 4783TIP3    H214356   3.086   2.352   2.066
 4784TIP3   OH214357   4.132   4.038   3.715
 4784TIP3    H114358   4.157   3.968   3.775
 4784TIP3    H214359   4.208   4.096   3.711
 4785TIP3   OH214360   3.602   3.038   1.622
 4785TIP3    H114361   3.540   3.111   1.623
 4785TIP3    H214362   3.563   2.973   1.565
 4786TIP3   OH214363   4.217   5.821   0.191
 4786TIP3    H114364   4.168   5.741   0.208
 4786TIP3    H214365   4.200   5.841   0.099
 4787TIP3   OH214366   6.268   2.848   0.709
 4787TIP3    H114367   6.205   2.918   0.693
 4787TIP3    H214368   6.326   2.850   0.633
 4788TIP3   OH214369   0.880   2.766   2.082
 4788TIP3    H114370   0.885   2.774   2.177
 4788TIP3    H214371   0.891   2.856   2.050
 4789TIP3   OH214372   3.797   0.237   2.340
 4789TIP3    H114373   3.755   0.239   2.426
 4789TIP3    H214374   3.728   0.211   2.280
 4790TIP3   OH214375   1.513   3.872   2.710
 4790TIP3    H114376   1.485   3.780   2.714
 4790TIP3    H214377   1.556   3.887   2.795
 4791TIP3   OH214378   4.076   5.372   2.205
 4791TIP3    H114379   4.030   5.329   2.278
 4791TIP3    H214380   4.165   5.387   2.238
 4792TIP3   OH214381   3.470   5.937   2.089
 4792TIP3    H114382   3.501   6.014   2.043
 4792TIP3    H214383   3.549   5.887   2.110
 4793TIP3   OH214384   4.881   3.145   0.893
 4793TIP3    H114385   4.895   3.059   0.853
 4793TIP3    H214386   4.819   3.189   0.834
 4794TIP3   OH214387   0.839   5.670   2.413
 4794TIP3    H114388   0.775   5.720   2.463
 4794TIP3    H214389   0.878   5.611   2.477
 4795TIP3   OH214390   5.695   1.523   2.653
 4795TIP3    H114391   5.750   1.445   2.662
 4795TIP3    H214392   5.640   1.505   2.576
 4796TIP3   OH214393   6.081   4.536   2.789
 4796TIP3    H114394   6.057   4.478   2.861
 4796TIP3    H214395   6.000   4.546   2.739
 4797TIP3   OH214396   0.187   5.301   4.285
 4797TIP3    H114397   0.100   5.285   4.322
 4797TIP3    H214398   0.248   5.274   4.354
 4798TIP3   OH214399   2.390   5.500   4.463
 4798TIP3    H114400   2.344   5.454   4.532
 4798TIP3    H214401   2.482   5.480   4.477
 4799TIP3   OH214402   0.780   4.682   1.134
 4799TIP3    H114403   0.719   4.635   1.078
 4799TIP3    H214404   0.748   4.667   1.223
 4800TIP3   OH214405   5.487   0.228   1.021
 4800TIP3    H114406   5.531   0.198   1.100
 4800TIP3    H214407   5.409   0.274   1.053
 4801TIP3   OH214408   0.986   2.669   0.286
 4801TIP3    H114409   0.920   2.724   0.245
 4801TIP3    H214410   0.957   2.579   0.269
 4802TIP3   OH214411   4.682   5.930   2.829
 4802TIP3    H114412   4.684   6.025   2.822
 4802TIP3    H214413   4.702   5.912   2.921
 4803TIP3   OH214414   4.482   5.699   1.266
 4803TIP3    H114415   4.519   5.778   1.227
 4803TIP3    H214416   4.524   5.693   1.351
 4804TIP3   OH214417   4.364   0.659   1.112
 4804TIP3    H114418   4.381   0.666   1.206
 4804TIP3    H214419   4.451   0.649   1.073
 4805TIP3   OH214420   3.108   2.694   2.702
 4805TIP3    H114421   3.015   2.683   2.721
 4805TIP3    H214422   3.114   2.775   2.653
 4806TIP3   OH214423   2.334   4.969   0.077
 4806TIP3    H114424   2.314   4.923  -0.005
 4806TIP3    H214425   2.347   5.060   0.051
 4807TIP3   OH214426   3.743   5.178   3.001
 4807TIP3    H114427   3.705   5.161   3.087
 4807TIP3    H214428   3.775   5.093   2.971
 4808TIP3   OH214429   3.407   2.936   0.679
 4808TIP3    H114430   3.444   2.984   0.753
 4808TIP3    H214431   3.397   3.002   0.610
 4809TIP3   OH214432   4.158   0.474   2.524
 4809TIP3    H114433   4.181   0.538   2.457
 4809TIP3    H214434   4.090   0.517   2.576
 4810TIP3   OH214435   3.290   0.601   0.998
 4810TIP3    H114436   3.357   0.670   1.001
 4810TIP3    H214437   3.327   0.535   0.939
 4811TIP3   OH214438   1.274   1.377   2.360
 4811TIP3    H114439   1.238   1.414   2.280
 4811TIP3    H214440   1.365   1.405   2.362
 4812TIP3   OH214441   0.347   5.942   4.945
 4812TIP3    H114442   0.346   5.964   5.039
 4812TIP3    H214443   0.399   5.862   4.940
 4813TIP3   OH214444   0.089   4.004   2.292
 4813TIP3    H114445   0.134   3.943   2.351
 4813TIP3    H214446   0.143   4.083   2.294
 4814TIP3   OH214447   4.674   3.738   0.441
 4814TIP3    H114448   4.763   3.745   0.404
 4814TIP3    H214449   4.625   3.809   0.399
 4815TIP3   OH214450   5.619   2.513   0.599
 4815TIP3    H114451   5.538   2.508   0.548
 4815TIP3    H214452   5.592   2.547   0.684
 4816TIP3   OH214453   0.718   5.156   5.058
 4816TIP3    H114454   0.767   5.226   5.102
 4816TIP3    H214455   0.764   5.076   5.081
 4817TIP3   OH214456   4.664   4.284   0.428
 4817TIP3    H114457   4.601   4.253   0.492
 4817TIP3    H214458   4.715   4.206   0.405
 4818TIP3   OH214459   6.266   1.407   0.927
 4818TIP3    H114460   6.220   1.348   0.987
 4818TIP3    H214461   6.268   1.490   0.973
 4819TIP3   OH214462   1.840   1.148   3.780
 4819TIP3    H114463   1.797   1.220   3.826
 4819TIP3    H214464   1.772   1.082   3.769
 4820TIP3   OH214465   1.562   0.250   3.982
 4820TIP3    H114466   1.580   0.159   4.008
 4820TIP3    H214467   1.472   0.266   4.011
 4821TIP3   OH214468   2.632   4.090   3.723
 4821TIP3    H114469   2.604   4.035   3.649
 4821TIP3    H214470   2.621   4.034   3.800
 4822TIP3   OH214471   3.325   4.142   2.003
 4822TIP3    H114472   3.337   4.147   1.909
 4822TIP3    H214473   3.318   4.048   2.022
 4823TIP3   OH214474   4.676   3.268   0.311
 4823TIP3    H114475   4.672   3.175   0.291
 4823TIP3    H214476   4.604   3.307   0.262
 4824TIP3   OH214477   3.554   2.339   4.944
 4824TIP3    H114478   3.469   2.381   4.935
 4824TIP3    H214479   3.538   2.247   4.921
 4825TIP3   OH214480   5.937   4.433   0.535
 4825TIP3    H114481   5.990   4.391   0.603
 4825TIP3    H214482   5.998   4.488   0.487
 4826TIP3   OH214483   3.634   3.564   0.226
 4826TIP3    H114484   3.726   3.590   0.218
 4826TIP3    H214485   3.633   3.500   0.297
 4827TIP3   OH214486   5.163   5.858   3.116
 4827TIP3    H114487   5.195   5.934   3.068
 4827TIP3    H214488   5.235   5.834   3.174
 4828TIP3   OH214489   5.842   1.187   2.173
 4828TIP3    H114490   5.755   1.217   2.202
 4828TIP3    H214491   5.849   1.098   2.208
 4829TIP3   OH214492   0.531   0.489   2.297
 4829TIP3    H114493   0.588   0.565   2.286
 4829TIP3    H214494   0.548   0.435   2.220
 4830TIP3   OH214495   3.174   3.505   2.851
 4830TIP3    H114496   3.176   3.561   2.773
 4830TIP3    H214497   3.265   3.476   2.862
 4831TIP3   OH214498   3.297   1.605   3.020
 4831TIP3    H114499   3.202   1.599   3.023
 4831TIP3    H214500   3.315   1.699   3.012
 4832TIP3   OH214501   2.524   0.713   4.755
 4832TIP3    H114502   2.502   0.665   4.675
 4832TIP3    H214503   2.444   0.712   4.807
 4833TIP3   OH214504   1.904   0.746   0.151
 4833TIP3    H114505   1.834   0.765   0.088
 4833TIP3    H214506   1.968   0.696   0.101
 4834TIP3   OH214507   0.430   0.871   1.113
 4834TIP3    H114508   0.420   0.779   1.088
 4834TIP3    H214509   0.410   0.919   1.032
 4835TIP3   OH214510   4.752   3.179   4.899
 4835TIP3    H114511   4.799   3.121   4.839
 4835TIP3    H214512   4.686   3.221   4.844
 4836TIP3   OH214513   3.945   2.820   3.051
 4836TIP3    H114514   3.906   2.762   3.116
 4836TIP3    H214515   4.027   2.850   3.092
 4837TIP3   OH214516   0.313   4.622   0.213
 4837TIP3    H114517   0.402   4.647   0.188
 4837TIP3    H214518   0.273   4.588   0.133
 4838TIP3   OH214519   0.928   0.633   3.780
 4838TIP3    H114520   0.974   0.685   3.846
 4838TIP3    H214521   0.835   0.650   3.798
 4839TIP3   OH214522   3.964   2.210   0.741
 4839TIP3    H114523   3.968   2.174   0.653
 4839TIP3    H214524   3.871   2.208   0.764
 4840TIP3   OH214525   2.991   1.403   0.915
 4840TIP3    H114526   3.085   1.388   0.906
 4840TIP3    H214527   2.950   1.327   0.873
 4841TIP3   OH214528   0.537   2.681   3.724
 4841TIP3    H114529   0.517   2.700   3.816
 4841TIP3    H214530   0.498   2.753   3.675
 4842TIP3   OH214531   3.563   2.197   1.542
 4842TIP3    H114532   3.554   2.131   1.473
 4842TIP3    H214533   3.477   2.240   1.545
 4843TIP3   OH214534   6.149   3.769   3.773
 4843TIP3    H114535   6.070   3.775   3.827
 4843TIP3    H214536   6.116   3.750   3.685
 4844TIP3   OH214537   5.003   1.494   1.154
 4844TIP3    H114538   4.969   1.562   1.213
 4844TIP3    H214539   4.985   1.412   1.201
 4845TIP3   OH214540   5.175   4.473   4.015
 4845TIP3    H114541   5.190   4.498   4.106
 4845TIP3    H214542   5.091   4.427   4.016
 4846TIP3   OH214543   1.974   0.350   2.881
 4846TIP3    H114544   1.881   0.361   2.903
 4846TIP3    H214545   1.977   0.353   2.786
 4847TIP3   OH214546   0.949   0.262   4.795
 4847TIP3    H114547   0.967   0.204   4.721
 4847TIP3    H214548   0.918   0.343   4.755
 4848TIP3   OH214549   3.385   4.399   3.868
 4848TIP3    H114550   3.294   4.388   3.896
 4848TIP3    H214551   3.381   4.404   3.772
 4849TIP3   OH214552   0.338   4.398   2.414
 4849TIP3    H114553   0.388   4.416   2.494
 4849TIP3    H214554   0.254   4.364   2.445
 4850TIP3   OH214555   0.413   5.661   4.893
 4850TIP3    H114556   0.405   5.637   4.801
 4850TIP3    H214557   0.405   5.577   4.940
 4851TIP3   OH214558   2.244   1.721   1.783
 4851TIP3    H114559   2.170   1.781   1.776
 4851TIP3    H214560   2.206   1.634   1.770
 4852TIP3   OH214561   6.346   5.270   0.436
 4852TIP3    H114562   6.292   5.269   0.514
 4852TIP3    H214563   6.425   5.222   0.460
 4853TIP3   OH214564   4.413   5.182   4.228
 4853TIP3    H114565   4.330   5.214   4.263
 4853TIP3    H214566   4.392   5.096   4.192
 4854TIP3   OH214567   4.879   5.502   2.063
 4854TIP3    H114568   4.797   5.509   2.015
 4854TIP3    H214569   4.879   5.413   2.099
 4855TIP3   OH214570   3.805   4.742   4.120
 4855TIP3    H114571   3.878   4.785   4.164
 4855TIP3    H214572   3.756   4.700   4.190
 4856TIP3   OH214573   2.277   5.368   3.478
 4856TIP3    H114574   2.338   5.323   3.536
 4856TIP3    H214575   2.190   5.345   3.511
 4857TIP3   OH214576   2.508   4.637   3.570
 4857TIP3    H114577   2.507   4.637   3.665
 4857TIP3    H214578   2.578   4.575   3.547
 4858TIP3   OH214579   4.851   5.195   4.281
 4858TIP3    H114580   4.903   5.250   4.340
 4858TIP3    H214581   4.777   5.250   4.257
 4859TIP3   OH214582   5.256   1.024   4.385
 4859TIP3    H114583   5.169   1.045   4.418
 4859TIP3    H214584   5.278   0.940   4.426
 4860TIP3   OH214585   5.041   3.447   2.454
 4860TIP3    H114586   4.949   3.461   2.430
 4860TIP3    H214587   5.088   3.453   2.370
 4861TIP3   OH214588   4.020   5.222   3.686
 4861TIP3    H114589   4.069   5.196   3.607
 4861TIP3    H214590   4.000   5.140   3.730
 4862TIP3   OH214591   2.205   2.101   3.663
 4862TIP3    H114592   2.119   2.102   3.620
 4862TIP3    H214593   2.186   2.074   3.753
 4863TIP3   OH214594   1.508   0.195   1.080
 4863TIP3    H114595   1.520   0.111   1.037
 4863TIP3    H214596   1.432   0.234   1.037
 4864TIP3   OH214597   1.994   5.145   4.924
 4864TIP3    H114598   1.951   5.214   4.874
 4864TIP3    H214599   1.944   5.141   5.006
 4865TIP3   OH214600   1.434   5.959   1.450
 4865TIP3    H114601   1.447   5.975   1.357
 4865TIP3    H214602   1.341   5.979   1.466
 4866TIP3   OH214603   5.027   2.276   4.826
 4866TIP3    H114604   4.982   2.244   4.747
 4866TIP3    H214605   5.022   2.202   4.887
 4867TIP3   OH214606   0.705   1.528   4.384
 4867TIP3    H114607   0.738   1.612   4.416
 4867TIP3    H214608   0.783   1.473   4.378
 4868TIP3   OH214609   4.005   0.726   3.667
 4868TIP3    H114610   4.026   0.707   3.576
 4868TIP3    H214611   4.086   0.708   3.714
 4869TIP3   OH214612   4.066   3.837   0.954
 4869TIP3    H114613   4.140   3.856   0.897
 4869TIP3    H214614   4.079   3.893   1.030
 4870TIP3   OH214615   1.234   2.129   2.320
 4870TIP3    H114616   1.249   2.202   2.261
 4870TIP3    H214617   1.270   2.053   2.275
 4871TIP3   OH214618   0.689   3.628   2.775
 4871TIP3    H114619   0.688   3.696   2.707
 4871TIP3    H214620   0.613   3.574   2.756
 4872TIP3   OH214621   2.784   0.668   4.802
 4872TIP3    H114622   2.694   0.691   4.781
 4872TIP3    H214623   2.807   0.600   4.739
 4873TIP3   OH214624   2.028   4.378   0.833
 4873TIP3    H114625   2.029   4.401   0.926
 4873TIP3    H214626   2.006   4.285   0.832
 4874TIP3   OH214627   1.172   3.151   4.429
 4874TIP3    H114628   1.193   3.059   4.411
 4874TIP3    H214629   1.254   3.198   4.413
 4875TIP3   OH214630   2.473   5.124   5.041
 4875TIP3    H114631   2.440   5.203   5.084
 4875TIP3    H214632   2.420   5.053   5.078
 4876TIP3   OH214633   2.873   4.511   3.538
 4876TIP3    H114634   2.804   4.487   3.477
 4876TIP3    H214635   2.876   4.440   3.602
 4877TIP3   OH214636   6.283   3.009   3.472
 4877TIP3    H114637   6.243   2.947   3.411
 4877TIP3    H214638   6.263   2.973   3.558
 4878TIP3   OH214639   1.589   4.710   2.539
 4878TIP3    H114640   1.575   4.800   2.566
 4878TIP3    H214641   1.651   4.716   2.466
 4879TIP3   OH214642   1.748   0.878   2.933
 4879TIP3    H114643   1.832   0.832   2.933
 4879TIP3    H214644   1.769   0.968   2.907
 4880TIP3   OH214645   3.841   2.930   4.490
 4880TIP3    H114646   3.837   2.960   4.581
 4880TIP3    H214647   3.899   2.855   4.491
 4881TIP3   OH214648   0.654   2.346   3.994
 4881TIP3    H114649   0.671   2.434   4.027
 4881TIP3    H214650   0.590   2.309   4.055
 4882TIP3   OH214651   2.270   0.737   3.152
 4882TIP3    H114652   2.258   0.815   3.098
 4882TIP3    H214653   2.273   0.664   3.090
 4883TIP3   OH214654   3.395   3.294   2.165
 4883TIP3    H114655   3.362   3.318   2.079
 4883TIP3    H214656   3.457   3.363   2.187
 4884TIP3   OH214657   4.581   5.108   1.899
 4884TIP3    H114658   4.554   5.061   1.820
 4884TIP3    H214659   4.506   5.102   1.957
 4885TIP3   OH214660   1.221   3.812   4.239
 4885TIP3    H114661   1.135   3.794   4.200
 4885TIP3    H214662   1.211   3.897   4.281
 4886TIP3   OH214663   1.345   1.665   2.504
 4886TIP3    H114664   1.301   1.630   2.581
 4886TIP3    H214665   1.397   1.738   2.537
 4887TIP3   OH214666   4.783   2.592   1.655
 4887TIP3    H114667   4.818   2.548   1.577
 4887TIP3    H214668   4.851   2.654   1.681
 4888TIP3   OH214669   4.999   1.090   0.131
 4888TIP3    H114670   4.915   1.043   0.127
 4888TIP3    H214671   5.064   1.020   0.142
 4889TIP3   OH214672   0.903   0.887   3.443
 4889TIP3    H114673   0.904   0.792   3.447
 4889TIP3    H214674   0.835   0.908   3.379
 4890TIP3   OH214675   4.260   0.043   0.833
 4890TIP3    H114676   4.267  -0.051   0.849
 4890TIP3    H214677   4.189   0.052   0.769
 4891TIP3   OH214678   3.863   3.014   3.349
 4891TIP3    H114679   3.832   3.105   3.351
 4891TIP3    H214680   3.910   3.003   3.431
 4892TIP3   OH214681   1.113   5.430   5.069
 4892TIP3    H114682   1.066   5.474   5.140
 4892TIP3    H214683   1.067   5.347   5.058
 4893TIP3   OH214684   5.326   4.764   0.899
 4893TIP3    H114685   5.408   4.783   0.945
 4893TIP3    H214686   5.330   4.819   0.821
 4894TIP3   OH214687   4.005   3.925   3.940
 4894TIP3    H114688   3.989   4.013   3.976
 4894TIP3    H214689   4.099   3.911   3.953
 4895TIP3   OH214690   1.392   3.962   3.512
 4895TIP3    H114691   1.306   3.995   3.488
 4895TIP3    H214692   1.442   4.041   3.534
 4896TIP3   OH214693   2.590   3.490   0.411
 4896TIP3    H114694   2.502   3.453   0.406
 4896TIP3    H214695   2.626   3.480   0.323
 4897TIP3   OH214696   3.778   4.281   4.462
 4897TIP3    H114697   3.817   4.366   4.441
 4897TIP3    H214698   3.686   4.300   4.479
 4898TIP3   OH214699   4.349   5.036   0.669
 4898TIP3    H114700   4.304   4.974   0.727
 4898TIP3    H214701   4.396   5.094   0.728
 4899TIP3   OH214702   3.953   2.283   0.313
 4899TIP3    H114703   3.961   2.319   0.401
 4899TIP3    H214704   3.911   2.353   0.262
 4900TIP3   OH214705   5.038   1.652   4.828
 4900TIP3    H114706   5.113   1.708   4.846
 4900TIP3    H214707   5.064   1.566   4.860
 4901TIP3   OH214708   1.114   5.041   0.473
 4901TIP3    H114709   1.117   5.111   0.408
 4901TIP3    H214710   1.115   5.086   0.558
 4902TIP3   OH214711   4.811   2.040   3.646
 4902TIP3    H114712   4.790   2.120   3.599
 4902TIP3    H214713   4.861   2.070   3.723
 4903TIP3   OH214714   3.242   5.580   2.334
 4903TIP3    H114715   3.299   5.592   2.258
 4903TIP3    H214716   3.196   5.497   2.316
 4904TIP3   OH214717   2.180   3.065   1.498
 4904TIP3    H114718   2.188   3.050   1.404
 4904TIP3    H214719   2.164   3.159   1.506
 4905TIP3   OH214720   1.405   0.738   4.718
 4905TIP3    H114721   1.390   0.798   4.791
 4905TIP3    H214722   1.398   0.792   4.640
 4906TIP3   OH214723   3.409   0.325   4.547
 4906TIP3    H114724   3.419   0.268   4.470
 4906TIP3    H214725   3.340   0.387   4.522
 4907TIP3   OH214726   5.735   3.855   3.528
 4907TIP3    H114727   5.748   3.782   3.467
 4907TIP3    H214728   5.823   3.893   3.539
 4908TIP3   OH214729   4.252   4.437   1.319
 4908TIP3    H114730   4.344   4.459   1.310
 4908TIP3    H214731   4.212   4.466   1.237
 4909TIP3   OH214732   4.031   1.193   1.041
 4909TIP3    H114733   4.112   1.210   1.089
 4909TIP3    H214734   4.036   1.251   0.965
 4910TIP3   OH214735   4.469   2.882   1.407
 4910TIP3    H114736   4.459   2.934   1.487
 4910TIP3    H214737   4.541   2.823   1.426
 4911TIP3   OH214738   1.178   3.593   4.677
 4911TIP3    H114739   1.230   3.661   4.720
 4911TIP3    H214740   1.235   3.559   4.607
 4912TIP3   OH214741   0.167   3.431   4.249
 4912TIP3    H114742   0.130   3.498   4.306
 4912TIP3    H214743   0.249   3.406   4.291
 4913TIP3   OH214744   5.644   3.828   4.380
 4913TIP3    H114745   5.736   3.848   4.361
 4913TIP3    H214746   5.627   3.871   4.463
 4914TIP3   OH214747   3.657   2.784   0.349
 4914TIP3    H114748   3.632   2.707   0.299
 4914TIP3    H214749   3.595   2.852   0.322
 4915TIP3   OH214750   1.176   3.192   3.846
 4915TIP3    H114751   1.210   3.209   3.934
 4915TIP3    H214752   1.090   3.233   3.845
 4916TIP3   OH214753   5.603   5.716   3.431
 4916TIP3    H114754   5.663   5.645   3.410
 4916TIP3    H214755   5.623   5.784   3.366
 4917TIP3   OH214756   6.054   0.309   4.042
 4917TIP3    H114757   6.119   0.378   4.029
 4917TIP3    H214758   5.996   0.344   4.109
 4918TIP3   OH214759   4.133   0.047   0.142
 4918TIP3    H114760   4.220   0.005   0.138
 4918TIP3    H214761   4.135   0.099   0.222
 4919TIP3   OH214762   2.638   2.702   5.143
 4919TIP3    H114763   2.544   2.718   5.134
 4919TIP3    H214764   2.643   2.620   5.191
 4920TIP3   OH214765   4.559   0.438   4.225
 4920TIP3    H114766   4.534   0.530   4.236
 4920TIP3    H214767   4.588   0.432   4.134
 4921TIP3   OH214768   3.397   3.023   2.203
 4921TIP3    H114769   3.479   2.980   2.229
 4921TIP3    H214770   3.424   3.110   2.174
 4922TIP3   OH214771   0.147  -0.027   4.584
 4922TIP3    H114772   0.070   0.010   4.542
 4922TIP3    H214773   0.121  -0.038   4.676
 4923TIP3   OH214774   5.466   5.636   1.535
 4923TIP3    H114775   5.518   5.622   1.614
 4923TIP3    H214776   5.458   5.731   1.528
 4924TIP3   OH214777   2.908   0.678   2.257
 4924TIP3    H114778   2.843   0.647   2.319
 4924TIP3    H214779   2.983   0.704   2.311
 4925TIP3   OH214780   0.478   0.386   1.633
 4925TIP3    H114781   0.526   0.442   1.573
 4925TIP3    H214782   0.529   0.387   1.714
 4926TIP3   OH214783   5.865   4.523   2.621
 4926TIP3    H114784   5.809   4.562   2.554
 4926TIP3    H214785   5.896   4.441   2.582
 4927TIP3   OH214786   4.551   4.482   4.210
 4927TIP3    H114787   4.637   4.506   4.176
 4927TIP3    H214788   4.568   4.410   4.270
 4928TIP3   OH214789   3.641   0.455   1.750
 4928TIP3    H114790   3.647   0.457   1.654
 4928TIP3    H214791   3.732   0.448   1.779
 4929TIP3   OH214792   4.957   1.185   2.472
 4929TIP3    H114793   4.881   1.229   2.434
 4929TIP3    H214794   4.964   1.103   2.424
 4930TIP3   OH214795   4.112   0.191   3.148
 4930TIP3    H114796   4.153   0.254   3.208
 4930TIP3    H214797   4.106   0.238   3.065
 4931TIP3   OH214798   1.870   5.649   2.570
 4931TIP3    H114799   1.818   5.677   2.495
 4931TIP3    H214800   1.939   5.715   2.578
 4932TIP3   OH214801   5.763   0.224   3.285
 4932TIP3    H114802   5.817   0.204   3.362
 4932TIP3    H214803   5.827   0.239   3.215
 4933TIP3   OH214804   4.783   3.425   1.411
 4933TIP3    H114805   4.742   3.469   1.336
 4933TIP3    H214806   4.839   3.493   1.451
 4934TIP3   OH214807   0.794   0.748   5.194
 4934TIP3    H114808   0.804   0.842   5.212
 4934TIP3    H214809   0.719   0.743   5.135
 4935TIP3   OH214810   0.907   1.275   0.042
 4935TIP3    H114811   0.948   1.195   0.076
 4935TIP3    H214812   0.917   1.339   0.113
 4936TIP3   OH214813   3.352   5.906   1.353
 4936TIP3    H114814   3.390   5.827   1.391
 4936TIP3    H214815   3.283   5.873   1.295
 4937TIP3   OH214816   5.903   1.166   3.282
 4937TIP3    H114817   5.877   1.107   3.352
 4937TIP3    H214818   5.963   1.228   3.323
 4938TIP3   OH214819   0.015   0.309   0.130
 4938TIP3    H114820  -0.034   0.376   0.177
 4938TIP3    H214821   0.074   0.272   0.196
 4939TIP3   OH214822   4.125   1.136   3.157
 4939TIP3    H114823   4.088   1.123   3.069
 4939TIP3    H214824   4.130   1.048   3.195
 4940TIP3   OH214825   1.354   3.808   1.254
 4940TIP3    H114826   1.438   3.782   1.219
 4940TIP3    H214827   1.297   3.732   1.239
 4941TIP3   OH214828   5.219   3.459   1.255
 4941TIP3    H114829   5.301   3.500   1.225
 4941TIP3    H214830   5.238   3.365   1.254
 4942TIP3   OH214831   4.965   4.905   0.863
 4942TIP3    H114832   5.005   4.934   0.781
 4942TIP3    H214833   4.998   4.817   0.877
 4943TIP3   OH214834   5.937   0.532   1.017
 4943TIP3    H114835   5.901   0.575   0.939
 4943TIP3    H214836   5.906   0.441   1.010
 4944TIP3   OH214837   4.172   1.414   1.919
 4944TIP3    H114838   4.179   1.406   2.014
 4944TIP3    H214839   4.248   1.367   1.884
 4945TIP3   OH214840   5.641   4.005   2.333
 4945TIP3    H114841   5.676   4.052   2.258
 4945TIP3    H214842   5.710   3.943   2.357
 4946TIP3   OH214843   5.578   5.121   0.275
 4946TIP3    H114844   5.631   5.184   0.227
 4946TIP3    H214845   5.489   5.155   0.269
 4947TIP3   OH214846   6.161   0.117   4.636
 4947TIP3    H114847   6.214   0.130   4.714
 4947TIP3    H214848   6.075   0.091   4.669
 4948TIP3   OH214849   1.663   1.078   4.325
 4948TIP3    H114850   1.726   1.105   4.259
 4948TIP3    H214851   1.708   1.092   4.408
 4949TIP3   OH214852   2.637   3.833   2.644
 4949TIP3    H114853   2.698   3.786   2.701
 4949TIP3    H214854   2.687   3.906   2.609
 4950TIP3   OH214855   0.972   4.327   3.825
 4950TIP3    H114856   1.040   4.394   3.826
 4950TIP3    H214857   0.894   4.372   3.792
 4951TIP3   OH214858   4.019   5.702   2.156
 4951TIP3    H114859   4.025   5.609   2.133
 4951TIP3    H214860   4.024   5.748   2.073
 4952TIP3   OH214861   2.643   5.510   1.518
 4952TIP3    H114862   2.621   5.587   1.467
 4952TIP3    H214863   2.732   5.487   1.490
 4953TIP3   OH214864   5.603   3.494   0.009
 4953TIP3    H114865   5.665   3.563   0.033
 4953TIP3    H214866   5.617   3.426   0.075
 4954TIP3   OH214867   1.975   0.710   2.675
 4954TIP3    H114868   1.986   0.721   2.769
 4954TIP3    H214869   1.942   0.794   2.645
 4955TIP3   OH214870   2.510   5.660   2.171
 4955TIP3    H114871   2.574   5.589   2.170
 4955TIP3    H214872   2.562   5.740   2.161
 4956TIP3   OH214873   3.670   4.654   2.134
 4956TIP3    H114874   3.629   4.737   2.112
 4956TIP3    H214875   3.760   4.662   2.101
 4957TIP3   OH214876   2.819   1.770   1.863
 4957TIP3    H114877   2.813   1.827   1.940
 4957TIP3    H214878   2.786   1.823   1.791
 4958TIP3   OH214879   5.462   0.178   2.737
 4958TIP3    H114880   5.538   0.193   2.792
 4958TIP3    H214881   5.387   0.196   2.794
 4959TIP3   OH214882   1.928   4.030   0.089
 4959TIP3    H114883   1.874   3.976   0.146
 4959TIP3    H214884   1.913   3.995   0.001
 4960TIP3   OH214885   5.651   2.295   3.590
 4960TIP3    H114886   5.706   2.354   3.538
 4960TIP3    H214887   5.626   2.226   3.529
 4961TIP3   OH214888   5.235   3.937   4.841
 4961TIP3    H114889   5.326   3.910   4.834
 4961TIP3    H214890   5.188   3.857   4.863
 4962TIP3   OH214891   3.081   3.501   3.533
 4962TIP3    H114892   3.088   3.556   3.455
 4962TIP3    H214893   3.166   3.457   3.538
 4963TIP3   OH214894   5.367   3.526   1.814
 4963TIP3    H114895   5.375   3.531   1.909
 4963TIP3    H214896   5.287   3.574   1.794
 4964TIP3   OH214897   5.888   2.590   1.976
 4964TIP3    H114898   5.836   2.509   1.975
 4964TIP3    H214899   5.931   2.591   1.891
 4965TIP3   OH214900   4.049   0.879   0.626
 4965TIP3    H114901   4.055   0.892   0.721
 4965TIP3    H214902   3.987   0.945   0.596
 4966TIP3   OH214903   4.950   3.341  -0.004
 4966TIP3    H114904   4.983   3.289  -0.078
 4966TIP3    H214905   5.013   3.326   0.066
 4967TIP3   OH214906   0.668   5.402   0.311
 4967TIP3    H114907   0.630   5.320   0.280
 4967TIP3    H214908   0.601   5.468   0.291
 4968TIP3   OH214909   0.785   4.158   4.707
 4968TIP3    H114910   0.697   4.187   4.683
 4968TIP3    H214911   0.779   4.137   4.800
 4969TIP3   OH214912   1.833   1.676   4.958
 4969TIP3    H114913   1.906   1.724   4.998
 4969TIP3    H214914   1.800   1.734   4.889
 4970TIP3   OH214915   2.996   5.823   0.360
 4970TIP3    H114916   3.039   5.771   0.428
 4970TIP3    H214917   2.983   5.761   0.288
 4971TIP3   OH214918   2.301   4.885   0.540
 4971TIP3    H114919   2.218   4.865   0.584
 4971TIP3    H214920   2.302   4.981   0.533
 4972TIP3   OH214921   0.281   1.727   3.178
 4972TIP3    H114922   0.276   1.778   3.097
 4972TIP3    H214923   0.375   1.708   3.187
 4973TIP3   OH214924   2.179   2.726   4.266
 4973TIP3    H114925   2.179   2.822   4.264
 4973TIP3    H214926   2.229   2.700   4.189
 4974TIP3   OH214927   1.685   1.579   4.527
 4974TIP3    H114928   1.674   1.491   4.564
 4974TIP3    H214929   1.735   1.626   4.593
 4975TIP3   OH214930   2.305   4.062   4.150
 4975TIP3    H114931   2.320   3.996   4.083
 4975TIP3    H214932   2.353   4.030   4.227
 4976TIP3   OH214933   3.016   3.539   1.313
 4976TIP3    H114934   2.967   3.613   1.279
 4976TIP3    H214935   3.011   3.473   1.244
 4977TIP3   OH214936   4.334   4.574   3.110
 4977TIP3    H114937   4.361   4.654   3.064
 4977TIP3    H214938   4.250   4.550   3.070
 4978TIP3   OH214939   4.544   5.235   2.929
 4978TIP3    H114940   4.457   5.221   2.892
 4978TIP3    H214941   4.565   5.325   2.905
 4979TIP3   OH214942   0.869   3.443   2.893
 4979TIP3    H114943   0.870   3.477   2.983
 4979TIP3    H214944   0.814   3.504   2.845
 4980TIP3   OH214945   2.888   4.358   0.635
 4980TIP3    H114946   2.877   4.452   0.649
 4980TIP3    H214947   2.916   4.324   0.720
 4981TIP3   OH214948   1.833   3.965   1.355
 4981TIP3    H114949   1.911   3.970   1.409
 4981TIP3    H214950   1.785   3.889   1.389
 4982TIP3   OH214951   4.961   4.734   2.714
 4982TIP3    H114952   5.042   4.781   2.693
 4982TIP3    H214953   4.940   4.762   2.804
 4983TIP3   OH214954   1.329   3.321   1.855
 4983TIP3    H114955   1.365   3.404   1.825
 4983TIP3    H214956   1.297   3.339   1.943
 4984TIP3   OH214957   0.551   3.028   2.982
 4984TIP3    H114958   0.479   3.077   2.941
 4984TIP3    H214959   0.609   3.095   3.018
 4985TIP3   OH214960   3.289   3.404   4.663
 4985TIP3    H114961   3.193   3.408   4.656
 4985TIP3    H214962   3.313   3.327   4.612
 4986TIP3   OH214963   0.580   0.152   5.186
 4986TIP3    H114964   0.638   0.205   5.132
 4986TIP3    H214965   0.536   0.094   5.124
 4987TIP3   OH214966   0.504   2.612   1.885
 4987TIP3    H114967   0.423   2.581   1.844
 4987TIP3    H214968   0.530   2.540   1.942
 4988TIP3   OH214969   1.302   1.936   2.155
 4988TIP3    H114970   1.396   1.938   2.136
 4988TIP3    H214971   1.267   1.866   2.100
 4989TIP3   OH214972   4.697   5.974   0.764
 4989TIP3    H114973   4.609   5.942   0.786
 4989TIP3    H214974   4.745   5.971   0.847
 4990TIP3   OH214975   4.431   2.627   1.981
 4990TIP3    H114976   4.434   2.638   2.076
 4990TIP3    H214977   4.517   2.657   1.951
 4991TIP3   OH214978   3.999   3.026   4.263
 4991TIP3    H114979   4.072   3.081   4.294
 4991TIP3    H214980   3.942   3.016   4.340
 4992TIP3   OH214981   0.144   0.641   1.226
 4992TIP3    H114982   0.136   0.703   1.298
 4992TIP3    H214983   0.131   0.693   1.147
 4993TIP3   OH214984   1.231   2.437   3.562
 4993TIP3    H114985   1.146   2.416   3.600
 4993TIP3    H214986   1.211   2.456   3.470
 4994TIP3   OH214987   3.198   2.934   5.126
 4994TIP3    H114988   3.152   2.992   5.065
 4994TIP3    H214989   3.231   2.992   5.195
 4995TIP3   OH214990   2.986   1.936   3.023
 4995TIP3    H114991   2.937   1.967   2.947
 4995TIP3    H214992   2.952   1.988   3.096
 4996TIP3   OH214993   3.231   5.534   2.926
 4996TIP3    H114994   3.230   5.614   2.978
 4996TIP3    H214995   3.279   5.471   2.981
 4997TIP3   OH214996   5.817   3.467   4.479
 4997TIP3    H114997   5.801   3.541   4.537
 4997TIP3    H214998   5.864   3.404   4.534
 4998TIP3   OH214999   5.200   4.137   5.046
 4998TIP3    H115000   5.219   4.076   4.974
 4998TIP3    H215001   5.242   4.219   5.019
 4999TIP3   OH215002   5.783   0.883   3.203
 4999TIP3    H115003   5.726   0.904   3.277
 4999TIP3    H215004   5.728   0.893   3.126
 5000TIP3   OH215005   3.790   2.700   0.048
 5000TIP3    H115006   3.696   2.716   0.041
 5000TIP3    H215007   3.825   2.782   0.084
 5001TIP3   OH215008   2.349   2.998   1.253
 5001TIP3    H115009   2.286   2.926   1.252
 5001TIP3    H215010   2.435   2.955   1.254
 5002TIP3   OH215011   0.739   1.427   4.835
 5002TIP3    H115012   0.782   1.391   4.912
 5002TIP3    H215013   0.795   1.404   4.762
 5003TIP3   OH215014   1.647   2.857   0.157
 5003TIP3    H115015   1.571   2.816   0.198
 5003TIP3    H215016   1.610   2.913   0.089
 5004TIP3   OH215017   5.658   1.111   3.567
 5004TIP3    H115018   5.573   1.110   3.610
 5004TIP3    H215019   5.714   1.164   3.625
 5005TIP3   OH215020   1.644   5.129   4.713
 5005TIP3    H115021   1.700   5.060   4.749
 5005TIP3    H215022   1.617   5.180   4.789
 5006TIP3   OH215023   2.855   5.554   4.686
 5006TIP3    H115024   2.812   5.555   4.601
 5006TIP3    H215025   2.917   5.481   4.680
 5007TIP3   OH215026   5.757   0.383   0.324
 5007TIP3    H115027   5.780   0.317   0.258
 5007TIP3    H215028   5.840   0.426   0.344
 5008TIP3   OH215029   6.106   2.174   2.949
 5008TIP3    H115030   6.197   2.185   2.978
 5008TIP3    H215031   6.085   2.084   2.970
 5009TIP3   OH215032   3.786   2.131   1.242
 5009TIP3    H115033   3.753   2.047   1.275
 5009TIP3    H215034   3.829   2.171   1.317
 5010TIP3   OH215035   4.697   4.722   0.796
 5010TIP3    H115036   4.745   4.795   0.835
 5010TIP3    H215037   4.747   4.701   0.717
 5011TIP3   OH215038   1.686   2.977   4.983
 5011TIP3    H115039   1.628   2.954   4.910
 5011TIP3    H215040   1.735   3.053   4.952
 5012TIP3   OH215041   5.562   1.120   0.542
 5012TIP3    H115042   5.554   1.164   0.626
 5012TIP3    H215043   5.550   1.189   0.477
 5013TIP3   OH215044   5.731   3.647   5.055
 5013TIP3    H115045   5.686   3.718   5.011
 5013TIP3    H215046   5.662   3.593   5.093
 5014TIP3   OH215047   2.259   0.170   0.524
 5014TIP3    H115048   2.304   0.170   0.439
 5014TIP3    H215049   2.170   0.141   0.504
 5015TIP3   OH215050   1.776   2.613   5.175
 5015TIP3    H115051   1.682   2.624   5.191
 5015TIP3    H215052   1.800   2.689   5.123
 5016TIP3   OH215053   1.733   2.801   4.466
 5016TIP3    H115054   1.686   2.810   4.383
 5016TIP3    H215055   1.682   2.737   4.515
 5017TIP3   OH215056   1.452   3.061   3.057
 5017TIP3    H115057   1.493   2.977   3.038
 5017TIP3    H215058   1.382   3.069   2.993
 5018TIP3   OH215059   6.327   5.769   4.585
 5018TIP3    H115060   6.267   5.794   4.656
 5018TIP3    H215061   6.270   5.745   4.513
 5019TIP3   OH215062   5.048   1.694   3.626
 5019TIP3    H115063   4.962   1.722   3.595
 5019TIP3    H215064   5.067   1.753   3.699
 5020TIP3   OH215065   1.623   3.328   0.060
 5020TIP3    H115066   1.615   3.302   0.152
 5020TIP3    H215067   1.717   3.322   0.041
 5021TIP3   OH215068   0.441   5.554   0.266
 5021TIP3    H115069   0.383   5.499   0.319
 5021TIP3    H215070   0.389   5.631   0.245
 5022TIP3   OH215071   0.140   1.943   2.363
 5022TIP3    H115072   0.091   2.021   2.340
 5022TIP3    H215073   0.226   1.975   2.389
 5023TIP3   OH215074   3.811   2.673   2.653
 5023TIP3    H115075   3.828   2.736   2.583
 5023TIP3    H215076   3.770   2.599   2.609
 5024TIP3   OH215077   0.945   4.289   3.033
 5024TIP3    H115078   0.876   4.236   3.074
 5024TIP3    H215079   1.003   4.312   3.105
 5025TIP3   OH215080   4.709   0.501   3.217
 5025TIP3    H115081   4.632   0.486   3.161
 5025TIP3    H215082   4.782   0.467   3.166
 5026TIP3   OH215083   5.524   4.184   1.772
 5026TIP3    H115084   5.529   4.157   1.680
 5026TIP3    H215085   5.454   4.249   1.774
 5027TIP3   OH215086   1.965   0.972   4.575
 5027TIP3    H115087   2.055   0.972   4.608
 5027TIP3    H215088   1.974   0.975   4.480
 5028TIP3   OH215089   2.067   0.657   3.736
 5028TIP3    H115090   2.065   0.753   3.735
 5028TIP3    H215091   2.073   0.634   3.829
 5029TIP3   OH215092   3.855   1.896   1.035
 5029TIP3    H115093   3.929   1.930   1.087
 5029TIP3    H215094   3.786   1.961   1.046
 5030TIP3   OH215095   2.663   0.978   0.350
 5030TIP3    H115096   2.673   1.073   0.351
 5030TIP3    H215097   2.653   0.954   0.442
 5031TIP3   OH215098   4.899   2.442   1.481
 5031TIP3    H115099   4.986   2.412   1.456
 5031TIP3    H215100   4.839   2.381   1.439
 5032TIP3   OH215101   1.695   4.413   2.549
 5032TIP3    H115102   1.646   4.495   2.558
 5032TIP3    H215103   1.667   4.360   2.624
 5033TIP3   OH215104   2.663   4.747   0.581
 5033TIP3    H115105   2.617   4.664   0.587
 5033TIP3    H215106   2.633   4.796   0.657
 5034TIP3   OH215107   2.335   0.040   4.303
 5034TIP3    H115108   2.350  -0.031   4.241
 5034TIP3    H215109   2.348   0.000   4.389
 5035TIP3   OH215110   0.788   5.332   0.047
 5035TIP3    H115111   0.742   5.339   0.131
 5035TIP3    H215112   0.727   5.367  -0.017
 5036TIP3   OH215113   0.058   0.908   4.815
 5036TIP3    H115114  -0.005   0.969   4.851
 5036TIP3    H215115   0.051   0.919   4.720
 5037TIP3   OH215116   3.831   5.674   0.922
 5037TIP3    H115117   3.897   5.609   0.897
 5037TIP3    H215118   3.802   5.712   0.839
 5038TIP3   OH215119   5.400   3.463   2.375
 5038TIP3    H115120   5.385   3.557   2.364
 5038TIP3    H215121   5.414   3.452   2.469
 5039TIP3   OH215122   4.622   5.223   0.468
 5039TIP3    H115123   4.696   5.162   0.467
 5039TIP3    H215124   4.563   5.190   0.401
 5040TIP3   OH215125   0.093   2.818   3.276
 5040TIP3    H115126   0.000   2.811   3.258
 5040TIP3    H215127   0.136   2.771   3.205
 5041TIP3   OH215128   1.133   3.608   1.457
 5041TIP3    H115129   1.143   3.685   1.514
 5041TIP3    H215130   1.071   3.636   1.390
 5042TIP3   OH215131   2.851   4.218   0.896
 5042TIP3    H115132   2.758   4.201   0.884
 5042TIP3    H215133   2.856   4.270   0.976
 5043TIP3   OH215134   6.080   5.911   1.685
 5043TIP3    H115135   6.100   5.863   1.765
 5043TIP3    H215136   6.158   5.965   1.669
 5044TIP3   OH215137   0.336   3.615   5.088
 5044TIP3    H115138   0.256   3.612   5.140
 5044TIP3    H215139   0.329   3.696   5.038
 5045TIP3   OH215140   4.395   2.408   3.076
 5045TIP3    H115141   4.446   2.489   3.086
 5045TIP3    H215142   4.366   2.388   3.165
 5046TIP3   OH215143   3.174   0.545   4.338
 5046TIP3    H115144   3.169   0.534   4.433
 5046TIP3    H215145   3.150   0.460   4.303
 5047TIP3   OH215146   5.882   0.011   4.101
 5047TIP3    H115147   5.848   0.018   4.191
 5047TIP3    H215148   5.894   0.102   4.073
 5048TIP3   OH215149   3.656   5.440   3.460
 5048TIP3    H115150   3.716   5.460   3.388
 5048TIP3    H215151   3.714   5.409   3.530
 5049TIP3   OH215152   0.759   3.423   4.943
 5049TIP3    H115153   0.839   3.459   4.903
 5049TIP3    H215154   0.790   3.382   5.024
 5050TIP3   OH215155   6.369   1.872   0.592
 5050TIP3    H115156   6.416   1.918   0.524
 5050TIP3    H215157   6.364   1.934   0.665
 5051TIP3   OH215158   3.077   4.834   0.773
 5051TIP3    H115159   3.082   4.915   0.722
 5051TIP3    H215160   3.168   4.810   0.788
 5052TIP3   OH215161   0.284   3.524   3.595
 5052TIP3    H115162   0.215   3.590   3.594
 5052TIP3    H215163   0.301   3.506   3.502
 5053TIP3   OH215164   4.229   5.566   1.881
 5053TIP3    H115165   4.258   5.475   1.871
 5053TIP3    H215166   4.227   5.601   1.792
 5054TIP3   OH215167   0.071   4.396   0.370
 5054TIP3    H115168   0.165   4.415   0.370
 5054TIP3    H215169   0.063   4.315   0.319
 5055TIP3   OH215170   6.053   1.444   0.612
 5055TIP3    H115171   6.044   1.367   0.668
 5055TIP3    H215172   6.108   1.504   0.663
 5056TIP3   OH215173   0.647   4.750   4.435
 5056TIP3    H115174   0.635   4.658   4.460
 5056TIP3    H215175   0.657   4.795   4.519
 5057TIP3   OH215176   6.354   0.054   3.863
 5057TIP3    H115177   6.385  -0.036   3.857
 5057TIP3    H215178   6.345   0.071   3.957
 5058TIP3   OH215179   2.187   1.957   2.296
 5058TIP3    H115180   2.118   1.946   2.231
 5058TIP3    H215181   2.254   2.007   2.251
 5059TIP3   OH215182   4.263   3.679   2.267
 5059TIP3    H115183   4.271   3.729   2.349
 5059TIP3    H215184   4.168   3.664   2.257
 5060TIP3   OH215185   4.887   3.539   0.172
 5060TIP3    H115186   4.922   3.476   0.108
 5060TIP3    H215187   4.804   3.568   0.134
 5061TIP3   OH215188   2.175   2.802   2.647
 5061TIP3    H115189   2.209   2.850   2.722
 5061TIP3    H215190   2.231   2.725   2.639
 5062TIP3   OH215191   1.588   3.704   4.967
 5062TIP3    H115192   1.499   3.679   4.941
 5062TIP3    H215193   1.616   3.635   5.027
 5063TIP3   OH215194   3.041   5.730   4.022
 5063TIP3    H115195   2.962   5.678   4.008
 5063TIP3    H215196   3.091   5.680   4.088
 5064TIP3   OH215197   4.168   5.084   3.480
 5064TIP3    H115198   4.147   4.992   3.467
 5064TIP3    H215199   4.263   5.090   3.465
 5065TIP3   OH215200   4.175   3.240   3.674
 5065TIP3    H115201   4.140   3.303   3.610
 5065TIP3    H215202   4.268   3.236   3.655
 5066TIP3   OH215203   1.759   1.177   1.866
 5066TIP3    H115204   1.803   1.198   1.948
 5066TIP3    H215205   1.740   1.263   1.827
 5067TIP3   OH215206   2.103   4.709   1.071
 5067TIP3    H115207   2.016   4.677   1.047
 5067TIP3    H215208   2.142   4.738   0.988
 5068TIP3   OH215209   5.839   2.934   5.157
 5068TIP3    H115210   5.794   2.973   5.082
 5068TIP3    H215211   5.797   2.974   5.234
 5069TIP3   OH215212   5.261   1.791   4.847
 5069TIP3    H115213   5.349   1.759   4.825
 5069TIP3    H215214   5.269   1.886   4.850
 5070TIP3   OH215215   0.870   5.888   4.878
 5070TIP3    H115216   0.782   5.850   4.877
 5070TIP3    H215217   0.922   5.828   4.932
 5071TIP3   OH215218   2.979   0.595   0.452
 5071TIP3    H115219   2.971   0.536   0.377
 5071TIP3    H215220   2.965   0.538   0.529
 5072TIP3   OH215221   3.280   5.756   5.084
 5072TIP3    H115222   3.293   5.692   5.014
 5072TIP3    H215223   3.347   5.735   5.149
 5073TIP3   OH215224   5.803   1.017   0.897
 5073TIP3    H115225   5.720   0.978   0.924
 5073TIP3    H215226   5.869   0.965   0.941
 5074TIP3   OH215227   2.946   0.073   0.342
 5074TIP3    H115228   2.921   0.006   0.278
 5074TIP3    H215229   3.022   0.116   0.304
 5075TIP3   OH215230   1.721   5.827   1.184
 5075TIP3    H115231   1.779   5.838   1.108
 5075TIP3    H215232   1.677   5.911   1.193
 5076TIP3   OH215233   1.422   1.805   3.743
 5076TIP3    H115234   1.387   1.883   3.787
 5076TIP3    H215235   1.352   1.778   3.683
 5077TIP3   OH215236   3.638   2.345   2.414
 5077TIP3    H115237   3.637   2.368   2.507
 5077TIP3    H215238   3.617   2.426   2.368
 5078TIP3   OH215239   0.326   0.505   3.898
 5078TIP3    H115240   0.304   0.450   3.823
 5078TIP3    H215241   0.407   0.467   3.933
 5079TIP3   OH215242   5.887   0.362   3.061
 5079TIP3    H115243   5.953   0.389   3.125
 5079TIP3    H215244   5.906   0.414   2.983
 5080TIP3   OH215245   2.762   4.080   2.108
 5080TIP3    H115246   2.749   4.076   2.014
 5080TIP3    H215247   2.711   4.007   2.143
 5081TIP3   OH215248   2.629   5.600   0.928
 5081TIP3    H115249   2.584   5.649   0.859
 5081TIP3    H215250   2.578   5.617   1.007
 5082TIP3   OH215251   3.703   4.040   0.458
 5082TIP3    H115252   3.638   4.010   0.522
 5082TIP3    H215253   3.786   4.043   0.507
 5083TIP3   OH215254   0.386   5.466   3.412
 5083TIP3    H115255   0.448   5.490   3.480
 5083TIP3    H215256   0.386   5.540   3.351
 5084TIP3   OH215257   3.494   4.836   3.547
 5084TIP3    H115258   3.455   4.789   3.620
 5084TIP3    H215259   3.422   4.850   3.486
 5085TIP3   OH215260   3.946   2.105   1.656
 5085TIP3    H115261   3.995   2.024   1.641
 5085TIP3    H215262   3.857   2.076   1.677
 5086TIP3   OH215263   1.176   0.815   4.505
 5086TIP3    H115264   1.164   0.841   4.597
 5086TIP3    H215265   1.179   0.898   4.457
 5087TIP3   OH215266   3.845   1.336   4.540
 5087TIP3    H115267   3.757   1.357   4.572
 5087TIP3    H215268   3.894   1.418   4.548
 5088TIP3   OH215269   5.351   3.901   2.211
 5088TIP3    H115270   5.314   3.947   2.135
 5088TIP3    H215271   5.434   3.946   2.228
 5089TIP3   OH215272   0.937   1.401   4.618
 5089TIP3    H115273   0.985   1.343   4.559
 5089TIP3    H215274   0.954   1.489   4.584
 5090TIP3   OH215275   3.409   0.369   3.941
 5090TIP3    H115276   3.402   0.278   3.911
 5090TIP3    H215277   3.425   0.419   3.861
 5091TIP3   OH215278   2.680   3.628   0.687
 5091TIP3    H115279   2.706   3.553   0.740
 5091TIP3    H215280   2.657   3.591   0.602
 5092TIP3   OH215281   5.883   4.667   2.285
 5092TIP3    H115282   5.968   4.624   2.293
 5092TIP3    H215283   5.902   4.760   2.296
 5093TIP3   OH215284   3.847   1.534   0.471
 5093TIP3    H115285   3.767   1.556   0.519
 5093TIP3    H215286   3.817   1.501   0.387
 5094TIP3   OH215287   3.484   0.229   4.277
 5094TIP3    H115288   3.546   0.302   4.276
 5094TIP3    H215289   3.537   0.153   4.252
 5095TIP3   OH215290   3.171   2.579   2.939
 5095TIP3    H115291   3.091   2.539   2.973
 5095TIP3    H215292   3.144   2.619   2.857
 5096TIP3   OH215293   2.355   2.617   4.490
 5096TIP3    H115294   2.369   2.531   4.530
 5096TIP3    H215295   2.313   2.598   4.406
 5097TIP3   OH215296   4.426   5.917   3.077
 5097TIP3    H115297   4.520   5.930   3.063
 5097TIP3    H215298   4.399   5.991   3.132
 5098TIP3   OH215299   5.317   3.991   2.496
 5098TIP3    H115300   5.409   4.018   2.491
 5098TIP3    H215301   5.300   3.948   2.412
 5099TIP3   OH215302   1.783   2.942   4.057
 5099TIP3    H115303   1.849   3.001   4.095
 5099TIP3    H215304   1.821   2.855   4.067
 5100TIP3   OH215305   2.947   4.866   3.981
 5100TIP3    H115306   3.030   4.818   3.987
 5100TIP3    H215307   2.920   4.856   3.889
 5101TIP3   OH215308   4.120   1.290   1.408
 5101TIP3    H115309   4.109   1.371   1.357
 5101TIP3    H215310   4.047   1.291   1.470
 5102TIP3   OH215311   0.471   2.902   4.550
 5102TIP3    H115312   0.450   2.810   4.559
 5102TIP3    H215313   0.387   2.945   4.536
 5103TIP3   OH215314   6.236   2.476   2.351
 5103TIP3    H115315   6.176   2.526   2.407
 5103TIP3    H215316   6.216   2.507   2.262
 5104TIP3   OH215317   0.888   2.221   1.487
 5104TIP3    H115318   0.854   2.244   1.574
 5104TIP3    H215319   0.913   2.305   1.449
 5105TIP3   OH215320   0.267   4.283   4.687
 5105TIP3    H115321   0.276   4.315   4.776
 5105TIP3    H215322   0.184   4.235   4.687
 5106TIP3   OH215323   0.689   5.581   3.316
 5106TIP3    H115324   0.776   5.603   3.281
 5106TIP3    H215325   0.643   5.540   3.242
 5107TIP3   OH215326   1.261   5.956   4.852
 5107TIP3    H115327   1.326   5.969   4.920
 5107TIP3    H215328   1.311   5.940   4.772
 5108TIP3   OH215329   4.288   1.999   2.913
 5108TIP3    H115330   4.211   1.945   2.896
 5108TIP3    H215331   4.361   1.938   2.910
 5109TIP3   OH215332   3.719   3.726   3.072
 5109TIP3    H115333   3.741   3.777   2.994
 5109TIP3    H215334   3.708   3.636   3.039
 5110TIP3   OH215335   2.141   1.301   3.163
 5110TIP3    H115336   2.229   1.270   3.185
 5110TIP3    H215337   2.083   1.231   3.195
 5111TIP3   OH215338   5.724   3.500   0.497
 5111TIP3    H115339   5.811   3.484   0.459
 5111TIP3    H215340   5.694   3.580   0.454
 5112TIP3   OH215341   1.651   5.287   2.935
 5112TIP3    H115342   1.705   5.221   2.892
 5112TIP3    H215343   1.561   5.254   2.925
 5113TIP3   OH215344   5.458   2.725   0.080
 5113TIP3    H115345   5.456   2.767   0.166
 5113TIP3    H215346   5.551   2.720   0.058
 5114TIP3   OH215347   3.896   1.761   0.115
 5114TIP3    H115348   3.877   1.804   0.032
 5114TIP3    H215349   3.818   1.775   0.169
 5115TIP3   OH215350   2.902   1.363   4.032
 5115TIP3    H115351   2.827   1.304   4.040
 5115TIP3    H215352   2.977   1.304   4.028
 5116TIP3   OH215353   2.024   1.399   0.106
 5116TIP3    H115354   2.042   1.471   0.046
 5116TIP3    H215355   2.096   1.403   0.170
 5117TIP3   OH215356   3.094   4.204   2.405
 5117TIP3    H115357   3.160   4.257   2.447
 5117TIP3    H215358   3.071   4.253   2.326
 5118TIP3   OH215359   2.065   1.827   3.150
 5118TIP3    H115360   2.072   1.909   3.198
 5118TIP3    H215361   2.034   1.764   3.215
 5119TIP3   OH215362   4.860   0.442   1.186
 5119TIP3    H115363   4.842   0.382   1.114
 5119TIP3    H215364   4.859   0.387   1.264
 5120TIP3   OH215365   3.906   5.597   5.030
 5120TIP3    H115366   3.865   5.648   4.959
 5120TIP3    H215367   3.973   5.544   4.986
 5121TIP3   OH215368   1.497   0.688   3.563
 5121TIP3    H115369   1.525   0.702   3.472
 5121TIP3    H215370   1.437   0.761   3.580
 5122TIP3   OH215371   1.881   0.199   0.831
 5122TIP3    H115372   1.856   0.178   0.740
 5122TIP3    H215373   1.842   0.128   0.883
 5123TIP3   OH215374   3.612   4.375   1.175
 5123TIP3    H115375   3.674   4.429   1.224
 5123TIP3    H215376   3.547   4.348   1.239
 5124TIP3   OH215377   5.460   4.364   4.678
 5124TIP3    H115378   5.429   4.454   4.678
 5124TIP3    H215379   5.484   4.347   4.769
 5125TIP3   OH215380   3.635   1.195   0.397
 5125TIP3    H115381   3.623   1.113   0.349
 5125TIP3    H215382   3.577   1.258   0.354
 5126TIP3   OH215383   2.582   2.899   1.814
 5126TIP3    H115384   2.631   2.905   1.732
 5126TIP3    H215385   2.557   2.989   1.834
 5127TIP3   OH215386   4.188   3.746   4.241
 5127TIP3    H115387   4.211   3.668   4.291
 5127TIP3    H215388   4.222   3.729   4.153
 5128TIP3   OH215389   5.268   3.087   1.141
 5128TIP3    H115390   5.179   3.122   1.150
 5128TIP3    H215391   5.256   3.004   1.094
 5129TIP3   OH215392   1.512   3.312   3.908
 5129TIP3    H115393   1.495   3.231   3.859
 5129TIP3    H215394   1.607   3.317   3.913
 5130TIP3   OH215395   0.489   1.327   1.947
 5130TIP3    H115396   0.551   1.262   1.979
 5130TIP3    H215397   0.499   1.325   1.852
 5131TIP3   OH215398   0.178   0.046   5.051
 5131TIP3    H115399   0.214   0.132   5.068
 5131TIP3    H215400   0.138   0.019   5.134
 5132TIP3   OH215401   3.107   5.639   0.557
 5132TIP3    H115402   3.190   5.682   0.577
 5132TIP3    H215403   3.066   5.627   0.642
 5133TIP3   OH215404   0.385   3.734   1.296
 5133TIP3    H115405   0.461   3.687   1.262
 5133TIP3    H215406   0.388   3.820   1.253
 5134TIP3   OH215407   1.849   0.471   3.702
 5134TIP3    H115408   1.854   0.390   3.753
 5134TIP3    H215409   1.934   0.513   3.717
 5135TIP3   OH215410   4.897   2.783   1.439
 5135TIP3    H115411   4.862   2.799   1.526
 5135TIP3    H215412   4.860   2.853   1.385
 5136TIP3   OH215413   3.760   3.187   0.849
 5136TIP3    H115414   3.692   3.124   0.874
 5136TIP3    H215415   3.745   3.263   0.905
 5137TIP3   OH215416   0.692   5.633   3.937
 5137TIP3    H115417   0.760   5.700   3.929
 5137TIP3    H215418   0.709   5.591   4.022
 5138TIP3   OH215419   1.804   5.121   4.077
 5138TIP3    H115420   1.765   5.060   4.140
 5138TIP3    H215421   1.898   5.105   4.082
 5139TIP3   OH215422   0.862   3.241   4.539
 5139TIP3    H115423   0.795   3.281   4.595
 5139TIP3    H215424   0.824   3.158   4.511
 5140TIP3   OH215425   2.661   0.458   0.482
 5140TIP3    H115426   2.732   0.521   0.466
 5140TIP3    H215427   2.645   0.463   0.576
 5141TIP3   OH215428   2.289   3.878   0.744
 5141TIP3    H115429   2.254   3.894   0.832
 5141TIP3    H215430   2.215   3.840   0.696
 5142TIP3   OH215431   2.714   1.973   1.694
 5142TIP3    H115432   2.623   1.978   1.725
 5142TIP3    H215433   2.719   2.041   1.626
 5143TIP3   OH215434   0.162   0.646   2.810
 5143TIP3    H115435   0.220   0.717   2.837
 5143TIP3    H215436   0.161   0.652   2.714
 5144TIP3   OH215437   0.012   2.326   5.087
 5144TIP3    H115438   0.078   2.307   5.154
 5144TIP3    H215439   0.015   2.250   5.029
 5145TIP3   OH215440   6.214   0.092   3.282
 5145TIP3    H115441   6.275   0.116   3.212
 5145TIP3    H215442   6.131   0.074   3.237
 5146TIP3   OH215443   4.903   5.182   1.485
 5146TIP3    H115444   4.948   5.149   1.407
 5146TIP3    H215445   4.973   5.215   1.540
 5147TIP3   OH215446   1.752   5.542   4.216
 5147TIP3    H115447   1.713   5.622   4.251
 5147TIP3    H215448   1.802   5.506   4.290
 5148TIP3   OH215449   4.671   5.536   4.325
 5148TIP3    H115450   4.624   5.607   4.281
 5148TIP3    H215451   4.661   5.461   4.266
 5149TIP3   OH215452   5.426   3.456   2.093
 5149TIP3    H115453   5.417   3.473   2.187
 5149TIP3    H215454   5.520   3.447   2.080
 5150TIP3   OH215455   4.649   4.094   1.099
 5150TIP3    H115456   4.708   4.143   1.156
 5150TIP3    H215457   4.705   4.034   1.051
 5151TIP3   OH215458   5.509   3.627   4.543
 5151TIP3    H115459   5.585   3.659   4.495
 5151TIP3    H215460   5.502   3.686   4.618
 5152TIP3   OH215461   0.289   2.565   3.542
 5152TIP3    H115462   0.375   2.530   3.519
 5152TIP3    H215463   0.303   2.659   3.549
 5153TIP3   OH215464   5.548   2.137   1.643
 5153TIP3    H115465   5.573   2.179   1.561
 5153TIP3    H215466   5.565   2.044   1.629
 5154TIP3   OH215467   3.104   3.372   1.033
 5154TIP3    H115468   3.052   3.325   0.968
 5154TIP3    H215469   3.104   3.463   1.002
 5155TIP3   OH215470   6.181   5.150   4.944
 5155TIP3    H115471   6.122   5.123   5.014
 5155TIP3    H215472   6.250   5.199   4.988
 5156TIP3   OH215473   2.741   3.430   1.895
 5156TIP3    H115474   2.832   3.426   1.863
 5156TIP3    H215475   2.693   3.473   1.825
 5157TIP3   OH215476   1.307   1.499   1.018
 5157TIP3    H115477   1.288   1.590   1.039
 5157TIP3    H215478   1.371   1.471   1.084
 5158TIP3   OH215479   4.530   0.428   0.186
 5158TIP3    H115480   4.441   0.394   0.173
 5158TIP3    H215481   4.583   0.385   0.119
 5159TIP3   OH215482   4.601   1.473   0.483
 5159TIP3    H115483   4.512   1.441   0.479
 5159TIP3    H215484   4.652   1.400   0.517
 5160TIP3   OH215485   0.547   1.619   3.156
 5160TIP3    H115486   0.507   1.560   3.093
 5160TIP3    H215487   0.641   1.600   3.151
 5161TIP3   OH215488   0.401   4.264   1.400
 5161TIP3    H115489   0.344   4.249   1.324
 5161TIP3    H215490   0.354   4.329   1.452
 5162TIP3   OH215491   5.022   0.951   2.301
 5162TIP3    H115492   5.054   0.950   2.210
 5162TIP3    H215493   4.943   0.898   2.299
 5163TIP3   OH215494   3.276   4.380   2.132
 5163TIP3    H115495   3.293   4.287   2.117
 5163TIP3    H215496   3.187   4.384   2.166
 5164TIP3   OH215497   4.793   3.708   3.574
 5164TIP3    H115498   4.864   3.650   3.547
 5164TIP3    H215499   4.836   3.778   3.623
 5165TIP3   OH215500   3.903   3.852   3.686
 5165TIP3    H115501   3.956   3.878   3.761
 5165TIP3    H215502   3.947   3.890   3.610
 5166TIP3   OH215503   2.775   0.134   1.936
 5166TIP3    H115504   2.820   0.214   1.966
 5166TIP3    H215505   2.682   0.156   1.940
 5167TIP3   OH215506   0.105   3.698   1.336
 5167TIP3    H115507   0.195   3.732   1.333
 5167TIP3    H215508   0.115   3.605   1.354
 5168TIP3   OH215509   0.259   1.963   4.038
 5168TIP3    H115510   0.297   1.937   4.122
 5168TIP3    H215511   0.266   2.058   4.037
 5169TIP3   OH215512   5.238   4.936   4.520
 5169TIP3    H115513   5.227   5.030   4.506
 5169TIP3    H215514   5.318   4.929   4.572
 5170TIP3   OH215515   4.629   3.461   5.165
 5170TIP3    H115516   4.630   3.531   5.230
 5170TIP3    H215517   4.678   3.497   5.091
 5171TIP3   OH215518   0.319   1.454   3.318
 5171TIP3    H115519   0.361   1.495   3.242
 5171TIP3    H215520   0.384   1.460   3.387
 5172TIP3   OH215521   3.546   3.359   4.297
 5172TIP3    H115522   3.573   3.451   4.299
 5172TIP3    H215523   3.629   3.310   4.300
 5173TIP3   OH215524   3.421   0.601   2.973
 5173TIP3    H115525   3.346   0.580   3.029
 5173TIP3    H215526   3.434   0.695   2.983
 5174TIP3   OH215527   2.888   2.257   0.117
 5174TIP3    H115528   2.921   2.304   0.041
 5174TIP3    H215529   2.844   2.324   0.170
 5175TIP3   OH215530   1.008   1.703   4.585
 5175TIP3    H115531   1.002   1.679   4.677
 5175TIP3    H215532   0.925   1.744   4.565
 5176TIP3   OH215533   5.473   5.264   3.955
 5176TIP3    H115534   5.480   5.169   3.961
 5176TIP3    H215535   5.384   5.279   3.922
 5177TIP3   OH215536   4.515   1.286   2.477
 5177TIP3    H115537   4.587   1.284   2.540
 5177TIP3    H215538   4.553   1.319   2.396
 5178TIP3   OH215539   3.397   1.998   3.697
 5178TIP3    H115540   3.484   1.960   3.705
 5178TIP3    H215541   3.384   2.011   3.603
 5179TIP3   OH215542   1.382   0.968   0.463
 5179TIP3    H115543   1.413   0.878   0.477
 5179TIP3    H215544   1.424   1.019   0.533
 5180TIP3   OH215545   4.850   4.502   2.094
 5180TIP3    H115546   4.785   4.557   2.138
 5180TIP3    H215547   4.933   4.547   2.109
 5181TIP3   OH215548   6.020   1.233   4.002
 5181TIP3    H115549   6.079   1.162   4.025
 5181TIP3    H215550   5.988   1.265   4.087
 5182TIP3   OH215551   1.670   5.370   4.013
 5182TIP3    H115552   1.717   5.443   4.056
 5182TIP3    H215553   1.634   5.320   4.086
 5183TIP3   OH215554   3.487   5.588   4.692
 5183TIP3    H115555   3.427   5.578   4.619
 5183TIP3    H215556   3.574   5.578   4.653
 5184TIP3   OH215557   1.294   5.321   0.284
 5184TIP3    H115558   1.297   5.262   0.208
 5184TIP3    H215559   1.264   5.404   0.247
 5185TIP3   OH215560   1.716   1.634   0.343
 5185TIP3    H115561   1.783   1.693   0.379
 5185TIP3    H215562   1.662   1.610   0.419
 5186TIP3   OH215563   0.634   5.379   2.539
 5186TIP3    H115564   0.627   5.378   2.635
 5186TIP3    H215565   0.586   5.301   2.511
 5187TIP3   OH215566   5.479   1.612   2.782
 5187TIP3    H115567   5.462   1.564   2.863
 5187TIP3    H215568   5.559   1.573   2.747
 5188TIP3   OH215569   3.585   3.354   0.699
 5188TIP3    H115570   3.647   3.296   0.743
 5188TIP3    H215571   3.574   3.427   0.760
 5189TIP3   OH215572   0.649   2.231   2.466
 5189TIP3    H115573   0.599   2.165   2.514
 5189TIP3    H215574   0.588   2.303   2.452
 5190TIP3   OH215575   1.958   0.969   4.301
 5190TIP3    H115576   2.037   0.960   4.249
 5190TIP3    H215577   1.887   0.964   4.237
 5191TIP3   OH215578   4.386   5.323   3.544
 5191TIP3    H115579   4.464   5.367   3.513
 5191TIP3    H215580   4.417   5.238   3.577
 5192TIP3   OH215581   1.454   3.835   4.551
 5192TIP3    H115582   1.406   3.814   4.631
 5192TIP3    H215583   1.542   3.856   4.581
 5193TIP3   OH215584   5.208   4.571   2.152
 5193TIP3    H115585   5.155   4.502   2.191
 5193TIP3    H215586   5.271   4.594   2.220
 5194TIP3   OH215587   2.364   4.799   3.397
 5194TIP3    H115588   2.271   4.809   3.420
 5194TIP3    H215589   2.396   4.729   3.454
 5195TIP3   OH215590   5.037  -0.006   2.212
 5195TIP3    H115591   5.106   0.055   2.238
 5195TIP3    H215592   5.079  -0.092   2.214
 5196TIP3   OH215593   5.154   4.541   1.233
 5196TIP3    H115594   5.081   4.502   1.185
 5196TIP3    H215595   5.117   4.621   1.272
 5197TIP3   OH215596   1.537   5.614   3.799
 5197TIP3    H115597   1.521   5.651   3.886
 5197TIP3    H215598   1.548   5.520   3.815
 5198TIP3   OH215599   4.914   3.974   3.608
 5198TIP3    H115600   4.854   3.982   3.534
 5198TIP3    H215601   4.987   4.033   3.587
 5199TIP3   OH215602   2.311   3.218   4.793
 5199TIP3    H115603   2.330   3.287   4.857
 5199TIP3    H215604   2.396   3.196   4.756
 5200TIP3   OH215605   2.388   1.653   2.694
 5200TIP3    H115606   2.314   1.616   2.741
 5200TIP3    H215607   2.455   1.585   2.697
 5201TIP3   OH215608   1.895   3.907   3.753
 5201TIP3    H115609   1.813   3.860   3.764
 5201TIP3    H215610   1.913   3.945   3.839
 5202TIP3   OH215611   0.015   0.511   2.141
 5202TIP3    H115612   0.109   0.522   2.156
 5202TIP3    H215613   0.008   0.475   2.053
 5203TIP3   OH215614   3.770   5.055   4.257
 5203TIP3    H115615   3.698   4.995   4.236
 5203TIP3    H215616   3.811   5.017   4.335
 5204TIP3   OH215617   2.254   2.046   0.800
 5204TIP3    H115618   2.298   1.981   0.855
 5204TIP3    H215619   2.304   2.126   0.813
 5205TIP3   OH215620   4.646   0.900   0.926
 5205TIP3    H115621   4.594   0.911   0.846
 5205TIP3    H215622   4.737   0.906   0.897
 5206TIP3   OH215623   2.879   1.791   2.706
 5206TIP3    H115624   2.896   1.884   2.722
 5206TIP3    H215625   2.965   1.755   2.683
 5207TIP3   OH215626   2.440   4.755   3.095
 5207TIP3    H115627   2.478   4.758   3.007
 5207TIP3    H215628   2.375   4.685   3.090
 5208TIP3   OH215629   5.790   2.143   3.785
 5208TIP3    H115630   5.868   2.157   3.731
 5208TIP3    H215631   5.717   2.167   3.727
 5209TIP3   OH215632   6.387   4.153   1.014
 5209TIP3    H115633   6.358   4.245   1.015
 5209TIP3    H215634   6.364   4.122   0.927
 5210TIP3   OH215635   5.454   5.530   4.592
 5210TIP3    H115636   5.409   5.610   4.619
 5210TIP3    H215637   5.530   5.561   4.543
 5211TIP3   OH215638   5.291   1.979   0.186
 5211TIP3    H115639   5.255   2.043   0.125
 5211TIP3    H215640   5.214   1.937   0.224
 5212TIP3   OH215641   1.848   3.881   3.238
 5212TIP3    H115642   1.774   3.838   3.282
 5212TIP3    H215643   1.862   3.829   3.159
 5213TIP3   OH215644   1.019   4.243   3.536
 5213TIP3    H115645   1.031   4.258   3.630
 5213TIP3    H215646   0.956   4.309   3.509
 5214TIP3   OH215647   2.668   5.884   2.173
 5214TIP3    H115648   2.750   5.930   2.190
 5214TIP3    H215649   2.602   5.953   2.170
 5215TIP3   OH215650   5.874   5.892   2.096
 5215TIP3    H115651   5.854   5.823   2.033
 5215TIP3    H215652   5.788   5.921   2.127
 5216TIP3   OH215653   0.593   5.795   5.039
 5216TIP3    H115654   0.668   5.739   5.057
 5216TIP3    H215655   0.550   5.755   4.964
 5217TIP3   OH215656   1.299   3.481   0.454
 5217TIP3    H115657   1.352   3.447   0.526
 5217TIP3    H215658   1.214   3.440   0.466
 5218TIP3   OH215659   5.540   5.505   3.775
 5218TIP3    H115660   5.548   5.450   3.697
 5218TIP3    H215661   5.506   5.446   3.842
 5219TIP3   OH215662   3.466   4.516   3.311
 5219TIP3    H115663   3.393   4.510   3.250
 5219TIP3    H215664   3.516   4.592   3.282
 5220TIP3   OH215665   5.807   3.669   3.339
 5220TIP3    H115666   5.823   3.580   3.307
 5220TIP3    H215667   5.799   3.722   3.259
 5221TIP3   OH215668   4.364   4.111   4.024
 5221TIP3    H115669   4.358   4.121   4.119
 5221TIP3    H215670   4.362   4.201   3.991
 5222TIP3   OH215671   5.754   5.294   3.877
 5222TIP3    H115672   5.796   5.299   3.963
 5222TIP3    H215673   5.661   5.306   3.895
 5223TIP3   OH215674   1.569   5.119   3.875
 5223TIP3    H115675   1.479   5.151   3.863
 5223TIP3    H215676   1.558   5.029   3.907
 5224TIP3   OH215677   2.460   5.077   0.821
 5224TIP3    H115678   2.518   5.001   0.824
 5224TIP3    H215679   2.511   5.145   0.777
 5225TIP3   OH215680   4.331   1.599  -0.037
 5225TIP3    H115681   4.265   1.654   0.006
 5225TIP3    H215682   4.328   1.517   0.012
 5226TIP3   OH215683   0.951   2.981   3.458
 5226TIP3    H115684   0.939   2.996   3.551
 5226TIP3    H215685   0.935   3.066   3.417
 5227TIP3   OH215686   3.559   4.244   2.695
 5227TIP3    H115687   3.614   4.242   2.773
 5227TIP3    H215688   3.618   4.219   2.623
 5228TIP3   OH215689   1.593   3.691   4.029
 5228TIP3    H115690   1.605   3.638   4.108
 5228TIP3    H215691   1.662   3.660   3.969
 5229TIP3   OH215692   3.532   1.738   5.076
 5229TIP3    H115693   3.596   1.720   5.007
 5229TIP3    H215694   3.550   1.673   5.144
 5230TIP3   OH215695   4.411   4.145   4.295
 5230TIP3    H115696   4.499   4.182   4.300
 5230TIP3    H215697   4.383   4.137   4.386
 5231TIP3   OH215698   6.282   5.519   2.033
 5231TIP3    H115699   6.274   5.493   2.125
 5231TIP3    H215700   6.376   5.510   2.014
 5232TIP3   OH215701   3.735   4.074   3.895
 5232TIP3    H115702   3.817   4.122   3.881
 5232TIP3    H215703   3.722   4.076   3.989
 5233TIP3   OH215704   0.179   1.541   3.757
 5233TIP3    H115705   0.174   1.633   3.786
 5233TIP3    H215706   0.266   1.533   3.719
 5234TIP3   OH215707   2.232   4.080   5.016
 5234TIP3    H115708   2.296   4.089   4.945
 5234TIP3    H215709   2.217   3.985   5.022
 5235TIP3   OH215710   2.499   3.108   4.250
 5235TIP3    H115711   2.502   3.189   4.302
 5235TIP3    H215712   2.584   3.067   4.265
 5236TIP3   OH215713   2.973   2.669   0.552
 5236TIP3    H115714   2.916   2.733   0.509
 5236TIP3    H215715   3.037   2.723   0.599
 5237TIP3   OH215716   1.385   3.838   3.968
 5237TIP3    H115717   1.361   3.851   4.060
 5237TIP3    H215718   1.458   3.776   3.971
 5238TIP3   OH215719   4.993   5.690   2.594
 5238TIP3    H115720   5.071   5.735   2.561
 5238TIP3    H215721   4.996   5.604   2.553
 5239TIP3   OH215722   0.972   5.421   2.286
 5239TIP3    H115723   1.058   5.419   2.245
 5239TIP3    H215724   0.961   5.512   2.315
 5240TIP3   OH215725   2.376   5.131   1.958
 5240TIP3    H115726   2.378   5.103   2.050
 5240TIP3    H215727   2.306   5.079   1.919
 5241TIP3   OH215728   5.470   1.480   1.230
 5241TIP3    H115729   5.488   1.396   1.274
 5241TIP3    H215730   5.458   1.542   1.302
 5242TIP3   OH215731   2.636   0.141   3.108
 5242TIP3    H115732   2.604   0.057   3.140
 5242TIP3    H215733   2.730   0.129   3.095
 5243TIP3   OH215734   4.566   4.669   2.685
 5243TIP3    H115735   4.515   4.588   2.694
 5243TIP3    H215736   4.594   4.689   2.774
 5244TIP3   OH215737   2.690   0.539   3.963
 5244TIP3    H115738   2.731   0.607   3.909
 5244TIP3    H215739   2.742   0.537   4.043
 5245TIP3   OH215740   2.401   1.858   0.645
 5245TIP3    H115741   2.461   1.840   0.572
 5245TIP3    H215742   2.399   1.953   0.651
 5246TIP3   OH215743   3.454   0.560   4.162
 5246TIP3    H115744   3.548   0.578   4.168
 5246TIP3    H215745   3.444   0.509   4.082
 5247TIP3   OH215746   6.068   3.934   4.843
 5247TIP3    H115747   5.988   3.930   4.896
 5247TIP3    H215748   6.037   3.923   4.753
 5248TIP3   OH215749   4.596   5.798   0.379
 5248TIP3    H115750   4.675   5.750   0.354
 5248TIP3    H215751   4.598   5.802   0.474
 5249TIP3   OH215752   6.316   1.065   0.088
 5249TIP3    H115753   6.258   1.036   0.018
 5249TIP3    H215754   6.357   1.145   0.054
 5250TIP3   OH215755   4.115   4.460   2.954
 5250TIP3    H115756   4.036   4.462   2.900
 5250TIP3    H215757   4.091   4.504   3.035
 5251TIP3   OH215758   5.290   5.629   3.549
 5251TIP3    H115759   5.358   5.693   3.570
 5251TIP3    H215760   5.243   5.616   3.631
 5252TIP3   OH215761   3.594   0.461   4.936
 5252TIP3    H115762   3.514   0.421   4.903
 5252TIP3    H215763   3.569   0.500   5.020
 5253TIP3   OH215764   3.529   2.852   4.021
 5253TIP3    H115765   3.596   2.869   4.087
 5253TIP3    H215766   3.490   2.769   4.047
 5254TIP3   OH215767   5.857   5.021   4.822
 5254TIP3    H115768   5.781   5.037   4.766
 5254TIP3    H215769   5.906   4.952   4.777
 5255TIP3   OH215770   0.235   1.541   4.545
 5255TIP3    H115771   0.183   1.560   4.467
 5255TIP3    H215772   0.213   1.450   4.565
 5256TIP3   OH215773   2.266   4.705   4.973
 5256TIP3    H115774   2.242   4.798   4.973
 5256TIP3    H215775   2.227   4.670   5.053
 5257TIP3   OH215776   0.229   3.053   4.542
 5257TIP3    H115777   0.253   3.113   4.613
 5257TIP3    H215778   0.178   2.984   4.584
 5258TIP3   OH215779   2.413   4.069   2.239
 5258TIP3    H115780   2.330   4.087   2.284
 5258TIP3    H215781   2.426   4.145   2.182
 5259TIP3   OH215782   4.644   3.874   1.986
 5259TIP3    H115783   4.715   3.838   1.932
 5259TIP3    H215784   4.577   3.901   1.923
 5260TIP3   OH215785   0.145   0.347   4.899
 5260TIP3    H115786   0.160   0.424   4.844
 5260TIP3    H215787   0.206   0.358   4.971
 5261TIP3   OH215788   5.295   0.942   3.904
 5261TIP3    H115789   5.313   1.014   3.965
 5261TIP3    H215790   5.345   0.868   3.940
 5262TIP3   OH215791   3.335   0.951   1.650
 5262TIP3    H115792   3.392   0.935   1.725
 5262TIP3    H215793   3.292   1.035   1.671
 5263TIP3   OH215794   0.401   5.609   3.174
 5263TIP3    H115795   0.315   5.610   3.132
 5263TIP3    H215796   0.423   5.701   3.185
 5264TIP3   OH215797   0.128   3.299   5.192
 5264TIP3    H115798   0.136   3.204   5.178
 5264TIP3    H215799   0.140   3.337   5.106
 5265TIP3   OH215800   0.894   2.853   4.686
 5265TIP3    H115801   0.917   2.922   4.624
 5265TIP3    H215802   0.977   2.834   4.731
 5266TIP3   OH215803   6.424   3.392   1.556
 5266TIP3    H115804   6.367   3.451   1.606
 5266TIP3    H215805   6.415   3.308   1.600
 5267TIP3   OH215806   2.407   2.571   2.008
 5267TIP3    H115807   2.327   2.573   2.061
 5267TIP3    H215808   2.376   2.548   1.920
 5268TIP3   OH215809   1.754   0.570   2.566
 5268TIP3    H115810   1.824   0.584   2.631
 5268TIP3    H215811   1.683   0.627   2.595
 5269TIP3   OH215812   5.515   3.166   4.815
 5269TIP3    H115813   5.521   3.183   4.721
 5269TIP3    H215814   5.566   3.236   4.855
 5270TIP3   OH215815   0.545   5.534   1.004
 5270TIP3    H115816   0.485   5.460   0.989
 5270TIP3    H215817   0.488   5.611   1.002
 5271TIP3   OH215818   5.030   1.298   0.884
 5271TIP3    H115819   5.090   1.347   0.940
 5271TIP3    H215820   5.064   1.312   0.795
 5272TIP3   OH215821   3.900   5.000   0.165
 5272TIP3    H115822   3.962   4.934   0.134
 5272TIP3    H215823   3.822   4.950   0.189
 5273TIP3   OH215824   3.173   5.890   1.643
 5273TIP3    H115825   3.166   5.980   1.674
 5273TIP3    H215826   3.263   5.864   1.663
 5274TIP3   OH215827   6.029   0.523   2.870
 5274TIP3    H115828   6.033   0.602   2.923
 5274TIP3    H215829   6.097   0.534   2.804
 5275TIP3   OH215830   2.204   4.998   3.611
 5275TIP3    H115831   2.286   5.010   3.563
 5275TIP3    H215832   2.163   4.922   3.570
 5276TIP3   OH215833   2.235   2.589   3.041
 5276TIP3    H115834   2.301   2.634   2.990
 5276TIP3    H215835   2.260   2.604   3.132
 5277TIP3   OH215836   2.730   2.961   4.837
 5277TIP3    H115837   2.766   2.982   4.751
 5277TIP3    H215838   2.637   2.981   4.829
 5278TIP3   OH215839   2.070   2.867   5.119
 5278TIP3    H115840   2.122   2.935   5.076
 5278TIP3    H215841   2.023   2.824   5.047
 5279TIP3   OH215842   2.348   0.085   0.787
 5279TIP3    H115843   2.328   0.150   0.720
 5279TIP3    H215844   2.441   0.066   0.775
 5280TIP3   OH215845   0.993   3.032   2.988
 5280TIP3    H115846   0.960   2.985   3.065
 5280TIP3    H215847   0.918   3.038   2.929
 5281TIP3   OH215848   2.437   1.997   4.457
 5281TIP3    H115849   2.499   1.985   4.386
 5281TIP3    H215850   2.377   2.065   4.426
 5282TIP3   OH215851   1.275   0.918   2.587
 5282TIP3    H115852   1.188   0.911   2.549
 5282TIP3    H215853   1.282   1.010   2.613
 5283TIP3   OH215854   3.417   4.703   1.220
 5283TIP3    H115855   3.470   4.697   1.141
 5283TIP3    H215856   3.468   4.659   1.288
 5284TIP3   OH215857   1.992   0.251   4.066
 5284TIP3    H115858   2.068   0.289   4.111
 5284TIP3    H215859   1.916   0.294   4.106
 5285TIP3   OH215860   2.865   0.625   3.069
 5285TIP3    H115861   2.783   0.581   3.047
 5285TIP3    H215862   2.839   0.713   3.095
 5286TIP3   OH215863   5.134   5.063   2.984
 5286TIP3    H115864   5.072   4.994   2.963
 5286TIP3    H215865   5.164   5.042   3.072
 5287TIP3   OH215866   5.583   2.544   1.767
 5287TIP3    H115867   5.589   2.625   1.818
 5287TIP3    H215868   5.654   2.489   1.802
 5288TIP3   OH215869   3.065   5.524   4.241
 5288TIP3    H115870   3.160   5.537   4.238
 5288TIP3    H215871   3.042   5.534   4.334
 5289TIP3   OH215872   0.577   5.613   1.421
 5289TIP3    H115873   0.610   5.636   1.508
 5289TIP3    H215874   0.636   5.657   1.361
 5290TIP3   OH215875   4.361   5.145   4.527
 5290TIP3    H115876   4.440   5.132   4.579
 5290TIP3    H215877   4.346   5.060   4.485
 5291TIP3   OH215878   2.658   1.249   3.593
 5291TIP3    H115879   2.651   1.274   3.501
 5291TIP3    H215880   2.729   1.185   3.596
 5292TIP3   OH215881   3.127   5.926   4.288
 5292TIP3    H115882   3.219   5.953   4.282
 5292TIP3    H215883   3.129   5.843   4.335
 5293TIP3   OH215884   4.161   4.533   0.039
 5293TIP3    H115885   4.238   4.571   0.081
 5293TIP3    H215886   4.171   4.555  -0.054
 5294TIP3   OH215887   3.986   1.043   0.043
 5294TIP3    H115888   4.029   0.997   0.115
 5294TIP3    H215889   3.893   1.039   0.064
 5295TIP3   OH215890   2.544   5.972   2.662
 5295TIP3    H115891   2.536   5.917   2.740
 5295TIP3    H215892   2.573   5.911   2.593
 5296TIP3   OH215893   4.079   1.439   0.389
 5296TIP3    H115894   4.013   1.466   0.453
 5296TIP3    H215895   4.030   1.418   0.310
 5297TIP3   OH215896   2.330   3.780   0.155
 5297TIP3    H115897   2.249   3.743   0.191
 5297TIP3    H215898   2.393   3.773   0.226
 5298TIP3   OH215899   6.256   4.273   2.193
 5298TIP3    H115900   6.268   4.188   2.151
 5298TIP3    H215901   6.340   4.318   2.180
 5299TIP3   OH215902   4.030   4.578   3.175
 5299TIP3    H115903   4.016   4.673   3.170
 5299TIP3    H215904   4.008   4.555   3.265
 5300TIP3   OH215905   0.149   4.475   2.860
 5300TIP3    H115906   0.190   4.541   2.804
 5300TIP3    H215907   0.060   4.468   2.827
 5301TIP3   OH215908   5.270   5.193   3.230
 5301TIP3    H115909   5.250   5.269   3.175
 5301TIP3    H215910   5.277   5.229   3.319
 5302TIP3   OH215911   2.582   3.902   3.529
 5302TIP3    H115912   2.603   3.826   3.475
 5302TIP3    H215913   2.491   3.922   3.506
 5303TIP3   OH215914   1.069   5.449   1.845
 5303TIP3    H115915   1.165   5.446   1.846
 5303TIP3    H215916   1.042   5.384   1.910
 5304TIP3   OH215917   5.193   4.054   2.721
 5304TIP3    H115918   5.188   4.123   2.654
 5304TIP3    H215919   5.236   3.981   2.677
 5305TIP3   OH215920   4.002   1.475   4.793
 5305TIP3    H115921   4.077   1.491   4.735
 5305TIP3    H215922   3.926   1.497   4.740
 5306TIP3   OH215923   3.220   2.723   3.910
 5306TIP3    H115924   3.272   2.665   3.965
 5306TIP3    H215925   3.177   2.665   3.847
 5307TIP3   OH215926   3.694   4.516   3.489
 5307TIP3    H115927   3.695   4.425   3.518
 5307TIP3    H215928   3.617   4.522   3.432
 5308TIP3   OH215929   3.899   4.900   0.732
 5308TIP3    H115930   3.838   4.829   0.749
 5308TIP3    H215931   3.982   4.855   0.711
 5309TIP3   OH215932   3.526   4.193   0.971
 5309TIP3    H115933   3.549   4.242   1.050
 5309TIP3    H215934   3.599   4.209   0.910
 5310TIP3   OH215935   4.532   3.128   4.513
 5310TIP3    H115936   4.443   3.132   4.479
 5310TIP3    H215937   4.533   3.051   4.570
 5311TIP3   OH215938   0.079   5.368   3.930
 5311TIP3    H115939   0.083   5.290   3.986
 5311TIP3    H215940   0.054   5.334   3.844
 5312TIP3   OH215941   0.748   3.016   4.095
 5312TIP3    H115942   0.803   3.094   4.086
 5312TIP3    H215943   0.745   3.000   4.189
 5313TIP3   OH215944   5.836   1.285   2.582
 5313TIP3    H115945   5.900   1.242   2.638
 5313TIP3    H215946   5.887   1.321   2.510
 5314TIP3   OH215947   3.771   4.670   0.801
 5314TIP3    H115948   3.751   4.597   0.861
 5314TIP3    H215949   3.776   4.629   0.715
 5315TIP3   OH215950   5.863   4.827   0.070
 5315TIP3    H115951   5.932   4.867   0.122
 5315TIP3    H215952   5.834   4.897   0.011
 5316TIP3   OH215953   0.855   2.839   0.116
 5316TIP3    H115954   0.762   2.860   0.125
 5316TIP3    H215955   0.879   2.874   0.030
 5317TIP3   OH215956   6.274   5.475   1.584
 5317TIP3    H115957   6.315   5.520   1.658
 5317TIP3    H215958   6.217   5.410   1.625
 5318TIP3   OH215959   4.647   5.328   5.125
 5318TIP3    H115960   4.696   5.268   5.181
 5318TIP3    H215961   4.626   5.402   5.183
 5319TIP3   OH215962   3.249   5.867   1.040
 5319TIP3    H115963   3.241   5.881   0.946
 5319TIP3    H215964   3.177   5.917   1.078
 5320TIP3   OH215965   2.785   4.626   1.715
 5320TIP3    H115966   2.701   4.671   1.711
 5320TIP3    H215967   2.818   4.629   1.625
 5321TIP3   OH215968   2.941   0.702   0.964
 5321TIP3    H115969   2.982   0.623   1.000
 5321TIP3    H215970   2.999   0.731   0.894
 5322TIP3   OH215971   5.012   3.215   1.125
 5322TIP3    H115972   5.016   3.266   1.044
 5322TIP3    H215973   4.968   3.134   1.101
 5323TIP3   OH215974   1.551   5.141   4.183
 5323TIP3    H115975   1.548   5.063   4.127
 5323TIP3    H215976   1.613   5.118   4.252
 5324TIP3   OH215977   2.254   4.602   4.345
 5324TIP3    H115978   2.207   4.523   4.371
 5324TIP3    H215979   2.220   4.670   4.404
 5325TIP3   OH215980   3.159   3.212   4.263
 5325TIP3    H115981   3.210   3.153   4.208
 5325TIP3    H215982   3.220   3.239   4.331
 5326TIP3   OH215983   0.864   2.050   2.295
 5326TIP3    H115984   0.870   1.959   2.326
 5326TIP3    H215985   0.880   2.102   2.374
 5327TIP3   OH215986   4.999   3.108   3.457
 5327TIP3    H115987   4.979   3.080   3.546
 5327TIP3    H215988   4.968   3.198   3.452
 5328TIP3   OH215989   1.211   3.838   2.369
 5328TIP3    H115990   1.238   3.778   2.438
 5328TIP3    H215991   1.170   3.912   2.416
 5329TIP3   OH215992   4.759   2.521   0.566
 5329TIP3    H115993   4.742   2.556   0.654
 5329TIP3    H215994   4.767   2.599   0.511
 5330TIP3   OH215995   2.097   1.609   4.119
 5330TIP3    H115996   2.004   1.622   4.106
 5330TIP3    H215997   2.120   1.537   4.060
 5331TIP3   OH215998   2.159   2.908   2.972
 5331TIP3    H115999   2.090   2.842   2.983
 5331TIP3    H216000   2.239   2.862   2.998
 5332TIP3   OH216001   2.734   4.447   2.763
 5332TIP3    H116002   2.772   4.513   2.705
 5332TIP3    H216003   2.779   4.366   2.740
 5333TIP3   OH216004   2.703   2.196   2.928
 5333TIP3    H116005   2.718   2.118   2.981
 5333TIP3    H216006   2.614   2.184   2.894
 5334TIP3   OH216007   4.045   4.183   0.763
 5334TIP3    H116008   4.016   4.237   0.689
 5334TIP3    H216009   4.129   4.146   0.735
 5335TIP3   OH216010   1.624   3.965   5.003
 5335TIP3    H116011   1.619   3.871   5.017
 5335TIP3    H216012   1.536   3.991   4.979
 5336TIP3   OH216013   4.133   5.262   4.268
 5336TIP3    H116014   4.085   5.247   4.350
 5336TIP3    H216015   4.176   5.346   4.281
 5337TIP3   OH216016   1.679   1.839   1.129
 5337TIP3    H116017   1.634   1.866   1.209
 5337TIP3    H216018   1.623   1.871   1.058
 5338TIP3   OH216019   2.423   2.821   1.514
 5338TIP3    H116020   2.515   2.805   1.535
 5338TIP3    H216021   2.411   2.914   1.532
 5339TIP3   OH216022   3.788   4.424   0.961
 5339TIP3    H116023   3.815   4.357   0.897
 5339TIP3    H216024   3.752   4.374   1.034
 5340TIP3   OH216025   4.799   3.612   1.204
 5340TIP3    H116026   4.800   3.537   1.145
 5340TIP3    H216027   4.892   3.626   1.227
 5341TIP3   OH216028   2.966   5.367   3.955
 5341TIP3    H116029   3.060   5.385   3.958
 5341TIP3    H216030   2.924   5.450   3.975
 5342TIP3   OH216031   6.076   5.753   2.225
 5342TIP3    H116032   6.076   5.807   2.304
 5342TIP3    H216033   6.012   5.797   2.168
 5343TIP3   OH216034   6.158   4.508   0.397
 5343TIP3    H116035   6.167   4.580   0.334
 5343TIP3    H216036   6.242   4.462   0.395
 5344TIP3   OH216037   5.453   5.018   2.423
 5344TIP3    H116038   5.478   5.006   2.332
 5344TIP3    H216039   5.526   4.982   2.473
 5345TIP3   OH216040   2.910   0.433   0.016
 5345TIP3    H116041   2.993   0.400  -0.018
 5345TIP3    H216042   2.851   0.432  -0.059
 5346TIP3   OH216043   2.089   4.752   2.038
 5346TIP3    H116044   2.086   4.746   1.943
 5346TIP3    H216045   2.177   4.723   2.061
 5347TIP3   OH216046   0.814   3.234   0.781
 5347TIP3    H116047   0.862   3.155   0.757
 5347TIP3    H216048   0.731   3.228   0.734
 5348TIP3   OH216049   0.483   3.736   4.501
 5348TIP3    H116050   0.437   3.652   4.508
 5348TIP3    H216051   0.510   3.742   4.409
 5349TIP3   OH216052   0.230   3.061   3.828
 5349TIP3    H116053   0.191   3.075   3.742
 5349TIP3    H216054   0.174   2.996   3.870
 5350TIP3   OH216055   5.380   4.749   4.030
 5350TIP3    H116056   5.302   4.776   3.982
 5350TIP3    H216057   5.422   4.684   3.973
 5351TIP3   OH216058   2.768   1.585   4.461
 5351TIP3    H116059   2.802   1.670   4.431
 5351TIP3    H216060   2.804   1.575   4.549
 5352TIP3   OH216061   3.185   0.439   3.534
 5352TIP3    H116062   3.161   0.455   3.625
 5352TIP3    H216063   3.178   0.525   3.492
 5353TIP3   OH216064   5.398   5.563   0.950
 5353TIP3    H116065   5.347   5.509   1.009
 5353TIP3    H216066   5.477   5.586   1.000
 5354TIP3   OH216067   4.996   5.002   4.099
 5354TIP3    H116068   4.971   5.088   4.134
 5354TIP3    H216069   5.041   4.959   4.172
 5355TIP3   OH216070   2.931   0.985   3.831
 5355TIP3    H116071   2.894   1.007   3.745
 5355TIP3    H216072   2.874   1.030   3.893
 5356TIP3   OH216073   6.155   5.700   3.477
 5356TIP3    H116074   6.064   5.722   3.496
 5356TIP3    H216075   6.202   5.784   3.481
 5357TIP3   OH216076   3.999   3.426   1.391
 5357TIP3    H116077   3.938   3.479   1.442
 5357TIP3    H216078   4.067   3.487   1.362
 5358TIP3   OH216079   1.953   2.115   3.546
 5358TIP3    H116080   1.912   2.199   3.525
 5358TIP3    H216081   1.901   2.081   3.619
 5359TIP3   OH216082   4.233   4.616   3.800
 5359TIP3    H116083   4.159   4.671   3.774
 5359TIP3    H216084   4.197   4.555   3.865
 5360TIP3   OH216085   0.460   2.458   2.434
 5360TIP3    H116086   0.544   2.488   2.398
 5360TIP3    H216087   0.452   2.504   2.517
 5361TIP3   OH216088   5.920   3.482   0.094
 5361TIP3    H116089   5.873   3.543   0.036
 5361TIP3    H216090   6.010   3.513   0.092
 5362TIP3   OH216091   0.702   5.459   0.720
 5362TIP3    H116092   0.632   5.402   0.752
 5362TIP3    H216093   0.783   5.418   0.750
 5363TIP3   OH216094   1.912   3.232   3.657
 5363TIP3    H116095   1.864   3.283   3.723
 5363TIP3    H216096   1.853   3.229   3.582
 5364TIP3   OH216097   1.115   5.415   1.349
 5364TIP3    H116098   1.176   5.485   1.374
 5364TIP3    H216099   1.029   5.451   1.369
 5365TIP3   OH216100   2.687   4.447   3.970
 5365TIP3    H116101   2.739   4.373   4.004
 5365TIP3    H216102   2.723   4.523   4.014
 5366TIP3   OH216103   2.507   0.555   1.442
 5366TIP3    H116104   2.416   0.573   1.417
 5366TIP3    H216105   2.503   0.473   1.489
 5367TIP3   OH216106   5.468   5.791   4.249
 5367TIP3    H116107   5.408   5.830   4.186
 5367TIP3    H216108   5.413   5.738   4.306
 5368TIP3   OH216109   0.913   5.274   2.021
 5368TIP3    H116110   0.832   5.248   2.064
 5368TIP3    H216111   0.926   5.365   2.047
 5369TIP3   OH216112   0.382   4.324   0.339
 5369TIP3    H116113   0.382   4.229   0.350
 5369TIP3    H216114   0.440   4.356   0.407
 5370TIP3   OH216115   6.028   5.364   1.388
 5370TIP3    H116116   6.120   5.386   1.398
 5370TIP3    H216117   5.981   5.440   1.423
 5371TIP3   OH216118   5.093   1.172   3.507
 5371TIP3    H116119   5.062   1.082   3.503
 5371TIP3    H216120   5.115   1.194   3.417
 5372TIP3   OH216121   0.340   2.307   1.889
 5372TIP3    H116122   0.281   2.357   1.947
 5372TIP3    H216123   0.335   2.218   1.922
 5373TIP3   OH216124   4.574   5.152   2.561
 5373TIP3    H116125   4.651   5.197   2.597
 5373TIP3    H216126   4.608   5.073   2.520
 5374TIP3   OH216127   5.048   3.045   4.479
 5374TIP3    H116128   5.112   2.975   4.492
 5374TIP3    H216129   5.093   3.124   4.511
 5375TIP3   OH216130   1.337   0.546   3.246
 5375TIP3    H116131   1.397   0.472   3.258
 5375TIP3    H216132   1.389   0.611   3.197
 5376TIP3   OH216133   4.412   5.696   4.420
 5376TIP3    H116134   4.340   5.706   4.482
 5376TIP3    H216135   4.485   5.665   4.474
 5377TIP3   OH216136   2.870   2.576   1.213
 5377TIP3    H116137   2.946   2.525   1.242
 5377TIP3    H216138   2.908   2.644   1.156
 5378TIP3   OH216139   2.556   5.571   5.058
 5378TIP3    H116140   2.642   5.556   5.097
 5378TIP3    H216141   2.563   5.535   4.970
 5379TIP3   OH216142   4.755   1.675   3.202
 5379TIP3    H116143   4.697   1.699   3.274
 5379TIP3    H216144   4.812   1.608   3.239
 5380TIP3   OH216145   3.459   5.429   1.561
 5380TIP3    H116146   3.474   5.437   1.467
 5380TIP3    H216147   3.374   5.470   1.576
 5381TIP3   OH216148   1.368   5.930   4.124
 5381TIP3    H116149   1.321   5.917   4.206
 5381TIP3    H216150   1.347   5.852   4.073
 5382TIP3   OH216151   1.219   1.173   2.666
 5382TIP3    H116152   1.137   1.180   2.716
 5382TIP3    H216153   1.274   1.244   2.700
 5383TIP3   OH216154   0.241   5.582   2.373
 5383TIP3    H116155   0.264   5.542   2.289
 5383TIP3    H216156   0.219   5.508   2.430
 5384TIP3   OH216157   4.565   5.469   2.316
 5384TIP3    H116158   4.606   5.471   2.402
 5384TIP3    H216159   4.545   5.560   2.296
 5385TIP3   OH216160   1.687   1.462   3.239
 5385TIP3    H116161   1.695   1.490   3.148
 5385TIP3    H216162   1.704   1.541   3.290
 5386TIP3   OH216163   5.662   3.356   4.294
 5386TIP3    H116164   5.631   3.420   4.230
 5386TIP3    H216165   5.717   3.406   4.355
 5387TIP3   OH216166   0.470   4.558   3.391
 5387TIP3    H116167   0.424   4.642   3.394
 5387TIP3    H216168   0.448   4.516   3.474
 5388TIP3   OH216169   5.469   5.462   2.843
 5388TIP3    H116170   5.397   5.422   2.891
 5388TIP3    H216171   5.471   5.553   2.874
 5389TIP3   OH216172   2.452   3.654   0.810
 5389TIP3    H116173   2.422   3.743   0.790
 5389TIP3    H216174   2.545   3.656   0.791
 5390TIP3   OH216175   2.525   3.560   5.112
 5390TIP3    H116176   2.467   3.633   5.091
 5390TIP3    H216177   2.530   3.559   5.208
 5391TIP3   OH216178   4.586   5.946   1.230
 5391TIP3    H116179   4.652   5.965   1.297
 5391TIP3    H216180   4.511   6.000   1.255
 5392TIP3   OH216181   3.739   3.204   3.491
 5392TIP3    H116182   3.702   3.268   3.431
 5392TIP3    H216183   3.705   3.229   3.577
 5393TIP3   OH216184   5.477   5.062   3.073
 5393TIP3    H116185   5.393   5.094   3.106
 5393TIP3    H216186   5.472   5.078   2.979
 5394TIP3   OH216187   4.351   1.369   3.412
 5394TIP3    H116188   4.260   1.344   3.427
 5394TIP3    H216189   4.349   1.464   3.408
 5395TIP3   OH216190   2.892   5.498   1.030
 5395TIP3    H116191   2.801   5.469   1.032
 5395TIP3    H216192   2.934   5.451   1.102
 5396TIP3   OH216193   2.028   4.473   4.595
 5396TIP3    H116194   2.064   4.439   4.513
 5396TIP3    H216195   1.950   4.419   4.610
 5397TIP3   OH216196   2.678   4.212   2.335
 5397TIP3    H116197   2.606   4.165   2.377
 5397TIP3    H216198   2.699   4.160   2.258
 5398TIP3   OH216199   3.431   0.684   3.566
 5398TIP3    H116200   3.502   0.739   3.600
 5398TIP3    H216201   3.351   0.730   3.591
 5399TIP3   OH216202   6.207   4.032   2.043
 5399TIP3    H116203   6.126   3.989   2.069
 5399TIP3    H216204   6.179   4.100   1.982
 5400TIP3   OH216205   5.452   5.922   2.773
 5400TIP3    H116206   5.519   5.855   2.758
 5400TIP3    H216207   5.439   5.963   2.687
 5401TIP3   OH216208   2.872   3.885   4.076
 5401TIP3    H116209   2.941   3.891   4.142
 5401TIP3    H216210   2.888   3.800   4.033
 5402TIP3   OH216211   2.822   4.182   1.306
 5402TIP3    H116212   2.836   4.243   1.233
 5402TIP3    H216213   2.908   4.174   1.347
 5403TIP3   OH216214   2.403   5.731   0.845
 5403TIP3    H116215   2.327   5.694   0.800
 5403TIP3    H216216   2.426   5.808   0.793
 5404TIP3   OH216217   0.044   1.292   4.632
 5404TIP3    H116218  -0.039   1.248   4.645
 5404TIP3    H216219   0.081   1.251   4.554
 5405TIP3   OH216220   6.264   3.543   2.136
 5405TIP3    H116221   6.264   3.639   2.142
 5405TIP3    H216222   6.351   3.521   2.104
 5406TIP3   OH216223   2.503   3.973   1.674
 5406TIP3    H116224   2.423   3.948   1.720
 5406TIP3    H216225   2.503   3.919   1.595
 5407TIP3   OH216226   4.786   1.915   2.222
 5407TIP3    H116227   4.705   1.954   2.189
 5407TIP3    H216228   4.759   1.831   2.258
 5408TIP3   OH216229   3.755   2.932   2.912
 5408TIP3    H116230   3.692   2.861   2.906
 5408TIP3    H216231   3.827   2.896   2.965
 5409TIP3   OH216232   4.652   0.386   0.418
 5409TIP3    H116233   4.584   0.439   0.376
 5409TIP3    H216234   4.707   0.357   0.346
 5410TIP3   OH216235   1.689   4.313   1.869
 5410TIP3    H116236   1.674   4.222   1.897
 5410TIP3    H216237   1.639   4.321   1.788
 5411TIP3   OH216238   3.314   4.937   2.986
 5411TIP3    H116239   3.282   4.986   3.062
 5411TIP3    H216240   3.235   4.915   2.938
 5412TIP3   OH216241   5.315   2.169   4.238
 5412TIP3    H116242   5.290   2.241   4.296
 5412TIP3    H216243   5.405   2.148   4.264
 5413TIP3   OH216244   1.122   5.167   1.440
 5413TIP3    H116245   1.033   5.158   1.474
 5413TIP3    H216246   1.127   5.258   1.412
 5414TIP3   OH216247   3.377   5.870   4.108
 5414TIP3    H116248   3.457   5.857   4.057
 5414TIP3    H216249   3.407   5.906   4.191
 5415TIP3   OH216250   3.847   3.699   4.039
 5415TIP3    H116251   3.822   3.655   3.958
 5415TIP3    H216252   3.897   3.776   4.010
 5416TIP3   OH216253   4.792   2.596   3.249
 5416TIP3    H116254   4.797   2.502   3.233
 5416TIP3    H216255   4.738   2.605   3.327
 5417TIP3   OH216256   1.362   0.280   4.222
 5417TIP3    H116257   1.284   0.298   4.273
 5417TIP3    H216258   1.412   0.219   4.276
 5418TIP3   OH216259   5.026   1.083   5.006
 5418TIP3    H116260   5.024   1.020   5.078
 5418TIP3    H216261   5.119   1.102   4.993
 5419TIP3   OH216262   2.423   4.968   4.225
 5419TIP3    H116263   2.497   4.977   4.165
 5419TIP3    H216264   2.419   4.874   4.244
 5420TIP3   OH216265   0.757   4.065   0.983
 5420TIP3    H116266   0.684   4.055   1.045
 5420TIP3    H216267   0.727   4.131   0.922
 5421TIP3   OH216268   5.753   2.372   0.404
 5421TIP3    H116269   5.694   2.398   0.474
 5421TIP3    H216270   5.745   2.441   0.339
 5422TIP3   OH216271   0.676   0.263   2.434
 5422TIP3    H116272   0.685   0.168   2.426
 5422TIP3    H216273   0.637   0.291   2.351
 5423TIP3   OH216274   2.128   2.348   2.070
 5423TIP3    H116275   2.080   2.390   1.999
 5423TIP3    H216276   2.187   2.286   2.026
 5424TIP3   OH216277   4.700   2.313   0.113
 5424TIP3    H116278   4.696   2.285   0.204
 5424TIP3    H216279   4.739   2.239   0.066
 5425TIP3   OH216280   6.082   5.291   4.702
 5425TIP3    H116281   6.088   5.387   4.705
 5425TIP3    H216282   6.122   5.263   4.784
 5426TIP3   OH216283   0.926   3.095   1.185
 5426TIP3    H116284   0.930   3.167   1.121
 5426TIP3    H216285   0.975   3.024   1.143
 5427TIP3   OH216286   2.020   1.369   4.552
 5427TIP3    H116287   2.058   1.446   4.510
 5427TIP3    H216288   2.096   1.315   4.575
 5428TIP3   OH216289   1.913   4.687   4.389
 5428TIP3    H116290   1.905   4.634   4.310
 5428TIP3    H216291   1.865   4.638   4.456
 5429TIP3   OH216292   5.598   4.180   0.973
 5429TIP3    H116293   5.568   4.211   0.887
 5429TIP3    H216294   5.558   4.242   1.035
 5430TIP3   OH216295   2.624   3.945   3.009
 5430TIP3    H116296   2.578   3.951   3.093
 5430TIP3    H216297   2.554   3.940   2.944
 5431TIP3   OH216298   5.663   2.613   3.413
 5431TIP3    H116299   5.679   2.656   3.497
 5431TIP3    H216300   5.748   2.578   3.387
 5432TIP3   OH216301   0.813   2.325   2.710
 5432TIP3    H116302   0.767   2.304   2.629
 5432TIP3    H216303   0.825   2.420   2.707
 5433TIP3   OH216304   4.689   4.052   0.767
 5433TIP3    H116305   4.710   3.965   0.733
 5433TIP3    H216306   4.754   4.068   0.836
 5434TIP3   OH216307   1.375   4.691   1.289
 5434TIP3    H116308   1.347   4.601   1.305
 5434TIP3    H216309   1.375   4.700   1.193
 5435TIP3   OH216310   3.115   0.781   0.757
 5435TIP3    H116311   3.199   0.747   0.727
 5435TIP3    H216312   3.078   0.824   0.679
 5436TIP3   OH216313  -0.007   0.375   1.888
 5436TIP3    H116314   0.006   0.282   1.906
 5436TIP3    H216315   0.072   0.402   1.841
 5437TIP3   OH216316   2.655   5.369   2.073
 5437TIP3    H116317   2.730   5.311   2.056
 5437TIP3    H216318   2.645   5.368   2.168
 5438TIP3   OH216319   5.125   5.947   2.682
 5438TIP3    H116320   5.158   6.036   2.693
 5438TIP3    H216321   5.036   5.958   2.648
 5439TIP3   OH216322   2.092   2.103   0.303
 5439TIP3    H116323   2.047   2.058   0.375
 5439TIP3    H216324   2.168   2.143   0.344
 5440TIP3   OH216325   5.477   3.886   3.017
 5440TIP3    H116326   5.424   3.809   2.995
 5440TIP3    H216327   5.414   3.957   3.028
 5441TIP3   OH216328   1.565   4.537   1.980
 5441TIP3    H116329   1.531   4.490   2.056
 5441TIP3    H216330   1.615   4.471   1.932
 5442TIP3   OH216331   4.470   1.790   3.008
 5442TIP3    H116332   4.560   1.824   3.011
 5442TIP3    H216333   4.453   1.760   3.097
 5443TIP3   OH216334   0.715   0.193   0.157
 5443TIP3    H116335   0.736   0.120   0.099
 5443TIP3    H216336   0.656   0.249   0.105
 5444TIP3   OH216337   0.179   2.936   3.544
 5444TIP3    H116338   0.150   2.857   3.590
 5444TIP3    H216339   0.106   2.958   3.487
 5445TIP3   OH216340   4.888   5.016   4.472
 5445TIP3    H116341   4.959   5.055   4.524
 5445TIP3    H216342   4.882   5.071   4.395
 5446TIP3   OH216343   4.518   2.907   0.993
 5446TIP3    H116344   4.502   2.976   0.929
 5446TIP3    H216345   4.435   2.898   1.039
 5447TIP3   OH216346   4.084   5.580   0.762
 5447TIP3    H116347   4.156   5.642   0.772
 5447TIP3    H216348   4.102   5.536   0.679
 5448TIP3   OH216349   2.636   0.916   2.929
 5448TIP3    H116350   2.659   1.003   2.962
 5448TIP3    H216351   2.691   0.904   2.852
 5449TIP3   OH216352   4.689   1.690   0.063
 5449TIP3    H116353   4.629   1.680  -0.011
 5449TIP3    H216354   4.634   1.678   0.141
 5450TIP3   OH216355   5.959   5.253   0.137
 5450TIP3    H116356   5.973   5.182   0.199
 5450TIP3    H216357   6.028   5.317   0.156
 5451TIP3   OH216358   4.931   1.905   4.809
 5451TIP3    H116359   4.957   1.815   4.828
 5451TIP3    H216360   4.936   1.950   4.893
 5452TIP3   OH216361   3.058   2.924   3.444
 5452TIP3    H116362   2.996   2.853   3.426
 5452TIP3    H216363   3.124   2.885   3.501
 5453TIP3   OH216364   0.908   4.496   0.924
 5453TIP3    H116365   0.945   4.572   0.968
 5453TIP3    H216366   0.943   4.500   0.835
 5454TIP3   OH216367   1.832   4.928   4.841
 5454TIP3    H116368   1.913   4.971   4.869
 5454TIP3    H216369   1.860   4.840   4.815
 5455TIP3   OH216370   4.877   0.700   1.355
 5455TIP3    H116371   4.889   0.691   1.261
 5455TIP3    H216372   4.796   0.751   1.364
 5456TIP3   OH216373   5.389   2.341   3.096
 5456TIP3    H116374   5.393   2.418   3.153
 5456TIP3    H216375   5.443   2.366   3.020
 5457TIP3   OH216376   2.053   2.398   4.395
 5457TIP3    H116377   2.106   2.434   4.324
 5457TIP3    H216378   2.111   2.400   4.471
 5458TIP3   OH216379   0.838   5.986   1.500
 5458TIP3    H116380   0.753   6.017   1.531
 5458TIP3    H216381   0.874   5.935   1.572
 5459TIP3   OH216382   4.860   0.791   4.526
 5459TIP3    H116383   4.908   0.712   4.551
 5459TIP3    H216384   4.820   0.768   4.442
 5460TIP3   OH216385   0.203   0.946   3.842
 5460TIP3    H116386   0.273   1.009   3.858
 5460TIP3    H216387   0.125   0.985   3.882
 5461TIP3   OH216388   2.782   2.623   0.152
 5461TIP3    H116389   2.719   2.679   0.198
 5461TIP3    H216390   2.739   2.599   0.071
 5462TIP3   OH216391   5.516   4.139   3.218
 5462TIP3    H116392   5.464   4.170   3.144
 5462TIP3    H216393   5.607   4.143   3.188
 5463TIP3   OH216394   5.100   0.954   0.482
 5463TIP3    H116395   5.120   0.865   0.452
 5463TIP3    H216396   5.167   1.009   0.439
 5464TIP3   OH216397   4.785   4.017   4.310
 5464TIP3    H116398   4.708   3.974   4.348
 5464TIP3    H216399   4.836   3.945   4.272
 5465TIP3   OH216400   2.475   0.026   3.997
 5465TIP3    H116401   2.382   0.029   3.979
 5465TIP3    H216402   2.484  -0.041   4.066
 5466TIP3   OH216403   5.465   0.655   0.625
 5466TIP3    H116404   5.482   0.588   0.559
 5466TIP3    H216405   5.516   0.731   0.596
 5467TIP3   OH216406   3.816   2.930   1.149
 5467TIP3    H116407   3.770   2.876   1.085
 5467TIP3    H216408   3.763   3.010   1.156
 5468TIP3   OH216409   2.895   5.098   0.793
 5468TIP3    H116410   2.951   5.175   0.776
 5468TIP3    H216411   2.808   5.135   0.806
 5469TIP3   OH216412   0.351   5.020   5.010
 5469TIP3    H116413   0.265   4.993   4.978
 5469TIP3    H216414   0.392   5.062   4.934
 5470TIP3   OH216415   5.318   2.221   2.134
 5470TIP3    H116416   5.361   2.169   2.201
 5470TIP3    H216417   5.259   2.161   2.090
 5471TIP3   OH216418   4.197   0.137   4.989
 5471TIP3    H116419   4.152   0.181   4.918
 5471TIP3    H216420   4.247   0.066   4.947
 5472TIP3   OH216421   2.501   5.236   2.989
 5472TIP3    H116422   2.453   5.318   2.993
 5472TIP3    H216423   2.479   5.191   3.070
 5473TIP3   OH216424   5.455   3.806   4.186
 5473TIP3    H116425   5.527   3.787   4.246
 5473TIP3    H216426   5.431   3.721   4.148
 5474TIP3   OH216427   3.887   5.769   4.037
 5474TIP3    H116428   3.835   5.849   4.029
 5474TIP3    H216429   3.942   5.783   4.114
 5475TIP3   OH216430   0.800   1.158   2.923
 5475TIP3    H116431   0.708   1.135   2.937
 5475TIP3    H216432   0.802   1.253   2.929
 5476TIP3   OH216433   2.566   1.224   0.635
 5476TIP3    H116434   2.537   1.223   0.727
 5476TIP3    H216435   2.485   1.223   0.584
 5477TIP3   OH216436   3.830   2.329   4.862
 5477TIP3    H116437   3.862   2.376   4.785
 5477TIP3    H216438   3.735   2.339   4.859
 5478TIP3   OH216439   3.443   1.112   3.464
 5478TIP3    H116440   3.446   1.185   3.526
 5478TIP3    H216441   3.531   1.075   3.466
 5479TIP3   OH216442   0.018   0.147   0.451
 5479TIP3    H116443   0.050   0.236   0.468
 5479TIP3    H216444   0.075   0.114   0.382
 5480TIP3   OH216445   5.436   2.096   2.335
 5480TIP3    H116446   5.376   2.030   2.367
 5480TIP3    H216447   5.507   2.098   2.399
 5481TIP3   OH216448   3.653   1.009   2.253
 5481TIP3    H116449   3.693   0.923   2.248
 5481TIP3    H216450   3.560   0.992   2.271
 5482TIP3   OH216451   2.251   0.286   4.184
 5482TIP3    H116452   2.266   0.329   4.268
 5482TIP3    H216453   2.281   0.196   4.198
 5483TIP3   OH216454   3.093   0.847   0.341
 5483TIP3    H116455   3.042   0.876   0.417
 5483TIP3    H216456   3.078   0.753   0.336
 5484TIP3   OH216457   2.270   4.975   2.934
 5484TIP3    H116458   2.253   4.949   3.025
 5484TIP3    H216459   2.315   4.899   2.896
 5485TIP3   OH216460   4.672   1.836   1.383
 5485TIP3    H116461   4.686   1.742   1.384
 5485TIP3    H216462   4.642   1.855   1.294
 5486TIP3   OH216463   4.006   4.026   2.440
 5486TIP3    H116464   4.012   4.091   2.370
 5486TIP3    H216465   4.094   4.022   2.478
 5487TIP3   OH216466   1.467   1.890   0.926
 5487TIP3    H116467   1.451   1.983   0.938
 5487TIP3    H216468   1.445   1.873   0.834
 5488TIP3   OH216469   4.223   1.972   4.689
 5488TIP3    H116470   4.263   1.890   4.715
 5488TIP3    H216471   4.288   2.015   4.635
 5489TIP3   OH216472   2.405   1.536   3.965
 5489TIP3    H116473   2.357   1.580   3.895
 5489TIP3    H216474   2.442   1.458   3.924
 5490TIP3   OH216475   6.244   5.713   5.105
 5490TIP3    H116476   6.201   5.785   5.058
 5490TIP3    H216477   6.275   5.654   5.036
 5491TIP3   OH216478   4.712   3.308   1.720
 5491TIP3    H116479   4.806   3.308   1.741
 5491TIP3    H216480   4.708   3.341   1.630
 5492TIP3   OH216481   4.919   1.317   4.344
 5492TIP3    H116482   4.933   1.322   4.249
 5492TIP3    H216483   4.936   1.226   4.366
 5493TIP3   OH216484   3.242   1.986   5.045
 5493TIP3    H116485   3.209   2.063   5.091
 5493TIP3    H216486   3.314   1.955   5.099
 5494TIP3   OH216487   5.196   2.953   0.042
 5494TIP3    H116488   5.255   2.878   0.039
 5494TIP3    H216489   5.251   3.027   0.015
 5495TIP3   OH216490   0.456   3.078   2.558
 5495TIP3    H116491   0.404   3.128   2.495
 5495TIP3    H216492   0.484   3.000   2.510
 5496TIP3   OH216493   1.380   2.978   2.042
 5496TIP3    H116494   1.304   3.031   2.068
 5496TIP3    H216495   1.456   3.033   2.062
 5497TIP3   OH216496   5.097   4.367   3.711
 5497TIP3    H116497   5.039   4.415   3.652
 5497TIP3    H216498   5.066   4.388   3.799
 5498TIP3   OH216499   5.169   1.517   3.835
 5498TIP3    H116500   5.185   1.468   3.754
 5498TIP3    H216501   5.232   1.589   3.833
 5499TIP3   OH216502   4.726   4.509   1.004
 5499TIP3    H116503   4.770   4.458   0.937
 5499TIP3    H216504   4.707   4.593   0.962
 5500TIP3   OH216505   4.689   2.167   1.065
 5500TIP3    H116506   4.670   2.139   0.976
 5500TIP3    H216507   4.654   2.256   1.071
 5501TIP3   OH216508   6.242   0.577   4.582
 5501TIP3    H116509   6.234   0.664   4.620
 5501TIP3    H216510   6.238   0.592   4.488
 5502TIP3   OH216511   5.974   1.286   0.060
 5502TIP3    H116512   6.059   1.329   0.061
 5502TIP3    H216513   5.913   1.356   0.035
 5503TIP3   OH216514   6.279   1.556   4.799
 5503TIP3    H116515   6.259   1.582   4.889
 5503TIP3    H216516   6.375   1.551   4.797
 5504TIP3   OH216517   5.409   5.096   0.851
 5504TIP3    H116518   5.484   5.155   0.852
 5504TIP3    H216519   5.334   5.154   0.865
 5505TIP3   OH216520   5.461   2.887   0.998
 5505TIP3    H116521   5.431   2.812   1.049
 5505TIP3    H216522   5.553   2.897   1.021
 5506TIP3   OH216523   0.268   4.535   3.874
 5506TIP3    H116524   0.219   4.517   3.954
 5506TIP3    H216525   0.205   4.579   3.816
 5507TIP3   OH216526   4.056   4.586   1.821
 5507TIP3    H116527   4.128   4.537   1.862
 5507TIP3    H216528   4.068   4.570   1.727
 5508TIP3   OH216529   4.606   5.844   4.196
 5508TIP3    H116530   4.540   5.913   4.187
 5508TIP3    H216531   4.679   5.886   4.240
 5509TIP3   OH216532   0.450   5.817   0.871
 5509TIP3    H116533   0.456   5.906   0.835
 5509TIP3    H216534   0.383   5.775   0.818
 5510TIP3   OH216535   2.408   5.016   1.102
 5510TIP3    H116536   2.326   5.013   1.151
 5510TIP3    H216537   2.389   5.070   1.025
 5511TIP3   OH216538   6.175   0.485   1.190
 5511TIP3    H116539   6.214   0.398   1.185
 5511TIP3    H216540   6.084   0.472   1.165
 5512TIP3   OH216541  -0.022   5.040   1.807
 5512TIP3    H116542   0.009   5.131   1.800
 5512TIP3    H216543   0.058   4.988   1.812
 5513TIP3   OH216544   3.399   4.126   3.715
 5513TIP3    H116545   3.321   4.115   3.661
 5513TIP3    H216546   3.378   4.083   3.797
 5514TIP3   OH216547   2.898   4.000   5.060
 5514TIP3    H116548   2.949   4.021   4.982
 5514TIP3    H216549   2.954   4.025   5.134
 5515TIP3   OH216550   0.135   4.055   3.050
 5515TIP3    H116551   0.180   4.132   3.013
 5515TIP3    H216552   0.199   4.017   3.110
 5516TIP3   OH216553   2.523   0.365   3.231
 5516TIP3    H116554   2.532   0.289   3.173
 5516TIP3    H216555   2.432   0.363   3.258
 5517TIP3   OH216556   1.426   5.111   2.451
 5517TIP3    H116557   1.354   5.122   2.389
 5517TIP3    H216558   1.413   5.180   2.516
 5518TIP3   OH216559   5.215   4.280   2.267
 5518TIP3    H116560   5.162   4.332   2.328
 5518TIP3    H216561   5.303   4.280   2.305
 5519TIP3   OH216562   3.900   4.125   4.681
 5519TIP3    H116563   3.963   4.060   4.648
 5519TIP3    H216564   3.825   4.118   4.622
 5520TIP3   OH216565   6.188   5.502   2.289
 5520TIP3    H116566   6.145   5.507   2.374
 5520TIP3    H216567   6.161   5.580   2.242
 5521TIP3   OH216568   1.474   2.114   0.037
 5521TIP3    H116569   1.477   2.020   0.058
 5521TIP3    H216570   1.381   2.135   0.040
 5522TIP3   OH216571   1.937   3.053   1.250
 5522TIP3    H116572   1.861   3.018   1.297
 5522TIP3    H216573   1.904   3.074   1.163
 5523TIP3   OH216574   5.503   4.060   0.545
 5523TIP3    H116575   5.584   4.019   0.515
 5523TIP3    H216576   5.435   4.022   0.489
 5524TIP3   OH216577   4.246   2.120   2.196
 5524TIP3    H116578   4.174   2.182   2.191
 5524TIP3    H216579   4.205   2.038   2.224
 5525TIP3   OH216580   3.722   3.179   3.064
 5525TIP3    H116581   3.629   3.197   3.055
 5525TIP3    H216582   3.734   3.095   3.019
 5526TIP3   OH216583   5.746   0.790   3.646
 5526TIP3    H116584   5.693   0.715   3.618
 5526TIP3    H216585   5.683   0.851   3.685
 5527TIP3   OH216586   0.722   1.498   0.689
 5527TIP3    H116587   0.739   1.587   0.718
 5527TIP3    H216588   0.635   1.478   0.723
 5528TIP3   OH216589   2.886   0.513   4.142
 5528TIP3    H116590   2.877   0.557   4.227
 5528TIP3    H216591   2.963   0.552   4.102
 5529TIP3   OH216592   2.981   4.511   4.195
 5529TIP3    H116593   3.020   4.517   4.108
 5529TIP3    H216594   3.025   4.579   4.246
 5530TIP3   OH216595   3.159   2.551   1.264
 5530TIP3    H116596   3.191   2.504   1.341
 5530TIP3    H216597   3.234   2.602   1.234
 5531TIP3   OH216598   5.976   3.744   0.685
 5531TIP3    H116599   6.008   3.729   0.596
 5531TIP3    H216600   5.960   3.838   0.690
 5532TIP3   OH216601   5.287   2.834   4.924
 5532TIP3    H116602   5.274   2.739   4.919
 5532TIP3    H216603   5.198   2.870   4.929
 5533TIP3   OH216604   3.574   5.811   3.937
 5533TIP3    H116605   3.631   5.750   3.891
 5533TIP3    H216606   3.628   5.887   3.955
 5534TIP3   OH216607   1.830   2.558   2.397
 5534TIP3    H116608   1.845   2.629   2.460
 5534TIP3    H216609   1.910   2.507   2.400
 5535TIP3   OH216610   0.341   0.587   5.149
 5535TIP3    H116611   0.322   0.639   5.228
 5535TIP3    H216612   0.423   0.623   5.116
 5536TIP3   OH216613   5.055   1.738   2.574
 5536TIP3    H116614   4.995   1.668   2.599
 5536TIP3    H216615   5.003   1.818   2.578
 5537TIP3   OH216616   4.927   3.471   3.116
 5537TIP3    H116617   4.859   3.537   3.127
 5537TIP3    H216618   4.902   3.424   3.037
 5538TIP3   OH216619   0.050   2.188   2.884
 5538TIP3    H116620   0.031   2.155   2.796
 5538TIP3    H216621   0.097   2.270   2.869
 5539TIP3   OH216622   0.403   4.907   1.611
 5539TIP3    H116623   0.496   4.891   1.624
 5539TIP3    H216624   0.397   4.999   1.586
 5540TIP3   OH216625   3.065   5.193   2.891
 5540TIP3    H116626   3.159   5.197   2.871
 5540TIP3    H216627   3.036   5.284   2.886
 5541TIP3   OH216628   0.894   0.235   2.658
 5541TIP3    H116629   0.844   0.266   2.583
 5541TIP3    H216630   0.985   0.256   2.637
 5542TIP3   OH216631   3.005   3.616   0.234
 5542TIP3    H116632   3.024   3.522   0.226
 5542TIP3    H216633   2.964   3.640   0.151
 5543TIP3   OH216634   0.006   3.162   1.672
 5543TIP3    H116635  -0.036   3.078   1.654
 5543TIP3    H216636   0.035   3.156   1.763
 5544TIP3   OH216637   2.278   2.380   2.462
 5544TIP3    H116638   2.185   2.360   2.466
 5544TIP3    H216639   2.290   2.448   2.529
 5545TIP3   OH216640   4.957   4.677   1.788
 5545TIP3    H116641   4.939   4.771   1.781
 5545TIP3    H216642   4.875   4.634   1.762
 5546TIP3   OH216643   0.601   1.522   4.085
 5546TIP3    H116644   0.666   1.508   4.153
 5546TIP3    H216645   0.615   1.612   4.057
 5547TIP3   OH216646   1.639   0.406   0.543
 5547TIP3    H116647   1.674   0.468   0.479
 5547TIP3    H216648   1.625   0.325   0.493
 5548TIP3   OH216649   3.961   3.910   3.414
 5548TIP3    H116650   3.871   3.885   3.392
 5548TIP3    H216651   3.978   3.986   3.359
 5549TIP3   OH216652   0.927   3.788   5.137
 5549TIP3    H116653   0.928   3.702   5.179
 5549TIP3    H216654   0.851   3.785   5.078
 5550TIP3   OH216655   1.251   4.597   4.900
 5550TIP3    H116656   1.284   4.629   4.984
 5550TIP3    H216657   1.217   4.675   4.857
 5551TIP3   OH216658   0.086   3.874   0.308
 5551TIP3    H116659   0.042   3.824   0.240
 5551TIP3    H216660   0.045   3.845   0.389
 5552TIP3   OH216661   5.270   4.875   3.603
 5552TIP3    H116662   5.315   4.946   3.556
 5552TIP3    H216663   5.253   4.810   3.535
 5553TIP3   OH216664   2.617   5.327   0.856
 5553TIP3    H116665   2.593   5.357   0.768
 5553TIP3    H216666   2.631   5.408   0.906
 5554TIP3   OH216667   6.007   0.893   4.590
 5554TIP3    H116668   6.021   0.939   4.507
 5554TIP3    H216669   5.953   0.817   4.567
 5555TIP3   OH216670   3.159   4.722   4.060
 5555TIP3    H116671   3.255   4.721   4.056
 5555TIP3    H216672   3.132   4.641   4.017
 5556TIP3   OH216673   5.503   0.428   0.459
 5556TIP3    H116674   5.513   0.380   0.542
 5556TIP3    H216675   5.591   0.435   0.424
 5557TIP3   OH216676   0.995   4.198   0.493
 5557TIP3    H116677   1.037   4.183   0.408
 5557TIP3    H216678   1.021   4.123   0.546
 5558TIP3   OH216679   5.785   4.230   2.143
 5558TIP3    H116680   5.875   4.257   2.124
 5558TIP3    H216681   5.749   4.301   2.196
 5559TIP3   OH216682   1.653   0.250   2.017
 5559TIP3    H116683   1.711   0.174   2.023
 5559TIP3    H216684   1.701   0.321   2.059
 5560TIP3   OH216685   5.995   2.324   0.618
 5560TIP3    H116686   6.064   2.385   0.647
 5560TIP3    H216687   5.919   2.380   0.603
 5561TIP3   OH216688   1.060   3.355   3.581
 5561TIP3    H116689   1.152   3.345   3.607
 5561TIP3    H216690   1.038   3.444   3.608
 5562TIP3   OH216691   2.867   5.072   3.107
 5562TIP3    H116692   2.904   5.137   3.167
 5562TIP3    H216693   2.890   5.104   3.020
 5563TIP3   OH216694   2.687   5.474   2.923
 5563TIP3    H116695   2.730   5.442   2.844
 5563TIP3    H216696   2.641   5.397   2.958
 5564TIP3   OH216697   0.059   4.590  -0.005
 5564TIP3    H116698   0.056   4.631   0.082
 5564TIP3    H216699  -0.029   4.554  -0.017
 5565TIP3   OH216700   1.404   3.623   2.808
 5565TIP3    H116701   1.452   3.561   2.753
 5565TIP3    H216702   1.326   3.644   2.757
 5566TIP3   OH216703   3.981   5.046   1.395
 5566TIP3    H116704   3.893   5.075   1.374
 5566TIP3    H216705   4.035   5.078   1.322
 5567TIP3   OH216706   0.580   4.462   0.490
 5567TIP3    H116707   0.651   4.412   0.529
 5567TIP3    H216708   0.622   4.535   0.446
 5568TIP3   OH216709   2.433   4.369   1.801
 5568TIP3    H116710   2.354   4.419   1.782
 5568TIP3    H216711   2.494   4.393   1.731
 5569TIP3   OH216712   4.254   1.680   0.273
 5569TIP3    H116713   4.226   1.770   0.289
 5569TIP3    H216714   4.187   1.626   0.313
 5570TIP3   OH216715   0.883   4.801   2.221
 5570TIP3    H116716   0.840   4.870   2.271
 5570TIP3    H216717   0.963   4.841   2.187
 5571TIP3   OH216718   3.098   3.819   4.553
 5571TIP3    H116719   3.010   3.794   4.580
 5571TIP3    H216720   3.086   3.859   4.467
 5572TIP3   OH216721   3.910   5.889   0.038
 5572TIP3    H116722   4.005   5.898   0.041
 5572TIP3    H216723   3.888   5.904  -0.054
 5573TIP3   OH216724   3.086   5.940   5.070
 5573TIP3    H116725   3.137   5.860   5.085
 5573TIP3    H216726   3.147   5.999   5.025
 5574TIP3   OH216727   3.874   2.708   1.513
 5574TIP3    H116728   3.859   2.680   1.423
 5574TIP3    H216729   3.969   2.717   1.520
 5575TIP3   OH216730   0.951   4.819   3.549
 5575TIP3    H116731   0.895   4.892   3.524
 5575TIP3    H216732   0.890   4.747   3.568
 5576TIP3   OH216733   1.372   4.908   1.693
 5576TIP3    H116734   1.323   4.985   1.722
 5576TIP3    H216735   1.339   4.836   1.748
 5577TIP3   OH216736   6.221   5.416   5.102
 5577TIP3    H116737   6.287   5.413   5.033
 5577TIP3    H216738   6.270   5.413   5.184
 5578TIP3   OH216739   0.209   2.973   1.091
 5578TIP3    H116740   0.291   2.928   1.075
 5578TIP3    H216741   0.220   3.014   1.177
 5579TIP3   OH216742   5.703   5.799   0.734
 5579TIP3    H116743   5.741   5.750   0.661
 5579TIP3    H216744   5.637   5.741   0.771
 5580TIP3   OH216745   2.523   1.191   2.841
 5580TIP3    H116746   2.618   1.184   2.833
 5580TIP3    H216747   2.501   1.274   2.798
 5581TIP3   OH216748   6.240   2.646   0.993
 5581TIP3    H116749   6.335   2.641   0.991
 5581TIP3    H216750   6.221   2.718   1.054
 5582TIP3   OH216751   1.545   4.317   1.309
 5582TIP3    H116752   1.463   4.347   1.346
 5582TIP3    H216753   1.555   4.228   1.343
 5583TIP3   OH216754   5.821   3.150   4.634
 5583TIP3    H116755   5.856   3.061   4.632
 5583TIP3    H216756   5.896   3.207   4.617
 5584TIP3   OH216757   3.789   2.138   4.285
 5584TIP3    H116758   3.853   2.207   4.269
 5584TIP3    H216759   3.715   2.182   4.326
 5585TIP3   OH216760   0.476   1.792   0.710
 5585TIP3    H116761   0.542   1.762   0.648
 5585TIP3    H216762   0.492   1.740   0.789
 5586TIP3   OH216763   0.843   0.344   3.978
 5586TIP3    H116764   0.848   0.255   4.012
 5586TIP3    H216765   0.879   0.338   3.889
 5587TIP3   OH216766   1.220   1.816   0.748
 5587TIP3    H116767   1.220   1.724   0.772
 5587TIP3    H216768   1.278   1.822   0.672
 5588TIP3   OH216769   4.150   3.408   3.447
 5588TIP3    H116770   4.075   3.355   3.420
 5588TIP3    H216771   4.211   3.403   3.374
 5589TIP3   OH216772   0.343   3.148   2.821
 5589TIP3    H116773   0.312   3.238   2.816
 5589TIP3    H216774   0.362   3.124   2.731
 5590TIP3   OH216775   4.351   3.249   4.887
 5590TIP3    H116776   4.299   3.287   4.817
 5590TIP3    H216777   4.432   3.219   4.845
 5591TIP3   OH216778   0.590   2.449   0.564
 5591TIP3    H116779   0.598   2.384   0.634
 5591TIP3    H216780   0.572   2.397   0.485
 5592TIP3   OH216781   1.552   2.187   3.166
 5592TIP3    H116782   1.605   2.158   3.092
 5592TIP3    H216783   1.467   2.208   3.129
 5593TIP3   OH216784   4.401   5.194   3.209
 5593TIP3    H116785   4.462   5.201   3.135
 5593TIP3    H216786   4.447   5.140   3.273
 5594TIP3   OH216787   5.120   1.038   1.535
 5594TIP3    H116788   5.163   0.953   1.539
 5594TIP3    H216789   5.090   1.054   1.624
 5595TIP3   OH216790   3.657   2.787   0.993
 5595TIP3    H116791   3.685   2.751   0.909
 5595TIP3    H216792   3.580   2.840   0.972
 5596TIP3   OH216793   4.331   3.569   1.332
 5596TIP3    H116794   4.408   3.596   1.382
 5596TIP3    H216795   4.258   3.615   1.373
 5597TIP3   OH216796   3.532   4.707   4.603
 5597TIP3    H116797   3.592   4.781   4.598
 5597TIP3    H216798   3.456   4.740   4.650
 5598TIP3   OH216799   5.090   4.881   3.200
 5598TIP3    H116800   5.048   4.800   3.170
 5598TIP3    H216801   5.183   4.859   3.204
 5599TIP3   OH216802   5.736   2.700   1.381
 5599TIP3    H116803   5.677   2.652   1.438
 5599TIP3    H216804   5.757   2.639   1.310
 5600TIP3   OH216805   5.432   4.330   2.452
 5600TIP3    H116806   5.492   4.382   2.399
 5600TIP3    H216807   5.489   4.266   2.497
 5601TIP3   OH216808   5.067   2.050   1.351
 5601TIP3    H116809   5.064   1.996   1.430
 5601TIP3    H216810   5.125   2.122   1.373
 5602TIP3   OH216811   6.067   1.405   1.284
 5602TIP3    H116812   6.044   1.317   1.314
 5602TIP3    H216813   5.992   1.432   1.231
 5603TIP3   OH216814   4.517   4.146   0.160
 5603TIP3    H116815   4.578   4.220   0.167
 5603TIP3    H216816   4.520   4.122   0.067
 5604TIP3   OH216817   3.791   2.020   2.912
 5604TIP3    H116818   3.784   2.114   2.901
 5604TIP3    H216819   3.707   1.986   2.880
 5605TIP3   OH216820   0.725   3.281   1.648
 5605TIP3    H116821   0.649   3.224   1.651
 5605TIP3    H216822   0.775   3.252   1.572
 5606TIP3   OH216823   2.388   1.843   0.937
 5606TIP3    H116824   2.470   1.802   0.963
 5606TIP3    H216825   2.354   1.786   0.867
 5607TIP3   OH216826   0.414   3.217   4.400
 5607TIP3    H116827   0.344   3.154   4.418
 5607TIP3    H216828   0.411   3.229   4.305
 5608TIP3   OH216829   1.861   5.827   3.872
 5608TIP3    H116830   1.773   5.791   3.863
 5608TIP3    H216831   1.911   5.759   3.916
 5609TIP3   OH216832   5.205   5.758   1.886
 5609TIP3    H116833   5.110   5.765   1.876
 5609TIP3    H216834   5.221   5.785   1.976
 5610TIP3   OH216835   3.861   3.180   2.145
 5610TIP3    H116836   3.798   3.231   2.093
 5610TIP3    H216837   3.917   3.245   2.185
 5611TIP3   OH216838   6.082   0.437   1.974
 5611TIP3    H116839   6.065   0.367   2.037
 5611TIP3    H216840   6.177   0.448   1.974
 5612TIP3   OH216841   1.510   4.066   1.027
 5612TIP3    H116842   1.604   4.080   1.020
 5612TIP3    H216843   1.490   4.087   1.118
 5613TIP3   OH216844   3.469   5.379   3.874
 5613TIP3    H116845   3.553   5.414   3.904
 5613TIP3    H216846   3.493   5.312   3.809
 5614TIP3   OH216847   1.080   0.803   3.989
 5614TIP3    H116848   1.168   0.767   3.995
 5614TIP3    H216849   1.091   0.896   4.008
 5615TIP3   OH216850   5.967   3.600   2.845
 5615TIP3    H116851   5.952   3.509   2.821
 5615TIP3    H216852   6.004   3.597   2.933
 5616TIP3   OH216853   3.947   1.305   1.638
 5616TIP3    H116854   4.018   1.358   1.674
 5616TIP3    H216855   3.903   1.269   1.715
 5617TIP3   OH216856   3.014   0.857   4.795
 5617TIP3    H116857   2.942   0.795   4.787
 5617TIP3    H216858   2.981   0.939   4.759
 5618TIP3   OH216859   2.549   3.166   4.667
 5618TIP3    H116860   2.568   3.082   4.624
 5618TIP3    H216861   2.635   3.206   4.681
 5619TIP3   OH216862   5.135   3.739   1.747
 5619TIP3    H116863   5.158   3.828   1.773
 5619TIP3    H216864   5.049   3.724   1.786
 5620TIP3   OH216865   1.974   5.628   4.057
 5620TIP3    H116866   2.039   5.559   4.069
 5620TIP3    H216867   1.898   5.598   4.105
 5621TIP3   OH216868   0.377   3.294   3.825
 5621TIP3    H116869   0.324   3.217   3.844
 5621TIP3    H216870   0.319   3.351   3.773
 5622TIP3   OH216871   2.786   2.352   1.072
 5622TIP3    H116872   2.859   2.413   1.081
 5622TIP3    H216873   2.809   2.279   1.129
 5623TIP3   OH216874   3.326   2.001   3.433
 5623TIP3    H116875   3.305   2.077   3.379
 5623TIP3    H216876   3.344   1.931   3.370
 5624TIP3   OH216877   3.023   4.609   4.624
 5624TIP3    H116878   3.021   4.671   4.551
 5624TIP3    H216879   3.106   4.627   4.668
 5625TIP3   OH216880   3.057   0.536   1.122
 5625TIP3    H116881   3.050   0.556   1.215
 5625TIP3    H216882   3.139   0.578   1.095
 5626TIP3   OH216883   4.766   4.524   3.241
 5626TIP3    H116884   4.688   4.488   3.199
 5626TIP3    H216885   4.732   4.567   3.320
 5627TIP3   OH216886   2.071   1.081   3.293
 5627TIP3    H116887   2.035   0.993   3.302
 5627TIP3    H216888   2.123   1.094   3.372
 5628TIP3   OH216889   2.994   3.195   1.902
 5628TIP3    H116890   3.065   3.147   1.944
 5628TIP3    H216891   2.917   3.176   1.956
 5629TIP3   OH216892   4.915   4.720   3.573
 5629TIP3    H116893   4.873   4.804   3.589
 5629TIP3    H216894   4.943   4.690   3.659
 5630TIP3   OH216895   2.331   2.055   1.121
 5630TIP3    H116896   2.384   2.103   1.058
 5630TIP3    H216897   2.310   1.973   1.077
 5631TIP3   OH216898   3.196   1.233   1.069
 5631TIP3    H116899   3.160   1.160   1.018
 5631TIP3    H216900   3.140   1.237   1.146
 5632TIP3   OH216901   0.004   0.913   0.548
 5632TIP3    H116902  -0.042   0.972   0.608
 5632TIP3    H216903   0.095   0.943   0.550
 5633TIP3   OH216904   3.896   2.944   0.400
 5633TIP3    H116905   3.865   3.000   0.471
 5633TIP3    H216906   3.818   2.899   0.369
 5634TIP3   OH216907   1.945   4.928   2.199
 5634TIP3    H116908   1.998   4.874   2.140
 5634TIP3    H216909   1.857   4.926   2.160
 5635TIP3   OH216910   3.550   1.612   2.842
 5635TIP3    H116911   3.473   1.637   2.791
 5635TIP3    H216912   3.544   1.516   2.848
 5636TIP3   OH216913   5.557   3.430   3.179
 5636TIP3    H116914   5.510   3.357   3.218
 5636TIP3    H216915   5.514   3.508   3.214
 5637TIP3   OH216916   5.713   2.620   2.206
 5637TIP3    H116917   5.780   2.609   2.138
 5637TIP3    H216918   5.645   2.673   2.165
 5638TIP3   OH216919   3.754   2.508   5.144
 5638TIP3    H116920   3.757   2.466   5.058
 5638TIP3    H216921   3.769   2.436   5.206
 5639TIP3   OH216922   1.128   3.755   1.720
 5639TIP3    H116923   1.042   3.720   1.743
 5639TIP3    H216924   1.110   3.832   1.667
 5640TIP3   OH216925   0.099   0.909   3.337
 5640TIP3    H116926   0.082   0.830   3.286
 5640TIP3    H216927   0.192   0.927   3.324
 5641TIP3   OH216928   2.934   3.216   4.067
 5641TIP3    H116929   2.981   3.276   4.009
 5641TIP3    H216930   2.992   3.206   4.143
 5642TIP3   OH216931   5.286   0.219   2.942
 5642TIP3    H116932   5.296   0.176   3.027
 5642TIP3    H216933   5.259   0.308   2.963
 5643TIP3   OH216934   0.653   3.055   3.614
 5643TIP3    H116935   0.695   3.140   3.620
 5643TIP3    H216936   0.701   3.000   3.677
 5644TIP3   OH216937   6.004   2.516   1.677
 5644TIP3    H116938   6.002   2.421   1.679
 5644TIP3    H216939   6.087   2.538   1.633
 5645TIP3   OH216940   1.567   0.311   3.676
 5645TIP3    H116941   1.558   0.286   3.768
 5645TIP3    H216942   1.621   0.241   3.638
 5646TIP3   OH216943   4.800   0.898  -0.020
 5646TIP3    H116944   4.856   0.828  -0.053
 5646TIP3    H216945   4.781   0.874   0.070
 5647TIP3   OH216946   2.974   1.414   1.987
 5647TIP3    H116947   2.903   1.355   2.012
 5647TIP3    H216948   3.038   1.357   1.944
 5648TIP3   OH216949   6.326   3.826   0.545
 5648TIP3    H116950   6.320   3.761   0.616
 5648TIP3    H216951   6.241   3.820   0.501
 5649TIP3   OH216952   4.711   5.446   0.630
 5649TIP3    H116953   4.781   5.453   0.565
 5649TIP3    H216954   4.658   5.371   0.600
 5650TIP3   OH216955   0.869   1.504   0.216
 5650TIP3    H116956   0.814   1.463   0.283
 5650TIP3    H216957   0.808   1.557   0.165
 5651TIP3   OH216958   0.288   4.802   3.430
 5651TIP3    H116959   0.319   4.878   3.381
 5651TIP3    H216960   0.314   4.819   3.521
 5652TIP3   OH216961   2.800   1.943   2.061
 5652TIP3    H116962   2.760   1.891   2.130
 5652TIP3    H216963   2.797   2.033   2.093
 5653TIP3   OH216964   1.568   2.146   2.082
 5653TIP3    H116965   1.631   2.130   2.153
 5653TIP3    H216966   1.497   2.195   2.124
 5654TIP3   OH216967   1.248   0.268   3.084
 5654TIP3    H116968   1.341   0.286   3.069
 5654TIP3    H216969   1.202   0.335   3.034
 5655TIP3   OH216970   6.307   5.103   3.389
 5655TIP3    H116971   6.216   5.128   3.408
 5655TIP3    H216972   6.332   5.159   3.315
 5656TIP3   OH216973   5.256   2.104   4.801
 5656TIP3    H116974   5.212   2.189   4.799
 5656TIP3    H216975   5.245   2.070   4.713
 5657TIP3   OH216976   1.371   4.133   0.771
 5657TIP3    H116977   1.396   4.082   0.694
 5657TIP3    H216978   1.406   4.083   0.845
 5658TIP3   OH216979   2.746   3.321   4.759
 5658TIP3    H116980   2.777   3.312   4.849
 5658TIP3    H216981   2.722   3.413   4.751
 5659TIP3   OH216982   0.747   4.274   0.559
 5659TIP3    H116983   0.691   4.197   0.550
 5659TIP3    H216984   0.836   4.242   0.542
 5660TIP3   OH216985   1.285   5.632   3.034
 5660TIP3    H116986   1.197   5.639   3.069
 5660TIP3    H216987   1.313   5.722   3.018
 5661TIP3   OH216988   1.044   0.896   1.365
 5661TIP3    H116989   1.020   0.858   1.449
 5661TIP3    H216990   1.132   0.863   1.348
 5662TIP3   OH216991   3.986   4.772   0.982
 5662TIP3    H116992   3.940   4.715   0.921
 5662TIP3    H216993   3.918   4.802   1.042
 5663TIP3   OH216994   6.213   4.602   2.049
 5663TIP3    H116995   6.204   4.648   2.132
 5663TIP3    H216996   6.131   4.620   2.003
 5664TIP3   OH216997   5.457   4.626   2.640
 5664TIP3    H116998   5.457   4.670   2.555
 5664TIP3    H216999   5.391   4.558   2.633
 5665TIP3   OH217000   3.880   5.670   3.555
 5665TIP3    H117001   3.835   5.734   3.499
 5665TIP3    H217002   3.879   5.589   3.504
 5666TIP3   OH217003   2.242   4.788   2.480
 5666TIP3    H117004   2.304   4.718   2.457
 5666TIP3    H217005   2.164   4.741   2.509
 5667TIP3   OH217006   2.724   1.084   1.816
 5667TIP3    H117007   2.658   1.121   1.874
 5667TIP3    H217008   2.735   0.994   1.847
 5668TIP3   OH217009   6.325   2.023   5.049
 5668TIP3    H117010   6.328   2.068   4.965
 5668TIP3    H217011   6.397   1.960   5.046
 5669TIP3   OH217012   2.763   1.153   2.698
 5669TIP3    H117013   2.844   1.106   2.719
 5669TIP3    H217014   2.785   1.204   2.620
 5670TIP3   OH217015   3.591   4.710   5.053
 5670TIP3    H117016   3.661   4.707   5.119
 5670TIP3    H217017   3.614   4.784   4.997
 5671TIP3   OH217018   4.313   5.462   4.713
 5671TIP3    H117019   4.332   5.397   4.645
 5671TIP3    H217020   4.361   5.431   4.790
 5672TIP3   OH217021   4.020   3.476   0.093
 5672TIP3    H117022   4.026   3.549   0.032
 5672TIP3    H217023   3.981   3.513   0.172
 5673TIP3   OH217024   0.571   2.711   0.726
 5673TIP3    H117025   0.610   2.643   0.670
 5673TIP3    H217026   0.641   2.733   0.788
 5674TIP3   OH217027   6.333   2.399   3.129
 5674TIP3    H117028   6.251   2.442   3.106
 5674TIP3    H217029   6.307   2.327   3.185
 5675TIP3   OH217030   0.773   3.923   3.535
 5675TIP3    H117031   0.836   3.904   3.605
 5675TIP3    H217032   0.707   3.854   3.543
 5676TIP3   OH217033   1.797   4.140   2.953
 5676TIP3    H117034   1.882   4.097   2.947
 5676TIP3    H217035   1.816   4.233   2.957
 5677TIP3   OH217036   1.381   1.006   3.906
 5677TIP3    H117037   1.395   1.047   3.992
 5677TIP3    H217038   1.392   0.912   3.921
 5678TIP3   OH217039   6.029   0.778   3.327
 5678TIP3    H117040   5.942   0.817   3.314
 5678TIP3    H217041   6.036   0.767   3.422
 5679TIP3   OH217042   1.488   0.785   1.571
 5679TIP3    H117043   1.549   0.843   1.617
 5679TIP3    H217044   1.509   0.698   1.604
 5680TIP3   OH217045   6.255   1.350   1.519
 5680TIP3    H117046   6.271   1.358   1.425
 5680TIP3    H217047   6.276   1.260   1.541
 5681TIP3   OH217048   3.659   2.549   0.774
 5681TIP3    H117049   3.564   2.561   0.764
 5681TIP3    H217050   3.673   2.544   0.869
 5682TIP3   OH217051   2.109   0.075   2.897
 5682TIP3    H117052   2.117   0.168   2.878
 5682TIP3    H217053   2.018   0.054   2.875
 5683TIP3   OH217054   0.678   3.619   3.067
 5683TIP3    H117055   0.667   3.621   2.972
 5683TIP3    H217056   0.637   3.701   3.098
 5684TIP3   OH217057   4.797   0.568   0.121
 5684TIP3    H117058   4.711   0.603   0.143
 5684TIP3    H217059   4.779   0.484   0.080
 5685TIP3   OH217060   1.944   1.896   1.113
 5685TIP3    H117061   1.852   1.873   1.105
 5685TIP3    H217062   1.951   1.941   1.197
 5686TIP3   OH217063   2.558   4.731   1.300
 5686TIP3    H117064   2.647   4.752   1.273
 5686TIP3    H217065   2.513   4.706   1.220
 5687TIP3   OH217066   1.795   0.364   3.462
 5687TIP3    H117067   1.811   0.391   3.552
 5687TIP3    H217068   1.769   0.272   3.469
 5688TIP3   OH217069   6.062   5.798   0.766
 5688TIP3    H117070   6.123   5.866   0.797
 5688TIP3    H217071   6.029   5.757   0.846
 5689TIP3   OH217072   1.738   0.903   0.651
 5689TIP3    H117073   1.808   0.851   0.610
 5689TIP3    H217074   1.725   0.976   0.591
 5690TIP3   OH217075   1.227   0.395   0.609
 5690TIP3    H117076   1.272   0.374   0.527
 5690TIP3    H217077   1.155   0.453   0.582
 5691TIP3   OH217078   3.943   1.776   4.995
 5691TIP3    H117079   3.990   1.826   5.061
 5691TIP3    H217080   3.950   1.828   4.915
 5692TIP3   OH217081   5.756   2.826   0.712
 5692TIP3    H117082   5.785   2.787   0.794
 5692TIP3    H217083   5.672   2.868   0.733
 5693TIP3   OH217084   1.763   4.349   3.403
 5693TIP3    H117085   1.776   4.256   3.423
 5693TIP3    H217086   1.701   4.349   3.330
 5694TIP3   OH217087   0.765   1.540   1.018
 5694TIP3    H117088   0.843   1.486   1.000
 5694TIP3    H217089   0.693   1.493   0.976
 5695TIP3   OH217090   6.053   1.268   4.430
 5695TIP3    H117091   6.044   1.289   4.523
 5695TIP3    H217092   6.138   1.305   4.405
 5696TIP3   OH217093   3.259   1.207   2.200
 5696TIP3    H117094   3.286   1.119   2.224
 5696TIP3    H217095   3.340   1.253   2.181
 5697TIP3   OH217096   5.575   1.223   2.341
 5697TIP3    H117097   5.567   1.198   2.433
 5697TIP3    H217098   5.558   1.317   2.339
 5698TIP3   OH217099   1.182   1.264   5.092
 5698TIP3    H117100   1.168   1.260   4.997
 5698TIP3    H217101   1.206   1.356   5.108
 5699TIP3   OH217102   3.444   3.485   2.878
 5699TIP3    H117103   3.472   3.413   2.822
 5699TIP3    H217104   3.467   3.457   2.967
 5700TIP3   OH217105   3.085   4.452   2.858
 5700TIP3    H117106   3.004   4.469   2.906
 5700TIP3    H217107   3.067   4.371   2.810
 5701TIP3   OH217108   5.475   5.511   0.270
 5701TIP3    H117109   5.481   5.605   0.282
 5701TIP3    H217110   5.559   5.485   0.233
 5702TIP3   OH217111   1.686   5.062   2.123
 5702TIP3    H117112   1.672   5.023   2.036
 5702TIP3    H217113   1.682   5.156   2.107
 5703TIP3   OH217114   0.958   0.185   0.288
 5703TIP3    H117115   1.014   0.263   0.284
 5703TIP3    H217116   0.888   0.202   0.225
 5704TIP3   OH217117   1.373   5.528   5.117
 5704TIP3    H117118   1.366   5.522   5.021
 5704TIP3    H217119   1.282   5.522   5.147
 5705TIP3   OH217120   2.182   1.807   4.717
 5705TIP3    H117121   2.252   1.765   4.668
 5705TIP3    H217122   2.216   1.816   4.806
 5706TIP3   OH217123   2.380   0.981   5.109
 5706TIP3    H117124   2.465   0.960   5.148
 5706TIP3    H217125   2.396   1.058   5.055
 5707TIP3   OH217126   5.013   5.126   2.565
 5707TIP3    H117127   4.990   5.219   2.563
 5707TIP3    H217128   4.979   5.096   2.650
 5708TIP3   OH217129   2.568   0.759   3.152
 5708TIP3    H117130   2.568   0.822   3.079
 5708TIP3    H217131   2.503   0.694   3.127
 5709TIP3   OH217132   0.275   0.902   2.851
 5709TIP3    H117133   0.293   0.956   2.928
 5709TIP3    H217134   0.212   0.952   2.799
 5710TIP3   OH217135   5.940   5.321   2.754
 5710TIP3    H117136   5.978   5.257   2.814
 5710TIP3    H217137   5.856   5.345   2.794
 5711TIP3   OH217138   2.252   1.240   4.644
 5711TIP3    H117139   2.210   1.163   4.684
 5711TIP3    H217140   2.339   1.243   4.684
 5712TIP3   OH217141   2.145   2.988   0.068
 5712TIP3    H117142   2.121   2.952  -0.017
 5712TIP3    H217143   2.071   2.966   0.125
 5713TIP3   OH217144   5.890   0.598   2.577
 5713TIP3    H117145   5.983   0.602   2.598
 5713TIP3    H217146   5.850   0.667   2.629
 5714TIP3   OH217147   0.191   1.845   2.914
 5714TIP3    H117148   0.202   1.897   2.835
 5714TIP3    H217149   0.107   1.800   2.902
 5715TIP3   OH217150   2.349   3.991   2.894
 5715TIP3    H117151   2.298   3.958   2.968
 5715TIP3    H217152   2.285   4.009   2.826
 5716TIP3   OH217153   6.139   0.164   0.569
 5716TIP3    H117154   6.213   0.151   0.509
 5716TIP3    H217155   6.066   0.118   0.527
 5717TIP3   OH217156   4.686   0.955   2.662
 5717TIP3    H117157   4.653   1.034   2.618
 5717TIP3    H217158   4.772   0.981   2.697
 5718TIP3   OH217159   6.190   3.785   4.247
 5718TIP3    H117160   6.098   3.763   4.263
 5718TIP3    H217161   6.207   3.753   4.158
 5719TIP3   OH217162   4.072   3.585   1.040
 5719TIP3    H117163   4.096   3.676   1.019
 5719TIP3    H217164   3.987   3.593   1.083
 5720TIP3   OH217165   0.708   5.739   0.829
 5720TIP3    H117166   0.623   5.763   0.865
 5720TIP3    H217167   0.696   5.651   0.794
 5721TIP3   OH217168   1.134   0.507   0.901
 5721TIP3    H117169   1.191   0.551   0.964
 5721TIP3    H217170   1.048   0.505   0.944
 5722TIP3   OH217171   3.803   1.496   3.093
 5722TIP3    H117172   3.872   1.485   3.159
 5722TIP3    H217173   3.851   1.503   3.010
 5723TIP3   OH217174   0.986   1.957   4.004
 5723TIP3    H117175   0.929   1.959   3.927
 5723TIP3    H217176   1.001   1.864   4.022
 5724TIP3   OH217177   3.979   3.786   1.817
 5724TIP3    H117178   3.961   3.797   1.724
 5724TIP3    H217179   4.058   3.838   1.833
 5725TIP3   OH217180   1.130   4.769   2.843
 5725TIP3    H117181   1.097   4.734   2.761
 5725TIP3    H217182   1.085   4.718   2.911
 5726TIP3   OH217183   2.202   2.984   0.439
 5726TIP3    H117184   2.218   3.006   0.347
 5726TIP3    H217185   2.209   3.068   0.485
 5727TIP3   OH217186   3.875   1.671   2.372
 5727TIP3    H117187   3.934   1.744   2.391
 5727TIP3    H217188   3.850   1.637   2.458
 5728TIP3   OH217189   0.246   5.581   4.219
 5728TIP3    H117190   0.177   5.523   4.187
 5728TIP3    H217191   0.283   5.534   4.294
 5729TIP3   OH217192   2.236   0.699   1.224
 5729TIP3    H117193   2.220   0.625   1.283
 5729TIP3    H217194   2.321   0.679   1.185
 5730TIP3   OH217195   5.095   3.022   1.837
 5730TIP3    H117196   5.033   3.005   1.909
 5730TIP3    H217197   5.138   3.104   1.861
 5731TIP3   OH217198   3.583   3.344   5.124
 5731TIP3    H117199   3.488   3.333   5.138
 5731TIP3    H217200   3.608   3.412   5.186
 5732TIP3   OH217201   2.588   3.204   3.148
 5732TIP3    H117202   2.551   3.291   3.137
 5732TIP3    H217203   2.541   3.166   3.222
 5733TIP3   OH217204   0.673   2.780   2.855
 5733TIP3    H117205   0.665   2.858   2.909
 5733TIP3    H217206   0.738   2.802   2.788
 5734TIP3   OH217207   3.073   1.617   4.460
 5734TIP3    H117208   3.018   1.678   4.411
 5734TIP3    H217209   3.107   1.669   4.532
 5735TIP3   OH217210   2.306   4.054   0.171
 5735TIP3    H117211   2.226   4.061   0.223
 5735TIP3    H217212   2.335   3.963   0.184
 5736TIP3   OH217213   2.654   3.321   5.204
 5736TIP3    H117214   2.644   3.416   5.211
 5736TIP3    H217215   2.566   3.289   5.185
 5737TIP3   OH217216   3.618   4.177   4.891
 5737TIP3    H117217   3.555   4.184   4.963
 5737TIP3    H217218   3.696   4.137   4.931
 5738TIP3   OH217219   0.420   3.548   1.934
 5738TIP3    H117220   0.365   3.594   1.871
 5738TIP3    H217221   0.438   3.463   1.892
 5739TIP3   OH217222   5.733   4.299   3.874
 5739TIP3    H117223   5.668   4.258   3.931
 5739TIP3    H217224   5.806   4.238   3.873
 5740TIP3   OH217225   0.112   5.131   4.589
 5740TIP3    H117226   0.205   5.132   4.614
 5740TIP3    H217227   0.081   5.219   4.608
 5741TIP3   OH217228   2.863   4.353   3.110
 5741TIP3    H117229   2.809   4.416   3.062
 5741TIP3    H217230   2.920   4.408   3.164
 5742TIP3   OH217231   5.137   0.107   0.428
 5742TIP3    H117232   5.226   0.112   0.393
 5742TIP3    H217233   5.122   0.013   0.442
 5743TIP3   OH217234   0.968   4.487   0.302
 5743TIP3    H117235   1.015   4.462   0.222
 5743TIP3    H217236   1.030   4.468   0.372
 5744TIP3   OH217237   3.709   2.106   5.130
 5744TIP3    H117238   3.748   2.167   5.067
 5744TIP3    H217239   3.741   2.136   5.215
 5745TIP3   OH217240   2.824   2.565   0.772
 5745TIP3    H117241   2.884   2.613   0.715
 5745TIP3    H217242   2.809   2.624   0.846
 5746TIP3   OH217243   1.537   2.175   0.692
 5746TIP3    H117244   1.588   2.098   0.718
 5746TIP3    H217245   1.532   2.229   0.770
 5747TIP3   OH217246   5.155   0.650   3.358
 5747TIP3    H117247   5.060   0.657   3.370
 5747TIP3    H217248   5.182   0.579   3.415
 5748TIP3   OH217249   2.461   0.101   2.726
 5748TIP3    H117250   2.479   0.033   2.791
 5748TIP3    H217251   2.392   0.065   2.671
 5749TIP3   OH217252   0.911   4.248   1.391
 5749TIP3    H117253   0.859   4.169   1.408
 5749TIP3    H217254   0.917   4.252   1.296
 5750TIP3   OH217255   1.735   3.685  -0.017
 5750TIP3    H117256   1.828   3.696  -0.037
 5750TIP3    H217257   1.716   3.752   0.049
 5751TIP3   OH217258   4.148   0.563   1.393
 5751TIP3    H117259   4.200   0.486   1.371
 5751TIP3    H217260   4.057   0.534   1.384
 5752TIP3   OH217261   4.293   3.857   0.242
 5752TIP3    H117262   4.375   3.889   0.280
 5752TIP3    H217263   4.240   3.831   0.316
 5753TIP3   OH217264   1.382   5.320   3.505
 5753TIP3    H117265   1.366   5.404   3.549
 5753TIP3    H217266   1.476   5.317   3.492
 5754TIP3   OH217267   1.093   4.173   5.009
 5754TIP3    H117268   1.007   4.167   5.051
 5754TIP3    H217269   1.083   4.125   4.927
 5755TIP3   OH217270   1.049   1.376   3.598
 5755TIP3    H117271   0.970   1.430   3.596
 5755TIP3    H217272   1.029   1.301   3.542
 5756TIP3   OH217273   5.369   3.337   2.665
 5756TIP3    H117274   5.300   3.397   2.693
 5756TIP3    H217275   5.350   3.321   2.572
 5757TIP3   OH217276   1.347   3.495   1.603
 5757TIP3    H117277   1.376   3.410   1.570
 5757TIP3    H217278   1.258   3.504   1.569
 5758TIP3   OH217279   4.960   1.892   2.024
 5758TIP3    H117280   4.886   1.895   2.084
 5758TIP3    H217281   4.937   1.954   1.955
 5759TIP3   OH217282   1.662   4.635   3.140
 5759TIP3    H117283   1.681   4.640   3.047
 5759TIP3    H217284   1.574   4.672   3.148
 5760TIP3   OH217285   0.476   3.755   1.566
 5760TIP3    H117286   0.412   3.705   1.616
 5760TIP3    H217287   0.456   3.735   1.474
 5761TIP3   OH217288   5.578   0.470   2.971
 5761TIP3    H117289   5.522   0.540   2.938
 5761TIP3    H217290   5.628   0.510   3.043
 5762TIP3   OH217291   5.931   2.678   0.351
 5762TIP3    H117292   5.915   2.639   0.437
 5762TIP3    H217293   6.013   2.726   0.362
 5763TIP3   OH217294   3.796   2.906   5.053
 5763TIP3    H117295   3.747   2.843   5.104
 5763TIP3    H217296   3.754   2.990   5.071
 5764TIP3   OH217297   5.037   3.783   0.519
 5764TIP3    H117298   5.020   3.700   0.564
 5764TIP3    H217299   5.070   3.840   0.588
 5765TIP3   OH217300   1.391   2.463   1.321
 5765TIP3    H117301   1.472   2.472   1.271
 5765TIP3    H217302   1.345   2.546   1.307
 5766TIP3   OH217303   1.314   5.791   0.850
 5766TIP3    H117304   1.331   5.868   0.797
 5766TIP3    H217305   1.225   5.803   0.884
 5767TIP3   OH217306   4.961   1.606   2.004
 5767TIP3    H117307   4.953   1.700   2.016
 5767TIP3    H217308   4.978   1.595   1.910
 5768TIP3   OH217309   2.751   5.721   4.280
 5768TIP3    H117310   2.837   5.686   4.303
 5768TIP3    H217311   2.744   5.705   4.186
 5769TIP3   OH217312   3.997   0.627   0.863
 5769TIP3    H117313   3.941   0.701   0.842
 5769TIP3    H217314   4.050   0.658   0.937
 5770TIP3   OH217315   1.779   5.955   0.492
 5770TIP3    H117316   1.827   5.877   0.462
 5770TIP3    H217317   1.736   5.989   0.414
 5771TIP3   OH217318   4.011   1.891   2.030
 5771TIP3    H117319   3.955   1.940   2.089
 5771TIP3    H217320   4.031   1.810   2.078
 5772TIP3   OH217321   0.118   1.931  -0.009
 5772TIP3    H117322   0.141   1.896   0.077
 5772TIP3    H217323   0.047   1.993   0.009
 5773TIP3   OH217324   5.374   0.696   2.927
 5773TIP3    H117325   5.326   0.615   2.945
 5773TIP3    H217326   5.405   0.726   3.012
 5774TIP3   OH217327   0.667   3.269   2.614
 5774TIP3    H117328   0.627   3.356   2.615
 5774TIP3    H217329   0.593   3.209   2.618
 5775TIP3   OH217330   4.485   3.574   2.606
 5775TIP3    H117331   4.392   3.581   2.627
 5775TIP3    H217332   4.491   3.598   2.514
 5776TIP3   OH217333   2.185   5.646   3.758
 5776TIP3    H117334   2.176   5.728   3.806
 5776TIP3    H217335   2.268   5.655   3.710
 5777TIP3   OH217336   4.659   3.750   2.336
 5777TIP3    H117337   4.641   3.841   2.313
 5777TIP3    H217338   4.739   3.754   2.388
 5778TIP3   OH217339   5.491   1.389   4.970
 5778TIP3    H117340   5.406   1.418   5.001
 5778TIP3    H217341   5.509   1.309   5.018
 5779TIP3   OH217342   2.202   1.333   2.049
 5779TIP3    H117343   2.120   1.371   2.081
 5779TIP3    H217344   2.181   1.241   2.033
 5780TIP3   OH217345   5.923   1.214   2.893
 5780TIP3    H117346   5.973   1.296   2.884
 5780TIP3    H217347   5.832   1.240   2.884
 5781TIP3   OH217348   5.989   1.041   3.782
 5781TIP3    H117349   5.964   1.132   3.794
 5781TIP3    H217350   5.969   0.999   3.865
 5782TIP3   OH217351   2.805   4.907   2.207
 5782TIP3    H117352   2.892   4.873   2.189
 5782TIP3    H217353   2.746   4.848   2.159
 5783TIP3   OH217354   2.135   3.879   3.641
 5783TIP3    H117355   2.132   3.792   3.603
 5783TIP3    H217356   2.056   3.885   3.695
 5784TIP3   OH217357   1.027   4.095   0.059
 5784TIP3    H117358   1.000   4.010   0.023
 5784TIP3    H217359   1.075   4.074   0.139
 5785TIP3   OH217360   4.992   2.263   1.104
 5785TIP3    H117361   5.021   2.213   1.028
 5785TIP3    H217362   4.897   2.269   1.094
 5786TIP3   OH217363   5.044   5.972   1.020
 5786TIP3    H117364   5.111   5.905   1.008
 5786TIP3    H217365   5.000   5.977   0.935
 5787TIP3   OH217366   3.554   2.776   2.722
 5787TIP3    H117367   3.647   2.767   2.700
 5787TIP3    H217368   3.529   2.862   2.686
 5788TIP3   OH217369   5.444   0.312   4.658
 5788TIP3    H117370   5.372   0.370   4.685
 5788TIP3    H217371   5.448   0.322   4.563
 5789TIP3   OH217372   5.372   3.958   0.298
 5789TIP3    H117373   5.296   3.984   0.246
 5789TIP3    H217374   5.386   3.866   0.276
 5790TIP3   OH217375   4.915   2.581   2.364
 5790TIP3    H117376   4.964   2.505   2.396
 5790TIP3    H217377   4.980   2.650   2.358
 5791TIP3   OH217378   2.846   5.363   2.416
 5791TIP3    H117379   2.894   5.371   2.334
 5791TIP3    H217380   2.769   5.311   2.393
 5792TIP3   OH217381   2.923   0.419   1.933
 5792TIP3    H117382   2.940   0.434   1.840
 5792TIP3    H217383   3.002   0.450   1.978
 5793TIP3   OH217384   4.160   1.370   2.209
 5793TIP3    H117385   4.077   1.337   2.243
 5793TIP3    H217386   4.221   1.297   2.219
 5794TIP3   OH217387   5.203   1.729   3.159
 5794TIP3    H117388   5.167   1.675   3.088
 5794TIP3    H217389   5.275   1.777   3.119
 5795TIP3   OH217390   0.062   4.815   0.789
 5795TIP3    H117391  -0.013   4.874   0.798
 5795TIP3    H217392   0.066   4.768   0.872
 5796TIP3   OH217393   5.279   3.535   4.075
 5796TIP3    H117394   5.340   3.493   4.015
 5796TIP3    H217395   5.278   3.478   4.152
 5797TIP3   OH217396   2.523   5.322   1.667
 5797TIP3    H117397   2.441   5.366   1.689
 5797TIP3    H217398   2.570   5.385   1.613
 5798TIP3   OH217399   2.514   0.197   1.990
 5798TIP3    H117400   2.428   0.164   2.015
 5798TIP3    H217401   2.500   0.235   1.903
 5799TIP3   OH217402   3.054   0.938   1.188
 5799TIP3    H117403   3.042   1.023   1.230
 5799TIP3    H217404   3.068   0.877   1.260
 5800TIP3   OH217405   1.634   5.376   3.654
 5800TIP3    H117406   1.709   5.338   3.699
 5800TIP3    H217407   1.671   5.418   3.576
 5801TIP3   OH217408   2.248   6.006   4.278
 5801TIP3    H117409   2.179   6.070   4.295
 5801TIP3    H217410   2.211   5.949   4.210
 5802TIP3   OH217411   3.628   1.389   4.248
 5802TIP3    H117412   3.625   1.296   4.225
 5802TIP3    H217413   3.555   1.427   4.199
 5803TIP3   OH217414   2.235   5.944   3.854
 5803TIP3    H117415   2.227   5.893   3.935
 5803TIP3    H217416   2.177   6.019   3.867
 5804TIP3   OH217417   5.960   3.321   0.656
 5804TIP3    H117418   5.941   3.377   0.731
 5804TIP3    H217419   5.876   3.282   0.634
 5805TIP3   OH217420   1.907   5.103   0.588
 5805TIP3    H117421   1.831   5.148   0.625
 5805TIP3    H217422   1.871   5.051   0.516
 5806TIP3   OH217423   0.051   2.010   3.620
 5806TIP3    H117424   0.114   2.043   3.556
 5806TIP3    H217425   0.103   1.956   3.680
 5807TIP3   OH217426   4.557   1.229   3.286
 5807TIP3    H117427   4.509   1.274   3.355
 5807TIP3    H217428   4.619   1.172   3.333
 5808TIP3   OH217429   2.026   4.836   0.614
 5808TIP3    H117430   1.987   4.856   0.699
 5808TIP3    H217431   2.011   4.742   0.602
 5809TIP3   OH217432   2.213   0.846   4.646
 5809TIP3    H117433   2.219   0.872   4.738
 5809TIP3    H217434   2.160   0.766   4.648
 5810TIP3   OH217435   0.438   5.769   1.138
 5810TIP3    H117436   0.529   5.768   1.167
 5810TIP3    H217437   0.442   5.796   1.046
 5811TIP3   OH217438   3.280   0.676   0.556
 5811TIP3    H117439   3.197   0.646   0.519
 5811TIP3    H217440   3.304   0.751   0.502
 5812TIP3   OH217441   1.383   5.851   2.679
 5812TIP3    H117442   1.304   5.865   2.732
 5812TIP3    H217443   1.456   5.868   2.739
 5813TIP3   OH217444   0.353   1.493   4.908
 5813TIP3    H117445   0.390   1.469   4.993
 5813TIP3    H217446   0.262   1.464   4.914
 5814TIP3   OH217447   5.812   1.497   0.314
 5814TIP3    H117448   5.803   1.516   0.407
 5814TIP3    H217449   5.906   1.510   0.296
 5815TIP3   OH217450   6.286   4.194   5.117
 5815TIP3    H117451   6.213   4.142   5.149
 5815TIP3    H217452   6.250   4.246   5.045
 5816TIP3   OH217453   6.047   3.202   0.983
 5816TIP3    H117454   6.140   3.184   0.971
 5816TIP3    H217455   6.035   3.288   0.944
 5817TIP3   OH217456   5.889   5.119   3.700
 5817TIP3    H117457   5.858   5.195   3.749
 5817TIP3    H217458   5.880   5.046   3.762
 5818TIP3   OH217459   5.899   5.122   4.558
 5818TIP3    H117460   5.855   5.190   4.507
 5818TIP3    H217461   5.967   5.169   4.607
 5819TIP3   OH217462   3.410   4.251   3.061
 5819TIP3    H117463   3.360   4.330   3.082
 5819TIP3    H217464   3.420   4.206   3.145
 5820TIP3   OH217465   5.633   3.310   2.926
 5820TIP3    H117466   5.589   3.348   2.850
 5820TIP3    H217467   5.599   3.359   3.001
 5821TIP3   OH217468   3.826   5.297   2.755
 5821TIP3    H117469   3.910   5.274   2.716
 5821TIP3    H217470   3.828   5.256   2.842
 5822TIP3   OH217471   0.795   0.237   5.039
 5822TIP3    H117472   0.807   0.146   5.065
 5822TIP3    H217473   0.866   0.254   4.978
 5823TIP3   OH217474   6.311   1.440   2.272
 5823TIP3    H117475   6.253   1.516   2.282
 5823TIP3    H217476   6.395   1.469   2.306
 5824TIP3   OH217477   3.115   1.625   2.521
 5824TIP3    H117478   3.082   1.687   2.456
 5824TIP3    H217479   3.116   1.541   2.475
 5825TIP3   OH217480   4.293   0.345   1.384
 5825TIP3    H117481   4.246   0.278   1.434
 5825TIP3    H217482   4.369   0.299   1.349
 5826TIP3   OH217483   2.531   5.118   1.463
 5826TIP3    H117484   2.623   5.107   1.441
 5826TIP3    H217485   2.531   5.177   1.538
 5827TIP3   OH217486   6.280   0.726   2.434
 5827TIP3    H117487   6.214   0.715   2.365
 5827TIP3    H217488   6.302   0.819   2.432
 5828TIP3   OH217489   0.592   5.393   3.131
 5828TIP3    H117490   0.515   5.450   3.139
 5828TIP3    H217491   0.555   5.306   3.114
 5829TIP3   OH217492   2.135   2.835   1.250
 5829TIP3    H117493   2.110   2.765   1.310
 5829TIP3    H217494   2.060   2.894   1.249
 5830TIP3   OH217495   3.501   2.447   3.698
 5830TIP3    H117496   3.512   2.542   3.705
 5830TIP3    H217497   3.427   2.436   3.638
 5831TIP3   OH217498   6.064   2.951   2.370
 5831TIP3    H117499   5.991   2.890   2.379
 5831TIP3    H217500   6.120   2.932   2.446
 5832TIP3   OH217501   3.225   5.134   0.471
 5832TIP3    H117502   3.292   5.202   0.469
 5832TIP3    H217503   3.253   5.071   0.404
 5833TIP3   OH217504   0.442   4.836   2.367
 5833TIP3    H117505   0.514   4.880   2.415
 5833TIP3    H217506   0.487   4.778   2.305
 5834TIP3   OH217507   1.509   0.085   0.181
 5834TIP3    H117508   1.508   0.000   0.137
 5834TIP3    H217509   1.581   0.133   0.140
 5835TIP3   OH217510   2.703   5.656   3.640
 5835TIP3    H117511   2.695   5.561   3.640
 5835TIP3    H217512   2.791   5.673   3.607
 5836TIP3   OH217513   4.635   5.396   3.426
 5836TIP3    H117514   4.607   5.484   3.404
 5836TIP3    H217515   4.654   5.354   3.342
 5837TIP3   OH217516   1.863   2.506   0.548
 5837TIP3    H117517   1.882   2.597   0.571
 5837TIP3    H217518   1.935   2.481   0.490
 5838TIP3   OH217519   1.784   1.010   4.066
 5838TIP3    H117520   1.731   1.088   4.051
 5838TIP3    H217521   1.851   1.013   3.997
 5839TIP3   OH217522   1.204   4.832   2.289
 5839TIP3    H117523   1.286   4.827   2.239
 5839TIP3    H217524   1.226   4.881   2.367
 5840TIP3   OH217525   1.744   4.540   4.532
 5840TIP3    H117526   1.677   4.608   4.530
 5840TIP3    H217527   1.722   4.487   4.609
 5841TIP3   OH217528   6.317   5.596   0.789
 5841TIP3    H117529   6.299   5.682   0.753
 5841TIP3    H217530   6.309   5.608   0.884
 5842TIP3   OH217531   1.339   1.155   3.510
 5842TIP3    H117532   1.364   1.067   3.538
 5842TIP3    H217533   1.249   1.144   3.477
 5843TIP3   OH217534   3.861   0.781   4.751
 5843TIP3    H117535   3.767   0.791   4.736
 5843TIP3    H217536   3.873   0.687   4.768
 5844TIP3   OH217537   5.645   0.991   3.916
 5844TIP3    H117538   5.733   0.957   3.904
 5844TIP3    H217539   5.606   0.936   3.984
 5845TIP3   OH217540   4.848   0.625   0.792
 5845TIP3    H117541   4.841   0.705   0.740
 5845TIP3    H217542   4.767   0.578   0.774
 5846TIP3   OH217543   1.740   2.507   0.297
 5846TIP3    H117544   1.766   2.555   0.375
 5846TIP3    H217545   1.718   2.575   0.233
 5847TIP3   OH217546   2.126   2.278   1.517
 5847TIP3    H117547   2.039   2.252   1.546
 5847TIP3    H217548   2.158   2.337   1.585
 5848TIP3   OH217549   1.053   0.955   3.673
 5848TIP3    H117550   1.024   0.952   3.582
 5848TIP3    H217551   0.997   0.891   3.717
 5849TIP3   OH217552   0.128   3.762   3.353
 5849TIP3    H117553   0.086   3.718   3.279
 5849TIP3    H217554   0.081   3.728   3.430
 5850TIP3   OH217555   6.159   4.841   1.713
 5850TIP3    H117556   6.214   4.909   1.751
 5850TIP3    H217557   6.080   4.840   1.767
 5851TIP3   OH217558   3.929   0.040   4.918
 5851TIP3    H117559   3.964  -0.045   4.945
 5851TIP3    H217560   3.902   0.026   4.827
 5852TIP3   OH217561   0.918   0.275   1.028
 5852TIP3    H117562   0.954   0.251   0.943
 5852TIP3    H217563   0.903   0.369   1.023
 5853TIP3   OH217564   1.690   5.111   2.430
 5853TIP3    H117565   1.713   5.105   2.337
 5853TIP3    H217566   1.600   5.077   2.433
 5854TIP3   OH217567   1.621   0.267   2.680
 5854TIP3    H117568   1.585   0.250   2.593
 5854TIP3    H217569   1.564   0.335   2.717
 5855TIP3   OH217570   3.457   4.431   2.849
 5855TIP3    H117571   3.463   4.384   2.766
 5855TIP3    H217572   3.442   4.363   2.914
 5856TIP3   OH217573   3.522   4.958   4.711
 5856TIP3    H117574   3.561   4.960   4.799
 5856TIP3    H217575   3.428   4.969   4.727
 5857TIP3   OH217576   4.750   1.948   3.126
 5857TIP3    H117577   4.769   1.857   3.149
 5857TIP3    H217578   4.791   1.959   3.040
 5858TIP3   OH217579   1.847   0.495   1.689
 5858TIP3    H117580   1.875   0.416   1.735
 5858TIP3    H217581   1.843   0.562   1.757
 5859TIP3   OH217582   2.033   1.677   0.714
 5859TIP3    H117583   2.078   1.749   0.670
 5859TIP3    H217584   2.087   1.657   0.790
 5860TIP3   OH217585   2.114   3.315   1.587
 5860TIP3    H117586   2.144   3.358   1.667
 5860TIP3    H217587   2.021   3.298   1.602
 5861TIP3   OH217588   3.130   5.681   1.956
 5861TIP3    H117589   3.169   5.600   1.923
 5861TIP3    H217590   3.036   5.669   1.944
 5862TIP3   OH217591   5.112   4.438   0.236
 5862TIP3    H117592   5.198   4.406   0.211
 5862TIP3    H217593   5.073   4.366   0.286
 5863TIP3   OH217594   2.075   5.847   2.554
 5863TIP3    H117595   2.154   5.794   2.541
 5863TIP3    H217596   2.094   5.901   2.631
 5864TIP3   OH217597   2.344   1.533   0.620
 5864TIP3    H117598   2.410   1.573   0.676
 5864TIP3    H217599   2.345   1.586   0.540
 5865TIP3   OH217600   3.174   0.616   4.042
 5865TIP3    H117601   3.172   0.711   4.028
 5865TIP3    H217602   3.265   0.596   4.065
 5866TIP3   OH217603   0.393   5.427   0.619
 5866TIP3    H117604   0.441   5.376   0.684
 5866TIP3    H217605   0.458   5.485   0.582
 5867TIP3   OH217606   2.744   3.617   2.177
 5867TIP3    H117607   2.680   3.649   2.240
 5867TIP3    H217608   2.719   3.527   2.161
 5868TIP3   OH217609   2.171   0.441   0.538
 5868TIP3    H117610   2.216   0.358   0.551
 5868TIP3    H217611   2.084   0.426   0.574
 5869TIP3   OH217612   0.366   1.086   2.098
 5869TIP3    H117613   0.453   1.124   2.099
 5869TIP3    H217614   0.311   1.152   2.057
 5870TIP3   OH217615   2.847   5.799   1.110
 5870TIP3    H117616   2.784   5.780   1.179
 5870TIP3    H217617   2.849   5.721   1.056
 5871TIP3   OH217618   6.188   0.560   2.650
 5871TIP3    H117619   6.169   0.504   2.575
 5871TIP3    H217620   6.240   0.632   2.613
 5872TIP3   OH217621   2.210   0.959   1.310
 5872TIP3    H117622   2.215   0.873   1.270
 5872TIP3    H217623   2.150   1.009   1.254
 5873TIP3   OH217624   4.249   1.051   0.268
 5873TIP3    H117625   4.158   1.045   0.294
 5873TIP3    H217626   4.249   1.031   0.174
 5874TIP3   OH217627   0.326   3.272   0.515
 5874TIP3    H117628   0.304   3.262   0.422
 5874TIP3    H217629   0.244   3.252   0.561
 5875TIP3   OH217630   2.467   1.955   3.590
 5875TIP3    H117631   2.386   1.996   3.621
 5875TIP3    H217632   2.492   2.007   3.514
 5876TIP3   OH217633   3.036   1.657   3.059
 5876TIP3    H117634   3.014   1.749   3.042
 5876TIP3    H217635   3.036   1.651   3.155
 5877TIP3   OH217636   0.810   5.490   4.152
 5877TIP3    H117637   0.839   5.411   4.108
 5877TIP3    H217638   0.860   5.493   4.233
 5878TIP3   OH217639   1.276   1.634   0.499
 5878TIP3    H117640   1.188   1.607   0.475
 5878TIP3    H217641   1.283   1.724   0.468
 5879TIP3   OH217642   2.197   4.853   3.983
 5879TIP3    H117643   2.172   4.942   3.959
 5879TIP3    H217644   2.290   4.848   3.964
 5880TIP3   OH217645   2.120   0.307   4.513
 5880TIP3    H117646   2.173   0.275   4.586
 5880TIP3    H217647   2.029   0.294   4.542
 5881TIP3   OH217648   3.788   4.806   3.538
 5881TIP3    H117649   3.803   4.711   3.546
 5881TIP3    H217650   3.695   4.814   3.520
 5882TIP3   OH217651   2.866   2.228   1.313
 5882TIP3    H117652   2.953   2.246   1.349
 5882TIP3    H217653   2.807   2.236   1.388
 5883TIP3   OH217654   0.746   4.999   2.369
 5883TIP3    H117655   0.743   4.930   2.436
 5883TIP3    H217656   0.779   5.076   2.415
 5884TIP3   OH217657   5.241   4.427   2.600
 5884TIP3    H117658   5.329   4.402   2.573
 5884TIP3    H217659   5.185   4.355   2.570
 5885TIP3   OH217660   2.969   2.967   2.358
 5885TIP3    H117661   2.901   2.917   2.312
 5885TIP3    H217662   2.948   3.058   2.339
 5886TIP3   OH217663   1.354   1.292   4.811
 5886TIP3    H117664   1.354   1.318   4.903
 5886TIP3    H217665   1.261   1.279   4.790
 5887TIP3   OH217666   3.915   3.961   0.635
 5887TIP3    H117667   3.966   4.017   0.693
 5887TIP3    H217668   3.864   3.905   0.695
 5888TIP3   OH217669   2.568   4.114   4.288
 5888TIP3    H117670   2.606   4.179   4.229
 5888TIP3    H217671   2.537   4.164   4.363
 5889TIP3   OH217672   2.459   3.803   4.216
 5889TIP3    H117673   2.393   3.768   4.156
 5889TIP3    H217674   2.443   3.759   4.299
 5890TIP3   OH217675   3.503   1.737   2.476
 5890TIP3    H117676   3.546   1.815   2.442
 5890TIP3    H217677   3.498   1.677   2.402
 5891TIP3   OH217678   2.314   2.465   0.122
 5891TIP3    H117679   2.250   2.450   0.052
 5891TIP3    H217680   2.303   2.558   0.143
 5892TIP3   OH217681   4.496   5.034   1.620
 5892TIP3    H117682   4.555   4.986   1.562
 5892TIP3    H217683   4.431   5.073   1.561
 5893TIP3   OH217684   0.756   4.104   4.999
 5893TIP3    H117685   0.710   4.051   5.063
 5893TIP3    H217686   0.714   4.190   5.005
 5894TIP3   OH217687   3.832   5.756   3.081
 5894TIP3    H117688   3.854   5.804   3.001
 5894TIP3    H217689   3.889   5.679   3.079
 5895TIP3   OH217690   5.679   5.913   3.275
 5895TIP3    H117691   5.629   5.945   3.200
 5895TIP3    H217692   5.716   5.991   3.315
 5896TIP3   OH217693   6.124   2.134   2.539
 5896TIP3    H117694   6.103   2.134   2.446
 5896TIP3    H217695   6.064   2.070   2.577
 5897TIP3   OH217696   2.297   5.684   2.592
 5897TIP3    H117697   2.388   5.712   2.582
 5897TIP3    H217698   2.299   5.619   2.663
 5898TIP3   OH217699   1.373   0.049   4.999
 5898TIP3    H117700   1.437  -0.022   4.989
 5898TIP3    H217701   1.418   0.126   4.966
 5899TIP3   OH217702   0.615   0.515   4.285
 5899TIP3    H117703   0.538   0.531   4.339
 5899TIP3    H217704   0.670   0.592   4.299
 5900TIP3   OH217705   5.116   4.877   2.322
 5900TIP3    H117706   5.134   4.914   2.236
 5900TIP3    H217707   5.025   4.848   2.317
 5901TIP3   OH217708   3.112   4.197   0.305
 5901TIP3    H117709   3.164   4.223   0.382
 5901TIP3    H217710   3.145   4.111   0.281
 5902TIP3   OH217711   1.747   3.899   0.836
 5902TIP3    H117712   1.786   3.843   0.770
 5902TIP3    H217713   1.749   3.847   0.917
 5903TIP3   OH217714   0.197   2.140   4.361
 5903TIP3    H117715   0.251   2.154   4.439
 5903TIP3    H217716   0.159   2.053   4.374
 5904TIP3   OH217717   4.631   0.893   1.938
 5904TIP3    H117718   4.642   0.942   1.856
 5904TIP3    H217719   4.720   0.878   1.970
 5905TIP3   OH217720   4.075   3.701   4.513
 5905TIP3    H117721   4.006   3.693   4.447
 5905TIP3    H217722   4.146   3.645   4.481
 5906TIP3   OH217723   5.575   0.565   4.392
 5906TIP3    H117724   5.616   0.501   4.333
 5906TIP3    H217725   5.481   0.548   4.385
 5907TIP3   OH217726   2.018   3.916   1.548
 5907TIP3    H117727   2.074   3.843   1.576
 5907TIP3    H217728   2.004   3.967   1.628
 5908TIP3   OH217729   3.905   2.136  -0.003
 5908TIP3    H117730   3.814   2.137   0.026
 5908TIP3    H217731   3.953   2.180   0.067
 5909TIP3   OH217732   0.897   3.998   1.808
 5909TIP3    H117733   0.941   3.980   1.725
 5909TIP3    H217734   0.818   3.944   1.805
 5910TIP3   OH217735   2.153   5.740   1.527
 5910TIP3    H117736   2.093   5.782   1.589
 5910TIP3    H217737   2.157   5.800   1.453
 5911TIP3   OH217738   1.033   2.425   2.441
 5911TIP3    H117739   1.106   2.414   2.501
 5911TIP3    H217740   0.966   2.364   2.472
 5912TIP3   OH217741   0.699   2.202   3.173
 5912TIP3    H117742   0.604   2.213   3.178
 5912TIP3    H217743   0.716   2.181   3.081
 5913TIP3   OH217744   0.410   5.207   2.039
 5913TIP3    H117745   0.326   5.209   1.993
 5913TIP3    H217746   0.424   5.297   2.067
 5914TIP3   OH217747   0.830   2.429   0.277
 5914TIP3    H117748   0.872   2.372   0.342
 5914TIP3    H217749   0.796   2.368   0.211
 5915TIP3   OH217750   6.087   4.725   0.727
 5915TIP3    H117751   6.128   4.640   0.746
 5915TIP3    H217752   6.146   4.789   0.766
 5916TIP3   OH217753   0.596   4.322   0.040
 5916TIP3    H117754   0.522   4.372   0.073
 5916TIP3    H217755   0.658   4.318   0.113
 5917TIP3   OH217756   5.767   0.983   4.223
 5917TIP3    H117757   5.843   0.967   4.280
 5917TIP3    H217758   5.695   0.939   4.268
 5918TIP3   OH217759   6.027   5.074   3.450
 5918TIP3    H117760   5.976   5.086   3.531
 5918TIP3    H217761   6.013   4.982   3.427
 5919TIP3   OH217762   2.414   4.737   1.042
 5919TIP3    H117763   2.322   4.715   1.055
 5919TIP3    H217764   2.418   4.833   1.048
 5920TIP3   OH217765   2.442   5.700   3.682
 5920TIP3    H117766   2.532   5.669   3.669
 5920TIP3    H217767   2.452   5.792   3.705
 5921TIP3   OH217768   1.873   2.345   1.578
 5921TIP3    H117769   1.879   2.425   1.527
 5921TIP3    H217770   1.864   2.374   1.669
 5922TIP3   OH217771   3.711   5.799   2.765
 5922TIP3    H117772   3.756   5.715   2.771
 5922TIP3    H217773   3.618   5.776   2.762
 5923TIP3   OH217774   4.381   3.001   3.455
 5923TIP3    H117775   4.402   2.958   3.372
 5923TIP3    H217776   4.353   2.930   3.513
 5924TIP3   OH217777   6.096   1.638   1.979
 5924TIP3    H117778   6.104   1.725   1.940
 5924TIP3    H217779   6.039   1.590   1.919
 5925TIP3   OH217780   3.171   4.656   1.496
 5925TIP3    H117781   3.078   4.665   1.473
 5925TIP3    H217782   3.193   4.566   1.471
 5926TIP3   OH217783   4.596   4.027   2.223
 5926TIP3    H117784   4.601   3.968   2.148
 5926TIP3    H217785   4.619   4.113   2.188
 5927TIP3   OH217786   4.641   2.214   3.885
 5927TIP3    H117787   4.667   2.306   3.878
 5927TIP3    H217788   4.546   2.217   3.892
 5928TIP3   OH217789   4.054   3.115   2.673
 5928TIP3    H117790   4.062   3.023   2.699
 5928TIP3    H217791   4.034   3.161   2.754
 5929TIP3   OH217792   0.302   0.313   3.049
 5929TIP3    H117793   0.315   0.310   2.954
 5929TIP3    H217794   0.336   0.399   3.075
 5930TIP3   OH217795   5.175   0.404   3.497
 5930TIP3    H117796   5.186   0.327   3.553
 5930TIP3    H217797   5.082   0.405   3.475
 5931TIP3   OH217798   3.204   5.977   2.018
 5931TIP3    H117799   3.170   5.889   2.034
 5931TIP3    H217800   3.297   5.971   2.039
 5932TIP3   OH217801   1.127   0.448   2.910
 5932TIP3    H117802   1.177   0.452   2.829
 5932TIP3    H217803   1.042   0.487   2.889
 5933TIP3   OH217804   5.886   5.633   1.981
 5933TIP3    H117805   5.802   5.607   2.017
 5933TIP3    H217806   5.945   5.561   2.001
 5934TIP3   OH217807   3.549   1.345   1.599
 5934TIP3    H117808   3.552   1.418   1.537
 5934TIP3    H217809   3.563   1.267   1.545
 5935TIP3   OH217810   4.032   2.203   3.750
 5935TIP3    H117811   4.006   2.165   3.834
 5935TIP3    H217812   3.969   2.274   3.735
 5936TIP3   OH217813   0.435   4.084   4.082
 5936TIP3    H117814   0.520   4.068   4.123
 5936TIP3    H217815   0.449   4.163   4.030
 5937TIP3   OH217816   5.151   1.357   2.508
 5937TIP3    H117817   5.132   1.418   2.436
 5937TIP3    H217818   5.090   1.285   2.496
 5938TIP3   OH217819   2.819   3.047   2.027
 5938TIP3    H117820   2.743   3.065   1.972
 5938TIP3    H217821   2.848   2.960   2.001
 5939TIP3   OH217822   3.918   0.355   0.531
 5939TIP3    H117823   4.010   0.371   0.552
 5939TIP3    H217824   3.870   0.423   0.578
 5940TIP3   OH217825   0.754   4.497   3.184
 5940TIP3    H117826   0.686   4.564   3.170
 5940TIP3    H217827   0.717   4.417   3.148
 5941TIP3   OH217828   3.103   3.168   2.786
 5941TIP3    H117829   3.093   3.260   2.810
 5941TIP3    H217830   3.193   3.146   2.812
 5942TIP3   OH217831   3.462   1.333   3.663
 5942TIP3    H117832   3.517   1.281   3.721
 5942TIP3    H217833   3.491   1.423   3.676
 5943TIP3   OH217834   3.801   0.748   1.246
 5943TIP3    H117835   3.842   0.783   1.166
 5943TIP3    H217836   3.821   0.813   1.313
 5944TIP3   OH217837   0.534   5.958   1.760
 5944TIP3    H117838   0.528   5.992   1.670
 5944TIP3    H217839   0.592   6.020   1.805
 5945TIP3   OH217840   5.262   3.661   1.480
 5945TIP3    H117841   5.232   3.710   1.556
 5945TIP3    H217842   5.271   3.571   1.511
 5946TIP3   OH217843   6.052   5.926   3.842
 5946TIP3    H117844   6.145   5.922   3.863
 5946TIP3    H217845   6.009   5.952   3.924
 5947TIP3   OH217846   3.849   4.556   4.402
 5947TIP3    H117847   3.906   4.569   4.326
 5947TIP3    H217848   3.854   4.639   4.451
 5948TIP3   OH217849   2.674   3.612   4.084
 5948TIP3    H117850   2.629   3.654   4.157
 5948TIP3    H217851   2.684   3.521   4.112
 5949TIP3   OH217852   5.846   3.311   3.837
 5949TIP3    H117853   5.860   3.253   3.763
 5949TIP3    H217854   5.933   3.325   3.874
 5950TIP3   OH217855   2.312   4.395   3.599
 5950TIP3    H117856   2.377   4.444   3.548
 5950TIP3    H217857   2.362   4.359   3.673
 5951TIP3   OH217858   3.585   4.004   4.656
 5951TIP3    H117859   3.492   3.983   4.649
 5951TIP3    H217860   3.591   4.062   4.733
 5952TIP3   OH217861   4.318   1.690   3.256
 5952TIP3    H117862   4.264   1.651   3.325
 5952TIP3    H217863   4.301   1.636   3.179
 5953TIP3   OH217864   1.604   1.755   2.693
 5953TIP3    H117865   1.554   1.812   2.751
 5953TIP3    H217866   1.591   1.667   2.729
 5954TIP3   OH217867   4.049   2.558   1.708
 5954TIP3    H117868   4.043   2.489   1.642
 5954TIP3    H217869   4.143   2.576   1.716
 5955TIP3   OH217870   6.222   5.001   4.656
 5955TIP3    H117871   6.286   5.069   4.637
 5955TIP3    H217872   6.186   5.025   4.742
 5956TIP3   OH217873   1.978   1.851   4.541
 5956TIP3    H117874   2.041   1.831   4.611
 5956TIP3    H217875   1.894   1.856   4.586
 5957TIP3   OH217876   2.698   2.591   3.053
 5957TIP3    H117877   2.685   2.642   3.133
 5957TIP3    H217878   2.742   2.651   2.993
 5958TIP3   OH217879   6.007   2.650   3.835
 5958TIP3    H117880   6.090   2.639   3.881
 5958TIP3    H217881   6.028   2.637   3.743
 5959TIP3   OH217882   4.116   4.648   2.607
 5959TIP3    H117883   4.067   4.601   2.675
 5959TIP3    H217884   4.079   4.617   2.525
 5960TIP3   OH217885   0.160   2.603   4.163
 5960TIP3    H117886   0.126   2.542   4.227
 5960TIP3    H217887   0.200   2.673   4.215
 5961TIP3   OH217888   0.852   0.221   2.949
 5961TIP3    H117889   0.935   0.175   2.965
 5961TIP3    H217890   0.849   0.230   2.854
 5962TIP3   OH217891   4.191   3.911   4.888
 5962TIP3    H117892   4.212   4.002   4.911
 5962TIP3    H217893   4.273   3.864   4.902
 5963TIP3   OH217894   4.686   0.986   1.665
 5963TIP3    H117895   4.768   0.943   1.641
 5963TIP3    H217896   4.620   0.946   1.609
 5964TIP3   OH217897   1.161   0.025   0.186
 5964TIP3    H117898   1.223   0.099   0.187
 5964TIP3    H217899   1.082   0.061   0.227
 5965TIP3   OH217900   5.013   3.536   0.623
 5965TIP3    H117901   5.013   3.487   0.705
 5965TIP3    H217902   4.951   3.489   0.567
 5966TIP3   OH217903   4.899   5.671   4.814
 5966TIP3    H117904   4.874   5.713   4.732
 5966TIP3    H217905   4.864   5.582   4.808
 5967TIP3   OH217906   2.521   4.405   4.204
 5967TIP3    H117907   2.471   4.352   4.266
 5967TIP3    H217908   2.611   4.401   4.236
 5968TIP3   OH217909   1.392   0.004   4.307
 5968TIP3    H117910   1.399   0.038   4.218
 5968TIP3    H217911   1.351  -0.082   4.297
 5969TIP3   OH217912   4.720   3.771   4.031
 5969TIP3    H117913   4.661   3.842   4.009
 5969TIP3    H217914   4.732   3.723   3.949
 5970TIP3   OH217915   2.977   3.378   4.584
 5970TIP3    H117916   2.892   3.354   4.621
 5970TIP3    H217917   2.972   3.473   4.571
 5971TIP3   OH217918   2.621   2.934   4.551
 5971TIP3    H117919   2.646   2.842   4.541
 5971TIP3    H217920   2.659   2.977   4.474
 5972TIP3   OH217921   3.639   3.290   2.003
 5972TIP3    H117922   3.594   3.207   2.019
 5972TIP3    H217923   3.614   3.314   1.914
 5973TIP3   OH217924   5.482   2.454   5.075
 5973TIP3    H117925   5.564   2.480   5.119
 5973TIP3    H217926   5.509   2.385   5.015
 5974TIP3   OH217927   1.371   4.283   3.813
 5974TIP3    H117928   1.345   4.332   3.735
 5974TIP3    H217929   1.466   4.291   3.815
 5975TIP3   OH217930   5.071   5.148   1.263
 5975TIP3    H117931   5.076   5.059   1.228
 5975TIP3    H217932   5.054   5.203   1.186
 5976TIP3   OH217933   2.549   3.788   1.471
 5976TIP3    H117934   2.532   3.704   1.427
 5976TIP3    H217935   2.575   3.847   1.400
 5977TIP3   OH217936   1.418   3.219   4.421
 5977TIP3    H117937   1.439   3.182   4.336
 5977TIP3    H217938   1.478   3.174   4.482
 5978TIP3   OH217939   2.218   0.534   2.676
 5978TIP3    H117940   2.140   0.589   2.681
 5978TIP3    H217941   2.186   0.451   2.641
 5979TIP3   OH217942   0.628   3.137   1.928
 5979TIP3    H117943   0.679   3.058   1.908
 5979TIP3    H217944   0.549   3.128   1.875
 5980TIP3   OH217945   2.656   0.625   3.360
 5980TIP3    H117946   2.615   0.682   3.295
 5980TIP3    H217947   2.621   0.538   3.341
 5981TIP3   OH217948   3.547   2.480   4.648
 5981TIP3    H117949   3.506   2.512   4.728
 5981TIP3    H217950   3.640   2.496   4.660
 5982TIP3   OH217951   3.768   5.441   4.020
 5982TIP3    H117952   3.815   5.523   4.007
 5982TIP3    H217953   3.837   5.374   4.018
 5983TIP3   OH217954   3.657   2.134   0.110
 5983TIP3    H117955   3.636   2.216   0.155
 5983TIP3    H217956   3.641   2.153   0.017
 5984TIP3   OH217957   5.122   5.264   1.707
 5984TIP3    H117958   5.127   5.306   1.793
 5984TIP3    H217959   5.142   5.334   1.645
 5985TIP3   OH217960   2.506   3.332   4.408
 5985TIP3    H117961   2.506   3.426   4.426
 5985TIP3    H217962   2.525   3.291   4.492
 5986TIP3   OH217963   6.086   5.142   2.907
 5986TIP3    H117964   6.077   5.112   2.997
 5986TIP3    H217965   6.135   5.072   2.864
 5987TIP3   OH217966   0.549   2.038   3.493
 5987TIP3    H117967   0.561   2.017   3.401
 5987TIP3    H217968   0.465   2.084   3.496
 5988TIP3   OH217969   4.489   3.546   0.426
 5988TIP3    H117970   4.557   3.612   0.438
 5988TIP3    H217971   4.507   3.507   0.341
 5989TIP3   OH217972   4.316   0.872   1.452
 5989TIP3    H117973   4.239   0.869   1.395
 5989TIP3    H217974   4.368   0.796   1.426
 5990TIP3   OH217975   1.993   5.649   3.582
 5990TIP3    H117976   2.041   5.606   3.653
 5990TIP3    H217977   1.981   5.580   3.517
 5991TIP3   OH217978   3.711   0.491   2.213
 5991TIP3    H117979   3.616   0.496   2.209
 5991TIP3    H217980   3.729   0.423   2.278
 5992TIP3   OH217981   2.193   3.341   3.216
 5992TIP3    H117982   2.190   3.331   3.312
 5992TIP3    H217983   2.108   3.379   3.194
 5993TIP3   OH217984   1.032   5.209   0.058
 5993TIP3    H117985   1.024   5.114   0.067
 5993TIP3    H217986   0.942   5.241   0.054
 5994TIP3   OH217987   2.592   2.627   3.899
 5994TIP3    H117988   2.576   2.659   3.988
 5994TIP3    H217989   2.600   2.532   3.909
 5995TIP3   OH217990   5.833   5.974   0.933
 5995TIP3    H117991   5.816   5.918   0.857
 5995TIP3    H217992   5.872   5.915   0.997
 5996TIP3   OH217993   3.539   5.134   0.737
 5996TIP3    H117994   3.617   5.166   0.782
 5996TIP3    H217995   3.476   5.206   0.744
 5997TIP3   OH217996   6.055   3.725   0.422
 5997TIP3    H117997   5.983   3.763   0.371
 5997TIP3    H217998   6.126   3.717   0.359
 5998TIP3   OH217999   5.861   0.704   0.329
 5998TIP3    H118000   5.870   0.777   0.391
 5998TIP3    H218001   5.906   0.631   0.371
 5999TIP3   OH218002   3.351   2.034   4.626
 5999TIP3    H118003   3.330   2.102   4.690
 5999TIP3    H218004   3.439   2.005   4.651
 6000TIP3   OH218005   4.369   1.784   1.449
 6000TIP3    H118006   4.412   1.862   1.414
 6000TIP3    H218007   4.381   1.717   1.383
 6001TIP3   OH218008   3.325   1.404   2.533
 6001TIP3    H118009   3.374   1.328   2.566
 6001TIP3    H218010   3.305   1.455   2.611
 6002TIP3   OH218011   0.406   4.828   0.781
 6002TIP3    H118012   0.340   4.834   0.851
 6002TIP3    H218013   0.488   4.810   0.827
 6003TIP3   OH218014   3.124   3.893   2.460
 6003TIP3    H118015   3.135   3.988   2.456
 6003TIP3    H218016   3.098   3.868   2.372
 6004TIP3   OH218017   0.439   2.839   1.180
 6004TIP3    H118018   0.432   2.777   1.107
 6004TIP3    H218019   0.530   2.869   1.178
 6005TIP3   OH218020   4.535   1.165   0.462
 6005TIP3    H118021   4.589   1.160   0.382
 6005TIP3    H218022   4.468   1.230   0.441
 6006TIP3   OH218023   2.936   5.400   4.480
 6006TIP3    H118024   2.970   5.342   4.548
 6006TIP3    H218025   2.948   5.351   4.399
 6007TIP3   OH218026   2.717   3.330   2.142
 6007TIP3    H118027   2.746   3.359   2.056
 6007TIP3    H218028   2.621   3.334   2.137
 6008TIP3   OH218029   0.807   2.718   0.852
 6008TIP3    H118030   0.803   2.664   0.931
 6008TIP3    H218031   0.868   2.788   0.874
 6009TIP3   OH218032   3.344   4.764   0.808
 6009TIP3    H118033   3.404   4.822   0.761
 6009TIP3    H218034   3.382   4.677   0.797
 6010TIP3   OH218035   6.033   1.018   2.601
 6010TIP3    H118036   5.937   1.012   2.605
 6010TIP3    H218037   6.056   0.985   2.515
 6011TIP3   OH218038   2.896   0.134   2.232
 6011TIP3    H118039   2.921   0.226   2.239
 6011TIP3    H218040   2.860   0.112   2.318
 6012TIP3   OH218041   1.704   2.827   2.764
 6012TIP3    H118042   1.614   2.799   2.743
 6012TIP3    H218043   1.700   2.923   2.758
 6013TIP3   OH218044   2.029   2.926   3.373
 6013TIP3    H118045   2.036   2.960   3.283
 6013TIP3    H218046   1.978   2.846   3.364
 6014TIP3   OH218047   1.579   2.116   4.973
 6014TIP3    H118048   1.673   2.099   4.976
 6014TIP3    H218049   1.539   2.029   4.979
 6015TIP3   OH218050   3.044   0.553   1.418
 6015TIP3    H118051   2.957   0.516   1.435
 6015TIP3    H218052   3.067   0.599   1.498
 6016TIP3   OH218053   5.095   0.580   1.164
 6016TIP3    H118054   5.076   0.660   1.213
 6016TIP3    H218055   5.013   0.530   1.166
 6017TIP3   OH218056   4.021   5.838   4.260
 6017TIP3    H118057   4.111   5.815   4.237
 6017TIP3    H218058   4.028   5.919   4.310
 6018TIP3   OH218059   0.199   5.724   1.994
 6018TIP3    H118060   0.227   5.638   2.023
 6018TIP3    H218061   0.281   5.773   1.983
 6019TIP3   OH218062   4.199   0.505   4.872
 6019TIP3    H118063   4.177   0.417   4.843
 6019TIP3    H218064   4.244   0.492   4.956
 6020TIP3   OH218065   4.129   4.975   0.486
 6020TIP3    H118066   4.130   4.957   0.392
 6020TIP3    H218067   4.055   4.925   0.519
 6021TIP3   OH218068   4.015   0.406   3.758
 6021TIP3    H118069   3.981   0.402   3.669
 6021TIP3    H218070   4.049   0.318   3.774
 6022TIP3   OH218071   2.037   1.191   0.479
 6022TIP3    H118072   1.958   1.220   0.527
 6022TIP3    H218073   2.004   1.129   0.414
 6023TIP3   OH218074   3.002   4.599   1.173
 6023TIP3    H118075   3.076   4.650   1.140
 6023TIP3    H218076   3.042   4.531   1.228
 6024TIP3   OH218077   2.805   3.105   0.243
 6024TIP3    H118078   2.768   3.077   0.159
 6024TIP3    H218079   2.897   3.123   0.224
 6025TIP3   OH218080   0.917   3.236   3.365
 6025TIP3    H118081   0.893   3.302   3.300
 6025TIP3    H218082   0.958   3.286   3.436
 6026TIP3   OH218083   0.370   0.098   1.498
 6026TIP3    H118084   0.283   0.130   1.522
 6026TIP3    H218085   0.430   0.164   1.532
 6027TIP3   OH218086   2.175   3.897   3.081
 6027TIP3    H118087   2.123   3.956   3.135
 6027TIP3    H218088   2.131   3.813   3.089
 6028TIP3   OH218089   0.136   4.840   2.102
 6028TIP3    H118090   0.150   4.805   2.014
 6028TIP3    H218091   0.223   4.842   2.141
 6029TIP3   OH218092   5.109   1.381   4.834
 6029TIP3    H118093   5.119   1.338   4.919
 6029TIP3    H218094   5.064   1.315   4.780
 6030TIP3   OH218095   1.333   2.266   4.670
 6030TIP3    H118096   1.318   2.299   4.582
 6030TIP3    H218097   1.276   2.189   4.677
 6031TIP3   OH218098   3.122   1.380   0.544
 6031TIP3    H118099   3.039   1.410   0.507
 6031TIP3    H218100   3.189   1.421   0.489
 6032TIP3   OH218101   4.079   1.529   1.235
 6032TIP3    H118102   4.094   1.474   1.158
 6032TIP3    H218103   4.109   1.616   1.209
 6033TIP3   OH218104   3.527   0.482   3.704
 6033TIP3    H118105   3.610   0.530   3.710
 6033TIP3    H218106   3.468   0.542   3.660
 6034TIP3   OH218107   2.519   4.327   3.779
 6034TIP3    H118108   2.578   4.360   3.847
 6034TIP3    H218109   2.548   4.237   3.764
 6035TIP3   OH218110   2.995   3.327   3.821
 6035TIP3    H118111   2.926   3.385   3.786
 6035TIP3    H218112   3.003   3.258   3.756
 6036TIP3   OH218113   4.129   3.434   2.564
 6036TIP3    H118114   4.109   3.369   2.631
 6036TIP3    H218115   4.193   3.391   2.508
 6037TIP3   OH218116   3.996   0.257   4.432
 6037TIP3    H118117   4.036   0.341   4.455
 6037TIP3    H218118   4.052   0.191   4.475
 6038TIP3   OH218119   0.158   2.132   0.549
 6038TIP3    H118120   0.235   2.088   0.513
 6038TIP3    H218121   0.104   2.153   0.472
 6039TIP3   OH218122   4.751   0.759   3.754
 6039TIP3    H118123   4.749   0.795   3.842
 6039TIP3    H218124   4.834   0.710   3.750
 6040TIP3   OH218125   4.585   1.935   1.756
 6040TIP3    H118126   4.639   1.966   1.683
 6040TIP3    H218127   4.534   2.012   1.783
 6041TIP3   OH218128   2.944   1.093   4.533
 6041TIP3    H118129   2.891   1.042   4.472
 6041TIP3    H218130   2.952   1.179   4.491
 6042TIP3   OH218131   0.073   2.528   4.909
 6042TIP3    H118132   0.001   2.498   4.965
 6042TIP3    H218133   0.139   2.460   4.916
 6043TIP3   OH218134   0.064   3.256   2.793
 6043TIP3    H118135  -0.018   3.237   2.839
 6043TIP3    H218136   0.130   3.257   2.862
 6044TIP3   OH218137   0.171   2.107   0.976
 6044TIP3    H118138   0.100   2.089   0.914
 6044TIP3    H218139   0.140   2.072   1.059
 6045TIP3   OH218140   2.569   2.426   0.212
 6045TIP3    H118141   2.577   2.515   0.247
 6045TIP3    H218142   2.480   2.422   0.179
 6046TIP3   OH218143   3.298   5.542   3.584
 6046TIP3    H118144   3.299   5.583   3.671
 6046TIP3    H218145   3.253   5.606   3.528
 6047TIP3   OH218146   3.047   3.061   4.645
 6047TIP3    H118147   3.080   3.132   4.589
 6047TIP3    H218148   3.099   2.985   4.620
 6048TIP3   OH218149   1.060   0.510   5.016
 6048TIP3    H118150   1.124   0.515   4.944
 6048TIP3    H218151   1.086   0.580   5.076
 6049TIP3   OH218152   0.356   3.511   3.296
 6049TIP3    H118153   0.432   3.564   3.319
 6049TIP3    H218154   0.392   3.426   3.273
 6050TIP3   OH218155   1.926   0.736   2.373
 6050TIP3    H118156   1.877   0.686   2.438
 6050TIP3    H218157   2.014   0.742   2.410
 6051TIP3   OH218158   4.599   2.292   3.334
 6051TIP3    H118159   4.644   2.306   3.418
 6051TIP3    H218160   4.662   2.320   3.268
 6052TIP3   OH218161   1.619   3.105   2.171
 6052TIP3    H118162   1.704   3.116   2.127
 6052TIP3    H218163   1.599   3.192   2.204
 6053TIP3   OH218164   3.527   1.841   0.466
 6053TIP3    H118165   3.562   1.927   0.488
 6053TIP3    H218166   3.575   1.780   0.521
 6054TIP3   OH218167   0.485   5.467   1.954
 6054TIP3    H118168   0.549   5.408   1.914
 6054TIP3    H218169   0.524   5.554   1.944
 6055TIP3   OH218170   1.722   4.824   1.082
 6055TIP3    H118171   1.764   4.742   1.105
 6055TIP3    H218172   1.764   4.889   1.138
 6056TIP3   OH218173   0.142   3.946   2.013
 6056TIP3    H118174   0.142   3.972   2.105
 6056TIP3    H218175   0.071   3.997   1.973
 6057TIP3   OH218176   5.635   4.576   0.141
 6057TIP3    H118177   5.656   4.629   0.218
 6057TIP3    H218178   5.625   4.487   0.176
 6058TIP3   OH218179   2.934   4.560   4.923
 6058TIP3    H118180   2.986   4.578   4.845
 6058TIP3    H218181   2.990   4.506   4.978
 6059TIP3   OH218182   0.061   0.870   0.249
 6059TIP3    H118183   0.016   0.940   0.202
 6059TIP3    H218184   0.147   0.905   0.269
 6060TIP3   OH218185   2.603   2.328   4.111
 6060TIP3    H118186   2.542   2.269   4.068
 6060TIP3    H218187   2.689   2.305   4.075
 6061TIP3   OH218188   2.119   5.177   1.648
 6061TIP3    H118189   2.052   5.230   1.604
 6061TIP3    H218190   2.184   5.161   1.580
 6062TIP3   OH218191   2.035   5.378   2.375
 6062TIP3    H118192   2.011   5.391   2.467
 6062TIP3    H218193   2.120   5.422   2.366
 6063TIP3   OH218194   2.622   2.629   1.387
 6063TIP3    H118195   2.640   2.634   1.481
 6063TIP3    H218196   2.707   2.645   1.345
 6064TIP3   OH218197   4.366   2.541   3.334
 6064TIP3    H118198   4.281   2.566   3.373
 6064TIP3    H218199   4.377   2.449   3.359
 6065TIP3   OH218200   1.258   1.524   0.213
 6065TIP3    H118201   1.340   1.498   0.255
 6065TIP3    H218202   1.190   1.502   0.277
 6066TIP3   OH218203   2.247   2.617   3.594
 6066TIP3    H118204   2.241   2.525   3.622
 6066TIP3    H218205   2.212   2.667   3.667
 6067TIP3   OH218206   3.223   1.111   1.438
 6067TIP3    H118207   3.225   1.019   1.414
 6067TIP3    H218208   3.303   1.126   1.488
 6068TIP3   OH218209   3.790   4.681   4.710
 6068TIP3    H118210   3.836   4.726   4.639
 6068TIP3    H218211   3.713   4.642   4.668
 6069TIP3   OH218212   3.227   1.319   4.616
 6069TIP3    H118213   3.199   1.309   4.525
 6069TIP3    H218214   3.303   1.261   4.625
 6070TIP3   OH218215   1.226   2.928   4.166
 6070TIP3    H118216   1.179   2.845   4.154
 6070TIP3    H218217   1.309   2.914   4.121
 6071TIP3   OH218218   2.283   2.892   4.552
 6071TIP3    H118219   2.336   2.877   4.474
 6071TIP3    H218220   2.252   2.805   4.578
 6072TIP3   OH218221   2.361   1.623   4.595
 6072TIP3    H118222   2.436   1.679   4.578
 6072TIP3    H218223   2.307   1.630   4.516
 6073TIP3   OH218224   1.819   4.117   3.535
 6073TIP3    H118225   1.830   4.041   3.592
 6073TIP3    H218226   1.891   4.112   3.473
 6074TIP3   OH218227   3.117   3.904   0.880
 6074TIP3    H118228   3.103   3.976   0.818
 6074TIP3    H218229   3.075   3.933   0.960
 6075TIP3   OH218230   2.108   4.582   3.892
 6075TIP3    H118231   2.169   4.508   3.889
 6075TIP3    H218232   2.156   4.650   3.940
 6076TIP3   OH218233   0.486   0.616   1.376
 6076TIP3    H118234   0.412   0.558   1.393
 6076TIP3    H218235   0.564   0.561   1.388
 6077TIP3   OH218236   2.681   5.174   0.604
 6077TIP3    H118237   2.702   5.111   0.535
 6077TIP3    H218238   2.664   5.256   0.557
 6078TIP3   OH218239   6.073   1.924   5.098
 6078TIP3    H118240   6.152   1.969   5.067
 6078TIP3    H218241   6.013   1.928   5.024
 6079TIP3   OH218242   2.671   0.377   2.144
 6079TIP3    H118243   2.720   0.427   2.079
 6079TIP3    H218244   2.658   0.291   2.103
 6080TIP3   OH218245   2.611   4.683   2.388
 6080TIP3    H118246   2.641   4.732   2.312
 6080TIP3    H218247   2.650   4.728   2.463
 6081TIP3   OH218248   2.134   3.580   1.072
 6081TIP3    H118249   2.112   3.565   1.164
 6081TIP3    H218250   2.216   3.533   1.059
 6082TIP3   OH218251   1.597   0.780   4.160
 6082TIP3    H118252   1.660   0.809   4.094
 6082TIP3    H218253   1.610   0.685   4.165
 6083TIP3   OH218254   0.795   0.956   2.568
 6083TIP3    H118255   0.794   0.932   2.660
 6083TIP3    H218256   0.887   0.973   2.548
 6084TIP3   OH218257   3.908   3.538   0.335
 6084TIP3    H118258   3.847   3.468   0.360
 6084TIP3    H218259   3.943   3.570   0.418
 6085TIP3   OH218260   1.360   4.487   2.342
 6085TIP3    H118261   1.372   4.560   2.403
 6085TIP3    H218262   1.297   4.430   2.385
 6086TIP3   OH218263   2.081   3.371   4.936
 6086TIP3    H118264   2.160   3.345   4.982
 6086TIP3    H218265   2.082   3.319   4.855
 6087TIP3   OH218266   3.567   5.297   1.829
 6087TIP3    H118267   3.572   5.392   1.818
 6087TIP3    H218268   3.504   5.268   1.763
 6088TIP3   OH218269   1.437   1.357   1.967
 6088TIP3    H118270   1.372   1.291   1.944
 6088TIP3    H218271   1.511   1.306   2.002
 6089TIP3   OH218272   2.523   2.390   1.689
 6089TIP3    H118273   2.438   2.433   1.696
 6089TIP3    H218274   2.586   2.461   1.693
 6090TIP3   OH218275   0.813   0.479   4.636
 6090TIP3    H118276   0.718   0.476   4.621
 6090TIP3    H218277   0.841   0.559   4.592
 6091TIP3   OH218278   1.228   2.292   1.501
 6091TIP3    H118279   1.272   2.331   1.426
 6091TIP3    H218280   1.157   2.354   1.522
 6092TIP3   OH218281   0.353   0.514   3.462
 6092TIP3    H118282   0.321   0.556   3.542
 6092TIP3    H218283   0.425   0.458   3.492
 6093TIP3   OH218284   3.106   0.081   2.041
 6093TIP3    H118285   3.040   0.106   2.105
 6093TIP3    H218286   3.055   0.043   1.969
 6094TIP3   OH218287   3.333   0.732   2.194
 6094TIP3    H118288   3.374   0.646   2.190
 6094TIP3    H218289   3.275   0.734   2.118
 6095TIP3   OH218290   1.125   1.084   3.385
 6095TIP3    H118291   1.034   1.061   3.405
 6095TIP3    H218292   1.118   1.141   3.308
 6096TIP3   OH218293   5.523   2.613   0.851
 6096TIP3    H118294   5.556   2.526   0.875
 6096TIP3    H218295   5.565   2.672   0.913
 6097TIP3   OH218296   6.353   3.111   0.968
 6097TIP3    H118297   6.295   3.047   0.927
 6097TIP3    H218298   6.436   3.065   0.980
 6098TIP3   OH218299   4.959   4.622   1.501
 6098TIP3    H118300   4.998   4.678   1.434
 6098TIP3    H218301   5.023   4.623   1.573
 6099TIP3   OH218302   1.474   3.570   3.748
 6099TIP3    H118303   1.408   3.626   3.788
 6099TIP3    H218304   1.478   3.493   3.806
 6100TIP3   OH218305   3.187   0.779   2.685
 6100TIP3    H118306   3.168   0.690   2.715
 6100TIP3    H218307   3.152   0.783   2.596
 6101TIP3   OH218308   6.306   4.462   3.923
 6101TIP3    H118309   6.316   4.370   3.901
 6101TIP3    H218310   6.215   4.482   3.904
 6102TIP3   OH218311   2.813   3.974   2.493
 6102TIP3    H118312   2.834   4.053   2.443
 6102TIP3    H218313   2.897   3.930   2.505
 6103TIP3   OH218314   2.992   0.188   4.035
 6103TIP3    H118315   2.968   0.258   3.975
 6103TIP3    H218316   3.074   0.218   4.075
 6104TIP3   OH218317   4.702   4.759   4.482
 6104TIP3    H118318   4.661   4.832   4.434
 6104TIP3    H218319   4.789   4.751   4.443
 6105TIP3   OH218320   5.301   1.143   3.312
 6105TIP3    H118321   5.338   1.231   3.305
 6105TIP3    H218322   5.348   1.104   3.386
 6106TIP3   OH218323   1.479   3.687   4.323
 6106TIP3    H118324   1.397   3.704   4.276
 6106TIP3    H218325   1.470   3.735   4.405
 6107TIP3   OH218326   4.394   1.270   3.063
 6107TIP3    H118327   4.322   1.208   3.055
 6107TIP3    H218328   4.424   1.262   3.153
 6108TIP3   OH218329   3.713   5.307   0.481
 6108TIP3    H118330   3.709   5.334   0.573
 6108TIP3    H218331   3.721   5.211   0.485
 6109TIP3   OH218332   2.033   0.053   0.340
 6109TIP3    H118333   2.042  -0.031   0.296
 6109TIP3    H218334   2.078   0.115   0.283
 6110TIP3   OH218335   0.939   5.268   3.987
 6110TIP3    H118336   0.968   5.325   3.915
 6110TIP3    H218337   0.948   5.179   3.952
 6111TIP3   OH218338   3.049   5.983   2.892
 6111TIP3    H118339   3.079   5.947   2.809
 6111TIP3    H218340   3.079   6.074   2.891
 6112TIP3   OH218341   3.349   4.487   3.554
 6112TIP3    H118342   3.379   4.491   3.464
 6112TIP3    H218343   3.367   4.574   3.589
 6113TIP3   OH218344   4.203   5.990   3.569
 6113TIP3    H118345   4.250   5.911   3.543
 6113TIP3    H218346   4.250   6.021   3.646
 6114TIP3   OH218347   5.269   1.291   3.688
 6114TIP3    H118348   5.209   1.291   3.614
 6114TIP3    H218349   5.299   1.201   3.696
 6115TIP3   OH218350   5.076   5.423   3.807
 6115TIP3    H118351   5.049   5.338   3.772
 6115TIP3    H218352   5.015   5.486   3.767
 6116TIP3   OH218353   3.605   1.368   5.093
 6116TIP3    H118354   3.514   1.382   5.068
 6116TIP3    H218355   3.650   1.449   5.068
 6117TIP3   OH218356   0.899   2.426   3.046
 6117TIP3    H118357   0.868   2.339   3.020
 6117TIP3    H218358   0.820   2.479   3.050
 6118TIP3   OH218359   6.130   0.088   4.360
 6118TIP3    H118360   6.143   0.100   4.454
 6118TIP3    H218361   6.035   0.087   4.348
 6119TIP3   OH218362   4.939   2.248   3.817
 6119TIP3    H118363   4.897   2.317   3.766
 6119TIP3    H218364   4.879   2.233   3.890
 6120TIP3   OH218365   3.209   5.042   3.558
 6120TIP3    H118366   3.194   5.122   3.509
 6120TIP3    H218367   3.235   4.977   3.493
 6121TIP3   OH218368   5.422   1.140   1.591
 6121TIP3    H118369   5.516   1.123   1.598
 6121TIP3    H218370   5.387   1.060   1.552
 6122TIP3   OH218371   6.124   2.397   2.681
 6122TIP3    H118372   6.057   2.366   2.742
 6122TIP3    H218373   6.141   2.322   2.624
 6123TIP3   OH218374   1.522   1.009   2.685
 6123TIP3    H118375   1.438   0.969   2.707
 6123TIP3    H218376   1.557   1.039   2.769
 6124TIP3   OH218377   4.542   4.615   4.660
 6124TIP3    H118378   4.592   4.656   4.590
 6124TIP3    H218379   4.530   4.684   4.725
 6125TIP3   OH218380   1.088   4.560   0.694
 6125TIP3    H118381   1.093   4.585   0.602
 6125TIP3    H218382   1.080   4.464   0.693
 6126TIP3   OH218383   1.508   3.296   0.319
 6126TIP3    H118384   1.439   3.359   0.340
 6126TIP3    H218385   1.464   3.211   0.324
 6127TIP3   OH218386   4.027   1.451   4.197
 6127TIP3    H118387   3.962   1.521   4.202
 6127TIP3    H218388   4.055   1.451   4.105
 6128TIP3   OH218389   1.915   4.555   3.220
 6128TIP3    H118390   1.825   4.587   3.214
 6128TIP3    H218391   1.968   4.627   3.185
 6129TIP3   OH218392   0.002   2.685   3.517
 6129TIP3    H118393   0.001   2.592   3.492
 6129TIP3    H218394   0.020   2.731   3.435
 6130TIP3   OH218395   0.335   3.791   4.868
 6130TIP3    H118396   0.430   3.776   4.862
 6130TIP3    H218397   0.321   3.872   4.818
 6131TIP3   OH218398   6.339   2.772   2.622
 6131TIP3    H118399   6.321   2.701   2.684
 6131TIP3    H218400   6.286   2.845   2.653
 6132TIP3   OH218401   5.527   0.560   2.120
 6132TIP3    H118402   5.485   0.642   2.093
 6132TIP3    H218403   5.459   0.493   2.111
 6133TIP3   OH218404   4.885   5.367   0.804
 6133TIP3    H118405   4.911   5.300   0.740
 6133TIP3    H218406   4.817   5.418   0.759
 6134TIP3   OH218407   6.174   1.523   3.924
 6134TIP3    H118408   6.096   1.573   3.950
 6134TIP3    H218409   6.146   1.471   3.849
 6135TIP3   OH218410   1.842   3.382   1.188
 6135TIP3    H118411   1.935   3.366   1.208
 6135TIP3    H218412   1.805   3.412   1.271
 6136TIP3   OH218413   2.977   5.683   3.548
 6136TIP3    H118414   3.031   5.616   3.506
 6136TIP3    H218415   3.002   5.765   3.504
 6137TIP3   OH218416   0.085   4.415   4.903
 6137TIP3    H118417   0.155   4.386   4.961
 6137TIP3    H218418   0.046   4.490   4.949
 6138TIP3   OH218419   4.174   3.380   4.162
 6138TIP3    H118420   4.183   3.319   4.089
 6138TIP3    H218421   4.205   3.464   4.128
 6139TIP3   OH218422   2.096   4.088   1.086
 6139TIP3    H118423   2.083   3.999   1.056
 6139TIP3    H218424   2.108   4.081   1.181
 6140TIP3   OH218425   3.928   0.770   4.079
 6140TIP3    H118426   3.892   0.858   4.066
 6140TIP3    H218427   4.013   0.772   4.035
 6141TIP3   OH218428   5.690   0.747   1.576
 6141TIP3    H118429   5.646   0.761   1.660
 6141TIP3    H218430   5.647   0.669   1.540
 6142TIP3   OH218431   0.162   5.065   2.896
 6142TIP3    H118432   0.167   5.017   2.979
 6142TIP3    H218433   0.157   5.157   2.921
 6143TIP3   OH218434   0.148   0.642   0.389
 6143TIP3    H118435   0.137   0.724   0.340
 6143TIP3    H218436   0.120   0.663   0.478
 6144TIP3   OH218437   5.185   1.625   4.123
 6144TIP3    H118438   5.174   1.593   4.034
 6144TIP3    H218439   5.097   1.625   4.160
 6145TIP3   OH218440   4.522   3.529   1.786
 6145TIP3    H118441   4.449   3.499   1.840
 6145TIP3    H218442   4.578   3.452   1.777
 6146TIP3   OH218443   6.345   1.444   0.269
 6146TIP3    H118444   6.327   1.503   0.343
 6146TIP3    H218445   6.268   1.387   0.265
 6147TIP3   OH218446   5.853   2.160   4.567
 6147TIP3    H118447   5.773   2.158   4.620
 6147TIP3    H218448   5.924   2.160   4.631
 6148TIP3   OH218449   4.951   1.661   0.147
 6148TIP3    H118450   4.856   1.675   0.145
 6148TIP3    H218451   4.962   1.568   0.130
 6149TIP3   OH218452   2.507   3.752   0.343
 6149TIP3    H118453   2.586   3.805   0.348
 6149TIP3    H218454   2.534   3.666   0.377
 6150TIP3   OH218455   0.919   4.650   2.661
 6150TIP3    H118456   0.912   4.561   2.698
 6150TIP3    H218457   0.952   4.637   2.573
 6151TIP3   OH218458   1.337   2.770   1.790
 6151TIP3    H118459   1.326   2.840   1.725
 6151TIP3    H218460   1.362   2.693   1.739
 6152TIP3   OH218461   1.723   0.214   4.898
 6152TIP3    H118462   1.632   0.239   4.917
 6152TIP3    H218463   1.717   0.160   4.819
 6153TIP3   OH218464   4.557   4.759   1.389
 6153TIP3    H118465   4.577   4.700   1.317
 6153TIP3    H218466   4.615   4.834   1.376
 6154TIP3   OH218467   1.660   2.471   2.184
 6154TIP3    H118468   1.625   2.399   2.236
 6154TIP3    H218469   1.717   2.518   2.244
 6155TIP3   OH218470   4.147   4.301   1.092
 6155TIP3    H118471   4.161   4.241   1.019
 6155TIP3    H218472   4.055   4.290   1.115
 6156TIP3   OH218473   6.323   3.582   4.415
 6156TIP3    H118474   6.317   3.672   4.382
 6156TIP3    H218475   6.257   3.534   4.364
 6157TIP3   OH218476   6.191   2.759   4.772
 6157TIP3    H118477   6.213   2.701   4.699
 6157TIP3    H218478   6.180   2.700   4.846
 6158TIP3   OH218479   2.291   0.727   1.997
 6158TIP3    H118480   2.317   0.654   1.940
 6158TIP3    H218481   2.220   0.692   2.051
 6159TIP3   OH218482   5.258   1.325   4.392
 6159TIP3    H118483   5.209   1.394   4.347
 6159TIP3    H218484   5.194   1.256   4.407
 6160TIP3   OH218485   1.543   5.675   1.875
 6160TIP3    H118486   1.631   5.700   1.850
 6160TIP3    H218487   1.493   5.677   1.793
 6161TIP3   OH218488   4.468   0.129   4.703
 6161TIP3    H118489   4.466   0.071   4.627
 6161TIP3    H218490   4.561   0.138   4.724
 6162TIP3   OH218491   1.614   4.426   4.110
 6162TIP3    H118492   1.604   4.356   4.175
 6162TIP3    H218493   1.574   4.502   4.151
 6163TIP3   OH218494   0.224   2.329   0.000
 6163TIP3    H118495   0.277   2.353   0.076
 6163TIP3    H218496   0.146   2.384   0.006
 6164TIP3   OH218497   4.121   0.643   3.114
 6164TIP3    H118498   4.103   0.611   3.202
 6164TIP3    H218499   4.216   0.649   3.109
 6165TIP3   OH218500   2.441   1.275   4.874
 6165TIP3    H118501   2.481   1.320   4.799
 6165TIP3    H218502   2.512   1.223   4.911
 6166TIP3   OH218503   2.916   4.646   0.621
 6166TIP3    H118504   2.958   4.727   0.650
 6166TIP3    H218505   2.827   4.671   0.599
 6167TIP3   OH218506   3.631   0.034   1.187
 6167TIP3    H118507   3.573  -0.038   1.161
 6167TIP3    H218508   3.606   0.107   1.131
 6168TIP3   OH218509   1.209   0.973   4.736
 6168TIP3    H118510   1.276   1.012   4.792
 6168TIP3    H218511   1.129   1.023   4.756
 6169TIP3   OH218512   1.367   0.257   0.364
 6169TIP3    H118513   1.364   0.169   0.402
 6169TIP3    H218514   1.410   0.245   0.279
 6170TIP3   OH218515   2.185   3.457   4.521
 6170TIP3    H118516   2.194   3.364   4.504
 6170TIP3    H218517   2.235   3.472   4.601
 6171TIP3   OH218518   2.461   0.630   4.499
 6171TIP3    H118519   2.381   0.606   4.545
 6171TIP3    H218520   2.445   0.603   4.408
 6172TIP3   OH218521   5.156   0.165   4.404
 6172TIP3    H118522   5.232   0.221   4.388
 6172TIP3    H218523   5.178   0.082   4.361
 6173TIP3   OH218524   6.064   0.752   1.511
 6173TIP3    H118525   6.059   0.657   1.500
 6173TIP3    H218526   6.042   0.767   1.603
 6174TIP3   OH218527   3.133   2.847   0.660
 6174TIP3    H118528   3.223   2.838   0.627
 6174TIP3    H218529   3.132   2.933   0.702
 6175TIP3   OH218530   4.643   2.383   2.280
 6175TIP3    H118531   4.672   2.465   2.320
 6175TIP3    H218532   4.578   2.348   2.341
 6176TIP3   OH218533   0.983   4.330   4.662
 6176TIP3    H118534   0.909   4.272   4.679
 6176TIP3    H218535   0.959   4.378   4.583
 6177TIP3   OH218536   4.212   0.397   1.046
 6177TIP3    H118537   4.259   0.466   1.092
 6177TIP3    H218538   4.137   0.441   1.006
 6178TIP3   OH218539   5.116   0.739   2.126
 6178TIP3    H118540   5.209   0.759   2.113
 6178TIP3    H218541   5.089   0.695   2.046
 6179TIP3   OH218542   3.424   3.593   2.379
 6179TIP3    H118543   3.508   3.573   2.339
 6179TIP3    H218544   3.435   3.682   2.415
 6180TIP3   OH218545   0.874   2.170   2.930
 6180TIP3    H118546   0.967   2.188   2.919
 6180TIP3    H218547   0.836   2.186   2.843
 6181TIP3   OH218548   5.717   2.942   1.254
 6181TIP3    H118549   5.731   2.858   1.297
 6181TIP3    H218550   5.642   2.980   1.300
 6182TIP3   OH218551   1.145   0.399   0.266
 6182TIP3    H118552   1.126   0.488   0.239
 6182TIP3    H218553   1.229   0.404   0.312
 6183TIP3   OH218554   3.235   3.041   1.960
 6183TIP3    H118555   3.296   3.033   2.033
 6183TIP3    H218556   3.190   2.957   1.958
 6184TIP3   OH218557   5.701   2.146   5.070
 6184TIP3    H118558   5.655   2.191   5.000
 6184TIP3    H218559   5.774   2.204   5.092
 6185TIP3   OH218560   3.594   1.926   0.732
 6185TIP3    H118561   3.570   2.018   0.730
 6185TIP3    H218562   3.511   1.879   0.730
 6186TIP3   OH218563   2.249   0.727   0.014
 6186TIP3    H118564   2.320   0.716   0.077
 6186TIP3    H218565   2.187   0.658   0.035
 6187TIP3   OH218566   2.955   2.799   2.043
 6187TIP3    H118567   3.044   2.797   2.078
 6187TIP3    H218568   2.898   2.781   2.118
 6188TIP3   OH218569   5.122   2.363   3.005
 6188TIP3    H118570   5.114   2.456   2.987
 6188TIP3    H218571   5.209   2.353   3.044
 6189TIP3   OH218572   1.491   2.696   2.044
 6189TIP3    H118573   1.549   2.722   2.115
 6189TIP3    H218574   1.531   2.617   2.007
 6190TIP3   OH218575   2.939   5.645   1.688
 6190TIP3    H118576   2.866   5.599   1.730
 6190TIP3    H218577   2.901   5.726   1.654
 6191TIP3   OH218578   3.292   2.260   0.487
 6191TIP3    H118579   3.331   2.333   0.438
 6191TIP3    H218580   3.300   2.185   0.428
 6192TIP3   OH218581   4.832   1.518   0.855
 6192TIP3    H118582   4.907   1.507   0.913
 6192TIP3    H218583   4.765   1.558   0.911
 6193TIP3   OH218584   2.881   3.944   3.668
 6193TIP3    H118585   2.905   3.978   3.581
 6193TIP3    H218586   2.800   3.896   3.654
 6194TIP3   OH218587   6.238   4.807   2.299
 6194TIP3    H118588   6.179   4.850   2.237
 6194TIP3    H218589   6.324   4.811   2.257
 6195TIP3   OH218590   1.466   3.299   0.646
 6195TIP3    H118591   1.535   3.362   0.666
 6195TIP3    H218592   1.460   3.245   0.724
 6196TIP3   OH218593   1.222   3.613   1.134
 6196TIP3    H118594   1.282   3.541   1.113
 6196TIP3    H218595   1.135   3.579   1.114
 6197TIP3   OH218596   3.863   5.366   4.726
 6197TIP3    H118597   3.819   5.416   4.657
 6197TIP3    H218598   3.827   5.278   4.718
 6198TIP3   OH218599   2.760   4.858   2.625
 6198TIP3    H118600   2.817   4.917   2.576
 6198TIP3    H218601   2.800   4.772   2.614
 6199TIP3   OH218602   1.499   0.507   1.625
 6199TIP3    H118603   1.581   0.463   1.601
 6199TIP3    H218604   1.436   0.477   1.561
 6200TIP3   OH218605   5.843   4.426   1.241
 6200TIP3    H118606   5.834   4.521   1.253
 6200TIP3    H218607   5.936   4.408   1.255
 6201TIP3   OH218608   1.198   5.423   2.854
 6201TIP3    H118609   1.210   5.499   2.911
 6201TIP3    H218610   1.166   5.459   2.772
 6202TIP3   OH218611   3.612   0.657   2.514
 6202TIP3    H118612   3.644   0.643   2.603
 6202TIP3    H218613   3.534   0.601   2.507
 6203TIP3   OH218614   5.435   2.413   3.999
 6203TIP3    H118615   5.522   2.431   4.034
 6203TIP3    H218616   5.449   2.343   3.935
 6204TIP3   OH218617   5.275   0.138   1.804
 6204TIP3    H118618   5.261   0.092   1.887
 6204TIP3    H218619   5.370   0.145   1.796
 6205TIP3   OH218620   0.109   5.325   3.541
 6205TIP3    H118621   0.198   5.310   3.573
 6205TIP3    H218622   0.101   5.270   3.463
 6206TIP3   OH218623   4.098   4.842   2.202
 6206TIP3    H118624   4.131   4.899   2.132
 6206TIP3    H218625   4.037   4.783   2.158
 6207TIP3   OH218626   2.184   4.987   1.827
 6207TIP3    H118627   2.177   5.040   1.748
 6207TIP3    H218628   2.117   4.919   1.817
 6208TIP3   OH218629   3.209   0.102   2.355
 6208TIP3    H118630   3.242   0.139   2.272
 6208TIP3    H218631   3.171   0.018   2.330
 6209TIP3   OH218632   3.417   5.035   2.509
 6209TIP3    H118633   3.465   5.021   2.427
 6209TIP3    H218634   3.479   5.079   2.566
 6210TIP3   OH218635   5.370   0.177   2.212
 6210TIP3    H118636   5.448   0.177   2.266
 6210TIP3    H218637   5.371   0.091   2.169
 6211TIP3   OH218638   4.756   2.016   0.045
 6211TIP3    H118639   4.828   2.058  -0.002
 6211TIP3    H218640   4.693   1.992  -0.023
 6212TIP3   OH218641   3.233   5.485   1.133
 6212TIP3    H118642   3.241   5.421   1.062
 6212TIP3    H218643   3.298   5.459   1.198
 6213TIP3   OH218644   0.537   3.214   4.869
 6213TIP3    H118645   0.564   3.122   4.866
 6213TIP3    H218646   0.612   3.259   4.909
 6214TIP3   OH218647   4.289   0.723   4.578
 6214TIP3    H118648   4.206   0.752   4.539
 6214TIP3    H218649   4.325   0.802   4.619
 6215TIP3   OH218650   5.603   4.766   2.368
 6215TIP3    H118651   5.607   4.831   2.297
 6215TIP3    H218652   5.657   4.802   2.437
 6216TIP3   OH218653   2.144   0.155   3.198
 6216TIP3    H118654   2.202   0.173   3.124
 6216TIP3    H218655   2.117   0.242   3.228
 6217TIP3   OH218656   2.378   5.720   4.800
 6217TIP3    H118657   2.336   5.737   4.715
 6217TIP3    H218658   2.443   5.652   4.782
 6218TIP3   OH218659   3.296   3.992   4.619
 6218TIP3    H118660   3.241   3.929   4.572
 6218TIP3    H218661   3.240   4.024   4.690
 6219TIP3   OH218662   3.296   3.410   5.149
 6219TIP3    H118663   3.320   3.443   5.062
 6219TIP3    H218664   3.230   3.472   5.180
 6220TIP3   OH218665   5.521   5.946   2.503
 6220TIP3    H118666   5.516   6.025   2.449
 6220TIP3    H218667   5.610   5.913   2.490
 6221TIP3   OH218668   1.397   3.770   2.185
 6221TIP3    H118669   1.352   3.759   2.101
 6221TIP3    H218670   1.330   3.803   2.245
 6222TIP3   OH218671   4.378   3.685   1.053
 6222TIP3    H118672   4.361   3.633   1.132
 6222TIP3    H218673   4.385   3.775   1.086
 6223TIP3   OH218674   5.531   4.832   3.696
 6223TIP3    H118675   5.444   4.810   3.664
 6223TIP3    H218676   5.591   4.786   3.637
 6224TIP3   OH218677   1.582   3.477   4.646
 6224TIP3    H118678   1.639   3.549   4.618
 6224TIP3    H218679   1.538   3.449   4.565
 6225TIP3   OH218680   4.567   0.668   4.754
 6225TIP3    H118681   4.527   0.744   4.712
 6225TIP3    H218682   4.505   0.597   4.737
 6226TIP3   OH218683   2.608   2.929   2.774
 6226TIP3    H118684   2.636   2.889   2.692
 6226TIP3    H218685   2.679   2.910   2.835
 6227TIP3   OH218686   1.902   4.525   4.159
 6227TIP3    H118687   1.822   4.485   4.125
 6227TIP3    H218688   1.970   4.459   4.143
 6228TIP3   OH218689   1.031   2.209   2.087
 6228TIP3    H118690   1.029   2.156   2.166
 6228TIP3    H218691   0.958   2.270   2.096
 6229TIP3   OH218692   5.314   0.612   3.650
 6229TIP3    H118693   5.403   0.580   3.642
 6229TIP3    H218694   5.261   0.547   3.604
 6230TIP3   OH218695   5.413   3.673   2.576
 6230TIP3    H118696   5.325   3.641   2.595
 6230TIP3    H218697   5.425   3.747   2.635
 6231TIP3   OH218698   5.856   1.529   2.192
 6231TIP3    H118699   5.827   1.474   2.120
 6231TIP3    H218700   5.885   1.610   2.151
 6232TIP3   OH218701   0.613   3.681   4.740
 6232TIP3    H118702   0.689   3.652   4.689
 6232TIP3    H218703   0.553   3.717   4.675
 6233TIP3   OH218704   0.534   4.831   2.804
 6233TIP3    H118705   0.607   4.807   2.861
 6233TIP3    H218706   0.563   4.912   2.761
 6234TIP3   OH218707   3.358   4.060   3.270
 6234TIP3    H118708   3.426   4.085   3.332
 6234TIP3    H218709   3.343   3.967   3.286
 6235TIP3   OH218710   3.360   3.614   4.494
 6235TIP3    H118711   3.309   3.634   4.415
 6235TIP3    H218712   3.310   3.548   4.540
 6236TIP3   OH218713   4.705   2.289   1.363
 6236TIP3    H118714   4.670   2.248   1.284
 6236TIP3    H218715   4.631   2.337   1.400
 6237TIP3   OH218716   1.610   2.583   4.590
 6237TIP3    H118717   1.668   2.538   4.529
 6237TIP3    H218718   1.569   2.513   4.641
 6238TIP3   OH218719   2.856   1.359   5.151
 6238TIP3    H118720   2.917   1.379   5.080
 6238TIP3    H218721   2.891   1.406   5.226
 6239TIP3   OH218722   1.455   1.869   0.194
 6239TIP3    H118723   1.477   1.884   0.286
 6239TIP3    H218724   1.362   1.845   0.196
 6240TIP3   OH218725   4.016   3.973   1.547
 6240TIP3    H118726   4.033   4.055   1.502
 6240TIP3    H218727   3.922   3.957   1.536
 6241TIP3   OH218728   1.094   0.265   5.149
 6241TIP3    H118729   1.174   0.287   5.197
 6241TIP3    H218730   1.081   0.339   5.090
 6242TIP3   OH218731   1.548   4.404   2.926
 6242TIP3    H118732   1.566   4.495   2.902
 6242TIP3    H218733   1.508   4.366   2.848
 6243TIP3   OH218734   4.495   3.564   2.210
 6243TIP3    H118735   4.414   3.609   2.232
 6243TIP3    H218736   4.564   3.625   2.232
 6244TIP3   OH218737   4.288   2.285   2.842
 6244TIP3    H118738   4.330   2.317   2.922
 6244TIP3    H218739   4.267   2.193   2.861
 6245TIP3   OH218740   3.610   4.585   2.525
 6245TIP3    H118741   3.672   4.512   2.515
 6245TIP3    H218742   3.560   4.585   2.443
 6246TIP3   OH218743   4.090   0.688   1.116
 6246TIP3    H118744   4.057   0.673   1.204
 6246TIP3    H218745   4.185   0.689   1.125
 6247TIP3   OH218746   1.671   1.724   0.073
 6247TIP3    H118747   1.729   1.693   0.143
 6247TIP3    H218748   1.598   1.767   0.119
 6248TIP3   OH218749   3.365   2.648   1.135
 6248TIP3    H118750   3.391   2.557   1.122
 6248TIP3    H218751   3.447   2.693   1.157
 6249TIP3   OH218752   5.632   3.916   3.992
 6249TIP3    H118753   5.592   4.002   4.001
 6249TIP3    H218754   5.594   3.864   4.063
 6250TIP3   OH218755   2.356   1.438   0.974
 6250TIP3    H118756   2.434   1.397   0.936
 6250TIP3    H218757   2.363   1.419   1.068
 6251TIP3   OH218758   2.330   5.617   4.209
 6251TIP3    H118759   2.345   5.563   4.287
 6251TIP3    H218760   2.386   5.694   4.223
 6252TIP3   OH218761   0.650   5.810   4.697
 6252TIP3    H118762   0.678   5.882   4.641
 6252TIP3    H218763   0.569   5.778   4.657
 6253TIP3   OH218764   0.378   5.183   4.627
 6253TIP3    H118765   0.439   5.191   4.553
 6253TIP3    H218766   0.419   5.119   4.685
 6254TIP3   OH218767   3.468   3.431   3.956
 6254TIP3    H118768   3.493   3.404   4.044
 6254TIP3    H218769   3.373   3.418   3.953
 6255TIP3   OH218770   4.301   5.595   2.549
 6255TIP3    H118771   4.343   5.651   2.614
 6255TIP3    H218772   4.209   5.592   2.575
 6256TIP3   OH218773   5.894   0.885   4.003
 6256TIP3    H118774   5.851   0.932   4.075
 6256TIP3    H218775   5.899   0.795   4.033
 6257TIP3   OH218776   4.760   1.349   2.354
 6257TIP3    H118777   4.844   1.394   2.363
 6257TIP3    H218778   4.739   1.355   2.261
 6258TIP3   OH218779   0.643   2.932   4.783
 6258TIP3    H118780   0.590   2.929   4.704
 6258TIP3    H218781   0.728   2.897   4.756
 6259TIP3   OH218782   3.737   1.603   4.972
 6259TIP3    H118783   3.812   1.656   4.998
 6259TIP3    H218784   3.762   1.567   4.887
 6260TIP3   OH218785   5.107   3.917   0.758
 6260TIP3    H118786   5.047   3.989   0.777
 6260TIP3    H218787   5.194   3.953   0.770
 6261TIP3   OH218788   4.009   0.400   1.700
 6261TIP3    H118789   4.071   0.368   1.635
 6261TIP3    H218790   4.063   0.447   1.763
 6262TIP3   OH218791   1.776   3.856   0.246
 6262TIP3    H118792   1.778   3.845   0.341
 6262TIP3    H218793   1.685   3.878   0.227
 6263TIP3   OH218794   3.055   2.412   0.557
 6263TIP3    H118795   3.143   2.419   0.520
 6263TIP3    H218796   3.015   2.497   0.540
 6264TIP3   OH218797   3.146   1.824   3.557
 6264TIP3    H118798   3.224   1.879   3.555
 6264TIP3    H218799   3.078   1.881   3.592
 6265TIP3   OH218800   1.344   3.717   3.415
 6265TIP3    H118801   1.414   3.653   3.428
 6265TIP3    H218802   1.369   3.791   3.470
 6266TIP3   OH218803   2.541   0.300   5.176
 6266TIP3    H118804   2.491   0.369   5.221
 6266TIP3    H218805   2.632   0.329   5.182
 6267TIP3   OH218806   3.389   3.399   3.174
 6267TIP3    H118807   3.316   3.341   3.152
 6267TIP3    H218808   3.351   3.487   3.174
 6268TIP3   OH218809   2.842   0.333   2.847
 6268TIP3    H118810   2.761   0.371   2.881
 6268TIP3    H218811   2.905   0.405   2.849
 6269TIP3   OH218812   6.193   4.921   0.014
 6269TIP3    H118813   6.165   5.000  -0.033
 6269TIP3    H218814   6.282   4.940   0.042
 6270TIP3   OH218815   2.114   3.752   2.632
 6270TIP3    H118816   2.083   3.839   2.653
 6270TIP3    H218817   2.199   3.766   2.590
 6271TIP3   OH218818   4.676   0.970   0.607
 6271TIP3    H118819   4.585   0.944   0.626
 6271TIP3    H218820   4.668   1.051   0.557
 6272TIP3   OH218821   3.082   4.358   3.477
 6272TIP3    H118822   3.158   4.415   3.465
 6272TIP3    H218823   3.007   4.418   3.477
 6273TIP3   OH218824   4.882   2.453   2.109
 6273TIP3    H118825   4.962   2.450   2.056
 6273TIP3    H218826   4.905   2.509   2.183
 6274TIP3   OH218827   2.497   2.204   0.935
 6274TIP3    H118828   2.511   2.298   0.927
 6274TIP3    H218829   2.572   2.172   0.985
 6275TIP3   OH218830   0.067   3.368   1.062
 6275TIP3    H118831   0.028   3.282   1.045
 6275TIP3    H218832   0.098   3.362   1.152
 6276TIP3   OH218833   1.535   4.462   3.555
 6276TIP3    H118834   1.491   4.393   3.505
 6276TIP3    H218835   1.628   4.449   3.537
 6277TIP3   OH218836   1.109   4.730   4.287
 6277TIP3    H118837   1.186   4.751   4.340
 6277TIP3    H218838   1.096   4.807   4.232
 6278TIP3   OH218839   3.531   1.769   3.981
 6278TIP3    H118840   3.444   1.788   4.015
 6278TIP3    H218841   3.591   1.812   4.043
 6279TIP3   OH218842   1.590   1.460   1.667
 6279TIP3    H118843   1.519   1.523   1.657
 6279TIP3    H218844   1.547   1.380   1.699
 6280TIP3   OH218845   3.600   3.630   4.347
 6280TIP3    H118846   3.515   3.615   4.390
 6280TIP3    H218847   3.614   3.724   4.353
 6281TIP3   OH218848   3.190   4.962   4.381
 6281TIP3    H118849   3.183   4.989   4.290
 6281TIP3    H218850   3.271   5.002   4.412
 6282TIP3   OH218851   4.519   0.213   1.303
 6282TIP3    H118852   4.565   0.211   1.219
 6282TIP3    H218853   4.575   0.162   1.362
 6283TIP3   OH218854   4.094   1.559   1.578
 6283TIP3    H118855   4.127   1.648   1.565
 6283TIP3    H218856   4.157   1.503   1.534
 6284TIP3   OH218857   4.060   1.870   0.311
 6284TIP3    H118858   4.035   1.821   0.389
 6284TIP3    H218859   4.013   1.825   0.240
 6285TIP3   OH218860   5.344   0.566   2.596
 6285TIP3    H118861   5.290   0.502   2.550
 6285TIP3    H218862   5.432   0.530   2.594
 6286TIP3   OH218863   4.324   3.334   3.254
 6286TIP3    H118864   4.336   3.360   3.162
 6286TIP3    H218865   4.283   3.248   3.248
 6287TIP3   OH218866   6.014   4.176   3.313
 6287TIP3    H118867   6.100   4.133   3.311
 6287TIP3    H218868   6.034   4.268   3.331
 6288TIP3   OH218869   0.906   2.144   0.831
 6288TIP3    H118870   0.999   2.146   0.852
 6288TIP3    H218871   0.886   2.234   0.805
 6289TIP3   OH218872   0.118   4.612   3.351
 6289TIP3    H118873   0.128   4.549   3.423
 6289TIP3    H218874   0.179   4.682   3.373
 6290TIP3   OH218875   2.231   0.666   1.558
 6290TIP3    H118876   2.218   0.584   1.511
 6290TIP3    H218877   2.257   0.639   1.646
 6291TIP3   OH218878   0.523   4.020   3.295
 6291TIP3    H118879   0.552   4.007   3.385
 6291TIP3    H218880   0.472   4.101   3.297
 6292TIP3   OH218881   3.395   1.945   2.032
 6292TIP3    H118882   3.382   1.854   2.059
 6292TIP3    H218883   3.485   1.965   2.057
 6293TIP3   OH218884   2.839   2.762   4.970
 6293TIP3    H118885   2.776   2.730   5.034
 6293TIP3    H218886   2.799   2.841   4.934
 6294TIP3   OH218887   4.979   0.171   0.944
 6294TIP3    H118888   5.014   0.104   1.004
 6294TIP3    H218889   5.054   0.195   0.889
 6295TIP3   OH218890   3.530   2.330   2.874
 6295TIP3    H118891   3.534   2.394   2.945
 6295TIP3    H218892   3.446   2.348   2.831
 6296TIP3   OH218893   4.158   0.601   0.618
 6296TIP3    H118894   4.113   0.681   0.590
 6296TIP3    H218895   4.118   0.579   0.702
 6297TIP3   OH218896   4.779   0.862   5.001
 6297TIP3    H118897   4.798   0.833   5.090
 6297TIP3    H218898   4.809   0.789   4.945
 6298TIP3   OH218899   1.380   3.022   3.765
 6298TIP3    H118900   1.421   3.030   3.679
 6298TIP3    H218901   1.320   3.097   3.770
 6299TIP3   OH218902   0.246   1.988   2.674
 6299TIP3    H118903   0.320   2.048   2.670
 6299TIP3    H218904   0.170   2.042   2.651
 6300TIP3   OH218905   0.961   0.840   4.979
 6300TIP3    H118906   0.896   0.786   5.024
 6300TIP3    H218907   1.043   0.822   5.023
 6301TIP3   OH218908   2.661   5.479   4.453
 6301TIP3    H118909   2.704   5.402   4.492
 6301TIP3    H218910   2.714   5.499   4.376
 6302TIP3   OH218911   2.005   2.125   4.714
 6302TIP3    H118912   1.974   2.069   4.644
 6302TIP3    H218913   2.070   2.183   4.673
 6303TIP3   OH218914   4.504   1.877   0.894
 6303TIP3    H118915   4.423   1.830   0.915
 6303TIP3    H218916   4.541   1.830   0.820
 6304TIP3   OH218917   1.355   5.892   3.016
 6304TIP3    H118918   1.450   5.885   3.015
 6304TIP3    H218919   1.337   5.981   2.987
 6305TIP3   OH218920   5.648   0.341   5.083
 6305TIP3    H118921   5.684   0.428   5.067
 6305TIP3    H218922   5.698   0.308   5.158
 6306TIP3   OH218923   4.168   5.236   0.841
 6306TIP3    H118924   4.165   5.325   0.876
 6306TIP3    H218925   4.077   5.217   0.815
 6307TIP3   OH218926   4.634   5.512   2.879
 6307TIP3    H118927   4.588   5.587   2.916
 6307TIP3    H218928   4.701   5.491   2.945
 6308TIP3   OH218929   5.617   4.476   2.295
 6308TIP3    H118930   5.640   4.568   2.285
 6308TIP3    H218931   5.685   4.440   2.351
 6309TIP3   OH218932   3.780   4.128   5.108
 6309TIP3    H118933   3.867   4.120   5.146
 6309TIP3    H218934   3.720   4.123   5.183
 6310TIP3   OH218935   4.808   5.429   4.743
 6310TIP3    H118936   4.713   5.432   4.733
 6310TIP3    H218937   4.824   5.352   4.798
 6311TIP3   OH218938   0.665   5.358   2.830
 6311TIP3    H118939   0.673   5.348   2.925
 6311TIP3    H218940   0.593   5.420   2.818
 6312TIP3   OH218941   3.834   0.098   1.335
 6312TIP3    H118942   3.769   0.090   1.265
 6312TIP3    H218943   3.904   0.152   1.297
 6313TIP3   OH218944   2.780   0.561   1.438
 6313TIP3    H118945   2.688   0.576   1.462
 6313TIP3    H218946   2.797   0.624   1.368
 6314TIP3   OH218947   6.303   5.826   3.849
 6314TIP3    H118948   6.366   5.767   3.807
 6314TIP3    H218949   6.237   5.768   3.887
 6315TIP3   OH218950   5.274   3.254   1.851
 6315TIP3    H118951   5.355   3.203   1.851
 6315TIP3    H218952   5.304   3.345   1.862
 6316TIP3   OH218953   3.197   1.917   3.868
 6316TIP3    H118954   3.254   1.946   3.796
 6316TIP3    H218955   3.245   1.941   3.947
 6317TIP3   OH218956   0.351   2.916   3.297
 6317TIP3    H118957   0.373   2.846   3.358
 6317TIP3    H218958   0.257   2.929   3.308
 6318TIP3   OH218959   2.829   2.869   4.091
 6318TIP3    H118960   2.900   2.832   4.142
 6318TIP3    H218961   2.872   2.914   4.019
 6319TIP3   OH218962   1.140   4.378   2.539
 6319TIP3    H118963   1.084   4.440   2.492
 6319TIP3    H218964   1.149   4.415   2.627
 6320TIP3   OH218965   1.720   5.556   0.492
 6320TIP3    H118966   1.661   5.486   0.463
 6320TIP3    H218967   1.664   5.617   0.540
 6321TIP3   OH218968   0.528   0.941   4.220
 6321TIP3    H118969   0.476   0.964   4.297
 6321TIP3    H218970   0.467   0.894   4.163
 6322TIP3   OH218971   3.192   4.762   1.042
 6322TIP3    H118972   3.256   4.766   1.113
 6322TIP3    H218973   3.233   4.811   0.971
 6323TIP3   OH218974   1.548   0.223   2.375
 6323TIP3    H118975   1.624   0.253   2.323
 6323TIP3    H218976   1.472   0.259   2.329
 6324TIP3   OH218977   0.077   3.474   3.185
 6324TIP3    H118978   0.100   3.463   3.092
 6324TIP3    H218979   0.150   3.522   3.222
 6325TIP3   OH218980   4.112   5.801   5.092
 6325TIP3    H118981   4.056   5.727   5.071
 6325TIP3    H218982   4.055   5.877   5.083
 6326TIP3   OH218983   4.170   2.751   5.055
 6326TIP3    H118984   4.154   2.779   5.145
 6326TIP3    H218985   4.227   2.675   5.063
 6327TIP3   OH218986   3.701   2.646   3.555
 6327TIP3    H118987   3.648   2.712   3.599
 6327TIP3    H218988   3.735   2.690   3.477
 6328TIP3   OH218989   4.342   5.085  -0.022
 6328TIP3    H118990   4.294   5.016   0.023
 6328TIP3    H218991   4.302   5.166   0.008
 6329TIP3   OH218992   3.365   1.175   3.194
 6329TIP3    H118993   3.421   1.252   3.189
 6329TIP3    H218994   3.392   1.131   3.274
 6330TIP3   OH218995   2.573   3.885   2.134
 6330TIP3    H118996   2.502   3.945   2.158
 6330TIP3    H218997   2.571   3.816   2.199
 6331TIP3   OH218998   1.442   1.317   3.276
 6331TIP3    H118999   1.429   1.297   3.369
 6331TIP3    H219000   1.524   1.366   3.274
 6332TIP3   OH219001   1.437   2.772   0.314
 6332TIP3    H119002   1.378   2.839   0.350
 6332TIP3    H219003   1.481   2.736   0.390
 6333TIP3   OH219004   5.004   0.370   0.677
 6333TIP3    H119005   5.043   0.444   0.631
 6333TIP3    H219006   4.939   0.409   0.736
 6334TIP3   OH219007   3.280   3.893   1.779
 6334TIP3    H119008   3.196   3.889   1.823
 6334TIP3    H219009   3.273   3.968   1.720
 6335TIP3   OH219010   1.143   3.321   5.195
 6335TIP3    H119011   1.217   3.349   5.250
 6335TIP3    H219012   1.066   3.362   5.235
 6336TIP3   OH219013   5.482   5.327   0.572
 6336TIP3    H119014   5.392   5.359   0.574
 6336TIP3    H219015   5.500   5.303   0.663
 6337TIP3   OH219016   2.675   1.256   4.444
 6337TIP3    H119017   2.643   1.331   4.493
 6337TIP3    H219018   2.769   1.272   4.432
 6338TIP3   OH219019   1.726   0.100   3.609
 6338TIP3    H119020   1.820   0.093   3.622
 6338TIP3    H219021   1.697   0.010   3.594
 6339TIP3   OH219022   1.747   2.194   0.290
 6339TIP3    H119023   1.746   2.194   0.194
 6339TIP3    H219024   1.766   2.284   0.313
 6340TIP3   OH219025   5.260   4.709   0.330
 6340TIP3    H119026   5.199   4.767   0.284
 6340TIP3    H219027   5.300   4.657   0.260
 6341TIP3   OH219028   6.058   3.639   3.547
 6341TIP3    H119029   6.060   3.694   3.469
 6341TIP3    H219030   5.967   3.638   3.575
 6342TIP3   OH219031   0.734   0.001   0.755
 6342TIP3    H119032   0.775   0.025   0.672
 6342TIP3    H219033   0.640  -0.005   0.734
 6343TIP3   OH219034   5.643   5.510   2.026
 6343TIP3    H119035   5.555   5.505   1.989
 6343TIP3    H219036   5.671   5.419   2.036
 6344TIP3   OH219037   5.462   4.325   2.119
 6344TIP3    H119038   5.523   4.380   2.168
 6344TIP3    H219039   5.376   4.366   2.134
 6345TIP3   OH219040   4.519   4.133   0.589
 6345TIP3    H119041   4.586   4.103   0.652
 6345TIP3    H219042   4.437   4.127   0.637
 6346TIP3   OH219043   0.110   1.301   2.862
 6346TIP3    H119044   0.108   1.234   2.794
 6346TIP3    H219045   0.034   1.283   2.917
 6347TIP3   OH219046   5.182   1.497   1.382
 6347TIP3    H119047   5.096   1.524   1.350
 6347TIP3    H219048   5.214   1.437   1.316
 6348TIP3   OH219049   1.605   0.387   1.399
 6348TIP3    H119050   1.676   0.346   1.348
 6348TIP3    H219051   1.543   0.419   1.333
 6349TIP3   OH219052   5.625   4.895   4.522
 6349TIP3    H119053   5.576   4.858   4.596
 6349TIP3    H219054   5.716   4.869   4.538
 6350TIP3   OH219055   0.008   3.759   1.627
 6350TIP3    H119056  -0.054   3.691   1.654
 6350TIP3    H219057   0.038   3.730   1.541
 6351TIP3   OH219058   3.820   2.346   2.905
 6351TIP3    H119059   3.863   2.431   2.895
 6351TIP3    H219060   3.726   2.366   2.902
 6352TIP3   OH219061   1.240   1.107   2.264
 6352TIP3    H119062   1.261   1.181   2.320
 6352TIP3    H219063   1.302   1.114   2.191
 6353TIP3   OH219064   4.673   4.145   2.925
 6353TIP3    H119065   4.697   4.122   2.835
 6353TIP3    H219066   4.693   4.238   2.932
 6354TIP3   OH219067   2.016   0.782   2.948
 6354TIP3    H119068   2.089   0.843   2.957
 6354TIP3    H219069   2.043   0.705   2.999
 6355TIP3   OH219070   0.651   1.302   1.017
 6355TIP3    H119071   0.712   1.252   1.073
 6355TIP3    H219072   0.609   1.235   0.963
 6356TIP3   OH219073   2.740   3.469   1.217
 6356TIP3    H119074   2.777   3.552   1.186
 6356TIP3    H219075   2.658   3.493   1.259
 6357TIP3   OH219076   5.621   1.412   1.730
 6357TIP3    H119077   5.661   1.363   1.658
 6357TIP3    H219078   5.671   1.494   1.734
 6358TIP3   OH219079   5.330   4.254   4.461
 6358TIP3    H119080   5.259   4.204   4.502
 6358TIP3    H219081   5.380   4.290   4.534
 6359TIP3   OH219082   6.303   5.936   0.967
 6359TIP3    H119083   6.219   5.953   1.008
 6359TIP3    H219084   6.363   5.922   1.040
 6360TIP3   OH219085   0.861   5.244   2.448
 6360TIP3    H119086   0.896   5.297   2.376
 6360TIP3    H219087   0.776   5.284   2.468
 6361TIP3   OH219088   6.038   3.057   1.639
 6361TIP3    H119089   6.062   3.095   1.555
 6361TIP3    H219090   5.954   3.097   1.661
 6362TIP3   OH219091   2.335   4.432   3.980
 6362TIP3    H119092   2.357   4.441   4.073
 6362TIP3    H219093   2.383   4.355   3.951
 6363TIP3   OH219094   2.493   0.667   0.165
 6363TIP3    H119095   2.443   0.683   0.245
 6363TIP3    H219096   2.580   0.705   0.184
 6364TIP3   OH219097   3.157   4.225   3.206
 6364TIP3    H119098   3.088   4.238   3.271
 6364TIP3    H219099   3.225   4.176   3.253
 6365TIP3   OH219100   4.184   5.098   4.815
 6365TIP3    H119101   4.171   5.007   4.788
 6365TIP3    H219102   4.251   5.132   4.757
 6366TIP3   OH219103   1.105   1.234   1.993
 6366TIP3    H119104   1.144   1.169   2.051
 6366TIP3    H219105   1.155   1.227   1.911
 6367TIP3   OH219106   0.350   4.343   4.965
 6367TIP3    H119107   0.336   4.263   5.015
 6367TIP3    H219108   0.444   4.356   4.966
 6368TIP3   OH219109   4.290   4.154   5.000
 6368TIP3    H119110   4.324   4.105   5.075
 6368TIP3    H219111   4.338   4.237   5.001
 6369TIP3   OH219112   2.437   3.628   3.060
 6369TIP3    H119113   2.475   3.668   2.982
 6369TIP3    H219114   2.441   3.533   3.043
 6370TIP3   OH219115   1.478   4.813   4.713
 6370TIP3    H119116   1.383   4.825   4.707
 6370TIP3    H219117   1.512   4.854   4.634
 6371TIP3   OH219118   1.272   0.580   1.145
 6371TIP3    H119119   1.271   0.656   1.202
 6371TIP3    H219120   1.213   0.517   1.187
 6372TIP3   OH219121   0.441   3.492   2.738
 6372TIP3    H119122   0.403   3.447   2.813
 6372TIP3    H219123   0.384   3.567   2.723
 6373TIP3   OH219124   1.968   0.383   0.310
 6373TIP3    H119125   2.030   0.401   0.381
 6373TIP3    H219126   1.918   0.307   0.340
 6374TIP3   OH219127   2.466   3.128   3.382
 6374TIP3    H119128   2.415   3.062   3.429
 6374TIP3    H219129   2.479   3.198   3.445
 6375TIP3   OH219130   2.048   0.074   1.628
 6375TIP3    H119131   1.984   0.142   1.652
 6375TIP3    H219132   2.131   0.107   1.661
 6376TIP3   OH219133   3.378   3.472   3.464
 6376TIP3    H119134   3.431   3.406   3.419
 6376TIP3    H219135   3.424   3.555   3.448
 6377TIP3   OH219136   0.125   4.288   2.507
 6377TIP3    H119137   0.037   4.325   2.508
 6377TIP3    H219138   0.123   4.221   2.576
 6378TIP3   OH219139   5.938   5.990   4.081
 6378TIP3    H119140   5.865   5.930   4.097
 6378TIP3    H219141   6.010   5.955   4.134
 6379TIP3   OH219142   3.654   3.408   3.336
 6379TIP3    H119143   3.568   3.406   3.293
 6379TIP3    H219144   3.654   3.490   3.385
 6380TIP3   OH219145   0.542   4.287   1.702
 6380TIP3    H119146   0.522   4.197   1.674
 6380TIP3    H219147   0.483   4.341   1.649
 6381TIP3   OH219148   0.411   4.323   0.805
 6381TIP3    H119149   0.491   4.337   0.854
 6381TIP3    H219150   0.367   4.408   0.806
 6382TIP3   OH219151   6.195   4.011   3.138
 6382TIP3    H119152   6.149   4.095   3.136
 6382TIP3    H219153   6.281   4.030   3.099
 6383TIP3   OH219154   2.015   5.723   1.817
 6383TIP3    H119155   1.962   5.647   1.792
 6383TIP3    H219156   1.951   5.788   1.846
 6384TIP3   OH219157   2.344   0.191   2.336
 6384TIP3    H119158   2.256   0.190   2.299
 6384TIP3    H219159   2.382   0.107   2.310
 6385TIP3   OH219160   0.776   0.768   4.225
 6385TIP3    H119161   0.850   0.806   4.178
 6385TIP3    H219162   0.709   0.836   4.222
 6386TIP3   OH219163   1.168   3.687   2.618
 6386TIP3    H119164   1.139   3.748   2.686
 6386TIP3    H219165   1.091   3.672   2.565
 6387TIP3   OH219166   4.418   3.210   4.194
 6387TIP3    H119167   4.493   3.155   4.171
 6387TIP3    H219168   4.433   3.292   4.148
 6388TIP3   OH219169   0.695   5.227   1.093
 6388TIP3    H119170   0.600   5.239   1.091
 6388TIP3    H219171   0.708   5.132   1.087
 6389TIP3   OH219172   4.911   1.156   0.454
 6389TIP3    H119173   4.907   1.109   0.371
 6389TIP3    H219174   4.981   1.112   0.502
 6390TIP3   OH219175   2.416   0.383   0.340
 6390TIP3    H119176   2.400   0.476   0.325
 6390TIP3    H219177   2.504   0.379   0.376
 6391TIP3   OH219178   3.033   5.261   3.254
 6391TIP3    H119179   3.034   5.340   3.201
 6391TIP3    H219180   3.084   5.283   3.332
 6392TIP3   OH219181   3.817   1.463   1.244
 6392TIP3    H119182   3.792   1.534   1.185
 6392TIP3    H219183   3.907   1.483   1.269
 6393TIP3   OH219184   5.877   4.013   3.095
 6393TIP3    H119185   5.884   4.050   3.007
 6393TIP3    H219186   5.860   4.088   3.151
 6394TIP3   OH219187   2.555   4.973   3.581
 6394TIP3    H119188   2.532   4.967   3.674
 6394TIP3    H219189   2.518   4.893   3.543
 6395TIP3   OH219190   0.803   3.731   4.384
 6395TIP3    H119191   0.842   3.647   4.407
 6395TIP3    H219192   0.842   3.793   4.446
 6396TIP3   OH219193   4.973   3.210   2.088
 6396TIP3    H119194   4.882   3.235   2.073
 6396TIP3    H219195   5.018   3.292   2.107
 6397TIP3   OH219196   2.895   2.004   5.191
 6397TIP3    H119197   2.923   1.914   5.175
 6397TIP3    H219198   2.818   2.015   5.135
 6398TIP3   OH219199   2.428   3.646   4.439
 6398TIP3    H119200   2.474   3.723   4.473
 6398TIP3    H219201   2.356   3.631   4.501
 6399TIP3   OH219202   4.617   2.435   4.557
 6399TIP3    H119203   4.579   2.373   4.620
 6399TIP3    H219204   4.708   2.444   4.585
 6400TIP3   OH219205   2.789   5.049   1.442
 6400TIP3    H119206   2.819   4.959   1.439
 6400TIP3    H219207   2.853   5.098   1.390
 6401TIP3   OH219208   5.931   5.826   3.636
 6401TIP3    H119209   5.872   5.764   3.680
 6401TIP3    H219210   5.986   5.860   3.707
 6402TIP3   OH219211   4.411   3.613   3.776
 6402TIP3    H119212   4.452   3.689   3.736
 6402TIP3    H219213   4.331   3.598   3.725
 6403TIP3   OH219214   5.144   0.980   1.811
 6403TIP3    H119215   5.135   0.886   1.795
 6403TIP3    H219216   5.239   0.995   1.815
 6404TIP3   OH219217   3.408   4.484   0.844
 6404TIP3    H119218   3.346   4.431   0.894
 6404TIP3    H219219   3.463   4.420   0.798
 6405TIP3   OH219220   1.819   3.436   2.699
 6405TIP3    H119221   1.898   3.426   2.752
 6405TIP3    H219222   1.755   3.377   2.740
 6406TIP3   OH219223   6.185   4.514   3.208
 6406TIP3    H119224   6.272   4.478   3.188
 6406TIP3    H219225   6.180   4.509   3.304
 6407TIP3   OH219226   0.103   3.294   0.684
 6407TIP3    H119227   0.123   3.371   0.737
 6407TIP3    H219228   0.011   3.276   0.702
 6408TIP3   OH219229   4.241   5.446   5.086
 6408TIP3    H119230   4.187   5.461   5.008
 6408TIP3    H219231   4.202   5.369   5.128
 6409TIP3   OH219232   0.934   5.412   4.395
 6409TIP3    H119233   0.867   5.417   4.463
 6409TIP3    H219234   1.010   5.375   4.438
 6410TIP3   OH219235   4.113   0.157   1.482
 6410TIP3    H119236   4.098   0.063   1.473
 6410TIP3    H219237   4.060   0.196   1.412
 6411TIP3   OH219238   5.373   1.689   5.087
 6411TIP3    H119239   5.289   1.731   5.069
 6411TIP3    H219240   5.415   1.681   5.001
 6412TIP3   OH219241   1.306   2.678   0.841
 6412TIP3    H119242   1.395   2.708   0.856
 6412TIP3    H219243   1.264   2.749   0.792
 6413TIP3   OH219244   0.756   2.261   1.758
 6413TIP3    H119245   0.714   2.226   1.837
 6413TIP3    H219246   0.759   2.356   1.773
 6414TIP3   OH219247   3.395   4.194   4.449
 6414TIP3    H119248   3.447   4.255   4.501
 6414TIP3    H219249   3.383   4.118   4.506
 6415TIP3   OH219250   0.861   5.749   4.465
 6415TIP3    H119251   0.860   5.809   4.540
 6415TIP3    H219252   0.952   5.719   4.460
 6416TIP3   OH219253   3.434   4.550   2.252
 6416TIP3    H119254   3.515   4.568   2.202
 6416TIP3    H219255   3.387   4.487   2.198
 6417TIP3   OH219256   2.708   3.174   2.900
 6417TIP3    H119257   2.676   3.164   2.990
 6417TIP3    H219258   2.673   3.098   2.854
 6418TIP3   OH219259   3.914   3.381   4.200
 6418TIP3    H119260   4.008   3.375   4.182
 6418TIP3    H219261   3.901   3.470   4.231
 6419TIP3   OH219262   3.056   4.888   0.058
 6419TIP3    H119263   3.047   4.983   0.050
 6419TIP3    H219264   3.128   4.875   0.120
 6420TIP3   OH219265   4.041   4.620   0.274
 6420TIP3    H119266   4.048   4.712   0.249
 6420TIP3    H219267   4.055   4.571   0.193
 6421TIP3   OH219268   3.615   3.636   2.004
 6421TIP3    H119269   3.627   3.595   2.090
 6421TIP3    H219270   3.521   3.653   1.999
 6422TIP3   OH219271   5.776   5.519   3.331
 6422TIP3    H119272   5.729   5.539   3.250
 6422TIP3    H219273   5.747   5.431   3.355
 6423TIP3   OH219274   1.770   4.116   1.136
 6423TIP3    H119275   1.767   4.058   1.212
 6423TIP3    H219276   1.863   4.125   1.115
 6424TIP3   OH219277   1.317   3.059   0.019
 6424TIP3    H119278   1.254   3.077  -0.051
 6424TIP3    H219279   1.265   3.022   0.090
 6425TIP3   OH219280   5.912   4.271   3.562
 6425TIP3    H119281   5.852   4.227   3.623
 6425TIP3    H219282   5.936   4.203   3.499
 6426TIP3   OH219283   5.287   1.965   1.780
 6426TIP3    H119284   5.336   2.031   1.830
 6426TIP3    H219285   5.343   1.888   1.781
 6427TIP3   OH219286   4.449   0.289   2.205
 6427TIP3    H119287   4.509   0.349   2.249
 6427TIP3    H219288   4.378   0.275   2.267
 6428TIP3   OH219289   3.642   0.198   2.561
 6428TIP3    H119290   3.549   0.193   2.539
 6428TIP3    H219291   3.644   0.237   2.648
 6429TIP3   OH219292   4.295   2.459   0.880
 6429TIP3    H119293   4.362   2.527   0.876
 6429TIP3    H219294   4.224   2.492   0.825
 6430TIP3   OH219295   4.069   5.016   4.199
 6430TIP3    H119296   4.084   5.109   4.216
 6430TIP3    H219297   4.029   4.983   4.279
 6431TIP3   OH219298   0.158   2.431   4.651
 6431TIP3    H119299   0.199   2.385   4.724
 6431TIP3    H219300   0.222   2.496   4.625
 6432TIP3   OH219301   2.045   5.235   3.563
 6432TIP3    H119302   1.977   5.230   3.496
 6432TIP3    H219303   2.070   5.143   3.578
 6433TIP3   OH219304   3.579   2.896   1.375
 6433TIP3    H119305   3.524   2.835   1.424
 6433TIP3    H219306   3.653   2.843   1.346
 6434TIP3   OH219307   4.461   3.307   2.713
 6434TIP3    H119308   4.484   3.394   2.745
 6434TIP3    H219309   4.446   3.319   2.619
 6435TIP3   OH219310   3.697   3.410   0.450
 6435TIP3    H119311   3.677   3.390   0.541
 6435TIP3    H219312   3.639   3.354   0.399
 6436TIP3   OH219313   0.609   3.939   1.222
 6436TIP3    H119314   0.640   3.848   1.228
 6436TIP3    H219315   0.656   3.985   1.292
 6437TIP3   OH219316   0.187   5.545   1.220
 6437TIP3    H119317   0.262   5.557   1.279
 6437TIP3    H219318   0.227   5.535   1.133
 6438TIP3   OH219319   3.678   0.973   3.338
 6438TIP3    H119320   3.737   0.898   3.342
 6438TIP3    H219321   3.686   1.005   3.248
 6439TIP3   OH219322   5.917   5.332   2.270
 6439TIP3    H119323   5.986   5.266   2.277
 6439TIP3    H219324   5.940   5.383   2.192
 6440TIP3   OH219325   2.888   1.567   0.235
 6440TIP3    H119326   2.980   1.586   0.215
 6440TIP3    H219327   2.890   1.535   0.326
 6441TIP3   OH219328   2.476   3.612   2.780
 6441TIP3    H119329   2.504   3.699   2.752
 6441TIP3    H219330   2.521   3.551   2.721
 6442TIP3   OH219331   6.206   3.245   0.587
 6442TIP3    H119332   6.117   3.272   0.610
 6442TIP3    H219333   6.198   3.153   0.563
 6443TIP3   OH219334   2.778   3.807   4.324
 6443TIP3    H119335   2.761   3.846   4.237
 6443TIP3    H219336   2.837   3.869   4.366
 6444TIP3   OH219337   0.878   1.002   0.847
 6444TIP3    H119338   0.872   0.926   0.905
 6444TIP3    H219339   0.787   1.029   0.833
 6445TIP3   OH219340   1.655   4.360   1.018
 6445TIP3    H119341   1.631   4.347   1.110
 6445TIP3    H219342   1.724   4.296   1.002
 6446TIP3   OH219343   2.090   1.275   0.901
 6446TIP3    H119344   2.086   1.291   0.807
 6446TIP3    H219345   2.161   1.331   0.932
 6447TIP3   OH219346   5.533   3.819   1.940
 6447TIP3    H119347   5.574   3.778   2.016
 6447TIP3    H219348   5.466   3.876   1.977
 6448TIP3   OH219349   3.798   0.362   4.221
 6448TIP3    H119350   3.844   0.348   4.304
 6448TIP3    H219351   3.797   0.457   4.209
 6449TIP3   OH219352   2.810   3.152   3.476
 6449TIP3    H119353   2.794   3.070   3.429
 6449TIP3    H219354   2.879   3.132   3.538
 6450TIP3   OH219355   0.538   5.243   0.778
 6450TIP3    H119356   0.601   5.177   0.807
 6450TIP3    H219357   0.459   5.194   0.758
 6451TIP3   OH219358   1.718   0.710   1.323
 6451TIP3    H119359   1.637   0.709   1.374
 6451TIP3    H219360   1.690   0.687   1.234
 6452TIP3   OH219361   0.936   0.785   3.060
 6452TIP3    H119362   1.029   0.803   3.048
 6452TIP3    H219363   0.931   0.690   3.069
 6453TIP3   OH219364   2.007   5.796   0.460
 6453TIP3    H119365   2.060   5.756   0.392
 6453TIP3    H219366   2.009   5.733   0.532
 6454TIP3   OH219367   0.351   2.577   3.952
 6454TIP3    H119368   0.439   2.585   3.990
 6454TIP3    H219369   0.293   2.609   4.020
 6455TIP3   OH219370   2.680   4.420   4.910
 6455TIP3    H119371   2.764   4.464   4.895
 6455TIP3    H219372   2.617   4.490   4.923
 6456TIP3   OH219373   1.104   0.391   1.272
 6456TIP3    H119374   1.105   0.316   1.214
 6456TIP3    H219375   1.011   0.410   1.286
 6457TIP3   OH219376   2.008   1.688   1.452
 6457TIP3    H119377   1.978   1.777   1.470
 6457TIP3    H219378   1.957   1.633   1.511
 6458TIP3   OH219379   5.663   5.474   5.075
 6458TIP3    H119380   5.709   5.392   5.058
 6458TIP3    H219381   5.680   5.527   4.998
 6459TIP3   OH219382   1.971   0.344   2.614
 6459TIP3    H119383   1.980   0.252   2.591
 6459TIP3    H219384   1.882   0.367   2.587
 6460TIP3   OH219385   5.805   5.233   5.025
 6460TIP3    H119386   5.839   5.148   4.996
 6460TIP3    H219387   5.854   5.297   4.974
 6461TIP3   OH219388   5.461   0.361   0.753
 6461TIP3    H119389   5.516   0.313   0.815
 6461TIP3    H219390   5.422   0.431   0.805
 6462TIP3   OH219391   0.831   1.331   5.095
 6462TIP3    H119392   0.801   1.350   5.184
 6462TIP3    H219393   0.871   1.244   5.101
 6463TIP3   OH219394   2.894   0.676   4.387
 6463TIP3    H119395   2.989   0.665   4.384
 6463TIP3    H219396   2.864   0.611   4.450
 6464TIP3   OH219397   4.733   2.880   2.565
 6464TIP3    H119398   4.715   2.788   2.582
 6464TIP3    H219399   4.801   2.903   2.628
 6465TIP3   OH219400   6.372   1.953   4.389
 6465TIP3    H119401   6.339   1.972   4.301
 6465TIP3    H219402   6.313   2.001   4.448
 6466TIP3   OH219403   2.661   2.209   0.372
 6466TIP3    H119404   2.619   2.264   0.306
 6466TIP3    H219405   2.682   2.270   0.443
 6467TIP3   OH219406   1.372   4.103   2.082
 6467TIP3    H119407   1.428   4.027   2.068
 6467TIP3    H219408   1.298   4.089   2.023
 6468TIP3   OH219409   3.307   2.205   4.039
 6468TIP3    H119410   3.374   2.210   3.971
 6468TIP3    H219411   3.347   2.244   4.116
 6469TIP3   OH219412   6.146   2.402   0.988
 6469TIP3    H119413   6.097   2.378   0.909
 6469TIP3    H219414   6.195   2.480   0.963
 6470TIP3   OH219415   1.695   1.584   5.169
 6470TIP3    H119416   1.760   1.517   5.192
 6470TIP3    H219417   1.736   1.635   5.100
 6471TIP3   OH219418   1.572   2.562   2.891
 6471TIP3    H119419   1.580   2.505   2.815
 6471TIP3    H219420   1.478   2.565   2.908
 6472TIP3   OH219421   1.368   5.094   0.124
 6472TIP3    H119422   1.406   5.124   0.042
 6472TIP3    H219423   1.282   5.059   0.100
 6473TIP3   OH219424   0.435   1.993   0.524
 6473TIP3    H119425   0.431   1.939   0.445
 6473TIP3    H219426   0.456   1.931   0.594
 6474TIP3   OH219427   2.011   1.649   2.706
 6474TIP3    H119428   2.074   1.609   2.766
 6474TIP3    H219429   1.929   1.601   2.721
 6475TIP3   OH219430   1.127   0.016   4.872
 6475TIP3    H119431   1.098   0.106   4.855
 6475TIP3    H219432   1.210   0.026   4.917
 6476TIP3   OH219433   0.308   1.133   3.008
 6476TIP3    H119434   0.275   1.106   3.093
 6476TIP3    H219435   0.236   1.181   2.967
 6477TIP3   OH219436   1.256   1.754   1.039
 6477TIP3    H119437   1.313   1.805   0.982
 6477TIP3    H219438   1.189   1.815   1.068
 6478TIP3   OH219439   2.897   2.057   2.758
 6478TIP3    H119440   2.831   2.099   2.813
 6478TIP3    H219441   2.905   2.115   2.682
 6479TIP3   OH219442   2.423   3.620   1.725
 6479TIP3    H119443   2.500   3.601   1.671
 6479TIP3    H219444   2.457   3.675   1.796
 6480TIP3   OH219445   4.070   4.422   4.092
 6480TIP3    H119446   4.075   4.491   4.159
 6480TIP3    H219447   3.991   4.443   4.042
 6481TIP3   OH219448   0.394   3.918   2.598
 6481TIP3    H119449   0.349   4.003   2.594
 6481TIP3    H219450   0.440   3.919   2.682
 6482TIP3   OH219451   5.369   2.651   1.117
 6482TIP3    H119452   5.421   2.571   1.124
 6482TIP3    H219453   5.369   2.687   1.206
 6483TIP3   OH219454   4.578   0.365   2.876
 6483TIP3    H119455   4.642   0.315   2.927
 6483TIP3    H219456   4.624   0.446   2.853
 6484TIP3   OH219457   4.491   0.702   2.096
 6484TIP3    H119458   4.563   0.748   2.052
 6484TIP3    H219459   4.507   0.610   2.077
 6485TIP3   OH219460   4.086   1.363   3.286
 6485TIP3    H119461   4.125   1.434   3.234
 6485TIP3    H219462   4.124   1.283   3.250
 6486TIP3   OH219463   4.794   4.842   3.297
 6486TIP3    H119464   4.763   4.862   3.386
 6486TIP3    H219465   4.882   4.880   3.294
 6487TIP3   OH219466   5.028   0.632   1.884
 6487TIP3    H119467   5.054   0.607   1.795
 6487TIP3    H219468   4.956   0.574   1.905
 6488TIP3   OH219469   3.777   2.571   4.226
 6488TIP3    H119470   3.719   2.506   4.186
 6488TIP3    H219471   3.855   2.571   4.171
 6489TIP3   OH219472   1.257   5.301   2.556
 6489TIP3    H119473   1.182   5.354   2.583
 6489TIP3    H219474   1.309   5.360   2.502
 6490TIP3   OH219475   5.714   5.304   2.970
 6490TIP3    H119476   5.787   5.330   3.025
 6490TIP3    H219477   5.647   5.370   2.986
 6491TIP3   OH219478   2.726   4.718   5.040
 6491TIP3    H119479   2.647   4.700   4.990
 6491TIP3    H219480   2.797   4.684   4.986
 6492TIP3   OH219481   0.439   4.978   3.288
 6492TIP3    H119482   0.483   4.977   3.204
 6492TIP3    H219483   0.403   5.067   3.295
 6493TIP3   OH219484   5.770   0.799   0.070
 6493TIP3    H119485   5.745   0.721   0.021
 6493TIP3    H219486   5.796   0.767   0.156
 6494TIP3   OH219487   5.716   0.623   3.205
 6494TIP3    H119488   5.780   0.556   3.229
 6494TIP3    H219489   5.762   0.706   3.218
 6495TIP3   OH219490   1.127   2.405   1.786
 6495TIP3    H119491   1.083   2.456   1.854
 6495TIP3    H219492   1.175   2.337   1.833
 6496TIP3   OH219493   6.085   1.355   0.330
 6496TIP3    H119494   6.059   1.262   0.328
 6496TIP3    H219495   6.080   1.379   0.422
 6497TIP3   OH219496   3.720   3.251   3.944
 6497TIP3    H119497   3.672   3.236   4.026
 6497TIP3    H219498   3.786   3.182   3.941
 6498TIP3   OH219499   0.890   0.723   0.667
 6498TIP3    H119500   0.956   0.787   0.639
 6498TIP3    H219501   0.926   0.638   0.641
 6499TIP3   OH219502   4.681   5.670   0.913
 6499TIP3    H119503   4.670   5.765   0.917
 6499TIP3    H219504   4.741   5.650   0.985
 6500TIP3   OH219505   0.134   4.996   3.648
 6500TIP3    H119506   0.091   4.956   3.572
 6500TIP3    H219507   0.063   5.030   3.702
 6501TIP3   OH219508   1.664   3.925   1.634
 6501TIP3    H119509   1.585   3.889   1.594
 6501TIP3    H219510   1.736   3.895   1.579
 6502TIP3   OH219511   1.873   0.094   3.231
 6502TIP3    H119512   1.863   0.007   3.191
 6502TIP3    H219513   1.967   0.109   3.233
 6503TIP3   OH219514   5.731   1.806   2.428
 6503TIP3    H119515   5.705   1.724   2.471
 6503TIP3    H219516   5.745   1.783   2.337
 6504TIP3   OH219517   2.009   1.948   2.088
 6504TIP3    H119518   2.013   1.882   2.018
 6504TIP3    H219519   1.992   2.030   2.042
 6505TIP3   OH219520   4.121   0.842   2.642
 6505TIP3    H119521   4.031   0.815   2.623
 6505TIP3    H219522   4.149   0.784   2.713
 6506TIP3   OH219523   0.585   1.032   3.718
 6506TIP3    H119524   0.624   0.952   3.684
 6506TIP3    H219525   0.630   1.047   3.802
 6507TIP3   OH219526   0.704   0.100   3.510
 6507TIP3    H119527   0.774   0.139   3.458
 6507TIP3    H219528   0.747   0.075   3.593
 6508TIP3   OH219529   0.594   3.614   1.126
 6508TIP3    H119530   0.668   3.657   1.082
 6508TIP3    H219531   0.569   3.543   1.067
 6509TIP3   OH219532   5.999   3.857   1.940
 6509TIP3    H119533   6.017   3.910   1.862
 6509TIP3    H219534   5.918   3.811   1.919
 6510TIP3   OH219535   1.472   1.604   3.479
 6510TIP3    H119536   1.400   1.633   3.535
 6510TIP3    H219537   1.525   1.549   3.536
 6511TIP3   OH219538   4.253   3.580   2.792
 6511TIP3    H119539   4.186   3.561   2.726
 6511TIP3    H219540   4.218   3.545   2.874
 6512TIP3   OH219541   3.176   1.047   2.789
 6512TIP3    H119542   3.199   0.955   2.776
 6512TIP3    H219543   3.259   1.090   2.808
 6513TIP3   OH219544   3.580   4.963   2.299
 6513TIP3    H119545   3.665   4.974   2.342
 6513TIP3    H219546   3.601   4.954   2.206
 6514TIP3   OH219547   2.916   3.761   1.998
 6514TIP3    H119548   2.854   3.707   2.047
 6514TIP3    H219549   2.909   3.730   1.908
 6515TIP3   OH219550   4.714   2.275   4.836
 6515TIP3    H119551   4.624   2.293   4.811
 6515TIP3    H219552   4.745   2.210   4.772
 6516TIP3   OH219553   4.656   1.393   3.952
 6516TIP3    H119554   4.680   1.411   4.043
 6516TIP3    H219555   4.690   1.468   3.904
 6517TIP3   OH219556   3.410   5.898   2.966
 6517TIP3    H119557   3.403   5.993   2.955
 6517TIP3    H219558   3.366   5.880   3.049
 6518TIP3   OH219559   3.186   5.272   2.060
 6518TIP3    H119560   3.189   5.219   1.980
 6518TIP3    H219561   3.233   5.353   2.037
 6519TIP3   OH219562   2.497   4.901   3.831
 6519TIP3    H119563   2.556   4.914   3.905
 6519TIP3    H219564   2.473   4.809   3.835
 6520TIP3   OH219565   0.009   3.197   3.259
 6520TIP3    H119566  -0.083   3.191   3.285
 6520TIP3    H219567   0.020   3.288   3.230
 6521TIP3   OH219568   4.189   3.198   3.939
 6521TIP3    H119569   4.170   3.205   3.845
 6521TIP3    H219570   4.267   3.143   3.943
 6522TIP3   OH219571   0.591   4.255   3.609
 6522TIP3    H119572   0.669   4.308   3.590
 6522TIP3    H219573   0.528   4.279   3.541
 6523TIP3   OH219574   6.021   5.404   2.019
 6523TIP3    H119575   6.113   5.429   2.016
 6523TIP3    H219576   6.020   5.310   2.002
 6524TIP3   OH219577   1.431   2.304   0.341
 6524TIP3    H119578   1.453   2.220   0.302
 6524TIP3    H219579   1.509   2.358   0.329
 6525TIP3   OH219580   5.986   4.722   3.024
 6525TIP3    H119581   5.996   4.753   3.113
 6525TIP3    H219582   5.907   4.765   2.991
 6526TIP3   OH219583   3.405   0.856   3.024
 6526TIP3    H119584   3.385   0.832   3.114
 6526TIP3    H219585   3.496   0.884   3.026
 6527TIP3   OH219586   5.487   4.723   1.426
 6527TIP3    H119587   5.412   4.783   1.434
 6527TIP3    H219588   5.558   4.767   1.472
 6528TIP3   OH219589   0.579   2.414   2.041
 6528TIP3    H119590   0.541   2.336   2.000
 6528TIP3    H219591   0.645   2.381   2.101
 6529TIP3   OH219592   4.178   2.100   1.330
 6529TIP3    H119593   4.162   2.109   1.236
 6529TIP3    H219594   4.273   2.105   1.339
 6530TIP3   OH219595   6.375   1.615   5.089
 6530TIP3    H119596   6.371   1.520   5.104
 6530TIP3    H219597   6.307   1.651   5.145
 6531TIP3   OH219598   1.902   5.349   0.096
 6531TIP3    H119599   1.993   5.361   0.069
 6531TIP3    H219600   1.889   5.413   0.166
 6532TIP3   OH219601   4.516   0.775   0.264
 6532TIP3    H119602   4.480   0.768   0.352
 6532TIP3    H219603   4.458   0.721   0.210
 6533TIP3   OH219604   5.891   0.734   0.769
 6533TIP3    H119605   5.906   0.772   0.683
 6533TIP3    H219606   5.943   0.788   0.829
 6534TIP3   OH219607   2.147   3.156   4.573
 6534TIP3    H119608   2.203   3.176   4.647
 6534TIP3    H219609   2.197   3.094   4.520
 6535TIP3   OH219610   0.154   4.022   3.378
 6535TIP3    H119611   0.222   4.011   3.444
 6535TIP3    H219612   0.125   3.933   3.357
 6536TIP3   OH219613   2.791   1.244   4.811
 6536TIP3    H119614   2.786   1.190   4.733
 6536TIP3    H219615   2.874   1.220   4.852
 6537TIP3   OH219616   0.166   2.435   2.059
 6537TIP3    H119617   0.165   2.383   2.139
 6537TIP3    H219618   0.216   2.513   2.081
 6538TIP3   OH219619   0.048   4.707   1.477
 6538TIP3    H119620   0.076   4.630   1.428
 6538TIP3    H219621  -0.031   4.679   1.524
 6539TIP3   OH219622   3.062   1.241   2.647
 6539TIP3    H119623   3.137   1.300   2.652
 6539TIP3    H219624   3.086   1.167   2.703
 6540TIP3   OH219625   2.674   5.732   0.281
 6540TIP3    H119626   2.760   5.697   0.257
 6540TIP3    H219627   2.611   5.670   0.243
 6541TIP3   OH219628   0.648   3.881   3.977
 6541TIP3    H119629   0.619   3.882   3.886
 6541TIP3    H219630   0.738   3.912   3.974
 6542TIP3   OH219631   2.188   0.740   0.738
 6542TIP3    H119632   2.238   0.747   0.657
 6542TIP3    H219633   2.189   0.828   0.775
 6543TIP3   OH219634   2.198   1.104   2.327
 6543TIP3    H119635   2.276   1.158   2.316
 6543TIP3    H219636   2.202   1.041   2.255
 6544TIP3   OH219637   4.166   3.626   3.656
 6544TIP3    H119638   4.083   3.665   3.687
 6544TIP3    H219639   4.139   3.558   3.595
 6545TIP3   OH219640   4.341   4.870   1.800
 6545TIP3    H119641   4.250   4.884   1.775
 6545TIP3    H219642   4.391   4.913   1.731
 6546TIP3   OH219643   0.283   3.233   4.731
 6546TIP3    H119644   0.363   3.229   4.783
 6546TIP3    H219645   0.254   3.324   4.737
 6547TIP3   OH219646   0.158   4.429   0.722
 6547TIP3    H119647   0.217   4.355   0.711
 6547TIP3    H219648   0.173   4.484   0.645
 6548TIP3   OH219649   4.861   4.948   4.998
 6548TIP3    H119650   4.855   4.919   4.907
 6548TIP3    H219651   4.950   4.982   5.006
 6549TIP3   OH219652   5.522   1.529   4.512
 6549TIP3    H119653   5.456   1.502   4.576
 6549TIP3    H219654   5.592   1.464   4.522
 6550TIP3   OH219655   3.762   0.758   2.298
 6550TIP3    H119656   3.719   0.735   2.380
 6550TIP3    H219657   3.746   0.683   2.241
 6551TIP3   OH219658   1.588   5.968   0.866
 6551TIP3    H119659   1.550   6.037   0.921
 6551TIP3    H219660   1.656   6.011   0.815
 6552TIP3   OH219661   1.171   2.681   3.772
 6552TIP3    H119662   1.176   2.712   3.682
 6552TIP3    H219663   1.259   2.692   3.806
 6553TIP3   OH219664   6.309   1.644   0.469
 6553TIP3    H119665   6.316   1.732   0.506
 6553TIP3    H219666   6.352   1.588   0.534
 6554TIP3   OH219667   1.893   0.980   2.656
 6554TIP3    H119668   1.987   0.997   2.662
 6554TIP3    H219669   1.852   1.054   2.701
 6555TIP3   OH219670   0.182   4.877   1.813
 6555TIP3    H119671   0.277   4.865   1.806
 6555TIP3    H219672   0.146   4.788   1.811
 6556TIP3   OH219673   1.461   2.166   1.642
 6556TIP3    H119674   1.474   2.258   1.664
 6556TIP3    H219675   1.541   2.122   1.670
 6557TIP3   OH219676   5.619   1.259   3.838
 6557TIP3    H119677   5.600   1.305   3.920
 6557TIP3    H219678   5.626   1.167   3.864
 6558TIP3   OH219679   1.672   3.660   1.874
 6558TIP3    H119680   1.679   3.731   1.938
 6558TIP3    H219681   1.579   3.641   1.869
 6559TIP3   OH219682   5.301   1.984   0.865
 6559TIP3    H119683   5.298   1.991   0.961
 6559TIP3    H219684   5.332   1.895   0.849
 6560TIP3   OH219685   4.123   1.715   3.792
 6560TIP3    H119686   4.041   1.702   3.744
 6560TIP3    H219687   4.095   1.745   3.879
 6561TIP3   OH219688   3.869   0.382   3.487
 6561TIP3    H119689   3.789   0.414   3.445
 6561TIP3    H219690   3.936   0.446   3.460
 6562TIP3   OH219691   3.295   5.278   4.825
 6562TIP3    H119692   3.377   5.249   4.864
 6562TIP3    H219693   3.248   5.196   4.805
 6563TIP3   OH219694   5.662   2.692   3.676
 6563TIP3    H119695   5.571   2.707   3.702
 6563TIP3    H219696   5.703   2.654   3.753
 6564TIP3   OH219697   5.827   4.866   1.374
 6564TIP3    H119698   5.790   4.865   1.462
 6564TIP3    H219699   5.899   4.929   1.379
 6565TIP3   OH219700   3.995   3.644   3.260
 6565TIP3    H119701   3.943   3.642   3.179
 6565TIP3    H219702   4.022   3.735   3.270
 6566TIP3   OH219703   6.176   1.174   2.312
 6566TIP3    H119704   6.205   1.211   2.229
 6566TIP3    H219705   6.169   1.250   2.370
 6567TIP3   OH219706   0.897   5.095   4.747
 6567TIP3    H119707   0.945   5.051   4.676
 6567TIP3    H219708   0.817   5.043   4.757
 6568TIP3   OH219709   4.954   4.326   2.987
 6568TIP3    H119710   4.884   4.391   2.975
 6568TIP3    H219711   4.947   4.270   2.910
 6569TIP3   OH219712   4.396   2.911   4.295
 6569TIP3    H119713   4.333   2.895   4.365
 6569TIP3    H219714   4.431   2.825   4.274
 6570TIP3   OH219715   3.412   3.997   2.933
 6570TIP3    H119716   3.504   3.973   2.919
 6570TIP3    H219717   3.416   4.086   2.967
 6571TIP3   OH219718   3.519   2.644   0.148
 6571TIP3    H119719   3.436   2.691   0.141
 6571TIP3    H219720   3.528   2.597   0.065
 6572TIP3   OH219721   3.008   4.217   4.246
 6572TIP3    H119722   3.074   4.256   4.304
 6572TIP3    H219723   2.955   4.291   4.217
 6573TIP3   OH219724   1.169   2.773   0.460
 6573TIP3    H119725   1.236   2.706   0.445
 6573TIP3    H219726   1.090   2.736   0.420
 6574TIP3   OH219727   0.164   5.629   2.714
 6574TIP3    H119728   0.259   5.629   2.730
 6574TIP3    H219729   0.148   5.707   2.662
 6575TIP3   OH219730   5.323   4.946   1.469
 6575TIP3    H119731   5.343   5.001   1.393
 6575TIP3    H219732   5.391   4.967   1.532
 6576TIP3   OH219733   4.768   2.033   4.041
 6576TIP3    H119734   4.758   1.948   3.997
 6576TIP3    H219735   4.689   2.081   4.016
 6577TIP3   OH219736   4.275   5.830   1.507
 6577TIP3    H119737   4.234   5.752   1.471
 6577TIP3    H219738   4.344   5.796   1.565
 6578TIP3   OH219739   0.126   2.970   4.174
 6578TIP3    H119740   0.102   2.931   4.090
 6578TIP3    H219741   0.081   3.054   4.174
 6579TIP3   OH219742   3.638   2.930   4.712
 6579TIP3    H119743   3.641   3.025   4.699
 6579TIP3    H219744   3.654   2.918   4.806
 6580TIP3   OH219745   0.039   4.240   1.643
 6580TIP3    H119746  -0.010   4.261   1.722
 6580TIP3    H219747  -0.013   4.172   1.600
 6581TIP3   OH219748   4.401   3.674   4.616
 6581TIP3    H119749   4.437   3.712   4.695
 6581TIP3    H219750   4.307   3.691   4.621
 6582TIP3   OH219751   5.147   2.577   1.704
 6582TIP3    H119752   5.137   2.590   1.610
 6582TIP3    H219753   5.119   2.660   1.743
 6583TIP3   OH219754   6.062   0.595   4.023
 6583TIP3    H119755   6.125   0.661   3.994
 6583TIP3    H219756   5.995   0.594   3.954
 6584TIP3   OH219757   4.082   5.216   2.648
 6584TIP3    H119758   4.154   5.273   2.674
 6584TIP3    H219759   4.119   5.158   2.582
 6585TIP3   OH219760   5.612   4.930   0.476
 6585TIP3    H119761   5.594   5.017   0.440
 6585TIP3    H219762   5.625   4.875   0.399
 6586TIP3   OH219763   1.016   5.844   2.238
 6586TIP3    H119764   0.972   5.796   2.307
 6586TIP3    H219765   0.947   5.864   2.174
 6587TIP3   OH219766   1.572   4.171   3.594
 6587TIP3    H119767   1.657   4.134   3.569
 6587TIP3    H219768   1.594   4.243   3.654
 6588TIP3   OH219769   4.961   1.635   4.258
 6588TIP3    H119770   4.942   1.660   4.348
 6588TIP3    H219771   4.889   1.577   4.234
 6589TIP3   OH219772   1.429   5.037   3.596
 6589TIP3    H119773   1.409   5.126   3.567
 6589TIP3    H219774   1.524   5.036   3.608
 6590TIP3   OH219775   0.513   5.013   4.000
 6590TIP3    H119776   0.535   4.980   4.087
 6590TIP3    H219777   0.473   5.098   4.016
 6591TIP3   OH219778   0.455   4.460   2.633
 6591TIP3    H119779   0.456   4.472   2.728
 6591TIP3    H219780   0.530   4.403   2.615
 6592TIP3   OH219781   2.825   5.580   3.942
 6592TIP3    H119782   2.739   5.581   3.984
 6592TIP3    H219783   2.818   5.644   3.872
 6593TIP3   OH219784   0.369   2.333   1.611
 6593TIP3    H119785   0.384   2.327   1.705
 6593TIP3    H219786   0.427   2.267   1.573
 6594TIP3   OH219787   0.522   4.936   0.562
 6594TIP3    H119788   0.589   4.969   0.621
 6594TIP3    H219789   0.459   4.892   0.619
 6595TIP3   OH219790   2.579   2.764   2.493
 6595TIP3    H119791   2.663   2.720   2.508
 6595TIP3    H219792   2.601   2.841   2.441
 6596TIP3   OH219793   4.787   1.776   3.923
 6596TIP3    H119794   4.729   1.739   3.857
 6596TIP3    H219795   4.853   1.709   3.939
 6597TIP3   OH219796   3.459   1.150   2.610
 6597TIP3    H119797   3.442   1.056   2.598
 6597TIP3    H219798   3.466   1.161   2.705
 6598TIP3   OH219799   1.257   3.606   5.077
 6598TIP3    H119800   1.273   3.559   5.159
 6598TIP3    H219801   1.290   3.547   5.009
 6599TIP3   OH219802   2.328   3.419   0.380
 6599TIP3    H119803   2.240   3.429   0.343
 6599TIP3    H219804   2.322   3.461   0.466
 6600TIP3   OH219805   0.216   0.836   5.058
 6600TIP3    H119806   0.128   0.854   5.026
 6600TIP3    H219807   0.208   0.836   5.153
 6601TIP3   OH219808   3.344   4.715   3.783
 6601TIP3    H119809   3.368   4.668   3.863
 6601TIP3    H219810   3.255   4.685   3.764
 6602TIP3   OH219811   0.561   4.587   1.024
 6602TIP3    H119812   0.475   4.563   0.987
 6602TIP3    H219813   0.581   4.517   1.086
 6603TIP3   OH219814   1.379   1.151   2.915
 6603TIP3    H119815   1.399   1.101   2.995
 6603TIP3    H219816   1.288   1.130   2.896
 6604TIP3   OH219817   0.841   0.630   3.415
 6604TIP3    H119818   0.863   0.635   3.322
 6604TIP3    H219819   0.882   0.548   3.444
 6605TIP3   OH219820   0.439   0.684   4.497
 6605TIP3    H119821   0.361   0.730   4.467
 6605TIP3    H219822   0.492   0.751   4.539
 6606TIP3   OH219823   2.425   2.153   2.233
 6606TIP3    H119824   2.470   2.203   2.301
 6606TIP3    H219825   2.463   2.184   2.151
 6607TIP3   OH219826   3.042   2.838   0.974
 6607TIP3    H119827   3.085   2.761   0.937
 6607TIP3    H219828   2.952   2.833   0.942
 6608TIP3   OH219829   5.282   0.743   1.688
 6608TIP3    H119830   5.343   0.680   1.727
 6608TIP3    H219831   5.211   0.689   1.654
 6609TIP3   OH219832   2.266   1.700   2.286
 6609TIP3    H119833   2.210   1.775   2.309
 6609TIP3    H219834   2.231   1.627   2.337
 6610TIP3   OH219835   1.433   1.663   4.803
 6610TIP3    H119836   1.374   1.648   4.877
 6610TIP3    H219837   1.497   1.592   4.810
 6611TIP3   OH219838   0.143   4.539   4.114
 6611TIP3    H119839   0.146   4.464   4.174
 6611TIP3    H219840   0.061   4.528   4.065
 6612TIP3   OH219841   4.372   3.430   5.103
 6612TIP3    H119842   4.464   3.448   5.122
 6612TIP3    H219843   4.374   3.356   5.042
 6613TIP3   OH219844   2.141   2.755   3.804
 6613TIP3    H119845   2.211   2.755   3.869
 6613TIP3    H219846   2.116   2.847   3.796
 6614TIP3   OH219847   5.817   1.873   3.849
 6614TIP3    H119848   5.734   1.839   3.883
 6614TIP3    H219849   5.812   1.967   3.864
 6615TIP3   OH219850   6.216   5.345   0.663
 6615TIP3    H119851   6.122   5.362   0.649
 6615TIP3    H219852   6.251   5.429   0.693
 6616TIP3   OH219853   3.376   1.438   1.087
 6616TIP3    H119854   3.310   1.369   1.081
 6616TIP3    H219855   3.340   1.501   1.149
 6617TIP3   OH219856   1.722   4.702   3.992
 6617TIP3    H119857   1.756   4.707   3.902
 6617TIP3    H219858   1.763   4.624   4.029
 6618TIP3   OH219859   0.270   2.963   1.415
 6618TIP3    H119860   0.340   2.908   1.381
 6618TIP3    H219861   0.191   2.908   1.408
 6619TIP3   OH219862   3.864   5.010   3.359
 6619TIP3    H119863   3.842   4.944   3.424
 6619TIP3    H219864   3.940   4.974   3.313
 6620TIP3   OH219865   4.242   4.026   2.025
 6620TIP3    H119866   4.277   3.938   2.042
 6620TIP3    H219867   4.220   4.025   1.932
 6621TIP3   OH219868   3.410   3.956   4.970
 6621TIP3    H119869   3.430   4.035   5.021
 6621TIP3    H219870   3.316   3.963   4.951
 6622TIP3   OH219871   2.832   3.219   1.188
 6622TIP3    H119872   2.925   3.228   1.209
 6622TIP3    H219873   2.800   3.309   1.182
 6623TIP3   OH219874   0.269   5.647   0.750
 6623TIP3    H119875   0.173   5.646   0.752
 6623TIP3    H219876   0.292   5.594   0.674
 6624TIP3   OH219877   0.564   0.913   4.600
 6624TIP3    H119878   0.492   0.964   4.638
 6624TIP3    H219879   0.613   0.880   4.675
 6625TIP3   OH219880   2.402   2.117   1.410
 6625TIP3    H119881   2.377   2.083   1.324
 6625TIP3    H219882   2.384   2.211   1.404
 6626TIP3   OH219883   2.512   3.001   3.790
 6626TIP3    H119884   2.591   3.053   3.808
 6626TIP3    H219885   2.529   2.918   3.833
 6627TIP3   OH219886   3.525   3.007   4.452
 6627TIP3    H119887   3.607   3.045   4.422
 6627TIP3    H219888   3.548   2.962   4.533
 6628TIP3   OH219889   0.278   4.916   1.061
 6628TIP3    H119890   0.197   4.898   1.108
 6628TIP3    H219891   0.333   4.964   1.123
 6629TIP3   OH219892   4.394   0.289   3.837
 6629TIP3    H119893   4.349   0.257   3.915
 6629TIP3    H219894   4.374   0.382   3.834
 6630TIP3   OH219895   5.403   2.461   2.064
 6630TIP3    H119896   5.494   2.459   2.034
 6630TIP3    H219897   5.394   2.382   2.118
 6631TIP3   OH219898   3.084   4.596   0.390
 6631TIP3    H119899   3.132   4.672   0.423
 6631TIP3    H219900   3.046   4.556   0.467
 6632TIP3   OH219901   1.090   5.235   3.019
 6632TIP3    H119902   1.105   5.317   2.972
 6632TIP3    H219903   1.059   5.263   3.105
 6633TIP3   OH219904   0.237   3.709   2.089
 6633TIP3    H119905   0.175   3.777   2.062
 6633TIP3    H219906   0.315   3.726   2.036
 6634TIP3   OH219907   0.975   5.573   3.019
 6634TIP3    H119908   0.948   5.608   2.934
 6634TIP3    H219909   0.915   5.502   3.036
 6635TIP3   OH219910   4.715   3.411   2.073
 6635TIP3    H119911   4.759   3.481   2.121
 6635TIP3    H219912   4.678   3.454   1.996
 6636TIP3   OH219913   3.662   5.252   0.976
 6636TIP3    H119914   3.622   5.198   1.045
 6636TIP3    H219915   3.605   5.328   0.970
 6637TIP3   OH219916   2.873   0.357   3.843
 6637TIP3    H119917   2.826   0.320   3.768
 6637TIP3    H219918   2.805   0.397   3.897
 6638TIP3   OH219919   0.922   5.760   3.265
 6638TIP3    H119920   1.012   5.792   3.275
 6638TIP3    H219921   0.919   5.724   3.176
 6639TIP3   OH219922   4.688   1.811   4.676
 6639TIP3    H119923   4.755   1.836   4.739
 6639TIP3    H219924   4.651   1.730   4.712
 6640TIP3   OH219925   1.027   1.447   0.669
 6640TIP3    H119926   1.060   1.416   0.753
 6640TIP3    H219927   0.955   1.505   0.691
 6641TIP3   OH219928   1.883   1.637   3.572
 6641TIP3    H119929   1.800   1.610   3.611
 6641TIP3    H219930   1.920   1.699   3.634
 6642TIP3   OH219931   4.275   4.538   1.997
 6642TIP3    H119932   4.309   4.450   2.012
 6642TIP3    H219933   4.326   4.594   2.054
 6643TIP3   OH219934   2.485   0.898   0.840
 6643TIP3    H119935   2.496   0.903   0.935
 6643TIP3    H219936   2.398   0.935   0.824
 6644TIP3   OH219937   4.251   1.089   0.563
 6644TIP3    H119938   4.239   1.065   0.471
 6644TIP3    H219939   4.294   1.013   0.602
 6645TIP3   OH219940   0.386   3.964   3.540
 6645TIP3    H119941   0.423   4.008   3.617
 6645TIP3    H219942   0.442   3.887   3.527
   6.35678   5.99323   5.19029   0.00000   0.00000  -2.11893   0.00000  -2.11893  -2.99662
