;;
;; Generated by CHARMM-GUI FF-Converter
;;
;; Correspondance:
;; jul316@lehigh.edu or wonpil@lehigh.edu
;;
;; GROMACS topology file for PROA
;;


[ moleculetype ]
; name	nrexcl
PROA	     3

[ atoms ]
; nr	type	resnr	residu	atom	cgnr	charge	mass
     1        NH3      1      SER      N      1    -0.300000    14.0070   ; qtot -0.300
     2         HC      1      SER    HT1      2     0.330000     1.0080   ; qtot  0.030
     3         HC      1      SER    HT2      3     0.330000     1.0080   ; qtot  0.360
     4         HC      1      SER    HT3      4     0.330000     1.0080   ; qtot  0.690
     5        CT1      1      SER     CA      5     0.210000    12.0110   ; qtot  0.900
     6        HB1      1      SER     HA      6     0.100000     1.0080   ; qtot  1.000
     7        CT2      1      SER     CB      7     0.050000    12.0110   ; qtot  1.050
     8        HA2      1      SER    HB1      8     0.090000     1.0080   ; qtot  1.140
     9        HA2      1      SER    HB2      9     0.090000     1.0080   ; qtot  1.230
    10        OH1      1      SER     OG     10    -0.660000    15.9994   ; qtot  0.570
    11          H      1      SER    HG1     11     0.430000     1.0080   ; qtot  1.000
    12          C      1      SER      C     12     0.510000    12.0110   ; qtot  1.510
    13          O      1      SER      O     13    -0.510000    15.9994   ; qtot  1.000
    14        NH1      2      GLY      N     14    -0.470000    14.0070   ; qtot  0.530
    15          H      2      GLY     HN     15     0.310000     1.0080   ; qtot  0.840
    16        CT2      2      GLY     CA     16    -0.020000    12.0110   ; qtot  0.820
    17        HB2      2      GLY    HA1     17     0.090000     1.0080   ; qtot  0.910
    18        HB2      2      GLY    HA2     18     0.090000     1.0080   ; qtot  1.000
    19          C      2      GLY      C     19     0.510000    12.0110   ; qtot  1.510
    20          O      2      GLY      O     20    -0.510000    15.9994   ; qtot  1.000
    21        NH1      3      ASP      N     21    -0.470000    14.0070   ; qtot  0.530
    22          H      3      ASP     HN     22     0.310000     1.0080   ; qtot  0.840
    23        CT1      3      ASP     CA     23     0.070000    12.0110   ; qtot  0.910
    24        HB1      3      ASP     HA     24     0.090000     1.0080   ; qtot  1.000
    25       CT2A      3      ASP     CB     25    -0.280000    12.0110   ; qtot  0.720
    26        HA2      3      ASP    HB1     26     0.090000     1.0080   ; qtot  0.810
    27        HA2      3      ASP    HB2     27     0.090000     1.0080   ; qtot  0.900
    28         CC      3      ASP     CG     28     0.620000    12.0110   ; qtot  1.520
    29         OC      3      ASP    OD1     29    -0.760000    15.9994   ; qtot  0.760
    30         OC      3      ASP    OD2     30    -0.760000    15.9994   ; qtot  0.000
    31          C      3      ASP      C     31     0.510000    12.0110   ; qtot  0.510
    32          O      3      ASP      O     32    -0.510000    15.9994   ; qtot  0.000
    33        NH1      4      SER      N     33    -0.470000    14.0070   ; qtot -0.470
    34          H      4      SER     HN     34     0.310000     1.0080   ; qtot -0.160
    35        CT1      4      SER     CA     35     0.070000    12.0110   ; qtot -0.090
    36        HB1      4      SER     HA     36     0.090000     1.0080   ; qtot  0.000
    37        CT2      4      SER     CB     37     0.050000    12.0110   ; qtot  0.050
    38        HA2      4      SER    HB1     38     0.090000     1.0080   ; qtot  0.140
    39        HA2      4      SER    HB2     39     0.090000     1.0080   ; qtot  0.230
    40        OH1      4      SER     OG     40    -0.660000    15.9994   ; qtot -0.430
    41          H      4      SER    HG1     41     0.430000     1.0080   ; qtot  0.000
    42          C      4      SER      C     42     0.510000    12.0110   ; qtot  0.510
    43          O      4      SER      O     43    -0.510000    15.9994   ; qtot  0.000
    44        NH1      5      GLY      N     44    -0.470000    14.0070   ; qtot -0.470
    45          H      5      GLY     HN     45     0.310000     1.0080   ; qtot -0.160
    46        CT2      5      GLY     CA     46    -0.020000    12.0110   ; qtot -0.180
    47        HB2      5      GLY    HA1     47     0.090000     1.0080   ; qtot -0.090
    48        HB2      5      GLY    HA2     48     0.090000     1.0080   ; qtot  0.000
    49          C      5      GLY      C     49     0.510000    12.0110   ; qtot  0.510
    50          O      5      GLY      O     50    -0.510000    15.9994   ; qtot  0.000
    51          N      6      PRO      N     51    -0.290000    14.0070   ; qtot -0.290
    52        CP3      6      PRO     CD     52     0.000000    12.0110   ; qtot -0.290
    53        HA2      6      PRO    HD1     53     0.090000     1.0080   ; qtot -0.200
    54        HA2      6      PRO    HD2     54     0.090000     1.0080   ; qtot -0.110
    55        CP1      6      PRO     CA     55     0.020000    12.0110   ; qtot -0.090
    56        HB1      6      PRO     HA     56     0.090000     1.0080   ; qtot  0.000
    57        CP2      6      PRO     CB     57    -0.180000    12.0110   ; qtot -0.180
    58        HA2      6      PRO    HB1     58     0.090000     1.0080   ; qtot -0.090
    59        HA2      6      PRO    HB2     59     0.090000     1.0080   ; qtot  0.000
    60        CP2      6      PRO     CG     60    -0.180000    12.0110   ; qtot -0.180
    61        HA2      6      PRO    HG1     61     0.090000     1.0080   ; qtot -0.090
    62        HA2      6      PRO    HG2     62     0.090000     1.0080   ; qtot  0.000
    63          C      6      PRO      C     63     0.510000    12.0110   ; qtot  0.510
    64          O      6      PRO      O     64    -0.510000    15.9994   ; qtot  0.000
    65        NH1      7      GLY      N     65    -0.470000    14.0070   ; qtot -0.470
    66          H      7      GLY     HN     66     0.310000     1.0080   ; qtot -0.160
    67        CT2      7      GLY     CA     67    -0.020000    12.0110   ; qtot -0.180
    68        HB2      7      GLY    HA1     68     0.090000     1.0080   ; qtot -0.090
    69        HB2      7      GLY    HA2     69     0.090000     1.0080   ; qtot  0.000
    70          C      7      GLY      C     70     0.510000    12.0110   ; qtot  0.510
    71          O      7      GLY      O     71    -0.510000    15.9994   ; qtot  0.000
    72        NH1      8      ASP      N     72    -0.470000    14.0070   ; qtot -0.470
    73          H      8      ASP     HN     73     0.310000     1.0080   ; qtot -0.160
    74        CT1      8      ASP     CA     74     0.070000    12.0110   ; qtot -0.090
    75        HB1      8      ASP     HA     75     0.090000     1.0080   ; qtot  0.000
    76       CT2A      8      ASP     CB     76    -0.280000    12.0110   ; qtot -0.280
    77        HA2      8      ASP    HB1     77     0.090000     1.0080   ; qtot -0.190
    78        HA2      8      ASP    HB2     78     0.090000     1.0080   ; qtot -0.100
    79         CC      8      ASP     CG     79     0.620000    12.0110   ; qtot  0.520
    80         OC      8      ASP    OD1     80    -0.760000    15.9994   ; qtot -0.240
    81         OC      8      ASP    OD2     81    -0.760000    15.9994   ; qtot -1.000
    82          C      8      ASP      C     82     0.510000    12.0110   ; qtot -0.490
    83          O      8      ASP      O     83    -0.510000    15.9994   ; qtot -1.000
    84          N      9      PRO      N     84    -0.290000    14.0070   ; qtot -1.290
    85        CP3      9      PRO     CD     85     0.000000    12.0110   ; qtot -1.290
    86        HA2      9      PRO    HD1     86     0.090000     1.0080   ; qtot -1.200
    87        HA2      9      PRO    HD2     87     0.090000     1.0080   ; qtot -1.110
    88        CP1      9      PRO     CA     88     0.020000    12.0110   ; qtot -1.090
    89        HB1      9      PRO     HA     89     0.090000     1.0080   ; qtot -1.000
    90        CP2      9      PRO     CB     90    -0.180000    12.0110   ; qtot -1.180
    91        HA2      9      PRO    HB1     91     0.090000     1.0080   ; qtot -1.090
    92        HA2      9      PRO    HB2     92     0.090000     1.0080   ; qtot -1.000
    93        CP2      9      PRO     CG     93    -0.180000    12.0110   ; qtot -1.180
    94        HA2      9      PRO    HG1     94     0.090000     1.0080   ; qtot -1.090
    95        HA2      9      PRO    HG2     95     0.090000     1.0080   ; qtot -1.000
    96          C      9      PRO      C     96     0.510000    12.0110   ; qtot -0.490
    97          O      9      PRO      O     97    -0.510000    15.9994   ; qtot -1.000
    98        NH1     10      GLY      N     98    -0.470000    14.0070   ; qtot -1.470
    99          H     10      GLY     HN     99     0.310000     1.0080   ; qtot -1.160
   100        CT2     10      GLY     CA    100    -0.020000    12.0110   ; qtot -1.180
   101        HB2     10      GLY    HA1    101     0.090000     1.0080   ; qtot -1.090
   102        HB2     10      GLY    HA2    102     0.090000     1.0080   ; qtot -1.000
   103          C     10      GLY      C    103     0.510000    12.0110   ; qtot -0.490
   104          O     10      GLY      O    104    -0.510000    15.9994   ; qtot -1.000
   105        NH1     11      ASP      N    105    -0.470000    14.0070   ; qtot -1.470
   106          H     11      ASP     HN    106     0.310000     1.0080   ; qtot -1.160
   107        CT1     11      ASP     CA    107     0.070000    12.0110   ; qtot -1.090
   108        HB1     11      ASP     HA    108     0.090000     1.0080   ; qtot -1.000
   109       CT2A     11      ASP     CB    109    -0.280000    12.0110   ; qtot -1.280
   110        HA2     11      ASP    HB1    110     0.090000     1.0080   ; qtot -1.190
   111        HA2     11      ASP    HB2    111     0.090000     1.0080   ; qtot -1.100
   112         CC     11      ASP     CG    112     0.620000    12.0110   ; qtot -0.480
   113         OC     11      ASP    OD1    113    -0.760000    15.9994   ; qtot -1.240
   114         OC     11      ASP    OD2    114    -0.760000    15.9994   ; qtot -2.000
   115          C     11      ASP      C    115     0.510000    12.0110   ; qtot -1.490
   116          O     11      ASP      O    116    -0.510000    15.9994   ; qtot -2.000
   117        NH1     12      SER      N    117    -0.470000    14.0070   ; qtot -2.470
   118          H     12      SER     HN    118     0.310000     1.0080   ; qtot -2.160
   119        CT1     12      SER     CA    119     0.070000    12.0110   ; qtot -2.090
   120        HB1     12      SER     HA    120     0.090000     1.0080   ; qtot -2.000
   121        CT2     12      SER     CB    121     0.050000    12.0110   ; qtot -1.950
   122        HA2     12      SER    HB1    122     0.090000     1.0080   ; qtot -1.860
   123        HA2     12      SER    HB2    123     0.090000     1.0080   ; qtot -1.770
   124        OH1     12      SER     OG    124    -0.660000    15.9994   ; qtot -2.430
   125          H     12      SER    HG1    125     0.430000     1.0080   ; qtot -2.000
   126          C     12      SER      C    126     0.510000    12.0110   ; qtot -1.490
   127          O     12      SER      O    127    -0.510000    15.9994   ; qtot -2.000
   128        NH1     13      GLY      N    128    -0.470000    14.0070   ; qtot -2.470
   129          H     13      GLY     HN    129     0.310000     1.0080   ; qtot -2.160
   130        CT2     13      GLY     CA    130    -0.020000    12.0110   ; qtot -2.180
   131        HB2     13      GLY    HA1    131     0.090000     1.0080   ; qtot -2.090
   132        HB2     13      GLY    HA2    132     0.090000     1.0080   ; qtot -2.000
   133         CC     13      GLY      C    133     0.340000    12.0110   ; qtot -1.660
   134         OC     13      GLY    OT1    134    -0.670000    15.9994   ; qtot -2.330
   135         OC     13      GLY    OT2    135    -0.670000    15.9994   ; qtot -3.000

[ bonds ]
; ai	aj	funct	b0	Kb
    2     1     1
    3     1     1
    4     1     1
    1     5     1
    5     6     1
    7     5     1
   12     5     1
    7     8     1
    7     9     1
   10     7     1
   10    11     1
   13    12     1
   12    14     1
   14    15     1
   14    16     1
   16    17     1
   16    18     1
   19    16     1
   20    19     1
   19    21     1
   21    22     1
   21    23     1
   23    24     1
   25    23     1
   31    23     1
   25    26     1
   25    27     1
   28    25     1
   28    29     1
   30    28     1
   32    31     1
   31    33     1
   33    34     1
   33    35     1
   35    36     1
   37    35     1
   42    35     1
   37    38     1
   37    39     1
   40    37     1
   40    41     1
   43    42     1
   42    44     1
   44    45     1
   44    46     1
   46    47     1
   46    48     1
   49    46     1
   50    49     1
   49    51     1
   51    52     1
   51    55     1
   53    52     1
   54    52     1
   60    52     1
   56    55     1
   55    57     1
   63    55     1
   58    57     1
   59    57     1
   57    60     1
   61    60     1
   62    60     1
   64    63     1
   63    65     1
   65    66     1
   65    67     1
   67    68     1
   67    69     1
   70    67     1
   71    70     1
   70    72     1
   72    73     1
   72    74     1
   74    75     1
   76    74     1
   82    74     1
   76    77     1
   76    78     1
   79    76     1
   79    80     1
   81    79     1
   83    82     1
   82    84     1
   84    85     1
   84    88     1
   86    85     1
   87    85     1
   93    85     1
   89    88     1
   88    90     1
   96    88     1
   91    90     1
   92    90     1
   90    93     1
   94    93     1
   95    93     1
   97    96     1
   96    98     1
   98    99     1
   98   100     1
  100   101     1
  100   102     1
  103   100     1
  104   103     1
  103   105     1
  105   106     1
  105   107     1
  107   108     1
  109   107     1
  115   107     1
  109   110     1
  109   111     1
  112   109     1
  112   113     1
  114   112     1
  116   115     1
  115   117     1
  117   118     1
  117   119     1
  119   120     1
  121   119     1
  126   119     1
  121   122     1
  121   123     1
  124   121     1
  124   125     1
  127   126     1
  126   128     1
  128   129     1
  128   130     1
  130   131     1
  130   132     1
  133   130     1
  133   134     1
  133   135     1

[ pairs ]
; ai	aj	funct	c6	c12 or
; ai	aj	funct	fudgeQQ	q1	q2	c6	c12
    1     8     1
    1     9     1
    1    10     1
    1    13     1
    1    14     1
    2     6     1
    2     7     1
    2    12     1
    3     6     1
    3     7     1
    3    12     1
    4     6     1
    4     7     1
    4    12     1
    5    11     1
    5    15     1
    5    16     1
    6     8     1
    6     9     1
    6    10     1
    6    13     1
    6    14     1
    7    13     1
    7    14     1
    8    11     1
    8    12     1
    9    11     1
    9    12     1
   10    12     1
   12    17     1
   12    18     1
   12    19     1
   13    15     1
   13    16     1
   14    20     1
   14    21     1
   15    17     1
   15    18     1
   15    19     1
   16    22     1
   16    23     1
   17    20     1
   17    21     1
   18    20     1
   18    21     1
   19    24     1
   19    25     1
   19    31     1
   20    22     1
   20    23     1
   21    26     1
   21    27     1
   21    28     1
   21    32     1
   21    33     1
   22    24     1
   22    25     1
   22    31     1
   23    29     1
   23    30     1
   23    34     1
   23    35     1
   24    26     1
   24    27     1
   24    28     1
   24    32     1
   24    33     1
   25    32     1
   25    33     1
   26    29     1
   26    30     1
   26    31     1
   27    29     1
   27    30     1
   27    31     1
   28    31     1
   31    36     1
   31    37     1
   31    42     1
   32    34     1
   32    35     1
   33    38     1
   33    39     1
   33    40     1
   33    43     1
   33    44     1
   34    36     1
   34    37     1
   34    42     1
   35    41     1
   35    45     1
   35    46     1
   36    38     1
   36    39     1
   36    40     1
   36    43     1
   36    44     1
   37    43     1
   37    44     1
   38    41     1
   38    42     1
   39    41     1
   39    42     1
   40    42     1
   42    47     1
   42    48     1
   42    49     1
   43    45     1
   43    46     1
   44    50     1
   44    51     1
   45    47     1
   45    48     1
   45    49     1
   46    52     1
   46    55     1
   47    50     1
   47    51     1
   48    50     1
   48    51     1
   49    53     1
   49    54     1
   49    56     1
   49    57     1
   49    60     1
   49    63     1
   50    52     1
   50    55     1
   51    58     1
   51    59     1
   51    61     1
   51    62     1
   51    64     1
   51    65     1
   52    56     1
   52    58     1
   52    59     1
   52    63     1
   53    55     1
   53    57     1
   53    61     1
   53    62     1
   54    55     1
   54    57     1
   54    61     1
   54    62     1
   55    61     1
   55    62     1
   55    66     1
   55    67     1
   56    58     1
   56    59     1
   56    60     1
   56    64     1
   56    65     1
   57    64     1
   57    65     1
   58    61     1
   58    62     1
   58    63     1
   59    61     1
   59    62     1
   59    63     1
   60    63     1
   63    68     1
   63    69     1
   63    70     1
   64    66     1
   64    67     1
   65    71     1
   65    72     1
   66    68     1
   66    69     1
   66    70     1
   67    73     1
   67    74     1
   68    71     1
   68    72     1
   69    71     1
   69    72     1
   70    75     1
   70    76     1
   70    82     1
   71    73     1
   71    74     1
   72    77     1
   72    78     1
   72    79     1
   72    83     1
   72    84     1
   73    75     1
   73    76     1
   73    82     1
   74    80     1
   74    81     1
   74    85     1
   74    88     1
   75    77     1
   75    78     1
   75    79     1
   75    83     1
   75    84     1
   76    83     1
   76    84     1
   77    80     1
   77    81     1
   77    82     1
   78    80     1
   78    81     1
   78    82     1
   79    82     1
   82    86     1
   82    87     1
   82    89     1
   82    90     1
   82    93     1
   82    96     1
   83    85     1
   83    88     1
   84    91     1
   84    92     1
   84    94     1
   84    95     1
   84    97     1
   84    98     1
   85    89     1
   85    91     1
   85    92     1
   85    96     1
   86    88     1
   86    90     1
   86    94     1
   86    95     1
   87    88     1
   87    90     1
   87    94     1
   87    95     1
   88    94     1
   88    95     1
   88    99     1
   88   100     1
   89    91     1
   89    92     1
   89    93     1
   89    97     1
   89    98     1
   90    97     1
   90    98     1
   91    94     1
   91    95     1
   91    96     1
   92    94     1
   92    95     1
   92    96     1
   93    96     1
   96   101     1
   96   102     1
   96   103     1
   97    99     1
   97   100     1
   98   104     1
   98   105     1
   99   101     1
   99   102     1
   99   103     1
  100   106     1
  100   107     1
  101   104     1
  101   105     1
  102   104     1
  102   105     1
  103   108     1
  103   109     1
  103   115     1
  104   106     1
  104   107     1
  105   110     1
  105   111     1
  105   112     1
  105   116     1
  105   117     1
  106   108     1
  106   109     1
  106   115     1
  107   113     1
  107   114     1
  107   118     1
  107   119     1
  108   110     1
  108   111     1
  108   112     1
  108   116     1
  108   117     1
  109   116     1
  109   117     1
  110   113     1
  110   114     1
  110   115     1
  111   113     1
  111   114     1
  111   115     1
  112   115     1
  115   120     1
  115   121     1
  115   126     1
  116   118     1
  116   119     1
  117   122     1
  117   123     1
  117   124     1
  117   127     1
  117   128     1
  118   120     1
  118   121     1
  118   126     1
  119   125     1
  119   129     1
  119   130     1
  120   122     1
  120   123     1
  120   124     1
  120   127     1
  120   128     1
  121   127     1
  121   128     1
  122   125     1
  122   126     1
  123   125     1
  123   126     1
  124   126     1
  126   131     1
  126   132     1
  126   133     1
  127   129     1
  127   130     1
  128   134     1
  128   135     1
  129   131     1
  129   132     1
  129   133     1
  131   134     1
  131   135     1
  132   134     1
  132   135     1

[ angles ] 
; ai	aj	ak	funct	th0	cth	S0	Kub
    2     1     3     5
    2     1     4     5
    2     1     5     5
    3     1     4     5
    3     1     5     5
    4     1     5     5
    1     5     6     5
    1     5     7     5
    1     5    12     5
    6     5     7     5
    6     5    12     5
    7     5    12     5
    5     7     8     5
    5     7     9     5
    5     7    10     5
    8     7     9     5
    8     7    10     5
    9     7    10     5
    7    10    11     5
    5    12    13     5
    5    12    14     5
   13    12    14     5
   12    14    15     5
   12    14    16     5
   15    14    16     5
   14    16    17     5
   14    16    18     5
   14    16    19     5
   17    16    18     5
   17    16    19     5
   18    16    19     5
   16    19    20     5
   16    19    21     5
   20    19    21     5
   19    21    22     5
   19    21    23     5
   22    21    23     5
   21    23    24     5
   21    23    25     5
   21    23    31     5
   24    23    25     5
   24    23    31     5
   25    23    31     5
   23    25    26     5
   23    25    27     5
   23    25    28     5
   26    25    27     5
   26    25    28     5
   27    25    28     5
   25    28    29     5
   25    28    30     5
   29    28    30     5
   23    31    32     5
   23    31    33     5
   32    31    33     5
   31    33    34     5
   31    33    35     5
   34    33    35     5
   33    35    36     5
   33    35    37     5
   33    35    42     5
   36    35    37     5
   36    35    42     5
   37    35    42     5
   35    37    38     5
   35    37    39     5
   35    37    40     5
   38    37    39     5
   38    37    40     5
   39    37    40     5
   37    40    41     5
   35    42    43     5
   35    42    44     5
   43    42    44     5
   42    44    45     5
   42    44    46     5
   45    44    46     5
   44    46    47     5
   44    46    48     5
   44    46    49     5
   47    46    48     5
   47    46    49     5
   48    46    49     5
   46    49    50     5
   46    49    51     5
   50    49    51     5
   49    51    52     5
   49    51    55     5
   52    51    55     5
   51    52    53     5
   51    52    54     5
   51    52    60     5
   53    52    54     5
   53    52    60     5
   54    52    60     5
   51    55    56     5
   51    55    57     5
   51    55    63     5
   56    55    57     5
   56    55    63     5
   57    55    63     5
   55    57    58     5
   55    57    59     5
   55    57    60     5
   58    57    59     5
   58    57    60     5
   59    57    60     5
   52    60    57     5
   52    60    61     5
   52    60    62     5
   57    60    61     5
   57    60    62     5
   61    60    62     5
   55    63    64     5
   55    63    65     5
   64    63    65     5
   63    65    66     5
   63    65    67     5
   66    65    67     5
   65    67    68     5
   65    67    69     5
   65    67    70     5
   68    67    69     5
   68    67    70     5
   69    67    70     5
   67    70    71     5
   67    70    72     5
   71    70    72     5
   70    72    73     5
   70    72    74     5
   73    72    74     5
   72    74    75     5
   72    74    76     5
   72    74    82     5
   75    74    76     5
   75    74    82     5
   76    74    82     5
   74    76    77     5
   74    76    78     5
   74    76    79     5
   77    76    78     5
   77    76    79     5
   78    76    79     5
   76    79    80     5
   76    79    81     5
   80    79    81     5
   74    82    83     5
   74    82    84     5
   83    82    84     5
   82    84    85     5
   82    84    88     5
   85    84    88     5
   84    85    86     5
   84    85    87     5
   84    85    93     5
   86    85    87     5
   86    85    93     5
   87    85    93     5
   84    88    89     5
   84    88    90     5
   84    88    96     5
   89    88    90     5
   89    88    96     5
   90    88    96     5
   88    90    91     5
   88    90    92     5
   88    90    93     5
   91    90    92     5
   91    90    93     5
   92    90    93     5
   85    93    90     5
   85    93    94     5
   85    93    95     5
   90    93    94     5
   90    93    95     5
   94    93    95     5
   88    96    97     5
   88    96    98     5
   97    96    98     5
   96    98    99     5
   96    98   100     5
   99    98   100     5
   98   100   101     5
   98   100   102     5
   98   100   103     5
  101   100   102     5
  101   100   103     5
  102   100   103     5
  100   103   104     5
  100   103   105     5
  104   103   105     5
  103   105   106     5
  103   105   107     5
  106   105   107     5
  105   107   108     5
  105   107   109     5
  105   107   115     5
  108   107   109     5
  108   107   115     5
  109   107   115     5
  107   109   110     5
  107   109   111     5
  107   109   112     5
  110   109   111     5
  110   109   112     5
  111   109   112     5
  109   112   113     5
  109   112   114     5
  113   112   114     5
  107   115   116     5
  107   115   117     5
  116   115   117     5
  115   117   118     5
  115   117   119     5
  118   117   119     5
  117   119   120     5
  117   119   121     5
  117   119   126     5
  120   119   121     5
  120   119   126     5
  121   119   126     5
  119   121   122     5
  119   121   123     5
  119   121   124     5
  122   121   123     5
  122   121   124     5
  123   121   124     5
  121   124   125     5
  119   126   127     5
  119   126   128     5
  127   126   128     5
  126   128   129     5
  126   128   130     5
  129   128   130     5
  128   130   131     5
  128   130   132     5
  128   130   133     5
  131   130   132     5
  131   130   133     5
  132   130   133     5
  130   133   134     5
  130   133   135     5
  134   133   135     5

[ dihedrals ]
; ai	aj	ak	al	funct	phi0	cp	mult
    2     1     5     6     9
    2     1     5     7     9
    2     1     5    12     9
    3     1     5     6     9
    3     1     5     7     9
    3     1     5    12     9
    4     1     5     6     9
    4     1     5     7     9
    4     1     5    12     9
    1     5     7     8     9
    1     5     7     9     9
    1     5     7    10     9
    6     5     7     8     9
    6     5     7     9     9
    6     5     7    10     9
    1     5    12    13     9
    1     5    12    14     9
    6     5    12    13     9
    6     5    12    14     9
    7     5    12    13     9
    7     5    12    14     9
    8     7     5    12     9
    9     7     5    12     9
   10     7     5    12     9
    5     7    10    11     9
    8     7    10    11     9
    9     7    10    11     9
    5    12    14    15     9
    5    12    14    16     9
   13    12    14    15     9
   13    12    14    16     9
   12    14    16    17     9
   12    14    16    18     9
   12    14    16    19     9
   15    14    16    17     9
   15    14    16    18     9
   15    14    16    19     9
   14    16    19    20     9
   14    16    19    21     9
   17    16    19    20     9
   17    16    19    21     9
   18    16    19    20     9
   18    16    19    21     9
   16    19    21    22     9
   16    19    21    23     9
   20    19    21    22     9
   20    19    21    23     9
   19    21    23    24     9
   19    21    23    25     9
   19    21    23    31     9
   22    21    23    24     9
   22    21    23    25     9
   22    21    23    31     9
   21    23    25    26     9
   21    23    25    27     9
   21    23    25    28     9
   24    23    25    26     9
   24    23    25    27     9
   24    23    25    28     9
   21    23    31    32     9
   21    23    31    33     9
   24    23    31    32     9
   24    23    31    33     9
   25    23    31    32     9
   25    23    31    33     9
   26    25    23    31     9
   27    25    23    31     9
   28    25    23    31     9
   23    25    28    29     9
   23    25    28    30     9
   26    25    28    29     9
   26    25    28    30     9
   27    25    28    29     9
   27    25    28    30     9
   23    31    33    34     9
   23    31    33    35     9
   32    31    33    34     9
   32    31    33    35     9
   31    33    35    36     9
   31    33    35    37     9
   31    33    35    42     9
   34    33    35    36     9
   34    33    35    37     9
   34    33    35    42     9
   33    35    37    38     9
   33    35    37    39     9
   33    35    37    40     9
   36    35    37    38     9
   36    35    37    39     9
   36    35    37    40     9
   33    35    42    43     9
   33    35    42    44     9
   36    35    42    43     9
   36    35    42    44     9
   37    35    42    43     9
   37    35    42    44     9
   38    37    35    42     9
   39    37    35    42     9
   40    37    35    42     9
   35    37    40    41     9
   38    37    40    41     9
   39    37    40    41     9
   35    42    44    45     9
   35    42    44    46     9
   43    42    44    45     9
   43    42    44    46     9
   42    44    46    47     9
   42    44    46    48     9
   42    44    46    49     9
   45    44    46    47     9
   45    44    46    48     9
   45    44    46    49     9
   44    46    49    50     9
   44    46    49    51     9
   47    46    49    50     9
   47    46    49    51     9
   48    46    49    50     9
   48    46    49    51     9
   46    49    51    52     9
   46    49    51    55     9
   50    49    51    52     9
   50    49    51    55     9
   49    51    52    53     9
   49    51    52    54     9
   49    51    52    60     9
   55    51    52    60     9
   49    51    55    56     9
   49    51    55    57     9
   49    51    55    63     9
   52    51    55    56     9
   52    51    55    57     9
   52    51    55    63     9
   53    52    51    55     9
   54    52    51    55     9
   51    52    60    57     9
   51    52    60    61     9
   51    52    60    62     9
   53    52    60    57     9
   53    52    60    61     9
   53    52    60    62     9
   54    52    60    57     9
   54    52    60    61     9
   54    52    60    62     9
   51    55    57    58     9
   51    55    57    59     9
   51    55    57    60     9
   56    55    57    58     9
   56    55    57    59     9
   56    55    57    60     9
   51    55    63    64     9
   51    55    63    65     9
   56    55    63    64     9
   56    55    63    65     9
   57    55    63    64     9
   57    55    63    65     9
   58    57    55    63     9
   59    57    55    63     9
   60    57    55    63     9
   55    57    60    61     9
   55    57    60    62     9
   58    57    60    61     9
   58    57    60    62     9
   59    57    60    61     9
   59    57    60    62     9
   52    60    57    55     9
   52    60    57    58     9
   52    60    57    59     9
   55    63    65    66     9
   55    63    65    67     9
   64    63    65    66     9
   64    63    65    67     9
   63    65    67    68     9
   63    65    67    69     9
   63    65    67    70     9
   66    65    67    68     9
   66    65    67    69     9
   66    65    67    70     9
   65    67    70    71     9
   65    67    70    72     9
   68    67    70    71     9
   68    67    70    72     9
   69    67    70    71     9
   69    67    70    72     9
   67    70    72    73     9
   67    70    72    74     9
   71    70    72    73     9
   71    70    72    74     9
   70    72    74    75     9
   70    72    74    76     9
   70    72    74    82     9
   73    72    74    75     9
   73    72    74    76     9
   73    72    74    82     9
   72    74    76    77     9
   72    74    76    78     9
   72    74    76    79     9
   75    74    76    77     9
   75    74    76    78     9
   75    74    76    79     9
   72    74    82    83     9
   72    74    82    84     9
   75    74    82    83     9
   75    74    82    84     9
   76    74    82    83     9
   76    74    82    84     9
   77    76    74    82     9
   78    76    74    82     9
   79    76    74    82     9
   74    76    79    80     9
   74    76    79    81     9
   77    76    79    80     9
   77    76    79    81     9
   78    76    79    80     9
   78    76    79    81     9
   74    82    84    85     9
   74    82    84    88     9
   83    82    84    85     9
   83    82    84    88     9
   82    84    85    86     9
   82    84    85    87     9
   82    84    85    93     9
   88    84    85    93     9
   82    84    88    89     9
   82    84    88    90     9
   82    84    88    96     9
   85    84    88    89     9
   85    84    88    90     9
   85    84    88    96     9
   86    85    84    88     9
   87    85    84    88     9
   84    85    93    90     9
   84    85    93    94     9
   84    85    93    95     9
   86    85    93    90     9
   86    85    93    94     9
   86    85    93    95     9
   87    85    93    90     9
   87    85    93    94     9
   87    85    93    95     9
   84    88    90    91     9
   84    88    90    92     9
   84    88    90    93     9
   89    88    90    91     9
   89    88    90    92     9
   89    88    90    93     9
   84    88    96    97     9
   84    88    96    98     9
   89    88    96    97     9
   89    88    96    98     9
   90    88    96    97     9
   90    88    96    98     9
   91    90    88    96     9
   92    90    88    96     9
   93    90    88    96     9
   88    90    93    94     9
   88    90    93    95     9
   91    90    93    94     9
   91    90    93    95     9
   92    90    93    94     9
   92    90    93    95     9
   85    93    90    88     9
   85    93    90    91     9
   85    93    90    92     9
   88    96    98    99     9
   88    96    98   100     9
   97    96    98    99     9
   97    96    98   100     9
   96    98   100   101     9
   96    98   100   102     9
   96    98   100   103     9
   99    98   100   101     9
   99    98   100   102     9
   99    98   100   103     9
   98   100   103   104     9
   98   100   103   105     9
  101   100   103   104     9
  101   100   103   105     9
  102   100   103   104     9
  102   100   103   105     9
  100   103   105   106     9
  100   103   105   107     9
  104   103   105   106     9
  104   103   105   107     9
  103   105   107   108     9
  103   105   107   109     9
  103   105   107   115     9
  106   105   107   108     9
  106   105   107   109     9
  106   105   107   115     9
  105   107   109   110     9
  105   107   109   111     9
  105   107   109   112     9
  108   107   109   110     9
  108   107   109   111     9
  108   107   109   112     9
  105   107   115   116     9
  105   107   115   117     9
  108   107   115   116     9
  108   107   115   117     9
  109   107   115   116     9
  109   107   115   117     9
  110   109   107   115     9
  111   109   107   115     9
  112   109   107   115     9
  107   109   112   113     9
  107   109   112   114     9
  110   109   112   113     9
  110   109   112   114     9
  111   109   112   113     9
  111   109   112   114     9
  107   115   117   118     9
  107   115   117   119     9
  116   115   117   118     9
  116   115   117   119     9
  115   117   119   120     9
  115   117   119   121     9
  115   117   119   126     9
  118   117   119   120     9
  118   117   119   121     9
  118   117   119   126     9
  117   119   121   122     9
  117   119   121   123     9
  117   119   121   124     9
  120   119   121   122     9
  120   119   121   123     9
  120   119   121   124     9
  117   119   126   127     9
  117   119   126   128     9
  120   119   126   127     9
  120   119   126   128     9
  121   119   126   127     9
  121   119   126   128     9
  122   121   119   126     9
  123   121   119   126     9
  124   121   119   126     9
  119   121   124   125     9
  122   121   124   125     9
  123   121   124   125     9
  119   126   128   129     9
  119   126   128   130     9
  127   126   128   129     9
  127   126   128   130     9
  126   128   130   131     9
  126   128   130   132     9
  126   128   130   133     9
  129   128   130   131     9
  129   128   130   132     9
  129   128   130   133     9
  128   130   133   134     9
  128   130   133   135     9
  131   130   133   134     9
  131   130   133   135     9
  132   130   133   134     9
  132   130   133   135     9

[ dihedrals ]
; ai	aj	ak	al	funct	q0	cq
   12     5    14    13     2
   14    12    16    15     2
   19    16    21    20     2
   21    19    23    22     2
   28    25    30    29     2
   31    23    33    32     2
   33    31    35    34     2
   42    35    44    43     2
   44    42    46    45     2
   49    46    51    50     2
   51    49    55    52     2
   63    55    65    64     2
   65    63    67    66     2
   70    67    72    71     2
   72    70    74    73     2
   79    76    81    80     2
   82    74    84    83     2
   84    82    88    85     2
   96    88    98    97     2
   98    96   100    99     2
  103   100   105   104     2
  105   103   107   106     2
  112   109   114   113     2
  115   107   117   116     2
  117   115   119   118     2
  126   119   128   127     2
  128   126   130   129     2
  133   130   135   134     2

[ cmap ] 
; ai	aj	ak	al	am	funct
   12    14    16    19    21     1
   19    21    23    31    33     1
   31    33    35    42    44     1
   42    44    46    49    51     1
   49    51    55    63    65     1
   63    65    67    70    72     1
   70    72    74    82    84     1
   82    84    88    96    98     1
   96    98   100   103   105     1
  103   105   107   115   117     1
  115   117   119   126   128     1

#ifdef POSRES
[ position_restraints ]
    1     1    POSRES_FC_BB    POSRES_FC_BB    POSRES_FC_BB   
    5     1    POSRES_FC_BB    POSRES_FC_BB    POSRES_FC_BB   
    7     1    POSRES_FC_SC    POSRES_FC_SC    POSRES_FC_SC   
   10     1    POSRES_FC_SC    POSRES_FC_SC    POSRES_FC_SC   
   12     1    POSRES_FC_BB    POSRES_FC_BB    POSRES_FC_BB   
   13     1    POSRES_FC_BB    POSRES_FC_BB    POSRES_FC_BB   
   14     1    POSRES_FC_BB    POSRES_FC_BB    POSRES_FC_BB   
   16     1    POSRES_FC_BB    POSRES_FC_BB    POSRES_FC_BB   
   19     1    POSRES_FC_BB    POSRES_FC_BB    POSRES_FC_BB   
   20     1    POSRES_FC_BB    POSRES_FC_BB    POSRES_FC_BB   
   21     1    POSRES_FC_BB    POSRES_FC_BB    POSRES_FC_BB   
   23     1    POSRES_FC_BB    POSRES_FC_BB    POSRES_FC_BB   
   25     1    POSRES_FC_SC    POSRES_FC_SC    POSRES_FC_SC   
   28     1    POSRES_FC_SC    POSRES_FC_SC    POSRES_FC_SC   
   29     1    POSRES_FC_SC    POSRES_FC_SC    POSRES_FC_SC   
   30     1    POSRES_FC_SC    POSRES_FC_SC    POSRES_FC_SC   
   31     1    POSRES_FC_BB    POSRES_FC_BB    POSRES_FC_BB   
   32     1    POSRES_FC_BB    POSRES_FC_BB    POSRES_FC_BB   
   33     1    POSRES_FC_BB    POSRES_FC_BB    POSRES_FC_BB   
   35     1    POSRES_FC_BB    POSRES_FC_BB    POSRES_FC_BB   
   37     1    POSRES_FC_SC    POSRES_FC_SC    POSRES_FC_SC   
   40     1    POSRES_FC_SC    POSRES_FC_SC    POSRES_FC_SC   
   42     1    POSRES_FC_BB    POSRES_FC_BB    POSRES_FC_BB   
   43     1    POSRES_FC_BB    POSRES_FC_BB    POSRES_FC_BB   
   44     1    POSRES_FC_BB    POSRES_FC_BB    POSRES_FC_BB   
   46     1    POSRES_FC_BB    POSRES_FC_BB    POSRES_FC_BB   
   49     1    POSRES_FC_BB    POSRES_FC_BB    POSRES_FC_BB   
   50     1    POSRES_FC_BB    POSRES_FC_BB    POSRES_FC_BB   
   51     1    POSRES_FC_BB    POSRES_FC_BB    POSRES_FC_BB   
   52     1    POSRES_FC_SC    POSRES_FC_SC    POSRES_FC_SC   
   55     1    POSRES_FC_BB    POSRES_FC_BB    POSRES_FC_BB   
   57     1    POSRES_FC_SC    POSRES_FC_SC    POSRES_FC_SC   
   60     1    POSRES_FC_SC    POSRES_FC_SC    POSRES_FC_SC   
   63     1    POSRES_FC_BB    POSRES_FC_BB    POSRES_FC_BB   
   64     1    POSRES_FC_BB    POSRES_FC_BB    POSRES_FC_BB   
   65     1    POSRES_FC_BB    POSRES_FC_BB    POSRES_FC_BB   
   67     1    POSRES_FC_BB    POSRES_FC_BB    POSRES_FC_BB   
   70     1    POSRES_FC_BB    POSRES_FC_BB    POSRES_FC_BB   
   71     1    POSRES_FC_BB    POSRES_FC_BB    POSRES_FC_BB   
   72     1    POSRES_FC_BB    POSRES_FC_BB    POSRES_FC_BB   
   74     1    POSRES_FC_BB    POSRES_FC_BB    POSRES_FC_BB   
   76     1    POSRES_FC_SC    POSRES_FC_SC    POSRES_FC_SC   
   79     1    POSRES_FC_SC    POSRES_FC_SC    POSRES_FC_SC   
   80     1    POSRES_FC_SC    POSRES_FC_SC    POSRES_FC_SC   
   81     1    POSRES_FC_SC    POSRES_FC_SC    POSRES_FC_SC   
   82     1    POSRES_FC_BB    POSRES_FC_BB    POSRES_FC_BB   
   83     1    POSRES_FC_BB    POSRES_FC_BB    POSRES_FC_BB   
   84     1    POSRES_FC_BB    POSRES_FC_BB    POSRES_FC_BB   
   85     1    POSRES_FC_SC    POSRES_FC_SC    POSRES_FC_SC   
   88     1    POSRES_FC_BB    POSRES_FC_BB    POSRES_FC_BB   
   90     1    POSRES_FC_SC    POSRES_FC_SC    POSRES_FC_SC   
   93     1    POSRES_FC_SC    POSRES_FC_SC    POSRES_FC_SC   
   96     1    POSRES_FC_BB    POSRES_FC_BB    POSRES_FC_BB   
   97     1    POSRES_FC_BB    POSRES_FC_BB    POSRES_FC_BB   
   98     1    POSRES_FC_BB    POSRES_FC_BB    POSRES_FC_BB   
  100     1    POSRES_FC_BB    POSRES_FC_BB    POSRES_FC_BB   
  103     1    POSRES_FC_BB    POSRES_FC_BB    POSRES_FC_BB   
  104     1    POSRES_FC_BB    POSRES_FC_BB    POSRES_FC_BB   
  105     1    POSRES_FC_BB    POSRES_FC_BB    POSRES_FC_BB   
  107     1    POSRES_FC_BB    POSRES_FC_BB    POSRES_FC_BB   
  109     1    POSRES_FC_SC    POSRES_FC_SC    POSRES_FC_SC   
  112     1    POSRES_FC_SC    POSRES_FC_SC    POSRES_FC_SC   
  113     1    POSRES_FC_SC    POSRES_FC_SC    POSRES_FC_SC   
  114     1    POSRES_FC_SC    POSRES_FC_SC    POSRES_FC_SC   
  115     1    POSRES_FC_BB    POSRES_FC_BB    POSRES_FC_BB   
  116     1    POSRES_FC_BB    POSRES_FC_BB    POSRES_FC_BB   
  117     1    POSRES_FC_BB    POSRES_FC_BB    POSRES_FC_BB   
  119     1    POSRES_FC_BB    POSRES_FC_BB    POSRES_FC_BB   
  121     1    POSRES_FC_SC    POSRES_FC_SC    POSRES_FC_SC   
  124     1    POSRES_FC_SC    POSRES_FC_SC    POSRES_FC_SC   
  126     1    POSRES_FC_BB    POSRES_FC_BB    POSRES_FC_BB   
  127     1    POSRES_FC_BB    POSRES_FC_BB    POSRES_FC_BB   
  128     1    POSRES_FC_BB    POSRES_FC_BB    POSRES_FC_BB   
  130     1    POSRES_FC_BB    POSRES_FC_BB    POSRES_FC_BB   
  133     1    POSRES_FC_BB    POSRES_FC_BB    POSRES_FC_BB   
  134     1    POSRES_FC_SC    POSRES_FC_SC    POSRES_FC_SC   
  135     1    POSRES_FC_SC    POSRES_FC_SC    POSRES_FC_SC   
#endif
