Title t= 315.00000 step= 157500
44434
    1GLY      N    1   4.995   3.260   4.920
    1GLY    HT1    2   5.054   3.228   4.840
    1GLY    HT2    3   5.059   3.283   4.998
    1GLY    HT3    4   4.942   3.339   4.879
    1GLY     CA    5   4.913   3.144   4.963
    1GLY    HA1    6   4.836   3.199   5.015
    1GLY    HA2    7   4.964   3.076   5.029
    1GLY      C    8   4.849   3.058   4.857
    1GLY      O    9   4.882   3.071   4.740
    2PRO      N   10   4.765   2.956   4.894
    2PRO     CD   11   4.725   2.932   5.031
    2PRO    HD1   12   4.652   3.013   5.052
    2PRO    HD2   13   4.807   2.946   5.104
    2PRO     CA   14   4.680   2.878   4.803
    2PRO     HA   15   4.743   2.803   4.757
    2PRO     CB   16   4.579   2.808   4.899
    2PRO    HB1   17   4.558   2.706   4.859
    2PRO    HB2   18   4.487   2.868   4.914
    2PRO     CG   19   4.657   2.794   5.033
    2PRO    HG1   20   4.595   2.769   5.122
    2PRO    HG2   21   4.744   2.726   5.028
    2PRO      C   22   4.599   2.956   4.696
    2PRO      O   23   4.571   3.076   4.713
    3GLY      N   24   4.568   2.893   4.581
    3GLY     HN   25   4.619   2.811   4.555
    3GLY     CA   26   4.486   2.948   4.465
    3GLY    HA1   27   4.391   2.974   4.509
    3GLY    HA2   28   4.474   2.879   4.382
    3GLY      C   29   4.555   3.063   4.400
    3GLY      O   30   4.665   3.113   4.434
    4ASP      N   31   4.491   3.120   4.296
    4ASP     HN   32   4.412   3.066   4.269
    4ASP     CA   33   4.544   3.223   4.206
    4ASP     HA   34   4.634   3.175   4.172
    4ASP     CB   35   4.442   3.247   4.080
    4ASP    HB1   36   4.470   3.336   4.020
    4ASP    HB2   37   4.347   3.271   4.132
    4ASP     CG   38   4.431   3.123   3.991
    4ASP    OD1   39   4.518   3.034   3.996
    4ASP    OD2   40   4.345   3.126   3.899
    4ASP      C   41   4.577   3.359   4.272
    4ASP      O   42   4.487   3.407   4.344
    5PRO      N   43   4.698   3.413   4.258
    5PRO     CD   44   4.815   3.338   4.214
    5PRO    HD1   45   4.806   3.298   4.111
    5PRO    HD2   46   4.828   3.243   4.270
    5PRO     CA   47   4.745   3.545   4.303
    5PRO     HA   48   4.770   3.538   4.407
    5PRO     CB   49   4.869   3.567   4.222
    5PRO    HB1   50   4.938   3.643   4.266
    5PRO    HB2   51   4.843   3.613   4.124
    5PRO     CG   52   4.934   3.435   4.218
    5PRO    HG1   53   4.994   3.412   4.127
    5PRO    HG2   54   4.985   3.419   4.314
    5PRO      C   55   4.653   3.663   4.278
    5PRO      O   56   4.588   3.667   4.175
    6GLY      N   57   4.655   3.760   4.372
    6GLY     HN   58   4.720   3.762   4.448
    6GLY     CA   59   4.569   3.872   4.362
    6GLY    HA1   60   4.573   3.918   4.460
    6GLY    HA2   61   4.468   3.851   4.329
    6GLY      C   62   4.617   3.986   4.263
    6GLY      O   63   4.721   3.975   4.202
    7SER      N   64   4.538   4.088   4.256
    7SER     HN   65   4.453   4.091   4.308
    7SER     CA   66   4.569   4.209   4.179
    7SER     HA   67   4.596   4.174   4.080
    7SER     CB   68   4.451   4.303   4.176
    7SER    HB1   69   4.474   4.399   4.124
    7SER    HB2   70   4.428   4.327   4.282
    7SER     OG   71   4.337   4.249   4.113
    7SER    HG1   72   4.353   4.250   4.019
    7SER      C   73   4.689   4.282   4.232
    7SER      O   74   4.698   4.328   4.345
    8GLY      N   75   4.794   4.289   4.149
    8GLY     HN   76   4.785   4.233   4.067
    8GLY     CA   77   4.911   4.374   4.145
    8GLY    HA1   78   4.974   4.350   4.061
    8GLY    HA2   79   4.960   4.346   4.237
    8GLY      C   80   4.897   4.520   4.137
    8GLY      O   81   4.789   4.576   4.115
    9ASN      N   82   5.009   4.592   4.160
    9ASN     HN   83   5.085   4.534   4.188
    9ASN     CA   84   5.033   4.739   4.140
    9ASN     HA   85   4.935   4.785   4.148
    9ASN     CB   86   5.124   4.792   4.256
    9ASN    HB1   87   5.229   4.773   4.224
    9ASN    HB2   88   5.110   4.738   4.352
    9ASN     CG   89   5.112   4.942   4.281
    9ASN    OD1   90   5.058   5.010   4.202
    9ASN    ND2   91   5.176   4.984   4.393
    9ASN   HD21   92   5.188   5.083   4.402
    9ASN   HD22   93   5.223   4.909   4.440
    9ASN      C   94   5.081   4.758   4.001
    9ASN      O   95   5.183   4.699   3.963
   10PRO      N   96   5.022   4.837   3.916
   10PRO     CD   97   4.877   4.876   3.919
   10PRO    HD1   98   4.850   4.948   3.999
   10PRO    HD2   99   4.808   4.790   3.933
   10PRO     CA  100   5.084   4.884   3.792
   10PRO     HA  101   5.104   4.801   3.726
   10PRO     CB  102   4.991   4.998   3.744
   10PRO    HB1  103   4.996   5.006   3.633
   10PRO    HB2  104   5.014   5.097   3.789
   10PRO     CG  105   4.851   4.954   3.793
   10PRO    HG1  106   4.779   5.036   3.812
   10PRO    HG2  107   4.797   4.881   3.729
   10PRO      C  108   5.231   4.936   3.807
   10PRO      O  109   5.262   4.987   3.914
   11GLY      N  110   5.318   4.925   3.701
   11GLY     HN  111   5.292   4.866   3.625
   11GLY     CA  112   5.454   4.995   3.693
   11GLY    HA1  113   5.517   4.928   3.636
   11GLY    HA2  114   5.475   5.011   3.798
   11GLY      C  115   5.441   5.131   3.627
   11GLY      O  116   5.333   5.182   3.616
   12SER      N  117   5.554   5.184   3.580
   12SER     HN  118   5.639   5.145   3.614
   12SER     CA  119   5.565   5.317   3.514
   12SER     HA  120   5.492   5.386   3.554
   12SER     CB  121   5.703   5.388   3.547
   12SER    HB1  122   5.733   5.483   3.498
   12SER    HB2  123   5.782   5.316   3.517
   12SER     OG  124   5.710   5.414   3.695
   12SER    HG1  125   5.641   5.479   3.709
   12SER      C  126   5.540   5.318   3.365
   12SER      O  127   5.537   5.212   3.299
   13GLY      N  128   5.510   5.442   3.314
   13GLY     HN  129   5.534   5.526   3.363
   13GLY     CA  130   5.503   5.475   3.167
   13GLY    HA1  131   5.488   5.582   3.159
   13GLY    HA2  132   5.424   5.420   3.120
   13GLY      C  133   5.630   5.445   3.097
   13GLY      O  134   5.741   5.473   3.145
   14ASP      N  135   5.614   5.396   2.973
   14ASP     HN  136   5.523   5.382   2.936
   14ASP     CA  137   5.713   5.351   2.879
   14ASP     HA  138   5.777   5.287   2.939
   14ASP     CB  139   5.653   5.279   2.757
   14ASP    HB1  140   5.722   5.272   2.671
   14ASP    HB2  141   5.573   5.340   2.711
   14ASP     CG  142   5.607   5.139   2.794
   14ASP    OD1  143   5.514   5.077   2.733
   14ASP    OD2  144   5.672   5.077   2.884
   14ASP      C  145   5.809   5.458   2.827
   14ASP      O  146   5.771   5.567   2.798
   15PRO      N  147   5.937   5.434   2.797
   15PRO     CD  148   6.017   5.317   2.831
   15PRO    HD1  149   5.982   5.231   2.772
   15PRO    HD2  150   6.015   5.304   2.942
   15PRO     CA  151   6.021   5.539   2.732
   15PRO     HA  152   5.991   5.637   2.767
   15PRO     CB  153   6.168   5.493   2.772
   15PRO    HB1  154   6.204   5.537   2.867
   15PRO    HB2  155   6.235   5.519   2.687
   15PRO     CG  156   6.160   5.338   2.788
   15PRO    HG1  157   6.187   5.301   2.686
   15PRO    HG2  158   6.238   5.316   2.863
   15PRO      C  159   6.000   5.530   2.582
   15PRO    OT1  160   6.064   5.611   2.512
   15PRO    OT2  161   5.928   5.445   2.523
   16LIT    LIT  162   4.446   2.977   3.819
   17LIT    LIT  163   5.658   3.625   3.061
   18LIT    LIT  164   5.934   1.320   1.517
   19LIT    LIT  165   3.014   5.286   4.426
   20LIT    LIT  166   6.051   4.826   4.685
   21LIT    LIT  167   0.358   2.800   6.679
   22LIT    LIT  168   0.636   2.108   5.825
   23LIT    LIT  169   5.190   1.275   1.199
   24LIT    LIT  170   5.721   6.989   4.768
   25LIT    LIT  171   7.694   0.503   4.503
   26LIT    LIT  172   2.155   3.641   4.082
   27LIT    LIT  173   1.435   0.043   3.913
   28LIT    LIT  174   6.943   3.139   2.601
   29LIT    LIT  175   0.729   2.308   3.311
   30LIT    LIT  176   0.289   0.037   5.864
   31LIT    LIT  177   1.653   0.134   0.806
   32LIT    LIT  178   0.851   2.215   5.226
   33LIT    LIT  179   4.603   0.358   0.993
   34LIT    LIT  180   4.636   2.817   6.809
   35LIT    LIT  181   4.418   3.019   0.116
   36LIT    LIT  182   3.710   6.335   1.694
   37LIT    LIT  183   1.193   5.016   2.725
   38LIT    LIT  184   5.758   4.959   5.620
   39LIT    LIT  185   7.654   7.068   4.395
   40LIT    LIT  186   6.025   5.443   3.347
   41LIT    LIT  187   5.984   5.558   2.344
   42LIT    LIT  188   2.740   0.762   6.525
   43LIT    LIT  189   1.380   0.819   2.406
   44LIT    LIT  190   6.266   5.975   2.596
   45LIT    LIT  191   0.651   2.963   1.998
   46LIT    LIT  192   4.480   3.191   0.648
   47LIT    LIT  193   3.768   1.092   0.205
   48LIT    LIT  194   7.303   5.821   4.959
   49LIT    LIT  195   5.514   4.978   2.921
   50LIT    LIT  196   5.766   1.461   2.073
   51LIT    LIT  197   2.346   0.033   0.277
   52LIT    LIT  198   7.405   2.882   5.359
   53LIT    LIT  199   3.620   4.933   3.522
   54LIT    LIT  200   7.266   6.697   3.715
   55LIT    LIT  201   1.707   1.224   5.408
   56LIT    LIT  202   0.266   7.419   0.863
   57LIT    LIT  203   6.967   0.514   2.872
   58LIT    LIT  204   7.317   5.738   0.364
   59LIT    LIT  205   3.068   5.113   1.461
   60CLA    CLA  206   7.043   7.485   4.255
   61CLA    CLA  207   5.242   4.630   5.389
   62CLA    CLA  208   5.788   5.475   0.756
   63CLA    CLA  209   0.086   3.730   1.316
   64CLA    CLA  210   6.693   5.740   4.342
   65CLA    CLA  211   3.952   0.210   1.496
   66CLA    CLA  212   2.457   1.608   5.538
   67CLA    CLA  213   2.564   6.332   1.317
   68CLA    CLA  214   6.489   1.978   4.966
   69CLA    CLA  215   0.337   2.205   4.618
   70CLA    CLA  216   4.861   5.490   0.447
   71CLA    CLA  217   1.639   1.215   6.643
   72CLA    CLA  218   7.278   2.955   2.861
   73CLA    CLA  219   3.052   3.705   4.017
   74CLA    CLA  220   4.107   5.139   1.406
   75CLA    CLA  221   5.249   1.463   4.613
   76CLA    CLA  222   2.995   4.397   4.862
   77CLA    CLA  223   2.628   2.603   5.042
   78CLA    CLA  224   3.566   6.504   6.139
   79CLA    CLA  225   1.420   0.079   1.169
   80CLA    CLA  226   4.771   1.189   0.227
   81CLA    CLA  227   7.141   0.403   2.794
   82CLA    CLA  228   4.382   7.750   4.127
   83CLA    CLA  229   8.147   3.102   5.061
   84CLA    CLA  230   4.935   1.710   6.066
   85CLA    CLA  231   2.906   7.488   0.493
   86CLA    CLA  232   6.651   3.496   3.218
   87CLA    CLA  233   7.566   6.162   2.012
   88CLA    CLA  234   0.777   5.997   3.543
   89CLA    CLA  235   3.698   0.520   0.073
   90CLA    CLA  236   7.800   7.290   1.685
   91CLA    CLA  237   6.976   0.077   0.972
   92CLA    CLA  238   3.925   6.140   6.685
   93CLA    CLA  239   3.871   0.488   4.144
   94CLA    CLA  240   4.812   5.079   6.252
   95CLA    CLA  241   7.165   5.710   0.536
   96CLA    CLA  242   7.913   0.568   4.544
   97CLA    CLA  243   5.456   4.714   3.198
   98CLA    CLA  244   1.917   3.835   6.264
   99CLA    CLA  245   7.696   7.572   6.400
  100CLA    CLA  246   2.495   4.577   2.450
  101CLA    CLA  247   8.103   1.262   0.509
  102TIP3   OH2  248   3.257   2.079   3.684
  102TIP3    H1  249   3.344   2.110   3.710
  102TIP3    H2  250   3.202   2.096   3.760
  103TIP3   OH2  251   3.846   7.256   4.405
  103TIP3    H1  252   3.901   7.329   4.435
  103TIP3    H2  253   3.827   7.206   4.484
  104TIP3   OH2  254   1.809   0.121   4.507
  104TIP3    H1  255   1.837   0.212   4.520
  104TIP3    H2  256   1.856   0.092   4.430
  105TIP3   OH2  257   4.191   7.547   1.562
  105TIP3    H1  258   4.107   7.505   1.543
  105TIP3    H2  259   4.252   7.506   1.501
  106TIP3   OH2  260   5.179   1.383   0.589
  106TIP3    H1  261   5.224   1.400   0.671
  106TIP3    H2  262   5.091   1.355   0.614
  107TIP3   OH2  263   4.729   2.200   0.567
  107TIP3    H1  264   4.722   2.169   0.477
  107TIP3    H2  265   4.774   2.284   0.560
  108TIP3   OH2  266   1.308   2.807   0.786
  108TIP3    H1  267   1.316   2.832   0.878
  108TIP3    H2  268   1.398   2.807   0.753
  109TIP3   OH2  269   5.185   1.189   1.567
  109TIP3    H1  270   5.190   1.133   1.644
  109TIP3    H2  271   5.128   1.142   1.507
  110TIP3   OH2  272   1.203   6.784   6.257
  110TIP3    H1  273   1.290   6.790   6.218
  110TIP3    H2  274   1.155   6.859   6.221
  111TIP3   OH2  275   7.440   3.479   6.386
  111TIP3    H1  276   7.373   3.543   6.360
  111TIP3    H2  277   7.396   3.423   6.449
  112TIP3   OH2  278   3.158   4.055   5.381
  112TIP3    H1  279   3.129   4.100   5.301
  112TIP3    H2  280   3.093   4.081   5.447
  113TIP3   OH2  281   7.573   7.769   5.699
  113TIP3    H1  282   7.558   7.860   5.723
  113TIP3    H2  283   7.668   7.760   5.695
  114TIP3   OH2  284   5.494   7.321   1.425
  114TIP3    H1  285   5.491   7.298   1.332
  114TIP3    H2  286   5.407   7.357   1.443
  115TIP3   OH2  287   8.050   1.481   1.943
  115TIP3    H1  288   8.125   1.522   1.986
  115TIP3    H2  289   8.088   1.411   1.890
  116TIP3   OH2  290   3.291   1.785   3.826
  116TIP3    H1  291   3.352   1.711   3.830
  116TIP3    H2  292   3.329   1.850   3.885
  117TIP3   OH2  293   1.243   5.978   4.268
  117TIP3    H1  294   1.273   5.945   4.353
  117TIP3    H2  295   1.159   6.019   4.286
  118TIP3   OH2  296   3.064   0.627   5.600
  118TIP3    H1  297   3.042   0.630   5.507
  118TIP3    H2  298   2.993   0.676   5.643
  119TIP3   OH2  299   1.173   4.151   2.048
  119TIP3    H1  300   1.174   4.182   2.138
  119TIP3    H2  301   1.250   4.193   2.008
  120TIP3   OH2  302   8.144   4.980   3.992
  120TIP3    H1  303   8.224   4.931   4.012
  120TIP3    H2  304   8.124   5.027   4.073
  121TIP3   OH2  305   0.467   2.926   1.292
  121TIP3    H1  306   0.529   2.947   1.222
  121TIP3    H2  307   0.523   2.912   1.369
  122TIP3   OH2  308   4.737   0.420   6.695
  122TIP3    H1  309   4.705   0.449   6.610
  122TIP3    H2  310   4.830   0.444   6.696
  123TIP3   OH2  311   5.433   5.919   2.300
  123TIP3    H1  312   5.461   5.879   2.217
  123TIP3    H2  313   5.513   5.923   2.353
  124TIP3   OH2  314   4.952   5.679   0.926
  124TIP3    H1  315   4.968   5.610   0.991
  124TIP3    H2  316   5.031   5.680   0.873
  125TIP3   OH2  317   1.571   2.151   3.888
  125TIP3    H1  318   1.598   2.066   3.854
  125TIP3    H2  319   1.480   2.161   3.860
  126TIP3   OH2  320   2.277   5.287   6.270
  126TIP3    H1  321   2.364   5.275   6.231
  126TIP3    H2  322   2.293   5.285   6.364
  127TIP3   OH2  323   6.972   1.073   4.393
  127TIP3    H1  324   6.993   0.987   4.428
  127TIP3    H2  325   7.055   1.107   4.361
  128TIP3   OH2  326   2.696   1.935   6.071
  128TIP3    H1  327   2.737   1.862   6.024
  128TIP3    H2  328   2.678   1.901   6.158
  129TIP3   OH2  329   4.630   1.612   6.216
  129TIP3    H1  330   4.708   1.658   6.186
  129TIP3    H2  331   4.606   1.656   6.297
  130TIP3   OH2  332   7.921   1.826  -0.018
  130TIP3    H1  333   7.985   1.798   0.048
  130TIP3    H2  334   7.898   1.915   0.008
  131TIP3   OH2  335   4.234   0.830   5.661
  131TIP3    H1  336   4.216   0.860   5.572
  131TIP3    H2  337   4.228   0.735   5.657
  132TIP3   OH2  338   0.540   5.030   4.261
  132TIP3    H1  339   0.464   5.051   4.314
  132TIP3    H2  340   0.612   5.078   4.303
  133TIP3   OH2  341   7.762   1.492   5.323
  133TIP3    H1  342   7.719   1.578   5.327
  133TIP3    H2  343   7.801   1.482   5.410
  134TIP3   OH2  344   2.979   1.290   5.736
  134TIP3    H1  345   2.893   1.320   5.766
  134TIP3    H2  346   3.021   1.369   5.703
  135TIP3   OH2  347   7.986   1.743   5.183
  135TIP3    H1  348   7.998   1.766   5.091
  135TIP3    H2  349   8.074   1.725   5.215
  136TIP3   OH2  350   6.246   1.516   2.808
  136TIP3    H1  351   6.248   1.553   2.719
  136TIP3    H2  352   6.212   1.427   2.795
  137TIP3   OH2  353   0.806   3.023   5.661
  137TIP3    H1  354   0.761   3.046   5.743
  137TIP3    H2  355   0.869   3.093   5.648
  138TIP3   OH2  356   0.716   5.772   5.116
  138TIP3    H1  357   0.736   5.768   5.022
  138TIP3    H2  358   0.772   5.706   5.156
  139TIP3   OH2  359   4.278   4.494   6.282
  139TIP3    H1  360   4.303   4.585   6.292
  139TIP3    H2  361   4.359   4.445   6.299
  140TIP3   OH2  362   2.055   4.842   6.180
  140TIP3    H1  363   1.961   4.860   6.181
  140TIP3    H2  364   2.071   4.796   6.263
  141TIP3   OH2  365   3.724   6.418   2.563
  141TIP3    H1  366   3.806   6.424   2.515
  141TIP3    H2  367   3.748   6.380   2.648
  142TIP3   OH2  368   2.582   3.802   2.920
  142TIP3    H1  369   2.526   3.736   2.879
  142TIP3    H2  370   2.669   3.763   2.918
  143TIP3   OH2  371   5.745   0.767   2.442
  143TIP3    H1  372   5.668   0.765   2.384
  143TIP3    H2  373   5.733   0.692   2.499
  144TIP3   OH2  374   5.509   7.020   6.510
  144TIP3    H1  375   5.417   7.046   6.503
  144TIP3    H2  376   5.514   6.971   6.593
  145TIP3   OH2  377   0.620   2.921   6.056
  145TIP3    H1  378   0.582   2.991   6.003
  145TIP3    H2  379   0.715   2.935   6.049
  146TIP3   OH2  380   5.267   1.417   2.621
  146TIP3    H1  381   5.206   1.353   2.583
  146TIP3    H2  382   5.228   1.502   2.600
  147TIP3   OH2  383   3.728   0.812   2.960
  147TIP3    H1  384   3.686   0.759   3.028
  147TIP3    H2  385   3.806   0.848   3.003
  148TIP3   OH2  386   0.047   1.893   2.772
  148TIP3    H1  387   0.053   1.798   2.765
  148TIP3    H2  388  -0.024   1.917   2.712
  149TIP3   OH2  389   4.250   4.527   1.181
  149TIP3    H1  390   4.177   4.469   1.204
  149TIP3    H2  391   4.213   4.615   1.186
  150TIP3   OH2  392   6.994   3.042   4.693
  150TIP3    H1  393   6.977   2.961   4.644
  150TIP3    H2  394   6.910   3.088   4.691
  151TIP3   OH2  395   1.116   0.621   0.295
  151TIP3    H1  396   1.114   0.693   0.231
  151TIP3    H2  397   1.127   0.542   0.241
  152TIP3   OH2  398   6.499   3.283   6.540
  152TIP3    H1  399   6.580   3.304   6.587
  152TIP3    H2  400   6.527   3.245   6.457
  153TIP3   OH2  401   6.176   1.940   3.138
  153TIP3    H1  402   6.142   1.875   3.077
  153TIP3    H2  403   6.110   1.944   3.208
  154TIP3   OH2  404   6.667   5.155   0.799
  154TIP3    H1  405   6.716   5.125   0.875
  154TIP3    H2  406   6.628   5.075   0.762
  155TIP3   OH2  407   4.290   5.563   2.814
  155TIP3    H1  408   4.239   5.643   2.818
  155TIP3    H2  409   4.348   5.575   2.738
  156TIP3   OH2  410   6.575   2.805   0.729
  156TIP3    H1  411   6.520   2.796   0.807
  156TIP3    H2  412   6.610   2.894   0.735
  157TIP3   OH2  413   2.158   1.189   4.955
  157TIP3    H1  414   2.195   1.256   4.897
  157TIP3    H2  415   2.215   1.191   5.033
  158TIP3   OH2  416   2.959   6.745   4.794
  158TIP3    H1  417   3.019   6.692   4.846
  158TIP3    H2  418   2.958   6.831   4.837
  159TIP3   OH2  419   0.276   0.676   0.571
  159TIP3    H1  420   0.270   0.684   0.666
  159TIP3    H2  421   0.348   0.734   0.547
  160TIP3   OH2  422   1.895   1.770   2.511
  160TIP3    H1  423   1.945   1.692   2.538
  160TIP3    H2  424   1.852   1.743   2.430
  161TIP3   OH2  425   3.184   1.322   5.323
  161TIP3    H1  426   3.134   1.241   5.316
  161TIP3    H2  427   3.262   1.298   5.372
  162TIP3   OH2  428   6.929   7.362   3.070
  162TIP3    H1  429   6.880   7.430   3.024
  162TIP3    H2  430   6.970   7.310   3.000
  163TIP3   OH2  431   0.790   4.151   2.554
  163TIP3    H1  432   0.845   4.123   2.481
  163TIP3    H2  433   0.842   4.217   2.599
  164TIP3   OH2  434   7.980   3.623   5.736
  164TIP3    H1  435   8.062   3.596   5.777
  164TIP3    H2  436   8.006   3.666   5.655
  165TIP3   OH2  437   1.752   1.347   0.342
  165TIP3    H1  438   1.810   1.304   0.279
  165TIP3    H2  439   1.715   1.276   0.394
  166TIP3   OH2  440   3.171   0.023   0.763
  166TIP3    H1  441   3.076   0.016   0.775
  166TIP3    H2  442   3.184   0.110   0.724
  167TIP3   OH2  443   0.442   1.102   1.275
  167TIP3    H1  444   0.366   1.102   1.334
  167TIP3    H2  445   0.475   1.012   1.279
  168TIP3   OH2  446   6.481   2.068   0.984
  168TIP3    H1  447   6.399   2.071   0.934
  168TIP3    H2  448   6.512   2.158   0.984
  169TIP3   OH2  449   3.422   7.281   6.340
  169TIP3    H1  450   3.491   7.303   6.277
  169TIP3    H2  451   3.370   7.361   6.347
  170TIP3   OH2  452   3.855   1.070   0.809
  170TIP3    H1  453   3.794   1.064   0.883
  170TIP3    H2  454   3.922   1.132   0.838
  171TIP3   OH2  455   6.007   0.315   5.331
  171TIP3    H1  456   5.984   0.320   5.238
  171TIP3    H2  457   6.082   0.374   5.341
  172TIP3   OH2  458   3.682   7.347   4.793
  172TIP3    H1  459   3.697   7.287   4.719
  172TIP3    H2  460   3.673   7.289   4.869
  173TIP3   OH2  461   4.773   0.841   1.356
  173TIP3    H1  462   4.765   0.803   1.443
  173TIP3    H2  463   4.691   0.887   1.342
  174TIP3   OH2  464   5.515   0.189   3.958
  174TIP3    H1  465   5.555   0.245   3.891
  174TIP3    H2  466   5.576   0.115   3.967
  175TIP3   OH2  467   5.076   6.673   0.398
  175TIP3    H1  468   5.099   6.752   0.446
  175TIP3    H2  469   5.084   6.698   0.306
  176TIP3   OH2  470   1.024   7.489   4.704
  176TIP3    H1  471   0.981   7.411   4.669
  176TIP3    H2  472   1.006   7.558   4.640
  177TIP3   OH2  473   8.207   3.482   1.978
  177TIP3    H1  474   8.250   3.424   1.915
  177TIP3    H2  475   8.135   3.522   1.929
  178TIP3   OH2  476  -0.038   5.133   6.561
  178TIP3    H1  477   0.030   5.124   6.495
  178TIP3    H2  478  -0.012   5.210   6.611
  179TIP3   OH2  479   5.036   7.668   0.395
  179TIP3    H1  480   5.128   7.694   0.401
  179TIP3    H2  481   5.000   7.683   0.482
  180TIP3   OH2  482   2.001   6.662   5.800
  180TIP3    H1  483   1.928   6.601   5.817
  180TIP3    H2  484   2.067   6.639   5.865
  181TIP3   OH2  485   4.354   1.036   3.615
  181TIP3    H1  486   4.295   0.961   3.625
  181TIP3    H2  487   4.348   1.082   3.699
  182TIP3   OH2  488   0.462   4.358   6.562
  182TIP3    H1  489   0.428   4.399   6.483
  182TIP3    H2  490   0.519   4.424   6.601
  183TIP3   OH2  491   4.464   1.795   2.672
  183TIP3    H1  492   4.414   1.719   2.703
  183TIP3    H2  493   4.466   1.785   2.577
  184TIP3   OH2  494   6.585   0.333   2.735
  184TIP3    H1  495   6.580   0.279   2.814
  184TIP3    H2  496   6.652   0.290   2.681
  185TIP3   OH2  497   6.649   1.762   0.078
  185TIP3    H1  498   6.703   1.710   0.018
  185TIP3    H2  499   6.647   1.850   0.039
  186TIP3   OH2  500   5.253   2.132   2.521
  186TIP3    H1  501   5.318   2.148   2.589
  186TIP3    H2  502   5.178   2.186   2.546
  187TIP3   OH2  503   1.904   6.004   6.093
  187TIP3    H1  504   1.943   6.049   6.018
  187TIP3    H2  505   1.966   5.935   6.115
  188TIP3   OH2  506   3.072   0.363   3.706
  188TIP3    H1  507   2.987   0.405   3.696
  188TIP3    H2  508   3.091   0.325   3.620
  189TIP3   OH2  509   2.332   0.332   0.556
  189TIP3    H1  510   2.339   0.373   0.470
  189TIP3    H2  511   2.407   0.273   0.560
  190TIP3   OH2  512   0.372   5.769   1.647
  190TIP3    H1  513   0.407   5.699   1.592
  190TIP3    H2  514   0.280   5.745   1.660
  191TIP3   OH2  515   3.121   7.123   5.525
  191TIP3    H1  516   3.090   7.072   5.600
  191TIP3    H2  517   3.207   7.155   5.551
  192TIP3   OH2  518   3.140   0.274   5.825
  192TIP3    H1  519   3.135   0.180   5.806
  192TIP3    H2  520   3.100   0.316   5.750
  193TIP3   OH2  521   1.227   5.461   2.379
  193TIP3    H1  522   1.176   5.460   2.460
  193TIP3    H2  523   1.283   5.538   2.387
  194TIP3   OH2  524   5.439   3.393   2.333
  194TIP3    H1  525   5.371   3.460   2.341
  194TIP3    H2  526   5.502   3.415   2.401
  195TIP3   OH2  527   2.481   2.439   4.370
  195TIP3    H1  528   2.567   2.460   4.335
  195TIP3    H2  529   2.471   2.345   4.355
  196TIP3   OH2  530   7.314   3.590   5.575
  196TIP3    H1  531   7.234   3.603   5.625
  196TIP3    H2  532   7.324   3.671   5.524
  197TIP3   OH2  533   2.703   2.455   6.655
  197TIP3    H1  534   2.616   2.489   6.638
  197TIP3    H2  535   2.689   2.370   6.696
  198TIP3   OH2  536   5.323   7.169   5.011
  198TIP3    H1  537   5.244   7.179   4.958
  198TIP3    H2  538   5.357   7.258   5.020
  199TIP3   OH2  539   7.499   6.126   6.139
  199TIP3    H1  540   7.489   6.220   6.150
  199TIP3    H2  541   7.510   6.113   6.045
  200TIP3   OH2  542   2.699   1.170   5.183
  200TIP3    H1  543   2.637   1.102   5.211
  200TIP3    H2  544   2.647   1.230   5.131
  201TIP3   OH2  545   4.499   6.858   1.229
  201TIP3    H1  546   4.468   6.897   1.311
  201TIP3    H2  547   4.494   6.764   1.244
  202TIP3   OH2  548   7.391   1.235   5.852
  202TIP3    H1  549   7.363   1.157   5.805
  202TIP3    H2  550   7.340   1.235   5.933
  203TIP3   OH2  551   6.825   3.429   1.579
  203TIP3    H1  552   6.819   3.501   1.642
  203TIP3    H2  553   6.910   3.441   1.537
  204TIP3   OH2  554   5.860   0.338   4.132
  204TIP3    H1  555   5.891   0.357   4.044
  204TIP3    H2  556   5.856   0.243   4.137
  205TIP3   OH2  557   7.339   6.083   5.390
  205TIP3    H1  558   7.422   6.131   5.391
  205TIP3    H2  559   7.322   6.062   5.481
  206TIP3   OH2  560   6.680   3.890   5.273
  206TIP3    H1  561   6.599   3.908   5.321
  206TIP3    H2  562   6.651   3.865   5.185
  207TIP3   OH2  563   7.587   1.806   4.884
  207TIP3    H1  564   7.631   1.792   4.800
  207TIP3    H2  565   7.535   1.886   4.871
  208TIP3   OH2  566   3.136   5.770   3.234
  208TIP3    H1  567   3.050   5.799   3.263
  208TIP3    H2  568   3.174   5.848   3.193
  209TIP3   OH2  569   5.326   2.372   3.572
  209TIP3    H1  570   5.298   2.322   3.649
  209TIP3    H2  571   5.251   2.426   3.549
  210TIP3   OH2  572   1.233   5.443   3.446
  210TIP3    H1  573   1.185   5.523   3.426
  210TIP3    H2  574   1.229   5.436   3.541
  211TIP3   OH2  575   2.521   3.526   4.955
  211TIP3    H1  576   2.451   3.469   4.988
  211TIP3    H2  577   2.500   3.536   4.862
  212TIP3   OH2  578   2.871   3.410   0.055
  212TIP3    H1  579   2.891   3.319   0.073
  212TIP3    H2  580   2.902   3.458   0.132
  213TIP3   OH2  581   6.862   4.413   2.124
  213TIP3    H1  582   6.958   4.422   2.129
  213TIP3    H2  583   6.844   4.404   2.030
  214TIP3   OH2  584   7.750   5.932   6.262
  214TIP3    H1  585   7.712   5.964   6.344
  214TIP3    H2  586   7.803   6.004   6.230
  215TIP3   OH2  587   6.853   6.169   3.454
  215TIP3    H1  588   6.913   6.220   3.508
  215TIP3    H2  589   6.892   6.173   3.366
  216TIP3   OH2  590   1.675   0.813   5.536
  216TIP3    H1  591   1.580   0.803   5.531
  216TIP3    H2  592   1.701   0.760   5.611
  217TIP3   OH2  593   7.553   4.629   6.296
  217TIP3    H1  594   7.589   4.611   6.209
  217TIP3    H2  595   7.476   4.572   6.302
  218TIP3   OH2  596   6.454   2.028   3.555
  218TIP3    H1  597   6.501   2.055   3.633
  218TIP3    H2  598   6.476   1.936   3.544
  219TIP3   OH2  599   8.020   5.115   5.289
  219TIP3    H1  600   8.091   5.177   5.308
  219TIP3    H2  601   7.988   5.141   5.203
  220TIP3   OH2  602   4.547   7.481   0.179
  220TIP3    H1  603   4.485   7.463   0.249
  220TIP3    H2  604   4.630   7.497   0.223
  221TIP3   OH2  605   5.366   0.378   3.459
  221TIP3    H1  606   5.278   0.354   3.488
  221TIP3    H2  607   5.378   0.467   3.492
  222TIP3   OH2  608   4.396   1.727   3.346
  222TIP3    H1  609   4.448   1.802   3.317
  222TIP3    H2  610   4.409   1.661   3.278
  223TIP3   OH2  611   4.249   6.966   3.115
  223TIP3    H1  612   4.254   6.967   3.210
  223TIP3    H2  613   4.328   7.012   3.086
  224TIP3   OH2  614   0.059   2.984   0.722
  224TIP3    H1  615   0.094   3.048   0.783
  224TIP3    H2  616   0.134   2.962   0.665
  225TIP3   OH2  617   0.869   2.803   2.326
  225TIP3    H1  618   0.858   2.714   2.358
  225TIP3    H2  619   0.947   2.836   2.372
  226TIP3   OH2  620   5.296   1.591   4.907
  226TIP3    H1  621   5.229   1.654   4.883
  226TIP3    H2  622   5.338   1.568   4.824
  227TIP3   OH2  623   5.032   6.766   0.120
  227TIP3    H1  624   4.940   6.794   0.127
  227TIP3    H2  625   5.028   6.672   0.103
  228TIP3   OH2  626   0.125   2.546   6.023
  228TIP3    H1  627   0.090   2.532   6.111
  228TIP3    H2  628   0.220   2.549   6.034
  229TIP3   OH2  629   5.964   2.614   4.564
  229TIP3    H1  630   6.000   2.533   4.601
  229TIP3    H2  631   6.014   2.684   4.606
  230TIP3   OH2  632   2.635   5.288   5.628
  230TIP3    H1  633   2.695   5.266   5.556
  230TIP3    H2  634   2.617   5.381   5.616
  231TIP3   OH2  635   6.077   0.230   0.866
  231TIP3    H1  636   6.071   0.200   0.775
  231TIP3    H2  637   6.134   0.166   0.908
  232TIP3   OH2  638   7.298   0.822   4.411
  232TIP3    H1  639   7.318   0.912   4.437
  232TIP3    H2  640   7.311   0.822   4.316
  233TIP3   OH2  641   0.689   5.715   3.645
  233TIP3    H1  642   0.708   5.802   3.610
  233TIP3    H2  643   0.602   5.695   3.612
  234TIP3   OH2  644   1.357   7.375   6.035
  234TIP3    H1  645   1.400   7.458   6.015
  234TIP3    H2  646   1.265   7.391   6.013
  235TIP3   OH2  647   7.900   5.639   0.470
  235TIP3    H1  648   7.855   5.689   0.402
  235TIP3    H2  649   7.943   5.705   0.523
  236TIP3   OH2  650   0.592   4.736   0.555
  236TIP3    H1  651   0.547   4.652   0.565
  236TIP3    H2  652   0.537   4.786   0.495
  237TIP3   OH2  653   2.919   4.125   4.695
  237TIP3    H1  654   2.974   4.049   4.711
  237TIP3    H2  655   2.974   4.200   4.716
  238TIP3   OH2  656   4.687   5.654   1.417
  238TIP3    H1  657   4.641   5.686   1.496
  238TIP3    H2  658   4.621   5.601   1.372
  239TIP3   OH2  659   7.479   3.813   5.923
  239TIP3    H1  660   7.460   3.722   5.945
  239TIP3    H2  661   7.559   3.810   5.872
  240TIP3   OH2  662   1.361   1.797   0.391
  240TIP3    H1  663   1.270   1.816   0.414
  240TIP3    H2  664   1.356   1.730   0.324
  241TIP3   OH2  665   6.709   3.683   2.072
  241TIP3    H1  666   6.690   3.674   2.165
  241TIP3    H2  667   6.623   3.686   2.030
  242TIP3   OH2  668   0.525   3.349   1.897
  242TIP3    H1  669   0.480   3.365   1.814
  242TIP3    H2  670   0.543   3.255   1.897
  243TIP3   OH2  671   4.678   2.051   0.343
  243TIP3    H1  672   4.639   1.977   0.296
  243TIP3    H2  673   4.731   2.096   0.277
  244TIP3   OH2  674   6.721   6.531   3.670
  244TIP3    H1  675   6.686   6.453   3.713
  244TIP3    H2  676   6.807   6.544   3.710
  245TIP3   OH2  677   6.071   6.163   4.763
  245TIP3    H1  678   6.163   6.190   4.759
  245TIP3    H2  679   6.066   6.086   4.706
  246TIP3   OH2  680   3.192   4.063   3.310
  246TIP3    H1  681   3.287   4.076   3.310
  246TIP3    H2  682   3.181   3.968   3.301
  247TIP3   OH2  683   0.145   5.899   6.734
  247TIP3    H1  684   0.209   5.897   6.806
  247TIP3    H2  685   0.066   5.861   6.772
  248TIP3   OH2  686   3.571   3.431   1.187
  248TIP3    H1  687   3.662   3.410   1.167
  248TIP3    H2  688   3.534   3.350   1.221
  249TIP3   OH2  689   1.991   5.513   0.841
  249TIP3    H1  690   2.052   5.503   0.768
  249TIP3    H2  691   1.904   5.514   0.801
  250TIP3   OH2  692   2.523   0.217   4.941
  250TIP3    H1  693   2.513   0.243   4.849
  250TIP3    H2  694   2.596   0.269   4.973
  251TIP3   OH2  695   5.987   1.930   1.038
  251TIP3    H1  696   6.080   1.936   1.016
  251TIP3    H2  697   5.969   1.836   1.038
  252TIP3   OH2  698   2.320   5.871   3.465
  252TIP3    H1  699   2.243   5.820   3.490
  252TIP3    H2  700   2.294   5.915   3.384
  253TIP3   OH2  701   3.809   0.276   6.074
  253TIP3    H1  702   3.843   0.225   6.148
  253TIP3    H2  703   3.882   0.282   6.014
  254TIP3   OH2  704   6.305   5.710   1.208
  254TIP3    H1  705   6.218   5.718   1.167
  254TIP3    H2  706   6.334   5.622   1.186
  255TIP3   OH2  707   1.990   5.405   5.187
  255TIP3    H1  708   1.939   5.330   5.217
  255TIP3    H2  709   2.081   5.379   5.201
  256TIP3   OH2  710   3.613   6.691   1.367
  256TIP3    H1  711   3.584   6.604   1.342
  256TIP3    H2  712   3.536   6.747   1.357
  257TIP3   OH2  713   5.486   4.808   0.158
  257TIP3    H1  714   5.395   4.839   0.160
  257TIP3    H2  715   5.506   4.791   0.250
  258TIP3   OH2  716   3.425   6.484   3.989
  258TIP3    H1  717   3.471   6.553   3.941
  258TIP3    H2  718   3.373   6.439   3.923
  259TIP3   OH2  719   3.454   1.148   6.618
  259TIP3    H1  720   3.536   1.102   6.637
  259TIP3    H2  721   3.470   1.193   6.535
  260TIP3   OH2  722   1.694   2.465   4.516
  260TIP3    H1  723   1.742   2.416   4.583
  260TIP3    H2  724   1.702   2.412   4.437
  261TIP3   OH2  725   6.801   1.879   0.854
  261TIP3    H1  726   6.747   1.956   0.835
  261TIP3    H2  727   6.775   1.852   0.941
  262TIP3   OH2  728   6.612   0.435   0.733
  262TIP3    H1  729   6.535   0.491   0.722
  262TIP3    H2  730   6.686   0.496   0.728
  263TIP3   OH2  731   5.301   3.056   4.346
  263TIP3    H1  732   5.371   3.110   4.383
  263TIP3    H2  733   5.231   3.060   4.411
  264TIP3   OH2  734   0.883   0.159   0.157
  264TIP3    H1  735   0.831   0.180   0.235
  264TIP3    H2  736   0.941   0.088   0.185
  265TIP3   OH2  737   2.337   4.745   3.263
  265TIP3    H1  738   2.263   4.687   3.279
  265TIP3    H2  739   2.297   4.828   3.237
  266TIP3   OH2  740   7.749   0.892   3.723
  266TIP3    H1  741   7.829   0.855   3.687
  266TIP3    H2  742   7.693   0.816   3.740
  267TIP3   OH2  743   0.552   5.335   4.012
  267TIP3    H1  744   0.610   5.408   3.989
  267TIP3    H2  745   0.606   5.279   4.068
  268TIP3   OH2  746   7.741   5.256   4.257
  268TIP3    H1  747   7.708   5.195   4.191
  268TIP3    H2  748   7.816   5.210   4.296
  269TIP3   OH2  749   3.496   0.853   6.061
  269TIP3    H1  750   3.534   0.936   6.091
  269TIP3    H2  751   3.406   0.855   6.094
  270TIP3   OH2  752   0.002   1.737   0.909
  270TIP3    H1  753   0.005   1.754   0.815
  270TIP3    H2  754   0.064   1.666   0.923
  271TIP3   OH2  755   7.061   3.842   5.223
  271TIP3    H1  756   7.129   3.824   5.288
  271TIP3    H2  757   6.993   3.777   5.241
  272TIP3   OH2  758   4.730   1.511   4.404
  272TIP3    H1  759   4.782   1.434   4.426
  272TIP3    H2  760   4.778   1.553   4.333
  273TIP3   OH2  761   7.578   2.384   1.839
  273TIP3    H1  762   7.541   2.299   1.864
  273TIP3    H2  763   7.532   2.407   1.758
  274TIP3   OH2  764   3.768   6.152   2.828
  274TIP3    H1  765   3.673   6.159   2.826
  274TIP3    H2  766   3.794   6.192   2.911
  275TIP3   OH2  767   2.406   1.697   5.233
  275TIP3    H1  768   2.424   1.657   5.318
  275TIP3    H2  769   2.406   1.624   5.172
  276TIP3   OH2  770   0.358   4.495   5.949
  276TIP3    H1  771   0.355   4.403   5.923
  276TIP3    H2  772   0.291   4.537   5.895
  277TIP3   OH2  773   0.172   0.581   4.940
  277TIP3    H1  774   0.223   0.609   5.015
  277TIP3    H2  775   0.225   0.605   4.864
  278TIP3   OH2  776   4.886   0.106   5.838
  278TIP3    H1  777   4.903   0.048   5.764
  278TIP3    H2  778   4.973   0.130   5.871
  279TIP3   OH2  779   3.600   1.815   1.936
  279TIP3    H1  780   3.649   1.781   1.860
  279TIP3    H2  781   3.600   1.742   1.998
  280TIP3   OH2  782   1.534   2.525   4.053
  280TIP3    H1  783   1.450   2.502   4.093
  280TIP3    H2  784   1.534   2.621   4.051
  281TIP3   OH2  785   0.723   4.136   6.350
  281TIP3    H1  786   0.660   4.156   6.420
  281TIP3    H2  787   0.801   4.106   6.397
  282TIP3   OH2  788   2.052   7.850   3.517
  282TIP3    H1  789   2.046   7.755   3.514
  282TIP3    H2  790   2.026   7.878   3.429
  283TIP3   OH2  791   5.797   2.427   0.509
  283TIP3    H1  792   5.809   2.474   0.427
  283TIP3    H2  793   5.836   2.484   0.576
  284TIP3   OH2  794   0.035   3.096   3.623
  284TIP3    H1  795   0.080   3.148   3.689
  284TIP3    H2  796  -0.004   3.024   3.672
  285TIP3   OH2  797   2.944   4.339   1.219
  285TIP3    H1  798   2.978   4.339   1.130
  285TIP3    H2  799   3.000   4.278   1.266
  286TIP3   OH2  800   5.574   6.378   6.519
  286TIP3    H1  801   5.536   6.443   6.577
  286TIP3    H2  802   5.501   6.350   6.462
  287TIP3   OH2  803   3.020   7.473   6.153
  287TIP3    H1  804   3.046   7.434   6.070
  287TIP3    H2  805   2.927   7.451   6.163
  288TIP3   OH2  806   4.781   4.833   5.428
  288TIP3    H1  807   4.852   4.894   5.408
  288TIP3    H2  808   4.705   4.869   5.381
  289TIP3   OH2  809   7.577   0.115   1.011
  289TIP3    H1  810   7.530   0.044   1.054
  289TIP3    H2  811   7.562   0.191   1.067
  290TIP3   OH2  812   6.037   5.647   5.248
  290TIP3    H1  813   6.118   5.598   5.234
  290TIP3    H2  814   5.967   5.585   5.224
  291TIP3   OH2  815   3.690   0.601   6.689
  291TIP3    H1  816   3.666   0.651   6.766
  291TIP3    H2  817   3.778   0.567   6.708
  292TIP3   OH2  818   4.453   7.690   4.628
  292TIP3    H1  819   4.387   7.721   4.567
  292TIP3    H2  820   4.481   7.606   4.593
  293TIP3   OH2  821   0.137   5.692   2.455
  293TIP3    H1  822   0.175   5.779   2.442
  293TIP3    H2  823   0.049   5.709   2.488
  294TIP3   OH2  824   6.980   1.673   6.586
  294TIP3    H1  825   6.892   1.653   6.618
  294TIP3    H2  826   6.995   1.764   6.613
  295TIP3   OH2  827   3.795   1.030   4.961
  295TIP3    H1  828   3.871   0.980   4.932
  295TIP3    H2  829   3.829   1.088   5.030
  296TIP3   OH2  830   5.822   1.382   2.500
  296TIP3    H1  831   5.859   1.464   2.467
  296TIP3    H2  832   5.765   1.408   2.572
  297TIP3   OH2  833   3.004   0.084   1.616
  297TIP3    H1  834   3.032   0.150   1.679
  297TIP3    H2  835   2.926   0.121   1.576
  298TIP3   OH2  836   3.997   6.178   5.252
  298TIP3    H1  837   4.081   6.146   5.286
  298TIP3    H2  838   3.973   6.249   5.310
  299TIP3   OH2  839   5.474   3.654   2.994
  299TIP3    H1  840   5.400   3.666   3.053
  299TIP3    H2  841   5.434   3.635   2.909
  300TIP3   OH2  842   1.624   7.733   3.771
  300TIP3    H1  843   1.655   7.642   3.773
  300TIP3    H2  844   1.699   7.783   3.739
  301TIP3   OH2  845   5.324   5.682   4.308
  301TIP3    H1  846   5.313   5.748   4.240
  301TIP3    H2  847   5.239   5.677   4.352
  302TIP3   OH2  848   0.592   0.588   5.528
  302TIP3    H1  849   0.653   0.598   5.455
  302TIP3    H2  850   0.506   0.591   5.487
  303TIP3   OH2  851   6.384   6.093   6.653
  303TIP3    H1  852   6.288   6.090   6.660
  303TIP3    H2  853   6.404   6.186   6.647
  304TIP3   OH2  854   4.001   1.297   0.872
  304TIP3    H1  855   3.953   1.370   0.910
  304TIP3    H2  856   4.088   1.301   0.914
  305TIP3   OH2  857   7.406   6.351   2.235
  305TIP3    H1  858   7.343   6.307   2.177
  305TIP3    H2  859   7.492   6.328   2.198
  306TIP3   OH2  860   0.810   5.171   6.480
  306TIP3    H1  861   0.816   5.116   6.558
  306TIP3    H2  862   0.835   5.113   6.408
  307TIP3   OH2  863   3.282   5.928   5.656
  307TIP3    H1  864   3.330   5.845   5.655
  307TIP3    H2  865   3.209   5.914   5.596
  308TIP3   OH2  866   0.653   6.498   4.436
  308TIP3    H1  867   0.629   6.530   4.350
  308TIP3    H2  868   0.748   6.511   4.440
  309TIP3   OH2  869   2.156   7.162   1.089
  309TIP3    H1  870   2.239   7.207   1.069
  309TIP3    H2  871   2.120   7.209   1.164
  310TIP3   OH2  872   5.735   5.201   2.372
  310TIP3    H1  873   5.662   5.150   2.408
  310TIP3    H2  874   5.698   5.288   2.358
  311TIP3   OH2  875   0.600   3.814   2.880
  311TIP3    H1  876   0.672   3.756   2.906
  311TIP3    H2  877   0.621   3.840   2.791
  312TIP3   OH2  878   0.836   2.634   2.056
  312TIP3    H1  879   0.794   2.550   2.073
  312TIP3    H2  880   0.892   2.650   2.132
  313TIP3   OH2  881   3.279   4.928   0.860
  313TIP3    H1  882   3.228   4.912   0.781
  313TIP3    H2  883   3.370   4.917   0.832
  314TIP3   OH2  884   1.471   0.277   5.256
  314TIP3    H1  885   1.430   0.301   5.340
  314TIP3    H2  886   1.449   0.185   5.244
  315TIP3   OH2  887   7.082   6.844   6.651
  315TIP3    H1  888   7.090   6.854   6.556
  315TIP3    H2  889   6.993   6.809   6.663
  316TIP3   OH2  890   7.336   6.925   0.383
  316TIP3    H1  891   7.358   6.906   0.475
  316TIP3    H2  892   7.331   7.021   0.379
  317TIP3   OH2  893   3.704   3.086   6.116
  317TIP3    H1  894   3.649   3.008   6.103
  317TIP3    H2  895   3.646   3.148   6.161
  318TIP3   OH2  896   7.866   5.333   5.514
  318TIP3    H1  897   7.854   5.274   5.439
  318TIP3    H2  898   7.888   5.275   5.587
  319TIP3   OH2  899   6.961   2.963   6.282
  319TIP3    H1  900   6.927   2.911   6.208
  319TIP3    H2  901   6.904   2.939   6.355
  320TIP3   OH2  902   0.376   7.269   3.143
  320TIP3    H1  903   0.393   7.206   3.213
  320TIP3    H2  904   0.458   7.275   3.095
  321TIP3   OH2  905   7.895   2.397   2.645
  321TIP3    H1  906   7.919   2.314   2.604
  321TIP3    H2  907   7.909   2.463   2.577
  322TIP3   OH2  908   6.246   0.288   4.365
  322TIP3    H1  909   6.219   0.258   4.278
  322TIP3    H2  910   6.171   0.337   4.397
  323TIP3   OH2  911   4.845   4.814   2.189
  323TIP3    H1  912   4.879   4.767   2.265
  323TIP3    H2  913   4.790   4.751   2.143
  324TIP3   OH2  914   6.984   1.134   1.623
  324TIP3    H1  915   6.983   1.087   1.706
  324TIP3    H2  916   7.056   1.197   1.632
  325TIP3   OH2  917   6.223   6.696   6.678
  325TIP3    H1  918   6.308   6.693   6.722
  325TIP3    H2  919   6.236   6.757   6.605
  326TIP3   OH2  920   0.473   0.165   0.462
  326TIP3    H1  921   0.566   0.143   0.451
  326TIP3    H2  922   0.467   0.204   0.549
  327TIP3   OH2  923   2.193  -0.007   2.755
  327TIP3    H1  924   2.160   0.071   2.710
  327TIP3    H2  925   2.280  -0.021   2.719
  328TIP3   OH2  926   1.446   1.488   1.485
  328TIP3    H1  927   1.430   1.578   1.457
  328TIP3    H2  928   1.372   1.439   1.449
  329TIP3   OH2  929   6.010   4.304   5.916
  329TIP3    H1  930   5.919   4.333   5.913
  329TIP3    H2  931   6.018   4.260   6.001
  330TIP3   OH2  932   5.285   2.138   4.497
  330TIP3    H1  933   5.342   2.135   4.420
  330TIP3    H2  934   5.265   2.046   4.516
  331TIP3   OH2  935   1.401   7.290   6.651
  331TIP3    H1  936   1.370   7.376   6.621
  331TIP3    H2  937   1.336   7.228   6.617
  332TIP3   OH2  938   2.025   5.436   0.302
  332TIP3    H1  939   2.017   5.366   0.237
  332TIP3    H2  940   1.949   5.427   0.358
  333TIP3   OH2  941   6.038   6.476   2.686
  333TIP3    H1  942   5.969   6.542   2.679
  333TIP3    H2  943   6.022   6.418   2.611
  334TIP3   OH2  944   5.049   2.043   2.758
  334TIP3    H1  945   5.030   2.052   2.664
  334TIP3    H2  946   4.995   1.970   2.786
  335TIP3   OH2  947   1.522   4.848   5.677
  335TIP3    H1  948   1.567   4.789   5.618
  335TIP3    H2  949   1.431   4.816   5.679
  336TIP3   OH2  950   6.776   2.180   5.793
  336TIP3    H1  951   6.857   2.214   5.756
  336TIP3    H2  952   6.712   2.187   5.722
  337TIP3   OH2  953   0.316   6.365   2.513
  337TIP3    H1  954   0.408   6.371   2.488
  337TIP3    H2  955   0.271   6.426   2.455
  338TIP3   OH2  956   2.828   7.058   2.326
  338TIP3    H1  957   2.879   6.977   2.335
  338TIP3    H2  958   2.890   7.128   2.346
  339TIP3   OH2  959   6.133   7.832   1.359
  339TIP3    H1  960   6.228   7.818   1.355
  339TIP3    H2  961   6.095   7.745   1.348
  340TIP3   OH2  962   8.134   5.465   0.356
  340TIP3    H1  963   8.125   5.467   0.261
  340TIP3    H2  964   8.045   5.475   0.390
  341TIP3   OH2  965   2.696   7.692   0.471
  341TIP3    H1  966   2.705   7.679   0.377
  341TIP3    H2  967   2.752   7.625   0.510
  342TIP3   OH2  968   0.595   6.328   6.438
  342TIP3    H1  969   0.534   6.364   6.374
  342TIP3    H2  970   0.553   6.344   6.523
  343TIP3   OH2  971   0.943   5.116   0.581
  343TIP3    H1  972   0.913   5.206   0.585
  343TIP3    H2  973   0.866   5.064   0.604
  344TIP3   OH2  974   4.148   1.037   1.256
  344TIP3    H1  975   4.241   1.054   1.271
  344TIP3    H2  976   4.117   0.997   1.337
  345TIP3   OH2  977  -0.013   1.837   1.907
  345TIP3    H1  978   0.062   1.782   1.886
  345TIP3    H2  979  -0.080   1.776   1.937
  346TIP3   OH2  980   0.942   2.372   5.292
  346TIP3    H1  981   0.938   2.424   5.372
  346TIP3    H2  982   1.015   2.410   5.243
  347TIP3   OH2  983   5.658   3.295   3.867
  347TIP3    H1  984   5.575   3.343   3.861
  347TIP3    H2  985   5.646   3.235   3.940
  348TIP3   OH2  986   4.847   1.421   6.271
  348TIP3    H1  987   4.816   1.392   6.186
  348TIP3    H2  988   4.800   1.503   6.287
  349TIP3   OH2  989   7.505   3.081   2.401
  349TIP3    H1  990   7.479   3.097   2.310
  349TIP3    H2  991   7.437   3.123   2.453
  350TIP3   OH2  992   2.503   0.588   6.250
  350TIP3    H1  993   2.456   0.575   6.168
  350TIP3    H2  994   2.439   0.565   6.318
  351TIP3   OH2  995   7.494   6.954   5.386
  351TIP3    H1  996   7.409   6.920   5.360
  351TIP3    H2  997   7.539   6.973   5.303
  352TIP3   OH2  998   2.015   4.307   5.607
  352TIP3    H1  999   2.083   4.339   5.666
  352TIP3    H2 1000   2.047   4.221   5.578
  353TIP3   OH2 1001   7.107   2.247   0.380
  353TIP3    H1 1002   7.103   2.151   0.374
  353TIP3    H2 1003   7.184   2.264   0.435
  354TIP3   OH2 1004   8.251   5.211   0.401
  354TIP3    H1 1005   8.225   5.303   0.411
  354TIP3    H2 1006   8.229   5.190   0.310
  355TIP3   OH2 1007   4.934   7.291   2.488
  355TIP3    H1 1008   4.878   7.253   2.421
  355TIP3    H2 1009   4.872   7.336   2.547
  356TIP3   OH2 1010   7.915   3.832   1.731
  356TIP3    H1 1011   7.964   3.861   1.808
  356TIP3    H2 1012   7.939   3.740   1.720
  357TIP3   OH2 1013   5.862   6.309   4.575
  357TIP3    H1 1014   5.885   6.218   4.596
  357TIP3    H2 1015   5.778   6.324   4.618
  358TIP3   OH2 1016   3.540   4.755   3.099
  358TIP3    H1 1017   3.486   4.699   3.044
  358TIP3    H2 1018   3.479   4.819   3.135
  359TIP3   OH2 1019   2.385   1.749   4.015
  359TIP3    H1 1020   2.344   1.686   4.074
  359TIP3    H2 1021   2.406   1.699   3.937
  360TIP3   OH2 1022   3.945   2.357   3.240
  360TIP3    H1 1023   3.980   2.410   3.313
  360TIP3    H2 1024   3.873   2.308   3.279
  361TIP3   OH2 1025   7.232   2.918   0.374
  361TIP3    H1 1026   7.303   2.854   0.369
  361TIP3    H2 1027   7.243   2.960   0.459
  362TIP3   OH2 1028   5.941   4.747   3.784
  362TIP3    H1 1029   5.870   4.726   3.845
  362TIP3    H2 1030   6.021   4.724   3.830
  363TIP3   OH2 1031   4.965   3.297   4.567
  363TIP3    H1 1032   4.950   3.390   4.556
  363TIP3    H2 1033   4.878   3.258   4.572
  364TIP3   OH2 1034   5.300   6.553   1.780
  364TIP3    H1 1035   5.349   6.531   1.701
  364TIP3    H2 1036   5.239   6.622   1.752
  365TIP3   OH2 1037   2.503   5.236   1.126
  365TIP3    H1 1038   2.531   5.172   1.061
  365TIP3    H2 1039   2.553   5.214   1.204
  366TIP3   OH2 1040   8.183   7.448   0.607
  366TIP3    H1 1041   8.120   7.402   0.663
  366TIP3    H2 1042   8.183   7.538   0.639
  367TIP3   OH2 1043   1.684   7.176   3.227
  367TIP3    H1 1044   1.728   7.210   3.149
  367TIP3    H2 1045   1.754   7.157   3.289
  368TIP3   OH2 1046   0.961   4.779   4.134
  368TIP3    H1 1047   0.982   4.832   4.211
  368TIP3    H2 1048   0.997   4.692   4.154
  369TIP3   OH2 1049   3.639   6.190   1.579
  369TIP3    H1 1050   3.699   6.125   1.541
  369TIP3    H2 1051   3.560   6.183   1.527
  370TIP3   OH2 1052   8.330   3.193   3.920
  370TIP3    H1 1053   8.262   3.131   3.895
  370TIP3    H2 1054   8.331   3.191   4.015
  371TIP3   OH2 1055   3.725   0.334   2.174
  371TIP3    H1 1056   3.821   0.339   2.166
  371TIP3    H2 1057   3.703   0.407   2.232
  372TIP3   OH2 1058   7.876   2.682   1.161
  372TIP3    H1 1059   7.961   2.712   1.129
  372TIP3    H2 1060   7.816   2.698   1.088
  373TIP3   OH2 1061   0.891   3.009   5.289
  373TIP3    H1 1062   0.858   2.926   5.325
  373TIP3    H2 1063   0.839   3.076   5.333
  374TIP3   OH2 1064   2.877   0.587   4.788
  374TIP3    H1 1065   2.950   0.571   4.728
  374TIP3    H2 1066   2.820   0.649   4.741
  375TIP3   OH2 1067   0.623   4.719   1.512
  375TIP3    H1 1068   0.575   4.802   1.509
  375TIP3    H2 1069   0.555   4.652   1.505
  376TIP3   OH2 1070   7.939   6.731   4.108
  376TIP3    H1 1071   8.006   6.790   4.144
  376TIP3    H2 1072   7.985   6.681   4.041
  377TIP3   OH2 1073   0.598   3.478   3.305
  377TIP3    H1 1074   0.682   3.502   3.265
  377TIP3    H2 1075   0.620   3.453   3.394
  378TIP3   OH2 1076   1.466   0.193   2.340
  378TIP3    H1 1077   1.521   0.251   2.288
  378TIP3    H2 1078   1.408   0.151   2.276
  379TIP3   OH2 1079   4.510   2.064   6.791
  379TIP3    H1 1080   4.550   2.151   6.786
  379TIP3    H2 1081   4.584   2.003   6.798
  380TIP3   OH2 1082   7.649   3.974   2.229
  380TIP3    H1 1083   7.718   3.908   2.240
  380TIP3    H2 1084   7.637   4.012   2.316
  381TIP3   OH2 1085   4.242   3.537   4.622
  381TIP3    H1 1086   4.148   3.533   4.644
  381TIP3    H2 1087   4.252   3.474   4.550
  382TIP3   OH2 1088   1.773   4.478   2.674
  382TIP3    H1 1089   1.811   4.413   2.615
  382TIP3    H2 1090   1.790   4.562   2.630
  383TIP3   OH2 1091   8.154   2.037   3.341
  383TIP3    H1 1092   8.178   1.946   3.323
  383TIP3    H2 1093   8.203   2.088   3.276
  384TIP3   OH2 1094   6.905   6.305   6.254
  384TIP3    H1 1095   6.888   6.393   6.290
  384TIP3    H2 1096   6.820   6.262   6.256
  385TIP3   OH2 1097   1.295   0.339   4.879
  385TIP3    H1 1098   1.360   0.400   4.844
  385TIP3    H2 1099   1.269   0.376   4.963
  386TIP3   OH2 1100   5.661   6.188   5.319
  386TIP3    H1 1101   5.717   6.248   5.269
  386TIP3    H2 1102   5.711   6.168   5.398
  387TIP3   OH2 1103   3.832   1.531   0.923
  387TIP3    H1 1104   3.771   1.537   0.849
  387TIP3    H2 1105   3.821   1.614   0.970
  388TIP3   OH2 1106   7.944   0.242   2.121
  388TIP3    H1 1107   7.852   0.256   2.143
  388TIP3    H2 1108   7.964   0.155   2.155
  389TIP3   OH2 1109   3.835   3.859   1.367
  389TIP3    H1 1110   3.790   3.851   1.451
  389TIP3    H2 1111   3.859   3.952   1.362
  390TIP3   OH2 1112   1.177   1.495   4.131
  390TIP3    H1 1113   1.143   1.584   4.141
  390TIP3    H2 1114   1.134   1.445   4.200
  391TIP3   OH2 1115   8.199   4.312   4.011
  391TIP3    H1 1116   8.287   4.341   3.986
  391TIP3    H2 1117   8.141   4.352   3.945
  392TIP3   OH2 1118   7.503   3.074   1.168
  392TIP3    H1 1119   7.578   3.118   1.209
  392TIP3    H2 1120   7.433   3.082   1.232
  393TIP3   OH2 1121   6.432   3.955   0.917
  393TIP3    H1 1122   6.366   3.987   0.854
  393TIP3    H2 1123   6.413   4.003   0.998
  394TIP3   OH2 1124   6.242   4.381   5.367
  394TIP3    H1 1125   6.293   4.347   5.440
  394TIP3    H2 1126   6.238   4.309   5.304
  395TIP3   OH2 1127   3.933   4.622   2.766
  395TIP3    H1 1128   3.879   4.666   2.701
  395TIP3    H2 1129   3.887   4.636   2.849
  396TIP3   OH2 1130   6.588   2.231   6.254
  396TIP3    H1 1131   6.626   2.234   6.166
  396TIP3    H2 1132   6.653   2.275   6.309
  397TIP3   OH2 1133   3.759   3.556   0.323
  397TIP3    H1 1134   3.773   3.519   0.236
  397TIP3    H2 1135   3.831   3.618   0.335
  398TIP3   OH2 1136   5.116   2.879   2.625
  398TIP3    H1 1137   5.108   2.968   2.660
  398TIP3    H2 1138   5.029   2.860   2.589
  399TIP3   OH2 1139   7.378   3.918   3.100
  399TIP3    H1 1140   7.394   3.896   3.008
  399TIP3    H2 1141   7.335   3.841   3.135
  400TIP3   OH2 1142   0.534   3.890   4.339
  400TIP3    H1 1143   0.560   3.982   4.349
  400TIP3    H2 1144   0.555   3.869   4.248
  401TIP3   OH2 1145   7.085   4.746   4.419
  401TIP3    H1 1146   7.097   4.837   4.447
  401TIP3    H2 1147   7.028   4.753   4.342
  402TIP3   OH2 1148   1.233   5.208   0.070
  402TIP3    H1 1149   1.310   5.244   0.025
  402TIP3    H2 1150   1.185   5.161   0.002
  403TIP3   OH2 1151   7.314   3.028   0.988
  403TIP3    H1 1152   7.382   3.052   1.051
  403TIP3    H2 1153   7.347   3.062   0.904
  404TIP3   OH2 1154   7.356   1.280   1.436
  404TIP3    H1 1155   7.368   1.365   1.394
  404TIP3    H2 1156   7.267   1.253   1.413
  405TIP3   OH2 1157   0.369   4.788   1.243
  405TIP3    H1 1158   0.312   4.753   1.312
  405TIP3    H2 1159   0.421   4.855   1.287
  406TIP3   OH2 1160   2.803   4.700   5.174
  406TIP3    H1 1161   2.844   4.731   5.093
  406TIP3    H2 1162   2.781   4.608   5.157
  407TIP3   OH2 1163   1.937   4.643   3.685
  407TIP3    H1 1164   1.875   4.709   3.713
  407TIP3    H2 1165   2.008   4.692   3.643
  408TIP3   OH2 1166   8.151   5.368   1.630
  408TIP3    H1 1167   8.200   5.433   1.680
  408TIP3    H2 1168   8.097   5.420   1.570
  409TIP3   OH2 1169   6.822   5.591   1.476
  409TIP3    H1 1170   6.798   5.514   1.527
  409TIP3    H2 1171   6.783   5.576   1.390
  410TIP3   OH2 1172   3.705   7.173   5.005
  410TIP3    H1 1173   3.638   7.228   5.047
  410TIP3    H2 1174   3.781   7.180   5.063
  411TIP3   OH2 1175   0.140   6.142   2.523
  411TIP3    H1 1176   0.166   6.228   2.491
  411TIP3    H2 1177   0.110   6.157   2.613
  412TIP3   OH2 1178   6.295   4.189   2.109
  412TIP3    H1 1179   6.275   4.262   2.050
  412TIP3    H2 1180   6.336   4.230   2.185
  413TIP3   OH2 1181   7.052   7.293   6.739
  413TIP3    H1 1182   7.057   7.260   6.650
  413TIP3    H2 1183   7.127   7.351   6.748
  414TIP3   OH2 1184   4.506   4.836   6.015
  414TIP3    H1 1185   4.454   4.766   5.976
  414TIP3    H2 1186   4.480   4.914   5.966
  415TIP3   OH2 1187   1.613   1.657   1.780
  415TIP3    H1 1188   1.656   1.586   1.828
  415TIP3    H2 1189   1.520   1.644   1.796
  416TIP3   OH2 1190   8.272   2.162   5.693
  416TIP3    H1 1191   8.331   2.237   5.705
  416TIP3    H2 1192   8.297   2.101   5.762
  417TIP3   OH2 1193   7.646   2.206   2.774
  417TIP3    H1 1194   7.632   2.292   2.813
  417TIP3    H2 1195   7.741   2.198   2.767
  418TIP3   OH2 1196   4.303   1.967   6.088
  418TIP3    H1 1197   4.261   1.964   6.003
  418TIP3    H2 1198   4.258   2.037   6.135
  419TIP3   OH2 1199   2.340   2.509   5.726
  419TIP3    H1 1200   2.310   2.512   5.817
  419TIP3    H2 1201   2.342   2.601   5.699
  420TIP3   OH2 1202   5.505   0.197   0.863
  420TIP3    H1 1203   5.595   0.164   0.866
  420TIP3    H2 1204   5.451   0.119   0.855
  421TIP3   OH2 1205   2.303   1.892   1.690
  421TIP3    H1 1206   2.224   1.942   1.710
  421TIP3    H2 1207   2.278   1.835   1.618
  422TIP3   OH2 1208   5.754   7.650   5.577
  422TIP3    H1 1209   5.780   7.570   5.533
  422TIP3    H2 1210   5.658   7.650   5.574
  423TIP3   OH2 1211   4.097   0.666   1.395
  423TIP3    H1 1212   4.107   0.674   1.300
  423TIP3    H2 1213   4.141   0.583   1.417
  424TIP3   OH2 1214   4.733   0.148   6.462
  424TIP3    H1 1215   4.702   0.118   6.547
  424TIP3    H2 1216   4.668   0.213   6.434
  425TIP3   OH2 1217   6.073   2.809   0.318
  425TIP3    H1 1218   6.095   2.804   0.225
  425TIP3    H2 1219   6.038   2.722   0.338
  426TIP3   OH2 1220   6.470   6.495   2.289
  426TIP3    H1 1221   6.393   6.438   2.296
  426TIP3    H2 1222   6.510   6.471   2.205
  427TIP3   OH2 1223   1.859   0.061   3.955
  427TIP3    H1 1224   1.853  -0.035   3.950
  427TIP3    H2 1225   1.836   0.091   3.867
  428TIP3   OH2 1226   0.408   5.789   3.891
  428TIP3    H1 1227   0.494   5.820   3.920
  428TIP3    H2 1228   0.378   5.856   3.829
  429TIP3   OH2 1229   8.023   6.614   6.075
  429TIP3    H1 1230   8.021   6.691   6.131
  429TIP3    H2 1231   7.996   6.542   6.132
  430TIP3   OH2 1232   6.132   5.672   1.415
  430TIP3    H1 1233   6.052   5.723   1.427
  430TIP3    H2 1234   6.180   5.718   1.347
  431TIP3   OH2 1235   7.213   5.595   3.262
  431TIP3    H1 1236   7.212   5.687   3.234
  431TIP3    H2 1237   7.216   5.545   3.181
  432TIP3   OH2 1238   4.516   2.551   4.198
  432TIP3    H1 1239   4.445   2.536   4.135
  432TIP3    H2 1240   4.539   2.643   4.186
  433TIP3   OH2 1241   7.491   7.205   3.999
  433TIP3    H1 1242   7.437   7.277   3.968
  433TIP3    H2 1243   7.434   7.155   4.057
  434TIP3   OH2 1244   3.107   3.312   0.400
  434TIP3    H1 1245   3.012   3.323   0.387
  434TIP3    H2 1246   3.123   3.350   0.486
  435TIP3   OH2 1247   7.788   1.160   3.198
  435TIP3    H1 1248   7.793   1.126   3.109
  435TIP3    H2 1249   7.755   1.249   3.187
  436TIP3   OH2 1250   4.731   3.519   6.210
  436TIP3    H1 1251   4.758   3.456   6.277
  436TIP3    H2 1252   4.648   3.555   6.243
  437TIP3   OH2 1253   4.366   1.148   0.823
  437TIP3    H1 1254   4.389   1.233   0.783
  437TIP3    H2 1255   4.305   1.109   0.761
  438TIP3   OH2 1256   6.953   2.898   3.324
  438TIP3    H1 1257   6.988   2.811   3.345
  438TIP3    H2 1258   6.863   2.882   3.296
  439TIP3   OH2 1259   2.144   4.104   0.738
  439TIP3    H1 1260   2.210   4.171   0.721
  439TIP3    H2 1261   2.085   4.109   0.663
  440TIP3   OH2 1262   3.362   6.146   1.454
  440TIP3    H1 1263   3.296   6.177   1.392
  440TIP3    H2 1264   3.429   6.104   1.400
  441TIP3   OH2 1265   4.004   0.265   4.338
  441TIP3    H1 1266   3.972   0.330   4.276
  441TIP3    H2 1267   4.099   0.265   4.324
  442TIP3   OH2 1268   0.126   3.002   1.648
  442TIP3    H1 1269   0.089   3.062   1.713
  442TIP3    H2 1270   0.120   3.049   1.565
  443TIP3   OH2 1271   4.614   1.468   2.349
  443TIP3    H1 1272   4.656   1.428   2.425
  443TIP3    H2 1273   4.530   1.499   2.382
  444TIP3   OH2 1274   6.576   7.341   2.492
  444TIP3    H1 1275   6.632   7.265   2.480
  444TIP3    H2 1276   6.495   7.319   2.446
  445TIP3   OH2 1277   5.219   6.072   1.606
  445TIP3    H1 1278   5.165   6.121   1.668
  445TIP3    H2 1279   5.271   6.139   1.561
  446TIP3   OH2 1280   7.081   3.805   1.097
  446TIP3    H1 1281   7.029   3.739   1.143
  446TIP3    H2 1282   7.166   3.804   1.141
  447TIP3   OH2 1283   0.602   0.981   2.018
  447TIP3    H1 1284   0.508   0.990   2.034
  447TIP3    H2 1285   0.634   0.930   2.092
  448TIP3   OH2 1286   2.530   1.755   4.285
  448TIP3    H1 1287   2.467   1.701   4.332
  448TIP3    H2 1288   2.509   1.742   4.192
  449TIP3   OH2 1289   7.686   6.729   6.444
  449TIP3    H1 1290   7.777   6.745   6.468
  449TIP3    H2 1291   7.685   6.638   6.415
  450TIP3   OH2 1292   4.200   7.651   1.179
  450TIP3    H1 1293   4.123   7.700   1.207
  450TIP3    H2 1294   4.241   7.706   1.113
  451TIP3   OH2 1295   3.336   6.213   5.299
  451TIP3    H1 1296   3.417   6.170   5.327
  451TIP3    H2 1297   3.288   6.146   5.253
  452TIP3   OH2 1298   4.476   4.705   2.000
  452TIP3    H1 1299   4.492   4.784   1.948
  452TIP3    H2 1300   4.438   4.738   2.082
  453TIP3   OH2 1301   3.780   2.645   2.924
  453TIP3    H1 1302   3.814   2.621   3.010
  453TIP3    H2 1303   3.844   2.707   2.889
  454TIP3   OH2 1304   6.535   4.919   0.012
  454TIP3    H1 1305   6.479   4.868   0.070
  454TIP3    H2 1306   6.621   4.917   0.054
  455TIP3   OH2 1307   1.815   7.670   2.914
  455TIP3    H1 1308   1.880   7.719   2.864
  455TIP3    H2 1309   1.859   7.589   2.939
  456TIP3   OH2 1310   3.344   6.086   0.303
  456TIP3    H1 1311   3.304   6.070   0.388
  456TIP3    H2 1312   3.315   6.013   0.248
  457TIP3   OH2 1313   6.667   1.369   4.556
  457TIP3    H1 1314   6.644   1.389   4.466
  457TIP3    H2 1315   6.744   1.312   4.549
  458TIP3   OH2 1316   5.323   1.587   6.545
  458TIP3    H1 1317   5.308   1.493   6.557
  458TIP3    H2 1318   5.418   1.596   6.544
  459TIP3   OH2 1319   7.647   6.218   1.702
  459TIP3    H1 1320   7.633   6.309   1.673
  459TIP3    H2 1321   7.646   6.223   1.797
  460TIP3   OH2 1322   6.837   6.764   1.835
  460TIP3    H1 1323   6.869   6.786   1.923
  460TIP3    H2 1324   6.800   6.676   1.844
  461TIP3   OH2 1325   2.862   2.288   3.189
  461TIP3    H1 1326   2.958   2.278   3.189
  461TIP3    H2 1327   2.832   2.230   3.120
  462TIP3   OH2 1328   5.509   4.823   0.429
  462TIP3    H1 1329   5.534   4.855   0.516
  462TIP3    H2 1330   5.519   4.728   0.435
  463TIP3   OH2 1331   3.927   3.311   4.509
  463TIP3    H1 1332   3.933   3.255   4.586
  463TIP3    H2 1333   3.951   3.253   4.436
  464TIP3   OH2 1334   7.055   5.910   1.930
  464TIP3    H1 1335   7.039   5.939   1.840
  464TIP3    H2 1336   7.142   5.870   1.928
  465TIP3   OH2 1337   3.049   1.179   3.363
  465TIP3    H1 1338   3.036   1.103   3.306
  465TIP3    H2 1339   3.049   1.143   3.452
  466TIP3   OH2 1340   2.066   5.900   6.701
  466TIP3    H1 1341   2.068   5.873   6.793
  466TIP3    H2 1342   1.975   5.925   6.686
  467TIP3   OH2 1343   4.196   1.409   6.264
  467TIP3    H1 1344   4.136   1.480   6.286
  467TIP3    H2 1345   4.196   1.407   6.168
  468TIP3   OH2 1346   0.670   5.990   4.281
  468TIP3    H1 1347   0.602   5.952   4.336
  468TIP3    H2 1348   0.648   6.083   4.277
  469TIP3   OH2 1349   2.984   2.560   4.603
  469TIP3    H1 1350   2.958   2.651   4.617
  469TIP3    H2 1351   3.076   2.564   4.577
  470TIP3   OH2 1352   1.823   1.318   1.879
  470TIP3    H1 1353   1.839   1.282   1.792
  470TIP3    H2 1354   1.895   1.286   1.932
  471TIP3   OH2 1355   6.162   3.249   6.279
  471TIP3    H1 1356   6.129   3.160   6.292
  471TIP3    H2 1357   6.243   3.237   6.229
  472TIP3   OH2 1358   4.436   5.142   6.647
  472TIP3    H1 1359   4.375   5.159   6.576
  472TIP3    H2 1360   4.522   5.138   6.604
  473TIP3   OH2 1361   2.037   2.224   4.440
  473TIP3    H1 1362   1.969   2.257   4.499
  473TIP3    H2 1363   2.105   2.190   4.498
  474TIP3   OH2 1364   5.341   5.990   0.970
  474TIP3    H1 1365   5.246   6.000   0.972
  474TIP3    H2 1366   5.374   6.080   0.977
  475TIP3   OH2 1367   2.514   3.568   2.794
  475TIP3    H1 1368   2.530   3.502   2.861
  475TIP3    H2 1369   2.462   3.523   2.728
  476TIP3   OH2 1370   4.186   5.461   1.441
  476TIP3    H1 1371   4.091   5.474   1.441
  476TIP3    H2 1372   4.197   5.373   1.407
  477TIP3   OH2 1373   0.976   1.938   4.976
  477TIP3    H1 1374   0.999   1.849   4.950
  477TIP3    H2 1375   0.950   1.981   4.894
  478TIP3   OH2 1376   7.711   5.370   0.795
  478TIP3    H1 1377   7.680   5.400   0.881
  478TIP3    H2 1378   7.747   5.283   0.811
  479TIP3   OH2 1379   6.435   6.631   3.709
  479TIP3    H1 1380   6.410   6.631   3.617
  479TIP3    H2 1381   6.521   6.587   3.710
  480TIP3   OH2 1382   2.350   2.463   2.557
  480TIP3    H1 1383   2.305   2.447   2.475
  480TIP3    H2 1384   2.436   2.421   2.546
  481TIP3   OH2 1385   0.785   4.857   2.410
  481TIP3    H1 1386   0.710   4.878   2.354
  481TIP3    H2 1387   0.770   4.767   2.438
  482TIP3   OH2 1388   5.293   4.789   3.468
  482TIP3    H1 1389   5.335   4.807   3.384
  482TIP3    H2 1390   5.247   4.706   3.454
  483TIP3   OH2 1391   3.764   5.230   1.153
  483TIP3    H1 1392   3.818   5.285   1.210
  483TIP3    H2 1393   3.676   5.234   1.191
  484TIP3   OH2 1394   3.594   0.074   2.644
  484TIP3    H1 1395   3.632   0.124   2.571
  484TIP3    H2 1396   3.664   0.016   2.672
  485TIP3   OH2 1397   3.479   4.159   4.474
  485TIP3    H1 1398   3.473   4.129   4.383
  485TIP3    H2 1399   3.391   4.145   4.510
  486TIP3   OH2 1400   3.989   0.960   5.425
  486TIP3    H1 1401   4.077   0.998   5.422
  486TIP3    H2 1402   3.932   1.031   5.394
  487TIP3   OH2 1403   5.036   2.473   6.103
  487TIP3    H1 1404   5.033   2.541   6.036
  487TIP3    H2 1405   4.984   2.402   6.068
  488TIP3   OH2 1406   0.786   7.061   5.517
  488TIP3    H1 1407   0.730   7.012   5.458
  488TIP3    H2 1408   0.851   6.997   5.548
  489TIP3   OH2 1409   0.511   5.923   2.944
  489TIP3    H1 1410   0.496   5.829   2.951
  489TIP3    H2 1411   0.597   5.937   2.984
  490TIP3   OH2 1412   2.188   3.415   2.942
  490TIP3    H1 1413   2.130   3.360   2.888
  490TIP3    H2 1414   2.219   3.482   2.882
  491TIP3   OH2 1415   4.813   3.052   0.918
  491TIP3    H1 1416   4.892   3.081   0.965
  491TIP3    H2 1417   4.835   3.064   0.826
  492TIP3   OH2 1418   5.234   2.646   2.062
  492TIP3    H1 1419   5.322   2.649   2.025
  492TIP3    H2 1420   5.241   2.697   2.143
  493TIP3   OH2 1421   4.226   6.253   4.376
  493TIP3    H1 1422   4.264   6.335   4.408
  493TIP3    H2 1423   4.151   6.280   4.324
  494TIP3   OH2 1424   2.842   7.603   3.469
  494TIP3    H1 1425   2.857   7.544   3.395
  494TIP3    H2 1426   2.898   7.569   3.538
  495TIP3   OH2 1427   2.770   1.336   2.010
  495TIP3    H1 1428   2.684   1.319   1.972
  495TIP3    H2 1429   2.825   1.358   1.935
  496TIP3   OH2 1430   1.325   7.323   4.926
  496TIP3    H1 1431   1.354   7.325   4.835
  496TIP3    H2 1432   1.325   7.414   4.954
  497TIP3   OH2 1433   4.222   1.685   1.552
  497TIP3    H1 1434   4.231   1.605   1.603
  497TIP3    H2 1435   4.239   1.658   1.461
  498TIP3   OH2 1436   6.540   3.437   5.055
  498TIP3    H1 1437   6.629   3.411   5.077
  498TIP3    H2 1438   6.547   3.479   4.969
  499TIP3   OH2 1439   5.754   4.201   1.004
  499TIP3    H1 1440   5.680   4.210   1.065
  499TIP3    H2 1441   5.813   4.140   1.049
  500TIP3   OH2 1442   0.904   5.036   6.241
  500TIP3    H1 1443   0.999   5.031   6.239
  500TIP3    H2 1444   0.879   5.044   6.149
  501TIP3   OH2 1445   4.918   1.997   2.514
  501TIP3    H1 1446   4.855   1.963   2.577
  501TIP3    H2 1447   4.871   2.068   2.469
  502TIP3   OH2 1448   3.270   4.649   4.139
  502TIP3    H1 1449   3.198   4.708   4.163
  502TIP3    H2 1450   3.258   4.573   4.195
  503TIP3   OH2 1451   5.460   7.208   0.485
  503TIP3    H1 1452   5.413   7.146   0.429
  503TIP3    H2 1453   5.391   7.261   0.526
  504TIP3   OH2 1454   3.454   2.297   1.922
  504TIP3    H1 1455   3.529   2.344   1.960
  504TIP3    H2 1456   3.453   2.213   1.968
  505TIP3   OH2 1457   3.181   4.673   5.083
  505TIP3    H1 1458   3.129   4.653   5.161
  505TIP3    H2 1459   3.123   4.655   5.010
  506TIP3   OH2 1460   6.270   2.283   3.281
  506TIP3    H1 1461   6.221   2.288   3.363
  506TIP3    H2 1462   6.347   2.338   3.296
  507TIP3   OH2 1463   2.912   5.140   4.510
  507TIP3    H1 1464   2.868   5.179   4.585
  507TIP3    H2 1465   2.871   5.053   4.501
  508TIP3   OH2 1466   5.658   3.620   6.643
  508TIP3    H1 1467   5.656   3.631   6.548
  508TIP3    H2 1468   5.733   3.672   6.672
  509TIP3   OH2 1469   6.393   6.368   6.597
  509TIP3    H1 1470   6.472   6.397   6.550
  509TIP3    H2 1471   6.322   6.418   6.558
  510TIP3   OH2 1472   4.594   1.893   0.649
  510TIP3    H1 1473   4.540   1.882   0.571
  510TIP3    H2 1474   4.596   1.988   0.664
  511TIP3   OH2 1475   6.081   3.647   5.308
  511TIP3    H1 1476   6.100   3.703   5.383
  511TIP3    H2 1477   6.160   3.650   5.254
  512TIP3   OH2 1478   5.756   5.133   5.538
  512TIP3    H1 1479   5.737   5.164   5.627
  512TIP3    H2 1480   5.796   5.209   5.494
  513TIP3   OH2 1481   7.782   4.127   1.968
  513TIP3    H1 1482   7.735   4.045   1.984
  513TIP3    H2 1483   7.713   4.192   1.957
  514TIP3   OH2 1484   0.192   5.613   1.924
  514TIP3    H1 1485   0.106   5.598   1.963
  514TIP3    H2 1486   0.205   5.541   1.862
  515TIP3   OH2 1487   8.175   0.068   5.998
  515TIP3    H1 1488   8.130   0.107   5.923
  515TIP3    H2 1489   8.121   0.089   6.073
  516TIP3   OH2 1490   4.797   3.729   6.049
  516TIP3    H1 1491   4.890   3.754   6.053
  516TIP3    H2 1492   4.790   3.654   6.109
  517TIP3   OH2 1493   3.470   3.814   2.943
  517TIP3    H1 1494   3.417   3.769   2.877
  517TIP3    H2 1495   3.558   3.816   2.905
  518TIP3   OH2 1496   6.059   6.533   5.244
  518TIP3    H1 1497   6.094   6.619   5.267
  518TIP3    H2 1498   6.039   6.540   5.151
  519TIP3   OH2 1499   7.612   1.164   6.487
  519TIP3    H1 1500   7.616   1.123   6.573
  519TIP3    H2 1501   7.658   1.102   6.429
  520TIP3   OH2 1502   5.119   0.858   4.223
  520TIP3    H1 1503   5.173   0.855   4.302
  520TIP3    H2 1504   5.040   0.809   4.245
  521TIP3   OH2 1505   2.729   3.907   1.498
  521TIP3    H1 1506   2.725   3.977   1.433
  521TIP3    H2 1507   2.773   3.947   1.573
  522TIP3   OH2 1508   3.206   1.849   2.844
  522TIP3    H1 1509   3.217   1.838   2.749
  522TIP3    H2 1510   3.247   1.771   2.882
  523TIP3   OH2 1511   3.748   0.187   3.302
  523TIP3    H1 1512   3.772   0.280   3.293
  523TIP3    H2 1513   3.653   0.187   3.298
  524TIP3   OH2 1514   5.166   5.332   1.663
  524TIP3    H1 1515   5.216   5.413   1.655
  524TIP3    H2 1516   5.115   5.343   1.743
  525TIP3   OH2 1517   5.275   2.960   3.107
  525TIP3    H1 1518   5.358   2.916   3.124
  525TIP3    H2 1519   5.213   2.917   3.166
  526TIP3   OH2 1520   1.879   5.645   3.690
  526TIP3    H1 1521   1.958   5.691   3.661
  526TIP3    H2 1522   1.852   5.592   3.615
  527TIP3   OH2 1523   2.259   5.345   1.799
  527TIP3    H1 1524   2.287   5.258   1.828
  527TIP3    H2 1525   2.166   5.348   1.819
  528TIP3   OH2 1526   1.451   2.246   6.280
  528TIP3    H1 1527   1.472   2.153   6.292
  528TIP3    H2 1528   1.360   2.246   6.251
  529TIP3   OH2 1529   6.264   1.495   3.226
  529TIP3    H1 1530   6.233   1.529   3.310
  529TIP3    H2 1531   6.244   1.564   3.164
  530TIP3   OH2 1532   1.847   0.297   4.855
  530TIP3    H1 1533   1.844   0.334   4.767
  530TIP3    H2 1534   1.840   0.373   4.913
  531TIP3   OH2 1535   2.081   2.897   0.653
  531TIP3    H1 1536   2.094   2.965   0.720
  531TIP3    H2 1537   2.156   2.907   0.594
  532TIP3   OH2 1538   4.930   5.187   3.342
  532TIP3    H1 1539   5.005   5.132   3.365
  532TIP3    H2 1540   4.945   5.270   3.388
  533TIP3   OH2 1541   0.549   4.323   2.500
  533TIP3    H1 1542   0.604   4.247   2.518
  533TIP3    H2 1543   0.523   4.313   2.408
  534TIP3   OH2 1544   1.995   1.151   5.270
  534TIP3    H1 1545   2.042   1.068   5.279
  534TIP3    H2 1546   2.040   1.210   5.329
  535TIP3   OH2 1547   2.748   2.328   4.500
  535TIP3    H1 1548   2.741   2.308   4.593
  535TIP3    H2 1549   2.795   2.412   4.497
  536TIP3   OH2 1550   2.921   7.667   4.631
  536TIP3    H1 1551   2.860   7.685   4.559
  536TIP3    H2 1552   2.996   7.723   4.613
  537TIP3   OH2 1553   6.427   3.395   2.320
  537TIP3    H1 1554   6.521   3.391   2.339
  537TIP3    H2 1555   6.399   3.479   2.358
  538TIP3   OH2 1556   6.405   7.761   1.324
  538TIP3    H1 1557   6.489   7.805   1.331
  538TIP3    H2 1558   6.427   7.668   1.325
  539TIP3   OH2 1559   1.525   1.587   3.267
  539TIP3    H1 1560   1.517   1.503   3.311
  539TIP3    H2 1561   1.540   1.650   3.338
  540TIP3   OH2 1562   3.155   6.709   4.342
  540TIP3    H1 1563   3.139   6.794   4.302
  540TIP3    H2 1564   3.090   6.703   4.412
  541TIP3   OH2 1565   0.125   7.664   4.789
  541TIP3    H1 1566   0.041   7.707   4.777
  541TIP3    H2 1567   0.170   7.715   4.856
  542TIP3   OH2 1568   4.180   3.990   5.367
  542TIP3    H1 1569   4.091   3.984   5.333
  542TIP3    H2 1570   4.207   3.899   5.380
  543TIP3   OH2 1571   7.231   7.749   6.341
  543TIP3    H1 1572   7.322   7.777   6.353
  543TIP3    H2 1573   7.179   7.815   6.387
  544TIP3   OH2 1574   3.975   0.701   2.089
  544TIP3    H1 1575   3.934   0.632   2.141
  544TIP3    H2 1576   3.928   0.700   2.005
  545TIP3   OH2 1577   6.699   7.270   2.855
  545TIP3    H1 1578   6.676   7.191   2.904
  545TIP3    H2 1579   6.699   7.340   2.920
  546TIP3   OH2 1580   0.574   0.227   3.071
  546TIP3    H1 1581   0.489   0.201   3.035
  546TIP3    H2 1582   0.574   0.193   3.160
  547TIP3   OH2 1583   4.008   4.473   6.298
  547TIP3    H1 1584   3.975   4.431   6.218
  547TIP3    H2 1585   4.102   4.480   6.284
  548TIP3   OH2 1586   1.113   3.360   0.400
  548TIP3    H1 1587   1.123   3.297   0.471
  548TIP3    H2 1588   1.203   3.386   0.379
  549TIP3   OH2 1589   6.080   3.048   3.268
  549TIP3    H1 1590   5.998   3.081   3.232
  549TIP3    H2 1591   6.142   3.054   3.195
  550TIP3   OH2 1592   6.174   4.431   4.076
  550TIP3    H1 1593   6.219   4.358   4.033
  550TIP3    H2 1594   6.108   4.458   4.012
  551TIP3   OH2 1595   7.846   4.923   2.390
  551TIP3    H1 1596   7.822   4.854   2.451
  551TIP3    H2 1597   7.887   4.878   2.317
  552TIP3   OH2 1598   3.606   3.093   1.908
  552TIP3    H1 1599   3.542   3.068   1.842
  552TIP3    H2 1600   3.654   3.166   1.868
  553TIP3   OH2 1601   3.183   0.285   1.975
  553TIP3    H1 1602   3.243   0.341   2.024
  553TIP3    H2 1603   3.195   0.311   1.884
  554TIP3   OH2 1604   7.943   4.941   6.277
  554TIP3    H1 1605   7.923   4.862   6.326
  554TIP3    H2 1606   7.986   4.998   6.341
  555TIP3   OH2 1607   6.427   4.733   5.434
  555TIP3    H1 1608   6.454   4.776   5.516
  555TIP3    H2 1609   6.509   4.706   5.393
  556TIP3   OH2 1610   6.638   1.006   0.253
  556TIP3    H1 1611   6.701   0.971   0.317
  556TIP3    H2 1612   6.693   1.043   0.184
  557TIP3   OH2 1613   1.717   7.231   5.827
  557TIP3    H1 1614   1.798   7.261   5.867
  557TIP3    H2 1615   1.705   7.288   5.751
  558TIP3   OH2 1616   6.409   6.710   4.806
  558TIP3    H1 1617   6.327   6.758   4.819
  558TIP3    H2 1618   6.383   6.619   4.794
  559TIP3   OH2 1619   4.728   2.023   1.113
  559TIP3    H1 1620   4.716   2.108   1.071
  559TIP3    H2 1621   4.686   2.033   1.198
  560TIP3   OH2 1622   7.438   0.567   1.196
  560TIP3    H1 1623   7.352   0.566   1.154
  560TIP3    H2 1624   7.488   0.499   1.151
  561TIP3   OH2 1625   1.295   3.332   3.093
  561TIP3    H1 1626   1.349   3.411   3.085
  561TIP3    H2 1627   1.352   3.261   3.064
  562TIP3   OH2 1628   3.451   7.779   2.599
  562TIP3    H1 1629   3.379   7.716   2.602
  562TIP3    H2 1630   3.479   7.786   2.690
  563TIP3   OH2 1631   6.550   0.189   0.231
  563TIP3    H1 1632   6.553   0.239   0.313
  563TIP3    H2 1633   6.631   0.213   0.186
  564TIP3   OH2 1634   4.057   4.464   4.565
  564TIP3    H1 1635   4.057   4.541   4.622
  564TIP3    H2 1636   4.000   4.401   4.611
  565TIP3   OH2 1637   6.353   3.603   4.162
  565TIP3    H1 1638   6.418   3.571   4.099
  565TIP3    H2 1639   6.301   3.666   4.112
  566TIP3   OH2 1640   7.383   3.792   4.774
  566TIP3    H1 1641   7.382   3.741   4.855
  566TIP3    H2 1642   7.472   3.827   4.769
  567TIP3   OH2 1643   1.293   2.537   0.152
  567TIP3    H1 1644   1.293   2.443   0.172
  567TIP3    H2 1645   1.385   2.558   0.135
  568TIP3   OH2 1646   7.393   5.032   4.335
  568TIP3    H1 1647   7.413   5.076   4.417
  568TIP3    H2 1648   7.460   4.963   4.328
  569TIP3   OH2 1649   2.322   4.235   6.033
  569TIP3    H1 1650   2.305   4.143   6.015
  569TIP3    H2 1651   2.408   4.252   5.996
  570TIP3   OH2 1652   1.949   3.519   6.155
  570TIP3    H1 1653   1.947   3.600   6.206
  570TIP3    H2 1654   1.920   3.545   6.068
  571TIP3   OH2 1655   5.259   1.510   0.826
  571TIP3    H1 1656   5.198   1.581   0.847
  571TIP3    H2 1657   5.344   1.541   0.858
  572TIP3   OH2 1658   5.579   1.146   0.564
  572TIP3    H1 1659   5.487   1.166   0.546
  572TIP3    H2 1660   5.576   1.087   0.640
  573TIP3   OH2 1661   3.295   3.524   4.728
  573TIP3    H1 1662   3.378   3.528   4.680
  573TIP3    H2 1663   3.234   3.484   4.667
  574TIP3   OH2 1664   7.594   3.054   2.901
  574TIP3    H1 1665   7.630   2.967   2.922
  574TIP3    H2 1666   7.505   3.037   2.872
  575TIP3   OH2 1667   2.409   2.546   6.328
  575TIP3    H1 1668   2.483   2.487   6.341
  575TIP3    H2 1669   2.332   2.492   6.348
  576TIP3   OH2 1670   6.926   0.459   0.447
  576TIP3    H1 1671   7.017   0.484   0.430
  576TIP3    H2 1672   6.900   0.409   0.370
  577TIP3   OH2 1673   5.676   2.269   3.017
  577TIP3    H1 1674   5.711   2.285   3.105
  577TIP3    H2 1675   5.586   2.302   3.022
  578TIP3   OH2 1676   1.076   1.955   3.613
  578TIP3    H1 1677   1.145   1.895   3.642
  578TIP3    H2 1678   1.024   1.905   3.550
  579TIP3   OH2 1679   4.266   4.298   2.052
  579TIP3    H1 1680   4.236   4.277   1.963
  579TIP3    H2 1681   4.360   4.312   2.044
  580TIP3   OH2 1682   3.003   5.540   3.410
  580TIP3    H1 1683   3.061   5.547   3.334
  580TIP3    H2 1684   2.922   5.582   3.381
  581TIP3   OH2 1685   6.366   1.535   0.803
  581TIP3    H1 1686   6.449   1.551   0.759
  581TIP3    H2 1687   6.371   1.445   0.834
  582TIP3   OH2 1688   5.711   4.465   3.193
  582TIP3    H1 1689   5.740   4.436   3.107
  582TIP3    H2 1690   5.624   4.501   3.178
  583TIP3   OH2 1691   7.615   4.286   0.870
  583TIP3    H1 1692   7.534   4.323   0.835
  583TIP3    H2 1693   7.589   4.239   0.949
  584TIP3   OH2 1694   3.977   4.617   4.345
  584TIP3    H1 1695   4.012   4.568   4.419
  584TIP3    H2 1696   3.902   4.565   4.316
  585TIP3   OH2 1697   7.540   4.962   2.469
  585TIP3    H1 1698   7.606   4.965   2.400
  585TIP3    H2 1699   7.457   4.977   2.423
  586TIP3   OH2 1700   8.124   0.384   0.991
  586TIP3    H1 1701   8.056   0.319   0.974
  586TIP3    H2 1702   8.086   0.467   0.962
  587TIP3   OH2 1703   1.000   7.389   0.710
  587TIP3    H1 1704   1.089   7.413   0.684
  587TIP3    H2 1705   0.975   7.457   0.772
  588TIP3   OH2 1706   3.888   4.143   0.095
  588TIP3    H1 1707   3.873   4.120   0.003
  588TIP3    H2 1708   3.809   4.190   0.121
  589TIP3   OH2 1709   7.985   3.216   0.478
  589TIP3    H1 1710   8.038   3.237   0.554
  589TIP3    H2 1711   8.023   3.267   0.407
  590TIP3   OH2 1712   0.651   7.453   4.729
  590TIP3    H1 1713   0.607   7.385   4.780
  590TIP3    H2 1714   0.727   7.408   4.691
  591TIP3   OH2 1715   4.129   4.718   2.502
  591TIP3    H1 1716   4.049   4.667   2.491
  591TIP3    H2 1717   4.099   4.809   2.500
  592TIP3   OH2 1718   7.333   2.393   4.890
  592TIP3    H1 1719   7.253   2.340   4.892
  592TIP3    H2 1720   7.328   2.440   4.807
  593TIP3   OH2 1721   5.201   5.345   4.372
  593TIP3    H1 1722   5.291   5.362   4.400
  593TIP3    H2 1723   5.147   5.374   4.446
  594TIP3   OH2 1724   4.275   5.616   6.226
  594TIP3    H1 1725   4.271   5.573   6.140
  594TIP3    H2 1726   4.226   5.557   6.284
  595TIP3   OH2 1727   4.858   1.989   6.513
  595TIP3    H1 1728   4.943   2.008   6.474
  595TIP3    H2 1729   4.817   1.926   6.454
  596TIP3   OH2 1730   3.399   6.416   6.605
  596TIP3    H1 1731   3.406   6.499   6.652
  596TIP3    H2 1732   3.370   6.440   6.517
  597TIP3   OH2 1733   6.938   0.815   3.251
  597TIP3    H1 1734   6.905   0.889   3.199
  597TIP3    H2 1735   6.907   0.832   3.339
  598TIP3   OH2 1736   7.772   7.292   6.307
  598TIP3    H1 1737   7.691   7.276   6.354
  598TIP3    H2 1738   7.796   7.382   6.329
  599TIP3   OH2 1739   7.707   6.388   3.100
  599TIP3    H1 1740   7.793   6.409   3.135
  599TIP3    H2 1741   7.648   6.391   3.175
  600TIP3   OH2 1742   5.486   7.199   4.529
  600TIP3    H1 1743   5.482   7.109   4.498
  600TIP3    H2 1744   5.415   7.206   4.593
  601TIP3   OH2 1745   6.177   5.955   4.605
  601TIP3    H1 1746   6.219   5.942   4.690
  601TIP3    H2 1747   6.249   5.974   4.545
  602TIP3   OH2 1748   4.416   0.663   2.080
  602TIP3    H1 1749   4.450   0.576   2.058
  602TIP3    H2 1750   4.363   0.648   2.159
  603TIP3   OH2 1751   1.689   7.258   3.632
  603TIP3    H1 1752   1.699   7.216   3.718
  603TIP3    H2 1753   1.610   7.218   3.595
  604TIP3   OH2 1754   2.234   6.651   4.999
  604TIP3    H1 1755   2.196   6.612   5.078
  604TIP3    H2 1756   2.308   6.595   4.978
  605TIP3   OH2 1757   0.362   2.000   3.322
  605TIP3    H1 1758   0.334   1.982   3.232
  605TIP3    H2 1759   0.292   2.053   3.359
  606TIP3   OH2 1760   0.320   5.156   5.193
  606TIP3    H1 1761   0.339   5.180   5.284
  606TIP3    H2 1762   0.360   5.070   5.181
  607TIP3   OH2 1763   1.335   7.748   4.137
  607TIP3    H1 1764   1.396   7.790   4.198
  607TIP3    H2 1765   1.391   7.688   4.086
  608TIP3   OH2 1766   3.579   4.905   0.807
  608TIP3    H1 1767   3.660   4.858   0.789
  608TIP3    H2 1768   3.588   4.934   0.898
  609TIP3   OH2 1769   6.186   0.881   5.050
  609TIP3    H1 1770   6.255   0.884   5.116
  609TIP3    H2 1771   6.124   0.948   5.077
  610TIP3   OH2 1772   4.920   1.137   0.992
  610TIP3    H1 1773   4.853   1.202   0.971
  610TIP3    H2 1774   5.002   1.186   0.994
  611TIP3   OH2 1775   5.534   6.336   5.735
  611TIP3    H1 1776   5.584   6.260   5.766
  611TIP3    H2 1777   5.586   6.411   5.762
  612TIP3   OH2 1778   3.787   3.035   0.136
  612TIP3    H1 1779   3.735   3.080   0.070
  612TIP3    H2 1780   3.860   3.096   0.154
  613TIP3   OH2 1781   4.822   0.630   0.456
  613TIP3    H1 1782   4.800   0.575   0.380
  613TIP3    H2 1783   4.872   0.703   0.419
  614TIP3   OH2 1784   3.241   5.705   6.491
  614TIP3    H1 1785   3.315   5.644   6.491
  614TIP3    H2 1786   3.236   5.737   6.401
  615TIP3   OH2 1787   8.275   2.025   1.696
  615TIP3    H1 1788   8.185   2.046   1.670
  615TIP3    H2 1789   8.266   1.953   1.758
  616TIP3   OH2 1790   6.014   6.088   3.460
  616TIP3    H1 1791   6.030   6.017   3.397
  616TIP3    H2 1792   5.923   6.076   3.486
  617TIP3   OH2 1793   7.675   6.779   0.590
  617TIP3    H1 1794   7.656   6.853   0.648
  617TIP3    H2 1795   7.600   6.721   0.600
  618TIP3   OH2 1796   7.287   3.796   6.562
  618TIP3    H1 1797   7.350   3.818   6.631
  618TIP3    H2 1798   7.223   3.867   6.565
  619TIP3   OH2 1799   0.291   6.033   1.312
  619TIP3    H1 1800   0.343   6.016   1.391
  619TIP3    H2 1801   0.284   6.128   1.308
  620TIP3   OH2 1802   7.518   1.570   5.072
  620TIP3    H1 1803   7.517   1.634   5.000
  620TIP3    H2 1804   7.468   1.612   5.142
  621TIP3   OH2 1805   1.146   3.151   5.328
  621TIP3    H1 1806   1.060   3.113   5.310
  621TIP3    H2 1807   1.209   3.087   5.292
  622TIP3   OH2 1808   1.320   4.883   2.374
  622TIP3    H1 1809   1.358   4.926   2.298
  622TIP3    H2 1810   1.234   4.924   2.384
  623TIP3   OH2 1811   8.209   0.491   1.768
  623TIP3    H1 1812   8.231   0.526   1.682
  623TIP3    H2 1813   8.257   0.408   1.774
  624TIP3   OH2 1814   3.083   6.331   6.596
  624TIP3    H1 1815   3.074   6.291   6.682
  624TIP3    H2 1816   3.146   6.276   6.550
  625TIP3   OH2 1817   7.855   3.677   5.446
  625TIP3    H1 1818   7.903   3.674   5.364
  625TIP3    H2 1819   7.845   3.585   5.471
  626TIP3   OH2 1820   2.998   1.023   5.756
  626TIP3    H1 1821   3.001   1.118   5.765
  626TIP3    H2 1822   3.088   0.998   5.734
  627TIP3   OH2 1823   0.406   5.214   0.784
  627TIP3    H1 1824   0.385   5.291   0.731
  627TIP3    H2 1825   0.330   5.157   0.778
  628TIP3   OH2 1826   4.067   5.059   0.892
  628TIP3    H1 1827   4.131   5.066   0.822
  628TIP3    H2 1828   4.110   5.002   0.957
  629TIP3   OH2 1829   2.751   1.726   2.895
  629TIP3    H1 1830   2.825   1.781   2.920
  629TIP3    H2 1831   2.674   1.778   2.917
  630TIP3   OH2 1832   5.896   0.796   2.823
  630TIP3    H1 1833   5.991   0.804   2.813
  630TIP3    H2 1834   5.877   0.835   2.908
  631TIP3   OH2 1835   2.098   6.720   1.724
  631TIP3    H1 1836   2.108   6.634   1.766
  631TIP3    H2 1837   2.007   6.723   1.697
  632TIP3   OH2 1838   1.215   4.278   0.506
  632TIP3    H1 1839   1.277   4.278   0.579
  632TIP3    H2 1840   1.183   4.369   0.503
  633TIP3   OH2 1841   4.497   6.590   0.120
  633TIP3    H1 1842   4.509   6.663   0.180
  633TIP3    H2 1843   4.499   6.629   0.033
  634TIP3   OH2 1844   3.759   6.792   4.584
  634TIP3    H1 1845   3.713   6.719   4.542
  634TIP3    H2 1846   3.689   6.845   4.622
  635TIP3   OH2 1847   0.494   7.031   4.612
  635TIP3    H1 1848   0.568   7.046   4.670
  635TIP3    H2 1849   0.513   7.084   4.534
  636TIP3   OH2 1850   2.001   3.213   6.019
  636TIP3    H1 1851   1.975   3.287   5.964
  636TIP3    H2 1852   1.994   3.246   6.109
  637TIP3   OH2 1853   6.095   6.487   4.270
  637TIP3    H1 1854   6.151   6.453   4.199
  637TIP3    H2 1855   6.024   6.422   4.277
  638TIP3   OH2 1856   1.595   6.966   0.974
  638TIP3    H1 1857   1.604   6.946   1.067
  638TIP3    H2 1858   1.557   6.886   0.936
  639TIP3   OH2 1859   2.557   3.101   3.292
  639TIP3    H1 1860   2.645   3.138   3.291
  639TIP3    H2 1861   2.508   3.153   3.355
  640TIP3   OH2 1862   1.498   6.705   5.352
  640TIP3    H1 1863   1.536   6.717   5.439
  640TIP3    H2 1864   1.470   6.613   5.350
  641TIP3   OH2 1865   0.341   6.583   5.870
  641TIP3    H1 1866   0.389   6.538   5.800
  641TIP3    H2 1867   0.406   6.638   5.912
  642TIP3   OH2 1868   4.395   3.899   0.595
  642TIP3    H1 1869   4.459   3.932   0.659
  642TIP3    H2 1870   4.311   3.904   0.640
  643TIP3   OH2 1871   4.455   6.083   1.909
  643TIP3    H1 1872   4.435   6.106   2.000
  643TIP3    H2 1873   4.527   6.142   1.885
  644TIP3   OH2 1874   0.768   2.766   0.717
  644TIP3    H1 1875   0.710   2.765   0.640
  644TIP3    H2 1876   0.762   2.677   0.752
  645TIP3   OH2 1877   5.880   1.483   3.924
  645TIP3    H1 1878   5.854   1.417   3.860
  645TIP3    H2 1879   5.887   1.436   4.006
  646TIP3   OH2 1880   0.377   2.210   2.652
  646TIP3    H1 1881   0.383   2.116   2.667
  646TIP3    H2 1882   0.448   2.247   2.703
  647TIP3   OH2 1883   5.256   5.085   1.625
  647TIP3    H1 1884   5.341   5.128   1.619
  647TIP3    H2 1885   5.193   5.156   1.617
  648TIP3   OH2 1886   3.793   2.740   3.237
  648TIP3    H1 1887   3.845   2.742   3.318
  648TIP3    H2 1888   3.782   2.832   3.214
  649TIP3   OH2 1889   6.528   5.727   3.066
  649TIP3    H1 1890   6.484   5.746   3.149
  649TIP3    H2 1891   6.615   5.695   3.092
  650TIP3   OH2 1892   3.229   2.433   1.097
  650TIP3    H1 1893   3.153   2.381   1.071
  650TIP3    H2 1894   3.250   2.483   1.018
  651TIP3   OH2 1895   6.567   3.018   4.851
  651TIP3    H1 1896   6.623   3.087   4.815
  651TIP3    H2 1897   6.573   3.028   4.946
  652TIP3   OH2 1898   3.888   5.481   0.945
  652TIP3    H1 1899   3.954   5.543   0.915
  652TIP3    H2 1900   3.936   5.423   1.005
  653TIP3   OH2 1901   0.742   1.859   3.139
  653TIP3    H1 1902   0.728   1.783   3.082
  653TIP3    H2 1903   0.826   1.895   3.110
  654TIP3   OH2 1904   4.019   1.629   0.670
  654TIP3    H1 1905   4.106   1.660   0.642
  654TIP3    H2 1906   4.008   1.546   0.624
  655TIP3   OH2 1907   7.994   1.153   2.833
  655TIP3    H1 1908   7.989   1.234   2.782
  655TIP3    H2 1909   7.904   1.139   2.865
  656TIP3   OH2 1910   0.452   4.191   0.768
  656TIP3    H1 1911   0.458   4.134   0.845
  656TIP3    H2 1912   0.473   4.133   0.694
  657TIP3   OH2 1913   4.860   4.645   4.540
  657TIP3    H1 1914   4.905   4.723   4.573
  657TIP3    H2 1915   4.931   4.584   4.518
  658TIP3   OH2 1916   4.566   5.757   4.959
  658TIP3    H1 1917   4.617   5.719   5.031
  658TIP3    H2 1918   4.627   5.819   4.918
  659TIP3   OH2 1919   4.920   2.342   6.432
  659TIP3    H1 1920   4.878   2.346   6.518
  659TIP3    H2 1921   4.872   2.274   6.385
  660TIP3   OH2 1922   4.597   7.642   5.910
  660TIP3    H1 1923   4.534   7.571   5.895
  660TIP3    H2 1924   4.659   7.605   5.974
  661TIP3   OH2 1925   5.164   3.474   3.799
  661TIP3    H1 1926   5.082   3.525   3.797
  661TIP3    H2 1927   5.136   3.383   3.795
  662TIP3   OH2 1928   3.888   4.192   6.567
  662TIP3    H1 1929   3.843   4.265   6.524
  662TIP3    H2 1930   3.935   4.232   6.640
  663TIP3   OH2 1931   1.615   6.904   1.238
  663TIP3    H1 1932   1.574   6.966   1.298
  663TIP3    H2 1933   1.674   6.852   1.294
  664TIP3   OH2 1934   4.672   1.940   2.989
  664TIP3    H1 1935   4.722   2.021   2.998
  664TIP3    H2 1936   4.717   1.877   3.045
  665TIP3   OH2 1937   4.328   1.523   1.311
  665TIP3    H1 1938   4.373   1.456   1.362
  665TIP3    H2 1939   4.394   1.556   1.250
  666TIP3   OH2 1940   2.573   6.052   3.301
  666TIP3    H1 1941   2.566   6.109   3.377
  666TIP3    H2 1942   2.581   6.111   3.227
  667TIP3   OH2 1943   1.746   2.901   0.965
  667TIP3    H1 1944   1.774   2.860   0.883
  667TIP3    H2 1945   1.652   2.884   0.969
  668TIP3   OH2 1946   3.892   7.338   6.121
  668TIP3    H1 1947   3.957   7.282   6.078
  668TIP3    H2 1948   3.943   7.386   6.187
  669TIP3   OH2 1949   7.693   4.860   1.763
  669TIP3    H1 1950   7.669   4.799   1.694
  669TIP3    H2 1951   7.744   4.928   1.719
  670TIP3   OH2 1952   3.684   1.628   3.974
  670TIP3    H1 1953   3.767   1.600   3.935
  670TIP3    H2 1954   3.626   1.643   3.899
  671TIP3   OH2 1955   4.950   7.517   2.861
  671TIP3    H1 1956   5.031   7.536   2.814
  671TIP3    H2 1957   4.938   7.422   2.848
  672TIP3   OH2 1958   4.853   0.081   3.097
  672TIP3    H1 1959   4.842  -0.001   3.145
  672TIP3    H2 1960   4.898   0.055   3.016
  673TIP3   OH2 1961   6.164   5.218   5.790
  673TIP3    H1 1962   6.102   5.279   5.828
  673TIP3    H2 1963   6.248   5.265   5.791
  674TIP3   OH2 1964   3.379   1.670   4.104
  674TIP3    H1 1965   3.306   1.709   4.151
  674TIP3    H2 1966   3.425   1.745   4.064
  675TIP3   OH2 1967   6.922   2.669   1.415
  675TIP3    H1 1968   6.984   2.660   1.343
  675TIP3    H2 1969   6.976   2.674   1.494
  676TIP3   OH2 1970   2.256   6.994   4.229
  676TIP3    H1 1971   2.292   7.064   4.174
  676TIP3    H2 1972   2.333   6.960   4.276
  677TIP3   OH2 1973   2.954   2.933   0.192
  677TIP3    H1 1974   2.983   2.842   0.198
  677TIP3    H2 1975   2.962   2.966   0.282
  678TIP3   OH2 1976   5.201   7.299   0.338
  678TIP3    H1 1977   5.155   7.219   0.313
  678TIP3    H2 1978   5.133   7.357   0.372
  679TIP3   OH2 1979   3.294   1.830   2.537
  679TIP3    H1 1980   3.385   1.850   2.515
  679TIP3    H2 1981   3.243   1.892   2.485
  680TIP3   OH2 1982   7.951   4.754   4.702
  680TIP3    H1 1983   7.959   4.667   4.739
  680TIP3    H2 1984   7.899   4.803   4.766
  681TIP3   OH2 1985   1.674   3.352   4.838
  681TIP3    H1 1986   1.601   3.295   4.864
  681TIP3    H2 1987   1.652   3.381   4.749
  682TIP3   OH2 1988   1.784   3.811   0.084
  682TIP3    H1 1989   1.721   3.741   0.099
  682TIP3    H2 1990   1.746   3.888   0.127
  683TIP3   OH2 1991   6.291   2.963   2.641
  683TIP3    H1 1992   6.273   2.869   2.633
  683TIP3    H2 1993   6.213   2.998   2.685
  684TIP3   OH2 1994   2.699   7.854   5.153
  684TIP3    H1 1995   2.735   7.840   5.066
  684TIP3    H2 1996   2.631   7.787   5.161
  685TIP3   OH2 1997   3.524   2.618   3.424
  685TIP3    H1 1998   3.453   2.554   3.419
  685TIP3    H2 1999   3.594   2.574   3.471
  686TIP3   OH2 2000   0.882   3.966   5.222
  686TIP3    H1 2001   0.937   3.928   5.153
  686TIP3    H2 2002   0.851   4.048   5.184
  687TIP3   OH2 2003   3.298   5.646   0.415
  687TIP3    H1 2004   3.230   5.581   0.433
  687TIP3    H2 2005   3.261   5.729   0.442
  688TIP3   OH2 2006   5.667   1.144   4.761
  688TIP3    H1 2007   5.706   1.191   4.835
  688TIP3    H2 2008   5.727   1.072   4.743
  689TIP3   OH2 2009   4.158   1.975   6.498
  689TIP3    H1 2010   4.129   2.064   6.518
  689TIP3    H2 2011   4.108   1.920   6.557
  690TIP3   OH2 2012   4.766   0.645   0.179
  690TIP3    H1 2013   4.799   0.728   0.215
  690TIP3    H2 2014   4.842   0.605   0.136
  691TIP3   OH2 2015   2.552   3.936   2.531
  691TIP3    H1 2016   2.505   3.999   2.586
  691TIP3    H2 2017   2.645   3.953   2.549
  692TIP3   OH2 2018   0.927   1.920   4.545
  692TIP3    H1 2019   1.021   1.924   4.525
  692TIP3    H2 2020   0.892   2.002   4.511
  693TIP3   OH2 2021   2.571   7.156   2.306
  693TIP3    H1 2022   2.664   7.133   2.302
  693TIP3    H2 2023   2.560   7.194   2.393
  694TIP3   OH2 2024   3.947   1.097   2.572
  694TIP3    H1 2025   3.948   1.049   2.489
  694TIP3    H2 2026   3.874   1.159   2.564
  695TIP3   OH2 2027   0.152   2.381   4.809
  695TIP3    H1 2028   0.062   2.350   4.809
  695TIP3    H2 2029   0.197   2.326   4.745
  696TIP3   OH2 2030   2.915   2.378   0.163
  696TIP3    H1 2031   2.972   2.365   0.088
  696TIP3    H2 2032   2.973   2.372   0.239
  697TIP3   OH2 2033   5.306   4.911   5.959
  697TIP3    H1 2034   5.365   4.971   6.005
  697TIP3    H2 2035   5.280   4.959   5.880
  698TIP3   OH2 2036   1.710   0.060   4.849
  698TIP3    H1 2037   1.746   0.026   4.931
  698TIP3    H2 2038   1.757   0.142   4.834
  699TIP3   OH2 2039   6.259   0.846   0.635
  699TIP3    H1 2040   6.188   0.803   0.588
  699TIP3    H2 2041   6.331   0.849   0.572
  700TIP3   OH2 2042  -0.052   4.323   6.129
  700TIP3    H1 2043   0.038   4.312   6.096
  700TIP3    H2 2044  -0.040   4.349   6.221
  701TIP3   OH2 2045   3.693   5.185   1.905
  701TIP3    H1 2046   3.788   5.183   1.916
  701TIP3    H2 2047   3.680   5.195   1.810
  702TIP3   OH2 2048   3.271   4.753   4.738
  702TIP3    H1 2049   3.366   4.738   4.732
  702TIP3    H2 2050   3.243   4.696   4.809
  703TIP3   OH2 2051   2.199   2.856   1.836
  703TIP3    H1 2052   2.205   2.942   1.795
  703TIP3    H2 2053   2.236   2.868   1.923
  704TIP3   OH2 2054   0.901   0.661   3.001
  704TIP3    H1 2055   0.956   0.708   2.938
  704TIP3    H2 2056   0.814   0.659   2.961
  705TIP3   OH2 2057   1.296   0.845   3.569
  705TIP3    H1 2058   1.380   0.801   3.554
  705TIP3    H2 2059   1.300   0.924   3.516
  706TIP3   OH2 2060   4.806   0.094   5.566
  706TIP3    H1 2061   4.879   0.049   5.525
  706TIP3    H2 2062   4.805   0.180   5.524
  707TIP3   OH2 2063   4.840   0.411   3.979
  707TIP3    H1 2064   4.903   0.374   3.918
  707TIP3    H2 2065   4.873   0.498   3.998
  708TIP3   OH2 2066   1.386   5.283   3.243
  708TIP3    H1 2067   1.326   5.319   3.309
  708TIP3    H2 2068   1.385   5.348   3.172
  709TIP3   OH2 2069   2.374   1.516   2.437
  709TIP3    H1 2070   2.451   1.478   2.397
  709TIP3    H2 2071   2.360   1.598   2.388
  710TIP3   OH2 2072   2.122   2.671   0.816
  710TIP3    H1 2073   2.104   2.687   0.908
  710TIP3    H2 2074   2.088   2.749   0.771
  711TIP3   OH2 2075   2.272   2.276   2.946
  711TIP3    H1 2076   2.186   2.294   2.983
  711TIP3    H2 2077   2.256   2.261   2.853
  712TIP3   OH2 2078   3.945   7.574   2.622
  712TIP3    H1 2079   4.022   7.629   2.607
  712TIP3    H2 2080   3.878   7.612   2.565
  713TIP3   OH2 2081   5.037   5.290   0.765
  713TIP3    H1 2082   5.099   5.327   0.703
  713TIP3    H2 2083   4.952   5.322   0.736
  714TIP3   OH2 2084   4.734   2.180   6.256
  714TIP3    H1 2085   4.654   2.224   6.229
  714TIP3    H2 2086   4.738   2.102   6.201
  715TIP3   OH2 2087   2.021   2.622   6.363
  715TIP3    H1 2088   2.048   2.676   6.437
  715TIP3    H2 2089   2.077   2.545   6.367
  716TIP3   OH2 2090   5.915   4.394   6.176
  716TIP3    H1 2091   5.824   4.400   6.147
  716TIP3    H2 2092   5.947   4.484   6.176
  717TIP3   OH2 2093   0.752   3.003   2.156
  717TIP3    H1 2094   0.806   3.082   2.165
  717TIP3    H2 2095   0.775   2.949   2.231
  718TIP3   OH2 2096   6.291   4.423   0.269
  718TIP3    H1 2097   6.216   4.414   0.328
  718TIP3    H2 2098   6.299   4.338   0.227
  719TIP3   OH2 2099   5.342   2.455   6.057
  719TIP3    H1 2100   5.393   2.378   6.080
  719TIP3    H2 2101   5.251   2.429   6.074
  720TIP3   OH2 2102   2.625   1.845   1.539
  720TIP3    H1 2103   2.660   1.798   1.463
  720TIP3    H2 2104   2.586   1.924   1.502
  721TIP3   OH2 2105   5.750   6.714   5.351
  721TIP3    H1 2106   5.732   6.807   5.367
  721TIP3    H2 2107   5.824   6.714   5.291
  722TIP3   OH2 2108   0.569   6.724   5.968
  722TIP3    H1 2109   0.575   6.757   6.058
  722TIP3    H2 2110   0.642   6.663   5.959
  723TIP3   OH2 2111   5.936   4.792   5.304
  723TIP3    H1 2112   5.991   4.771   5.228
  723TIP3    H2 2113   5.996   4.791   5.378
  724TIP3   OH2 2114   0.175   5.604   4.422
  724TIP3    H1 2115   0.203   5.559   4.342
  724TIP3    H2 2116   0.205   5.548   4.493
  725TIP3   OH2 2117   6.748   5.463   5.088
  725TIP3    H1 2118   6.802   5.527   5.042
  725TIP3    H2 2119   6.659   5.477   5.054
  726TIP3   OH2 2120   7.805   7.666   4.058
  726TIP3    H1 2121   7.766   7.716   4.129
  726TIP3    H2 2122   7.897   7.692   4.057
  727TIP3   OH2 2123   6.109   1.112   0.576
  727TIP3    H1 2124   6.162   1.058   0.635
  727TIP3    H2 2125   6.146   1.095   0.489
  728TIP3   OH2 2126   1.514   0.037   0.881
  728TIP3    H1 2127   1.481   0.052   0.969
  728TIP3    H2 2128   1.474  -0.046   0.855
  729TIP3   OH2 2129   3.513   2.781   4.504
  729TIP3    H1 2130   3.536   2.865   4.544
  729TIP3    H2 2131   3.488   2.725   4.577
  730TIP3   OH2 2132   6.974   7.001   1.703
  730TIP3    H1 2133   6.911   6.948   1.751
  730TIP3    H2 2134   7.047   7.013   1.764
  731TIP3   OH2 2135   6.336   1.674   4.841
  731TIP3    H1 2136   6.373   1.757   4.871
  731TIP3    H2 2137   6.243   1.679   4.865
  732TIP3   OH2 2138   3.093   3.568   2.987
  732TIP3    H1 2139   3.170   3.606   2.944
  732TIP3    H2 2140   3.128   3.499   3.043
  733TIP3   OH2 2141   7.869   1.828   3.108
  733TIP3    H1 2142   7.878   1.790   3.020
  733TIP3    H2 2143   7.841   1.918   3.092
  734TIP3   OH2 2144   8.193   4.670   4.553
  734TIP3    H1 2145   8.110   4.718   4.555
  734TIP3    H2 2146   8.180   4.598   4.615
  735TIP3   OH2 2147   3.114   1.100   1.657
  735TIP3    H1 2148   3.116   1.018   1.706
  735TIP3    H2 2149   3.203   1.135   1.665
  736TIP3   OH2 2150   6.970   5.555   3.654
  736TIP3    H1 2151   6.947   5.463   3.639
  736TIP3    H2 2152   6.959   5.569   3.748
  737TIP3   OH2 2153   5.076   0.552   0.302
  737TIP3    H1 2154   5.140   0.551   0.230
  737TIP3    H2 2155   5.040   0.464   0.303
  738TIP3   OH2 2156   1.685   3.767   2.787
  738TIP3    H1 2157   1.694   3.679   2.749
  738TIP3    H2 2158   1.702   3.755   2.880
  739TIP3   OH2 2159   6.749   7.579   0.497
  739TIP3    H1 2160   6.779   7.633   0.424
  739TIP3    H2 2161   6.743   7.640   0.571
  740TIP3   OH2 2162   3.560   4.940   4.604
  740TIP3    H1 2163   3.576   4.845   4.606
  740TIP3    H2 2164   3.594   4.967   4.519
  741TIP3   OH2 2165   4.537   3.096   2.958
  741TIP3    H1 2166   4.456   3.082   3.006
  741TIP3    H2 2167   4.584   3.161   3.010
  742TIP3   OH2 2168   2.794   1.460   5.842
  742TIP3    H1 2169   2.762   1.515   5.914
  742TIP3    H2 2170   2.788   1.517   5.765
  743TIP3   OH2 2171   2.072   0.090   3.280
  743TIP3    H1 2172   1.998   0.031   3.268
  743TIP3    H2 2173   2.143   0.034   3.311
  744TIP3   OH2 2174   4.195   0.147   1.003
  744TIP3    H1 2175   4.161   0.115   1.087
  744TIP3    H2 2176   4.170   0.080   0.939
  745TIP3   OH2 2177   5.853   6.351   3.983
  745TIP3    H1 2178   5.844   6.278   4.044
  745TIP3    H2 2179   5.814   6.426   4.028
  746TIP3   OH2 2180   5.209   2.898   6.165
  746TIP3    H1 2181   5.189   2.991   6.176
  746TIP3    H2 2182   5.177   2.877   6.077
  747TIP3   OH2 2183   2.711   7.486   1.400
  747TIP3    H1 2184   2.780   7.419   1.390
  747TIP3    H2 2185   2.717   7.511   1.492
  748TIP3   OH2 2186   2.549   3.248   0.561
  748TIP3    H1 2187   2.527   3.251   0.468
  748TIP3    H2 2188   2.502   3.322   0.600
  749TIP3   OH2 2189   4.775   4.976   3.471
  749TIP3    H1 2190   4.826   5.049   3.434
  749TIP3    H2 2191   4.757   5.003   3.561
  750TIP3   OH2 2192   1.487   2.899   1.016
  750TIP3    H1 2193   1.395   2.915   1.037
  750TIP3    H2 2194   1.526   2.870   1.099
  751TIP3   OH2 2195   6.211   3.014   3.517
  751TIP3    H1 2196   6.229   3.106   3.539
  751TIP3    H2 2197   6.172   3.018   3.429
  752TIP3   OH2 2198   3.694   0.282   3.951
  752TIP3    H1 2199   3.761   0.217   3.929
  752TIP3    H2 2200   3.738   0.342   4.012
  753TIP3   OH2 2201   4.465   1.856   4.783
  753TIP3    H1 2202   4.516   1.842   4.704
  753TIP3    H2 2203   4.454   1.951   4.788
  754TIP3   OH2 2204   1.316   0.362   0.172
  754TIP3    H1 2205   1.229   0.375   0.134
  754TIP3    H2 2206   1.366   0.440   0.146
  755TIP3   OH2 2207   3.126   2.073   1.227
  755TIP3    H1 2208   3.216   2.055   1.253
  755TIP3    H2 2209   3.073   2.029   1.294
  756TIP3   OH2 2210   3.561   6.252   1.026
  756TIP3    H1 2211   3.497   6.307   0.980
  756TIP3    H2 2212   3.581   6.181   0.964
  757TIP3   OH2 2213   4.615   7.157   0.790
  757TIP3    H1 2214   4.603   7.131   0.881
  757TIP3    H2 2215   4.582   7.083   0.739
  758TIP3   OH2 2216   1.794   7.610   3.404
  758TIP3    H1 2217   1.718   7.562   3.370
  758TIP3    H2 2218   1.768   7.702   3.398
  759TIP3   OH2 2219   4.288   4.648   5.164
  759TIP3    H1 2220   4.281   4.688   5.251
  759TIP3    H2 2221   4.368   4.596   5.168
  760TIP3   OH2 2222   6.620   2.263   5.606
  760TIP3    H1 2223   6.625   2.358   5.599
  760TIP3    H2 2224   6.580   2.235   5.524
  761TIP3   OH2 2225   5.560   0.541   3.318
  761TIP3    H1 2226   5.551   0.635   3.301
  761TIP3    H2 2227   5.520   0.529   3.404
  762TIP3   OH2 2228   0.584   1.277   2.002
  762TIP3    H1 2229   0.654   1.328   2.042
  762TIP3    H2 2230   0.618   1.188   1.998
  763TIP3   OH2 2231   1.030   1.204   1.605
  763TIP3    H1 2232   1.009   1.111   1.600
  763TIP3    H2 2233   1.046   1.230   1.514
  764TIP3   OH2 2234   3.270   7.322   5.003
  764TIP3    H1 2235   3.303   7.261   4.938
  764TIP3    H2 2236   3.179   7.297   5.017
  765TIP3   OH2 2237   0.614   2.147   1.622
  765TIP3    H1 2238   0.636   2.137   1.530
  765TIP3    H2 2239   0.556   2.074   1.641
  766TIP3   OH2 2240   2.985   2.040   2.220
  766TIP3    H1 2241   2.908   1.984   2.216
  766TIP3    H2 2242   3.052   1.992   2.171
  767TIP3   OH2 2243   7.194   2.979   6.474
  767TIP3    H1 2244   7.240   3.017   6.399
  767TIP3    H2 2245   7.114   2.942   6.437
  768TIP3   OH2 2246   0.053   6.290   0.034
  768TIP3    H1 2247   0.043   6.274  -0.060
  768TIP3    H2 2248  -0.017   6.240   0.075
  769TIP3   OH2 2249   0.136   4.819   1.077
  769TIP3    H1 2250   0.086   4.809   1.159
  769TIP3    H2 2251   0.223   4.786   1.098
  770TIP3   OH2 2252   7.518   1.986   1.619
  770TIP3    H1 2253   7.590   1.923   1.614
  770TIP3    H2 2254   7.445   1.937   1.657
  771TIP3   OH2 2255   4.608   5.681   3.760
  771TIP3    H1 2256   4.651   5.681   3.675
  771TIP3    H2 2257   4.680   5.696   3.823
  772TIP3   OH2 2258   1.622   1.449   5.978
  772TIP3    H1 2259   1.648   1.526   6.028
  772TIP3    H2 2260   1.564   1.483   5.910
  773TIP3   OH2 2261   5.567   3.181   1.375
  773TIP3    H1 2262   5.626   3.118   1.334
  773TIP3    H2 2263   5.495   3.127   1.408
  774TIP3   OH2 2264   7.248   6.524   3.807
  774TIP3    H1 2265   7.278   6.500   3.895
  774TIP3    H2 2266   7.271   6.448   3.753
  775TIP3   OH2 2267   5.187   4.909   3.144
  775TIP3    H1 2268   5.219   4.979   3.201
  775TIP3    H2 2269   5.266   4.871   3.106
  776TIP3   OH2 2270   0.667   5.301   6.191
  776TIP3    H1 2271   0.698   5.350   6.268
  776TIP3    H2 2272   0.572   5.307   6.196
  777TIP3   OH2 2273   6.010   6.733   6.332
  777TIP3    H1 2274   5.971   6.680   6.401
  777TIP3    H2 2275   5.943   6.798   6.311
  778TIP3   OH2 2276   4.659   4.741   5.666
  778TIP3    H1 2277   4.685   4.744   5.574
  778TIP3    H2 2278   4.642   4.832   5.689
  779TIP3   OH2 2279   2.442   6.466   4.945
  779TIP3    H1 2280   2.395   6.386   4.920
  779TIP3    H2 2281   2.531   6.452   4.911
  780TIP3   OH2 2282   6.450   4.111   6.468
  780TIP3    H1 2283   6.441   4.028   6.421
  780TIP3    H2 2284   6.514   4.093   6.537
  781TIP3   OH2 2285   7.281   0.100   0.431
  781TIP3    H1 2286   7.256   0.164   0.499
  781TIP3    H2 2287   7.249   0.139   0.350
  782TIP3   OH2 2288   6.783   3.584   3.929
  782TIP3    H1 2289   6.812   3.495   3.949
  782TIP3    H2 2290   6.828   3.639   3.993
  783TIP3   OH2 2291   0.433   2.147   2.958
  783TIP3    H1 2292   0.361   2.211   2.952
  783TIP3    H2 2293   0.396   2.074   3.007
  784TIP3   OH2 2294   7.040   0.789   0.824
  784TIP3    H1 2295   6.946   0.802   0.816
  784TIP3    H2 2296   7.079   0.869   0.789
  785TIP3   OH2 2297   2.600   6.690   2.494
  785TIP3    H1 2298   2.527   6.658   2.546
  785TIP3    H2 2299   2.592   6.785   2.498
  786TIP3   OH2 2300   8.208   1.222   0.825
  786TIP3    H1 2301   8.193   1.223   0.731
  786TIP3    H2 2302   8.207   1.314   0.851
  787TIP3   OH2 2303   1.003   0.837   5.208
  787TIP3    H1 2304   1.058   0.915   5.197
  787TIP3    H2 2305   1.035   0.776   5.142
  788TIP3   OH2 2306   1.475   0.263   1.434
  788TIP3    H1 2307   1.480   0.210   1.514
  788TIP3    H2 2308   1.493   0.201   1.364
  789TIP3   OH2 2309   7.222   6.244   0.568
  789TIP3    H1 2310   7.133   6.227   0.597
  789TIP3    H2 2311   7.213   6.305   0.496
  790TIP3   OH2 2312   1.198   6.213   2.939
  790TIP3    H1 2313   1.187   6.130   2.986
  790TIP3    H2 2314   1.203   6.279   3.008
  791TIP3   OH2 2315   3.781   5.592   0.067
  791TIP3    H1 2316   3.833   5.513   0.051
  791TIP3    H2 2317   3.769   5.594   0.162
  792TIP3   OH2 2318   7.492   4.053   1.419
  792TIP3    H1 2319   7.421   4.062   1.482
  792TIP3    H2 2320   7.538   3.974   1.446
  793TIP3   OH2 2321   8.177   6.391   1.475
  793TIP3    H1 2322   8.120   6.462   1.443
  793TIP3    H2 2323   8.266   6.423   1.461
  794TIP3   OH2 2324   3.462   7.310   4.084
  794TIP3    H1 2325   3.388   7.372   4.078
  794TIP3    H2 2326   3.499   7.327   4.171
  795TIP3   OH2 2327   3.719   0.337   4.367
  795TIP3    H1 2328   3.785   0.268   4.373
  795TIP3    H2 2329   3.753   0.397   4.301
  796TIP3   OH2 2330   1.262   5.175   2.407
  796TIP3    H1 2331   1.287   5.207   2.493
  796TIP3    H2 2332   1.322   5.218   2.347
  797TIP3   OH2 2333   1.740   1.142   5.850
  797TIP3    H1 2334   1.747   1.234   5.823
  797TIP3    H2 2335   1.696   1.146   5.935
  798TIP3   OH2 2336   6.540   0.932   1.527
  798TIP3    H1 2337   6.449   0.937   1.557
  798TIP3    H2 2338   6.560   0.838   1.528
  799TIP3   OH2 2339   1.295   3.465   4.271
  799TIP3    H1 2340   1.272   3.557   4.257
  799TIP3    H2 2341   1.276   3.449   4.363
  800TIP3   OH2 2342   0.961   6.024   6.233
  800TIP3    H1 2343   0.975   5.945   6.286
  800TIP3    H2 2344   1.012   6.092   6.278
  801TIP3   OH2 2345   7.461   4.498   2.881
  801TIP3    H1 2346   7.535   4.507   2.942
  801TIP3    H2 2347   7.459   4.581   2.834
  802TIP3   OH2 2348   0.511   4.940   6.074
  802TIP3    H1 2349   0.486   4.849   6.058
  802TIP3    H2 2350   0.588   4.954   6.018
  803TIP3   OH2 2351   7.820   2.128   5.102
  803TIP3    H1 2352   7.794   2.049   5.149
  803TIP3    H2 2353   7.915   2.125   5.099
  804TIP3   OH2 2354   1.876   4.210   1.634
  804TIP3    H1 2355   1.812   4.218   1.564
  804TIP3    H2 2356   1.841   4.141   1.691
  805TIP3   OH2 2357   1.638   6.688   4.259
  805TIP3    H1 2358   1.593   6.662   4.178
  805TIP3    H2 2359   1.726   6.711   4.231
  806TIP3   OH2 2360   8.119   4.333   1.530
  806TIP3    H1 2361   8.055   4.395   1.495
  806TIP3    H2 2362   8.066   4.260   1.562
  807TIP3   OH2 2363   7.391   7.593   4.079
  807TIP3    H1 2364   7.336   7.517   4.060
  807TIP3    H2 2365   7.473   7.575   4.034
  808TIP3   OH2 2366   6.968   1.153   1.977
  808TIP3    H1 2367   6.884   1.151   2.024
  808TIP3    H2 2368   6.963   1.076   1.919
  809TIP3   OH2 2369   6.730   4.542   0.024
  809TIP3    H1 2370   6.745   4.479   0.095
  809TIP3    H2 2371   6.734   4.627   0.067
  810TIP3   OH2 2372   3.634   1.381   5.933
  810TIP3    H1 2373   3.714   1.393   5.882
  810TIP3    H2 2374   3.660   1.400   6.024
  811TIP3   OH2 2375   1.824   0.302   2.573
  811TIP3    H1 2376   1.756   0.355   2.616
  811TIP3    H2 2377   1.843   0.349   2.492
  812TIP3   OH2 2378   6.398   1.638   4.278
  812TIP3    H1 2379   6.415   1.639   4.372
  812TIP3    H2 2380   6.417   1.727   4.249
  813TIP3   OH2 2381   2.944   3.951   5.788
  813TIP3    H1 2382   2.885   3.955   5.712
  813TIP3    H2 2383   3.001   4.027   5.778
  814TIP3   OH2 2384  -0.022   7.275   4.905
  814TIP3    H1 2385   0.053   7.323   4.939
  814TIP3    H2 2386  -0.031   7.200   4.964
  815TIP3   OH2 2387   4.671   5.908   4.042
  815TIP3    H1 2388   4.682   5.822   4.082
  815TIP3    H2 2389   4.584   5.905   4.002
  816TIP3   OH2 2390   5.982   2.952   1.935
  816TIP3    H1 2391   5.986   2.948   2.030
  816TIP3    H2 2392   6.073   2.952   1.907
  817TIP3   OH2 2393   2.902   5.010   0.457
  817TIP3    H1 2394   2.952   5.005   0.375
  817TIP3    H2 2395   2.813   5.031   0.430
  818TIP3   OH2 2396   6.466   5.140   0.405
  818TIP3    H1 2397   6.395   5.131   0.342
  818TIP3    H2 2398   6.447   5.221   0.452
  819TIP3   OH2 2399   1.775   4.559   4.930
  819TIP3    H1 2400   1.753   4.468   4.910
  819TIP3    H2 2401   1.696   4.609   4.906
  820TIP3   OH2 2402   6.315   4.689   1.997
  820TIP3    H1 2403   6.300   4.595   1.987
  820TIP3    H2 2404   6.278   4.711   2.083
  821TIP3   OH2 2405   7.523   2.019   2.492
  821TIP3    H1 2406   7.583   1.944   2.497
  821TIP3    H2 2407   7.561   2.083   2.552
  822TIP3   OH2 2408   6.695   2.271  -0.007
  822TIP3    H1 2409   6.748   2.347   0.017
  822TIP3    H2 2410   6.606   2.304  -0.015
  823TIP3   OH2 2411   8.155   2.351   0.582
  823TIP3    H1 2412   8.216   2.416   0.547
  823TIP3    H2 2413   8.210   2.282   0.619
  824TIP3   OH2 2414   3.446   5.091   4.132
  824TIP3    H1 2415   3.410   5.077   4.044
  824TIP3    H2 2416   3.479   5.005   4.157
  825TIP3   OH2 2417   0.334   6.228   1.037
  825TIP3    H1 2418   0.251   6.270   1.062
  825TIP3    H2 2419   0.387   6.300   1.002
  826TIP3   OH2 2420   3.650   0.198   1.060
  826TIP3    H1 2421   3.658   0.103   1.069
  826TIP3    H2 2422   3.562   0.212   1.026
  827TIP3   OH2 2423   3.828   7.668   6.228
  827TIP3    H1 2424   3.882   7.599   6.264
  827TIP3    H2 2425   3.871   7.749   6.256
  828TIP3   OH2 2426   1.035   0.314   3.379
  828TIP3    H1 2427   1.082   0.360   3.449
  828TIP3    H2 2428   1.099   0.255   3.340
  829TIP3   OH2 2429   0.296   0.970   6.414
  829TIP3    H1 2430   0.377   0.944   6.458
  829TIP3    H2 2431   0.312   1.060   6.387
  830TIP3   OH2 2432   6.460   1.373   3.078
  830TIP3    H1 2433   6.517   1.340   3.147
  830TIP3    H2 2434   6.402   1.435   3.122
  831TIP3   OH2 2435   6.411   4.216   5.938
  831TIP3    H1 2436   6.485   4.267   5.907
  831TIP3    H2 2437   6.371   4.181   5.858
  832TIP3   OH2 2438   5.140   4.167   3.746
  832TIP3    H1 2439   5.219   4.166   3.691
  832TIP3    H2 2440   5.160   4.106   3.817
  833TIP3   OH2 2441   7.926   2.517   1.369
  833TIP3    H1 2442   7.987   2.566   1.424
  833TIP3    H2 2443   7.913   2.572   1.292
  834TIP3   OH2 2444   0.567   3.047   3.469
  834TIP3    H1 2445   0.600   3.064   3.558
  834TIP3    H2 2446   0.646   3.046   3.414
  835TIP3   OH2 2447   3.286   4.521   0.681
  835TIP3    H1 2448   3.213   4.565   0.726
  835TIP3    H2 2449   3.339   4.592   0.646
  836TIP3   OH2 2450   6.127   7.549   1.366
  836TIP3    H1 2451   6.129   7.528   1.460
  836TIP3    H2 2452   6.046   7.509   1.334
  837TIP3   OH2 2453   7.269   3.939   2.170
  837TIP3    H1 2454   7.229   3.903   2.091
  837TIP3    H2 2455   7.207   4.005   2.201
  838TIP3   OH2 2456   0.530   2.093   0.625
  838TIP3    H1 2457   0.451   2.107   0.678
  838TIP3    H2 2458   0.602   2.126   0.679
  839TIP3   OH2 2459   5.339   7.497   4.851
  839TIP3    H1 2460   5.286   7.433   4.804
  839TIP3    H2 2461   5.278   7.535   4.914
  840TIP3   OH2 2462   1.794   4.556   3.270
  840TIP3    H1 2463   1.756   4.643   3.280
  840TIP3    H2 2464   1.824   4.553   3.179
  841TIP3   OH2 2465   5.813   6.213   4.283
  841TIP3    H1 2466   5.875   6.165   4.338
  841TIP3    H2 2467   5.781   6.284   4.339
  842TIP3   OH2 2468   8.177   2.602   0.121
  842TIP3    H1 2469   8.209   2.513   0.133
  842TIP3    H2 2470   8.099   2.607   0.176
  843TIP3   OH2 2471   5.974   5.690   4.558
  843TIP3    H1 2472   5.959   5.711   4.651
  843TIP3    H2 2473   5.892   5.714   4.515
  844TIP3   OH2 2474   5.325   3.165   2.432
  844TIP3    H1 2475   5.320   3.111   2.353
  844TIP3    H2 2476   5.373   3.243   2.404
  845TIP3   OH2 2477   1.621   3.986   5.568
  845TIP3    H1 2478   1.628   3.923   5.640
  845TIP3    H2 2479   1.699   3.971   5.515
  846TIP3   OH2 2480   4.582   6.984   0.462
  846TIP3    H1 2481   4.489   6.973   0.441
  846TIP3    H2 2482   4.594   6.938   0.545
  847TIP3   OH2 2483   4.942   2.553   0.974
  847TIP3    H1 2484   4.927   2.632   1.025
  847TIP3    H2 2485   5.024   2.517   1.009
  848TIP3   OH2 2486   0.459   0.582   2.786
  848TIP3    H1 2487   0.522   0.527   2.832
  848TIP3    H2 2488   0.511   0.632   2.723
  849TIP3   OH2 2489   1.368   1.144   1.556
  849TIP3    H1 2490   1.321   1.196   1.491
  849TIP3    H2 2491   1.461   1.159   1.535
  850TIP3   OH2 2492   2.447   1.226   2.930
  850TIP3    H1 2493   2.511   1.233   3.001
  850TIP3    H2 2494   2.362   1.224   2.975
  851TIP3   OH2 2495   6.520   3.566   5.849
  851TIP3    H1 2496   6.582   3.531   5.785
  851TIP3    H2 2497   6.567   3.563   5.932
  852TIP3   OH2 2498   0.621   4.195   5.386
  852TIP3    H1 2499   0.630   4.250   5.308
  852TIP3    H2 2500   0.689   4.227   5.446
  853TIP3   OH2 2501   5.213   4.652   1.610
  853TIP3    H1 2502   5.151   4.669   1.540
  853TIP3    H2 2503   5.177   4.698   1.686
  854TIP3   OH2 2504   1.954   7.700   1.758
  854TIP3    H1 2505   1.909   7.779   1.728
  854TIP3    H2 2506   2.047   7.722   1.752
  855TIP3   OH2 2507   6.561   4.030   3.389
  855TIP3    H1 2508   6.599   3.942   3.382
  855TIP3    H2 2509   6.484   4.018   3.445
  856TIP3   OH2 2510   3.728   0.497   5.770
  856TIP3    H1 2511   3.649   0.445   5.783
  856TIP3    H2 2512   3.727   0.562   5.840
  857TIP3   OH2 2513   7.120   4.396   3.462
  857TIP3    H1 2514   7.137   4.304   3.483
  857TIP3    H2 2515   7.200   4.442   3.489
  858TIP3   OH2 2516   1.431   3.193   1.175
  858TIP3    H1 2517   1.388   3.111   1.196
  858TIP3    H2 2518   1.455   3.185   1.083
  859TIP3   OH2 2519   4.511   6.627   5.436
  859TIP3    H1 2520   4.582   6.690   5.442
  859TIP3    H2 2521   4.485   6.611   5.527
  860TIP3   OH2 2522   1.566   0.781   3.543
  860TIP3    H1 2523   1.647   0.734   3.524
  860TIP3    H2 2524   1.562   0.784   3.639
  861TIP3   OH2 2525   6.802   6.116   5.996
  861TIP3    H1 2526   6.864   6.136   5.926
  861TIP3    H2 2527   6.846   6.048   6.047
  862TIP3   OH2 2528   4.343   0.335   1.320
  862TIP3    H1 2529   4.311   0.297   1.238
  862TIP3    H2 2530   4.420   0.282   1.342
  863TIP3   OH2 2531   8.117   1.493   0.842
  863TIP3    H1 2532   8.191   1.532   0.887
  863TIP3    H2 2533   8.140   1.497   0.749
  864TIP3   OH2 2534   6.698   1.147   6.604
  864TIP3    H1 2535   6.681   1.097   6.524
  864TIP3    H2 2536   6.691   1.083   6.675
  865TIP3   OH2 2537   3.038   6.810   1.124
  865TIP3    H1 2538   3.110   6.872   1.109
  865TIP3    H2 2539   2.988   6.813   1.043
  866TIP3   OH2 2540   5.341   5.891   0.659
  866TIP3    H1 2541   5.324   5.866   0.750
  866TIP3    H2 2542   5.359   5.985   0.662
  867TIP3   OH2 2543   2.445   3.736   1.382
  867TIP3    H1 2544   2.452   3.777   1.468
  867TIP3    H2 2545   2.507   3.785   1.328
  868TIP3   OH2 2546   0.564   0.675   3.800
  868TIP3    H1 2547   0.520   0.646   3.881
  868TIP3    H2 2548   0.639   0.726   3.831
  869TIP3   OH2 2549   3.860   0.650   1.820
  869TIP3    H1 2550   3.879   0.559   1.795
  869TIP3    H2 2551   3.856   0.697   1.736
  870TIP3   OH2 2552   5.978   2.201   1.137
  870TIP3    H1 2553   5.972   2.116   1.094
  870TIP3    H2 2554   6.003   2.181   1.227
  871TIP3   OH2 2555   3.503   5.306   5.435
  871TIP3    H1 2556   3.420   5.353   5.435
  871TIP3    H2 2557   3.564   5.363   5.387
  872TIP3   OH2 2558   2.417   7.699   3.268
  872TIP3    H1 2559   2.472   7.667   3.340
  872TIP3    H2 2560   2.335   7.650   3.276
  873TIP3   OH2 2561   2.136   1.396   6.434
  873TIP3    H1 2562   2.105   1.323   6.487
  873TIP3    H2 2563   2.198   1.442   6.491
  874TIP3   OH2 2564   3.952   5.213   2.051
  874TIP3    H1 2565   3.929   5.305   2.065
  874TIP3    H2 2566   4.014   5.215   1.978
  875TIP3   OH2 2567   1.274   2.758   5.036
  875TIP3    H1 2568   1.229   2.689   5.085
  875TIP3    H2 2569   1.361   2.721   5.020
  876TIP3   OH2 2570   4.256   0.959   5.407
  876TIP3    H1 2571   4.319   1.031   5.403
  876TIP3    H2 2572   4.284   0.898   5.338
  877TIP3   OH2 2573   5.474   3.996   5.785
  877TIP3    H1 2574   5.511   4.084   5.799
  877TIP3    H2 2575   5.414   4.007   5.711
  878TIP3   OH2 2576   7.966   7.006   3.013
  878TIP3    H1 2577   8.001   6.994   3.101
  878TIP3    H2 2578   7.880   6.964   3.015
  879TIP3   OH2 2579   0.720   2.641   2.463
  879TIP3    H1 2580   0.700   2.561   2.415
  879TIP3    H2 2581   0.722   2.614   2.555
  880TIP3   OH2 2582   6.679   5.483   3.702
  880TIP3    H1 2583   6.655   5.552   3.640
  880TIP3    H2 2584   6.743   5.429   3.655
  881TIP3   OH2 2585   3.348   0.088   3.134
  881TIP3    H1 2586   3.318   0.018   3.192
  881TIP3    H2 2587   3.379   0.042   3.056
  882TIP3   OH2 2588   8.073   2.380   3.190
  882TIP3    H1 2589   8.165   2.393   3.168
  882TIP3    H2 2590   8.026   2.441   3.133
  883TIP3   OH2 2591   1.903   5.383   6.750
  883TIP3    H1 2592   1.960   5.406   6.823
  883TIP3    H2 2593   1.958   5.392   6.672
  884TIP3   OH2 2594   1.523   3.168   5.000
  884TIP3    H1 2595   1.523   3.076   4.972
  884TIP3    H2 2596   1.596   3.173   5.062
  885TIP3   OH2 2597   7.229   6.478   0.350
  885TIP3    H1 2598   7.267   6.536   0.416
  885TIP3    H2 2599   7.303   6.453   0.295
  886TIP3   OH2 2600   6.979   2.684   6.201
  886TIP3    H1 2601   7.023   2.722   6.125
  886TIP3    H2 2602   7.042   2.621   6.236
  887TIP3   OH2 2603   1.593   1.617   3.922
  887TIP3    H1 2604   1.546   1.687   3.877
  887TIP3    H2 2605   1.669   1.659   3.961
  888TIP3   OH2 2606   4.951   6.370   0.915
  888TIP3    H1 2607   4.957   6.390   0.822
  888TIP3    H2 2608   4.988   6.447   0.958
  889TIP3   OH2 2609   3.371   7.076   3.304
  889TIP3    H1 2610   3.321   7.016   3.250
  889TIP3    H2 2611   3.417   7.020   3.366
  890TIP3   OH2 2612   2.879   5.253   2.682
  890TIP3    H1 2613   2.930   5.271   2.604
  890TIP3    H2 2614   2.922   5.178   2.722
  891TIP3   OH2 2615   0.899   2.915   4.978
  891TIP3    H1 2616   0.966   2.913   4.910
  891TIP3    H2 2617   0.876   3.007   4.986
  892TIP3   OH2 2618   3.718   2.996   3.506
  892TIP3    H1 2619   3.738   2.984   3.598
  892TIP3    H2 2620   3.804   2.999   3.463
  893TIP3   OH2 2621  -0.029   3.632   6.195
  893TIP3    H1 2622  -0.033   3.650   6.289
  893TIP3    H2 2623   0.036   3.693   6.161
  894TIP3   OH2 2624   1.274   7.442   4.342
  894TIP3    H1 2625   1.210   7.514   4.336
  894TIP3    H2 2626   1.253   7.386   4.268
  895TIP3   OH2 2627   1.604   5.992   5.317
  895TIP3    H1 2628   1.628   6.078   5.349
  895TIP3    H2 2629   1.593   5.939   5.396
  896TIP3   OH2 2630   6.989   1.223   6.223
  896TIP3    H1 2631   6.987   1.129   6.204
  896TIP3    H2 2632   7.015   1.228   6.315
  897TIP3   OH2 2633   6.311   4.071   4.531
  897TIP3    H1 2634   6.238   4.132   4.535
  897TIP3    H2 2635   6.297   4.021   4.451
  898TIP3   OH2 2636   3.189   5.218   2.720
  898TIP3    H1 2637   3.218   5.308   2.734
  898TIP3    H2 2638   3.164   5.186   2.807
  899TIP3   OH2 2639   4.220   0.169   0.580
  899TIP3    H1 2640   4.187   0.211   0.660
  899TIP3    H2 2641   4.201   0.232   0.510
  900TIP3   OH2 2642   6.591   2.745   2.425
  900TIP3    H1 2643   6.578   2.823   2.371
  900TIP3    H2 2644   6.585   2.777   2.515
  901TIP3   OH2 2645   1.453   6.504   6.075
  901TIP3    H1 2646   1.427   6.567   6.009
  901TIP3    H2 2647   1.478   6.425   6.026
  902TIP3   OH2 2648   6.456   3.686   6.782
  902TIP3    H1 2649   6.465   3.713   6.691
  902TIP3    H2 2650   6.401   3.607   6.778
  903TIP3   OH2 2651   7.942   5.246   1.756
  903TIP3    H1 2652   8.023   5.272   1.714
  903TIP3    H2 2653   7.875   5.259   1.690
  904TIP3   OH2 2654   2.905   0.377   2.850
  904TIP3    H1 2655   2.825   0.377   2.904
  904TIP3    H2 2656   2.976   0.372   2.913
  905TIP3   OH2 2657   3.253   1.425   0.691
  905TIP3    H1 2658   3.324   1.400   0.750
  905TIP3    H2 2659   3.195   1.349   0.688
  906TIP3   OH2 2660   2.631   6.079   0.414
  906TIP3    H1 2661   2.720   6.114   0.417
  906TIP3    H2 2662   2.587   6.115   0.491
  907TIP3   OH2 2663   3.076   4.800   4.247
  907TIP3    H1 2664   3.127   4.820   4.326
  907TIP3    H2 2665   2.991   4.770   4.279
  908TIP3   OH2 2666   2.429   2.024   2.733
  908TIP3    H1 2667   2.510   2.075   2.731
  908TIP3    H2 2668   2.395   2.028   2.644
  909TIP3   OH2 2669   2.245   2.213   1.528
  909TIP3    H1 2670   2.266   2.219   1.621
  909TIP3    H2 2671   2.189   2.289   1.511
  910TIP3   OH2 2672   2.802   0.240   0.818
  910TIP3    H1 2673   2.762   0.183   0.883
  910TIP3    H2 2674   2.783   0.329   0.849
  911TIP3   OH2 2675   7.319   2.992   5.225
  911TIP3    H1 2676   7.273   3.004   5.141
  911TIP3    H2 2677   7.319   3.079   5.265
  912TIP3   OH2 2678   3.030   6.046   2.717
  912TIP3    H1 2679   3.088   6.109   2.759
  912TIP3    H2 2680   2.947   6.056   2.764
  913TIP3   OH2 2681   5.834   5.055   3.115
  913TIP3    H1 2682   5.793   5.050   3.029
  913TIP3    H2 2683   5.766   5.028   3.176
  914TIP3   OH2 2684   6.733   0.419   1.222
  914TIP3    H1 2685   6.725   0.331   1.184
  914TIP3    H2 2686   6.645   0.439   1.253
  915TIP3   OH2 2687   1.625   6.239   6.412
  915TIP3    H1 2688   1.601   6.204   6.497
  915TIP3    H2 2689   1.549   6.290   6.384
  916TIP3   OH2 2690   7.723   1.090   2.914
  916TIP3    H1 2691   7.641   1.121   2.952
  916TIP3    H2 2692   7.698   1.058   2.827
  917TIP3   OH2 2693   1.488   5.792   6.297
  917TIP3    H1 2694   1.566   5.848   6.297
  917TIP3    H2 2695   1.517   5.710   6.256
  918TIP3   OH2 2696   0.579   3.778   1.788
  918TIP3    H1 2697   0.487   3.771   1.813
  918TIP3    H2 2698   0.626   3.784   1.870
  919TIP3   OH2 2699   7.065   6.335   1.770
  919TIP3    H1 2700   7.151   6.346   1.810
  919TIP3    H2 2701   7.082   6.288   1.688
  920TIP3   OH2 2702   5.333   6.673   5.102
  920TIP3    H1 2703   5.281   6.595   5.120
  920TIP3    H2 2704   5.423   6.641   5.094
  921TIP3   OH2 2705   2.137   3.051   0.907
  921TIP3    H1 2706   2.209   3.003   0.948
  921TIP3    H2 2707   2.077   3.070   0.980
  922TIP3   OH2 2708   2.602   6.635   6.422
  922TIP3    H1 2709   2.676   6.651   6.481
  922TIP3    H2 2710   2.642   6.610   6.339
  923TIP3   OH2 2711   0.470   5.988   2.115
  923TIP3    H1 2712   0.480   6.036   2.197
  923TIP3    H2 2713   0.560   5.963   2.091
  924TIP3   OH2 2714   8.084   1.515   2.602
  924TIP3    H1 2715   8.079   1.579   2.531
  924TIP3    H2 2716   8.009   1.534   2.658
  925TIP3   OH2 2717   7.709   3.000   3.749
  925TIP3    H1 2718   7.653   3.055   3.694
  925TIP3    H2 2719   7.701   2.912   3.712
  926TIP3   OH2 2720   3.613   1.551   0.221
  926TIP3    H1 2721   3.585   1.638   0.193
  926TIP3    H2 2722   3.658   1.514   0.144
  927TIP3   OH2 2723   7.527   3.893   5.117
  927TIP3    H1 2724   7.616   3.872   5.087
  927TIP3    H2 2725   7.474   3.818   5.089
  928TIP3   OH2 2726   7.799   1.751   5.941
  928TIP3    H1 2727   7.862   1.751   6.012
  928TIP3    H2 2728   7.830   1.820   5.882
  929TIP3   OH2 2729   3.872   6.397   2.193
  929TIP3    H1 2730   3.928   6.361   2.263
  929TIP3    H2 2731   3.845   6.321   2.142
  930TIP3   OH2 2732   5.093   7.614   1.072
  930TIP3    H1 2733   5.072   7.588   0.982
  930TIP3    H2 2734   5.073   7.707   1.076
  931TIP3   OH2 2735   1.340   7.477   0.001
  931TIP3    H1 2736   1.369   7.505  -0.086
  931TIP3    H2 2737   1.304   7.556   0.041
  932TIP3   OH2 2738   3.656   5.290   4.461
  932TIP3    H1 2739   3.642   5.333   4.545
  932TIP3    H2 2740   3.674   5.363   4.401
  933TIP3   OH2 2741   0.627   6.104   6.769
  933TIP3    H1 2742   0.631   6.027   6.713
  933TIP3    H2 2743   0.713   6.146   6.759
  934TIP3   OH2 2744   7.650   5.998   5.887
  934TIP3    H1 2745   7.729   6.044   5.857
  934TIP3    H2 2746   7.682   5.915   5.922
  935TIP3   OH2 2747   3.620   2.929   0.673
  935TIP3    H1 2748   3.704   2.975   0.673
  935TIP3    H2 2749   3.641   2.840   0.703
  936TIP3   OH2 2750   2.261   2.207   5.697
  936TIP3    H1 2751   2.166   2.213   5.696
  936TIP3    H2 2752   2.289   2.272   5.761
  937TIP3   OH2 2753   5.586   1.756   0.126
  937TIP3    H1 2754   5.552   1.688   0.069
  937TIP3    H2 2755   5.522   1.762   0.198
  938TIP3   OH2 2756   8.141   1.304   3.701
  938TIP3    H1 2757   8.150   1.387   3.656
  938TIP3    H2 2758   8.222   1.257   3.681
  939TIP3   OH2 2759   1.389   1.762   5.140
  939TIP3    H1 2760   1.372   1.777   5.047
  939TIP3    H2 2761   1.358   1.841   5.183
  940TIP3   OH2 2762   7.040   4.412   4.708
  940TIP3    H1 2763   6.957   4.408   4.756
  940TIP3    H2 2764   7.039   4.334   4.652
  941TIP3   OH2 2765   2.065   5.603   6.002
  941TIP3    H1 2766   2.099   5.636   6.085
  941TIP3    H2 2767   2.070   5.508   6.010
  942TIP3   OH2 2768   6.561   7.730   1.631
  942TIP3    H1 2769   6.602   7.705   1.548
  942TIP3    H2 2770   6.499   7.798   1.607
  943TIP3   OH2 2771   4.365   1.250   3.442
  943TIP3    H1 2772   4.369   1.163   3.480
  943TIP3    H2 2773   4.399   1.308   3.510
  944TIP3   OH2 2774   1.463   2.900   5.375
  944TIP3    H1 2775   1.403   2.935   5.310
  944TIP3    H2 2776   1.521   2.842   5.326
  945TIP3   OH2 2777   2.333   6.407   3.614
  945TIP3    H1 2778   2.295   6.474   3.671
  945TIP3    H2 2779   2.378   6.347   3.673
  946TIP3   OH2 2780   3.525   2.525   2.309
  946TIP3    H1 2781   3.466   2.513   2.383
  946TIP3    H2 2782   3.601   2.570   2.346
  947TIP3   OH2 2783   0.556   5.636   0.586
  947TIP3    H1 2784   0.574   5.583   0.508
  947TIP3    H2 2785   0.464   5.661   0.577
  948TIP3   OH2 2786   0.119   6.449   0.799
  948TIP3    H1 2787   0.200   6.400   0.781
  948TIP3    H2 2788   0.148   6.540   0.804
  949TIP3   OH2 2789   1.853   5.674   3.363
  949TIP3    H1 2790   1.825   5.745   3.422
  949TIP3    H2 2791   1.773   5.626   3.344
  950TIP3   OH2 2792   1.632   5.178   3.375
  950TIP3    H1 2793   1.606   5.127   3.451
  950TIP3    H2 2794   1.552   5.218   3.343
  951TIP3   OH2 2795   4.091   7.056   0.374
  951TIP3    H1 2796   4.079   6.976   0.323
  951TIP3    H2 2797   4.150   7.032   0.445
  952TIP3   OH2 2798   5.057   3.128   2.737
  952TIP3    H1 2799   5.103   3.171   2.809
  952TIP3    H2 2800   4.965   3.129   2.762
  953TIP3   OH2 2801   2.883   2.676   3.110
  953TIP3    H1 2802   2.830   2.601   3.084
  953TIP3    H2 2803   2.940   2.693   3.034
  954TIP3   OH2 2804   1.880   0.992   4.172
  954TIP3    H1 2805   1.963   1.002   4.124
  954TIP3    H2 2806   1.850   0.904   4.148
  955TIP3   OH2 2807   0.154   7.497   1.496
  955TIP3    H1 2808   0.098   7.421   1.487
  955TIP3    H2 2809   0.198   7.505   1.411
  956TIP3   OH2 2810  -0.043   1.021   3.386
  956TIP3    H1 2811   0.012   1.097   3.405
  956TIP3    H2 2812  -0.032   1.006   3.292
  957TIP3   OH2 2813   6.714   6.905   3.644
  957TIP3    H1 2814   6.768   6.981   3.664
  957TIP3    H2 2815   6.724   6.847   3.719
  958TIP3   OH2 2816   7.293   1.589   0.460
  958TIP3    H1 2817   7.342   1.540   0.526
  958TIP3    H2 2818   7.204   1.594   0.495
  959TIP3   OH2 2819   4.178   6.930   2.314
  959TIP3    H1 2820   4.121   6.876   2.368
  959TIP3    H2 2821   4.178   6.887   2.228
  960TIP3   OH2 2822   1.126   6.295   0.311
  960TIP3    H1 2823   1.048   6.304   0.365
  960TIP3    H2 2824   1.117   6.363   0.244
  961TIP3   OH2 2825   0.577   6.187   1.890
  961TIP3    H1 2826   0.552   6.140   1.970
  961TIP3    H2 2827   0.673   6.192   1.895
  962TIP3   OH2 2828   7.874   0.412   6.117
  962TIP3    H1 2829   7.832   0.471   6.180
  962TIP3    H2 2830   7.803   0.384   6.059
  963TIP3   OH2 2831   7.670   6.071   6.485
  963TIP3    H1 2832   7.638   6.044   6.571
  963TIP3    H2 2833   7.761   6.041   6.482
  964TIP3   OH2 2834   4.244   6.555   4.443
  964TIP3    H1 2835   4.192   6.612   4.386
  964TIP3    H2 2836   4.335   6.576   4.421
  965TIP3   OH2 2837   3.051   3.662   6.238
  965TIP3    H1 2838   3.072   3.581   6.191
  965TIP3    H2 2839   3.057   3.731   6.172
  966TIP3   OH2 2840   6.516  -0.052   4.896
  966TIP3    H1 2841   6.532   0.042   4.890
  966TIP3    H2 2842   6.491  -0.067   4.987
  967TIP3   OH2 2843   5.213   1.116   4.859
  967TIP3    H1 2844   5.182   1.140   4.772
  967TIP3    H2 2845   5.255   1.195   4.893
  968TIP3   OH2 2846   2.654   1.304   0.442
  968TIP3    H1 2847   2.632   1.397   0.436
  968TIP3    H2 2848   2.743   1.303   0.479
  969TIP3   OH2 2849   1.040   7.179   5.889
  969TIP3    H1 2850   1.008   7.204   5.802
  969TIP3    H2 2851   1.105   7.245   5.910
  970TIP3   OH2 2852   1.476   4.103   1.955
  970TIP3    H1 2853   1.461   4.009   1.954
  970TIP3    H2 2854   1.467   4.128   2.047
  971TIP3   OH2 2855   1.796   0.708   6.018
  971TIP3    H1 2856   1.813   0.682   5.927
  971TIP3    H2 2857   1.881   0.735   6.052
  972TIP3   OH2 2858   4.769   1.546   3.978
  972TIP3    H1 2859   4.683   1.581   3.955
  972TIP3    H2 2860   4.827   1.575   3.907
  973TIP3   OH2 2861   7.457   5.715   1.509
  973TIP3    H1 2862   7.406   5.795   1.492
  973TIP3    H2 2863   7.400   5.662   1.566
  974TIP3   OH2 2864   1.491   3.446   1.710
  974TIP3    H1 2865   1.578   3.413   1.688
  974TIP3    H2 2866   1.431   3.391   1.659
  975TIP3   OH2 2867   4.890   7.542   3.580
  975TIP3    H1 2868   4.881   7.634   3.606
  975TIP3    H2 2869   4.925   7.546   3.491
  976TIP3   OH2 2870   5.261   5.567   0.827
  976TIP3    H1 2871   5.206   5.626   0.775
  976TIP3    H2 2872   5.297   5.622   0.896
  977TIP3   OH2 2873   6.422   3.582   1.787
  977TIP3    H1 2874   6.329   3.576   1.762
  977TIP3    H2 2875   6.425   3.655   1.849
  978TIP3   OH2 2876   6.203   1.056   2.287
  978TIP3    H1 2877   6.120   1.069   2.334
  978TIP3    H2 2878   6.186   0.981   2.229
  979TIP3   OH2 2879   1.523   6.150   6.651
  979TIP3    H1 2880   1.560   6.195   6.727
  979TIP3    H2 2881   1.502   6.062   6.683
  980TIP3   OH2 2882   6.809   6.407   0.510
  980TIP3    H1 2883   6.737   6.401   0.573
  980TIP3    H2 2884   6.865   6.331   0.531
  981TIP3   OH2 2885   3.725   4.573   6.147
  981TIP3    H1 2886   3.763   4.653   6.112
  981TIP3    H2 2887   3.669   4.540   6.076
  982TIP3   OH2 2888   5.252   2.194   3.783
  982TIP3    H1 2889   5.290   2.194   3.871
  982TIP3    H2 2890   5.294   2.120   3.739
  983TIP3   OH2 2891   5.852   4.914   2.749
  983TIP3    H1 2892   5.821   4.878   2.667
  983TIP3    H2 2893   5.777   4.960   2.786
  984TIP3   OH2 2894   6.135   6.229   2.870
  984TIP3    H1 2895   6.099   6.286   2.802
  984TIP3    H2 2896   6.214   6.273   2.900
  985TIP3   OH2 2897   4.959   0.062   1.483
  985TIP3    H1 2898   5.051   0.074   1.461
  985TIP3    H2 2899   4.913   0.064   1.399
  986TIP3   OH2 2900   3.253   0.225   6.661
  986TIP3    H1 2901   3.336   0.261   6.630
  986TIP3    H2 2902   3.202   0.302   6.685
  987TIP3   OH2 2903   1.629   0.403   0.021
  987TIP3    H1 2904   1.666   0.485   0.054
  987TIP3    H2 2905   1.581   0.428  -0.057
  988TIP3   OH2 2906   7.559   3.421   5.782
  988TIP3    H1 2907   7.496   3.463   5.840
  988TIP3    H2 2908   7.640   3.417   5.832
  989TIP3   OH2 2909   1.736   1.783   4.413
  989TIP3    H1 2910   1.781   1.858   4.375
  989TIP3    H2 2911   1.766   1.780   4.504
  990TIP3   OH2 2912   0.615   0.578   3.166
  990TIP3    H1 2913   0.698   0.557   3.123
  990TIP3    H2 2914   0.548   0.546   3.107
  991TIP3   OH2 2915   5.438   7.765   4.836
  991TIP3    H1 2916   5.431   7.671   4.851
  991TIP3    H2 2917   5.441   7.803   4.924
  992TIP3   OH2 2918   4.438   0.486   4.657
  992TIP3    H1 2919   4.511   0.444   4.702
  992TIP3    H2 2920   4.457   0.579   4.660
  993TIP3   OH2 2921   6.378   2.833   3.911
  993TIP3    H1 2922   6.312   2.892   3.947
  993TIP3    H2 2923   6.383   2.761   3.974
  994TIP3   OH2 2924   7.699   0.818   2.219
  994TIP3    H1 2925   7.725   0.750   2.157
  994TIP3    H2 2926   7.606   0.800   2.236
  995TIP3   OH2 2927   5.411   0.519   5.558
  995TIP3    H1 2928   5.420   0.462   5.634
  995TIP3    H2 2929   5.479   0.490   5.498
  996TIP3   OH2 2930   3.598   1.250   1.264
  996TIP3    H1 2931   3.520   1.253   1.208
  996TIP3    H2 2932   3.671   1.237   1.203
  997TIP3   OH2 2933   0.984   1.390   5.929
  997TIP3    H1 2934   1.021   1.314   5.974
  997TIP3    H2 2935   1.059   1.448   5.914
  998TIP3   OH2 2936   6.900   4.913   2.943
  998TIP3    H1 2937   6.880   4.851   3.012
  998TIP3    H2 2938   6.855   4.994   2.968
  999TIP3   OH2 2939   7.101   0.957   4.793
  999TIP3    H1 2940   7.020   0.907   4.779
  999TIP3    H2 2941   7.072   1.038   4.836
 1000TIP3   OH2 2942   7.747   0.093   2.795
 1000TIP3    H1 2943   7.731   0.139   2.877
 1000TIP3    H2 2944   7.704   0.146   2.728
 1001TIP3   OH2 2945   6.471   1.723   0.558
 1001TIP3    H1 2946   6.386   1.697   0.523
 1001TIP3    H2 2947   6.533   1.699   0.489
 1002TIP3   OH2 2948   4.635   3.574   5.448
 1002TIP3    H1 2949   4.634   3.654   5.501
 1002TIP3    H2 2950   4.681   3.599   5.368
 1003TIP3   OH2 2951   1.613   0.807   6.725
 1003TIP3    H1 2952   1.554   0.858   6.669
 1003TIP3    H2 2953   1.564   0.795   6.806
 1004TIP3   OH2 2954   7.386   6.236   5.833
 1004TIP3    H1 2955   7.456   6.240   5.768
 1004TIP3    H2 2956   7.342   6.320   5.826
 1005TIP3   OH2 2957   6.597   0.281   0.495
 1005TIP3    H1 2958   6.549   0.211   0.540
 1005TIP3    H2 2959   6.593   0.355   0.554
 1006TIP3   OH2 2960   7.659   0.555   3.183
 1006TIP3    H1 2961   7.592   0.608   3.225
 1006TIP3    H2 2962   7.697   0.612   3.116
 1007TIP3   OH2 2963   2.785   4.927   4.455
 1007TIP3    H1 2964   2.808   4.836   4.437
 1007TIP3    H2 2965   2.715   4.947   4.393
 1008TIP3   OH2 2966   7.030   0.406   6.593
 1008TIP3    H1 2967   6.960   0.358   6.549
 1008TIP3    H2 2968   7.101   0.342   6.602
 1009TIP3   OH2 2969   4.480   2.554   5.425
 1009TIP3    H1 2970   4.527   2.502   5.490
 1009TIP3    H2 2971   4.531   2.634   5.415
 1010TIP3   OH2 2972   4.859   3.872   3.018
 1010TIP3    H1 2973   4.764   3.881   3.016
 1010TIP3    H2 2974   4.891   3.943   2.963
 1011TIP3   OH2 2975   3.922   0.425   4.616
 1011TIP3    H1 2976   4.016   0.412   4.625
 1011TIP3    H2 2977   3.888   0.339   4.593
 1012TIP3   OH2 2978   5.086   2.746   5.224
 1012TIP3    H1 2979   5.165   2.742   5.278
 1012TIP3    H2 2980   5.022   2.792   5.278
 1013TIP3   OH2 2981   3.107   6.889   2.633
 1013TIP3    H1 2982   3.142   6.862   2.717
 1013TIP3    H2 2983   3.175   6.865   2.570
 1014TIP3   OH2 2984   0.572   6.606   4.190
 1014TIP3    H1 2985   0.594   6.699   4.196
 1014TIP3    H2 2986   0.477   6.604   4.178
 1015TIP3   OH2 2987   7.244   4.802   1.161
 1015TIP3    H1 2988   7.179   4.764   1.221
 1015TIP3    H2 2989   7.289   4.868   1.213
 1016TIP3   OH2 2990   4.549   4.966   0.475
 1016TIP3    H1 2991   4.623   4.926   0.429
 1016TIP3    H2 2992   4.472   4.932   0.430
 1017TIP3   OH2 2993   0.994   3.553   1.004
 1017TIP3    H1 2994   1.070   3.590   1.049
 1017TIP3    H2 2995   1.011   3.459   1.002
 1018TIP3   OH2 2996   7.032   5.905   2.409
 1018TIP3    H1 2997   7.123   5.922   2.384
 1018TIP3    H2 2998   6.983   5.910   2.327
 1019TIP3   OH2 2999   5.156   6.174   6.652
 1019TIP3    H1 3000   5.224   6.217   6.703
 1019TIP3    H2 3001   5.079   6.175   6.709
 1020TIP3   OH2 3002   0.819   5.210   1.913
 1020TIP3    H1 3003   0.853   5.161   1.988
 1020TIP3    H2 3004   0.741   5.161   1.886
 1021TIP3   OH2 3005   2.339   6.489   3.217
 1021TIP3    H1 3006   2.309   6.577   3.237
 1021TIP3    H2 3007   2.266   6.448   3.170
 1022TIP3   OH2 3008   2.100   0.625   1.054
 1022TIP3    H1 3009   2.118   0.718   1.067
 1022TIP3    H2 3010   2.175   0.593   1.003
 1023TIP3   OH2 3011   0.628   7.038   2.312
 1023TIP3    H1 3012   0.589   7.089   2.241
 1023TIP3    H2 3013   0.722   7.046   2.298
 1024TIP3   OH2 3014   7.322   4.114   4.167
 1024TIP3    H1 3015   7.299   4.153   4.251
 1024TIP3    H2 3016   7.394   4.167   4.134
 1025TIP3   OH2 3017   2.845   0.970   3.675
 1025TIP3    H1 3018   2.842   0.885   3.631
 1025TIP3    H2 3019   2.928   1.008   3.649
 1026TIP3   OH2 3020   5.063   0.084   4.455
 1026TIP3    H1 3021   5.135   0.144   4.475
 1026TIP3    H2 3022   4.984   0.135   4.472
 1027TIP3   OH2 3023   3.771   2.029   6.352
 1027TIP3    H1 3024   3.744   1.938   6.340
 1027TIP3    H2 3025   3.701   2.080   6.311
 1028TIP3   OH2 3026   4.857   5.272   1.470
 1028TIP3    H1 3027   4.861   5.225   1.553
 1028TIP3    H2 3028   4.851   5.203   1.403
 1029TIP3   OH2 3029   1.025   3.912   0.857
 1029TIP3    H1 3030   1.032   3.881   0.766
 1029TIP3    H2 3031   1.071   3.845   0.908
 1030TIP3   OH2 3032   0.193   3.776   6.605
 1030TIP3    H1 3033   0.273   3.820   6.635
 1030TIP3    H2 3034   0.204   3.685   6.630
 1031TIP3   OH2 3035   0.144   1.006   5.317
 1031TIP3    H1 3036   0.186   1.060   5.383
 1031TIP3    H2 3037   0.210   0.995   5.249
 1032TIP3   OH2 3038   0.028   2.946   5.289
 1032TIP3    H1 3039  -0.029   2.991   5.227
 1032TIP3    H2 3040   0.104   2.920   5.237
 1033TIP3   OH2 3041   6.990   3.171   6.643
 1033TIP3    H1 3042   7.061   3.115   6.672
 1033TIP3    H2 3043   6.996   3.249   6.698
 1034TIP3   OH2 3044   6.231   7.699   3.007
 1034TIP3    H1 3045   6.271   7.783   2.988
 1034TIP3    H2 3046   6.293   7.634   2.975
 1035TIP3   OH2 3047   2.598   5.006   0.997
 1035TIP3    H1 3048   2.521   4.989   0.943
 1035TIP3    H2 3049   2.592   4.943   1.069
 1036TIP3   OH2 3050   2.465   4.317   5.008
 1036TIP3    H1 3051   2.399   4.320   4.938
 1036TIP3    H2 3052   2.533   4.259   4.974
 1037TIP3   OH2 3053   5.931   2.473   4.338
 1037TIP3    H1 3054   5.923   2.500   4.430
 1037TIP3    H2 3055   6.013   2.425   4.334
 1038TIP3   OH2 3056   4.771   3.608   6.661
 1038TIP3    H1 3057   4.854   3.561   6.651
 1038TIP3    H2 3058   4.706   3.539   6.672
 1039TIP3   OH2 3059   5.778   6.629   4.692
 1039TIP3    H1 3060   5.869   6.637   4.720
 1039TIP3    H2 3061   5.738   6.572   4.759
 1040TIP3   OH2 3062   7.214   1.571   5.102
 1040TIP3    H1 3063   7.213   1.565   5.007
 1040TIP3    H2 3064   7.223   1.481   5.132
 1041TIP3   OH2 3065   4.229   1.992   2.375
 1041TIP3    H1 3066   4.300   2.037   2.330
 1041TIP3    H2 3067   4.243   1.900   2.358
 1042TIP3   OH2 3068   5.381   3.428   6.623
 1042TIP3    H1 3069   5.431   3.359   6.666
 1042TIP3    H2 3070   5.420   3.434   6.535
 1043TIP3   OH2 3071   5.199   4.254   5.848
 1043TIP3    H1 3072   5.201   4.322   5.781
 1043TIP3    H2 3073   5.123   4.200   5.826
 1044TIP3   OH2 3074   5.704   6.397   3.577
 1044TIP3    H1 3075   5.621   6.414   3.622
 1044TIP3    H2 3076   5.710   6.466   3.512
 1045TIP3   OH2 3077   5.622   4.602   0.660
 1045TIP3    H1 3078   5.698   4.641   0.616
 1045TIP3    H2 3079   5.659   4.546   0.728
 1046TIP3   OH2 3080   6.208   3.946   3.757
 1046TIP3    H1 3081   6.221   4.027   3.708
 1046TIP3    H2 3082   6.118   3.920   3.738
 1047TIP3   OH2 3083   0.348   7.828   6.596
 1047TIP3    H1 3084   0.418   7.765   6.584
 1047TIP3    H2 3085   0.391   7.913   6.599
 1048TIP3   OH2 3086   8.114   0.941   0.615
 1048TIP3    H1 3087   8.153   0.902   0.538
 1048TIP3    H2 3088   8.083   1.027   0.586
 1049TIP3   OH2 3089   3.288   2.138   5.546
 1049TIP3    H1 3090   3.380   2.147   5.525
 1049TIP3    H2 3091   3.255   2.228   5.550
 1050TIP3   OH2 3092   0.224   3.616   2.446
 1050TIP3    H1 3093   0.143   3.613   2.498
 1050TIP3    H2 3094   0.195   3.606   2.356
 1051TIP3   OH2 3095   4.624   1.654   4.618
 1051TIP3    H1 3096   4.605   1.579   4.674
 1051TIP3    H2 3097   4.665   1.616   4.540
 1052TIP3   OH2 3098   0.161   6.221   3.905
 1052TIP3    H1 3099   0.110   6.211   3.825
 1052TIP3    H2 3100   0.103   6.188   3.974
 1053TIP3   OH2 3101   3.679   1.238   4.796
 1053TIP3    H1 3102   3.610   1.252   4.861
 1053TIP3    H2 3103   3.719   1.155   4.822
 1054TIP3   OH2 3104   6.255   6.542   3.908
 1054TIP3    H1 3105   6.304   6.562   3.988
 1054TIP3    H2 3106   6.319   6.552   3.838
 1055TIP3   OH2 3107   0.078   4.183   0.814
 1055TIP3    H1 3108   0.166   4.213   0.836
 1055TIP3    H2 3109   0.028   4.193   0.895
 1056TIP3   OH2 3110   7.224   6.377   5.564
 1056TIP3    H1 3111   7.209   6.463   5.603
 1056TIP3    H2 3112   7.288   6.394   5.495
 1057TIP3   OH2 3113   0.448   4.893   0.956
 1057TIP3    H1 3114   0.437   4.881   1.050
 1057TIP3    H2 3115   0.383   4.960   0.933
 1058TIP3   OH2 3116   7.629   0.056   1.433
 1058TIP3    H1 3117   7.665   0.115   1.367
 1058TIP3    H2 3118   7.534   0.065   1.425
 1059TIP3   OH2 3119   5.643   3.144   6.237
 1059TIP3    H1 3120   5.712   3.126   6.174
 1059TIP3    H2 3121   5.578   3.195   6.188
 1060TIP3   OH2 3122   2.862   5.586   2.475
 1060TIP3    H1 3123   2.941   5.541   2.447
 1060TIP3    H2 3124   2.894   5.662   2.523
 1061TIP3   OH2 3125   6.431   7.404  -0.028
 1061TIP3    H1 3126   6.394   7.486   0.005
 1061TIP3    H2 3127   6.369   7.337   0.000
 1062TIP3   OH2 3128   8.270   0.176   6.558
 1062TIP3    H1 3129   8.299   0.247   6.616
 1062TIP3    H2 3130   8.176   0.167   6.577
 1063TIP3   OH2 3131   6.027   5.986   2.287
 1063TIP3    H1 3132   6.000   6.013   2.199
 1063TIP3    H2 3133   6.072   5.902   2.274
 1064TIP3   OH2 3134   5.802   1.139   2.855
 1064TIP3    H1 3135   5.739   1.111   2.789
 1064TIP3    H2 3136   5.885   1.100   2.827
 1065TIP3   OH2 3137   2.637   0.780   0.000
 1065TIP3    H1 3138   2.679   0.827   0.072
 1065TIP3    H2 3139   2.706   0.723  -0.035
 1066TIP3   OH2 3140   7.242   1.279   6.757
 1066TIP3    H1 3141   7.202   1.252   6.839
 1066TIP3    H2 3142   7.316   1.334   6.783
 1067TIP3   OH2 3143   5.403   4.308   5.571
 1067TIP3    H1 3144   5.442   4.364   5.504
 1067TIP3    H2 3145   5.473   4.295   5.635
 1068TIP3   OH2 3146   2.894   7.663   0.774
 1068TIP3    H1 3147   2.932   7.599   0.713
 1068TIP3    H2 3148   2.956   7.736   0.773
 1069TIP3   OH2 3149   5.139   5.489   3.057
 1069TIP3    H1 3150   5.061   5.434   3.062
 1069TIP3    H2 3151   5.159   5.492   2.963
 1070TIP3   OH2 3152   1.983   6.101   0.918
 1070TIP3    H1 3153   2.065   6.065   0.951
 1070TIP3    H2 3154   1.946   6.033   0.862
 1071TIP3   OH2 3155   0.769   4.181   6.064
 1071TIP3    H1 3156   0.724   4.214   6.142
 1071TIP3    H2 3157   0.857   4.158   6.094
 1072TIP3   OH2 3158   5.060   4.475   1.317
 1072TIP3    H1 3159   5.066   4.570   1.302
 1072TIP3    H2 3160   4.969   4.454   1.300
 1073TIP3   OH2 3161   6.706   5.207   4.053
 1073TIP3    H1 3162   6.718   5.120   4.092
 1073TIP3    H2 3163   6.679   5.188   3.963
 1074TIP3   OH2 3164   5.466   2.653   5.926
 1074TIP3    H1 3165   5.408   2.594   5.974
 1074TIP3    H2 3166   5.436   2.648   5.835
 1075TIP3   OH2 3167   4.765   1.471   5.625
 1075TIP3    H1 3168   4.743   1.513   5.542
 1075TIP3    H2 3169   4.696   1.500   5.685
 1076TIP3   OH2 3170   7.377   5.239   2.090
 1076TIP3    H1 3171   7.431   5.190   2.152
 1076TIP3    H2 3172   7.430   5.242   2.010
 1077TIP3   OH2 3173   4.811   3.744   2.445
 1077TIP3    H1 3174   4.869   3.674   2.417
 1077TIP3    H2 3175   4.744   3.699   2.497
 1078TIP3   OH2 3176   4.734   6.223   6.605
 1078TIP3    H1 3177   4.653   6.275   6.600
 1078TIP3    H2 3178   4.746   6.188   6.517
 1079TIP3   OH2 3179   8.282   7.721   2.393
 1079TIP3    H1 3180   8.336   7.734   2.471
 1079TIP3    H2 3181   8.235   7.640   2.410
 1080TIP3   OH2 3182   5.214   6.629   4.796
 1080TIP3    H1 3183   5.305   6.656   4.802
 1080TIP3    H2 3184   5.212   6.540   4.832
 1081TIP3   OH2 3185   6.262   5.092   0.198
 1081TIP3    H1 3186   6.241   5.153   0.127
 1081TIP3    H2 3187   6.237   5.006   0.164
 1082TIP3   OH2 3188   1.518   5.638   4.064
 1082TIP3    H1 3189   1.603   5.610   4.031
 1082TIP3    H2 3190   1.459   5.628   3.989
 1083TIP3   OH2 3191   4.840   2.505   4.904
 1083TIP3    H1 3192   4.872   2.424   4.866
 1083TIP3    H2 3193   4.747   2.489   4.922
 1084TIP3   OH2 3194   3.433   1.440   3.208
 1084TIP3    H1 3195   3.383   1.504   3.259
 1084TIP3    H2 3196   3.407   1.356   3.245
 1085TIP3   OH2 3197   5.502   5.595   3.722
 1085TIP3    H1 3198   5.540   5.627   3.804
 1085TIP3    H2 3199   5.430   5.655   3.704
 1086TIP3   OH2 3200   0.354   3.607   4.717
 1086TIP3    H1 3201   0.436   3.651   4.691
 1086TIP3    H2 3202   0.368   3.515   4.693
 1087TIP3   OH2 3203   3.575   5.054   1.563
 1087TIP3    H1 3204   3.543   5.018   1.480
 1087TIP3    H2 3205   3.635   4.987   1.597
 1088TIP3   OH2 3206   5.837   4.518   0.326
 1088TIP3    H1 3207   5.791   4.457   0.384
 1088TIP3    H2 3208   5.792   4.508   0.242
 1089TIP3   OH2 3209   3.688   3.979   4.205
 1089TIP3    H1 3210   3.629   3.953   4.134
 1089TIP3    H2 3211   3.679   4.074   4.209
 1090TIP3   OH2 3212   7.080   7.634   1.203
 1090TIP3    H1 3213   7.022   7.564   1.172
 1090TIP3    H2 3214   7.042   7.714   1.167
 1091TIP3   OH2 3215   5.031   3.608   0.109
 1091TIP3    H1 3216   5.025   3.697   0.073
 1091TIP3    H2 3217   5.020   3.551   0.033
 1092TIP3   OH2 3218   6.007   6.480   1.006
 1092TIP3    H1 3219   6.096   6.511   1.023
 1092TIP3    H2 3220   6.015   6.385   1.007
 1093TIP3   OH2 3221   3.894   2.966   0.735
 1093TIP3    H1 3222   3.899   2.953   0.830
 1093TIP3    H2 3223   3.985   2.967   0.706
 1094TIP3   OH2 3224   3.001   0.017   4.983
 1094TIP3    H1 3225   3.087   0.049   5.010
 1094TIP3    H2 3226   2.966   0.087   4.927
 1095TIP3   OH2 3227   0.782   5.200   3.087
 1095TIP3    H1 3228   0.841   5.226   3.158
 1095TIP3    H2 3229   0.713   5.150   3.130
 1096TIP3   OH2 3230   0.860   6.653   0.865
 1096TIP3    H1 3231   0.768   6.645   0.888
 1096TIP3    H2 3232   0.859   6.672   0.771
 1097TIP3   OH2 3233   4.897   0.660   6.562
 1097TIP3    H1 3234   4.905   0.719   6.637
 1097TIP3    H2 3235   4.936   0.709   6.489
 1098TIP3   OH2 3236   5.440   6.093   6.262
 1098TIP3    H1 3237   5.536   6.095   6.266
 1098TIP3    H2 3238   5.419   6.013   6.214
 1099TIP3   OH2 3239   5.611   4.250   3.497
 1099TIP3    H1 3240   5.656   4.332   3.521
 1099TIP3    H2 3241   5.637   4.234   3.407
 1100TIP3   OH2 3242   5.839   7.121   2.821
 1100TIP3    H1 3243   5.777   7.057   2.785
 1100TIP3    H2 3244   5.919   7.070   2.834
 1101TIP3   OH2 3245   4.357   6.483   2.086
 1101TIP3    H1 3246   4.294   6.551   2.064
 1101TIP3    H2 3247   4.439   6.513   2.046
 1102TIP3   OH2 3248   0.935   1.278   0.646
 1102TIP3    H1 3249   0.860   1.309   0.596
 1102TIP3    H2 3250   0.898   1.218   0.711
 1103TIP3   OH2 3251   6.591   7.076   3.042
 1103TIP3    H1 3252   6.609   7.086   3.136
 1103TIP3    H2 3253   6.516   7.017   3.038
 1104TIP3   OH2 3254   2.649   3.102   5.011
 1104TIP3    H1 3255   2.699   3.025   5.039
 1104TIP3    H2 3256   2.696   3.176   5.050
 1105TIP3   OH2 3257   5.318   6.494   6.296
 1105TIP3    H1 3258   5.270   6.452   6.224
 1105TIP3    H2 3259   5.272   6.465   6.375
 1106TIP3   OH2 3260   4.253   2.663   6.193
 1106TIP3    H1 3261   4.180   2.601   6.181
 1106TIP3    H2 3262   4.213   2.737   6.238
 1107TIP3   OH2 3263   7.423   5.384   4.393
 1107TIP3    H1 3264   7.331   5.358   4.397
 1107TIP3    H2 3265   7.423   5.470   4.351
 1108TIP3   OH2 3266   0.379   0.283   5.376
 1108TIP3    H1 3267   0.349   0.337   5.448
 1108TIP3    H2 3268   0.403   0.199   5.416
 1109TIP3   OH2 3269   7.865   3.620   6.168
 1109TIP3    H1 3270   7.826   3.565   6.236
 1109TIP3    H2 3271   7.917   3.560   6.115
 1110TIP3   OH2 3272   5.214   2.397   4.810
 1110TIP3    H1 3273   5.233   2.479   4.855
 1110TIP3    H2 3274   5.296   2.373   4.768
 1111TIP3   OH2 3275   3.858   4.314   1.913
 1111TIP3    H1 3276   3.783   4.361   1.949
 1111TIP3    H2 3277   3.833   4.222   1.916
 1112TIP3   OH2 3278   7.482   1.992   3.426
 1112TIP3    H1 3279   7.435   2.070   3.455
 1112TIP3    H2 3280   7.569   2.023   3.402
 1113TIP3   OH2 3281   6.150   3.242   2.704
 1113TIP3    H1 3282   6.076   3.303   2.709
 1113TIP3    H2 3283   6.220   3.286   2.753
 1114TIP3   OH2 3284   2.474   0.335   1.679
 1114TIP3    H1 3285   2.410   0.264   1.679
 1114TIP3    H2 3286   2.489   0.356   1.587
 1115TIP3   OH2 3287   4.275   1.451   3.005
 1115TIP3    H1 3288   4.212   1.516   3.036
 1115TIP3    H2 3289   4.239   1.367   3.034
 1116TIP3   OH2 3290   4.781   7.620   5.507
 1116TIP3    H1 3291   4.732   7.599   5.427
 1116TIP3    H2 3292   4.824   7.537   5.530
 1117TIP3   OH2 3293   6.741   4.974   5.470
 1117TIP3    H1 3294   6.709   4.889   5.441
 1117TIP3    H2 3295   6.751   4.965   5.565
 1118TIP3   OH2 3296   0.447   0.088   2.141
 1118TIP3    H1 3297   0.425   0.078   2.234
 1118TIP3    H2 3298   0.541   0.073   2.137
 1119TIP3   OH2 3299   5.615   4.555   1.139
 1119TIP3    H1 3300   5.624   4.465   1.106
 1119TIP3    H2 3301   5.530   4.556   1.183
 1120TIP3   OH2 3302   5.169   2.559   4.557
 1120TIP3    H1 3303   5.260   2.566   4.585
 1120TIP3    H2 3304   5.137   2.478   4.597
 1121TIP3   OH2 3305   3.957   3.560   4.622
 1121TIP3    H1 3306   3.922   3.471   4.611
 1121TIP3    H2 3307   3.899   3.615   4.570
 1122TIP3   OH2 3308   1.266   5.025   5.563
 1122TIP3    H1 3309   1.207   4.953   5.541
 1122TIP3    H2 3310   1.298   5.057   5.479
 1123TIP3   OH2 3311   0.960   2.461   0.287
 1123TIP3    H1 3312   0.893   2.522   0.255
 1123TIP3    H2 3313   1.022   2.515   0.335
 1124TIP3   OH2 3314   6.314   5.554   4.969
 1124TIP3    H1 3315   6.316   5.521   5.059
 1124TIP3    H2 3316   6.245   5.621   4.969
 1125TIP3   OH2 3317   2.622   2.174   4.747
 1125TIP3    H1 3318   2.618   2.232   4.824
 1125TIP3    H2 3319   2.557   2.106   4.764
 1126TIP3   OH2 3320   3.032   0.254   4.219
 1126TIP3    H1 3321   3.039   0.169   4.264
 1126TIP3    H2 3322   3.055   0.235   4.128
 1127TIP3   OH2 3323   3.380   5.562   3.805
 1127TIP3    H1 3324   3.428   5.642   3.784
 1127TIP3    H2 3325   3.290   5.579   3.777
 1128TIP3   OH2 3326   7.799   4.222   5.322
 1128TIP3    H1 3327   7.835   4.136   5.300
 1128TIP3    H2 3328   7.856   4.284   5.277
 1129TIP3   OH2 3329   6.040   1.139   4.433
 1129TIP3    H1 3330   6.026   1.098   4.348
 1129TIP3    H2 3331   6.093   1.076   4.482
 1130TIP3   OH2 3332   4.388   6.232   2.129
 1130TIP3    H1 3333   4.292   6.227   2.130
 1130TIP3    H2 3334   4.408   6.324   2.115
 1131TIP3   OH2 3335   3.751   5.375   5.030
 1131TIP3    H1 3336   3.829   5.399   5.080
 1131TIP3    H2 3337   3.698   5.323   5.090
 1132TIP3   OH2 3338   2.108   1.308   2.643
 1132TIP3    H1 3339   2.194   1.289   2.605
 1132TIP3    H2 3340   2.116   1.279   2.734
 1133TIP3   OH2 3341   1.517   7.488   4.247
 1133TIP3    H1 3342   1.430   7.479   4.285
 1133TIP3    H2 3343   1.504   7.469   4.154
 1134TIP3   OH2 3344   3.231   5.341   0.347
 1134TIP3    H1 3345   3.197   5.397   0.277
 1134TIP3    H2 3346   3.153   5.312   0.394
 1135TIP3   OH2 3347   4.306   4.384   1.478
 1135TIP3    H1 3348   4.247   4.388   1.402
 1135TIP3    H2 3349   4.256   4.424   1.549
 1136TIP3   OH2 3350   4.773   4.455   0.536
 1136TIP3    H1 3351   4.774   4.521   0.605
 1136TIP3    H2 3352   4.851   4.475   0.483
 1137TIP3   OH2 3353   6.202   2.690   3.641
 1137TIP3    H1 3354   6.216   2.679   3.547
 1137TIP3    H2 3355   6.115   2.731   3.647
 1138TIP3   OH2 3356   7.303   2.554   1.897
 1138TIP3    H1 3357   7.225   2.504   1.873
 1138TIP3    H2 3358   7.374   2.512   1.848
 1139TIP3   OH2 3359   5.317   4.932   6.238
 1139TIP3    H1 3360   5.386   4.993   6.210
 1139TIP3    H2 3361   5.255   4.931   6.166
 1140TIP3   OH2 3362   6.667   2.434   1.379
 1140TIP3    H1 3363   6.752   2.430   1.336
 1140TIP3    H2 3364   6.664   2.355   1.434
 1141TIP3   OH2 3365   1.311   2.318   5.244
 1141TIP3    H1 3366   1.232   2.372   5.239
 1141TIP3    H2 3367   1.306   2.261   5.168
 1142TIP3   OH2 3368   2.801   0.191   0.487
 1142TIP3    H1 3369   2.829   0.100   0.478
 1142TIP3    H2 3370   2.863   0.228   0.550
 1143TIP3   OH2 3371   8.028   0.324   1.579
 1143TIP3    H1 3372   7.964   0.278   1.525
 1143TIP3    H2 3373   7.982   0.342   1.661
 1144TIP3   OH2 3374   5.056   0.988   3.149
 1144TIP3    H1 3375   5.015   1.074   3.153
 1144TIP3    H2 3376   5.150   1.006   3.154
 1145TIP3   OH2 3377   4.595   3.555   2.651
 1145TIP3    H1 3378   4.517   3.523   2.696
 1145TIP3    H2 3379   4.662   3.558   2.719
 1146TIP3   OH2 3380   7.879   2.277   6.033
 1146TIP3    H1 3381   7.940   2.240   5.970
 1146TIP3    H2 3382   7.820   2.331   5.979
 1147TIP3   OH2 3383   1.940   7.677   5.083
 1147TIP3    H1 3384   1.892   7.671   5.001
 1147TIP3    H2 3385   1.938   7.770   5.105
 1148TIP3   OH2 3386   1.575   4.205   4.423
 1148TIP3    H1 3387   1.657   4.179   4.467
 1148TIP3    H2 3388   1.528   4.256   4.489
 1149TIP3   OH2 3389   0.065   4.718   3.270
 1149TIP3    H1 3390   0.017   4.742   3.190
 1149TIP3    H2 3391   0.018   4.761   3.340
 1150TIP3   OH2 3392   3.258   6.560   2.248
 1150TIP3    H1 3393   3.264   6.495   2.179
 1150TIP3    H2 3394   3.202   6.519   2.314
 1151TIP3   OH2 3395   1.410   4.377   5.715
 1151TIP3    H1 3396   1.330   4.429   5.721
 1151TIP3    H2 3397   1.386   4.292   5.751
 1152TIP3   OH2 3398   5.746   2.266   6.028
 1152TIP3    H1 3399   5.699   2.325   6.087
 1152TIP3    H2 3400   5.837   2.273   6.057
 1153TIP3   OH2 3401   0.020   4.641   3.781
 1153TIP3    H1 3402   0.020   4.728   3.820
 1153TIP3    H2 3403   0.075   4.588   3.839
 1154TIP3   OH2 3404   1.364   1.796   3.011
 1154TIP3    H1 3405   1.382   1.818   2.920
 1154TIP3    H2 3406   1.314   1.714   3.007
 1155TIP3   OH2 3407   4.759   1.359   5.997
 1155TIP3    H1 3408   4.814   1.291   5.957
 1155TIP3    H2 3409   4.784   1.440   5.951
 1156TIP3   OH2 3410   1.357   6.790   6.531
 1156TIP3    H1 3411   1.342   6.781   6.437
 1156TIP3    H2 3412   1.434   6.846   6.537
 1157TIP3   OH2 3413   6.065   4.906   3.104
 1157TIP3    H1 3414   6.015   4.987   3.115
 1157TIP3    H2 3415   6.111   4.895   3.187
 1158TIP3   OH2 3416   3.217   1.057   0.202
 1158TIP3    H1 3417   3.181   0.968   0.194
 1158TIP3    H2 3418   3.198   1.098   0.117
 1159TIP3   OH2 3419   6.784   3.159   1.546
 1159TIP3    H1 3420   6.700   3.130   1.582
 1159TIP3    H2 3421   6.776   3.254   1.538
 1160TIP3   OH2 3422   0.392   0.386   4.509
 1160TIP3    H1 3423   0.319   0.331   4.536
 1160TIP3    H2 3424   0.448   0.391   4.586
 1161TIP3   OH2 3425   8.075   0.690   4.296
 1161TIP3    H1 3426   8.024   0.763   4.261
 1161TIP3    H2 3427   8.014   0.642   4.351
 1162TIP3   OH2 3428   6.685   0.406   3.481
 1162TIP3    H1 3429   6.716   0.317   3.461
 1162TIP3    H2 3430   6.745   0.463   3.432
 1163TIP3   OH2 3431   3.148   0.098   2.902
 1163TIP3    H1 3432   3.148   0.079   2.808
 1163TIP3    H2 3433   3.224   0.051   2.936
 1164TIP3   OH2 3434   5.658   0.548   0.472
 1164TIP3    H1 3435   5.606   0.517   0.397
 1164TIP3    H2 3436   5.613   0.514   0.548
 1165TIP3   OH2 3437   5.527   0.167   5.401
 1165TIP3    H1 3438   5.614   0.186   5.437
 1165TIP3    H2 3439   5.535   0.081   5.362
 1166TIP3   OH2 3440   6.210   5.157   3.058
 1166TIP3    H1 3441   6.186   5.246   3.083
 1166TIP3    H2 3442   6.237   5.115   3.140
 1167TIP3   OH2 3443   5.728   0.441   5.598
 1167TIP3    H1 3444   5.748   0.358   5.554
 1167TIP3    H2 3445   5.780   0.506   5.551
 1168TIP3   OH2 3446   7.093   6.775   0.509
 1168TIP3    H1 3447   7.048   6.835   0.568
 1168TIP3    H2 3448   7.156   6.831   0.462
 1169TIP3   OH2 3449   8.192  -0.016   1.112
 1169TIP3    H1 3450   8.228  -0.095   1.072
 1169TIP3    H2 3451   8.266   0.043   1.120
 1170TIP3   OH2 3452   7.668   1.119   5.917
 1170TIP3    H1 3453   7.610   1.157   5.983
 1170TIP3    H2 3454   7.618   1.046   5.881
 1171TIP3   OH2 3455   0.917   5.134   3.330
 1171TIP3    H1 3456   0.859   5.093   3.394
 1171TIP3    H2 3457   0.986   5.174   3.382
 1172TIP3   OH2 3458   6.140   3.039   2.157
 1172TIP3    H1 3459   6.196   3.073   2.228
 1172TIP3    H2 3460   6.109   3.118   2.112
 1173TIP3   OH2 3461   2.233   6.973   4.993
 1173TIP3    H1 3462   2.168   7.036   4.963
 1173TIP3    H2 3463   2.221   6.896   4.938
 1174TIP3   OH2 3464   0.312   1.949   2.650
 1174TIP3    H1 3465   0.220   1.958   2.673
 1174TIP3    H2 3466   0.346   1.881   2.708
 1175TIP3   OH2 3467   6.009   3.384   5.962
 1175TIP3    H1 3468   6.101   3.374   5.986
 1175TIP3    H2 3469   5.961   3.363   6.042
 1176TIP3   OH2 3470   2.518   1.535   6.202
 1176TIP3    H1 3471   2.433   1.579   6.203
 1176TIP3    H2 3472   2.573   1.589   6.145
 1177TIP3   OH2 3473   5.943   6.365   4.931
 1177TIP3    H1 3474   5.949   6.275   4.962
 1177TIP3    H2 3475   5.987   6.364   4.846
 1178TIP3   OH2 3476   5.306   1.937   5.053
 1178TIP3    H1 3477   5.371   1.871   5.030
 1178TIP3    H2 3478   5.345   2.020   5.025
 1179TIP3   OH2 3479   0.532   3.709   6.701
 1179TIP3    H1 3480   0.627   3.701   6.704
 1179TIP3    H2 3481   0.500   3.619   6.700
 1180TIP3   OH2 3482   7.374   7.016   0.651
 1180TIP3    H1 3483   7.366   6.969   0.734
 1180TIP3    H2 3484   7.288   7.054   0.636
 1181TIP3   OH2 3485   1.792   0.488   2.348
 1181TIP3    H1 3486   1.778   0.582   2.335
 1181TIP3    H2 3487   1.853   0.463   2.278
 1182TIP3   OH2 3488   0.810   5.484   2.101
 1182TIP3    H1 3489   0.809   5.479   2.005
 1182TIP3    H2 3490   0.902   5.492   2.124
 1183TIP3   OH2 3491   1.512   1.012   5.699
 1183TIP3    H1 3492   1.499   0.922   5.730
 1183TIP3    H2 3493   1.574   1.050   5.762
 1184TIP3   OH2 3494   6.007   3.578   0.923
 1184TIP3    H1 3495   6.089   3.533   0.905
 1184TIP3    H2 3496   6.033   3.663   0.959
 1185TIP3   OH2 3497   7.938   3.502   4.843
 1185TIP3    H1 3498   7.874   3.468   4.781
 1185TIP3    H2 3499   7.912   3.464   4.927
 1186TIP3   OH2 3500   1.979   0.829   0.114
 1186TIP3    H1 3501   2.011   0.810   0.026
 1186TIP3    H2 3502   1.907   0.890   0.101
 1187TIP3   OH2 3503   4.547   3.047   0.534
 1187TIP3    H1 3504   4.584   2.960   0.551
 1187TIP3    H2 3505   4.530   3.048   0.440
 1188TIP3   OH2 3506   1.384   2.353   2.757
 1188TIP3    H1 3507   1.474   2.367   2.728
 1188TIP3    H2 3508   1.384   2.376   2.850
 1189TIP3   OH2 3509   1.164   0.880   6.508
 1189TIP3    H1 3510   1.248   0.896   6.551
 1189TIP3    H2 3511   1.186   0.834   6.428
 1190TIP3   OH2 3512   0.549   4.586   1.818
 1190TIP3    H1 3513   0.488   4.524   1.858
 1190TIP3    H2 3514   0.508   4.609   1.734
 1191TIP3   OH2 3515   4.860   5.821   1.292
 1191TIP3    H1 3516   4.795   5.761   1.329
 1191TIP3    H2 3517   4.923   5.834   1.363
 1192TIP3   OH2 3518   4.220   2.870   4.894
 1192TIP3    H1 3519   4.189   2.865   4.804
 1192TIP3    H2 3520   4.281   2.796   4.903
 1193TIP3   OH2 3521   4.934   1.851   3.000
 1193TIP3    H1 3522   4.876   1.799   3.055
 1193TIP3    H2 3523   5.014   1.860   3.051
 1194TIP3   OH2 3524   5.242   3.229   0.542
 1194TIP3    H1 3525   5.299   3.184   0.603
 1194TIP3    H2 3526   5.251   3.322   0.564
 1195TIP3   OH2 3527   2.080   3.211   5.015
 1195TIP3    H1 3528   2.067   3.195   4.921
 1195TIP3    H2 3529   2.107   3.126   5.049
 1196TIP3   OH2 3530   7.810   7.111   0.989
 1196TIP3    H1 3531   7.736   7.073   1.036
 1196TIP3    H2 3532   7.827   7.051   0.916
 1197TIP3   OH2 3533   3.995   0.078   6.708
 1197TIP3    H1 3534   4.082   0.102   6.739
 1197TIP3    H2 3535   3.961   0.159   6.669
 1198TIP3   OH2 3536   0.137   6.396   6.487
 1198TIP3    H1 3537   0.130   6.357   6.400
 1198TIP3    H2 3538   0.145   6.321   6.546
 1199TIP3   OH2 3539   3.182   0.823   2.994
 1199TIP3    H1 3540   3.264   0.869   3.005
 1199TIP3    H2 3541   3.185   0.788   2.905
 1200TIP3   OH2 3542   0.432   2.575   3.231
 1200TIP3    H1 3543   0.385   2.494   3.249
 1200TIP3    H2 3544   0.365   2.643   3.231
 1201TIP3   OH2 3545   4.879   1.640   4.223
 1201TIP3    H1 3546   4.957   1.596   4.257
 1201TIP3    H2 3547   4.880   1.622   4.129
 1202TIP3   OH2 3548   0.877   4.740   5.953
 1202TIP3    H1 3549   0.814   4.683   5.997
 1202TIP3    H2 3550   0.959   4.692   5.957
 1203TIP3   OH2 3551   1.448   0.996   1.070
 1203TIP3    H1 3552   1.457   0.922   1.009
 1203TIP3    H2 3553   1.500   0.970   1.146
 1204TIP3   OH2 3554   5.072   3.834   6.030
 1204TIP3    H1 3555   5.122   3.845   5.949
 1204TIP3    H2 3556   5.034   3.921   6.047
 1205TIP3   OH2 3557   2.331   6.954   5.444
 1205TIP3    H1 3558   2.351   6.894   5.372
 1205TIP3    H2 3559   2.300   7.034   5.400
 1206TIP3   OH2 3560   5.128   1.893   4.206
 1206TIP3    H1 3561   5.126   1.870   4.113
 1206TIP3    H2 3562   5.179   1.824   4.247
 1207TIP3   OH2 3563   8.256   0.744   4.875
 1207TIP3    H1 3564   8.288   0.791   4.952
 1207TIP3    H2 3565   8.303   0.660   4.878
 1208TIP3   OH2 3566   6.024   5.062   1.795
 1208TIP3    H1 3567   6.093   4.999   1.811
 1208TIP3    H2 3568   5.943   5.013   1.810
 1209TIP3   OH2 3569   1.858   4.887   3.915
 1209TIP3    H1 3570   1.869   4.970   3.962
 1209TIP3    H2 3571   1.813   4.911   3.834
 1210TIP3   OH2 3572   4.461   5.243   3.443
 1210TIP3    H1 3573   4.380   5.256   3.492
 1210TIP3    H2 3574   4.434   5.244   3.351
 1211TIP3   OH2 3575   2.384   2.236   6.432
 1211TIP3    H1 3576   2.468   2.244   6.386
 1211TIP3    H2 3577   2.373   2.143   6.447
 1212TIP3   OH2 3578   3.482   5.043   1.054
 1212TIP3    H1 3579   3.394   5.024   1.023
 1212TIP3    H2 3580   3.493   5.137   1.038
 1213TIP3   OH2 3581   0.565   5.439   5.852
 1213TIP3    H1 3582   0.491   5.479   5.899
 1213TIP3    H2 3583   0.525   5.396   5.776
 1214TIP3   OH2 3584   1.889   1.120   3.589
 1214TIP3    H1 3585   1.958   1.132   3.524
 1214TIP3    H2 3586   1.920   1.166   3.667
 1215TIP3   OH2 3587   0.701   1.975   5.714
 1215TIP3    H1 3588   0.667   1.887   5.703
 1215TIP3    H2 3589   0.769   1.984   5.648
 1216TIP3   OH2 3590   2.434   4.473   3.851
 1216TIP3    H1 3591   2.507   4.526   3.882
 1216TIP3    H2 3592   2.440   4.391   3.900
 1217TIP3   OH2 3593   2.249   4.864   0.609
 1217TIP3    H1 3594   2.206   4.784   0.639
 1217TIP3    H2 3595   2.210   4.882   0.523
 1218TIP3   OH2 3596   6.341   0.131   3.239
 1218TIP3    H1 3597   6.414   0.155   3.181
 1218TIP3    H2 3598   6.383   0.115   3.324
 1219TIP3   OH2 3599   1.201   2.430   1.990
 1219TIP3    H1 3600   1.197   2.463   2.080
 1219TIP3    H2 3601   1.290   2.452   1.960
 1220TIP3   OH2 3602   6.125   5.654   2.225
 1220TIP3    H1 3603   6.220   5.654   2.235
 1220TIP3    H2 3604   6.109   5.718   2.156
 1221TIP3   OH2 3605   0.696   7.356   0.929
 1221TIP3    H1 3606   0.661   7.316   0.849
 1221TIP3    H2 3607   0.776   7.399   0.901
 1222TIP3   OH2 3608   5.875   0.320   3.330
 1222TIP3    H1 3609   5.944   0.259   3.356
 1222TIP3    H2 3610   5.806   0.307   3.395
 1223TIP3   OH2 3611   7.746   0.795   1.472
 1223TIP3    H1 3612   7.678   0.808   1.405
 1223TIP3    H2 3613   7.788   0.881   1.480
 1224TIP3   OH2 3614   5.807   7.395   5.501
 1224TIP3    H1 3615   5.778   7.318   5.549
 1224TIP3    H2 3616   5.817   7.365   5.410
 1225TIP3   OH2 3617   4.218   1.965   1.560
 1225TIP3    H1 3618   4.187   1.984   1.472
 1225TIP3    H2 3619   4.207   1.870   1.570
 1226TIP3   OH2 3620   3.253   6.388   5.495
 1226TIP3    H1 3621   3.269   6.321   5.428
 1226TIP3    H2 3622   3.255   6.471   5.446
 1227TIP3   OH2 3623   8.194   0.917   6.343
 1227TIP3    H1 3624   8.125   0.983   6.342
 1227TIP3    H2 3625   8.152   0.838   6.307
 1228TIP3   OH2 3626   6.580   1.691   5.478
 1228TIP3    H1 3627   6.670   1.679   5.510
 1228TIP3    H2 3628   6.590   1.727   5.390
 1229TIP3   OH2 3629   6.387   2.394   3.816
 1229TIP3    H1 3630   6.441   2.418   3.892
 1229TIP3    H2 3631   6.402   2.464   3.753
 1230TIP3   OH2 3632   2.024   2.679   6.097
 1230TIP3    H1 3633   2.015   2.649   6.187
 1230TIP3    H2 3634   2.102   2.735   6.098
 1231TIP3   OH2 3635   6.336   3.012   1.967
 1231TIP3    H1 3636   6.404   3.072   1.998
 1231TIP3    H2 3637   6.300   2.973   2.046
 1232TIP3   OH2 3638   3.693   4.411   2.541
 1232TIP3    H1 3639   3.703   4.355   2.464
 1232TIP3    H2 3640   3.732   4.360   2.613
 1233TIP3   OH2 3641   1.322   3.151   2.350
 1233TIP3    H1 3642   1.402   3.205   2.347
 1233TIP3    H2 3643   1.306   3.127   2.259
 1234TIP3   OH2 3644   2.973   5.517   2.748
 1234TIP3    H1 3645   2.942   5.455   2.682
 1234TIP3    H2 3646   3.069   5.517   2.738
 1235TIP3   OH2 3647   6.981   7.677   1.768
 1235TIP3    H1 3648   6.923   7.682   1.844
 1235TIP3    H2 3649   6.963   7.591   1.730
 1236TIP3   OH2 3650   5.864   2.887   5.839
 1236TIP3    H1 3651   5.877   2.965   5.893
 1236TIP3    H2 3652   5.769   2.880   5.830
 1237TIP3   OH2 3653   1.459   3.215   6.103
 1237TIP3    H1 3654   1.373   3.177   6.122
 1237TIP3    H2 3655   1.522   3.152   6.136
 1238TIP3   OH2 3656   2.650   6.831   2.163
 1238TIP3    H1 3657   2.681   6.867   2.246
 1238TIP3    H2 3658   2.555   6.848   2.165
 1239TIP3   OH2 3659   1.957   2.852   5.638
 1239TIP3    H1 3660   1.969   2.761   5.664
 1239TIP3    H2 3661   1.902   2.848   5.560
 1240TIP3   OH2 3662   1.118   4.014   4.433
 1240TIP3    H1 3663   1.056   3.942   4.447
 1240TIP3    H2 3664   1.114   4.030   4.338
 1241TIP3   OH2 3665   5.672   2.614   6.505
 1241TIP3    H1 3666   5.590   2.586   6.464
 1241TIP3    H2 3667   5.687   2.702   6.471
 1242TIP3   OH2 3668   1.475   1.510   5.735
 1242TIP3    H1 3669   1.419   1.449   5.687
 1242TIP3    H2 3670   1.477   1.589   5.682
 1243TIP3   OH2 3671   6.778   0.186   3.342
 1243TIP3    H1 3672   6.761   0.095   3.368
 1243TIP3    H2 3673   6.871   0.186   3.318
 1244TIP3   OH2 3674   1.810   1.191   2.680
 1244TIP3    H1 3675   1.717   1.173   2.670
 1244TIP3    H2 3676   1.837   1.228   2.596
 1245TIP3   OH2 3677   3.894   3.917   5.541
 1245TIP3    H1 3678   3.821   3.973   5.567
 1245TIP3    H2 3679   3.972   3.963   5.572
 1246TIP3   OH2 3680   6.429   0.731   2.142
 1246TIP3    H1 3681   6.456   0.764   2.229
 1246TIP3    H2 3682   6.369   0.797   2.109
 1247TIP3   OH2 3683   8.259   4.404   1.089
 1247TIP3    H1 3684   8.336   4.402   1.146
 1247TIP3    H2 3685   8.244   4.313   1.066
 1248TIP3   OH2 3686   2.369   0.992   4.674
 1248TIP3    H1 3687   2.328   0.928   4.732
 1248TIP3    H2 3688   2.422   0.939   4.614
 1249TIP3   OH2 3689   2.226   7.716   1.693
 1249TIP3    H1 3690   2.295   7.757   1.745
 1249TIP3    H2 3691   2.211   7.778   1.621
 1250TIP3   OH2 3692   6.501   7.107   5.486
 1250TIP3    H1 3693   6.471   7.043   5.550
 1250TIP3    H2 3694   6.533   7.053   5.413
 1251TIP3   OH2 3695   0.622   2.931   2.397
 1251TIP3    H1 3696   0.539   2.896   2.366
 1251TIP3    H2 3697   0.686   2.863   2.375
 1252TIP3   OH2 3698   2.574   3.893   1.184
 1252TIP3    H1 3699   2.509   3.962   1.168
 1252TIP3    H2 3700   2.643   3.911   1.120
 1253TIP3   OH2 3701   0.588   4.560   6.684
 1253TIP3    H1 3702   0.629   4.625   6.627
 1253TIP3    H2 3703   0.521   4.609   6.731
 1254TIP3   OH2 3704   7.697   4.689   1.250
 1254TIP3    H1 3705   7.687   4.784   1.251
 1254TIP3    H2 3706   7.661   4.661   1.166
 1255TIP3   OH2 3707   3.002   0.556   0.211
 1255TIP3    H1 3708   2.956   0.513   0.140
 1255TIP3    H2 3709   2.934   0.575   0.276
 1256TIP3   OH2 3710   1.628   7.340   5.143
 1256TIP3    H1 3711   1.708   7.293   5.168
 1256TIP3    H2 3712   1.567   7.322   5.214
 1257TIP3   OH2 3713   7.912   3.627   0.165
 1257TIP3    H1 3714   7.842   3.682   0.199
 1257TIP3    H2 3715   7.928   3.661   0.077
 1258TIP3   OH2 3716   0.939   3.831   1.994
 1258TIP3    H1 3717   0.844   3.844   1.996
 1258TIP3    H2 3718   0.963   3.850   1.903
 1259TIP3   OH2 3719   4.243   7.142   1.675
 1259TIP3    H1 3720   4.165   7.187   1.708
 1259TIP3    H2 3721   4.309   7.211   1.667
 1260TIP3   OH2 3722   0.733   5.407   2.696
 1260TIP3    H1 3723   0.667   5.463   2.736
 1260TIP3    H2 3724   0.767   5.459   2.623
 1261TIP3   OH2 3725   7.416   3.413   6.783
 1261TIP3    H1 3726   7.348   3.478   6.772
 1261TIP3    H2 3727   7.397   3.346   6.716
 1262TIP3   OH2 3728   4.351   0.443   5.114
 1262TIP3    H1 3729   4.357   0.355   5.077
 1262TIP3    H2 3730   4.261   0.470   5.097
 1263TIP3   OH2 3731   2.807   0.384   2.585
 1263TIP3    H1 3732   2.853   0.379   2.669
 1263TIP3    H2 3733   2.858   0.327   2.527
 1264TIP3   OH2 3734   1.711   5.844   4.681
 1264TIP3    H1 3735   1.749   5.915   4.630
 1264TIP3    H2 3736   1.650   5.886   4.741
 1265TIP3   OH2 3737   5.900   3.555   2.461
 1265TIP3    H1 3738   5.869   3.616   2.394
 1265TIP3    H2 3739   5.989   3.532   2.432
 1266TIP3   OH2 3740   7.688   0.651   0.456
 1266TIP3    H1 3741   7.726   0.693   0.533
 1266TIP3    H2 3742   7.611   0.704   0.436
 1267TIP3   OH2 3743   6.520   4.629   0.865
 1267TIP3    H1 3744   6.582   4.580   0.811
 1267TIP3    H2 3745   6.434   4.597   0.838
 1268TIP3   OH2 3746   5.494   6.641   2.410
 1268TIP3    H1 3747   5.484   6.715   2.470
 1268TIP3    H2 3748   5.563   6.669   2.350
 1269TIP3   OH2 3749   0.256   5.806   4.900
 1269TIP3    H1 3750   0.185   5.806   4.836
 1269TIP3    H2 3751   0.323   5.749   4.863
 1270TIP3   OH2 3752   1.867   3.440   2.984
 1270TIP3    H1 3753   1.906   3.404   2.904
 1270TIP3    H2 3754   1.924   3.410   3.054
 1271TIP3   OH2 3755   0.829   6.085   2.384
 1271TIP3    H1 3756   0.921   6.065   2.401
 1271TIP3    H2 3757   0.780   6.032   2.447
 1272TIP3   OH2 3758   2.255   6.862   1.063
 1272TIP3    H1 3759   2.333   6.911   1.091
 1272TIP3    H2 3760   2.198   6.864   1.140
 1273TIP3   OH2 3761   1.402   4.751   1.986
 1273TIP3    H1 3762   1.486   4.797   1.985
 1273TIP3    H2 3763   1.349   4.800   2.049
 1274TIP3   OH2 3764   6.675   1.229   4.080
 1274TIP3    H1 3765   6.631   1.157   4.125
 1274TIP3    H2 3766   6.709   1.190   4.000
 1275TIP3   OH2 3767   7.010   6.905   5.842
 1275TIP3    H1 3768   7.018   7.000   5.833
 1275TIP3    H2 3769   7.100   6.873   5.842
 1276TIP3   OH2 3770   2.031   1.426   4.502
 1276TIP3    H1 3771   2.029   1.341   4.546
 1276TIP3    H2 3772   2.020   1.405   4.410
 1277TIP3   OH2 3773   0.121   2.721   4.480
 1277TIP3    H1 3774   0.216   2.725   4.472
 1277TIP3    H2 3775   0.089   2.731   4.390
 1278TIP3   OH2 3776   4.219   5.388   0.935
 1278TIP3    H1 3777   4.170   5.330   0.994
 1278TIP3    H2 3778   4.308   5.352   0.936
 1279TIP3   OH2 3779   0.799   3.148   3.197
 1279TIP3    H1 3780   0.757   3.126   3.114
 1279TIP3    H2 3781   0.885   3.183   3.172
 1280TIP3   OH2 3782   5.748   6.960   1.495
 1280TIP3    H1 3783   5.839   6.977   1.520
 1280TIP3    H2 3784   5.721   6.887   1.551
 1281TIP3   OH2 3785   0.742   6.813   5.194
 1281TIP3    H1 3786   0.819   6.861   5.225
 1281TIP3    H2 3787   0.668   6.857   5.235
 1282TIP3   OH2 3788   2.793   0.946   6.033
 1282TIP3    H1 3789   2.778   0.985   5.947
 1282TIP3    H2 3790   2.706   0.921   6.064
 1283TIP3   OH2 3791   0.900   4.610   2.136
 1283TIP3    H1 3792   0.983   4.576   2.103
 1283TIP3    H2 3793   0.908   4.605   2.231
 1284TIP3   OH2 3794   3.878   3.467   3.126
 1284TIP3    H1 3795   3.960   3.488   3.081
 1284TIP3    H2 3796   3.863   3.541   3.185
 1285TIP3   OH2 3797   5.257   3.244   6.021
 1285TIP3    H1 3798   5.203   3.272   5.948
 1285TIP3    H2 3799   5.195   3.214   6.087
 1286TIP3   OH2 3800   7.968   7.754   0.410
 1286TIP3    H1 3801   8.013   7.670   0.396
 1286TIP3    H2 3802   7.966   7.764   0.505
 1287TIP3   OH2 3803   2.194   3.192   4.256
 1287TIP3    H1 3804   2.225   3.105   4.281
 1287TIP3    H2 3805   2.166   3.232   4.339
 1288TIP3   OH2 3806   0.038   1.193   6.178
 1288TIP3    H1 3807   0.021   1.132   6.250
 1288TIP3    H2 3808   0.131   1.215   6.186
 1289TIP3   OH2 3809   7.203   5.370   3.853
 1289TIP3    H1 3810   7.165   5.426   3.786
 1289TIP3    H2 3811   7.233   5.431   3.921
 1290TIP3   OH2 3812   8.008   1.406   4.407
 1290TIP3    H1 3813   7.954   1.328   4.421
 1290TIP3    H2 3814   8.030   1.437   4.495
 1291TIP3   OH2 3815   6.899   3.603   5.221
 1291TIP3    H1 3816   6.874   3.596   5.129
 1291TIP3    H2 3817   6.819   3.632   5.265
 1292TIP3   OH2 3818   6.727   1.391   1.702
 1292TIP3    H1 3819   6.737   1.406   1.608
 1292TIP3    H2 3820   6.736   1.477   1.742
 1293TIP3   OH2 3821   2.929   2.455   6.510
 1293TIP3    H1 3822   2.844   2.463   6.554
 1293TIP3    H2 3823   2.907   2.420   6.424
 1294TIP3   OH2 3824   7.402   3.158   3.858
 1294TIP3    H1 3825   7.452   3.216   3.915
 1294TIP3    H2 3826   7.381   3.083   3.913
 1295TIP3   OH2 3827   4.635   5.333   2.640
 1295TIP3    H1 3828   4.619   5.320   2.734
 1295TIP3    H2 3829   4.720   5.377   2.636
 1296TIP3   OH2 3830   1.609   7.224   4.328
 1296TIP3    H1 3831   1.587   7.316   4.318
 1296TIP3    H2 3832   1.636   7.216   4.420
 1297TIP3   OH2 3833   3.164   6.295   3.796
 1297TIP3    H1 3834   3.145   6.279   3.704
 1297TIP3    H2 3835   3.081   6.279   3.841
 1298TIP3   OH2 3836   4.164   4.417   5.377
 1298TIP3    H1 3837   4.126   4.461   5.301
 1298TIP3    H2 3838   4.107   4.442   5.450
 1299TIP3   OH2 3839   5.908   4.126   4.967
 1299TIP3    H1 3840   5.825   4.172   4.956
 1299TIP3    H2 3841   5.920   4.120   5.062
 1300TIP3   OH2 3842   5.058   6.524   2.440
 1300TIP3    H1 3843   5.019   6.445   2.479
 1300TIP3    H2 3844   5.142   6.494   2.405
 1301TIP3   OH2 3845   6.293   7.386   3.275
 1301TIP3    H1 3846   6.361   7.351   3.218
 1301TIP3    H2 3847   6.218   7.328   3.263
 1302TIP3   OH2 3848   4.450   3.781   5.813
 1302TIP3    H1 3849   4.448   3.822   5.726
 1302TIP3    H2 3850   4.492   3.696   5.797
 1303TIP3   OH2 3851  -0.010   1.764   5.190
 1303TIP3    H1 3852  -0.006   1.711   5.111
 1303TIP3    H2 3853   0.077   1.802   5.199
 1304TIP3   OH2 3854   2.789   2.131   6.574
 1304TIP3    H1 3855   2.863   2.174   6.618
 1304TIP3    H2 3856   2.830   2.069   6.514
 1305TIP3   OH2 3857   3.097   5.265   4.776
 1305TIP3    H1 3858   3.149   5.284   4.854
 1305TIP3    H2 3859   3.084   5.170   4.779
 1306TIP3   OH2 3860   1.536   5.158   2.558
 1306TIP3    H1 3861   1.533   5.062   2.549
 1306TIP3    H2 3862   1.594   5.187   2.487
 1307TIP3   OH2 3863   2.320   1.198   5.170
 1307TIP3    H1 3864   2.283   1.149   5.244
 1307TIP3    H2 3865   2.386   1.140   5.133
 1308TIP3   OH2 3866   7.343   0.183   4.139
 1308TIP3    H1 3867   7.353   0.120   4.068
 1308TIP3    H2 3868   7.250   0.178   4.162
 1309TIP3   OH2 3869   3.671   3.473   0.685
 1309TIP3    H1 3870   3.621   3.465   0.604
 1309TIP3    H2 3871   3.698   3.565   0.688
 1310TIP3   OH2 3872   2.022   6.593   3.404
 1310TIP3    H1 3873   1.967   6.600   3.482
 1310TIP3    H2 3874   1.960   6.596   3.331
 1311TIP3   OH2 3875   3.315   3.887   3.540
 1311TIP3    H1 3876   3.243   3.863   3.599
 1311TIP3    H2 3877   3.333   3.807   3.491
 1312TIP3   OH2 3878   5.519   5.280   5.743
 1312TIP3    H1 3879   5.590   5.222   5.771
 1312TIP3    H2 3880   5.533   5.360   5.793
 1313TIP3   OH2 3881   3.522   7.286   3.458
 1313TIP3    H1 3882   3.470   7.231   3.518
 1313TIP3    H2 3883   3.604   7.238   3.447
 1314TIP3   OH2 3884   5.311   1.896   4.603
 1314TIP3    H1 3885   5.257   1.880   4.680
 1314TIP3    H2 3886   5.338   1.808   4.575
 1315TIP3   OH2 3887   3.049   0.979   6.528
 1315TIP3    H1 3888   3.082   0.896   6.493
 1315TIP3    H2 3889   3.127   1.022   6.564
 1316TIP3   OH2 3890   5.267   5.355   4.809
 1316TIP3    H1 3891   5.209   5.303   4.864
 1316TIP3    H2 3892   5.343   5.373   4.865
 1317TIP3   OH2 3893   0.035   2.308   1.141
 1317TIP3    H1 3894   0.066   2.397   1.153
 1317TIP3    H2 3895   0.106   2.253   1.175
 1318TIP3   OH2 3896   5.805   4.445   3.462
 1318TIP3    H1 3897   5.765   4.473   3.379
 1318TIP3    H2 3898   5.835   4.525   3.503
 1319TIP3   OH2 3899   2.619   4.442   3.390
 1319TIP3    H1 3900   2.704   4.399   3.380
 1319TIP3    H2 3901   2.628   4.525   3.343
 1320TIP3   OH2 3902   6.440   2.448   4.274
 1320TIP3    H1 3903   6.371   2.387   4.298
 1320TIP3    H2 3904   6.394   2.522   4.233
 1321TIP3   OH2 3905   1.792   2.813   4.326
 1321TIP3    H1 3906   1.722   2.796   4.389
 1321TIP3    H2 3907   1.805   2.730   4.280
 1322TIP3   OH2 3908   0.481   4.671   0.085
 1322TIP3    H1 3909   0.556   4.706   0.133
 1322TIP3    H2 3910   0.417   4.649   0.152
 1323TIP3   OH2 3911   2.855   4.052   6.727
 1323TIP3    H1 3912   2.939   4.010   6.742
 1323TIP3    H2 3913   2.799   3.982   6.694
 1324TIP3   OH2 3914   4.712   1.931   2.128
 1324TIP3    H1 3915   4.729   1.999   2.193
 1324TIP3    H2 3916   4.743   1.851   2.168
 1325TIP3   OH2 3917   1.712   6.208   4.543
 1325TIP3    H1 3918   1.800   6.186   4.512
 1325TIP3    H2 3919   1.713   6.189   4.636
 1326TIP3   OH2 3920   5.304   6.284   2.584
 1326TIP3    H1 3921   5.261   6.353   2.533
 1326TIP3    H2 3922   5.395   6.284   2.552
 1327TIP3   OH2 3923   5.413   6.193   0.713
 1327TIP3    H1 3924   5.464   6.273   0.725
 1327TIP3    H2 3925   5.329   6.210   0.756
 1328TIP3   OH2 3926   0.693   1.196   1.178
 1328TIP3    H1 3927   0.684   1.284   1.141
 1328TIP3    H2 3928   0.618   1.187   1.236
 1329TIP3   OH2 3929   5.246   5.120   4.961
 1329TIP3    H1 3930   5.228   5.177   5.036
 1329TIP3    H2 3931   5.178   5.053   4.965
 1330TIP3   OH2 3932   6.324   4.209   1.452
 1330TIP3    H1 3933   6.237   4.185   1.484
 1330TIP3    H2 3934   6.382   4.141   1.487
 1331TIP3   OH2 3935   2.749   3.474   1.639
 1331TIP3    H1 3936   2.766   3.556   1.685
 1331TIP3    H2 3937   2.739   3.501   1.547
 1332TIP3   OH2 3938   2.727   6.907   4.495
 1332TIP3    H1 3939   2.745   6.987   4.546
 1332TIP3    H2 3940   2.777   6.919   4.414
 1333TIP3   OH2 3941   3.298   3.028   0.770
 1333TIP3    H1 3942   3.230   3.013   0.835
 1333TIP3    H2 3943   3.380   3.018   0.819
 1334TIP3   OH2 3944   3.810   3.764   6.090
 1334TIP3    H1 3945   3.728   3.722   6.064
 1334TIP3    H2 3946   3.811   3.757   6.186
 1335TIP3   OH2 3947   0.796   3.649   2.942
 1335TIP3    H1 3948   0.892   3.646   2.938
 1335TIP3    H2 3949   0.776   3.628   3.033
 1336TIP3   OH2 3950   6.065   3.737   2.759
 1336TIP3    H1 3951   6.136   3.788   2.800
 1336TIP3    H2 3952   5.987   3.789   2.774
 1337TIP3   OH2 3953   3.176   7.191   4.388
 1337TIP3    H1 3954   3.142   7.205   4.476
 1337TIP3    H2 3955   3.231   7.268   4.371
 1338TIP3   OH2 3956   7.334   7.210   5.310
 1338TIP3    H1 3957   7.312   7.303   5.314
 1338TIP3    H2 3958   7.276   7.169   5.374
 1339TIP3   OH2 3959   4.070   1.376   0.265
 1339TIP3    H1 3960   4.076   1.291   0.308
 1339TIP3    H2 3961   3.999   1.421   0.309
 1340TIP3   OH2 3962   3.448   3.662   0.159
 1340TIP3    H1 3963   3.388   3.700   0.095
 1340TIP3    H2 3964   3.533   3.663   0.116
 1341TIP3   OH2 3965   4.836   6.639   3.420
 1341TIP3    H1 3966   4.915   6.670   3.376
 1341TIP3    H2 3967   4.766   6.650   3.355
 1342TIP3   OH2 3968   3.871   6.440   3.852
 1342TIP3    H1 3969   3.834   6.500   3.918
 1342TIP3    H2 3970   3.960   6.424   3.882
 1343TIP3   OH2 3971   6.228   4.520   0.801
 1343TIP3    H1 3972   6.142   4.490   0.830
 1343TIP3    H2 3973   6.212   4.607   0.765
 1344TIP3   OH2 3974   5.464   0.481   4.216
 1344TIP3    H1 3975   5.387   0.531   4.190
 1344TIP3    H2 3976   5.437   0.389   4.208
 1345TIP3   OH2 3977   6.457   3.133   0.014
 1345TIP3    H1 3978   6.383   3.087  -0.026
 1345TIP3    H2 3979   6.423   3.219   0.037
 1346TIP3   OH2 3980   5.652   1.661   5.334
 1346TIP3    H1 3981   5.574   1.615   5.303
 1346TIP3    H2 3982   5.643   1.750   5.301
 1347TIP3   OH2 3983   4.233   2.893   2.247
 1347TIP3    H1 3984   4.192   2.979   2.234
 1347TIP3    H2 3985   4.304   2.910   2.310
 1348TIP3   OH2 3986   8.048   3.263   3.575
 1348TIP3    H1 3987   8.131   3.255   3.622
 1348TIP3    H2 3988   8.071   3.250   3.483
 1349TIP3   OH2 3989   5.162   0.187   2.979
 1349TIP3    H1 3990   5.117   0.260   2.937
 1349TIP3    H2 3991   5.243   0.177   2.928
 1350TIP3   OH2 3992   4.610   1.779   4.178
 1350TIP3    H1 3993   4.558   1.698   4.176
 1350TIP3    H2 3994   4.694   1.752   4.214
 1351TIP3   OH2 3995   0.255   7.747   3.876
 1351TIP3    H1 3996   0.258   7.732   3.970
 1351TIP3    H2 3997   0.314   7.682   3.839
 1352TIP3   OH2 3998   0.964   6.394   0.827
 1352TIP3    H1 3999   1.018   6.366   0.902
 1352TIP3    H2 4000   0.901   6.455   0.865
 1353TIP3   OH2 4001   2.103   2.924   4.999
 1353TIP3    H1 4002   2.185   2.933   5.046
 1353TIP3    H2 4003   2.128   2.888   4.913
 1354TIP3   OH2 4004   2.789   4.036   2.042
 1354TIP3    H1 4005   2.762   4.034   1.950
 1354TIP3    H2 4006   2.734   3.969   2.084
 1355TIP3   OH2 4007   1.704   0.180   0.225
 1355TIP3    H1 4008   1.712   0.275   0.235
 1355TIP3    H2 4009   1.618   0.167   0.184
 1356TIP3   OH2 4010   6.119   4.804   1.849
 1356TIP3    H1 4011   6.192   4.771   1.902
 1356TIP3    H2 4012   6.142   4.782   1.759
 1357TIP3   OH2 4013   4.779   7.180   1.365
 1357TIP3    H1 4014   4.731   7.218   1.291
 1357TIP3    H2 4015   4.840   7.119   1.325
 1358TIP3   OH2 4016   5.489   4.721   6.260
 1358TIP3    H1 4017   5.403   4.759   6.240
 1358TIP3    H2 4018   5.468   4.634   6.296
 1359TIP3   OH2 4019   4.616   0.434   3.389
 1359TIP3    H1 4020   4.642   0.345   3.366
 1359TIP3    H2 4021   4.665   0.454   3.469
 1360TIP3   OH2 4022   6.378   0.212   5.889
 1360TIP3    H1 4023   6.387   0.253   5.803
 1360TIP3    H2 4024   6.467   0.184   5.911
 1361TIP3   OH2 4025   0.882   2.761   6.285
 1361TIP3    H1 4026   0.859   2.846   6.247
 1361TIP3    H2 4027   0.967   2.739   6.246
 1362TIP3   OH2 4028   2.615   5.994   5.265
 1362TIP3    H1 4029   2.684   5.977   5.201
 1362TIP3    H2 4030   2.586   6.083   5.246
 1363TIP3   OH2 4031   2.335   2.635   6.068
 1363TIP3    H1 4032   2.418   2.673   6.040
 1363TIP3    H2 4033   2.348   2.615   6.160
 1364TIP3   OH2 4034   7.381   5.561   3.981
 1364TIP3    H1 4035   7.459   5.545   4.034
 1364TIP3    H2 4036   7.414   5.603   3.902
 1365TIP3   OH2 4037   0.137   4.352   2.816
 1365TIP3    H1 4038   0.154   4.265   2.780
 1365TIP3    H2 4039   0.100   4.336   2.903
 1366TIP3   OH2 4040   6.653   0.951   6.408
 1366TIP3    H1 4041   6.670   0.921   6.319
 1366TIP3    H2 4042   6.562   0.927   6.426
 1367TIP3   OH2 4043   6.313   6.719   0.845
 1367TIP3    H1 4044   6.317   6.638   0.793
 1367TIP3    H2 4045   6.236   6.765   0.812
 1368TIP3   OH2 4046   4.139   6.455   5.116
 1368TIP3    H1 4047   4.147   6.369   5.075
 1368TIP3    H2 4048   4.215   6.461   5.174
 1369TIP3   OH2 4049   7.768   1.868   6.395
 1369TIP3    H1 4050   7.746   1.943   6.339
 1369TIP3    H2 4051   7.723   1.886   6.477
 1370TIP3   OH2 4052   2.118   1.507   6.160
 1370TIP3    H1 4053   2.093   1.429   6.111
 1370TIP3    H2 4054   2.084   1.492   6.248
 1371TIP3   OH2 4055   2.830   3.524   0.774
 1371TIP3    H1 4056   2.809   3.446   0.826
 1371TIP3    H2 4057   2.812   3.597   0.833
 1372TIP3   OH2 4058   3.646   2.901   1.415
 1372TIP3    H1 4059   3.720   2.909   1.354
 1372TIP3    H2 4060   3.677   2.839   1.482
 1373TIP3   OH2 4061   2.485   2.558   4.639
 1373TIP3    H1 4062   2.537   2.495   4.689
 1373TIP3    H2 4063   2.480   2.521   4.551
 1374TIP3   OH2 4064   4.521   3.988   5.409
 1374TIP3    H1 4065   4.444   3.985   5.352
 1374TIP3    H2 4066   4.595   3.997   5.348
 1375TIP3   OH2 4067   0.660   0.521   0.788
 1375TIP3    H1 4068   0.751   0.549   0.781
 1375TIP3    H2 4069   0.609   0.597   0.759
 1376TIP3   OH2 4070   3.572   5.096   5.649
 1376TIP3    H1 4071   3.519   5.140   5.583
 1376TIP3    H2 4072   3.656   5.142   5.648
 1377TIP3   OH2 4073   6.636   3.546   4.810
 1377TIP3    H1 4074   6.635   3.569   4.717
 1377TIP3    H2 4075   6.720   3.580   4.842
 1378TIP3   OH2 4076   7.883   1.516   4.907
 1378TIP3    H1 4077   7.939   1.592   4.923
 1378TIP3    H2 4078   7.812   1.525   4.971
 1379TIP3   OH2 4079   3.684   4.786   6.403
 1379TIP3    H1 4080   3.669   4.692   6.410
 1379TIP3    H2 4081   3.760   4.803   6.459
 1380TIP3   OH2 4082   1.714   1.712   6.750
 1380TIP3    H1 4083   1.752   1.625   6.757
 1380TIP3    H2 4084   1.651   1.705   6.678
 1381TIP3   OH2 4085   5.745   2.301   3.911
 1381TIP3    H1 4086   5.787   2.313   3.996
 1381TIP3    H2 4087   5.654   2.326   3.924
 1382TIP3   OH2 4088   7.801   0.448   6.680
 1382TIP3    H1 4089   7.740   0.387   6.638
 1382TIP3    H2 4090   7.848   0.488   6.608
 1383TIP3   OH2 4091   2.438   4.086   6.288
 1383TIP3    H1 4092   2.375   4.015   6.275
 1383TIP3    H2 4093   2.394   4.164   6.254
 1384TIP3   OH2 4094   3.812   0.950   3.568
 1384TIP3    H1 4095   3.788   1.034   3.528
 1384TIP3    H2 4096   3.776   0.955   3.656
 1385TIP3   OH2 4097   3.364   1.423   6.054
 1385TIP3    H1 4098   3.386   1.468   6.135
 1385TIP3    H2 4099   3.439   1.441   5.996
 1386TIP3   OH2 4100   6.098   0.065   1.685
 1386TIP3    H1 4101   6.025   0.080   1.625
 1386TIP3    H2 4102   6.122   0.153   1.716
 1387TIP3   OH2 4103   2.050   3.150   1.167
 1387TIP3    H1 4104   2.143   3.157   1.188
 1387TIP3    H2 4105   2.018   3.240   1.171
 1388TIP3   OH2 4106   1.048   1.799   1.276
 1388TIP3    H1 4107   1.004   1.718   1.252
 1388TIP3    H2 4108   1.118   1.809   1.212
 1389TIP3   OH2 4109   2.562   6.706   5.047
 1389TIP3    H1 4110   2.508   6.631   5.023
 1389TIP3    H2 4111   2.585   6.746   4.963
 1390TIP3   OH2 4112   0.675   3.838   0.743
 1390TIP3    H1 4113   0.715   3.752   0.752
 1390TIP3    H2 4114   0.734   3.886   0.685
 1391TIP3   OH2 4115   1.962   4.018   6.754
 1391TIP3    H1 4116   1.998   3.953   6.694
 1391TIP3    H2 4117   1.874   4.035   6.721
 1392TIP3   OH2 4118   7.492   7.266   3.494
 1392TIP3    H1 4119   7.479   7.177   3.462
 1392TIP3    H2 4120   7.422   7.280   3.558
 1393TIP3   OH2 4121   7.943   3.499   2.991
 1393TIP3    H1 4122   8.010   3.562   3.016
 1393TIP3    H2 4123   7.992   3.426   2.953
 1394TIP3   OH2 4124   7.562   4.084   5.862
 1394TIP3    H1 4125   7.589   4.079   5.771
 1394TIP3    H2 4126   7.533   3.995   5.884
 1395TIP3   OH2 4127   4.650   0.070   4.693
 1395TIP3    H1 4128   4.681   0.108   4.611
 1395TIP3    H2 4129   4.666  -0.024   4.683
 1396TIP3   OH2 4130   2.576   3.329   3.462
 1396TIP3    H1 4131   2.482   3.342   3.471
 1396TIP3    H2 4132   2.608   3.324   3.552
 1397TIP3   OH2 4133   3.374   0.992   0.416
 1397TIP3    H1 4134   3.409   0.904   0.402
 1397TIP3    H2 4135   3.318   1.009   0.341
 1398TIP3   OH2 4136   1.991   2.432   0.262
 1398TIP3    H1 4137   1.937   2.509   0.246
 1398TIP3    H2 4138   1.947   2.361   0.215
 1399TIP3   OH2 4139   0.734   5.029   3.473
 1399TIP3    H1 4140   0.701   5.098   3.531
 1399TIP3    H2 4141   0.741   4.951   3.528
 1400TIP3   OH2 4142   7.594   3.261   2.696
 1400TIP3    H1 4143   7.580   3.214   2.778
 1400TIP3    H2 4144   7.614   3.351   2.723
 1401TIP3   OH2 4145   3.983   4.102   2.214
 1401TIP3    H1 4146   3.954   4.086   2.303
 1401TIP3    H2 4147   4.069   4.061   2.209
 1402TIP3   OH2 4148   4.317   2.851   0.484
 1402TIP3    H1 4149   4.396   2.820   0.528
 1402TIP3    H2 4150   4.313   2.800   0.403
 1403TIP3   OH2 4151   0.165   6.377   5.697
 1403TIP3    H1 4152   0.260   6.379   5.712
 1403TIP3    H2 4153   0.153   6.423   5.614
 1404TIP3   OH2 4154   6.047   1.416   0.539
 1404TIP3    H1 4155   6.056   1.353   0.611
 1404TIP3    H2 4156   5.959   1.400   0.504
 1405TIP3   OH2 4157   2.669   3.243   3.706
 1405TIP3    H1 4158   2.692   3.271   3.795
 1405TIP3    H2 4159   2.729   3.171   3.688
 1406TIP3   OH2 4160   7.050   7.708   3.834
 1406TIP3    H1 4161   7.045   7.622   3.875
 1406TIP3    H2 4162   7.126   7.703   3.776
 1407TIP3   OH2 4163   2.462   6.738   1.327
 1407TIP3    H1 4164   2.446   6.824   1.289
 1407TIP3    H2 4165   2.409   6.678   1.275
 1408TIP3   OH2 4166   6.014   0.157   2.878
 1408TIP3    H1 4167   5.920   0.170   2.887
 1408TIP3    H2 4168   6.051   0.190   2.960
 1409TIP3   OH2 4169   3.322   6.834   5.757
 1409TIP3    H1 4170   3.381   6.783   5.813
 1409TIP3    H2 4171   3.366   6.837   5.672
 1410TIP3   OH2 4172   6.015   4.696   5.061
 1410TIP3    H1 4173   5.959   4.622   5.037
 1410TIP3    H2 4174   6.104   4.659   5.058
 1411TIP3   OH2 4175   5.703   2.716   0.485
 1411TIP3    H1 4176   5.650   2.656   0.537
 1411TIP3    H2 4177   5.742   2.661   0.417
 1412TIP3   OH2 4178   1.615   2.369   0.279
 1412TIP3    H1 4179   1.541   2.364   0.340
 1412TIP3    H2 4180   1.592   2.439   0.219
 1413TIP3   OH2 4181   0.740   0.261   5.782
 1413TIP3    H1 4182   0.710   0.211   5.857
 1413TIP3    H2 4183   0.680   0.335   5.776
 1414TIP3   OH2 4184   0.768   3.221   5.396
 1414TIP3    H1 4185   0.807   3.306   5.416
 1414TIP3    H2 4186   0.685   3.222   5.444
 1415TIP3   OH2 4187   2.711   5.357   6.161
 1415TIP3    H1 4188   2.661   5.366   6.243
 1415TIP3    H2 4189   2.648   5.319   6.100
 1416TIP3   OH2 4190   4.606   4.298   0.650
 1416TIP3    H1 4191   4.605   4.266   0.560
 1416TIP3    H2 4192   4.655   4.380   0.646
 1417TIP3   OH2 4193   2.035   6.541   2.199
 1417TIP3    H1 4194   2.109   6.583   2.154
 1417TIP3    H2 4195   2.076   6.479   2.260
 1418TIP3   OH2 4196   3.705   1.265   4.104
 1418TIP3    H1 4197   3.618   1.275   4.143
 1418TIP3    H2 4198   3.738   1.183   4.141
 1419TIP3   OH2 4199   6.915   3.618   1.250
 1419TIP3    H1 4200   6.953   3.552   1.193
 1419TIP3    H2 4201   6.829   3.583   1.273
 1420TIP3   OH2 4202   5.138   7.036   6.096
 1420TIP3    H1 4203   5.214   7.008   6.045
 1420TIP3    H2 4204   5.090   6.956   6.114
 1421TIP3   OH2 4205   1.857   0.877   1.937
 1421TIP3    H1 4206   1.890   0.957   1.978
 1421TIP3    H2 4207   1.931   0.817   1.939
 1422TIP3   OH2 4208   7.679   3.763   3.049
 1422TIP3    H1 4209   7.607   3.703   3.027
 1422TIP3    H2 4210   7.748   3.706   3.081
 1423TIP3   OH2 4211   0.530   6.828   1.329
 1423TIP3    H1 4212   0.588   6.768   1.376
 1423TIP3    H2 4213   0.443   6.789   1.338
 1424TIP3   OH2 4214   6.928   7.160   5.899
 1424TIP3    H1 4215   6.877   7.122   5.971
 1424TIP3    H2 4216   7.018   7.161   5.932
 1425TIP3   OH2 4217   8.001   6.933   0.389
 1425TIP3    H1 4218   7.935   6.872   0.354
 1425TIP3    H2 4219   7.968   7.020   0.366
 1426TIP3   OH2 4220   1.086   5.040   1.168
 1426TIP3    H1 4221   1.055   5.052   1.078
 1426TIP3    H2 4222   1.007   5.052   1.222
 1427TIP3   OH2 4223   6.878   0.942   1.818
 1427TIP3    H1 4224   6.864   0.875   1.884
 1427TIP3    H2 4225   6.850   0.901   1.736
 1428TIP3   OH2 4226   8.025   6.714   1.558
 1428TIP3    H1 4227   8.094   6.700   1.622
 1428TIP3    H2 4228   7.994   6.803   1.576
 1429TIP3   OH2 4229   5.950   5.896   6.649
 1429TIP3    H1 4230   5.966   5.802   6.655
 1429TIP3    H2 4231   5.879   5.905   6.586
 1430TIP3   OH2 4232   3.241   3.632   0.447
 1430TIP3    H1 4233   3.331   3.599   0.457
 1430TIP3    H2 4234   3.196   3.603   0.526
 1431TIP3   OH2 4235   3.464   0.686   1.112
 1431TIP3    H1 4236   3.512   0.769   1.119
 1431TIP3    H2 4237   3.529   0.622   1.084
 1432TIP3   OH2 4238   6.428   5.801   3.317
 1432TIP3    H1 4239   6.416   5.895   3.326
 1432TIP3    H2 4240   6.358   5.762   3.369
 1433TIP3   OH2 4241   0.458   6.855   2.409
 1433TIP3    H1 4242   0.369   6.890   2.402
 1433TIP3    H2 4243   0.512   6.917   2.360
 1434TIP3   OH2 4244   4.170   5.225   4.633
 1434TIP3    H1 4245   4.206   5.146   4.593
 1434TIP3    H2 4246   4.236   5.252   4.697
 1435TIP3   OH2 4247   6.719   6.152   2.293
 1435TIP3    H1 4248   6.811   6.174   2.275
 1435TIP3    H2 4249   6.680   6.140   2.207
 1436TIP3   OH2 4250   6.895   4.073   5.258
 1436TIP3    H1 4251   6.826   4.010   5.277
 1436TIP3    H2 4252   6.974   4.020   5.246
 1437TIP3   OH2 4253   4.089   1.577   3.158
 1437TIP3    H1 4254   4.030   1.591   3.085
 1437TIP3    H2 4255   4.063   1.642   3.223
 1438TIP3   OH2 4256   4.167   1.130   1.896
 1438TIP3    H1 4257   4.104   1.160   1.830
 1438TIP3    H2 4258   4.161   1.034   1.893
 1439TIP3   OH2 4259   4.209   4.659   4.695
 1439TIP3    H1 4260   4.274   4.707   4.746
 1439TIP3    H2 4261   4.252   4.641   4.612
 1440TIP3   OH2 4262   7.809   6.801   5.134
 1440TIP3    H1 4263   7.873   6.855   5.181
 1440TIP3    H2 4264   7.730   6.855   5.131
 1441TIP3   OH2 4265   6.208   0.834   1.312
 1441TIP3    H1 4266   6.261   0.770   1.360
 1441TIP3    H2 4267   6.119   0.799   1.317
 1442TIP3   OH2 4268   6.719   5.114   3.483
 1442TIP3    H1 4269   6.752   5.026   3.468
 1442TIP3    H2 4270   6.796   5.171   3.473
 1443TIP3   OH2 4271   1.276   5.796   5.598
 1443TIP3    H1 4272   1.208   5.796   5.531
 1443TIP3    H2 4273   1.250   5.728   5.659
 1444TIP3   OH2 4274   2.292   4.424   2.982
 1444TIP3    H1 4275   2.244   4.351   2.946
 1444TIP3    H2 4276   2.227   4.493   2.995
 1445TIP3   OH2 4277   0.022   1.617   2.744
 1445TIP3    H1 4278  -0.043   1.561   2.701
 1445TIP3    H2 4279   0.106   1.591   2.706
 1446TIP3   OH2 4280   4.849   7.171   3.636
 1446TIP3    H1 4281   4.862   7.257   3.597
 1446TIP3    H2 4282   4.865   7.184   3.730
 1447TIP3   OH2 4283   1.587   5.166   3.935
 1447TIP3    H1 4284   1.499   5.141   3.909
 1447TIP3    H2 4285   1.575   5.220   4.013
 1448TIP3   OH2 4286   7.827   6.188   4.458
 1448TIP3    H1 4287   7.864   6.100   4.457
 1448TIP3    H2 4288   7.829   6.214   4.550
 1449TIP3   OH2 4289   1.194   0.107   4.269
 1449TIP3    H1 4290   1.200   0.086   4.362
 1449TIP3    H2 4291   1.112   0.066   4.241
 1450TIP3   OH2 4292   6.226   1.026   6.711
 1450TIP3    H1 4293   6.148   1.035   6.765
 1450TIP3    H2 4294   6.296   1.003   6.773
 1451TIP3   OH2 4295   3.033   4.949   3.131
 1451TIP3    H1 4296   2.950   4.904   3.149
 1451TIP3    H2 4297   3.030   4.966   3.037
 1452TIP3   OH2 4298   1.636   4.532   5.861
 1452TIP3    H1 4299   1.721   4.542   5.817
 1452TIP3    H2 4300   1.591   4.464   5.810
 1453TIP3   OH2 4301   7.440   5.198   3.991
 1453TIP3    H1 4302   7.535   5.211   3.990
 1453TIP3    H2 4303   7.409   5.244   3.913
 1454TIP3   OH2 4304   5.544   3.209   6.729
 1454TIP3    H1 4305   5.570   3.151   6.657
 1454TIP3    H2 4306   5.508   3.150   6.795
 1455TIP3   OH2 4307   8.210   0.563   4.105
 1455TIP3    H1 4308   8.158   0.581   4.182
 1455TIP3    H2 4309   8.147   0.559   4.033
 1456TIP3   OH2 4310   8.119   1.343   4.154
 1456TIP3    H1 4311   8.138   1.418   4.097
 1456TIP3    H2 4312   8.112   1.381   4.242
 1457TIP3   OH2 4313   6.631   6.056   3.897
 1457TIP3    H1 4314   6.619   6.027   3.988
 1457TIP3    H2 4315   6.678   5.984   3.855
 1458TIP3   OH2 4316   4.078   5.871   0.864
 1458TIP3    H1 4317   4.129   5.903   0.938
 1458TIP3    H2 4318   4.101   5.779   0.855
 1459TIP3   OH2 4319   6.426   5.251   1.667
 1459TIP3    H1 4320   6.332   5.253   1.684
 1459TIP3    H2 4321   6.465   5.231   1.752
 1460TIP3   OH2 4322   0.268   4.450   2.489
 1460TIP3    H1 4323   0.328   4.480   2.557
 1460TIP3    H2 4324   0.286   4.357   2.481
 1461TIP3   OH2 4325   3.260   7.489   5.628
 1461TIP3    H1 4326   3.315   7.557   5.590
 1461TIP3    H2 4327   3.314   7.410   5.624
 1462TIP3   OH2 4328   0.149   2.575   1.080
 1462TIP3    H1 4329   0.098   2.607   1.006
 1462TIP3    H2 4330   0.176   2.654   1.127
 1463TIP3   OH2 4331   4.548   3.866   6.180
 1463TIP3    H1 4332   4.598   3.882   6.100
 1463TIP3    H2 4333   4.581   3.782   6.212
 1464TIP3   OH2 4334   5.524   7.658   1.461
 1464TIP3    H1 4335   5.449   7.700   1.503
 1464TIP3    H2 4336   5.491   7.574   1.431
 1465TIP3   OH2 4337   1.787   4.129   4.606
 1465TIP3    H1 4338   1.832   4.211   4.587
 1465TIP3    H2 4339   1.744   4.144   4.691
 1466TIP3   OH2 4340   2.746   4.980   2.454
 1466TIP3    H1 4341   2.773   4.902   2.406
 1466TIP3    H2 4342   2.829   5.020   2.484
 1467TIP3   OH2 4343   4.174   0.549   4.191
 1467TIP3    H1 4344   4.090   0.515   4.160
 1467TIP3    H2 4345   4.175   0.529   4.285
 1468TIP3   OH2 4346   7.174   2.072   1.801
 1468TIP3    H1 4347   7.215   1.991   1.772
 1468TIP3    H2 4348   7.145   2.115   1.720
 1469TIP3   OH2 4349   2.437   1.452   5.140
 1469TIP3    H1 4350   2.385   1.371   5.144
 1469TIP3    H2 4351   2.506   1.433   5.077
 1470TIP3   OH2 4352   1.759   0.430   3.751
 1470TIP3    H1 4353   1.808   0.512   3.763
 1470TIP3    H2 4354   1.670   0.451   3.778
 1471TIP3   OH2 4355   1.400   6.820   2.931
 1471TIP3    H1 4356   1.334   6.801   2.998
 1471TIP3    H2 4357   1.370   6.773   2.853
 1472TIP3   OH2 4358   5.701   6.148   5.840
 1472TIP3    H1 4359   5.675   6.065   5.879
 1472TIP3    H2 4360   5.768   6.183   5.899
 1473TIP3   OH2 4361   7.209   3.806   1.936
 1473TIP3    H1 4362   7.160   3.725   1.950
 1473TIP3    H2 4363   7.173   3.843   1.856
 1474TIP3   OH2 4364   6.154   1.797   4.352
 1474TIP3    H1 4365   6.225   1.766   4.409
 1474TIP3    H2 4366   6.183   1.883   4.323
 1475TIP3   OH2 4367   2.060   0.547   2.573
 1475TIP3    H1 4368   2.108   0.618   2.615
 1475TIP3    H2 4369   2.040   0.486   2.644
 1476TIP3   OH2 4370   6.789   4.799   5.173
 1476TIP3    H1 4371   6.874   4.806   5.130
 1476TIP3    H2 4372   6.736   4.747   5.112
 1477TIP3   OH2 4373   6.290   1.742   5.335
 1477TIP3    H1 4374   6.200   1.769   5.320
 1477TIP3    H2 4375   6.343   1.812   5.295
 1478TIP3   OH2 4376   7.883   4.795   1.032
 1478TIP3    H1 4377   7.965   4.748   1.048
 1478TIP3    H2 4378   7.882   4.864   1.098
 1479TIP3   OH2 4379   1.284   4.743   1.526
 1479TIP3    H1 4380   1.206   4.701   1.492
 1479TIP3    H2 4381   1.275   4.835   1.501
 1480TIP3   OH2 4382   0.323   3.070   0.337
 1480TIP3    H1 4383   0.355   3.132   0.271
 1480TIP3    H2 4384   0.389   3.001   0.339
 1481TIP3   OH2 4385   6.612   5.609   1.868
 1481TIP3    H1 4386   6.610   5.577   1.778
 1481TIP3    H2 4387   6.659   5.541   1.917
 1482TIP3   OH2 4388   6.234   3.937   1.248
 1482TIP3    H1 4389   6.304   3.880   1.280
 1482TIP3    H2 4390   6.278   3.995   1.186
 1483TIP3   OH2 4391   2.673   0.734   1.672
 1483TIP3    H1 4392   2.751   0.781   1.644
 1483TIP3    H2 4393   2.613   0.741   1.598
 1484TIP3   OH2 4394   4.042   7.728   5.078
 1484TIP3    H1 4395   4.040   7.675   4.998
 1484TIP3    H2 4396   4.018   7.816   5.049
 1485TIP3   OH2 4397   2.123   1.733   4.527
 1485TIP3    H1 4398   2.171   1.728   4.610
 1485TIP3    H2 4399   2.095   1.644   4.510
 1486TIP3   OH2 4400   1.255   5.915   6.332
 1486TIP3    H1 4401   1.347   5.891   6.323
 1486TIP3    H2 4402   1.225   5.865   6.409
 1487TIP3   OH2 4403   2.542   1.551   3.833
 1487TIP3    H1 4404   2.538   1.457   3.855
 1487TIP3    H2 4405   2.472   1.563   3.768
 1488TIP3   OH2 4406   1.421   6.734   0.195
 1488TIP3    H1 4407   1.353   6.669   0.175
 1488TIP3    H2 4408   1.485   6.723   0.125
 1489TIP3   OH2 4409   3.553   3.382   5.084
 1489TIP3    H1 4410   3.568   3.384   5.178
 1489TIP3    H2 4411   3.463   3.412   5.073
 1490TIP3   OH2 4412   0.855   0.716   1.037
 1490TIP3    H1 4413   0.832   0.709   0.945
 1490TIP3    H2 4414   0.835   0.807   1.059
 1491TIP3   OH2 4415   2.886   0.502   1.243
 1491TIP3    H1 4416   2.916   0.593   1.248
 1491TIP3    H2 4417   2.809   0.499   1.300
 1492TIP3   OH2 4418   5.875   1.033   3.812
 1492TIP3    H1 4419   5.953   1.049   3.865
 1492TIP3    H2 4420   5.833   0.957   3.853
 1493TIP3   OH2 4421   3.322   0.541   4.591
 1493TIP3    H1 4422   3.348   0.586   4.510
 1493TIP3    H2 4423   3.387   0.569   4.656
 1494TIP3   OH2 4424   6.808   7.775   3.574
 1494TIP3    H1 4425   6.807   7.847   3.512
 1494TIP3    H2 4426   6.879   7.718   3.543
 1495TIP3   OH2 4427   2.401   1.626   3.109
 1495TIP3    H1 4428   2.348   1.637   3.030
 1495TIP3    H2 4429   2.378   1.700   3.164
 1496TIP3   OH2 4430   3.099   3.323   3.590
 1496TIP3    H1 4431   3.052   3.372   3.657
 1496TIP3    H2 4432   3.191   3.329   3.614
 1497TIP3   OH2 4433   3.677   5.749   5.714
 1497TIP3    H1 4434   3.593   5.739   5.668
 1497TIP3    H2 4435   3.658   5.808   5.787
 1498TIP3   OH2 4436   5.088   2.173   3.000
 1498TIP3    H1 4437   5.113   2.263   2.979
 1498TIP3    H2 4438   5.085   2.129   2.915
 1499TIP3   OH2 4439   3.632   4.115   4.809
 1499TIP3    H1 4440   3.541   4.135   4.787
 1499TIP3    H2 4441   3.647   4.027   4.773
 1500TIP3   OH2 4442   8.072   4.515   0.251
 1500TIP3    H1 4443   8.135   4.530   0.321
 1500TIP3    H2 4444   8.127   4.498   0.174
 1501TIP3   OH2 4445   6.409   3.985   5.353
 1501TIP3    H1 4446   6.370   3.998   5.266
 1501TIP3    H2 4447   6.349   3.924   5.397
 1502TIP3   OH2 4448   4.285   7.198   2.475
 1502TIP3    H1 4449   4.307   7.133   2.408
 1502TIP3    H2 4450   4.332   7.168   2.553
 1503TIP3   OH2 4451   4.484   5.954   2.824
 1503TIP3    H1 4452   4.447   6.037   2.854
 1503TIP3    H2 4453   4.407   5.902   2.797
 1504TIP3   OH2 4454   5.927   0.770   0.706
 1504TIP3    H1 4455   5.975   0.783   0.624
 1504TIP3    H2 4456   5.934   0.676   0.723
 1505TIP3   OH2 4457   7.260   1.024   5.562
 1505TIP3    H1 4458   7.289   1.026   5.471
 1505TIP3    H2 4459   7.245   0.931   5.580
 1506TIP3   OH2 4460   1.381   3.589   5.608
 1506TIP3    H1 4461   1.411   3.535   5.535
 1506TIP3    H2 4462   1.448   3.576   5.676
 1507TIP3   OH2 4463   4.564   2.775   6.636
 1507TIP3    H1 4464   4.620   2.784   6.558
 1507TIP3    H2 4465   4.481   2.742   6.602
 1508TIP3   OH2 4466   4.346   0.970   1.622
 1508TIP3    H1 4467   4.345   1.060   1.588
 1508TIP3    H2 4468   4.260   0.958   1.660
 1509TIP3   OH2 4469   5.710   1.565   3.594
 1509TIP3    H1 4470   5.729   1.597   3.506
 1509TIP3    H2 4471   5.628   1.517   3.584
 1510TIP3   OH2 4472   1.104   6.295   2.479
 1510TIP3    H1 4473   1.098   6.312   2.573
 1510TIP3    H2 4474   1.118   6.201   2.473
 1511TIP3   OH2 4475   7.104   6.454   5.993
 1511TIP3    H1 4476   7.080   6.486   6.080
 1511TIP3    H2 4477   7.186   6.498   5.973
 1512TIP3   OH2 4478   7.957   3.315   1.135
 1512TIP3    H1 4479   8.002   3.286   1.056
 1512TIP3    H2 4480   7.986   3.406   1.148
 1513TIP3   OH2 4481   0.656   0.826   2.600
 1513TIP3    H1 4482   0.696   0.905   2.562
 1513TIP3    H2 4483   0.647   0.766   2.526
 1514TIP3   OH2 4484   3.404   4.993   3.115
 1514TIP3    H1 4485   3.362   4.995   3.029
 1514TIP3    H2 4486   3.450   5.077   3.121
 1515TIP3   OH2 4487   4.546   1.057   5.249
 1515TIP3    H1 4488   4.574   0.980   5.298
 1515TIP3    H2 4489   4.627   1.106   5.235
 1516TIP3   OH2 4490   2.069   7.624   2.318
 1516TIP3    H1 4491   2.134   7.653   2.382
 1516TIP3    H2 4492   2.112   7.551   2.273
 1517TIP3   OH2 4493   8.157   5.189   4.935
 1517TIP3    H1 4494   8.167   5.111   4.988
 1517TIP3    H2 4495   8.245   5.227   4.931
 1518TIP3   OH2 4496   7.589   7.237   4.292
 1518TIP3    H1 4497   7.648   7.307   4.263
 1518TIP3    H2 4498   7.502   7.276   4.290
 1519TIP3   OH2 4499   1.192   3.425   5.714
 1519TIP3    H1 4500   1.221   3.505   5.671
 1519TIP3    H2 4501   1.173   3.451   5.804
 1520TIP3   OH2 4502   2.823   2.877   2.299
 1520TIP3    H1 4503   2.749   2.843   2.350
 1520TIP3    H2 4504   2.783   2.904   2.216
 1521TIP3   OH2 4505   6.410   3.781   5.697
 1521TIP3    H1 4506   6.438   3.730   5.774
 1521TIP3    H2 4507   6.491   3.794   5.647
 1522TIP3   OH2 4508   3.741   2.004   2.392
 1522TIP3    H1 4509   3.827   1.993   2.351
 1522TIP3    H2 4510   3.699   2.073   2.340
 1523TIP3   OH2 4511   4.130   2.698   1.991
 1523TIP3    H1 4512   4.153   2.744   2.072
 1523TIP3    H2 4513   4.207   2.646   1.970
 1524TIP3   OH2 4514   5.895   4.862   0.731
 1524TIP3    H1 4515   5.901   4.955   0.709
 1524TIP3    H2 4516   5.869   4.820   0.649
 1525TIP3   OH2 4517   7.727   2.676   5.436
 1525TIP3    H1 4518   7.816   2.690   5.405
 1525TIP3    H2 4519   7.686   2.621   5.368
 1526TIP3   OH2 4520   1.711   3.940   6.070
 1526TIP3    H1 4521   1.772   3.925   6.143
 1526TIP3    H2 4522   1.761   3.994   6.009
 1527TIP3   OH2 4523   3.184   2.030   5.786
 1527TIP3    H1 4524   3.220   2.058   5.703
 1527TIP3    H2 4525   3.098   1.993   5.764
 1528TIP3   OH2 4526   1.808   5.787   1.649
 1528TIP3    H1 4527   1.735   5.801   1.590
 1528TIP3    H2 4528   1.860   5.867   1.643
 1529TIP3   OH2 4529   7.886   0.948   1.874
 1529TIP3    H1 4530   7.793   0.928   1.891
 1529TIP3    H2 4531   7.930   0.863   1.881
 1530TIP3   OH2 4532   0.910   3.227   2.054
 1530TIP3    H1 4533   0.960   3.223   2.135
 1530TIP3    H2 4534   0.964   3.279   1.995
 1531TIP3   OH2 4535   5.710   5.082   6.399
 1531TIP3    H1 4536   5.656   5.008   6.428
 1531TIP3    H2 4537   5.668   5.159   6.439
 1532TIP3   OH2 4538   3.727   2.253   4.957
 1532TIP3    H1 4539   3.813   2.283   4.928
 1532TIP3    H2 4540   3.690   2.210   4.880
 1533TIP3   OH2 4541   1.685   0.710   3.250
 1533TIP3    H1 4542   1.701   0.794   3.205
 1533TIP3    H2 4543   1.602   0.679   3.214
 1534TIP3   OH2 4544   2.685   5.464   3.541
 1534TIP3    H1 4545   2.612   5.518   3.569
 1534TIP3    H2 4546   2.749   5.525   3.505
 1535TIP3   OH2 4547   3.752   7.740   5.178
 1535TIP3    H1 4548   3.727   7.757   5.269
 1535TIP3    H2 4549   3.845   7.717   5.182
 1536TIP3   OH2 4550   6.159   6.204   5.400
 1536TIP3    H1 4551   6.103   6.185   5.325
 1536TIP3    H2 4552   6.220   6.270   5.368
 1537TIP3   OH2 4553   4.643   4.284   3.788
 1537TIP3    H1 4554   4.680   4.313   3.704
 1537TIP3    H2 4555   4.716   4.240   3.831
 1538TIP3   OH2 4556   4.417   7.705   6.564
 1538TIP3    H1 4557   4.362   7.720   6.640
 1538TIP3    H2 4558   4.355   7.692   6.492
 1539TIP3   OH2 4559   3.507   2.627   0.195
 1539TIP3    H1 4560   3.479   2.557   0.254
 1539TIP3    H2 4561   3.430   2.682   0.186
 1540TIP3   OH2 4562   6.301   1.325   0.416
 1540TIP3    H1 4563   6.225   1.352   0.467
 1540TIP3    H2 4564   6.340   1.408   0.387
 1541TIP3   OH2 4565   7.250   5.257   0.339
 1541TIP3    H1 4566   7.315   5.232   0.405
 1541TIP3    H2 4567   7.303   5.289   0.266
 1542TIP3   OH2 4568   3.306   2.661   3.766
 1542TIP3    H1 4569   3.270   2.715   3.696
 1542TIP3    H2 4570   3.359   2.721   3.819
 1543TIP3   OH2 4571   5.544   1.352   5.328
 1543TIP3    H1 4572   5.557   1.359   5.422
 1543TIP3    H2 4573   5.630   1.371   5.290
 1544TIP3   OH2 4574   7.941   5.311   2.237
 1544TIP3    H1 4575   8.022   5.308   2.289
 1544TIP3    H2 4576   7.890   5.237   2.269
 1545TIP3   OH2 4577   5.509   6.888   3.935
 1545TIP3    H1 4578   5.553   6.817   3.982
 1545TIP3    H2 4579   5.545   6.968   3.973
 1546TIP3   OH2 4580   4.509   2.454   5.179
 1546TIP3    H1 4581   4.489   2.518   5.247
 1546TIP3    H2 4582   4.605   2.458   5.171
 1547TIP3   OH2 4583   6.555   6.100   5.589
 1547TIP3    H1 4584   6.630   6.109   5.649
 1547TIP3    H2 4585   6.568   6.170   5.525
 1548TIP3   OH2 4586   0.737   4.758   5.504
 1548TIP3    H1 4587   0.722   4.684   5.563
 1548TIP3    H2 4588   0.796   4.816   5.552
 1549TIP3   OH2 4589   2.989   1.338   1.832
 1549TIP3    H1 4590   2.962   1.429   1.816
 1549TIP3    H2 4591   3.084   1.341   1.837
 1550TIP3   OH2 4592   6.544   2.400   2.162
 1550TIP3    H1 4593   6.512   2.312   2.145
 1550TIP3    H2 4594   6.617   2.412   2.102
 1551TIP3   OH2 4595   2.031   0.801   5.105
 1551TIP3    H1 4596   2.075   0.716   5.108
 1551TIP3    H2 4597   1.951   0.788   5.157
 1552TIP3   OH2 4598   0.240   6.521   5.154
 1552TIP3    H1 4599   0.198   6.602   5.123
 1552TIP3    H2 4600   0.186   6.493   5.227
 1553TIP3   OH2 4601   4.384   3.386   4.850
 1553TIP3    H1 4602   4.387   3.463   4.792
 1553TIP3    H2 4603   4.305   3.339   4.823
 1554TIP3   OH2 4604   2.177   6.888   2.807
 1554TIP3    H1 4605   2.225   6.866   2.886
 1554TIP3    H2 4606   2.091   6.917   2.838
 1555TIP3   OH2 4607   4.193   6.957   1.298
 1555TIP3    H1 4608   4.273   6.965   1.349
 1555TIP3    H2 4609   4.159   6.869   1.320
 1556TIP3   OH2 4610   6.759   5.501   0.832
 1556TIP3    H1 4611   6.743   5.428   0.891
 1556TIP3    H2 4612   6.853   5.520   0.842
 1557TIP3   OH2 4613   7.160   7.558   2.069
 1557TIP3    H1 4614   7.208   7.492   2.119
 1557TIP3    H2 4615   7.117   7.611   2.136
 1558TIP3   OH2 4616   5.162   7.639   3.913
 1558TIP3    H1 4617   5.119   7.558   3.884
 1558TIP3    H2 4618   5.256   7.621   3.904
 1559TIP3   OH2 4619   0.289   5.179   1.610
 1559TIP3    H1 4620   0.213   5.142   1.565
 1559TIP3    H2 4621   0.273   5.161   1.702
 1560TIP3   OH2 4622   4.512   6.635   4.393
 1560TIP3    H1 4623   4.597   6.592   4.398
 1560TIP3    H2 4624   4.527   6.715   4.342
 1561TIP3   OH2 4625   4.072   5.274   4.934
 1561TIP3    H1 4626   3.985   5.306   4.909
 1561TIP3    H2 4627   4.054   5.198   4.989
 1562TIP3   OH2 4628   7.115   2.496   2.565
 1562TIP3    H1 4629   7.155   2.583   2.563
 1562TIP3    H2 4630   7.166   2.445   2.503
 1563TIP3   OH2 4631   2.638   3.858   4.861
 1563TIP3    H1 4632   2.727   3.824   4.846
 1563TIP3    H2 4633   2.621   3.840   4.954
 1564TIP3   OH2 4634   7.544   3.901   4.022
 1564TIP3    H1 4635   7.536   3.917   3.928
 1564TIP3    H2 4636   7.478   3.958   4.062
 1565TIP3   OH2 4637   7.755   1.858   2.804
 1565TIP3    H1 4638   7.837   1.905   2.794
 1565TIP3    H2 4639   7.699   1.917   2.854
 1566TIP3   OH2 4640   2.559   3.892   4.101
 1566TIP3    H1 4641   2.493   3.933   4.157
 1566TIP3    H2 4642   2.573   3.954   4.030
 1567TIP3   OH2 4643   2.380   4.318   5.607
 1567TIP3    H1 4644   2.472   4.344   5.619
 1567TIP3    H2 4645   2.338   4.394   5.569
 1568TIP3   OH2 4646   1.166   6.762   1.314
 1568TIP3    H1 4647   1.119   6.682   1.288
 1568TIP3    H2 4648   1.249   6.758   1.266
 1569TIP3   OH2 4649   6.338   5.191   0.700
 1569TIP3    H1 4650   6.412   5.200   0.760
 1569TIP3    H2 4651   6.264   5.167   0.756
 1570TIP3   OH2 4652   4.548   4.765   5.077
 1570TIP3    H1 4653   4.631   4.761   5.030
 1570TIP3    H2 4654   4.539   4.679   5.118
 1571TIP3   OH2 4655   3.919   6.909   3.038
 1571TIP3    H1 4656   4.002   6.904   2.990
 1571TIP3    H2 4657   3.888   6.818   3.042
 1572TIP3   OH2 4658   3.326   3.162   1.584
 1572TIP3    H1 4659   3.246   3.203   1.618
 1572TIP3    H2 4660   3.384   3.236   1.565
 1573TIP3   OH2 4661   2.070   1.682   5.110
 1573TIP3    H1 4662   2.095   1.774   5.118
 1573TIP3    H2 4663   2.116   1.650   5.033
 1574TIP3   OH2 4664   1.154   1.957   6.340
 1574TIP3    H1 4665   1.100   1.926   6.412
 1574TIP3    H2 4666   1.244   1.937   6.366
 1575TIP3   OH2 4667   2.883   6.115   4.182
 1575TIP3    H1 4668   2.856   6.128   4.273
 1575TIP3    H2 4669   2.825   6.046   4.150
 1576TIP3   OH2 4670   1.450   5.825   1.811
 1576TIP3    H1 4671   1.462   5.906   1.860
 1576TIP3    H2 4672   1.420   5.854   1.725
 1577TIP3   OH2 4673   0.581   6.911   0.823
 1577TIP3    H1 4674   0.597   6.833   0.878
 1577TIP3    H2 4675   0.620   6.889   0.739
 1578TIP3   OH2 4676   3.967   0.781   4.061
 1578TIP3    H1 4677   3.956   0.692   4.095
 1578TIP3    H2 4678   4.048   0.812   4.102
 1579TIP3   OH2 4679   1.343   6.803   0.451
 1579TIP3    H1 4680   1.429   6.805   0.493
 1579TIP3    H2 4681   1.362   6.801   0.357
 1580TIP3   OH2 4682   3.985   2.589   6.386
 1580TIP3    H1 4683   3.905   2.642   6.388
 1580TIP3    H2 4684   3.992   2.559   6.295
 1581TIP3   OH2 4685   5.241   7.587   6.434
 1581TIP3    H1 4686   5.189   7.510   6.457
 1581TIP3    H2 4687   5.312   7.588   6.498
 1582TIP3   OH2 4688   2.538   7.672   5.478
 1582TIP3    H1 4689   2.533   7.674   5.382
 1582TIP3    H2 4690   2.563   7.582   5.499
 1583TIP3   OH2 4691   8.005   4.315   4.435
 1583TIP3    H1 4692   8.058   4.263   4.374
 1583TIP3    H2 4693   8.068   4.349   4.498
 1584TIP3   OH2 4694   8.237   3.304   5.856
 1584TIP3    H1 4695   8.269   3.273   5.771
 1584TIP3    H2 4696   8.179   3.235   5.887
 1585TIP3   OH2 4697   1.822   7.396   2.746
 1585TIP3    H1 4698   1.806   7.485   2.712
 1585TIP3    H2 4699   1.871   7.353   2.676
 1586TIP3   OH2 4700   5.137   0.431   4.175
 1586TIP3    H1 4701   5.070   0.423   4.242
 1586TIP3    H2 4702   5.199   0.361   4.193
 1587TIP3   OH2 4703   3.178   4.972   3.663
 1587TIP3    H1 4704   3.195   4.991   3.756
 1587TIP3    H2 4705   3.087   4.997   3.650
 1588TIP3   OH2 4706   4.039   7.425   0.765
 1588TIP3    H1 4707   3.958   7.376   0.750
 1588TIP3    H2 4708   4.023   7.472   0.847
 1589TIP3   OH2 4709   2.095   0.236   4.413
 1589TIP3    H1 4710   2.158   0.305   4.394
 1589TIP3    H2 4711   2.015   0.283   4.439
 1590TIP3   OH2 4712   1.691   0.219   3.092
 1590TIP3    H1 4713   1.704   0.205   3.186
 1590TIP3    H2 4714   1.774   0.253   3.061
 1591TIP3   OH2 4715   4.374   6.377   0.998
 1591TIP3    H1 4716   4.379   6.288   1.036
 1591TIP3    H2 4717   4.437   6.376   0.927
 1592TIP3   OH2 4718   0.627   1.437   5.725
 1592TIP3    H1 4719   0.634   1.418   5.818
 1592TIP3    H2 4720   0.710   1.406   5.688
 1593TIP3   OH2 4721   3.129   6.779   2.929
 1593TIP3    H1 4722   3.034   6.785   2.916
 1593TIP3    H2 4723   3.143   6.691   2.963
 1594TIP3   OH2 4724   6.924   0.501   4.431
 1594TIP3    H1 4725   6.981   0.437   4.473
 1594TIP3    H2 4726   6.883   0.453   4.360
 1595TIP3   OH2 4727   7.722   0.961   0.516
 1595TIP3    H1 4728   7.640   0.948   0.468
 1595TIP3    H2 4729   7.766   1.032   0.470
 1596TIP3   OH2 4730   5.919   3.607   0.514
 1596TIP3    H1 4731   5.826   3.602   0.533
 1596TIP3    H2 4732   5.951   3.518   0.532
 1597TIP3   OH2 4733   5.297   5.380   1.930
 1597TIP3    H1 4734   5.357   5.393   1.856
 1597TIP3    H2 4735   5.271   5.288   1.924
 1598TIP3   OH2 4736   6.318   4.669   1.356
 1598TIP3    H1 4737   6.309   4.649   1.449
 1598TIP3    H2 4738   6.230   4.656   1.320
 1599TIP3   OH2 4739   3.094   7.628   1.863
 1599TIP3    H1 4740   3.083   7.662   1.774
 1599TIP3    H2 4741   3.161   7.684   1.901
 1600TIP3   OH2 4742   1.429   1.500   4.388
 1600TIP3    H1 4743   1.428   1.529   4.297
 1600TIP3    H2 4744   1.426   1.404   4.383
 1601TIP3   OH2 4745   5.302   6.869   3.077
 1601TIP3    H1 4746   5.332   6.826   2.996
 1601TIP3    H2 4747   5.347   6.954   3.076
 1602TIP3   OH2 4748   4.780   0.658   5.035
 1602TIP3    H1 4749   4.719   0.595   5.074
 1602TIP3    H2 4750   4.790   0.629   4.945
 1603TIP3   OH2 4751   0.719   6.238   1.423
 1603TIP3    H1 4752   0.704   6.319   1.374
 1603TIP3    H2 4753   0.676   6.171   1.369
 1604TIP3   OH2 4754   2.428   4.126   2.698
 1604TIP3    H1 4755   2.341   4.163   2.681
 1604TIP3    H2 4756   2.488   4.184   2.651
 1605TIP3   OH2 4757   7.044   7.214   0.173
 1605TIP3    H1 4758   6.963   7.251   0.209
 1605TIP3    H2 4759   7.014   7.151   0.107
 1606TIP3   OH2 4760   3.197   7.297   0.433
 1606TIP3    H1 4761   3.118   7.349   0.446
 1606TIP3    H2 4762   3.224   7.315   0.343
 1607TIP3   OH2 4763   0.843   3.925   4.366
 1607TIP3    H1 4764   0.817   3.978   4.291
 1607TIP3    H2 4765   0.840   3.835   4.333
 1608TIP3   OH2 4766   0.656   0.450   0.291
 1608TIP3    H1 4767   0.670   0.501   0.371
 1608TIP3    H2 4768   0.678   0.361   0.314
 1609TIP3   OH2 4769   4.711   3.773   3.582
 1609TIP3    H1 4770   4.625   3.731   3.576
 1609TIP3    H2 4771   4.731   3.772   3.676
 1610TIP3   OH2 4772   4.129   1.007   3.417
 1610TIP3    H1 4773   4.101   1.045   3.333
 1610TIP3    H2 4774   4.174   0.926   3.392
 1611TIP3   OH2 4775   3.393   3.486   4.286
 1611TIP3    H1 4776   3.363   3.553   4.348
 1611TIP3    H2 4777   3.488   3.490   4.291
 1612TIP3   OH2 4778   1.039   4.560   3.930
 1612TIP3    H1 4779   1.039   4.637   3.873
 1612TIP3    H2 4780   1.128   4.556   3.966
 1613TIP3   OH2 4781   6.646   3.347   5.720
 1613TIP3    H1 4782   6.674   3.256   5.711
 1613TIP3    H2 4783   6.555   3.348   5.691
 1614TIP3   OH2 4784   7.591   2.910   5.431
 1614TIP3    H1 4785   7.640   2.838   5.472
 1614TIP3    H2 4786   7.648   2.986   5.442
 1615TIP3   OH2 4787   4.126   6.084   5.706
 1615TIP3    H1 4788   4.088   6.050   5.787
 1615TIP3    H2 4789   4.101   6.020   5.639
 1616TIP3   OH2 4790   5.895   4.061   5.516
 1616TIP3    H1 4791   5.894   4.143   5.564
 1616TIP3    H2 4792   5.807   4.055   5.478
 1617TIP3   OH2 4793   5.081   5.676   0.619
 1617TIP3    H1 4794   5.019   5.639   0.556
 1617TIP3    H2 4795   5.117   5.753   0.574
 1618TIP3   OH2 4796   7.141   2.390   1.753
 1618TIP3    H1 4797   7.104   2.348   1.831
 1618TIP3    H2 4798   7.100   2.345   1.679
 1619TIP3   OH2 4799   5.866   6.610   3.774
 1619TIP3    H1 4800   5.792   6.552   3.755
 1619TIP3    H2 4801   5.943   6.561   3.745
 1620TIP3   OH2 4802   5.193   0.659   0.539
 1620TIP3    H1 4803   5.161   0.635   0.452
 1620TIP3    H2 4804   5.115   0.678   0.589
 1621TIP3   OH2 4805   5.029   1.690   2.475
 1621TIP3    H1 4806   4.938   1.684   2.448
 1621TIP3    H2 4807   5.027   1.741   2.556
 1622TIP3   OH2 4808   6.531   7.338   3.160
 1622TIP3    H1 4809   6.552   7.273   3.093
 1622TIP3    H2 4810   6.602   7.402   3.156
 1623TIP3   OH2 4811   6.697   2.348   4.385
 1623TIP3    H1 4812   6.702   2.257   4.353
 1623TIP3    H2 4813   6.610   2.378   4.358
 1624TIP3   OH2 4814   0.115   3.869   4.459
 1624TIP3    H1 4815   0.038   3.894   4.408
 1624TIP3    H2 4816   0.082   3.811   4.527
 1625TIP3   OH2 4817   7.437   6.204   0.126
 1625TIP3    H1 4818   7.440   6.284   0.178
 1625TIP3    H2 4819   7.496   6.144   0.172
 1626TIP3   OH2 4820   3.087   6.752   6.349
 1626TIP3    H1 4821   3.158   6.812   6.326
 1626TIP3    H2 4822   3.099   6.677   6.291
 1627TIP3   OH2 4823   5.244   4.752   4.619
 1627TIP3    H1 4824   5.222   4.659   4.627
 1627TIP3    H2 4825   5.164   4.798   4.647
 1628TIP3   OH2 4826   8.058   6.169   3.894
 1628TIP3    H1 4827   8.121   6.130   3.953
 1628TIP3    H2 4828   8.005   6.228   3.949
 1629TIP3   OH2 4829   3.476   7.229   0.470
 1629TIP3    H1 4830   3.381   7.232   0.459
 1629TIP3    H2 4831   3.494   7.142   0.505
 1630TIP3   OH2 4832   1.420   7.561   2.393
 1630TIP3    H1 4833   1.492   7.621   2.371
 1630TIP3    H2 4834   1.389   7.529   2.309
 1631TIP3   OH2 4835   7.670   7.401   0.823
 1631TIP3    H1 4836   7.696   7.461   0.754
 1631TIP3    H2 4837   7.647   7.320   0.778
 1632TIP3   OH2 4838   5.766   3.005   1.227
 1632TIP3    H1 4839   5.743   3.016   1.135
 1632TIP3    H2 4840   5.707   2.937   1.259
 1633TIP3   OH2 4841   2.475   7.182   2.042
 1633TIP3    H1 4842   2.502   7.204   2.131
 1633TIP3    H2 4843   2.549   7.134   2.005
 1634TIP3   OH2 4844   7.591   5.839   2.660
 1634TIP3    H1 4845   7.650   5.781   2.708
 1634TIP3    H2 4846   7.602   5.816   2.568
 1635TIP3   OH2 4847   1.736   7.541   0.918
 1635TIP3    H1 4848   1.647   7.519   0.891
 1635TIP3    H2 4849   1.771   7.459   0.954
 1636TIP3   OH2 4850   5.987   2.182   0.740
 1636TIP3    H1 4851   5.969   2.089   0.733
 1636TIP3    H2 4852   5.903   2.224   0.720
 1637TIP3   OH2 4853   7.853   5.364   1.517
 1637TIP3    H1 4854   7.870   5.337   1.427
 1637TIP3    H2 4855   7.796   5.441   1.509
 1638TIP3   OH2 4856   7.783   1.050   3.470
 1638TIP3    H1 4857   7.785   1.032   3.376
 1638TIP3    H2 4858   7.692   1.071   3.488
 1639TIP3   OH2 4859   0.559   2.123   6.381
 1639TIP3    H1 4860   0.566   2.164   6.467
 1639TIP3    H2 4861   0.511   2.188   6.328
 1640TIP3   OH2 4862   5.653   4.017   0.497
 1640TIP3    H1 4863   5.582   3.953   0.496
 1640TIP3    H2 4864   5.648   4.056   0.585
 1641TIP3   OH2 4865   0.828   1.583   3.986
 1641TIP3    H1 4866   0.897   1.637   4.025
 1641TIP3    H2 4867   0.862   1.494   3.989
 1642TIP3   OH2 4868   6.349   0.868   5.261
 1642TIP3    H1 4869   6.360   0.827   5.347
 1642TIP3    H2 4870   6.437   0.894   5.235
 1643TIP3   OH2 4871   6.143   4.531   5.846
 1643TIP3    H1 4872   6.101   4.463   5.900
 1643TIP3    H2 4873   6.070   4.574   5.801
 1644TIP3   OH2 4874   2.980   3.532   5.309
 1644TIP3    H1 4875   3.017   3.619   5.296
 1644TIP3    H2 4876   2.905   3.546   5.366
 1645TIP3   OH2 4877   3.767   0.069   3.578
 1645TIP3    H1 4878   3.857   0.045   3.555
 1645TIP3    H2 4879   3.735   0.118   3.503
 1646TIP3   OH2 4880   0.720   2.466   3.699
 1646TIP3    H1 4881   0.738   2.557   3.722
 1646TIP3    H2 4882   0.690   2.426   3.780
 1647TIP3   OH2 4883   3.659   7.401   2.056
 1647TIP3    H1 4884   3.669   7.363   2.143
 1647TIP3    H2 4885   3.711   7.481   2.059
 1648TIP3   OH2 4886   7.846   6.090   5.708
 1648TIP3    H1 4887   7.860   6.047   5.624
 1648TIP3    H2 4888   7.934   6.105   5.743
 1649TIP3   OH2 4889   7.199   4.166   1.417
 1649TIP3    H1 4890   7.195   4.174   1.322
 1649TIP3    H2 4891   7.161   4.080   1.435
 1650TIP3   OH2 4892   4.117   0.019   1.257
 1650TIP3    H1 4893   4.055   0.055   1.321
 1650TIP3    H2 4894   4.084  -0.069   1.238
 1651TIP3   OH2 4895   6.999   1.085   3.718
 1651TIP3    H1 4896   7.016   1.038   3.799
 1651TIP3    H2 4897   7.083   1.123   3.693
 1652TIP3   OH2 4898   2.917   0.202   4.811
 1652TIP3    H1 4899   2.908   0.214   4.717
 1652TIP3    H2 4900   2.854   0.263   4.849
 1653TIP3   OH2 4901   3.462   0.381   6.645
 1653TIP3    H1 4902   3.533   0.438   6.674
 1653TIP3    H2 4903   3.431   0.420   6.563
 1654TIP3   OH2 4904   3.513   3.058   4.546
 1654TIP3    H1 4905   3.587   3.099   4.592
 1654TIP3    H2 4906   3.442   3.122   4.554
 1655TIP3   OH2 4907   3.641   4.248   0.144
 1655TIP3    H1 4908   3.574   4.238   0.212
 1655TIP3    H2 4909   3.673   4.338   0.155
 1656TIP3   OH2 4910   2.261   4.890   6.610
 1656TIP3    H1 4911   2.223   4.974   6.633
 1656TIP3    H2 4912   2.294   4.855   6.694
 1657TIP3   OH2 4913   5.043   6.566   1.113
 1657TIP3    H1 4914   5.043   6.622   1.191
 1657TIP3    H2 4915   5.002   6.619   1.045
 1658TIP3   OH2 4916   5.883   4.667   0.911
 1658TIP3    H1 4917   5.959   4.687   0.966
 1658TIP3    H2 4918   5.879   4.739   0.848
 1659TIP3   OH2 4919   0.811   2.391   4.828
 1659TIP3    H1 4920   0.796   2.479   4.862
 1659TIP3    H2 4921   0.752   2.384   4.753
 1660TIP3   OH2 4922   6.308   0.749   1.830
 1660TIP3    H1 4923   6.320   0.819   1.766
 1660TIP3    H2 4924   6.226   0.707   1.804
 1661TIP3   OH2 4925   2.161  -0.013   4.995
 1661TIP3    H1 4926   2.256  -0.023   4.988
 1661TIP3    H2 4927   2.148   0.033   5.079
 1662TIP3   OH2 4928   6.122   5.666   0.246
 1662TIP3    H1 4929   6.143   5.712   0.328
 1662TIP3    H2 4930   6.057   5.722   0.204
 1663TIP3   OH2 4931   3.173   2.721   2.438
 1663TIP3    H1 4932   3.123   2.658   2.491
 1663TIP3    H2 4933   3.226   2.768   2.502
 1664TIP3   OH2 4934   2.911   2.568   1.759
 1664TIP3    H1 4935   2.864   2.645   1.727
 1664TIP3    H2 4936   2.980   2.553   1.695
 1665TIP3   OH2 4937   2.210   0.210   2.575
 1665TIP3    H1 4938   2.291   0.256   2.556
 1665TIP3    H2 4939   2.170   0.260   2.646
 1666TIP3   OH2 4940   6.135   3.563   1.567
 1666TIP3    H1 4941   6.086   3.580   1.486
 1666TIP3    H2 4942   6.077   3.592   1.637
 1667TIP3   OH2 4943   6.603   5.371   0.642
 1667TIP3    H1 4944   6.588   5.294   0.697
 1667TIP3    H2 4945   6.679   5.414   0.681
 1668TIP3   OH2 4946   3.433   0.157   6.273
 1668TIP3    H1 4947   3.420   0.240   6.318
 1668TIP3    H2 4948   3.519   0.127   6.302
 1669TIP3   OH2 4949   1.329   4.050   0.395
 1669TIP3    H1 4950   1.248   4.013   0.358
 1669TIP3    H2 4951   1.301   4.130   0.439
 1670TIP3   OH2 4952   7.313   7.272   3.701
 1670TIP3    H1 4953   7.271   7.352   3.669
 1670TIP3    H2 4954   7.245   7.230   3.754
 1671TIP3   OH2 4955   4.620   6.450   4.874
 1671TIP3    H1 4956   4.690   6.409   4.822
 1671TIP3    H2 4957   4.553   6.472   4.809
 1672TIP3   OH2 4958   3.919   0.809   0.714
 1672TIP3    H1 4959   3.883   0.893   0.742
 1672TIP3    H2 4960   3.936   0.761   0.795
 1673TIP3   OH2 4961   1.002   2.205   3.546
 1673TIP3    H1 4962   1.029   2.113   3.553
 1673TIP3    H2 4963   0.950   2.208   3.466
 1674TIP3   OH2 4964   3.078   3.110   1.902
 1674TIP3    H1 4965   3.055   3.073   1.817
 1674TIP3    H2 4966   3.045   3.046   1.966
 1675TIP3   OH2 4967   3.901   6.661   3.223
 1675TIP3    H1 4968   3.960   6.724   3.265
 1675TIP3    H2 4969   3.874   6.603   3.294
 1676TIP3   OH2 4970   7.177   3.653   0.815
 1676TIP3    H1 4971   7.119   3.725   0.790
 1676TIP3    H2 4972   7.262   3.676   0.776
 1677TIP3   OH2 4973   7.163   7.619   5.604
 1677TIP3    H1 4974   7.232   7.573   5.651
 1677TIP3    H2 4975   7.108   7.550   5.567
 1678TIP3   OH2 4976   3.378   2.167   4.649
 1678TIP3    H1 4977   3.320   2.177   4.574
 1678TIP3    H2 4978   3.320   2.167   4.725
 1679TIP3   OH2 4979   0.341   6.576   6.794
 1679TIP3    H1 4980   0.356   6.491   6.753
 1679TIP3    H2 4981   0.331   6.637   6.722
 1680TIP3   OH2 4982   2.957   1.812   6.025
 1680TIP3    H1 4983   3.001   1.795   5.941
 1680TIP3    H2 4984   2.920   1.728   6.050
 1681TIP3   OH2 4985   2.585   3.029   0.886
 1681TIP3    H1 4986   2.585   3.101   0.949
 1681TIP3    H2 4987   2.675   2.996   0.888
 1682TIP3   OH2 4988   6.928   5.271   4.616
 1682TIP3    H1 4989   6.888   5.201   4.564
 1682TIP3    H2 4990   6.863   5.341   4.616
 1683TIP3   OH2 4991   0.578   3.932   5.355
 1683TIP3    H1 4992   0.506   3.890   5.402
 1683TIP3    H2 4993   0.553   4.024   5.350
 1684TIP3   OH2 4994   6.961   4.224   0.878
 1684TIP3    H1 4995   6.984   4.173   0.956
 1684TIP3    H2 4996   6.869   4.203   0.862
 1685TIP3   OH2 4997   7.834   4.144   2.419
 1685TIP3    H1 4998   7.782   4.223   2.436
 1685TIP3    H2 4999   7.833   4.097   2.502
 1686TIP3   OH2 5000   1.136   0.182   4.721
 1686TIP3    H1 5001   1.113   0.098   4.761
 1686TIP3    H2 5002   1.203   0.218   4.779
 1687TIP3   OH2 5003   7.715   0.756   3.448
 1687TIP3    H1 5004   7.732   0.847   3.425
 1687TIP3    H2 5005   7.652   0.726   3.383
 1688TIP3   OH2 5006   6.120   5.400   0.636
 1688TIP3    H1 5007   6.149   5.475   0.686
 1688TIP3    H2 5008   6.194   5.339   0.639
 1689TIP3   OH2 5009   4.838   5.209   5.216
 1689TIP3    H1 5010   4.774   5.155   5.262
 1689TIP3    H2 5011   4.796   5.231   5.133
 1690TIP3   OH2 5012   6.916   0.610   2.472
 1690TIP3    H1 5013   6.854   0.677   2.443
 1690TIP3    H2 5014   6.897   0.533   2.418
 1691TIP3   OH2 5015   0.823   5.225   1.004
 1691TIP3    H1 5016   0.741   5.264   0.972
 1691TIP3    H2 5017   0.805   5.203   1.095
 1692TIP3   OH2 5018   0.864   3.806   1.398
 1692TIP3    H1 5019   0.830   3.890   1.427
 1692TIP3    H2 5020   0.787   3.758   1.368
 1693TIP3   OH2 5021   6.852   2.397   0.372
 1693TIP3    H1 5022   6.924   2.339   0.395
 1693TIP3    H2 5023   6.872   2.480   0.416
 1694TIP3   OH2 5024   3.898   2.089   5.740
 1694TIP3    H1 5025   3.937   2.042   5.666
 1694TIP3    H2 5026   3.911   2.031   5.815
 1695TIP3   OH2 5027   2.748   4.841   5.840
 1695TIP3    H1 5028   2.712   4.799   5.762
 1695TIP3    H2 5029   2.673   4.849   5.900
 1696TIP3   OH2 5030   4.342   4.581   4.463
 1696TIP3    H1 5031   4.316   4.489   4.453
 1696TIP3    H2 5032   4.438   4.579   4.461
 1697TIP3   OH2 5033   7.634   7.323   0.434
 1697TIP3    H1 5034   7.538   7.324   0.430
 1697TIP3    H2 5035   7.657   7.401   0.484
 1698TIP3   OH2 5036   2.255   4.861   2.762
 1698TIP3    H1 5037   2.188   4.888   2.698
 1698TIP3    H2 5038   2.337   4.867   2.714
 1699TIP3   OH2 5039   5.123   6.729   1.636
 1699TIP3    H1 5040   5.051   6.791   1.646
 1699TIP3    H2 5041   5.126   6.710   1.543
 1700TIP3   OH2 5042   5.887   5.383   6.598
 1700TIP3    H1 5043   5.973   5.346   6.578
 1700TIP3    H2 5044   5.837   5.310   6.634
 1701TIP3   OH2 5045   5.931   2.989   4.108
 1701TIP3    H1 5046   5.903   2.948   4.190
 1701TIP3    H2 5047   5.972   3.071   4.135
 1702TIP3   OH2 5048   6.071   4.214   4.456
 1702TIP3    H1 5049   5.993   4.233   4.508
 1702TIP3    H2 5050   6.038   4.166   4.380
 1703TIP3   OH2 5051   7.483   6.937   6.562
 1703TIP3    H1 5052   7.435   6.868   6.609
 1703TIP3    H2 5053   7.529   6.891   6.492
 1704TIP3   OH2 5054   2.877   5.637   6.411
 1704TIP3    H1 5055   2.797   5.640   6.359
 1704TIP3    H2 5056   2.918   5.722   6.396
 1705TIP3   OH2 5057   5.930   0.103   1.455
 1705TIP3    H1 5058   5.871   0.029   1.437
 1705TIP3    H2 5059   5.990   0.104   1.381
 1706TIP3   OH2 5060   0.668   2.136   3.739
 1706TIP3    H1 5061   0.647   2.052   3.780
 1706TIP3    H2 5062   0.753   2.160   3.776
 1707TIP3   OH2 5063   5.685   2.740   6.092
 1707TIP3    H1 5064   5.615   2.718   6.032
 1707TIP3    H2 5065   5.643   2.794   6.159
 1708TIP3   OH2 5066   1.326   1.318   0.362
 1708TIP3    H1 5067   1.297   1.328   0.453
 1708TIP3    H2 5068   1.315   1.225   0.343
 1709TIP3   OH2 5069   4.202   7.424   6.109
 1709TIP3    H1 5070   4.152   7.476   6.045
 1709TIP3    H2 5071   4.205   7.336   6.072
 1710TIP3   OH2 5072   1.971   7.343   4.458
 1710TIP3    H1 5073   1.909   7.407   4.422
 1710TIP3    H2 5074   1.936   7.321   4.544
 1711TIP3   OH2 5075   5.911   7.642   5.261
 1711TIP3    H1 5076   5.962   7.660   5.181
 1711TIP3    H2 5077   5.930   7.716   5.318
 1712TIP3   OH2 5078   1.450   7.803   5.236
 1712TIP3    H1 5079   1.506   7.752   5.177
 1712TIP3    H2 5080   1.512   7.847   5.295
 1713TIP3   OH2 5081   3.685   0.505   2.426
 1713TIP3    H1 5082   3.681   0.507   2.522
 1713TIP3    H2 5083   3.622   0.571   2.398
 1714TIP3   OH2 5084   6.507   0.410   1.405
 1714TIP3    H1 5085   6.427   0.449   1.368
 1714TIP3    H2 5086   6.495   0.316   1.394
 1715TIP3   OH2 5087   4.566   3.501   3.073
 1715TIP3    H1 5088   4.629   3.433   3.096
 1715TIP3    H2 5089   4.537   3.537   3.157
 1716TIP3   OH2 5090   5.866   0.638   6.146
 1716TIP3    H1 5091   5.852   0.590   6.064
 1716TIP3    H2 5092   5.868   0.730   6.119
 1717TIP3   OH2 5093   2.217   2.451   3.345
 1717TIP3    H1 5094   2.266   2.532   3.327
 1717TIP3    H2 5095   2.175   2.430   3.262
 1718TIP3   OH2 5096   1.643   7.804   2.749
 1718TIP3    H1 5097   1.585   7.851   2.809
 1718TIP3    H2 5098   1.714   7.772   2.805
 1719TIP3   OH2 5099   0.858   0.342   0.918
 1719TIP3    H1 5100   0.800   0.393   0.862
 1719TIP3    H2 5101   0.943   0.387   0.911
 1720TIP3   OH2 5102   1.477   5.356   3.697
 1720TIP3    H1 5103   1.513   5.406   3.771
 1720TIP3    H2 5104   1.393   5.398   3.679
 1721TIP3   OH2 5105   2.381   5.499   3.932
 1721TIP3    H1 5106   2.355   5.511   4.024
 1721TIP3    H2 5107   2.388   5.404   3.921
 1722TIP3   OH2 5108   2.809   6.364   6.634
 1722TIP3    H1 5109   2.790   6.319   6.716
 1722TIP3    H2 5110   2.896   6.334   6.609
 1723TIP3   OH2 5111   1.532   2.105   3.575
 1723TIP3    H1 5112   1.440   2.110   3.600
 1723TIP3    H2 5113   1.547   2.184   3.523
 1724TIP3   OH2 5114   0.311   1.231   3.487
 1724TIP3    H1 5115   0.296   1.279   3.406
 1724TIP3    H2 5116   0.348   1.147   3.459
 1725TIP3   OH2 5117   7.225   3.208   2.277
 1725TIP3    H1 5118   7.256   3.297   2.294
 1725TIP3    H2 5119   7.227   3.165   2.363
 1726TIP3   OH2 5120   3.012   7.675   5.194
 1726TIP3    H1 5121   3.075   7.633   5.253
 1726TIP3    H2 5122   2.928   7.668   5.240
 1727TIP3   OH2 5123   1.804   3.461   3.581
 1727TIP3    H1 5124   1.773   3.398   3.515
 1727TIP3    H2 5125   1.899   3.455   3.577
 1728TIP3   OH2 5126   7.331   1.941   5.528
 1728TIP3    H1 5127   7.362   2.032   5.528
 1728TIP3    H2 5128   7.366   1.904   5.609
 1729TIP3   OH2 5129   5.473   0.817   2.332
 1729TIP3    H1 5130   5.467   0.788   2.423
 1729TIP3    H2 5131   5.433   0.747   2.281
 1730TIP3   OH2 5132   4.519   0.850   3.982
 1730TIP3    H1 5133   4.502   0.935   4.022
 1730TIP3    H2 5134   4.437   0.827   3.938
 1731TIP3   OH2 5135   8.257   1.600   4.715
 1731TIP3    H1 5136   8.313   1.656   4.660
 1731TIP3    H2 5137   8.319   1.556   4.773
 1732TIP3   OH2 5138   6.939   3.501   4.387
 1732TIP3    H1 5139   6.925   3.550   4.306
 1732TIP3    H2 5140   7.034   3.501   4.398
 1733TIP3   OH2 5141   2.057   4.418   3.179
 1733TIP3    H1 5142   2.112   4.356   3.131
 1733TIP3    H2 5143   1.969   4.403   3.146
 1734TIP3   OH2 5144   7.293   4.118  -0.021
 1734TIP3    H1 5145   7.353   4.189  -0.044
 1734TIP3    H2 5146   7.348   4.054   0.024
 1735TIP3   OH2 5147   5.373   6.592   1.503
 1735TIP3    H1 5148   5.454   6.597   1.452
 1735TIP3    H2 5149   5.341   6.682   1.506
 1736TIP3   OH2 5150   4.979   5.058   2.546
 1736TIP3    H1 5151   5.011   5.099   2.626
 1736TIP3    H2 5152   4.884   5.060   2.554
 1737TIP3   OH2 5153   7.873   7.441   5.533
 1737TIP3    H1 5154   7.857   7.472   5.443
 1737TIP3    H2 5155   7.856   7.518   5.588
 1738TIP3   OH2 5156   1.717   3.274   5.941
 1738TIP3    H1 5157   1.634   3.282   5.989
 1738TIP3    H2 5158   1.721   3.183   5.914
 1739TIP3   OH2 5159   6.132   0.860   2.097
 1739TIP3    H1 5160   6.126   0.766   2.118
 1739TIP3    H2 5161   6.107   0.866   2.005
 1740TIP3   OH2 5162   1.460   6.958   5.565
 1740TIP3    H1 5163   1.449   6.911   5.648
 1740TIP3    H2 5164   1.464   7.050   5.590
 1741TIP3   OH2 5165   5.301   6.496   3.904
 1741TIP3    H1 5166   5.251   6.577   3.897
 1741TIP3    H2 5167   5.250   6.431   3.856
 1742TIP3   OH2 5168   1.187   6.887   5.463
 1742TIP3    H1 5169   1.271   6.881   5.509
 1742TIP3    H2 5170   1.202   6.954   5.396
 1743TIP3   OH2 5171   0.503   5.388   4.372
 1743TIP3    H1 5172   0.483   5.311   4.424
 1743TIP3    H2 5173   0.418   5.421   4.344
 1744TIP3   OH2 5174   7.041   0.632   5.441
 1744TIP3    H1 5175   6.984   0.615   5.365
 1744TIP3    H2 5176   7.106   0.562   5.438
 1745TIP3   OH2 5177   5.113   0.924   5.032
 1745TIP3    H1 5178   5.168   0.987   4.984
 1745TIP3    H2 5179   5.092   0.969   5.114
 1746TIP3   OH2 5180   1.346   1.289   6.600
 1746TIP3    H1 5181   1.439   1.271   6.589
 1746TIP3    H2 5182   1.325   1.258   6.689
 1747TIP3   OH2 5183   1.273   2.276   0.205
 1747TIP3    H1 5184   1.220   2.273   0.125
 1747TIP3    H2 5185   1.221   2.228   0.270
 1748TIP3   OH2 5186   7.995   0.378   0.054
 1748TIP3    H1 5187   8.063   0.386  -0.013
 1748TIP3    H2 5188   8.011   0.292   0.094
 1749TIP3   OH2 5189   2.637   3.774   4.544
 1749TIP3    H1 5190   2.702   3.775   4.614
 1749TIP3    H2 5191   2.591   3.691   4.555
 1750TIP3   OH2 5192   3.194   7.506   2.216
 1750TIP3    H1 5193   3.255   7.436   2.192
 1750TIP3    H2 5194   3.230   7.585   2.176
 1751TIP3   OH2 5195   5.016   0.641   4.468
 1751TIP3    H1 5196   5.105   0.674   4.484
 1751TIP3    H2 5197   4.963   0.681   4.537
 1752TIP3   OH2 5198   8.206   5.992   2.456
 1752TIP3    H1 5199   8.223   5.977   2.363
 1752TIP3    H2 5200   8.275   6.052   2.484
 1753TIP3   OH2 5201   5.591   6.186   2.193
 1753TIP3    H1 5202   5.614   6.206   2.102
 1753TIP3    H2 5203   5.626   6.098   2.208
 1754TIP3   OH2 5204   5.313   7.496   1.213
 1754TIP3    H1 5205   5.241   7.547   1.175
 1754TIP3    H2 5206   5.391   7.528   1.169
 1755TIP3   OH2 5207   4.725   4.605   2.054
 1755TIP3    H1 5208   4.722   4.510   2.065
 1755TIP3    H2 5209   4.636   4.628   2.028
 1756TIP3   OH2 5210   6.717   1.086   2.644
 1756TIP3    H1 5211   6.671   1.136   2.711
 1756TIP3    H2 5212   6.724   1.146   2.570
 1757TIP3   OH2 5213   2.476   6.184   0.848
 1757TIP3    H1 5214   2.546   6.198   0.912
 1757TIP3    H2 5215   2.396   6.186   0.900
 1758TIP3   OH2 5216   2.429   3.220   5.616
 1758TIP3    H1 5217   2.505   3.240   5.561
 1758TIP3    H2 5218   2.461   3.155   5.679
 1759TIP3   OH2 5219   1.842   5.855   0.927
 1759TIP3    H1 5220   1.918   5.805   0.956
 1759TIP3    H2 5221   1.785   5.859   1.004
 1760TIP3   OH2 5222   5.047   7.025   6.372
 1760TIP3    H1 5223   4.985   7.031   6.299
 1760TIP3    H2 5224   5.085   6.937   6.365
 1761TIP3   OH2 5225   5.027   7.784   6.605
 1761TIP3    H1 5226   5.046   7.694   6.632
 1761TIP3    H2 5227   4.945   7.806   6.650
 1762TIP3   OH2 5228   7.811   5.358   3.246
 1762TIP3    H1 5229   7.781   5.445   3.276
 1762TIP3    H2 5230   7.876   5.377   3.179
 1763TIP3   OH2 5231   4.993   5.064   2.145
 1763TIP3    H1 5232   5.082   5.041   2.171
 1763TIP3    H2 5233   4.949   4.980   2.132
 1764TIP3   OH2 5234   5.777   2.488   4.128
 1764TIP3    H1 5235   5.826   2.465   4.207
 1764TIP3    H2 5236   5.707   2.546   4.158
 1765TIP3   OH2 5237   5.934   2.509   3.873
 1765TIP3    H1 5238   5.903   2.596   3.898
 1765TIP3    H2 5239   5.876   2.448   3.918
 1766TIP3   OH2 5240   5.244   6.402   2.827
 1766TIP3    H1 5241   5.286   6.320   2.801
 1766TIP3    H2 5242   5.257   6.407   2.922
 1767TIP3   OH2 5243   5.205   2.727   3.617
 1767TIP3    H1 5244   5.279   2.688   3.665
 1767TIP3    H2 5245   5.163   2.653   3.573
 1768TIP3   OH2 5246   5.709   7.215   1.886
 1768TIP3    H1 5247   5.635   7.257   1.840
 1768TIP3    H2 5248   5.783   7.274   1.871
 1769TIP3   OH2 5249   2.186   7.286   0.677
 1769TIP3    H1 5250   2.167   7.301   0.584
 1769TIP3    H2 5251   2.232   7.364   0.706
 1770TIP3   OH2 5252   5.063   0.745   6.332
 1770TIP3    H1 5253   5.046   0.837   6.352
 1770TIP3    H2 5254   5.158   0.739   6.322
 1771TIP3   OH2 5255   3.710   1.686   4.242
 1771TIP3    H1 5256   3.793   1.638   4.235
 1771TIP3    H2 5257   3.674   1.684   4.153
 1772TIP3   OH2 5258   5.210   1.127   4.162
 1772TIP3    H1 5259   5.224   1.177   4.242
 1772TIP3    H2 5260   5.188   1.039   4.193
 1773TIP3   OH2 5261   3.648   4.420   3.910
 1773TIP3    H1 5262   3.609   4.456   3.990
 1773TIP3    H2 5263   3.585   4.440   3.841
 1774TIP3   OH2 5264   4.040   2.788   5.966
 1774TIP3    H1 5265   4.007   2.721   6.026
 1774TIP3    H2 5266   4.040   2.746   5.880
 1775TIP3   OH2 5267   5.648   2.066   6.182
 1775TIP3    H1 5268   5.710   1.993   6.183
 1775TIP3    H2 5269   5.686   2.129   6.121
 1776TIP3   OH2 5270   4.006   6.222   4.186
 1776TIP3    H1 5271   3.913   6.247   4.189
 1776TIP3    H2 5272   4.009   6.149   4.124
 1777TIP3   OH2 5273   4.555   3.129   0.815
 1777TIP3    H1 5274   4.628   3.068   0.829
 1777TIP3    H2 5275   4.562   3.192   0.886
 1778TIP3   OH2 5276   0.019   1.269   6.586
 1778TIP3    H1 5277   0.058   1.326   6.519
 1778TIP3    H2 5278  -0.040   1.326   6.635
 1779TIP3   OH2 5279   2.272   2.949   0.465
 1779TIP3    H1 5280   2.315   2.913   0.388
 1779TIP3    H2 5281   2.344   2.982   0.519
 1780TIP3   OH2 5282   3.409   2.889   1.532
 1780TIP3    H1 5283   3.371   2.962   1.581
 1780TIP3    H2 5284   3.491   2.923   1.497
 1781TIP3   OH2 5285   8.295   4.294   4.871
 1781TIP3    H1 5286   8.373   4.285   4.816
 1781TIP3    H2 5287   8.271   4.204   4.894
 1782TIP3   OH2 5288   0.454   2.477   0.199
 1782TIP3    H1 5289   0.511   2.418   0.150
 1782TIP3    H2 5290   0.369   2.469   0.156
 1783TIP3   OH2 5291   1.268   4.330   0.140
 1783TIP3    H1 5292   1.206   4.332   0.213
 1783TIP3    H2 5293   1.213   4.322   0.062
 1784TIP3   OH2 5294   4.594   5.201   2.157
 1784TIP3    H1 5295   4.662   5.268   2.144
 1784TIP3    H2 5296   4.537   5.237   2.224
 1785TIP3   OH2 5297   6.293   2.939   6.279
 1785TIP3    H1 5298   6.376   2.947   6.232
 1785TIP3    H2 5299   6.250   2.863   6.240
 1786TIP3   OH2 5300   3.280   1.586   5.810
 1786TIP3    H1 5301   3.278   1.627   5.897
 1786TIP3    H2 5302   3.191   1.553   5.798
 1787TIP3   OH2 5303   2.063   4.697   0.761
 1787TIP3    H1 5304   2.027   4.754   0.828
 1787TIP3    H2 5305   1.993   4.688   0.696
 1788TIP3   OH2 5306   7.563   1.659   3.817
 1788TIP3    H1 5307   7.590   1.747   3.842
 1788TIP3    H2 5308   7.617   1.601   3.871
 1789TIP3   OH2 5309   3.139   4.574   6.294
 1789TIP3    H1 5310   3.187   4.630   6.355
 1789TIP3    H2 5311   3.068   4.536   6.346
 1790TIP3   OH2 5312   1.368   2.843   0.285
 1790TIP3    H1 5313   1.293   2.800   0.246
 1790TIP3    H2 5314   1.387   2.916   0.226
 1791TIP3   OH2 5315   1.692   4.697   2.949
 1791TIP3    H1 5316   1.701   4.724   2.857
 1791TIP3    H2 5317   1.638   4.765   2.988
 1792TIP3   OH2 5318   1.965   3.531   3.361
 1792TIP3    H1 5319   2.026   3.574   3.421
 1792TIP3    H2 5320   2.007   3.540   3.275
 1793TIP3   OH2 5321   4.224   6.511   5.883
 1793TIP3    H1 5322   4.311   6.539   5.912
 1793TIP3    H2 5323   4.171   6.508   5.962
 1794TIP3   OH2 5324   1.670   2.469   5.918
 1794TIP3    H1 5325   1.720   2.551   5.921
 1794TIP3    H2 5326   1.615   2.477   5.840
 1795TIP3   OH2 5327   0.460   5.775   4.453
 1795TIP3    H1 5328   0.474   5.863   4.487
 1795TIP3    H2 5329   0.371   5.753   4.479
 1796TIP3   OH2 5330   3.954   1.255   4.576
 1796TIP3    H1 5331   3.912   1.327   4.530
 1796TIP3    H2 5332   3.914   1.176   4.540
 1797TIP3   OH2 5333   1.107   1.065   4.859
 1797TIP3    H1 5334   1.083   1.072   4.951
 1797TIP3    H2 5335   1.034   1.107   4.812
 1798TIP3   OH2 5336   7.731   6.673   5.938
 1798TIP3    H1 5337   7.797   6.627   5.989
 1798TIP3    H2 5338   7.779   6.742   5.892
 1799TIP3   OH2 5339   5.816   2.113   4.919
 1799TIP3    H1 5340   5.810   2.018   4.908
 1799TIP3    H2 5341   5.801   2.127   5.013
 1800TIP3   OH2 5342   5.183   4.633   6.486
 1800TIP3    H1 5343   5.186   4.699   6.556
 1800TIP3    H2 5344   5.183   4.684   6.405
 1801TIP3   OH2 5345   7.922   3.048   0.855
 1801TIP3    H1 5346   7.873   3.026   0.775
 1801TIP3    H2 5347   7.862   3.103   0.905
 1802TIP3   OH2 5348   2.682   6.857   1.470
 1802TIP3    H1 5349   2.594   6.840   1.438
 1802TIP3    H2 5350   2.726   6.772   1.467
 1803TIP3   OH2 5351   6.309   2.008   0.400
 1803TIP3    H1 5352   6.290   2.041   0.487
 1803TIP3    H2 5353   6.236   2.039   0.346
 1804TIP3   OH2 5354   0.974   5.861   3.771
 1804TIP3    H1 5355   0.916   5.855   3.695
 1804TIP3    H2 5356   1.046   5.916   3.741
 1805TIP3   OH2 5357   5.584   1.453   2.858
 1805TIP3    H1 5358   5.679   1.462   2.867
 1805TIP3    H2 5359   5.567   1.476   2.767
 1806TIP3   OH2 5360   7.178   6.713   1.207
 1806TIP3    H1 5361   7.107   6.650   1.195
 1806TIP3    H2 5362   7.258   6.663   1.190
 1807TIP3   OH2 5363   5.928   3.165   0.321
 1807TIP3    H1 5364   5.877   3.087   0.298
 1807TIP3    H2 5365   5.983   3.137   0.394
 1808TIP3   OH2 5366   2.484   3.898   1.610
 1808TIP3    H1 5367   2.494   3.871   1.702
 1808TIP3    H2 5368   2.573   3.912   1.579
 1809TIP3   OH2 5369   8.176   5.154   4.660
 1809TIP3    H1 5370   8.110   5.213   4.623
 1809TIP3    H2 5371   8.172   5.169   4.754
 1810TIP3   OH2 5372   7.738   1.937   4.345
 1810TIP3    H1 5373   7.662   1.964   4.294
 1810TIP3    H2 5374   7.703   1.882   4.415
 1811TIP3   OH2 5375   5.804   6.874   3.802
 1811TIP3    H1 5376   5.822   6.788   3.840
 1811TIP3    H2 5377   5.862   6.879   3.726
 1812TIP3   OH2 5378   3.773   2.460   0.355
 1812TIP3    H1 5379   3.867   2.453   0.369
 1812TIP3    H2 5380   3.764   2.495   0.266
 1813TIP3   OH2 5381   0.925   6.374   1.808
 1813TIP3    H1 5382   0.983   6.419   1.870
 1813TIP3    H2 5383   0.879   6.444   1.762
 1814TIP3   OH2 5384   4.078   6.344   2.383
 1814TIP3    H1 5385   4.130   6.423   2.398
 1814TIP3    H2 5386   4.053   6.315   2.471
 1815TIP3   OH2 5387   0.163   1.749   3.343
 1815TIP3    H1 5388   0.090   1.779   3.288
 1815TIP3    H2 5389   0.185   1.663   3.308
 1816TIP3   OH2 5390   1.918   0.732   5.436
 1816TIP3    H1 5391   1.870   0.787   5.498
 1816TIP3    H2 5392   1.857   0.717   5.364
 1817TIP3   OH2 5393   4.536   2.880   2.153
 1817TIP3    H1 5394   4.528   2.793   2.193
 1817TIP3    H2 5395   4.475   2.878   2.079
 1818TIP3   OH2 5396   6.970   5.838   2.666
 1818TIP3    H1 5397   6.994   5.833   2.574
 1818TIP3    H2 5398   6.884   5.797   2.671
 1819TIP3   OH2 5399   2.723   5.558   5.300
 1819TIP3    H1 5400   2.809   5.597   5.315
 1819TIP3    H2 5401   2.661   5.624   5.333
 1820TIP3   OH2 5402   1.876   7.703   5.594
 1820TIP3    H1 5403   1.935   7.778   5.582
 1820TIP3    H2 5404   1.893   7.674   5.684
 1821TIP3   OH2 5405   1.666   1.697   3.052
 1821TIP3    H1 5406   1.572   1.708   3.066
 1821TIP3    H2 5407   1.697   1.653   3.132
 1822TIP3   OH2 5408   4.883   4.691   6.644
 1822TIP3    H1 5409   4.909   4.736   6.564
 1822TIP3    H2 5410   4.965   4.670   6.688
 1823TIP3   OH2 5411   1.789   0.998   2.410
 1823TIP3    H1 5412   1.859   0.948   2.450
 1823TIP3    H2 5413   1.814   1.089   2.422
 1824TIP3   OH2 5414   2.989   6.159   1.345
 1824TIP3    H1 5415   2.954   6.199   1.424
 1824TIP3    H2 5416   3.001   6.066   1.368
 1825TIP3   OH2 5417   6.739   5.188   0.289
 1825TIP3    H1 5418   6.683   5.168   0.364
 1825TIP3    H2 5419   6.740   5.284   0.285
 1826TIP3   OH2 5420   1.691   7.183   4.584
 1826TIP3    H1 5421   1.723   7.095   4.603
 1826TIP3    H2 5422   1.672   7.221   4.669
 1827TIP3   OH2 5423   3.169   5.980   4.287
 1827TIP3    H1 5424   3.084   5.938   4.296
 1827TIP3    H2 5425   3.155   6.071   4.315
 1828TIP3   OH2 5426   4.675   7.614   5.241
 1828TIP3    H1 5427   4.714   7.612   5.154
 1828TIP3    H2 5428   4.601   7.554   5.235
 1829TIP3   OH2 5429   2.384   0.696   4.517
 1829TIP3    H1 5430   2.357   0.763   4.454
 1829TIP3    H2 5431   2.359   0.614   4.475
 1830TIP3   OH2 5432   1.825   4.462   3.014
 1830TIP3    H1 5433   1.756   4.408   3.051
 1830TIP3    H2 5434   1.783   4.546   2.996
 1831TIP3   OH2 5435   6.690   2.710   3.500
 1831TIP3    H1 5436   6.685   2.772   3.427
 1831TIP3    H2 5437   6.613   2.654   3.490
 1832TIP3   OH2 5438   2.706   5.093   6.430
 1832TIP3    H1 5439   2.693   5.031   6.358
 1832TIP3    H2 5440   2.796   5.123   6.420
 1833TIP3   OH2 5441   0.446   7.480   5.909
 1833TIP3    H1 5442   0.397   7.400   5.928
 1833TIP3    H2 5443   0.447   7.528   5.992
 1834TIP3   OH2 5444   4.186   7.028   6.465
 1834TIP3    H1 5445   4.118   7.052   6.529
 1834TIP3    H2 5446   4.200   7.108   6.415
 1835TIP3   OH2 5447   4.095   4.083   3.838
 1835TIP3    H1 5448   4.025   4.096   3.901
 1835TIP3    H2 5449   4.118   4.171   3.808
 1836TIP3   OH2 5450   3.664   5.455   3.247
 1836TIP3    H1 5451   3.733   5.511   3.211
 1836TIP3    H2 5452   3.711   5.391   3.300
 1837TIP3   OH2 5453   2.122   1.622   2.568
 1837TIP3    H1 5454   2.189   1.672   2.615
 1837TIP3    H2 5455   2.171   1.571   2.503
 1838TIP3   OH2 5456   2.734   7.480   4.285
 1838TIP3    H1 5457   2.808   7.426   4.259
 1838TIP3    H2 5458   2.671   7.419   4.324
 1839TIP3   OH2 5459   2.568   0.839   6.163
 1839TIP3    H1 5460   2.539   0.823   6.073
 1839TIP3    H2 5461   2.590   0.752   6.196
 1840TIP3   OH2 5462   2.119   6.377   3.096
 1840TIP3    H1 5463   2.060   6.433   3.147
 1840TIP3    H2 5464   2.069   6.355   3.017
 1841TIP3   OH2 5465   2.036   7.514   0.789
 1841TIP3    H1 5466   2.084   7.597   0.798
 1841TIP3    H2 5467   1.956   7.537   0.742
 1842TIP3   OH2 5468   8.062   5.571   6.050
 1842TIP3    H1 5469   8.141   5.623   6.066
 1842TIP3    H2 5470   8.058   5.511   6.124
 1843TIP3   OH2 5471   5.492   1.183   3.284
 1843TIP3    H1 5472   5.499   1.153   3.374
 1843TIP3    H2 5473   5.436   1.119   3.241
 1844TIP3   OH2 5474   1.177   5.785   1.154
 1844TIP3    H1 5475   1.132   5.854   1.104
 1844TIP3    H2 5476   1.107   5.725   1.180
 1845TIP3   OH2 5477   4.638   7.231   1.856
 1845TIP3    H1 5478   4.679   7.288   1.791
 1845TIP3    H2 5479   4.580   7.175   1.805
 1846TIP3   OH2 5480   7.725   4.581   3.285
 1846TIP3    H1 5481   7.797   4.639   3.307
 1846TIP3    H2 5482   7.653   4.609   3.343
 1847TIP3   OH2 5483   7.864   2.794   1.924
 1847TIP3    H1 5484   7.877   2.831   2.011
 1847TIP3    H2 5485   7.867   2.869   1.865
 1848TIP3   OH2 5486   0.365   6.037   3.784
 1848TIP3    H1 5487   0.346   6.063   3.694
 1848TIP3    H2 5488   0.316   6.098   3.838
 1849TIP3   OH2 5489   3.461   4.937   1.325
 1849TIP3    H1 5490   3.464   4.841   1.320
 1849TIP3    H2 5491   3.485   4.966   1.237
 1850TIP3   OH2 5492   5.217   5.112   3.332
 1850TIP3    H1 5493   5.272   5.190   3.324
 1850TIP3    H2 5494   5.230   5.082   3.422
 1851TIP3   OH2 5495   7.361   6.834   3.815
 1851TIP3    H1 5496   7.453   6.830   3.789
 1851TIP3    H2 5497   7.351   6.919   3.856
 1852TIP3   OH2 5498   8.080   6.558   3.604
 1852TIP3    H1 5499   8.053   6.473   3.570
 1852TIP3    H2 5500   8.068   6.618   3.531
 1853TIP3   OH2 5501   1.538   3.068   3.684
 1853TIP3    H1 5502   1.451   3.029   3.691
 1853TIP3    H2 5503   1.526   3.160   3.707
 1854TIP3   OH2 5504   6.297   7.203   1.248
 1854TIP3    H1 5505   6.261   7.267   1.309
 1854TIP3    H2 5506   6.298   7.248   1.164
 1855TIP3   OH2 5507   0.574   5.336   0.957
 1855TIP3    H1 5508   0.527   5.264   0.914
 1855TIP3    H2 5509   0.525   5.414   0.933
 1856TIP3   OH2 5510   4.583   0.424   2.018
 1856TIP3    H1 5511   4.604   0.391   1.930
 1856TIP3    H2 5512   4.556   0.347   2.067
 1857TIP3   OH2 5513   0.021   2.390   6.429
 1857TIP3    H1 5514  -0.024   2.359   6.507
 1857TIP3    H2 5515   0.034   2.312   6.376
 1858TIP3   OH2 5516   6.820   1.805   6.063
 1858TIP3    H1 5517   6.905   1.761   6.056
 1858TIP3    H2 5518   6.761   1.751   6.010
 1859TIP3   OH2 5519   0.190   3.536   2.991
 1859TIP3    H1 5520   0.219   3.594   2.921
 1859TIP3    H2 5521   0.255   3.548   3.061
 1860TIP3   OH2 5522   0.457   0.820   1.207
 1860TIP3    H1 5523   0.390   0.770   1.255
 1860TIP3    H2 5524   0.488   0.759   1.139
 1861TIP3   OH2 5525   6.371   3.324   5.236
 1861TIP3    H1 5526   6.380   3.386   5.308
 1861TIP3    H2 5527   6.421   3.363   5.164
 1862TIP3   OH2 5528   6.145   2.836   2.863
 1862TIP3    H1 5529   6.065   2.873   2.899
 1862TIP3    H2 5530   6.115   2.772   2.799
 1863TIP3   OH2 5531   0.324   4.871   3.310
 1863TIP3    H1 5532   0.250   4.841   3.257
 1863TIP3    H2 5533   0.291   4.873   3.399
 1864TIP3   OH2 5534   2.690   4.829   2.826
 1864TIP3    H1 5535   2.765   4.819   2.767
 1864TIP3    H2 5536   2.683   4.924   2.840
 1865TIP3   OH2 5537   3.660   5.177   2.205
 1865TIP3    H1 5538   3.565   5.162   2.201
 1865TIP3    H2 5539   3.685   5.193   2.114
 1866TIP3   OH2 5540   5.055   4.289   0.517
 1866TIP3    H1 5541   4.994   4.291   0.591
 1866TIP3    H2 5542   5.044   4.201   0.480
 1867TIP3   OH2 5543   1.154   2.245   0.460
 1867TIP3    H1 5544   1.142   2.230   0.554
 1867TIP3    H2 5545   1.068   2.227   0.421
 1868TIP3   OH2 5546   7.181   4.340   6.156
 1868TIP3    H1 5547   7.151   4.320   6.067
 1868TIP3    H2 5548   7.115   4.299   6.213
 1869TIP3   OH2 5549   4.916   7.010   6.621
 1869TIP3    H1 5550   4.972   6.953   6.674
 1869TIP3    H2 5551   4.958   7.013   6.536
 1870TIP3   OH2 5552   6.393   0.497   0.440
 1870TIP3    H1 5553   6.343   0.543   0.372
 1870TIP3    H2 5554   6.477   0.477   0.399
 1871TIP3   OH2 5555   0.331   3.462   1.112
 1871TIP3    H1 5556   0.245   3.425   1.093
 1871TIP3    H2 5557   0.319   3.557   1.105
 1872TIP3   OH2 5558   3.719   2.306   2.352
 1872TIP3    H1 5559   3.633   2.336   2.382
 1872TIP3    H2 5560   3.776   2.381   2.364
 1873TIP3   OH2 5561   0.343   2.517   5.150
 1873TIP3    H1 5562   0.260   2.506   5.104
 1873TIP3    H2 5563   0.408   2.528   5.080
 1874TIP3   OH2 5564   4.312   4.759   6.323
 1874TIP3    H1 5565   4.387   4.817   6.315
 1874TIP3    H2 5566   4.240   4.806   6.281
 1875TIP3   OH2 5567   0.692   5.185   4.487
 1875TIP3    H1 5568   0.740   5.262   4.518
 1875TIP3    H2 5569   0.690   5.126   4.562
 1876TIP3   OH2 5570   6.603   3.270   2.955
 1876TIP3    H1 5571   6.565   3.245   3.040
 1876TIP3    H2 5572   6.562   3.353   2.934
 1877TIP3   OH2 5573   5.492   6.205   1.056
 1877TIP3    H1 5574   5.432   6.277   1.036
 1877TIP3    H2 5575   5.577   6.237   1.028
 1878TIP3   OH2 5576   0.595   7.741   5.210
 1878TIP3    H1 5577   0.630   7.792   5.136
 1878TIP3    H2 5578   0.649   7.768   5.284
 1879TIP3   OH2 5579   5.562   1.943   6.704
 1879TIP3    H1 5580   5.590   2.034   6.695
 1879TIP3    H2 5581   5.627   1.905   6.764
 1880TIP3   OH2 5582   3.057   0.331   1.732
 1880TIP3    H1 5583   2.987   0.386   1.695
 1880TIP3    H2 5584   3.131   0.343   1.673
 1881TIP3   OH2 5585   2.804   1.895   1.165
 1881TIP3    H1 5586   2.712   1.871   1.176
 1881TIP3    H2 5587   2.815   1.972   1.221
 1882TIP3   OH2 5588   6.978   6.791   2.796
 1882TIP3    H1 5589   6.993   6.850   2.870
 1882TIP3    H2 5590   6.895   6.747   2.816
 1883TIP3   OH2 5591   6.933   5.222   2.679
 1883TIP3    H1 5592   6.955   5.181   2.595
 1883TIP3    H2 5593   6.862   5.282   2.659
 1884TIP3   OH2 5594   7.040   6.237   3.873
 1884TIP3    H1 5595   7.114   6.183   3.901
 1884TIP3    H2 5596   7.024   6.211   3.782
 1885TIP3   OH2 5597   4.861   2.859   5.698
 1885TIP3    H1 5598   4.800   2.831   5.630
 1885TIP3    H2 5599   4.869   2.953   5.686
 1886TIP3   OH2 5600   2.624   0.985   3.258
 1886TIP3    H1 5601   2.665   0.900   3.243
 1886TIP3    H2 5602   2.641   1.004   3.350
 1887TIP3   OH2 5603   2.042   2.048   1.666
 1887TIP3    H1 5604   1.949   2.067   1.683
 1887TIP3    H2 5605   2.070   2.118   1.607
 1888TIP3   OH2 5606   6.436   5.184   4.722
 1888TIP3    H1 5607   6.367   5.242   4.754
 1888TIP3    H2 5608   6.406   5.157   4.635
 1889TIP3   OH2 5609   7.393   4.952   4.998
 1889TIP3    H1 5610   7.323   5.013   5.021
 1889TIP3    H2 5611   7.431   4.990   4.918
 1890TIP3   OH2 5612   6.049   3.120   4.368
 1890TIP3    H1 5613   6.116   3.172   4.413
 1890TIP3    H2 5614   6.092   3.037   4.349
 1891TIP3   OH2 5615   1.728   7.733   1.115
 1891TIP3    H1 5616   1.648   7.680   1.108
 1891TIP3    H2 5617   1.787   7.695   1.051
 1892TIP3   OH2 5618   0.188   1.652   1.857
 1892TIP3    H1 5619   0.194   1.558   1.836
 1892TIP3    H2 5620   0.274   1.687   1.834
 1893TIP3   OH2 5621   5.079   3.630   0.433
 1893TIP3    H1 5622   5.035   3.545   0.441
 1893TIP3    H2 5623   5.051   3.663   0.348
 1894TIP3   OH2 5624   3.697   2.296   1.300
 1894TIP3    H1 5625   3.765   2.349   1.257
 1894TIP3    H2 5626   3.621   2.355   1.306
 1895TIP3   OH2 5627   0.188   2.384   5.512
 1895TIP3    H1 5628   0.120   2.443   5.544
 1895TIP3    H2 5629   0.146   2.336   5.441
 1896TIP3   OH2 5630   5.620   6.648   3.460
 1896TIP3    H1 5631   5.607   6.708   3.387
 1896TIP3    H2 5632   5.562   6.682   3.529
 1897TIP3   OH2 5633   4.188   4.799   1.561
 1897TIP3    H1 5634   4.261   4.820   1.503
 1897TIP3    H2 5635   4.185   4.872   1.623
 1898TIP3   OH2 5636   5.380   1.806   0.280
 1898TIP3    H1 5637   5.355   1.728   0.329
 1898TIP3    H2 5638   5.342   1.879   0.329
 1899TIP3   OH2 5639   5.475   2.627   1.959
 1899TIP3    H1 5640   5.556   2.677   1.949
 1899TIP3    H2 5641   5.474   2.568   1.884
 1900TIP3   OH2 5642   5.654   5.922   5.477
 1900TIP3    H1 5643   5.684   5.862   5.546
 1900TIP3    H2 5644   5.733   5.970   5.452
 1901TIP3   OH2 5645   8.226   0.196   5.340
 1901TIP3    H1 5646   8.248   0.180   5.432
 1901TIP3    H2 5647   8.134   0.174   5.333
 1902TIP3   OH2 5648   2.432   7.457   2.298
 1902TIP3    H1 5649   2.449   7.551   2.303
 1902TIP3    H2 5650   2.395   7.443   2.211
 1903TIP3   OH2 5651   0.411   5.444   2.228
 1903TIP3    H1 5652   0.319   5.422   2.242
 1903TIP3    H2 5653   0.409   5.532   2.191
 1904TIP3   OH2 5654   6.978   4.608   5.518
 1904TIP3    H1 5655   7.036   4.613   5.442
 1904TIP3    H2 5656   6.891   4.594   5.481
 1905TIP3   OH2 5657   2.366   4.058   3.383
 1905TIP3    H1 5658   2.396   4.017   3.302
 1905TIP3    H2 5659   2.397   4.148   3.377
 1906TIP3   OH2 5660   6.046   5.979   0.104
 1906TIP3    H1 5661   5.973   5.920   0.083
 1906TIP3    H2 5662   6.123   5.934   0.069
 1907TIP3   OH2 5663   6.763   4.756   1.974
 1907TIP3    H1 5664   6.824   4.794   1.911
 1907TIP3    H2 5665   6.727   4.679   1.930
 1908TIP3   OH2 5666   1.142   6.335   1.016
 1908TIP3    H1 5667   1.201   6.278   0.968
 1908TIP3    H2 5668   1.199   6.392   1.067
 1909TIP3   OH2 5669   3.617   7.185   1.076
 1909TIP3    H1 5670   3.579   7.273   1.083
 1909TIP3    H2 5671   3.711   7.198   1.083
 1910TIP3   OH2 5672   5.075   1.453   5.299
 1910TIP3    H1 5673   5.151   1.461   5.356
 1910TIP3    H2 5674   5.048   1.543   5.283
 1911TIP3   OH2 5675   6.382   1.998   6.134
 1911TIP3    H1 5676   6.393   1.907   6.108
 1911TIP3    H2 5677   6.451   2.046   6.086
 1912TIP3   OH2 5678   2.090   5.400   2.901
 1912TIP3    H1 5679   2.173   5.437   2.870
 1912TIP3    H2 5680   2.023   5.456   2.863
 1913TIP3   OH2 5681   2.188   5.744   1.695
 1913TIP3    H1 5682   2.165   5.752   1.788
 1913TIP3    H2 5683   2.120   5.687   1.659
 1914TIP3   OH2 5684   2.893   1.884   6.343
 1914TIP3    H1 5685   2.800   1.892   6.320
 1914TIP3    H2 5686   2.892   1.846   6.431
 1915TIP3   OH2 5687   6.916   2.287   2.227
 1915TIP3    H1 5688   6.848   2.306   2.291
 1915TIP3    H2 5689   6.880   2.216   2.174
 1916TIP3   OH2 5690   7.677   4.617   3.011
 1916TIP3    H1 5691   7.681   4.712   3.006
 1916TIP3    H2 5692   7.693   4.597   3.103
 1917TIP3   OH2 5693   7.138   2.588   0.571
 1917TIP3    H1 5694   7.187   2.586   0.488
 1917TIP3    H2 5695   7.057   2.634   0.549
 1918TIP3   OH2 5696   3.723   2.636   5.788
 1918TIP3    H1 5697   3.745   2.687   5.711
 1918TIP3    H2 5698   3.756   2.548   5.770
 1919TIP3   OH2 5699   6.887   0.647   5.130
 1919TIP3    H1 5700   6.906   0.566   5.082
 1919TIP3    H2 5701   6.919   0.717   5.073
 1920TIP3   OH2 5702   3.451   1.922   3.999
 1920TIP3    H1 5703   3.416   1.966   4.076
 1920TIP3    H2 5704   3.537   1.963   3.985
 1921TIP3   OH2 5705   8.185   5.525   1.091
 1921TIP3    H1 5706   8.214   5.443   1.052
 1921TIP3    H2 5707   8.091   5.514   1.105
 1922TIP3   OH2 5708   0.060   7.427   0.128
 1922TIP3    H1 5709  -0.030   7.396   0.120
 1922TIP3    H2 5710   0.077   7.471   0.044
 1923TIP3   OH2 5711   7.456   5.591   6.148
 1923TIP3    H1 5712   7.481   5.682   6.161
 1923TIP3    H2 5713   7.415   5.589   6.061
 1924TIP3   OH2 5714   5.777   6.580   1.554
 1924TIP3    H1 5715   5.746   6.516   1.618
 1924TIP3    H2 5716   5.859   6.613   1.590
 1925TIP3   OH2 5717   1.245   2.092   5.088
 1925TIP3    H1 5718   1.150   2.082   5.092
 1925TIP3    H2 5719   1.277   2.055   5.170
 1926TIP3   OH2 5720   5.365   5.712   1.047
 1926TIP3    H1 5721   5.383   5.805   1.031
 1926TIP3    H2 5722   5.397   5.697   1.137
 1927TIP3   OH2 5723   1.670   5.325   5.849
 1927TIP3    H1 5724   1.620   5.388   5.796
 1927TIP3    H2 5725   1.706   5.264   5.785
 1928TIP3   OH2 5726   0.365   6.273   0.684
 1928TIP3    H1 5727   0.455   6.253   0.709
 1928TIP3    H2 5728   0.367   6.280   0.589
 1929TIP3   OH2 5729   1.021   3.256   6.257
 1929TIP3    H1 5730   1.069   3.338   6.264
 1929TIP3    H2 5731   0.987   3.240   6.345
 1930TIP3   OH2 5732   1.189   7.104   6.679
 1930TIP3    H1 5733   1.111   7.058   6.710
 1930TIP3    H2 5734   1.205   7.171   6.745
 1931TIP3   OH2 5735   2.187   0.726   0.677
 1931TIP3    H1 5736   2.154   0.732   0.587
 1931TIP3    H2 5737   2.120   0.769   0.731
 1932TIP3   OH2 5738   1.177   5.042   2.921
 1932TIP3    H1 5739   1.233   5.045   2.998
 1932TIP3    H2 5740   1.096   5.085   2.948
 1933TIP3   OH2 5741   1.146   6.638   0.871
 1933TIP3    H1 5742   1.067   6.602   0.830
 1933TIP3    H2 5743   1.213   6.633   0.803
 1934TIP3   OH2 5744   6.704   7.153   0.652
 1934TIP3    H1 5745   6.655   7.112   0.580
 1934TIP3    H2 5746   6.753   7.081   0.692
 1935TIP3   OH2 5747   3.562   4.545   3.486
 1935TIP3    H1 5748   3.518   4.505   3.411
 1935TIP3    H2 5749   3.540   4.487   3.559
 1936TIP3   OH2 5750   4.207   2.621   0.064
 1936TIP3    H1 5751   4.182   2.705   0.026
 1936TIP3    H2 5752   4.223   2.565  -0.011
 1937TIP3   OH2 5753   6.853   3.897   1.261
 1937TIP3    H1 5754   6.872   3.805   1.279
 1937TIP3    H2 5755   6.779   3.895   1.200
 1938TIP3   OH2 5756   7.306   4.930   2.001
 1938TIP3    H1 5757   7.349   5.011   1.974
 1938TIP3    H2 5758   7.378   4.874   2.029
 1939TIP3   OH2 5759   7.126   1.975   0.399
 1939TIP3    H1 5760   7.072   1.914   0.350
 1939TIP3    H2 5761   7.207   1.927   0.417
 1940TIP3   OH2 5762   8.160   3.261   3.317
 1940TIP3    H1 5763   8.165   3.166   3.305
 1940TIP3    H2 5764   8.208   3.296   3.242
 1941TIP3   OH2 5765   7.231   3.939   5.943
 1941TIP3    H1 5766   7.227   4.008   6.010
 1941TIP3    H2 5767   7.317   3.899   5.955
 1942TIP3   OH2 5768   3.913   6.372   1.203
 1942TIP3    H1 5769   3.994   6.397   1.159
 1942TIP3    H2 5770   3.874   6.306   1.147
 1943TIP3   OH2 5771   6.794   1.419   0.527
 1943TIP3    H1 5772   6.787   1.379   0.440
 1943TIP3    H2 5773   6.714   1.472   0.535
 1944TIP3   OH2 5774   1.919   1.235   2.436
 1944TIP3    H1 5775   1.993   1.269   2.486
 1944TIP3    H2 5776   1.922   1.283   2.353
 1945TIP3   OH2 5777   0.497   1.245   4.529
 1945TIP3    H1 5778   0.510   1.194   4.449
 1945TIP3    H2 5779   0.478   1.334   4.498
 1946TIP3   OH2 5780   0.954   7.564   5.379
 1946TIP3    H1 5781   1.005   7.495   5.421
 1946TIP3    H2 5782   1.005   7.644   5.392
 1947TIP3   OH2 5783   1.489   3.646   6.536
 1947TIP3    H1 5784   1.504   3.649   6.441
 1947TIP3    H2 5785   1.562   3.694   6.573
 1948TIP3   OH2 5786   4.965   7.637   3.103
 1948TIP3    H1 5787   4.970   7.592   3.018
 1948TIP3    H2 5788   4.871   7.649   3.118
 1949TIP3   OH2 5789   7.619   0.414   1.032
 1949TIP3    H1 5790   7.652   0.490   0.984
 1949TIP3    H2 5791   7.599   0.350   0.964
 1950TIP3   OH2 5792   1.433   3.564   3.048
 1950TIP3    H1 5793   1.514   3.612   3.033
 1950TIP3    H2 5794   1.366   3.633   3.058
 1951TIP3   OH2 5795   6.984   5.574   1.227
 1951TIP3    H1 5796   7.038   5.654   1.228
 1951TIP3    H2 5797   7.035   5.512   1.175
 1952TIP3   OH2 5798   3.917   7.520   4.869
 1952TIP3    H1 5799   3.841   7.475   4.906
 1952TIP3    H2 5800   3.883   7.604   4.839
 1953TIP3   OH2 5801   3.648   4.498   6.659
 1953TIP3    H1 5802   3.565   4.456   6.682
 1953TIP3    H2 5803   3.648   4.500   6.564
 1954TIP3   OH2 5804   0.708   3.894   2.639
 1954TIP3    H1 5805   0.751   3.978   2.622
 1954TIP3    H2 5806   0.735   3.838   2.566
 1955TIP3   OH2 5807   8.046   4.160   6.306
 1955TIP3    H1 5808   7.971   4.156   6.247
 1955TIP3    H2 5809   8.119   4.126   6.254
 1956TIP3   OH2 5810   7.446   3.191   4.243
 1956TIP3    H1 5811   7.362   3.190   4.290
 1956TIP3    H2 5812   7.443   3.270   4.189
 1957TIP3   OH2 5813   0.697   6.123   6.240
 1957TIP3    H1 5814   0.789   6.094   6.240
 1957TIP3    H2 5815   0.696   6.198   6.299
 1958TIP3   OH2 5816  -0.035   7.158   4.272
 1958TIP3    H1 5817   0.011   7.182   4.192
 1958TIP3    H2 5818   0.035   7.135   4.334
 1959TIP3   OH2 5819   5.617   6.052   1.536
 1959TIP3    H1 5820   5.564   6.024   1.462
 1959TIP3    H2 5821   5.646   5.971   1.578
 1960TIP3   OH2 5822   7.133   1.375   4.328
 1960TIP3    H1 5823   7.089   1.309   4.274
 1960TIP3    H2 5824   7.224   1.372   4.300
 1961TIP3   OH2 5825   4.838   3.256   0.448
 1961TIP3    H1 5826   4.812   3.331   0.395
 1961TIP3    H2 5827   4.913   3.218   0.401
 1962TIP3   OH2 5828   7.183   0.400   1.664
 1962TIP3    H1 5829   7.182   0.459   1.588
 1962TIP3    H2 5830   7.124   0.441   1.727
 1963TIP3   OH2 5831   0.326   6.289   1.866
 1963TIP3    H1 5832   0.421   6.276   1.875
 1963TIP3    H2 5833   0.287   6.213   1.909
 1964TIP3   OH2 5834   3.510   0.335   4.762
 1964TIP3    H1 5835   3.441   0.374   4.816
 1964TIP3    H2 5836   3.567   0.409   4.740
 1965TIP3   OH2 5837   0.295   4.523   3.147
 1965TIP3    H1 5838   0.260   4.607   3.117
 1965TIP3    H2 5839   0.345   4.490   3.072
 1966TIP3   OH2 5840   4.638   2.293   1.297
 1966TIP3    H1 5841   4.729   2.307   1.324
 1966TIP3    H2 5842   4.590   2.365   1.338
 1967TIP3   OH2 5843   7.441   2.442   6.361
 1967TIP3    H1 5844   7.422   2.462   6.453
 1967TIP3    H2 5845   7.531   2.471   6.349
 1968TIP3   OH2 5846   7.669   4.403   1.115
 1968TIP3    H1 5847   7.640   4.314   1.137
 1968TIP3    H2 5848   7.594   4.459   1.137
 1969TIP3   OH2 5849   4.534   0.935   6.009
 1969TIP3    H1 5850   4.557   0.962   5.920
 1969TIP3    H2 5851   4.503   1.015   6.051
 1970TIP3   OH2 5852   0.223   2.600   4.251
 1970TIP3    H1 5853   0.248   2.507   4.249
 1970TIP3    H2 5854   0.129   2.599   4.234
 1971TIP3   OH2 5855   0.557   1.234   3.603
 1971TIP3    H1 5856   0.476   1.272   3.568
 1971TIP3    H2 5857   0.533   1.145   3.627
 1972TIP3   OH2 5858   3.866   2.141   4.550
 1972TIP3    H1 5859   3.773   2.130   4.528
 1972TIP3    H2 5860   3.899   2.201   4.484
 1973TIP3   OH2 5861   1.102   3.670   5.368
 1973TIP3    H1 5862   1.104   3.617   5.289
 1973TIP3    H2 5863   1.154   3.748   5.348
 1974TIP3   OH2 5864   1.891   4.695   4.097
 1974TIP3    H1 5865   1.872   4.769   4.039
 1974TIP3    H2 5866   1.924   4.627   4.039
 1975TIP3   OH2 5867   5.275   6.327   1.515
 1975TIP3    H1 5868   5.180   6.332   1.520
 1975TIP3    H2 5869   5.304   6.418   1.511
 1976TIP3   OH2 5870   4.239   1.233   3.202
 1976TIP3    H1 5871   4.297   1.234   3.278
 1976TIP3    H2 5872   4.269   1.158   3.150
 1977TIP3   OH2 5873   6.571   3.906   5.977
 1977TIP3    H1 5874   6.551   3.958   5.900
 1977TIP3    H2 5875   6.613   3.967   6.037
 1978TIP3   OH2 5876   2.230   5.482   4.169
 1978TIP3    H1 5877   2.139   5.500   4.145
 1978TIP3    H2 5878   2.224   5.434   4.251
 1979TIP3   OH2 5879   2.360   1.849   2.414
 1979TIP3    H1 5880   2.366   1.792   2.491
 1979TIP3    H2 5881   2.279   1.898   2.427
 1980TIP3   OH2 5882   3.519   0.308   1.310
 1980TIP3    H1 5883   3.525   0.286   1.403
 1980TIP3    H2 5884   3.591   0.259   1.269
 1981TIP3   OH2 5885   1.452   1.708   5.540
 1981TIP3    H1 5886   1.388   1.664   5.485
 1981TIP3    H2 5887   1.445   1.801   5.516
 1982TIP3   OH2 5888   0.143   0.740   2.981
 1982TIP3    H1 5889   0.112   0.650   2.971
 1982TIP3    H2 5890   0.161   0.749   3.075
 1983TIP3   OH2 5891   1.949   5.733   4.920
 1983TIP3    H1 5892   1.925   5.690   4.838
 1983TIP3    H2 5893   1.875   5.789   4.941
 1984TIP3   OH2 5894   7.129   1.700   3.917
 1984TIP3    H1 5895   7.217   1.665   3.930
 1984TIP3    H2 5896   7.086   1.690   4.002
 1985TIP3   OH2 5897   4.108   4.188   1.018
 1985TIP3    H1 5898   4.090   4.176   1.111
 1985TIP3    H2 5899   4.077   4.276   0.998
 1986TIP3   OH2 5900   3.435   0.388   5.689
 1986TIP3    H1 5901   3.389   0.304   5.687
 1986TIP3    H2 5902   3.454   0.407   5.597
 1987TIP3   OH2 5903   8.201   0.177   4.031
 1987TIP3    H1 5904   8.236   0.255   3.988
 1987TIP3    H2 5905   8.107   0.178   4.009
 1988TIP3   OH2 5906   4.748   6.141   2.693
 1988TIP3    H1 5907   4.727   6.119   2.783
 1988TIP3    H2 5908   4.664   6.158   2.651
 1989TIP3   OH2 5909   2.553   2.669   1.616
 1989TIP3    H1 5910   2.638   2.707   1.638
 1989TIP3    H2 5911   2.530   2.707   1.532
 1990TIP3   OH2 5912   1.461   5.979   2.752
 1990TIP3    H1 5913   1.391   5.939   2.804
 1990TIP3    H2 5914   1.525   6.008   2.817
 1991TIP3   OH2 5915   3.469   2.791   6.308
 1991TIP3    H1 5916   3.481   2.856   6.377
 1991TIP3    H2 5917   3.454   2.843   6.228
 1992TIP3   OH2 5918   3.372   4.054   2.142
 1992TIP3    H1 5919   3.382   4.074   2.235
 1992TIP3    H2 5920   3.278   4.035   2.131
 1993TIP3   OH2 5921   6.570   2.509   4.027
 1993TIP3    H1 5922   6.634   2.451   4.070
 1993TIP3    H2 5923   6.513   2.538   4.098
 1994TIP3   OH2 5924   0.792   5.279   0.138
 1994TIP3    H1 5925   0.710   5.323   0.113
 1994TIP3    H2 5926   0.851   5.296   0.065
 1995TIP3   OH2 5927   6.762   3.870   1.848
 1995TIP3    H1 5928   6.705   3.839   1.919
 1995TIP3    H2 5929   6.820   3.933   1.891
 1996TIP3   OH2 5930   7.441   6.598   0.544
 1996TIP3    H1 5931   7.379   6.616   0.615
 1996TIP3    H2 5932   7.470   6.508   0.560
 1997TIP3   OH2 5933   0.986   0.909   1.466
 1997TIP3    H1 5934   0.982   0.814   1.468
 1997TIP3    H2 5935   1.079   0.930   1.475
 1998TIP3   OH2 5936   3.632   6.226   5.370
 1998TIP3    H1 5937   3.600   6.269   5.449
 1998TIP3    H2 5938   3.718   6.264   5.355
 1999TIP3   OH2 5939   0.162   2.192   0.281
 1999TIP3    H1 5940   0.245   2.232   0.254
 1999TIP3    H2 5941   0.135   2.243   0.357
 2000TIP3   OH2 5942   3.950   2.691   3.604
 2000TIP3    H1 5943   3.878   2.751   3.618
 2000TIP3    H2 5944   3.958   2.643   3.687
 2001TIP3   OH2 5945   3.630   1.471   1.421
 2001TIP3    H1 5946   3.636   1.393   1.367
 2001TIP3    H2 5947   3.561   1.523   1.379
 2002TIP3   OH2 5948   3.817   0.788   1.587
 2002TIP3    H1 5949   3.789   0.879   1.595
 2002TIP3    H2 5950   3.835   0.777   1.493
 2003TIP3   OH2 5951   3.244   5.360   1.115
 2003TIP3    H1 5952   3.159   5.394   1.142
 2003TIP3    H2 5953   3.225   5.275   1.076
 2004TIP3   OH2 5954   1.754   3.484   2.277
 2004TIP3    H1 5955   1.734   3.556   2.337
 2004TIP3    H2 5956   1.833   3.444   2.313
 2005TIP3   OH2 5957   4.686   1.370   5.211
 2005TIP3    H1 5958   4.741   1.298   5.180
 2005TIP3    H2 5959   4.640   1.400   5.133
 2006TIP3   OH2 5960   1.468   6.780   2.238
 2006TIP3    H1 5961   1.517   6.860   2.219
 2006TIP3    H2 5962   1.462   6.777   2.333
 2007TIP3   OH2 5963   5.771   3.362   6.473
 2007TIP3    H1 5964   5.830   3.290   6.497
 2007TIP3    H2 5965   5.773   3.420   6.549
 2008TIP3   OH2 5966   4.844   5.008   6.734
 2008TIP3    H1 5967   4.929   5.040   6.764
 2008TIP3    H2 5968   4.842   4.916   6.760
 2009TIP3   OH2 5969   4.608   2.183   2.557
 2009TIP3    H1 5970   4.649   2.121   2.618
 2009TIP3    H2 5971   4.679   2.208   2.497
 2010TIP3   OH2 5972   2.467   0.055   5.852
 2010TIP3    H1 5973   2.562   0.071   5.851
 2010TIP3    H2 5974   2.431   0.129   5.802
 2011TIP3   OH2 5975   6.845   4.702   6.688
 2011TIP3    H1 5976   6.799   4.641   6.630
 2011TIP3    H2 5977   6.781   4.724   6.755
 2012TIP3   OH2 5978   2.836   6.904   6.426
 2012TIP3    H1 5979   2.828   6.897   6.521
 2012TIP3    H2 5980   2.910   6.847   6.403
 2013TIP3   OH2 5981   0.425   5.835   5.177
 2013TIP3    H1 5982   0.517   5.826   5.154
 2013TIP3    H2 5983   0.386   5.881   5.102
 2014TIP3   OH2 5984   3.451   7.448   1.029
 2014TIP3    H1 5985   3.543   7.472   1.026
 2014TIP3    H2 5986   3.414   7.501   1.100
 2015TIP3   OH2 5987   5.314   1.774   1.457
 2015TIP3    H1 5988   5.341   1.824   1.380
 2015TIP3    H2 5989   5.252   1.831   1.502
 2016TIP3   OH2 5990   0.997   3.839   3.264
 2016TIP3    H1 5991   0.982   3.909   3.328
 2016TIP3    H2 5992   1.080   3.800   3.289
 2017TIP3   OH2 5993   1.367   4.564   5.968
 2017TIP3    H1 5994   1.447   4.554   5.917
 2017TIP3    H2 5995   1.388   4.529   6.054
 2018TIP3   OH2 5996   1.391   6.325   1.625
 2018TIP3    H1 5997   1.482   6.322   1.652
 2018TIP3    H2 5998   1.348   6.378   1.692
 2019TIP3   OH2 5999   7.279   0.034   6.073
 2019TIP3    H1 6000   7.369   0.027   6.106
 2019TIP3    H2 6001   7.256  -0.054   6.045
 2020TIP3   OH2 6002   3.023   7.707   1.348
 2020TIP3    H1 6003   2.969   7.696   1.426
 2020TIP3    H2 6004   3.025   7.621   1.307
 2021TIP3   OH2 6005   8.094   7.557   2.530
 2021TIP3    H1 6006   8.164   7.528   2.589
 2021TIP3    H2 6007   8.033   7.483   2.529
 2022TIP3   OH2 6008   4.273   2.197   0.312
 2022TIP3    H1 6009   4.264   2.211   0.218
 2022TIP3    H2 6010   4.335   2.264   0.341
 2023TIP3   OH2 6011   6.487   5.484   5.716
 2023TIP3    H1 6012   6.551   5.548   5.684
 2023TIP3    H2 6013   6.427   5.535   5.770
 2024TIP3   OH2 6014   4.631   3.279   1.016
 2024TIP3    H1 6015   4.708   3.328   0.989
 2024TIP3    H2 6016   4.665   3.207   1.069
 2025TIP3   OH2 6017   0.143   0.934   4.643
 2025TIP3    H1 6018   0.058   0.966   4.675
 2025TIP3    H2 6019   0.120   0.872   4.574
 2026TIP3   OH2 6020   8.237   3.064   2.837
 2026TIP3    H1 6021   8.295   3.139   2.823
 2026TIP3    H2 6022   8.257   3.035   2.926
 2027TIP3   OH2 6023   7.936   0.014   1.204
 2027TIP3    H1 6024   8.021  -0.016   1.171
 2027TIP3    H2 6025   7.941   0.109   1.198
 2028TIP3   OH2 6026   8.216   4.299   5.252
 2028TIP3    H1 6027   8.305   4.334   5.255
 2028TIP3    H2 6028   8.165   4.359   5.305
 2029TIP3   OH2 6029   3.910   0.503   6.409
 2029TIP3    H1 6030   3.973   0.574   6.418
 2029TIP3    H2 6031   3.825   0.547   6.407
 2030TIP3   OH2 6032   5.973   3.880   1.355
 2030TIP3    H1 6033   5.953   3.787   1.344
 2030TIP3    H2 6034   6.064   3.889   1.329
 2031TIP3   OH2 6035   7.516   3.120   3.580
 2031TIP3    H1 6036   7.450   3.083   3.521
 2031TIP3    H2 6037   7.466   3.154   3.654
 2032TIP3   OH2 6038   3.520   0.961   4.917
 2032TIP3    H1 6039   3.598   1.006   4.949
 2032TIP3    H2 6040   3.536   0.869   4.936
 2033TIP3   OH2 6041   2.848   5.517   0.365
 2033TIP3    H1 6042   2.847   5.612   0.362
 2033TIP3    H2 6043   2.941   5.494   0.370
 2034TIP3   OH2 6044   0.664   3.443   2.816
 2034TIP3    H1 6045   0.699   3.443   2.727
 2034TIP3    H2 6046   0.709   3.515   2.860
 2035TIP3   OH2 6047   1.101   5.832   5.386
 2035TIP3    H1 6048   1.013   5.867   5.399
 2035TIP3    H2 6049   1.120   5.847   5.293
 2036TIP3   OH2 6050   6.079   1.517   4.358
 2036TIP3    H1 6051   6.098   1.515   4.265
 2036TIP3    H2 6052   6.115   1.600   4.389
 2037TIP3   OH2 6053   7.623   5.911   5.566
 2037TIP3    H1 6054   7.702   5.915   5.620
 2037TIP3    H2 6055   7.631   5.828   5.519
 2038TIP3   OH2 6056   5.630   5.433   5.367
 2038TIP3    H1 6057   5.725   5.418   5.368
 2038TIP3    H2 6058   5.607   5.449   5.459
 2039TIP3   OH2 6059   1.144   2.185   6.189
 2039TIP3    H1 6060   1.076   2.247   6.214
 2039TIP3    H2 6061   1.134   2.112   6.251
 2040TIP3   OH2 6062   1.382   0.455   6.793
 2040TIP3    H1 6063   1.309   0.417   6.745
 2040TIP3    H2 6064   1.421   0.381   6.839
 2041TIP3   OH2 6065   2.406   3.522   5.559
 2041TIP3    H1 6066   2.469   3.487   5.623
 2041TIP3    H2 6067   2.330   3.465   5.567
 2042TIP3   OH2 6068   7.798   2.114   1.081
 2042TIP3    H1 6069   7.762   2.071   1.158
 2042TIP3    H2 6070   7.732   2.177   1.054
 2043TIP3   OH2 6071   1.994   5.828   5.491
 2043TIP3    H1 6072   2.057   5.761   5.516
 2043TIP3    H2 6073   1.953   5.794   5.412
 2044TIP3   OH2 6074   3.015   6.261   0.174
 2044TIP3    H1 6075   2.956   6.256   0.248
 2044TIP3    H2 6076   2.960   6.242   0.098
 2045TIP3   OH2 6077   0.100   4.050   3.299
 2045TIP3    H1 6078   0.057   4.057   3.214
 2045TIP3    H2 6079   0.099   3.956   3.319
 2046TIP3   OH2 6080   4.679   1.019   5.687
 2046TIP3    H1 6081   4.585   1.015   5.707
 2046TIP3    H2 6082   4.689   1.099   5.634
 2047TIP3   OH2 6083   6.792   6.207   0.860
 2047TIP3    H1 6084   6.788   6.153   0.938
 2047TIP3    H2 6085   6.761   6.293   0.888
 2048TIP3   OH2 6086   4.838   6.672   3.703
 2048TIP3    H1 6087   4.804   6.756   3.735
 2048TIP3    H2 6088   4.829   6.677   3.608
 2049TIP3   OH2 6089   2.166   5.537   3.759
 2049TIP3    H1 6090   2.245   5.572   3.799
 2049TIP3    H2 6091   2.196   5.462   3.708
 2050TIP3   OH2 6092   5.880   0.884   3.084
 2050TIP3    H1 6093   5.843   0.972   3.090
 2050TIP3    H2 6094   5.974   0.896   3.099
 2051TIP3   OH2 6095   2.761   0.375   4.959
 2051TIP3    H1 6096   2.802   0.380   5.045
 2051TIP3    H2 6097   2.799   0.449   4.910
 2052TIP3   OH2 6098   0.343   5.520   3.865
 2052TIP3    H1 6099   0.367   5.612   3.873
 2052TIP3    H2 6100   0.426   5.472   3.864
 2053TIP3   OH2 6101   4.553   6.112   0.119
 2053TIP3    H1 6102   4.611   6.177   0.078
 2053TIP3    H2 6103   4.541   6.144   0.208
 2054TIP3   OH2 6104   2.524   5.772   0.879
 2054TIP3    H1 6105   2.475   5.695   0.909
 2054TIP3    H2 6106   2.527   5.829   0.956
 2055TIP3   OH2 6107   4.797   7.548   0.269
 2055TIP3    H1 6108   4.776   7.641   0.281
 2055TIP3    H2 6109   4.880   7.536   0.316
 2056TIP3   OH2 6110   7.861   2.072   3.811
 2056TIP3    H1 6111   7.900   2.152   3.846
 2056TIP3    H2 6112   7.900   2.063   3.724
 2057TIP3   OH2 6113   7.735   3.270   4.146
 2057TIP3    H1 6114   7.743   3.264   4.051
 2057TIP3    H2 6115   7.646   3.240   4.165
 2058TIP3   OH2 6116   2.400   6.496   0.772
 2058TIP3    H1 6117   2.392   6.406   0.742
 2058TIP3    H2 6118   2.340   6.502   0.847
 2059TIP3   OH2 6119   0.962   6.797   5.879
 2059TIP3    H1 6120   0.922   6.824   5.796
 2059TIP3    H2 6121   0.940   6.868   5.940
 2060TIP3   OH2 6122   5.653   5.093   0.550
 2060TIP3    H1 6123   5.613   5.034   0.613
 2060TIP3    H2 6124   5.635   5.052   0.465
 2061TIP3   OH2 6125   2.738   4.197   4.494
 2061TIP3    H1 6126   2.794   4.226   4.422
 2061TIP3    H2 6127   2.799   4.159   4.558
 2062TIP3   OH2 6128   6.641   4.466   2.322
 2062TIP3    H1 6129   6.713   4.465   2.259
 2062TIP3    H2 6130   6.595   4.548   2.305
 2063TIP3   OH2 6131   6.476   0.493   6.130
 2063TIP3    H1 6132   6.397   0.458   6.090
 2063TIP3    H2 6133   6.445   0.558   6.193
 2064TIP3   OH2 6134   3.735   2.440   3.483
 2064TIP3    H1 6135   3.745   2.469   3.574
 2064TIP3    H2 6136   3.824   2.439   3.448
 2065TIP3   OH2 6137   7.904   5.613   4.845
 2065TIP3    H1 6138   7.830   5.613   4.784
 2065TIP3    H2 6139   7.864   5.591   4.930
 2066TIP3   OH2 6140   0.756   1.129   3.419
 2066TIP3    H1 6141   0.689   1.191   3.449
 2066TIP3    H2 6142   0.714   1.081   3.347
 2067TIP3   OH2 6143   6.483   1.758   6.028
 2067TIP3    H1 6144   6.464   1.732   5.938
 2067TIP3    H2 6145   6.520   1.680   6.068
 2068TIP3   OH2 6146   3.765   3.268   1.773
 2068TIP3    H1 6147   3.792   3.346   1.821
 2068TIP3    H2 6148   3.840   3.247   1.717
 2069TIP3   OH2 6149   3.084   5.797   1.678
 2069TIP3    H1 6150   3.128   5.720   1.715
 2069TIP3    H2 6151   3.148   5.867   1.686
 2070TIP3   OH2 6152   3.271   6.352   0.211
 2070TIP3    H1 6153   3.298   6.266   0.244
 2070TIP3    H2 6154   3.182   6.338   0.178
 2071TIP3   OH2 6155   4.941   1.068   1.431
 2071TIP3    H1 6156   4.883   1.093   1.503
 2071TIP3    H2 6157   4.893   1.000   1.384
 2072TIP3   OH2 6158   7.770   4.602   5.759
 2072TIP3    H1 6159   7.746   4.655   5.683
 2072TIP3    H2 6160   7.687   4.577   5.799
 2073TIP3   OH2 6161   3.660   4.978   2.430
 2073TIP3    H1 6162   3.678   5.061   2.473
 2073TIP3    H2 6163   3.671   4.997   2.336
 2074TIP3   OH2 6164   0.427   2.733   1.759
 2074TIP3    H1 6165   0.437   2.828   1.753
 2074TIP3    H2 6166   0.337   2.717   1.729
 2075TIP3   OH2 6167   3.703   0.228   2.875
 2075TIP3    H1 6168   3.780   0.180   2.845
 2075TIP3    H2 6169   3.634   0.204   2.813
 2076TIP3   OH2 6170   5.730   6.852   6.322
 2076TIP3    H1 6171   5.641   6.833   6.292
 2076TIP3    H2 6172   5.721   6.931   6.376
 2077TIP3   OH2 6173   0.831   1.054   3.961
 2077TIP3    H1 6174   0.755   1.110   3.943
 2077TIP3    H2 6175   0.794   0.966   3.967
 2078TIP3   OH2 6176   0.776   3.323   0.633
 2078TIP3    H1 6177   0.865   3.345   0.659
 2078TIP3    H2 6178   0.754   3.387   0.566
 2079TIP3   OH2 6179   8.073   0.184   2.531
 2079TIP3    H1 6180   8.102   0.260   2.481
 2079TIP3    H2 6181   7.991   0.158   2.489
 2080TIP3   OH2 6182   5.401   3.013   5.960
 2080TIP3    H1 6183   5.320   2.963   5.947
 2080TIP3    H2 6184   5.372   3.098   5.994
 2081TIP3   OH2 6185   2.016   7.110   3.509
 2081TIP3    H1 6186   2.028   7.099   3.414
 2081TIP3    H2 6187   1.973   7.194   3.519
 2082TIP3   OH2 6188   0.483   4.194   0.362
 2082TIP3    H1 6189   0.407   4.155   0.319
 2082TIP3    H2 6190   0.496   4.141   0.440
 2083TIP3   OH2 6191   5.979   2.653   2.709
 2083TIP3    H1 6192   5.942   2.647   2.797
 2083TIP3    H2 6193   5.914   2.703   2.659
 2084TIP3   OH2 6194   6.919   5.278   3.599
 2084TIP3    H1 6195   6.928   5.185   3.618
 2084TIP3    H2 6196   7.001   5.303   3.557
 2085TIP3   OH2 6197   6.707   4.430   5.285
 2085TIP3    H1 6198   6.799   4.414   5.261
 2085TIP3    H2 6199   6.680   4.349   5.328
 2086TIP3   OH2 6200   1.497   3.502   6.170
 2086TIP3    H1 6201   1.498   3.546   6.085
 2086TIP3    H2 6202   1.504   3.409   6.149
 2087TIP3   OH2 6203   3.818   4.724   5.644
 2087TIP3    H1 6204   3.800   4.813   5.673
 2087TIP3    H2 6205   3.772   4.716   5.560
 2088TIP3   OH2 6206   6.622   3.778   5.519
 2088TIP3    H1 6207   6.670   3.860   5.531
 2088TIP3    H2 6208   6.684   3.710   5.543
 2089TIP3   OH2 6209   5.786   6.351   6.099
 2089TIP3    H1 6210   5.751   6.426   6.050
 2089TIP3    H2 6211   5.811   6.387   6.184
 2090TIP3   OH2 6212   8.082   2.242   6.243
 2090TIP3    H1 6213   7.996   2.233   6.201
 2090TIP3    H2 6214   8.067   2.303   6.316
 2091TIP3   OH2 6215   8.286   2.086   6.507
 2091TIP3    H1 6216   8.209   2.065   6.560
 2091TIP3    H2 6217   8.356   2.033   6.545
 2092TIP3   OH2 6218   5.962   4.413   2.065
 2092TIP3    H1 6219   5.994   4.444   2.150
 2092TIP3    H2 6220   5.935   4.323   2.081
 2093TIP3   OH2 6221   6.085   5.392   1.434
 2093TIP3    H1 6222   6.091   5.347   1.350
 2093TIP3    H2 6223   6.080   5.485   1.411
 2094TIP3   OH2 6224   1.421   7.223   3.870
 2094TIP3    H1 6225   1.428   7.135   3.906
 2094TIP3    H2 6226   1.426   7.211   3.775
 2095TIP3   OH2 6227   1.131   4.814   0.583
 2095TIP3    H1 6228   1.038   4.808   0.562
 2095TIP3    H2 6229   1.158   4.898   0.546
 2096TIP3   OH2 6230   5.525   0.257   4.401
 2096TIP3    H1 6231   5.488   0.237   4.315
 2096TIP3    H2 6232   5.454   0.240   4.463
 2097TIP3   OH2 6233   3.634   0.172   0.639
 2097TIP3    H1 6234   3.664   0.159   0.549
 2097TIP3    H2 6235   3.586   0.092   0.660
 2098TIP3   OH2 6236   0.128   5.801   6.475
 2098TIP3    H1 6237   0.045   5.753   6.474
 2098TIP3    H2 6238   0.139   5.828   6.566
 2099TIP3   OH2 6239   6.161   4.376   6.259
 2099TIP3    H1 6240   6.070   4.372   6.230
 2099TIP3    H2 6241   6.166   4.455   6.312
 2100TIP3   OH2 6242   2.618   6.862   4.090
 2100TIP3    H1 6243   2.712   6.883   4.086
 2100TIP3    H2 6244   2.609   6.783   4.037
 2101TIP3   OH2 6245   1.152   2.004   4.253
 2101TIP3    H1 6246   1.064   2.031   4.225
 2101TIP3    H2 6247   1.138   1.965   4.339
 2102TIP3   OH2 6248   2.026   2.400   4.220
 2102TIP3    H1 6249   2.117   2.429   4.215
 2102TIP3    H2 6250   2.031   2.315   4.264
 2103TIP3   OH2 6251   3.123   2.160   3.188
 2103TIP3    H1 6252   3.100   2.067   3.192
 2103TIP3    H2 6253   3.157   2.180   3.275
 2104TIP3   OH2 6254   7.905   2.414   5.323
 2104TIP3    H1 6255   7.926   2.503   5.294
 2104TIP3    H2 6256   7.951   2.404   5.406
 2105TIP3   OH2 6257   7.700   4.530   2.694
 2105TIP3    H1 6258   7.697   4.461   2.760
 2105TIP3    H2 6259   7.685   4.485   2.611
 2106TIP3   OH2 6260   1.483   0.708   4.821
 2106TIP3    H1 6261   1.495   0.627   4.770
 2106TIP3    H2 6262   1.394   0.736   4.801
 2107TIP3   OH2 6263   7.140   5.639   4.607
 2107TIP3    H1 6264   7.045   5.655   4.612
 2107TIP3    H2 6265   7.155   5.615   4.516
 2108TIP3   OH2 6266   4.807   2.394   2.063
 2108TIP3    H1 6267   4.823   2.484   2.092
 2108TIP3    H2 6268   4.893   2.364   2.034
 2109TIP3   OH2 6269   5.615   0.908   1.282
 2109TIP3    H1 6270   5.545   0.844   1.285
 2109TIP3    H2 6271   5.636   0.917   1.189
 2110TIP3   OH2 6272   5.628   5.587   4.723
 2110TIP3    H1 6273   5.645   5.640   4.800
 2110TIP3    H2 6274   5.582   5.646   4.663
 2111TIP3   OH2 6275   1.266   3.272   0.882
 2111TIP3    H1 6276   1.174   3.252   0.897
 2111TIP3    H2 6277   1.284   3.347   0.938
 2112TIP3   OH2 6278   0.932   5.038   4.669
 2112TIP3    H1 6279   0.983   5.118   4.652
 2112TIP3    H2 6280   0.931   5.031   4.765
 2113TIP3   OH2 6281   5.421   5.160   2.127
 2113TIP3    H1 6282   5.371   5.163   2.045
 2113TIP3    H2 6283   5.401   5.073   2.163
 2114TIP3   OH2 6284   5.116   0.046   4.984
 2114TIP3    H1 6285   5.149   0.136   4.981
 2114TIP3    H2 6286   5.038   0.047   4.929
 2115TIP3   OH2 6287   7.309   2.093   5.041
 2115TIP3    H1 6288   7.397   2.064   5.016
 2115TIP3    H2 6289   7.253   2.018   5.022
 2116TIP3   OH2 6290   6.469   6.315   0.055
 2116TIP3    H1 6291   6.546   6.368   0.076
 2116TIP3    H2 6292   6.449   6.338  -0.036
 2117TIP3   OH2 6293   3.743   1.738   0.683
 2117TIP3    H1 6294   3.832   1.722   0.716
 2117TIP3    H2 6295   3.709   1.651   0.661
 2118TIP3   OH2 6296   1.545   1.506   0.548
 2118TIP3    H1 6297   1.609   1.470   0.486
 2118TIP3    H2 6298   1.462   1.505   0.500
 2119TIP3   OH2 6299   7.833   7.088   3.490
 2119TIP3    H1 6300   7.898   7.057   3.427
 2119TIP3    H2 6301   7.750   7.052   3.459
 2120TIP3   OH2 6302   7.231   0.610   0.047
 2120TIP3    H1 6303   7.255   0.520   0.024
 2120TIP3    H2 6304   7.305   0.642   0.098
 2121TIP3   OH2 6305   1.248   6.306   5.937
 2121TIP3    H1 6306   1.212   6.224   5.971
 2121TIP3    H2 6307   1.342   6.291   5.933
 2122TIP3   OH2 6308   1.624   6.098   2.493
 2122TIP3    H1 6309   1.539   6.094   2.449
 2122TIP3    H2 6310   1.623   6.024   2.554
 2123TIP3   OH2 6311   3.616   1.246   2.708
 2123TIP3    H1 6312   3.613   1.235   2.613
 2123TIP3    H2 6313   3.630   1.158   2.742
 2124TIP3   OH2 6314   6.939   6.012   5.285
 2124TIP3    H1 6315   6.948   6.011   5.380
 2124TIP3    H2 6316   6.864   6.070   5.269
 2125TIP3   OH2 6317   5.690   1.899   0.686
 2125TIP3    H1 6318   5.689   1.989   0.720
 2125TIP3    H2 6319   5.597   1.879   0.670
 2126TIP3   OH2 6320   0.285   2.889   4.762
 2126TIP3    H1 6321   0.201   2.930   4.780
 2126TIP3    H2 6322   0.263   2.801   4.733
 2127TIP3   OH2 6323   7.349   5.526   0.715
 2127TIP3    H1 6324   7.303   5.592   0.663
 2127TIP3    H2 6325   7.410   5.486   0.653
 2128TIP3   OH2 6326   2.196   7.173   3.724
 2128TIP3    H1 6327   2.181   7.117   3.648
 2128TIP3    H2 6328   2.108   7.195   3.755
 2129TIP3   OH2 6329   5.953   4.577   4.345
 2129TIP3    H1 6330   5.981   4.597   4.256
 2129TIP3    H2 6331   5.889   4.506   4.336
 2130TIP3   OH2 6332   4.476   2.907   6.322
 2130TIP3    H1 6333   4.428   2.906   6.239
 2130TIP3    H2 6334   4.508   2.996   6.331
 2131TIP3   OH2 6335   6.864   5.668   4.593
 2131TIP3    H1 6336   6.822   5.687   4.509
 2131TIP3    H2 6337   6.820   5.588   4.623
 2132TIP3   OH2 6338   1.544   2.773   3.832
 2132TIP3    H1 6339   1.448   2.780   3.838
 2132TIP3    H2 6340   1.563   2.781   3.739
 2133TIP3   OH2 6341   6.777   4.334   0.221
 2133TIP3    H1 6342   6.846   4.267   0.220
 2133TIP3    H2 6343   6.755   4.344   0.314
 2134TIP3   OH2 6344   4.561   5.569   0.847
 2134TIP3    H1 6345   4.641   5.595   0.801
 2134TIP3    H2 6346   4.499   5.548   0.778
 2135TIP3   OH2 6347   7.473   5.711   5.919
 2135TIP3    H1 6348   7.452   5.804   5.923
 2135TIP3    H2 6349   7.568   5.707   5.906
 2136TIP3   OH2 6350   2.945   4.029   2.498
 2136TIP3    H1 6351   3.015   3.987   2.449
 2136TIP3    H2 6352   2.936   3.976   2.577
 2137TIP3   OH2 6353   1.142   4.817   0.873
 2137TIP3    H1 6354   1.110   4.905   0.893
 2137TIP3    H2 6355   1.152   4.816   0.777
 2138TIP3   OH2 6356   2.423   5.904   0.350
 2138TIP3    H1 6357   2.335   5.937   0.364
 2138TIP3    H2 6358   2.480   5.965   0.397
 2139TIP3   OH2 6359   5.039   1.441   5.943
 2139TIP3    H1 6360   5.073   1.462   6.030
 2139TIP3    H2 6361   4.965   1.501   5.932
 2140TIP3   OH2 6362   8.252   7.294   6.037
 2140TIP3    H1 6363   8.194   7.351   6.087
 2140TIP3    H2 6364   8.217   7.206   6.050
 2141TIP3   OH2 6365   1.324   7.240   2.946
 2141TIP3    H1 6366   1.306   7.321   2.897
 2141TIP3    H2 6367   1.256   7.179   2.916
 2142TIP3   OH2 6368   6.150   2.978   0.897
 2142TIP3    H1 6369   6.096   2.978   0.977
 2142TIP3    H2 6370   6.156   2.886   0.873
 2143TIP3   OH2 6371   3.492   5.210   5.113
 2143TIP3    H1 6372   3.435   5.283   5.092
 2143TIP3    H2 6373   3.461   5.138   5.058
 2144TIP3   OH2 6374   5.181   0.738   1.851
 2144TIP3    H1 6375   5.115   0.701   1.910
 2144TIP3    H2 6376   5.179   0.681   1.774
 2145TIP3   OH2 6377   5.800   2.385   6.521
 2145TIP3    H1 6378   5.890   2.406   6.545
 2145TIP3    H2 6379   5.756   2.470   6.516
 2146TIP3   OH2 6380   4.953   4.743   0.895
 2146TIP3    H1 6381   4.942   4.780   0.807
 2146TIP3    H2 6382   4.879   4.684   0.906
 2147TIP3   OH2 6383   7.622   5.274   0.110
 2147TIP3    H1 6384   7.527   5.268   0.099
 2147TIP3    H2 6385   7.658   5.232   0.031
 2148TIP3   OH2 6386   4.130   5.574   5.000
 2148TIP3    H1 6387   4.069   5.533   5.062
 2148TIP3    H2 6388   4.190   5.503   4.976
 2149TIP3   OH2 6389   3.241   1.483   1.416
 2149TIP3    H1 6390   3.177   1.414   1.396
 2149TIP3    H2 6391   3.212   1.519   1.500
 2150TIP3   OH2 6392   6.594   6.260   3.433
 2150TIP3    H1 6393   6.604   6.306   3.349
 2150TIP3    H2 6394   6.683   6.236   3.458
 2151TIP3   OH2 6395   5.065   2.403   3.874
 2151TIP3    H1 6396   5.134   2.341   3.850
 2151TIP3    H2 6397   5.111   2.474   3.920
 2152TIP3   OH2 6398   0.102   0.440   0.706
 2152TIP3    H1 6399   0.057   0.410   0.785
 2152TIP3    H2 6400   0.089   0.535   0.705
 2153TIP3   OH2 6401   6.045   3.014   5.527
 2153TIP3    H1 6402   6.120   2.998   5.469
 2153TIP3    H2 6403   5.983   2.944   5.507
 2154TIP3   OH2 6404   3.055   3.778   5.205
 2154TIP3    H1 6405   2.971   3.792   5.162
 2154TIP3    H2 6406   3.107   3.855   5.181
 2155TIP3   OH2 6407   8.243   2.670   3.068
 2155TIP3    H1 6408   8.157   2.712   3.059
 2155TIP3    H2 6409   8.305   2.743   3.064
 2156TIP3   OH2 6410   8.089   5.630   3.708
 2156TIP3    H1 6411   8.137   5.701   3.666
 2156TIP3    H2 6412   8.082   5.563   3.640
 2157TIP3   OH2 6413   2.135   1.823   0.159
 2157TIP3    H1 6414   2.106   1.907   0.193
 2157TIP3    H2 6415   2.054   1.779   0.132
 2158TIP3   OH2 6416   4.068   0.992   5.836
 2158TIP3    H1 6417   3.983   1.032   5.823
 2158TIP3    H2 6418   4.094   0.963   5.749
 2159TIP3   OH2 6419   5.331   3.934   1.652
 2159TIP3    H1 6420   5.424   3.942   1.631
 2159TIP3    H2 6421   5.290   4.010   1.611
 2160TIP3   OH2 6422   6.124   2.494   3.114
 2160TIP3    H1 6423   6.128   2.401   3.136
 2160TIP3    H2 6424   6.185   2.503   3.041
 2161TIP3   OH2 6425   5.328   1.198   0.480
 2161TIP3    H1 6426   5.364   1.235   0.399
 2161TIP3    H2 6427   5.253   1.254   0.500
 2162TIP3   OH2 6428   4.322   1.577   2.724
 2162TIP3    H1 6429   4.331   1.520   2.648
 2162TIP3    H2 6430   4.281   1.523   2.791
 2163TIP3   OH2 6431   2.528   1.656   4.628
 2163TIP3    H1 6432   2.545   1.564   4.646
 2163TIP3    H2 6433   2.616   1.696   4.622
 2164TIP3   OH2 6434   8.288   3.324   2.584
 2164TIP3    H1 6435   8.207   3.291   2.543
 2164TIP3    H2 6436   8.282   3.419   2.577
 2165TIP3   OH2 6437   4.813   4.463   2.728
 2165TIP3    H1 6438   4.783   4.386   2.777
 2165TIP3    H2 6439   4.733   4.502   2.693
 2166TIP3   OH2 6440   6.532   6.316   0.569
 2166TIP3    H1 6441   6.579   6.332   0.487
 2166TIP3    H2 6442   6.493   6.229   0.556
 2167TIP3   OH2 6443   7.390   2.800   2.419
 2167TIP3    H1 6444   7.435   2.885   2.421
 2167TIP3    H2 6445   7.409   2.766   2.332
 2168TIP3   OH2 6446   1.122   7.393   6.368
 2168TIP3    H1 6447   1.111   7.424   6.458
 2168TIP3    H2 6448   1.033   7.385   6.335
 2169TIP3   OH2 6449   0.586   5.055   3.238
 2169TIP3    H1 6450   0.621   5.060   3.327
 2169TIP3    H2 6451   0.535   4.973   3.237
 2170TIP3   OH2 6452   5.615   2.049   3.642
 2170TIP3    H1 6453   5.652   1.971   3.684
 2170TIP3    H2 6454   5.521   2.031   3.635
 2171TIP3   OH2 6455   2.541   6.259   1.955
 2171TIP3    H1 6456   2.636   6.245   1.955
 2171TIP3    H2 6457   2.514   6.245   2.045
 2172TIP3   OH2 6458   0.797   4.671   1.317
 2172TIP3    H1 6459   0.744   4.701   1.391
 2172TIP3    H2 6460   0.779   4.578   1.311
 2173TIP3   OH2 6461   4.482   6.208   2.595
 2173TIP3    H1 6462   4.467   6.154   2.673
 2173TIP3    H2 6463   4.423   6.172   2.529
 2174TIP3   OH2 6464   3.292   3.434   5.003
 2174TIP3    H1 6465   3.265   3.409   4.915
 2174TIP3    H2 6466   3.305   3.529   4.998
 2175TIP3   OH2 6467   1.630   0.868   0.299
 2175TIP3    H1 6468   1.641   0.889   0.206
 2175TIP3    H2 6469   1.648   0.774   0.305
 2176TIP3   OH2 6470   1.525   5.179   6.325
 2176TIP3    H1 6471   1.574   5.176   6.407
 2176TIP3    H2 6472   1.590   5.197   6.258
 2177TIP3   OH2 6473   2.001   1.364   5.937
 2177TIP3    H1 6474   2.033   1.282   5.900
 2177TIP3    H2 6475   1.924   1.385   5.885
 2178TIP3   OH2 6476   6.603   7.401   0.956
 2178TIP3    H1 6477   6.585   7.307   0.957
 2178TIP3    H2 6478   6.670   7.412   0.889
 2179TIP3   OH2 6479   6.255   5.801   2.522
 2179TIP3    H1 6480   6.330   5.751   2.490
 2179TIP3    H2 6481   6.180   5.762   2.479
 2180TIP3   OH2 6482   8.009   3.573   0.558
 2180TIP3    H1 6483   8.020   3.668   0.559
 2180TIP3    H2 6484   8.053   3.545   0.478
 2181TIP3   OH2 6485   6.043   0.358   4.625
 2181TIP3    H1 6486   5.976   0.360   4.693
 2181TIP3    H2 6487   5.998   0.395   4.548
 2182TIP3   OH2 6488   7.566   7.509   1.752
 2182TIP3    H1 6489   7.626   7.569   1.794
 2182TIP3    H2 6490   7.621   7.436   1.722
 2183TIP3   OH2 6491   0.274   5.130   3.705
 2183TIP3    H1 6492   0.349   5.115   3.762
 2183TIP3    H2 6493   0.228   5.204   3.745
 2184TIP3   OH2 6494   8.111   3.303   5.354
 2184TIP3    H1 6495   8.097   3.213   5.382
 2184TIP3    H2 6496   8.024   3.343   5.360
 2185TIP3   OH2 6497   2.609   6.361   3.996
 2185TIP3    H1 6498   2.551   6.338   3.924
 2185TIP3    H2 6499   2.669   6.425   3.959
 2186TIP3   OH2 6500   7.712   5.166   3.982
 2186TIP3    H1 6501   7.793   5.204   3.947
 2186TIP3    H2 6502   7.691   5.096   3.921
 2187TIP3   OH2 6503   7.994   5.319   4.540
 2187TIP3    H1 6504   7.919   5.302   4.597
 2187TIP3    H2 6505   7.956   5.365   4.464
 2188TIP3   OH2 6506   5.760   5.147   5.799
 2188TIP3    H1 6507   5.811   5.223   5.827
 2188TIP3    H2 6508   5.771   5.084   5.870
 2189TIP3   OH2 6509   2.366   6.365   2.942
 2189TIP3    H1 6510   2.273   6.356   2.961
 2189TIP3    H2 6511   2.382   6.309   2.866
 2190TIP3   OH2 6512   3.605   2.820   4.853
 2190TIP3    H1 6513   3.600   2.835   4.948
 2190TIP3    H2 6514   3.519   2.786   4.829
 2191TIP3   OH2 6515   2.380   3.928   6.007
 2191TIP3    H1 6516   2.468   3.928   6.044
 2191TIP3    H2 6517   2.391   3.891   5.919
 2192TIP3   OH2 6518   4.389   7.252   5.786
 2192TIP3    H1 6519   4.302   7.245   5.748
 2192TIP3    H2 6520   4.449   7.234   5.713
 2193TIP3   OH2 6521   6.668   7.470   0.129
 2193TIP3    H1 6522   6.624   7.488   0.046
 2193TIP3    H2 6523   6.760   7.494   0.112
 2194TIP3   OH2 6524   2.811   6.766   3.886
 2194TIP3    H1 6525   2.783   6.764   3.795
 2194TIP3    H2 6526   2.836   6.675   3.905
 2195TIP3   OH2 6527   5.297   1.456   2.100
 2195TIP3    H1 6528   5.283   1.368   2.135
 2195TIP3    H2 6529   5.210   1.494   2.095
 2196TIP3   OH2 6530   1.396   7.260   2.225
 2196TIP3    H1 6531   1.491   7.253   2.220
 2196TIP3    H2 6532   1.374   7.340   2.177
 2197TIP3   OH2 6533   1.609   1.759   5.972
 2197TIP3    H1 6534   1.659   1.834   6.003
 2197TIP3    H2 6535   1.645   1.740   5.885
 2198TIP3   OH2 6536   2.034   1.914   4.781
 2198TIP3    H1 6537   2.081   1.985   4.736
 2198TIP3    H2 6538   2.082   1.901   4.863
 2199TIP3   OH2 6539   4.297   1.932   4.111
 2199TIP3    H1 6540   4.356   1.930   4.187
 2199TIP3    H2 6541   4.246   2.012   4.123
 2200TIP3   OH2 6542   0.590   1.492   2.821
 2200TIP3    H1 6543   0.610   1.531   2.736
 2200TIP3    H2 6544   0.647   1.415   2.826
 2201TIP3   OH2 6545   5.779   7.111   2.124
 2201TIP3    H1 6546   5.855   7.169   2.122
 2201TIP3    H2 6547   5.728   7.135   2.047
 2202TIP3   OH2 6548   3.759   1.080   5.355
 2202TIP3    H1 6549   3.673   1.044   5.336
 2202TIP3    H2 6550   3.753   1.172   5.331
 2203TIP3   OH2 6551   3.074   2.242   2.730
 2203TIP3    H1 6552   3.114   2.245   2.817
 2203TIP3    H2 6553   3.146   2.262   2.670
 2204TIP3   OH2 6554   4.978   7.459   5.222
 2204TIP3    H1 6555   4.944   7.535   5.268
 2204TIP3    H2 6556   5.015   7.403   5.290
 2205TIP3   OH2 6557   2.287   1.825   5.940
 2205TIP3    H1 6558   2.370   1.824   5.892
 2205TIP3    H2 6559   2.305   1.777   6.021
 2206TIP3   OH2 6560   4.921   4.561   1.777
 2206TIP3    H1 6561   4.978   4.576   1.852
 2206TIP3    H2 6562   4.894   4.649   1.750
 2207TIP3   OH2 6563   0.568   3.969   5.055
 2207TIP3    H1 6564   0.600   3.944   5.142
 2207TIP3    H2 6565   0.582   3.891   5.001
 2208TIP3   OH2 6566   6.566   7.614   1.871
 2208TIP3    H1 6567   6.593   7.627   1.779
 2208TIP3    H2 6568   6.480   7.572   1.865
 2209TIP3   OH2 6569   2.823   3.591   4.246
 2209TIP3    H1 6570   2.736   3.603   4.209
 2209TIP3    H2 6571   2.882   3.607   4.172
 2210TIP3   OH2 6572   3.351   5.839   0.741
 2210TIP3    H1 6573   3.273   5.798   0.704
 2210TIP3    H2 6574   3.318   5.911   0.794
 2211TIP3   OH2 6575   2.224   3.368   5.712
 2211TIP3    H1 6576   2.200   3.361   5.804
 2211TIP3    H2 6577   2.279   3.292   5.695
 2212TIP3   OH2 6578   7.511   5.135   1.470
 2212TIP3    H1 6579   7.597   5.118   1.508
 2212TIP3    H2 6580   7.482   5.216   1.511
 2213TIP3   OH2 6581   6.398   7.584   0.889
 2213TIP3    H1 6582   6.467   7.521   0.910
 2213TIP3    H2 6583   6.341   7.583   0.965
 2214TIP3   OH2 6584   0.072   5.313   6.750
 2214TIP3    H1 6585   0.142   5.336   6.689
 2214TIP3    H2 6586   0.117   5.303   6.834
 2215TIP3   OH2 6587   8.186   5.668   6.402
 2215TIP3    H1 6588   8.117   5.716   6.357
 2215TIP3    H2 6589   8.185   5.581   6.363
 2216TIP3   OH2 6590   1.125   4.790   5.612
 2216TIP3    H1 6591   1.200   4.737   5.584
 2216TIP3    H2 6592   1.052   4.728   5.615
 2217TIP3   OH2 6593   1.264   7.468   0.677
 2217TIP3    H1 6594   1.329   7.477   0.747
 2217TIP3    H2 6595   1.274   7.547   0.625
 2218TIP3   OH2 6596   2.294   7.656   4.559
 2218TIP3    H1 6597   2.373   7.669   4.612
 2218TIP3    H2 6598   2.288   7.734   4.505
 2219TIP3   OH2 6599   2.010   3.734   4.927
 2219TIP3    H1 6600   1.932   3.702   4.971
 2219TIP3    H2 6601   2.081   3.720   4.990
 2220TIP3   OH2 6602   5.536   7.666   0.730
 2220TIP3    H1 6603   5.566   7.757   0.737
 2220TIP3    H2 6604   5.464   7.669   0.667
 2221TIP3   OH2 6605   0.469   3.661   5.693
 2221TIP3    H1 6606   0.489   3.614   5.612
 2221TIP3    H2 6607   0.425   3.597   5.748
 2222TIP3   OH2 6608   0.326   3.482   3.228
 2222TIP3    H1 6609   0.421   3.474   3.240
 2222TIP3    H2 6610   0.289   3.447   3.308
 2223TIP3   OH2 6611   2.233   1.065   6.104
 2223TIP3    H1 6612   2.262   1.156   6.114
 2223TIP3    H2 6613   2.240   1.028   6.192
 2224TIP3   OH2 6614   4.518   1.954   5.831
 2224TIP3    H1 6615   4.509   1.879   5.890
 2224TIP3    H2 6616   4.428   1.976   5.806
 2225TIP3   OH2 6617   2.225   3.461   6.460
 2225TIP3    H1 6618   2.245   3.548   6.427
 2225TIP3    H2 6619   2.200   3.474   6.551
 2226TIP3   OH2 6620   4.144   2.379   6.315
 2226TIP3    H1 6621   4.218   2.351   6.368
 2226TIP3    H2 6622   4.112   2.458   6.357
 2227TIP3   OH2 6623   5.613   1.512   4.082
 2227TIP3    H1 6624   5.667   1.517   4.161
 2227TIP3    H2 6625   5.617   1.420   4.056
 2228TIP3   OH2 6626   5.705   4.399   3.784
 2228TIP3    H1 6627   5.640   4.391   3.854
 2228TIP3    H2 6628   5.685   4.483   3.742
 2229TIP3   OH2 6629   7.285   2.977   1.565
 2229TIP3    H1 6630   7.198   2.946   1.590
 2229TIP3    H2 6631   7.316   3.024   1.643
 2230TIP3   OH2 6632   5.139   0.366   1.695
 2230TIP3    H1 6633   5.156   0.391   1.604
 2230TIP3    H2 6634   5.054   0.404   1.715
 2231TIP3   OH2 6635   1.348   7.169   1.245
 2231TIP3    H1 6636   1.389   7.188   1.160
 2231TIP3    H2 6637   1.269   7.223   1.245
 2232TIP3   OH2 6638   5.589   3.061   5.331
 2232TIP3    H1 6639   5.614   3.153   5.342
 2232TIP3    H2 6640   5.612   3.020   5.413
 2233TIP3   OH2 6641   5.344   4.587   0.794
 2233TIP3    H1 6642   5.424   4.638   0.782
 2233TIP3    H2 6643   5.277   4.634   0.745
 2234TIP3   OH2 6644   3.834   1.681   2.518
 2234TIP3    H1 6645   3.920   1.639   2.524
 2234TIP3    H2 6646   3.785   1.625   2.458
 2235TIP3   OH2 6647   1.964   4.216   6.174
 2235TIP3    H1 6648   1.891   4.242   6.229
 2235TIP3    H2 6649   2.035   4.196   6.235
 2236TIP3   OH2 6650   3.724   1.278   6.719
 2236TIP3    H1 6651   3.733   1.325   6.802
 2236TIP3    H2 6652   3.762   1.192   6.736
 2237TIP3   OH2 6653   1.521   0.509   3.886
 2237TIP3    H1 6654   1.551   0.596   3.859
 2237TIP3    H2 6655   1.429   0.521   3.908
 2238TIP3   OH2 6656   7.702   5.568   5.068
 2238TIP3    H1 6657   7.609   5.572   5.087
 2238TIP3    H2 6658   7.741   5.528   5.146
 2239TIP3   OH2 6659   1.691   5.820   3.837
 2239TIP3    H1 6660   1.638   5.900   3.844
 2239TIP3    H2 6661   1.742   5.833   3.757
 2240TIP3   OH2 6662   4.687   6.385   6.063
 2240TIP3    H1 6663   4.725   6.310   6.017
 2240TIP3    H2 6664   4.701   6.366   6.156
 2241TIP3   OH2 6665   6.606   0.971   5.169
 2241TIP3    H1 6666   6.594   0.973   5.074
 2241TIP3    H2 6667   6.689   1.017   5.183
 2242TIP3   OH2 6668   1.695   4.717   1.055
 2242TIP3    H1 6669   1.602   4.734   1.043
 2242TIP3    H2 6670   1.701   4.623   1.072
 2243TIP3   OH2 6671   5.615   7.200   3.359
 2243TIP3    H1 6672   5.637   7.293   3.356
 2243TIP3    H2 6673   5.657   7.163   3.282
 2244TIP3   OH2 6674   3.477   2.855   1.813
 2244TIP3    H1 6675   3.420   2.912   1.865
 2244TIP3    H2 6676   3.431   2.844   1.730
 2245TIP3   OH2 6677   7.684   1.964   0.414
 2245TIP3    H1 6678   7.633   2.015   0.477
 2245TIP3    H2 6679   7.764   2.015   0.401
 2246TIP3   OH2 6680   5.516   0.271   1.865
 2246TIP3    H1 6681   5.514   0.310   1.778
 2246TIP3    H2 6682   5.446   0.315   1.913
 2247TIP3   OH2 6683   3.383   1.094   5.470
 2247TIP3    H1 6684   3.445   1.165   5.456
 2247TIP3    H2 6685   3.365   1.095   5.564
 2248TIP3   OH2 6686   0.253   6.447   3.619
 2248TIP3    H1 6687   0.160   6.470   3.619
 2248TIP3    H2 6688   0.298   6.530   3.637
 2249TIP3   OH2 6689   7.876   2.424   1.041
 2249TIP3    H1 6690   7.841   2.502   1.085
 2249TIP3    H2 6691   7.799   2.383   1.001
 2250TIP3   OH2 6692   0.338   3.282   5.671
 2250TIP3    H1 6693   0.346   3.358   5.729
 2250TIP3    H2 6694   0.245   3.259   5.675
 2251TIP3   OH2 6695   4.946   7.431   5.571
 2251TIP3    H1 6696   4.984   7.359   5.521
 2251TIP3    H2 6697   4.908   7.388   5.649
 2252TIP3   OH2 6698   4.581   1.424   4.762
 2252TIP3    H1 6699   4.511   1.474   4.804
 2252TIP3    H2 6700   4.611   1.364   4.829
 2253TIP3   OH2 6701   6.525   4.438   0.438
 2253TIP3    H1 6702   6.448   4.488   0.410
 2253TIP3    H2 6703   6.503   4.347   0.418
 2254TIP3   OH2 6704   8.089   0.253   0.658
 2254TIP3    H1 6705   8.033   0.233   0.733
 2254TIP3    H2 6706   8.163   0.194   0.667
 2255TIP3   OH2 6707   2.151   0.312   0.935
 2255TIP3    H1 6708   2.074   0.365   0.959
 2255TIP3    H2 6709   2.207   0.374   0.888
 2256TIP3   OH2 6710   2.307   4.135   3.759
 2256TIP3    H1 6711   2.322   4.110   3.667
 2256TIP3    H2 6712   2.393   4.128   3.800
 2257TIP3   OH2 6713   7.706   1.792   1.625
 2257TIP3    H1 6714   7.699   1.704   1.664
 2257TIP3    H2 6715   7.773   1.783   1.558
 2258TIP3   OH2 6716   5.134   0.109   5.938
 2258TIP3    H1 6717   5.169   0.198   5.931
 2258TIP3    H2 6718   5.209   0.056   5.967
 2259TIP3   OH2 6719   1.442   1.466   4.115
 2259TIP3    H1 6720   1.489   1.489   4.035
 2259TIP3    H2 6721   1.350   1.459   4.088
 2260TIP3   OH2 6722   0.063   6.721   4.459
 2260TIP3    H1 6723   0.040   6.809   4.488
 2260TIP3    H2 6724   0.154   6.710   4.488
 2261TIP3   OH2 6725   2.800   1.198   4.510
 2261TIP3    H1 6726   2.866   1.181   4.442
 2261TIP3    H2 6727   2.811   1.125   4.572
 2262TIP3   OH2 6728   1.688   5.129   2.042
 2262TIP3    H1 6729   1.671   5.045   1.999
 2262TIP3    H2 6730   1.668   5.195   1.975
 2263TIP3   OH2 6731   4.968   2.081   4.316
 2263TIP3    H1 6732   4.957   2.140   4.241
 2263TIP3    H2 6733   5.026   2.013   4.284
 2264TIP3   OH2 6734   5.377   0.368   3.158
 2264TIP3    H1 6735   5.430   0.431   3.207
 2264TIP3    H2 6736   5.317   0.331   3.224
 2265TIP3   OH2 6737   0.009   3.358   3.100
 2265TIP3    H1 6738  -0.035   3.368   3.016
 2265TIP3    H2 6739   0.098   3.387   3.084
 2266TIP3   OH2 6740   7.843   6.288   5.305
 2266TIP3    H1 6741   7.899   6.315   5.232
 2266TIP3    H2 6742   7.903   6.246   5.367
 2267TIP3   OH2 6743   6.239   6.895   0.441
 2267TIP3    H1 6744   6.200   6.974   0.479
 2267TIP3    H2 6745   6.196   6.822   0.485
 2268TIP3   OH2 6746   0.719   6.491   3.807
 2268TIP3    H1 6747   0.750   6.444   3.885
 2268TIP3    H2 6748   0.639   6.445   3.782
 2269TIP3   OH2 6749   5.782   0.485   3.653
 2269TIP3    H1 6750   5.869   0.495   3.615
 2269TIP3    H2 6751   5.732   0.560   3.619
 2270TIP3   OH2 6752   6.627   3.437   4.425
 2270TIP3    H1 6753   6.655   3.398   4.343
 2270TIP3    H2 6754   6.553   3.494   4.401
 2271TIP3   OH2 6755   5.970   3.974   4.711
 2271TIP3    H1 6756   5.941   3.993   4.800
 2271TIP3    H2 6757   5.890   3.971   4.659
 2272TIP3   OH2 6758   6.474   4.645   0.146
 2272TIP3    H1 6759   6.412   4.610   0.210
 2272TIP3    H2 6760   6.542   4.687   0.198
 2273TIP3   OH2 6761   7.616   6.280   5.706
 2273TIP3    H1 6762   7.593   6.257   5.616
 2273TIP3    H2 6763   7.692   6.226   5.726
 2274TIP3   OH2 6764   1.264   5.223   5.318
 2274TIP3    H1 6765   1.337   5.224   5.256
 2274TIP3    H2 6766   1.302   5.255   5.400
 2275TIP3   OH2 6767   3.490   4.325   5.552
 2275TIP3    H1 6768   3.427   4.379   5.504
 2275TIP3    H2 6769   3.516   4.379   5.627
 2276TIP3   OH2 6770   0.250   5.499   2.788
 2276TIP3    H1 6771   0.340   5.496   2.757
 2276TIP3    H2 6772   0.212   5.417   2.758
 2277TIP3   OH2 6773   8.138   1.203   5.190
 2277TIP3    H1 6774   8.070   1.270   5.187
 2277TIP3    H2 6775   8.219   1.251   5.209
 2278TIP3   OH2 6776   0.082   1.478   0.387
 2278TIP3    H1 6777   0.036   1.545   0.436
 2278TIP3    H2 6778   0.102   1.410   0.451
 2279TIP3   OH2 6779   5.698   2.653   4.567
 2279TIP3    H1 6780   5.653   2.570   4.554
 2279TIP3    H2 6781   5.790   2.634   4.548
 2280TIP3   OH2 6782   1.294   0.743   2.588
 2280TIP3    H1 6783   1.320   0.740   2.680
 2280TIP3    H2 6784   1.210   0.697   2.585
 2281TIP3   OH2 6785   1.320   3.492   1.364
 2281TIP3    H1 6786   1.245   3.436   1.342
 2281TIP3    H2 6787   1.374   3.438   1.421
 2282TIP3   OH2 6788   7.562   4.643   3.846
 2282TIP3    H1 6789   7.526   4.574   3.790
 2282TIP3    H2 6790   7.485   4.686   3.884
 2283TIP3   OH2 6791   2.653   2.866   2.692
 2283TIP3    H1 6792   2.726   2.819   2.652
 2283TIP3    H2 6793   2.575   2.828   2.651
 2284TIP3   OH2 6794   1.935   2.549   4.433
 2284TIP3    H1 6795   1.984   2.526   4.354
 2284TIP3    H2 6796   1.854   2.499   4.426
 2285TIP3   OH2 6797   1.319   3.387   5.301
 2285TIP3    H1 6798   1.385   3.383   5.371
 2285TIP3    H2 6799   1.278   3.300   5.303
 2286TIP3   OH2 6800   7.421   7.252   6.061
 2286TIP3    H1 6801   7.460   7.302   5.989
 2286TIP3    H2 6802   7.419   7.314   6.134
 2287TIP3   OH2 6803   0.809   4.110   0.830
 2287TIP3    H1 6804   0.870   4.037   0.819
 2287TIP3    H2 6805   0.785   4.134   0.740
 2288TIP3   OH2 6806   7.837   4.121   4.171
 2288TIP3    H1 6807   7.791   4.041   4.146
 2288TIP3    H2 6808   7.900   4.093   4.237
 2289TIP3   OH2 6809   5.698   1.875   6.472
 2289TIP3    H1 6810   5.661   1.942   6.529
 2289TIP3    H2 6811   5.756   1.824   6.529
 2290TIP3   OH2 6812   3.871   1.770   4.760
 2290TIP3    H1 6813   3.825   1.691   4.787
 2290TIP3    H2 6814   3.884   1.820   4.840
 2291TIP3   OH2 6815   5.543   2.587   2.640
 2291TIP3    H1 6816   5.549   2.560   2.731
 2291TIP3    H2 6817   5.489   2.666   2.641
 2292TIP3   OH2 6818   5.136   5.869   2.366
 2292TIP3    H1 6819   5.129   5.933   2.436
 2292TIP3    H2 6820   5.216   5.893   2.319
 2293TIP3   OH2 6821   5.213   3.394   2.907
 2293TIP3    H1 6822   5.243   3.483   2.892
 2293TIP3    H2 6823   5.228   3.349   2.823
 2294TIP3   OH2 6824   8.215   0.698   3.335
 2294TIP3    H1 6825   8.156   0.625   3.352
 2294TIP3    H2 6826   8.190   0.765   3.399
 2295TIP3   OH2 6827   3.177   4.046   1.670
 2295TIP3    H1 6828   3.211   4.115   1.727
 2295TIP3    H2 6829   3.124   4.093   1.605
 2296TIP3   OH2 6830   4.512   5.992   6.618
 2296TIP3    H1 6831   4.480   6.003   6.708
 2296TIP3    H2 6832   4.522   6.082   6.586
 2297TIP3   OH2 6833   4.424   3.632   1.071
 2297TIP3    H1 6834   4.497   3.670   1.021
 2297TIP3    H2 6835   4.432   3.671   1.158
 2298TIP3   OH2 6836   2.039   3.950   1.582
 2298TIP3    H1 6837   2.053   3.906   1.666
 2298TIP3    H2 6838   1.945   3.967   1.579
 2299TIP3   OH2 6839   2.279   1.661   1.096
 2299TIP3    H1 6840   2.230   1.732   1.054
 2299TIP3    H2 6841   2.235   1.648   1.180
 2300TIP3   OH2 6842   4.708   2.003   4.410
 2300TIP3    H1 6843   4.731   1.947   4.484
 2300TIP3    H2 6844   4.789   2.011   4.359
 2301TIP3   OH2 6845   7.140   0.601   6.429
 2301TIP3    H1 6846   7.151   0.674   6.489
 2301TIP3    H2 6847   7.145   0.523   6.485
 2302TIP3   OH2 6848   4.999   5.261   1.957
 2302TIP3    H1 6849   4.997   5.339   2.013
 2302TIP3    H2 6850   5.007   5.188   2.018
 2303TIP3   OH2 6851   6.473   7.183   0.435
 2303TIP3    H1 6852   6.489   7.278   0.442
 2303TIP3    H2 6853   6.502   7.161   0.346
 2304TIP3   OH2 6854   3.094   0.741   2.365
 2304TIP3    H1 6855   3.145   0.755   2.445
 2304TIP3    H2 6856   3.113   0.818   2.310
 2305TIP3   OH2 6857   5.209   4.191   1.296
 2305TIP3    H1 6858   5.232   4.283   1.305
 2305TIP3    H2 6859   5.293   4.146   1.285
 2306TIP3   OH2 6860   7.474   7.047   2.544
 2306TIP3    H1 6861   7.521   7.124   2.578
 2306TIP3    H2 6862   7.382   7.073   2.548
 2307TIP3   OH2 6863   6.104   6.960   4.353
 2307TIP3    H1 6864   6.160   6.957   4.275
 2307TIP3    H2 6865   6.022   6.920   4.325
 2308TIP3   OH2 6866   7.879   6.400   5.707
 2308TIP3    H1 6867   7.861   6.322   5.654
 2308TIP3    H2 6868   7.794   6.443   5.715
 2309TIP3   OH2 6869   2.701   4.292   4.111
 2309TIP3    H1 6870   2.678   4.283   4.019
 2309TIP3    H2 6871   2.783   4.243   4.120
 2310TIP3   OH2 6872   7.330   6.162   2.945
 2310TIP3    H1 6873   7.316   6.090   3.006
 2310TIP3    H2 6874   7.294   6.130   2.862
 2311TIP3   OH2 6875   5.197   3.385   6.385
 2311TIP3    H1 6876   5.276   3.383   6.439
 2311TIP3    H2 6877   5.210   3.460   6.327
 2312TIP3   OH2 6878   5.697   3.743   2.019
 2312TIP3    H1 6879   5.689   3.673   1.954
 2312TIP3    H2 6880   5.725   3.820   1.968
 2313TIP3   OH2 6881   0.384   2.041   5.002
 2313TIP3    H1 6882   0.459   1.998   5.043
 2313TIP3    H2 6883   0.421   2.119   4.962
 2314TIP3   OH2 6884   7.709   0.891   0.793
 2314TIP3    H1 6885   7.689   0.880   0.700
 2314TIP3    H2 6886   7.787   0.947   0.794
 2315TIP3   OH2 6887   6.924   1.398   3.874
 2315TIP3    H1 6888   6.999   1.445   3.839
 2315TIP3    H2 6889   6.856   1.409   3.808
 2316TIP3   OH2 6890   3.439   1.819   3.173
 2316TIP3    H1 6891   3.426   1.887   3.106
 2316TIP3    H2 6892   3.529   1.833   3.204
 2317TIP3   OH2 6893   7.106   0.535   3.550
 2317TIP3    H1 6894   7.090   0.442   3.568
 2317TIP3    H2 6895   7.037   0.580   3.597
 2318TIP3   OH2 6896   2.016   7.262   2.584
 2318TIP3    H1 6897   1.952   7.195   2.560
 2318TIP3    H2 6898   2.090   7.247   2.525
 2319TIP3   OH2 6899   1.889   3.446   4.636
 2319TIP3    H1 6900   1.915   3.411   4.721
 2319TIP3    H2 6901   1.806   3.402   4.617
 2320TIP3   OH2 6902   5.902   7.083   0.780
 2320TIP3    H1 6903   5.867   7.172   0.771
 2320TIP3    H2 6904   5.837   7.038   0.834
 2321TIP3   OH2 6905   2.745   0.240   0.217
 2321TIP3    H1 6906   2.772   0.250   0.309
 2321TIP3    H2 6907   2.725   0.147   0.209
 2322TIP3   OH2 6908   1.292   5.428   6.091
 2322TIP3    H1 6909   1.285   5.341   6.052
 2322TIP3    H2 6910   1.202   5.457   6.102
 2323TIP3   OH2 6911   1.533   6.591   4.897
 2323TIP3    H1 6912   1.597   6.552   4.957
 2323TIP3    H2 6913   1.454   6.600   4.950
 2324TIP3   OH2 6914   6.187   6.372   5.883
 2324TIP3    H1 6915   6.266   6.383   5.936
 2324TIP3    H2 6916   6.142   6.456   5.888
 2325TIP3   OH2 6917   1.496   0.742   5.793
 2325TIP3    H1 6918   1.508   0.667   5.736
 2325TIP3    H2 6919   1.515   0.709   5.881
 2326TIP3   OH2 6920   6.594   0.090   6.015
 2326TIP3    H1 6921   6.662   0.024   6.006
 2326TIP3    H2 6922   6.640   0.174   6.002
 2327TIP3   OH2 6923   7.349   5.551   5.434
 2327TIP3    H1 6924   7.426   5.495   5.439
 2327TIP3    H2 6925   7.289   5.504   5.375
 2328TIP3   OH2 6926   8.305   6.480   4.803
 2328TIP3    H1 6927   8.226   6.447   4.761
 2328TIP3    H2 6928   8.368   6.491   4.732
 2329TIP3   OH2 6929   2.070   4.080   5.092
 2329TIP3    H1 6930   2.103   4.087   5.003
 2329TIP3    H2 6931   2.005   4.150   5.100
 2330TIP3   OH2 6932   5.909   3.382   6.248
 2330TIP3    H1 6933   5.866   3.356   6.329
 2330TIP3    H2 6934   5.990   3.331   6.246
 2331TIP3   OH2 6935   5.886   6.470   5.688
 2331TIP3    H1 6936   5.810   6.475   5.631
 2331TIP3    H2 6937   5.929   6.388   5.663
 2332TIP3   OH2 6938   2.590   4.425   4.365
 2332TIP3    H1 6939   2.629   4.368   4.299
 2332TIP3    H2 6940   2.597   4.376   4.447
 2333TIP3   OH2 6941   5.603   4.908   1.464
 2333TIP3    H1 6942   5.517   4.870   1.443
 2333TIP3    H2 6943   5.665   4.856   1.412
 2334TIP3   OH2 6944   7.489   1.190   6.218
 2334TIP3    H1 6945   7.522   1.164   6.304
 2334TIP3    H2 6946   7.453   1.109   6.181
 2335TIP3   OH2 6947   1.723   7.146   1.441
 2335TIP3    H1 6948   1.751   7.160   1.532
 2335TIP3    H2 6949   1.628   7.139   1.446
 2336TIP3   OH2 6950   0.480   3.045   2.011
 2336TIP3    H1 6951   0.408   3.070   1.954
 2336TIP3    H2 6952   0.451   3.069   2.099
 2337TIP3   OH2 6953   6.470   6.898   5.742
 2337TIP3    H1 6954   6.467   6.911   5.837
 2337TIP3    H2 6955   6.517   6.815   5.731
 2338TIP3   OH2 6956   2.460   5.061   1.525
 2338TIP3    H1 6957   2.512   5.088   1.449
 2338TIP3    H2 6958   2.388   5.124   1.528
 2339TIP3   OH2 6959   5.341   4.896   2.884
 2339TIP3    H1 6960   5.280   4.949   2.833
 2339TIP3    H2 6961   5.316   4.806   2.866
 2340TIP3   OH2 6962   7.604   3.264   4.480
 2340TIP3    H1 6963   7.565   3.208   4.413
 2340TIP3    H2 6964   7.566   3.351   4.464
 2341TIP3   OH2 6965   0.527   0.445   4.791
 2341TIP3    H1 6966   0.602   0.503   4.807
 2341TIP3    H2 6967   0.520   0.391   4.869
 2342TIP3   OH2 6968   8.209   2.415   3.897
 2342TIP3    H1 6969   8.281   2.370   3.941
 2342TIP3    H2 6970   8.249   2.452   3.818
 2343TIP3   OH2 6971   1.450   2.410   3.822
 2343TIP3    H1 6972   1.482   2.466   3.893
 2343TIP3    H2 6973   1.526   2.357   3.798
 2344TIP3   OH2 6974   4.359   2.160   3.612
 2344TIP3    H1 6975   4.386   2.191   3.526
 2344TIP3    H2 6976   4.343   2.066   3.600
 2345TIP3   OH2 6977   2.437   0.891   3.589
 2345TIP3    H1 6978   2.427   0.923   3.679
 2345TIP3    H2 6979   2.500   0.952   3.550
 2346TIP3   OH2 6980   0.384   3.641   3.847
 2346TIP3    H1 6981   0.430   3.603   3.922
 2346TIP3    H2 6982   0.297   3.603   3.850
 2347TIP3   OH2 6983   3.073   6.477   2.482
 2347TIP3    H1 6984   3.040   6.388   2.486
 2347TIP3    H2 6985   3.056   6.513   2.570
 2348TIP3   OH2 6986   4.859   5.813   4.846
 2348TIP3    H1 6987   4.811   5.886   4.884
 2348TIP3    H2 6988   4.934   5.854   4.804
 2349TIP3   OH2 6989   5.806   6.646   0.150
 2349TIP3    H1 6990   5.860   6.705   0.202
 2349TIP3    H2 6991   5.793   6.692   0.067
 2350TIP3   OH2 6992   6.632   1.554   6.169
 2350TIP3    H1 6993   6.660   1.470   6.132
 2350TIP3    H2 6994   6.713   1.596   6.196
 2351TIP3   OH2 6995   4.567   4.343   6.274
 2351TIP3    H1 6996   4.545   4.355   6.181
 2351TIP3    H2 6997   4.649   4.390   6.285
 2352TIP3   OH2 6998   2.887   4.568   2.578
 2352TIP3    H1 6999   2.922   4.489   2.620
 2352TIP3    H2 7000   2.875   4.543   2.487
 2353TIP3   OH2 7001   6.533   1.769   2.157
 2353TIP3    H1 7002   6.468   1.781   2.226
 2353TIP3    H2 7003   6.530   1.675   2.137
 2354TIP3   OH2 7004   2.797   2.789   3.855
 2354TIP3    H1 7005   2.842   2.855   3.909
 2354TIP3    H2 7006   2.783   2.832   3.771
 2355TIP3   OH2 7007   2.526   6.232   3.115
 2355TIP3    H1 7008   2.464   6.294   3.078
 2355TIP3    H2 7009   2.554   6.271   3.198
 2356TIP3   OH2 7010   3.072   0.710   5.325
 2356TIP3    H1 7011   2.986   0.709   5.282
 2356TIP3    H2 7012   3.096   0.802   5.327
 2357TIP3   OH2 7013   7.626   0.261   0.370
 2357TIP3    H1 7014   7.618   0.166   0.370
 2357TIP3    H2 7015   7.679   0.281   0.447
 2358TIP3   OH2 7016   7.512   4.726   4.708
 2358TIP3    H1 7017   7.521   4.802   4.650
 2358TIP3    H2 7018   7.421   4.699   4.699
 2359TIP3   OH2 7019   6.956   4.026   4.697
 2359TIP3    H1 7020   6.912   4.082   4.634
 2359TIP3    H2 7021   7.038   4.071   4.717
 2360TIP3   OH2 7022   3.948   5.511   6.174
 2360TIP3    H1 7023   4.030   5.503   6.126
 2360TIP3    H2 7024   3.899   5.578   6.126
 2361TIP3   OH2 7025   2.621   4.896   0.172
 2361TIP3    H1 7026   2.703   4.942   0.155
 2361TIP3    H2 7027   2.560   4.963   0.203
 2362TIP3   OH2 7028   0.199   4.615   2.879
 2362TIP3    H1 7029   0.177   4.527   2.848
 2362TIP3    H2 7030   0.279   4.638   2.832
 2363TIP3   OH2 7031   3.812   3.850   2.851
 2363TIP3    H1 7032   3.802   3.937   2.812
 2363TIP3    H2 7033   3.739   3.800   2.815
 2364TIP3   OH2 7034   6.744   6.554   3.304
 2364TIP3    H1 7035   6.757   6.478   3.247
 2364TIP3    H2 7036   6.688   6.613   3.253
 2365TIP3   OH2 7037   4.734   1.595   5.402
 2365TIP3    H1 7038   4.739   1.519   5.344
 2365TIP3    H2 7039   4.759   1.669   5.347
 2366TIP3   OH2 7040   7.016   1.752   0.266
 2366TIP3    H1 7041   6.933   1.798   0.262
 2366TIP3    H2 7042   7.059   1.772   0.183
 2367TIP3   OH2 7043   4.113   6.461   6.170
 2367TIP3    H1 7044   4.027   6.452   6.128
 2367TIP3    H2 7045   4.103   6.418   6.254
 2368TIP3   OH2 7046   1.361   1.703   1.326
 2368TIP3    H1 7047   1.437   1.761   1.326
 2368TIP3    H2 7048   1.297   1.747   1.270
 2369TIP3   OH2 7049   3.435   4.761   3.794
 2369TIP3    H1 7050   3.397   4.745   3.880
 2369TIP3    H2 7051   3.527   4.783   3.812
 2370TIP3   OH2 7052   4.561   4.425   6.556
 2370TIP3    H1 7053   4.565   4.419   6.460
 2370TIP3    H2 7054   4.649   4.403   6.585
 2371TIP3   OH2 7055   5.667   4.166   5.195
 2371TIP3    H1 7056   5.676   4.149   5.288
 2371TIP3    H2 7057   5.690   4.259   5.185
 2372TIP3   OH2 7058   3.898   7.519   5.712
 2372TIP3    H1 7059   3.988   7.489   5.706
 2372TIP3    H2 7060   3.900   7.609   5.680
 2373TIP3   OH2 7061   7.381   0.989   3.230
 2373TIP3    H1 7062   7.336   1.054   3.285
 2373TIP3    H2 7063   7.341   1.000   3.144
 2374TIP3   OH2 7064   1.068   1.104   5.130
 2374TIP3    H1 7065   1.147   1.159   5.126
 2374TIP3    H2 7066   1.012   1.149   5.193
 2375TIP3   OH2 7067   6.362   4.721   0.486
 2375TIP3    H1 7068   6.276   4.715   0.443
 2375TIP3    H2 7069   6.341   4.729   0.579
 2376TIP3   OH2 7070   0.611   4.006   3.868
 2376TIP3    H1 7071   0.648   4.021   3.781
 2376TIP3    H2 7072   0.622   3.913   3.884
 2377TIP3   OH2 7073   2.505   7.172   6.189
 2377TIP3    H1 7074   2.578   7.143   6.135
 2377TIP3    H2 7075   2.509   7.115   6.266
 2378TIP3   OH2 7076   0.589   7.344   1.875
 2378TIP3    H1 7077   0.510   7.382   1.837
 2378TIP3    H2 7078   0.645   7.419   1.894
 2379TIP3   OH2 7079   4.815   1.882   0.872
 2379TIP3    H1 7080   4.777   1.937   0.941
 2379TIP3    H2 7081   4.759   1.898   0.796
 2380TIP3   OH2 7082   1.580   0.772   3.819
 2380TIP3    H1 7083   1.675   0.782   3.812
 2380TIP3    H2 7084   1.553   0.840   3.880
 2381TIP3   OH2 7085   5.323   5.470   0.081
 2381TIP3    H1 7086   5.233   5.499   0.065
 2381TIP3    H2 7087   5.329   5.464   0.176
 2382TIP3   OH2 7088   4.814   5.601   2.854
 2382TIP3    H1 7089   4.871   5.524   2.861
 2382TIP3    H2 7090   4.823   5.630   2.763
 2383TIP3   OH2 7091   1.652   6.118   4.093
 2383TIP3    H1 7092   1.586   6.056   4.122
 2383TIP3    H2 7093   1.667   6.175   4.168
 2384TIP3   OH2 7094   4.388   7.510   5.384
 2384TIP3    H1 7095   4.431   7.473   5.307
 2384TIP3    H2 7096   4.337   7.583   5.350
 2385TIP3   OH2 7097   2.137   0.333   6.761
 2385TIP3    H1 7098   2.069   0.398   6.775
 2385TIP3    H2 7099   2.095   0.265   6.708
 2386TIP3   OH2 7100   3.155   1.868   4.857
 2386TIP3    H1 7101   3.132   1.824   4.775
 2386TIP3    H2 7102   3.240   1.830   4.881
 2387TIP3   OH2 7103   7.972   0.663   1.820
 2387TIP3    H1 7104   7.886   0.630   1.794
 2387TIP3    H2 7105   8.035   0.610   1.772
 2388TIP3   OH2 7106   0.866   3.029   6.186
 2388TIP3    H1 7107   0.946   3.074   6.158
 2388TIP3    H2 7108   0.804   3.099   6.206
 2389TIP3   OH2 7109   0.375   6.786   3.218
 2389TIP3    H1 7110   0.313   6.849   3.181
 2389TIP3    H2 7111   0.454   6.795   3.164
 2390TIP3   OH2 7112   7.212   2.751   2.617
 2390TIP3    H1 7113   7.265   2.777   2.542
 2390TIP3    H2 7114   7.233   2.814   2.685
 2391TIP3   OH2 7115   1.742   3.791   3.875
 2391TIP3    H1 7116   1.741   3.845   3.796
 2391TIP3    H2 7117   1.777   3.706   3.846
 2392TIP3   OH2 7118   2.483   5.959   3.962
 2392TIP3    H1 7119   2.435   5.901   3.903
 2392TIP3    H2 7120   2.422   5.977   4.034
 2393TIP3   OH2 7121   3.753   6.153   2.105
 2393TIP3    H1 7122   3.707   6.151   2.189
 2393TIP3    H2 7123   3.771   6.060   2.086
 2394TIP3   OH2 7124   6.517   0.335   4.339
 2394TIP3    H1 7125   6.426   0.338   4.369
 2394TIP3    H2 7126   6.567   0.369   4.413
 2395TIP3   OH2 7127   2.977   3.555   0.261
 2395TIP3    H1 7128   3.029   3.586   0.336
 2395TIP3    H2 7129   3.003   3.613   0.189
 2396TIP3   OH2 7130   5.449   2.215   2.338
 2396TIP3    H1 7131   5.388   2.190   2.408
 2396TIP3    H2 7132   5.520   2.260   2.383
 2397TIP3   OH2 7133   1.903   5.647   5.281
 2397TIP3    H1 7134   1.910   5.555   5.255
 2397TIP3    H2 7135   1.976   5.690   5.236
 2398TIP3   OH2 7136   4.360   7.684   0.656
 2398TIP3    H1 7137   4.312   7.719   0.580
 2398TIP3    H2 7138   4.366   7.759   0.716
 2399TIP3   OH2 7139   0.248   3.995   4.000
 2399TIP3    H1 7140   0.297   4.070   3.965
 2399TIP3    H2 7141   0.253   3.929   3.931
 2400TIP3   OH2 7142   2.072   3.751   6.010
 2400TIP3    H1 7143   2.115   3.830   5.976
 2400TIP3    H2 7144   2.006   3.785   6.071
 2401TIP3   OH2 7145   1.080   7.481   2.038
 2401TIP3    H1 7146   1.135   7.474   1.960
 2401TIP3    H2 7147   0.994   7.506   2.006
 2402TIP3   OH2 7148   0.867   1.525   1.360
 2402TIP3    H1 7149   0.947   1.507   1.310
 2402TIP3    H2 7150   0.798   1.479   1.312
 2403TIP3   OH2 7151   3.944   5.450   5.204
 2403TIP3    H1 7152   3.941   5.354   5.213
 2403TIP3    H2 7153   3.966   5.481   5.292
 2404TIP3   OH2 7154   2.612   4.939   6.208
 2404TIP3    H1 7155   2.632   4.848   6.186
 2404TIP3    H2 7156   2.559   4.934   6.287
 2405TIP3   OH2 7157   4.909   3.197   5.988
 2405TIP3    H1 7158   4.854   3.262   5.945
 2405TIP3    H2 7159   4.848   3.146   6.042
 2406TIP3   OH2 7160   6.038   0.908   0.979
 2406TIP3    H1 7161   5.964   0.868   1.024
 2406TIP3    H2 7162   6.048   0.858   0.898
 2407TIP3   OH2 7163   2.051   7.142   0.274
 2407TIP3    H1 7164   1.981   7.192   0.233
 2407TIP3    H2 7165   2.054   7.059   0.226
 2408TIP3   OH2 7166   7.192   3.221   4.384
 2408TIP3    H1 7167   7.104   3.194   4.358
 2408TIP3    H2 7168   7.178   3.300   4.437
 2409TIP3   OH2 7169   6.203   0.014   4.513
 2409TIP3    H1 7170   6.215   0.085   4.576
 2409TIP3    H2 7171   6.256   0.040   4.437
 2410TIP3   OH2 7172   3.259   2.000   6.054
 2410TIP3    H1 7173   3.256   1.905   6.059
 2410TIP3    H2 7174   3.205   2.022   5.978
 2411TIP3   OH2 7175   8.065   2.395   3.455
 2411TIP3    H1 7176   8.055   2.394   3.360
 2411TIP3    H2 7177   8.160   2.404   3.469
 2412TIP3   OH2 7178   6.766   0.940   0.535
 2412TIP3    H1 7179   6.749   0.907   0.623
 2412TIP3    H2 7180   6.691   0.996   0.515
 2413TIP3   OH2 7181   6.582   2.990   2.253
 2413TIP3    H1 7182   6.669   2.982   2.212
 2413TIP3    H2 7183   6.537   3.056   2.201
 2414TIP3   OH2 7184   6.234   3.892   5.137
 2414TIP3    H1 7185   6.257   3.897   5.044
 2414TIP3    H2 7186   6.234   3.798   5.157
 2415TIP3   OH2 7187   6.730   5.958   2.492
 2415TIP3    H1 7188   6.712   6.030   2.431
 2415TIP3    H2 7189   6.826   5.953   2.495
 2416TIP3   OH2 7190   0.645   1.538   4.174
 2416TIP3    H1 7191   0.702   1.537   4.251
 2416TIP3    H2 7192   0.704   1.559   4.102
 2417TIP3   OH2 7193   6.666   6.184   6.223
 2417TIP3    H1 7194   6.590   6.210   6.171
 2417TIP3    H2 7195   6.725   6.142   6.160
 2418TIP3   OH2 7196   4.842   5.471   1.286
 2418TIP3    H1 7197   4.862   5.407   1.354
 2418TIP3    H2 7198   4.797   5.542   1.332
 2419TIP3   OH2 7199   7.842   6.963   1.655
 2419TIP3    H1 7200   7.826   7.057   1.666
 2419TIP3    H2 7201   7.788   6.938   1.580
 2420TIP3   OH2 7202   4.504   7.707   2.680
 2420TIP3    H1 7203   4.583   7.701   2.734
 2420TIP3    H2 7204   4.518   7.785   2.626
 2421TIP3   OH2 7205   4.068   6.210   1.897
 2421TIP3    H1 7206   4.080   6.138   1.835
 2421TIP3    H2 7207   4.120   6.185   1.974
 2422TIP3   OH2 7208   0.656   3.569   6.123
 2422TIP3    H1 7209   0.697   3.655   6.109
 2422TIP3    H2 7210   0.695   3.537   6.204
 2423TIP3   OH2 7211   1.123   1.680   2.735
 2423TIP3    H1 7212   1.180   1.605   2.752
 2423TIP3    H2 7213   1.094   1.708   2.821
 2424TIP3   OH2 7214   6.149   3.836   2.189
 2424TIP3    H1 7215   6.243   3.853   2.190
 2424TIP3    H2 7216   6.142   3.742   2.173
 2425TIP3   OH2 7217   0.111   6.933   3.274
 2425TIP3    H1 7218   0.056   6.861   3.304
 2425TIP3    H2 7219   0.128   6.914   3.182
 2426TIP3   OH2 7220   1.099   4.528   0.514
 2426TIP3    H1 7221   1.152   4.601   0.547
 2426TIP3    H2 7222   1.010   4.550   0.539
 2427TIP3   OH2 7223   0.975   2.945   0.344
 2427TIP3    H1 7224   1.015   2.887   0.279
 2427TIP3    H2 7225   1.026   2.932   0.423
 2428TIP3   OH2 7226   8.212   6.732   3.308
 2428TIP3    H1 7227   8.212   6.771   3.396
 2428TIP3    H2 7228   8.120   6.731   3.283
 2429TIP3   OH2 7229   1.355   5.629   0.400
 2429TIP3    H1 7230   1.359   5.705   0.342
 2429TIP3    H2 7231   1.262   5.605   0.402
 2430TIP3   OH2 7232   5.379   0.054   6.542
 2430TIP3    H1 7233   5.474   0.049   6.544
 2430TIP3    H2 7234   5.360   0.145   6.563
 2431TIP3   OH2 7235   3.540   6.926   4.735
 2431TIP3    H1 7236   3.482   6.989   4.777
 2431TIP3    H2 7237   3.481   6.863   4.694
 2432TIP3   OH2 7238   0.291   1.884   4.289
 2432TIP3    H1 7239   0.278   1.792   4.263
 2432TIP3    H2 7240   0.357   1.879   4.359
 2433TIP3   OH2 7241   0.184   0.988   5.667
 2433TIP3    H1 7242   0.201   1.053   5.598
 2433TIP3    H2 7243   0.199   1.035   5.749
 2434TIP3   OH2 7244   7.560   4.131   1.091
 2434TIP3    H1 7245   7.465   4.139   1.106
 2434TIP3    H2 7246   7.597   4.109   1.176
 2435TIP3   OH2 7247   7.270   3.227   6.330
 2435TIP3    H1 7248   7.317   3.310   6.329
 2435TIP3    H2 7249   7.183   3.249   6.296
 2436TIP3   OH2 7250   5.839   7.346   2.966
 2436TIP3    H1 7251   5.762   7.383   2.923
 2436TIP3    H2 7252   5.855   7.263   2.922
 2437TIP3   OH2 7253   0.478   2.921   5.202
 2437TIP3    H1 7254   0.527   3.002   5.188
 2437TIP3    H2 7255   0.447   2.928   5.293
 2438TIP3   OH2 7256   5.789   2.083   1.926
 2438TIP3    H1 7257   5.784   2.097   2.021
 2438TIP3    H2 7258   5.771   1.990   1.915
 2439TIP3   OH2 7259   0.034   7.614   2.667
 2439TIP3    H1 7260   0.123   7.588   2.691
 2439TIP3    H2 7261   0.009   7.678   2.734
 2440TIP3   OH2 7262   6.511   6.803   0.459
 2440TIP3    H1 7263   6.454   6.736   0.422
 2440TIP3    H2 7264   6.458   6.883   0.455
 2441TIP3   OH2 7265   4.478   1.186   2.171
 2441TIP3    H1 7266   4.467   1.202   2.077
 2441TIP3    H2 7267   4.557   1.132   2.177
 2442TIP3   OH2 7268   3.465   4.507   4.566
 2442TIP3    H1 7269   3.493   4.570   4.633
 2442TIP3    H2 7270   3.444   4.428   4.616
 2443TIP3   OH2 7271   4.912   6.986   3.448
 2443TIP3    H1 7272   4.935   7.052   3.513
 2443TIP3    H2 7273   4.817   6.997   3.435
 2444TIP3   OH2 7274   7.659   1.908   3.919
 2444TIP3    H1 7275   7.718   1.965   3.869
 2444TIP3    H2 7276   7.718   1.850   3.968
 2445TIP3   OH2 7277   6.167   0.958   4.599
 2445TIP3    H1 7278   6.238   0.905   4.565
 2445TIP3    H2 7279   6.130   0.907   4.671
 2446TIP3   OH2 7280   2.611   5.207   2.509
 2446TIP3    H1 7281   2.675   5.139   2.492
 2446TIP3    H2 7282   2.536   5.160   2.546
 2447TIP3   OH2 7283   5.344   2.916   6.584
 2447TIP3    H1 7284   5.325   2.867   6.504
 2447TIP3    H2 7285   5.429   2.956   6.567
 2448TIP3   OH2 7286   5.895   6.860   3.148
 2448TIP3    H1 7287   5.858   6.945   3.124
 2448TIP3    H2 7288   5.823   6.799   3.137
 2449TIP3   OH2 7289   8.065   6.195   1.285
 2449TIP3    H1 7290   8.108   6.225   1.365
 2449TIP3    H2 7291   8.131   6.143   1.240
 2450TIP3   OH2 7292   6.891   7.074   1.426
 2450TIP3    H1 7293   6.923   7.055   1.514
 2450TIP3    H2 7294   6.955   7.033   1.367
 2451TIP3   OH2 7295   1.209   0.713   5.759
 2451TIP3    H1 7296   1.204   0.803   5.790
 2451TIP3    H2 7297   1.284   0.675   5.805
 2452TIP3   OH2 7298   2.981   3.365   2.826
 2452TIP3    H1 7299   3.026   3.420   2.890
 2452TIP3    H2 7300   3.046   3.299   2.801
 2453TIP3   OH2 7301   1.587   6.925   2.500
 2453TIP3    H1 7302   1.574   7.013   2.535
 2453TIP3    H2 7303   1.627   6.939   2.414
 2454TIP3   OH2 7304   1.528   7.429   0.428
 2454TIP3    H1 7305   1.547   7.383   0.346
 2454TIP3    H2 7306   1.438   7.403   0.449
 2455TIP3   OH2 7307   6.637   0.777   2.661
 2455TIP3    H1 7308   6.661   0.869   2.657
 2455TIP3    H2 7309   6.649   0.745   2.571
 2456TIP3   OH2 7310   5.891   2.168   0.347
 2456TIP3    H1 7311   5.832   2.229   0.391
 2456TIP3    H2 7312   5.835   2.096   0.318
 2457TIP3   OH2 7313   4.841   7.774   4.998
 2457TIP3    H1 7314   4.804   7.688   5.015
 2457TIP3    H2 7315   4.785   7.812   4.930
 2458TIP3   OH2 7316   4.101   6.362   3.398
 2458TIP3    H1 7317   4.072   6.453   3.397
 2458TIP3    H2 7318   4.192   6.366   3.368
 2459TIP3   OH2 7319   3.486   6.749   5.255
 2459TIP3    H1 7320   3.539   6.670   5.245
 2459TIP3    H2 7321   3.520   6.810   5.190
 2460TIP3   OH2 7322   3.914   7.115   1.323
 2460TIP3    H1 7323   3.849   7.044   1.328
 2460TIP3    H2 7324   3.977   7.085   1.257
 2461TIP3   OH2 7325   2.656   6.734   4.781
 2461TIP3    H1 7326   2.609   6.799   4.727
 2461TIP3    H2 7327   2.747   6.765   4.782
 2462TIP3   OH2 7328   3.417   6.754   0.235
 2462TIP3    H1 7329   3.329   6.755   0.271
 2462TIP3    H2 7330   3.451   6.842   0.251
 2463TIP3   OH2 7331   7.094   4.670   3.656
 2463TIP3    H1 7332   7.084   4.670   3.751
 2463TIP3    H2 7333   7.005   4.658   3.622
 2464TIP3   OH2 7334   6.035   6.611   1.693
 2464TIP3    H1 7335   6.111   6.663   1.668
 2464TIP3    H2 7336   6.051   6.524   1.655
 2465TIP3   OH2 7337   6.324   0.684   6.353
 2465TIP3    H1 7338   6.300   0.740   6.279
 2465TIP3    H2 7339   6.302   0.736   6.431
 2466TIP3   OH2 7340   1.011   2.277   5.828
 2466TIP3    H1 7341   1.021   2.318   5.742
 2466TIP3    H2 7342   1.021   2.348   5.890
 2467TIP3   OH2 7343   7.569   0.640   5.720
 2467TIP3    H1 7344   7.508   0.566   5.732
 2467TIP3    H2 7345   7.655   0.598   5.713
 2468TIP3   OH2 7346   1.752   4.321   0.464
 2468TIP3    H1 7347   1.711   4.235   0.467
 2468TIP3    H2 7348   1.690   4.376   0.417
 2469TIP3   OH2 7349   4.431   3.083   3.401
 2469TIP3    H1 7350   4.357   3.129   3.362
 2469TIP3    H2 7351   4.451   3.013   3.340
 2470TIP3   OH2 7352   3.463   1.323   5.120
 2470TIP3    H1 7353   3.411   1.243   5.117
 2470TIP3    H2 7354   3.408   1.389   5.077
 2471TIP3   OH2 7355   5.557   6.518   3.774
 2471TIP3    H1 7356   5.477   6.519   3.827
 2471TIP3    H2 7357   5.554   6.600   3.724
 2472TIP3   OH2 7358   0.280   5.088   2.179
 2472TIP3    H1 7359   0.359   5.095   2.233
 2472TIP3    H2 7360   0.276   5.172   2.133
 2473TIP3   OH2 7361   6.933   4.573   1.660
 2473TIP3    H1 7362   6.899   4.644   1.605
 2473TIP3    H2 7363   6.857   4.541   1.709
 2474TIP3   OH2 7364   0.357   7.265   0.769
 2474TIP3    H1 7365   0.435   7.271   0.714
 2474TIP3    H2 7366   0.306   7.193   0.732
 2475TIP3   OH2 7367   0.052   1.644   2.316
 2475TIP3    H1 7368   0.094   1.558   2.310
 2475TIP3    H2 7369   0.119   1.700   2.357
 2476TIP3   OH2 7370   1.392   7.637   6.325
 2476TIP3    H1 7371   1.469   7.672   6.280
 2476TIP3    H2 7372   1.323   7.639   6.258
 2477TIP3   OH2 7373   3.233   2.066   0.980
 2477TIP3    H1 7374   3.209   1.980   0.945
 2477TIP3    H2 7375   3.187   2.072   1.064
 2478TIP3   OH2 7376   0.578   2.264   3.179
 2478TIP3    H1 7377   0.490   2.249   3.214
 2478TIP3    H2 7378   0.564   2.292   3.089
 2479TIP3   OH2 7379   3.485   0.499   5.456
 2479TIP3    H1 7380   3.568   0.544   5.474
 2479TIP3    H2 7381   3.419   0.567   5.460
 2480TIP3   OH2 7382   4.416   2.272   0.654
 2480TIP3    H1 7383   4.444   2.205   0.717
 2480TIP3    H2 7384   4.321   2.277   0.666
 2481TIP3   OH2 7385   6.842   1.441   5.579
 2481TIP3    H1 7386   6.861   1.415   5.669
 2481TIP3    H2 7387   6.826   1.358   5.534
 2482TIP3   OH2 7388   4.635   2.227   5.941
 2482TIP3    H1 7389   4.544   2.200   5.944
 2482TIP3    H2 7390   4.632   2.322   5.950
 2483TIP3   OH2 7391   4.123   0.662   1.098
 2483TIP3    H1 7392   4.170   0.699   1.023
 2483TIP3    H2 7393   4.101   0.573   1.071
 2484TIP3   OH2 7394   4.181   2.592   4.988
 2484TIP3    H1 7395   4.203   2.671   5.038
 2484TIP3    H2 7396   4.208   2.519   5.044
 2485TIP3   OH2 7397   7.248   4.130   1.083
 2485TIP3    H1 7398   7.294   4.062   1.034
 2485TIP3    H2 7399   7.160   4.095   1.095
 2486TIP3   OH2 7400   1.176   2.244   4.064
 2486TIP3    H1 7401   1.220   2.173   4.111
 2486TIP3    H2 7402   1.180   2.217   3.972
 2487TIP3   OH2 7403   4.823   6.088   1.594
 2487TIP3    H1 7404   4.790   6.033   1.664
 2487TIP3    H2 7405   4.915   6.104   1.617
 2488TIP3   OH2 7406   8.120   1.735   0.137
 2488TIP3    H1 7407   8.116   1.648   0.178
 2488TIP3    H2 7408   8.140   1.717   0.046
 2489TIP3   OH2 7409   4.576   1.348   4.098
 2489TIP3    H1 7410   4.536   1.350   4.011
 2489TIP3    H2 7411   4.643   1.416   4.095
 2490TIP3   OH2 7412   5.732   5.194   6.709
 2490TIP3    H1 7413   5.647   5.202   6.666
 2490TIP3    H2 7414   5.712   5.164   6.797
 2491TIP3   OH2 7415   7.005   0.259   3.190
 2491TIP3    H1 7416   7.050   0.339   3.220
 2491TIP3    H2 7417   7.075   0.206   3.152
 2492TIP3   OH2 7418   4.162   3.843   2.119
 2492TIP3    H1 7419   4.139   3.885   2.036
 2492TIP3    H2 7420   4.217   3.907   2.163
 2493TIP3   OH2 7421   3.127   4.667   3.276
 2493TIP3    H1 7422   3.177   4.737   3.318
 2493TIP3    H2 7423   3.043   4.708   3.253
 2494TIP3   OH2 7424   5.981   6.173   6.115
 2494TIP3    H1 7425   6.063   6.213   6.146
 2494TIP3    H2 7426   5.919   6.245   6.111
 2495TIP3   OH2 7427   5.134   3.189   3.851
 2495TIP3    H1 7428   5.119   3.106   3.805
 2495TIP3    H2 7429   5.178   3.164   3.933
 2496TIP3   OH2 7430   3.215   5.887   6.695
 2496TIP3    H1 7431   3.302   5.898   6.733
 2496TIP3    H2 7432   3.229   5.831   6.618
 2497TIP3   OH2 7433   7.829   0.877   5.222
 2497TIP3    H1 7434   7.790   0.846   5.304
 2497TIP3    H2 7435   7.778   0.955   5.199
 2498TIP3   OH2 7436   6.807   5.029   0.999
 2498TIP3    H1 7437   6.756   4.962   1.044
 2498TIP3    H2 7438   6.862   4.980   0.938
 2499TIP3   OH2 7439   0.459   1.706   1.808
 2499TIP3    H1 7440   0.477   1.612   1.815
 2499TIP3    H2 7441   0.537   1.748   1.844
 2500TIP3   OH2 7442   7.535   1.749   6.164
 2500TIP3    H1 7443   7.532   1.833   6.119
 2500TIP3    H2 7444   7.624   1.742   6.197
 2501TIP3   OH2 7445   5.625   1.099   2.659
 2501TIP3    H1 7446   5.550   1.041   2.651
 2501TIP3    H2 7447   5.605   1.174   2.603
 2502TIP3   OH2 7448   6.018   7.107   5.833
 2502TIP3    H1 7449   6.051   7.128   5.746
 2502TIP3    H2 7450   5.930   7.070   5.818
 2503TIP3   OH2 7451   5.620   2.742   5.468
 2503TIP3    H1 7452   5.706   2.747   5.510
 2503TIP3    H2 7453   5.636   2.695   5.386
 2504TIP3   OH2 7454   4.597   1.670   6.735
 2504TIP3    H1 7455   4.517   1.656   6.684
 2504TIP3    H2 7456   4.668   1.661   6.672
 2505TIP3   OH2 7457   1.665   2.681   5.646
 2505TIP3    H1 7458   1.658   2.637   5.561
 2505TIP3    H2 7459   1.592   2.646   5.697
 2506TIP3   OH2 7460   4.340   1.197   2.409
 2506TIP3    H1 7461   4.383   1.211   2.324
 2506TIP3    H2 7462   4.315   1.105   2.407
 2507TIP3   OH2 7463   1.430   2.067   5.822
 2507TIP3    H1 7464   1.446   1.993   5.881
 2507TIP3    H2 7465   1.397   2.137   5.878
 2508TIP3   OH2 7466   6.306   2.165   6.600
 2508TIP3    H1 7467   6.262   2.080   6.593
 2508TIP3    H2 7468   6.313   2.196   6.510
 2509TIP3   OH2 7469   1.483   2.902   3.221
 2509TIP3    H1 7470   1.459   2.912   3.129
 2509TIP3    H2 7471   1.419   2.956   3.268
 2510TIP3   OH2 7472   3.394   3.544   6.452
 2510TIP3    H1 7473   3.320   3.509   6.501
 2510TIP3    H2 7474   3.435   3.606   6.512
 2511TIP3   OH2 7475   3.567   7.794   6.691
 2511TIP3    H1 7476   3.598   7.714   6.734
 2511TIP3    H2 7477   3.582   7.779   6.598
 2512TIP3   OH2 7478   5.107   5.945   4.798
 2512TIP3    H1 7479   5.199   5.920   4.788
 2512TIP3    H2 7480   5.107   6.011   4.866
 2513TIP3   OH2 7481   2.530   4.028   4.498
 2513TIP3    H1 7482   2.566   3.944   4.528
 2513TIP3    H2 7483   2.606   4.085   4.490
 2514TIP3   OH2 7484   4.803   3.137   5.296
 2514TIP3    H1 7485   4.890   3.142   5.336
 2514TIP3    H2 7486   4.785   3.226   5.266
 2515TIP3   OH2 7487   7.929   2.610   4.697
 2515TIP3    H1 7488   7.936   2.701   4.670
 2515TIP3    H2 7489   7.840   2.584   4.671
 2516TIP3   OH2 7490   1.242   3.813   1.728
 2516TIP3    H1 7491   1.239   3.908   1.713
 2516TIP3    H2 7492   1.272   3.804   1.818
 2517TIP3   OH2 7493   6.160   1.885   3.431
 2517TIP3    H1 7494   6.241   1.901   3.382
 2517TIP3    H2 7495   6.174   1.928   3.515
 2518TIP3   OH2 7496   7.039   5.312   0.115
 2518TIP3    H1 7497   7.008   5.384   0.060
 2518TIP3    H2 7498   7.024   5.341   0.205
 2519TIP3   OH2 7499   6.252   4.613   5.201
 2519TIP3    H1 7500   6.236   4.525   5.235
 2519TIP3    H2 7501   6.292   4.660   5.275
 2520TIP3   OH2 7502   4.930   6.289   2.481
 2520TIP3    H1 7503   4.886   6.233   2.546
 2520TIP3    H2 7504   4.900   6.254   2.397
 2521TIP3   OH2 7505   3.300   2.821   5.371
 2521TIP3    H1 7506   3.239   2.872   5.424
 2521TIP3    H2 7507   3.362   2.784   5.434
 2522TIP3   OH2 7508   2.700   5.331   5.137
 2522TIP3    H1 7509   2.701   5.370   5.224
 2522TIP3    H2 7510   2.729   5.400   5.079
 2523TIP3   OH2 7511   1.364   4.020   4.935
 2523TIP3    H1 7512   1.321   4.080   4.874
 2523TIP3    H2 7513   1.348   4.058   5.021
 2524TIP3   OH2 7514   1.051   4.367   5.990
 2524TIP3    H1 7515   0.995   4.424   6.043
 2524TIP3    H2 7516   1.057   4.286   6.041
 2525TIP3   OH2 7517   0.639   2.434   3.433
 2525TIP3    H1 7518   0.676   2.441   3.521
 2525TIP3    H2 7519   0.554   2.478   3.438
 2526TIP3   OH2 7520   1.492   2.647   4.922
 2526TIP3    H1 7521   1.538   2.725   4.892
 2526TIP3    H2 7522   1.559   2.595   4.967
 2527TIP3   OH2 7523   4.145   2.432   0.685
 2527TIP3    H1 7524   4.100   2.421   0.601
 2527TIP3    H2 7525   4.083   2.398   0.749
 2528TIP3   OH2 7526   4.535   0.995   0.162
 2528TIP3    H1 7527   4.462   1.056   0.153
 2528TIP3    H2 7528   4.610   1.051   0.181
 2529TIP3   OH2 7529   7.430   5.381   5.191
 2529TIP3    H1 7530   7.374   5.332   5.251
 2529TIP3    H2 7531   7.412   5.344   5.105
 2530TIP3   OH2 7532   2.254   0.209   4.650
 2530TIP3    H1 7533   2.274   0.121   4.681
 2530TIP3    H2 7534   2.192   0.197   4.578
 2531TIP3   OH2 7535   6.042   7.686   2.316
 2531TIP3    H1 7536   6.022   7.603   2.359
 2531TIP3    H2 7537   6.097   7.662   2.242
 2532TIP3   OH2 7538   1.671   1.057   1.778
 2532TIP3    H1 7539   1.635   1.125   1.720
 2532TIP3    H2 7540   1.661   0.976   1.729
 2533TIP3   OH2 7541   1.646   6.491   2.211
 2533TIP3    H1 7542   1.709   6.456   2.148
 2533TIP3    H2 7543   1.567   6.507   2.161
 2534TIP3   OH2 7544   5.674   3.417   1.241
 2534TIP3    H1 7545   5.753   3.383   1.199
 2534TIP3    H2 7546   5.624   3.339   1.264
 2535TIP3   OH2 7547   6.950   1.912   2.103
 2535TIP3    H1 7548   6.996   1.900   2.186
 2535TIP3    H2 7549   6.997   1.983   2.059
 2536TIP3   OH2 7550   3.780   0.785   4.585
 2536TIP3    H1 7551   3.716   0.802   4.517
 2536TIP3    H2 7552   3.858   0.755   4.538
 2537TIP3   OH2 7553   0.442   7.710   0.135
 2537TIP3    H1 7554   0.442   7.728   0.041
 2537TIP3    H2 7555   0.350   7.704   0.159
 2538TIP3   OH2 7556   3.338   2.574   5.183
 2538TIP3    H1 7557   3.335   2.666   5.154
 2538TIP3    H2 7558   3.407   2.534   5.130
 2539TIP3   OH2 7559   1.306   5.831   2.502
 2539TIP3    H1 7560   1.357   5.878   2.568
 2539TIP3    H2 7561   1.302   5.741   2.533
 2540TIP3   OH2 7562   0.800   2.202   5.036
 2540TIP3    H1 7563   0.776   2.271   4.975
 2540TIP3    H2 7564   0.792   2.121   4.985
 2541TIP3   OH2 7565   1.546   0.588   6.016
 2541TIP3    H1 7566   1.509   0.605   6.102
 2541TIP3    H2 7567   1.638   0.612   6.023
 2542TIP3   OH2 7568   4.757   3.868   0.073
 2542TIP3    H1 7569   4.809   3.820   0.008
 2542TIP3    H2 7570   4.707   3.931   0.021
 2543TIP3   OH2 7571   6.386   6.265   3.655
 2543TIP3    H1 7572   6.459   6.222   3.611
 2543TIP3    H2 7573   6.336   6.305   3.584
 2544TIP3   OH2 7574   6.095   1.888   0.215
 2544TIP3    H1 7575   6.163   1.867   0.152
 2544TIP3    H2 7576   6.013   1.864   0.172
 2545TIP3   OH2 7577   2.198   3.877   0.897
 2545TIP3    H1 7578   2.156   3.949   0.850
 2545TIP3    H2 7579   2.258   3.838   0.833
 2546TIP3   OH2 7580   2.215   0.809   3.445
 2546TIP3    H1 7581   2.283   0.855   3.496
 2546TIP3    H2 7582   2.191   0.871   3.376
 2547TIP3   OH2 7583   6.768   3.180   2.679
 2547TIP3    H1 7584   6.757   3.183   2.774
 2547TIP3    H2 7585   6.686   3.143   2.647
 2548TIP3   OH2 7586   7.673   4.608   4.084
 2548TIP3    H1 7587   7.753   4.565   4.055
 2548TIP3    H2 7588   7.621   4.619   4.004
 2549TIP3   OH2 7589   5.258   4.072   5.613
 2549TIP3    H1 7590   5.291   4.160   5.595
 2549TIP3    H2 7591   5.176   4.068   5.564
 2550TIP3   OH2 7592   3.054   2.655   2.155
 2550TIP3    H1 7593   3.093   2.575   2.121
 2550TIP3    H2 7594   3.082   2.658   2.247
 2551TIP3   OH2 7595   1.279   6.560   2.253
 2551TIP3    H1 7596   1.335   6.637   2.245
 2551TIP3    H2 7597   1.257   6.555   2.346
 2552TIP3   OH2 7598   6.669   6.449   0.940
 2552TIP3    H1 7599   6.685   6.451   1.034
 2552TIP3    H2 7600   6.668   6.542   0.914
 2553TIP3   OH2 7601   6.109   7.328   5.972
 2553TIP3    H1 7602   6.082   7.310   6.062
 2553TIP3    H2 7603   6.096   7.245   5.926
 2554TIP3   OH2 7604   7.460   3.254   3.224
 2554TIP3    H1 7605   7.384   3.231   3.169
 2554TIP3    H2 7606   7.438   3.339   3.261
 2555TIP3   OH2 7607   7.149   6.135   2.068
 2555TIP3    H1 7608   7.202   6.187   2.008
 2555TIP3    H2 7609   7.143   6.049   2.026
 2556TIP3   OH2 7610   0.911   4.943   4.383
 2556TIP3    H1 7611   0.938   5.032   4.361
 2556TIP3    H2 7612   0.860   4.952   4.464
 2557TIP3   OH2 7613   6.727   7.795   4.903
 2557TIP3    H1 7614   6.821   7.811   4.895
 2557TIP3    H2 7615   6.718   7.700   4.900
 2558TIP3   OH2 7616   6.888   3.768   3.478
 2558TIP3    H1 7617   6.921   3.697   3.533
 2558TIP3    H2 7618   6.818   3.808   3.529
 2559TIP3   OH2 7619   3.143   0.972   5.366
 2559TIP3    H1 7620   3.224   1.010   5.400
 2559TIP3    H2 7621   3.074   1.021   5.410
 2560TIP3   OH2 7622   1.173   7.053   4.236
 2560TIP3    H1 7623   1.200   6.992   4.168
 2560TIP3    H2 7624   1.236   7.039   4.307
 2561TIP3   OH2 7625   1.167   2.755   1.342
 2561TIP3    H1 7626   1.089   2.708   1.311
 2561TIP3    H2 7627   1.170   2.736   1.436
 2562TIP3   OH2 7628   7.855   5.920   3.467
 2562TIP3    H1 7629   7.800   5.852   3.507
 2562TIP3    H2 7630   7.893   5.967   3.542
 2563TIP3   OH2 7631   1.537   3.718   4.694
 2563TIP3    H1 7632   1.617   3.767   4.713
 2563TIP3    H2 7633   1.499   3.700   4.781
 2564TIP3   OH2 7634   8.316   0.841   1.355
 2564TIP3    H1 7635   8.228   0.821   1.326
 2564TIP3    H2 7636   8.364   0.863   1.275
 2565TIP3   OH2 7637   5.010   3.324   3.247
 2565TIP3    H1 7638   4.915   3.315   3.247
 2565TIP3    H2 7639   5.026   3.410   3.210
 2566TIP3   OH2 7640   0.307   1.277   6.170
 2566TIP3    H1 7641   0.381   1.253   6.227
 2566TIP3    H2 7642   0.326   1.367   6.144
 2567TIP3   OH2 7643   4.406   2.405   4.710
 2567TIP3    H1 7644   4.429   2.342   4.642
 2567TIP3    H2 7645   4.325   2.446   4.679
 2568TIP3   OH2 7646   2.379   1.761   2.667
 2568TIP3    H1 7647   2.455   1.704   2.656
 2568TIP3    H2 7648   2.415   1.846   2.694
 2569TIP3   OH2 7649   6.032   3.859   5.797
 2569TIP3    H1 7650   5.950   3.824   5.762
 2569TIP3    H2 7651   6.062   3.793   5.860
 2570TIP3   OH2 7652   4.805   4.664   4.941
 2570TIP3    H1 7653   4.780   4.617   4.862
 2570TIP3    H2 7654   4.801   4.598   5.010
 2571TIP3   OH2 7655   1.046   7.026   0.071
 2571TIP3    H1 7656   1.100   7.064   0.140
 2571TIP3    H2 7657   1.094   7.046  -0.010
 2572TIP3   OH2 7658   2.605   4.061   2.887
 2572TIP3    H1 7659   2.590   3.966   2.892
 2572TIP3    H2 7660   2.534   4.093   2.831
 2573TIP3   OH2 7661   2.369   3.753   5.770
 2573TIP3    H1 7662   2.296   3.809   5.743
 2573TIP3    H2 7663   2.368   3.681   5.708
 2574TIP3   OH2 7664   3.677  -0.002   1.734
 2574TIP3    H1 7665   3.757   0.043   1.760
 2574TIP3    H2 7666   3.706  -0.069   1.672
 2575TIP3   OH2 7667   0.471   6.667   2.029
 2575TIP3    H1 7668   0.521   6.609   1.971
 2575TIP3    H2 7669   0.405   6.707   1.973
 2576TIP3   OH2 7670   1.078   6.295   2.202
 2576TIP3    H1 7671   1.078   6.329   2.292
 2576TIP3    H2 7672   0.985   6.295   2.177
 2577TIP3   OH2 7673   1.539   5.814   0.118
 2577TIP3    H1 7674   1.518   5.816   0.025
 2577TIP3    H2 7675   1.634   5.818   0.122
 2578TIP3   OH2 7676   0.373   6.506   3.254
 2578TIP3    H1 7677   0.290   6.460   3.265
 2578TIP3    H2 7678   0.349   6.599   3.250
 2579TIP3   OH2 7679   4.474   2.395   6.733
 2579TIP3    H1 7680   4.504   2.434   6.651
 2579TIP3    H2 7681   4.554   2.372   6.780
 2580TIP3   OH2 7682   6.471   7.481   1.388
 2580TIP3    H1 7683   6.550   7.428   1.396
 2580TIP3    H2 7684   6.428   7.473   1.473
 2581TIP3   OH2 7685   6.289  -0.004   2.858
 2581TIP3    H1 7686   6.371  -0.054   2.861
 2581TIP3    H2 7687   6.312   0.082   2.894
 2582TIP3   OH2 7688   5.735   2.815   4.796
 2582TIP3    H1 7689   5.723   2.755   4.722
 2582TIP3    H2 7690   5.788   2.886   4.761
 2583TIP3   OH2 7691   4.584   0.313   4.849
 2583TIP3    H1 7692   4.514   0.253   4.876
 2583TIP3    H2 7693   4.633   0.264   4.783
 2584TIP3   OH2 7694   2.673   5.675   6.245
 2584TIP3    H1 7695   2.647   5.757   6.288
 2584TIP3    H2 7696   2.591   5.631   6.224
 2585TIP3   OH2 7697   3.722   4.939   5.852
 2585TIP3    H1 7698   3.682   4.934   5.939
 2585TIP3    H2 7699   3.651   4.963   5.794
 2586TIP3   OH2 7700   2.857   5.970   3.403
 2586TIP3    H1 7701   2.951   5.979   3.417
 2586TIP3    H2 7702   2.817   6.001   3.484
 2587TIP3   OH2 7703   3.247   7.236   1.113
 2587TIP3    H1 7704   3.301   7.309   1.085
 2587TIP3    H2 7705   3.263   7.229   1.207
 2588TIP3   OH2 7706   1.613   3.942   4.103
 2588TIP3    H1 7707   1.701   3.948   4.140
 2588TIP3    H2 7708   1.622   3.881   4.030
 2589TIP3   OH2 7709   3.224   4.355   2.085
 2589TIP3    H1 7710   3.195   4.328   2.172
 2589TIP3    H2 7711   3.208   4.449   2.082
 2590TIP3   OH2 7712   5.679   7.612   6.330
 2590TIP3    H1 7713   5.590   7.603   6.295
 2590TIP3    H2 7714   5.670   7.675   6.401
 2591TIP3   OH2 7715   4.938   3.636   3.855
 2591TIP3    H1 7716   4.915   3.706   3.916
 2591TIP3    H2 7717   4.873   3.568   3.870
 2592TIP3   OH2 7718   6.356   0.715   5.532
 2592TIP3    H1 7719   6.329   0.773   5.603
 2592TIP3    H2 7720   6.443   0.685   5.558
 2593TIP3   OH2 7721   4.034   7.336   2.396
 2593TIP3    H1 7722   4.118   7.290   2.395
 2593TIP3    H2 7723   4.009   7.339   2.489
 2594TIP3   OH2 7724   2.030   5.235   1.261
 2594TIP3    H1 7725   2.028   5.172   1.333
 2594TIP3    H2 7726   1.938   5.252   1.242
 2595TIP3   OH2 7727   1.400   7.493   2.111
 2595TIP3    H1 7728   1.344   7.463   2.040
 2595TIP3    H2 7729   1.446   7.569   2.074
 2596TIP3   OH2 7730   5.558   0.875   5.541
 2596TIP3    H1 7731   5.519   0.939   5.481
 2596TIP3    H2 7732   5.559   0.919   5.626
 2597TIP3   OH2 7733   3.311   4.855   3.387
 2597TIP3    H1 7734   3.345   4.906   3.314
 2597TIP3    H2 7735   3.297   4.920   3.457
 2598TIP3   OH2 7736   6.515   5.911   0.782
 2598TIP3    H1 7737   6.451   5.959   0.834
 2598TIP3    H2 7738   6.575   5.978   0.750
 2599TIP3   OH2 7739   0.577   1.777   6.060
 2599TIP3    H1 7740   0.666   1.795   6.032
 2599TIP3    H2 7741   0.587   1.735   6.146
 2600TIP3   OH2 7742   4.786  -0.005   0.766
 2600TIP3    H1 7743   4.707   0.050   0.757
 2600TIP3    H2 7744   4.841   0.020   0.692
 2601TIP3   OH2 7745   0.740   6.771   3.872
 2601TIP3    H1 7746   0.733   6.677   3.856
 2601TIP3    H2 7747   0.832   6.783   3.897
 2602TIP3   OH2 7748   5.452   2.889   0.937
 2602TIP3    H1 7749   5.420   2.911   0.849
 2602TIP3    H2 7750   5.374   2.863   0.985
 2603TIP3   OH2 7751   6.897   7.126   3.697
 2603TIP3    H1 7752   6.965   7.125   3.765
 2603TIP3    H2 7753   6.903   7.214   3.659
 2604TIP3   OH2 7754   6.342   3.627   5.135
 2604TIP3    H1 7755   6.381   3.607   5.220
 2604TIP3    H2 7756   6.370   3.556   5.078
 2605TIP3   OH2 7757   0.960   6.804   0.423
 2605TIP3    H1 7758   1.024   6.867   0.389
 2605TIP3    H2 7759   1.009   6.722   0.432
 2606TIP3   OH2 7760   4.556   2.721   1.832
 2606TIP3    H1 7761   4.598   2.636   1.843
 2606TIP3    H2 7762   4.612   2.782   1.881
 2607TIP3   OH2 7763   1.851   1.651   1.055
 2607TIP3    H1 7764   1.814   1.711   0.991
 2607TIP3    H2 7765   1.910   1.706   1.108
 2608TIP3   OH2 7766   5.938   4.448   2.675
 2608TIP3    H1 7767   5.919   4.498   2.596
 2608TIP3    H2 7768   5.946   4.357   2.645
 2609TIP3   OH2 7769   2.607   5.475   2.570
 2609TIP3    H1 7770   2.583   5.384   2.553
 2609TIP3    H2 7771   2.701   5.478   2.554
 2610TIP3   OH2 7772   7.294   4.657   5.867
 2610TIP3    H1 7773   7.343   4.585   5.828
 2610TIP3    H2 7774   7.329   4.736   5.826
 2611TIP3   OH2 7775   3.534   6.056   5.150
 2611TIP3    H1 7776   3.614   6.104   5.172
 2611TIP3    H2 7777   3.501   6.025   5.234
 2612TIP3   OH2 7778   3.444   4.533   0.365
 2612TIP3    H1 7779   3.537   4.522   0.349
 2612TIP3    H2 7780   3.424   4.621   0.330
 2613TIP3   OH2 7781   2.160   4.684   5.970
 2613TIP3    H1 7782   2.215   4.625   6.022
 2613TIP3    H2 7783   2.117   4.739   6.035
 2614TIP3   OH2 7784   0.667   5.556   3.888
 2614TIP3    H1 7785   0.679   5.587   3.798
 2614TIP3    H2 7786   0.684   5.633   3.943
 2615TIP3   OH2 7787   0.261   7.507   2.760
 2615TIP3    H1 7788   0.233   7.471   2.844
 2615TIP3    H2 7789   0.356   7.510   2.766
 2616TIP3   OH2 7790   7.087   5.818   3.464
 2616TIP3    H1 7791   7.109   5.896   3.515
 2616TIP3    H2 7792   7.146   5.750   3.496
 2617TIP3   OH2 7793   6.268   0.182   6.360
 2617TIP3    H1 7794   6.288   0.092   6.386
 2617TIP3    H2 7795   6.348   0.213   6.318
 2618TIP3   OH2 7796   5.073   5.473   2.791
 2618TIP3    H1 7797   5.129   5.447   2.717
 2618TIP3    H2 7798   5.021   5.546   2.757
 2619TIP3   OH2 7799   1.250   0.926   1.650
 2619TIP3    H1 7800   1.311   0.998   1.634
 2619TIP3    H2 7801   1.288   0.852   1.604
 2620TIP3   OH2 7802   4.420   0.075   5.395
 2620TIP3    H1 7803   4.429   0.170   5.394
 2620TIP3    H2 7804   4.497   0.044   5.441
 2621TIP3   OH2 7805   0.290   0.176   3.049
 2621TIP3    H1 7806   0.206   0.173   3.005
 2621TIP3    H2 7807   0.268   0.188   3.142
 2622TIP3   OH2 7808   1.120   2.221   0.746
 2622TIP3    H1 7809   1.109   2.139   0.794
 2622TIP3    H2 7810   1.214   2.238   0.748
 2623TIP3   OH2 7811   7.183   2.134   4.414
 2623TIP3    H1 7812   7.088   2.136   4.405
 2623TIP3    H2 7813   7.200   2.057   4.468
 2624TIP3   OH2 7814   0.039   0.978   0.822
 2624TIP3    H1 7815   0.025   1.072   0.830
 2624TIP3    H2 7816  -0.010   0.953   0.744
 2625TIP3   OH2 7817   5.034   1.274   6.421
 2625TIP3    H1 7818   5.017   1.181   6.407
 2625TIP3    H2 7819   4.969   1.318   6.366
 2626TIP3   OH2 7820   4.022   0.076   2.172
 2626TIP3    H1 7821   3.933   0.050   2.148
 2626TIP3    H2 7822   4.020   0.172   2.169
 2627TIP3   OH2 7823   2.534   7.282   4.915
 2627TIP3    H1 7824   2.454   7.309   4.961
 2627TIP3    H2 7825   2.528   7.187   4.910
 2628TIP3   OH2 7826   5.870   2.740   1.788
 2628TIP3    H1 7827   5.960   2.729   1.757
 2628TIP3    H2 7828   5.877   2.801   1.861
 2629TIP3   OH2 7829   1.107   4.440   3.667
 2629TIP3    H1 7830   1.190   4.414   3.626
 2629TIP3    H2 7831   1.116   4.413   3.758
 2630TIP3   OH2 7832   3.117   5.510   0.133
 2630TIP3    H1 7833   3.090   5.454   0.061
 2630TIP3    H2 7834   3.083   5.597   0.110
 2631TIP3   OH2 7835   4.788   4.336   1.814
 2631TIP3    H1 7836   4.871   4.382   1.823
 2631TIP3    H2 7837   4.729   4.400   1.774
 2632TIP3   OH2 7838   1.685   7.704   6.318
 2632TIP3    H1 7839   1.717   7.778   6.267
 2632TIP3    H2 7840   1.748   7.634   6.303
 2633TIP3   OH2 7841   2.174   5.636   2.197
 2633TIP3    H1 7842   2.252   5.636   2.140
 2633TIP3    H2 7843   2.145   5.545   2.198
 2634TIP3   OH2 7844   3.768   0.533   5.490
 2634TIP3    H1 7845   3.835   0.601   5.487
 2634TIP3    H2 7846   3.760   0.511   5.583
 2635TIP3   OH2 7847   6.878   1.456   5.951
 2635TIP3    H1 7848   6.812   1.395   5.984
 2635TIP3    H2 7849   6.831   1.539   5.942
 2636TIP3   OH2 7850   2.162   2.575   5.120
 2636TIP3    H1 7851   2.217   2.607   5.049
 2636TIP3    H2 7852   2.197   2.618   5.198
 2637TIP3   OH2 7853   4.140   7.430   5.012
 2637TIP3    H1 7854   4.202   7.483   4.962
 2637TIP3    H2 7855   4.067   7.416   4.952
 2638TIP3   OH2 7856   8.259   3.637   2.852
 2638TIP3    H1 7857   8.224   3.661   2.937
 2638TIP3    H2 7858   8.329   3.574   2.872
 2639TIP3   OH2 7859   2.935  -0.009   6.085
 2639TIP3    H1 7860   3.020   0.035   6.088
 2639TIP3    H2 7861   2.872   0.061   6.097
 2640TIP3   OH2 7862   5.970   1.485   2.111
 2640TIP3    H1 7863   6.038   1.507   2.174
 2640TIP3    H2 7864   6.018   1.452   2.035
 2641TIP3   OH2 7865   3.330   4.149   4.203
 2641TIP3    H1 7866   3.364   4.132   4.116
 2641TIP3    H2 7867   3.261   4.083   4.215
 2642TIP3   OH2 7868   6.105   0.264   3.110
 2642TIP3    H1 7869   6.077   0.327   3.176
 2642TIP3    H2 7870   6.196   0.244   3.134
 2643TIP3   OH2 7871   2.035   4.703   4.907
 2643TIP3    H1 7872   2.072   4.639   4.968
 2643TIP3    H2 7873   1.941   4.693   4.917
 2644TIP3   OH2 7874   0.699   3.620   0.059
 2644TIP3    H1 7875   0.719   3.642  -0.032
 2644TIP3    H2 7876   0.664   3.531   0.055
 2645TIP3   OH2 7877   4.062   2.582   5.371
 2645TIP3    H1 7878   4.044   2.674   5.391
 2645TIP3    H2 7879   4.155   2.571   5.391
 2646TIP3   OH2 7880   3.067   5.013   2.878
 2646TIP3    H1 7881   3.161   5.005   2.859
 2646TIP3    H2 7882   3.024   4.974   2.802
 2647TIP3   OH2 7883   2.995   4.359   6.730
 2647TIP3    H1 7884   2.976   4.268   6.749
 2647TIP3    H2 7885   3.073   4.380   6.781
 2648TIP3   OH2 7886   2.669   7.530   2.125
 2648TIP3    H1 7887   2.748   7.484   2.096
 2648TIP3    H2 7888   2.677   7.533   2.220
 2649TIP3   OH2 7889   3.520   1.400   1.923
 2649TIP3    H1 7890   3.481   1.313   1.927
 2649TIP3    H2 7891   3.579   1.398   1.849
 2650TIP3   OH2 7892   1.199   1.947   4.529
 2650TIP3    H1 7893   1.262   1.878   4.553
 2650TIP3    H2 7894   1.247   2.029   4.544
 2651TIP3   OH2 7895   0.066   2.584   5.028
 2651TIP3    H1 7896   0.052   2.507   4.972
 2651TIP3    H2 7897   0.012   2.652   4.988
 2652TIP3   OH2 7898   2.508   3.078   4.767
 2652TIP3    H1 7899   2.535   3.161   4.726
 2652TIP3    H2 7900   2.549   3.081   4.854
 2653TIP3   OH2 7901   0.354   3.622   6.081
 2653TIP3    H1 7902   0.449   3.622   6.093
 2653TIP3    H2 7903   0.319   3.587   6.163
 2654TIP3   OH2 7904   5.876   1.637   2.477
 2654TIP3    H1 7905   5.903   1.708   2.417
 2654TIP3    H2 7906   5.849   1.682   2.557
 2655TIP3   OH2 7907   2.807   3.636   1.416
 2655TIP3    H1 7908   2.762   3.721   1.423
 2655TIP3    H2 7909   2.850   3.638   1.331
 2656TIP3   OH2 7910   1.005   7.581   4.337
 2656TIP3    H1 7911   1.021   7.506   4.279
 2656TIP3    H2 7912   1.005   7.656   4.278
 2657TIP3   OH2 7913   5.877   2.580   0.274
 2657TIP3    H1 7914   5.936   2.506   0.280
 2657TIP3    H2 7915   5.859   2.589   0.180
 2658TIP3   OH2 7916   2.216   0.671   2.183
 2658TIP3    H1 7917   2.276   0.597   2.189
 2658TIP3    H2 7918   2.272   0.747   2.166
 2659TIP3   OH2 7919   4.301   4.963   5.270
 2659TIP3    H1 7920   4.300   4.951   5.175
 2659TIP3    H2 7921   4.281   4.876   5.305
 2660TIP3   OH2 7922   3.907   4.241   6.118
 2660TIP3    H1 7923   3.882   4.278   6.033
 2660TIP3    H2 7924   3.825   4.237   6.167
 2661TIP3   OH2 7925   6.097   7.460   1.638
 2661TIP3    H1 7926   6.030   7.509   1.687
 2661TIP3    H2 7927   6.060   7.373   1.627
 2662TIP3   OH2 7928   3.995   6.135   4.930
 2662TIP3    H1 7929   4.008   6.154   4.837
 2662TIP3    H2 7930   4.076   6.163   4.972
 2663TIP3   OH2 7931   2.644   7.208   5.432
 2663TIP3    H1 7932   2.694   7.277   5.476
 2663TIP3    H2 7933   2.561   7.250   5.409
 2664TIP3   OH2 7934   7.008   1.512   1.618
 2664TIP3    H1 7935   6.939   1.482   1.558
 2664TIP3    H2 7936   6.994   1.461   1.698
 2665TIP3   OH2 7937   0.932   0.647   5.617
 2665TIP3    H1 7938   0.905   0.555   5.615
 2665TIP3    H2 7939   1.019   0.646   5.658
 2666TIP3   OH2 7940   1.556   6.017   1.182
 2666TIP3    H1 7941   1.510   6.024   1.265
 2666TIP3    H2 7942   1.566   6.108   1.152
 2667TIP3   OH2 7943   2.649   0.075   5.513
 2667TIP3    H1 7944   2.741   0.100   5.503
 2667TIP3    H2 7945   2.652  -0.016   5.541
 2668TIP3   OH2 7946   4.166   0.416   1.505
 2668TIP3    H1 7947   4.230   0.404   1.435
 2668TIP3    H2 7948   4.100   0.348   1.490
 2669TIP3   OH2 7949   2.295   7.321   6.606
 2669TIP3    H1 7950   2.285   7.240   6.656
 2669TIP3    H2 7951   2.370   7.305   6.549
 2670TIP3   OH2 7952   6.163   2.964   1.424
 2670TIP3    H1 7953   6.164   2.971   1.520
 2670TIP3    H2 7954   6.242   2.913   1.403
 2671TIP3   OH2 7955   2.914   0.578   5.941
 2671TIP3    H1 7956   2.868   0.495   5.931
 2671TIP3    H2 7957   3.005   0.552   5.956
 2672TIP3   OH2 7958   6.907   6.394   2.795
 2672TIP3    H1 7959   6.924   6.311   2.749
 2672TIP3    H2 7960   6.940   6.461   2.735
 2673TIP3   OH2 7961   7.446   0.964   2.901
 2673TIP3    H1 7962   7.350   0.961   2.900
 2673TIP3    H2 7963   7.470   0.993   2.813
 2674TIP3   OH2 7964   5.396   3.207   3.201
 2674TIP3    H1 7965   5.367   3.276   3.140
 2674TIP3    H2 7966   5.355   3.127   3.168
 2675TIP3   OH2 7967   1.644   5.575   4.768
 2675TIP3    H1 7968   1.705   5.546   4.836
 2675TIP3    H2 7969   1.672   5.664   4.748
 2676TIP3   OH2 7970   0.708   1.181   0.160
 2676TIP3    H1 7971   0.657   1.257   0.131
 2676TIP3    H2 7972   0.729   1.134   0.080
 2677TIP3   OH2 7973   7.474   1.307   1.760
 2677TIP3    H1 7974   7.483   1.359   1.681
 2677TIP3    H2 7975   7.486   1.369   1.831
 2678TIP3   OH2 7976   1.532   7.305   0.017
 2678TIP3    H1 7977   1.462   7.371   0.018
 2678TIP3    H2 7978   1.601   7.342   0.072
 2679TIP3   OH2 7979   1.207   7.001   3.317
 2679TIP3    H1 7980   1.178   7.046   3.396
 2679TIP3    H2 7981   1.280   7.053   3.284
 2680TIP3   OH2 7982   0.019   7.364   2.479
 2680TIP3    H1 7983  -0.014   7.304   2.546
 2680TIP3    H2 7984   0.090   7.411   2.521
 2681TIP3   OH2 7985   0.879   6.663   5.392
 2681TIP3    H1 7986   0.973   6.651   5.405
 2681TIP3    H2 7987   0.856   6.601   5.323
 2682TIP3   OH2 7988   5.459   4.334   0.801
 2682TIP3    H1 7989   5.538   4.363   0.846
 2682TIP3    H2 7990   5.392   4.398   0.825
 2683TIP3   OH2 7991   6.561   0.828   0.976
 2683TIP3    H1 7992   6.580   0.867   1.061
 2683TIP3    H2 7993   6.488   0.768   0.994
 2684TIP3   OH2 7994   2.913   1.733   5.149
 2684TIP3    H1 7995   2.959   1.817   5.147
 2684TIP3    H2 7996   2.850   1.741   5.221
 2685TIP3   OH2 7997   8.223   5.945   3.985
 2685TIP3    H1 7998   8.260   5.937   3.897
 2685TIP3    H2 7999   8.269   6.020   4.024
 2686TIP3   OH2 8000   0.992   5.820   3.420
 2686TIP3    H1 8001   0.977   5.732   3.454
 2686TIP3    H2 8002   0.913   5.868   3.446
 2687TIP3   OH2 8003   0.669   2.839   4.019
 2687TIP3    H1 8004   0.728   2.817   4.091
 2687TIP3    H2 8005   0.587   2.794   4.040
 2688TIP3   OH2 8006   6.775   6.224   4.318
 2688TIP3    H1 8007   6.846   6.165   4.342
 2688TIP3    H2 8008   6.780   6.229   4.222
 2689TIP3   OH2 8009   6.066   0.863   5.426
 2689TIP3    H1 8010   6.097   0.857   5.517
 2689TIP3    H2 8011   6.062   0.957   5.408
 2690TIP3   OH2 8012   7.509   2.899   3.226
 2690TIP3    H1 8013   7.544   2.812   3.205
 2690TIP3    H2 8014   7.529   2.953   3.150
 2691TIP3   OH2 8015   5.966   5.441   0.155
 2691TIP3    H1 8016   6.040   5.500   0.145
 2691TIP3    H2 8017   5.934   5.456   0.244
 2692TIP3   OH2 8018   2.473   3.389   0.340
 2692TIP3    H1 8019   2.541   3.455   0.354
 2692TIP3    H2 8020   2.392   3.439   0.333
 2693TIP3   OH2 8021   0.734   7.597   2.469
 2693TIP3    H1 8022   0.795   7.556   2.530
 2693TIP3    H2 8023   0.689   7.524   2.427
 2694TIP3   OH2 8024   0.871   1.965   2.834
 2694TIP3    H1 8025   0.909   1.977   2.747
 2694TIP3    H2 8026   0.806   2.035   2.842
 2695TIP3   OH2 8027   4.974   2.385   2.327
 2695TIP3    H1 8028   4.972   2.470   2.283
 2695TIP3    H2 8029   5.052   2.343   2.292
 2696TIP3   OH2 8030   3.799   6.264   1.851
 2696TIP3    H1 8031   3.767   6.254   1.941
 2696TIP3    H2 8032   3.891   6.239   1.856
 2697TIP3   OH2 8033   5.005   4.017   0.452
 2697TIP3    H1 8034   5.079   3.994   0.396
 2697TIP3    H2 8035   5.021   3.971   0.534
 2698TIP3   OH2 8036   6.017   5.472   0.946
 2698TIP3    H1 8037   6.008   5.411   1.019
 2698TIP3    H2 8038   5.944   5.452   0.888
 2699TIP3   OH2 8039   4.643   7.531   1.580
 2699TIP3    H1 8040   4.721   7.478   1.561
 2699TIP3    H2 8041   4.675   7.598   1.640
 2700TIP3   OH2 8042   1.576   5.569   1.003
 2700TIP3    H1 8043   1.610   5.561   1.092
 2700TIP3    H2 8044   1.541   5.658   0.999
 2701TIP3   OH2 8045   0.039   1.344   3.110
 2701TIP3    H1 8046  -0.027   1.274   3.114
 2701TIP3    H2 8047   0.063   1.348   3.017
 2702TIP3   OH2 8048   6.915   6.894   4.874
 2702TIP3    H1 8049   6.960   6.976   4.893
 2702TIP3    H2 8050   6.923   6.843   4.955
 2703TIP3   OH2 8051   1.924   3.082   2.357
 2703TIP3    H1 8052   1.914   3.125   2.272
 2703TIP3    H2 8053   2.012   3.045   2.354
 2704TIP3   OH2 8054   1.867   3.756   5.739
 2704TIP3    H1 8055   1.884   3.762   5.833
 2704TIP3    H2 8056   1.948   3.784   5.697
 2705TIP3   OH2 8057   7.572   3.504   1.885
 2705TIP3    H1 8058   7.588   3.449   1.962
 2705TIP3    H2 8059   7.645   3.566   1.883
 2706TIP3   OH2 8060   6.934   0.376   6.095
 2706TIP3    H1 8061   6.846   0.374   6.058
 2706TIP3    H2 8062   6.974   0.454   6.058
 2707TIP3   OH2 8063   5.754   4.310   5.469
 2707TIP3    H1 8064   5.694   4.366   5.420
 2707TIP3    H2 8065   5.841   4.346   5.449
 2708TIP3   OH2 8066   3.113   4.313   6.048
 2708TIP3    H1 8067   3.025   4.330   6.084
 2708TIP3    H2 8068   3.158   4.264   6.117
 2709TIP3   OH2 8069   3.821   1.926   1.658
 2709TIP3    H1 8070   3.877   1.978   1.716
 2709TIP3    H2 8071   3.861   1.839   1.657
 2710TIP3   OH2 8072   1.504   3.318   3.792
 2710TIP3    H1 8073   1.520   3.386   3.726
 2710TIP3    H2 8074   1.586   3.314   3.841
 2711TIP3   OH2 8075   5.555   4.983   2.485
 2711TIP3    H1 8076   5.552   5.034   2.566
 2711TIP3    H2 8077   5.506   4.903   2.505
 2712TIP3   OH2 8078   2.315   0.861   4.294
 2712TIP3    H1 8079   2.383   0.914   4.253
 2712TIP3    H2 8080   2.280   0.808   4.222
 2713TIP3   OH2 8081   1.464   3.273   1.436
 2713TIP3    H1 8082   1.484   3.267   1.342
 2713TIP3    H2 8083   1.453   3.183   1.464
 2714TIP3   OH2 8084   0.985   5.736   4.250
 2714TIP3    H1 8085   0.899   5.711   4.282
 2714TIP3    H2 8086   1.033   5.653   4.241
 2715TIP3   OH2 8087   3.226   6.101   1.199
 2715TIP3    H1 8088   3.237   6.037   1.269
 2715TIP3    H2 8089   3.142   6.144   1.218
 2716TIP3   OH2 8090   6.558   0.491   4.593
 2716TIP3    H1 8091   6.468   0.522   4.606
 2716TIP3    H2 8092   6.595   0.488   4.681
 2717TIP3   OH2 8093   1.500   7.250   0.688
 2717TIP3    H1 8094   1.479   7.233   0.596
 2717TIP3    H2 8095   1.591   7.279   0.686
 2718TIP3   OH2 8096   2.304   1.702   6.245
 2718TIP3    H1 8097   2.271   1.754   6.318
 2718TIP3    H2 8098   2.231   1.644   6.223
 2719TIP3   OH2 8099   0.630   7.366   2.391
 2719TIP3    H1 8100   0.682   7.293   2.424
 2719TIP3    H2 8101   0.566   7.324   2.333
 2720TIP3   OH2 8102   3.243   4.461   0.173
 2720TIP3    H1 8103   3.291   4.480   0.092
 2720TIP3    H2 8104   3.305   4.484   0.243
 2721TIP3   OH2 8105   1.439   4.221   3.512
 2721TIP3    H1 8106   1.403   4.309   3.499
 2721TIP3    H2 8107   1.516   4.218   3.455
 2722TIP3   OH2 8108   8.260   3.684   6.472
 2722TIP3    H1 8109   8.202   3.760   6.458
 2722TIP3    H2 8110   8.335   3.721   6.519
 2723TIP3   OH2 8111   1.045   3.288   2.773
 2723TIP3    H1 8112   1.094   3.215   2.736
 2723TIP3    H2 8113   1.059   3.281   2.868
 2724TIP3   OH2 8114   5.382   2.120   6.114
 2724TIP3    H1 8115   5.473   2.125   6.144
 2724TIP3    H2 8116   5.368   2.028   6.094
 2725TIP3   OH2 8117   6.595   7.183   0.175
 2725TIP3    H1 8118   6.599   7.109   0.114
 2725TIP3    H2 8119   6.545   7.250   0.129
 2726TIP3   OH2 8120   7.703   0.473   2.449
 2726TIP3    H1 8121   7.629   0.527   2.478
 2726TIP3    H2 8122   7.775   0.498   2.507
 2727TIP3   OH2 8123   7.635   1.771   5.419
 2727TIP3    H1 8124   7.613   1.780   5.512
 2727TIP3    H2 8125   7.556   1.733   5.380
 2728TIP3   OH2 8126   1.065   2.984   4.273
 2728TIP3    H1 8127   1.083   3.069   4.314
 2728TIP3    H2 8128   1.108   2.920   4.331
 2729TIP3   OH2 8129   4.122   2.707   0.749
 2729TIP3    H1 8130   4.114   2.620   0.709
 2729TIP3    H2 8131   4.090   2.767   0.682
 2730TIP3   OH2 8132   6.477   2.400   4.680
 2730TIP3    H1 8133   6.538   2.358   4.740
 2730TIP3    H2 8134   6.510   2.490   4.671
 2731TIP3   OH2 8135   0.511   0.227   2.713
 2731TIP3    H1 8136   0.470   0.145   2.739
 2731TIP3    H2 8137   0.568   0.203   2.640
 2732TIP3   OH2 8138   3.516   6.945   6.551
 2732TIP3    H1 8139   3.485   6.903   6.631
 2732TIP3    H2 8140   3.540   6.873   6.493
 2733TIP3   OH2 8141   6.399   5.000   5.003
 2733TIP3    H1 8142   6.380   4.990   5.097
 2733TIP3    H2 8143   6.453   5.079   4.999
 2734TIP3   OH2 8144   7.723   2.410   0.159
 2734TIP3    H1 8145   7.776   2.376   0.087
 2734TIP3    H2 8146   7.662   2.470   0.118
 2735TIP3   OH2 8147   7.180   2.532   5.364
 2735TIP3    H1 8148   7.245   2.480   5.412
 2735TIP3    H2 8149   7.101   2.478   5.363
 2736TIP3   OH2 8150   5.458   0.646   5.996
 2736TIP3    H1 8151   5.523   0.601   5.942
 2736TIP3    H2 8152   5.410   0.576   6.040
 2737TIP3   OH2 8153   0.663   1.887   5.385
 2737TIP3    H1 8154   0.650   1.805   5.432
 2737TIP3    H2 8155   0.576   1.924   5.377
 2738TIP3   OH2 8156   6.247   2.740   5.670
 2738TIP3    H1 8157   6.192   2.752   5.592
 2738TIP3    H2 8158   6.200   2.674   5.721
 2739TIP3   OH2 8159   6.565   6.685   3.090
 2739TIP3    H1 8160   6.493   6.623   3.083
 2739TIP3    H2 8161   6.523   6.771   3.088
 2740TIP3   OH2 8162   4.114   2.413   4.248
 2740TIP3    H1 8163   4.184   2.409   4.313
 2740TIP3    H2 8164   4.158   2.394   4.165
 2741TIP3   OH2 8165   0.175   5.708   0.142
 2741TIP3    H1 8166   0.257   5.743   0.175
 2741TIP3    H2 8167   0.113   5.721   0.214
 2742TIP3   OH2 8168   5.458   1.949   5.377
 2742TIP3    H1 8169   5.409   1.867   5.374
 2742TIP3    H2 8170   5.391   2.017   5.383
 2743TIP3   OH2 8171   1.940   5.572   4.201
 2743TIP3    H1 8172   1.932   5.619   4.283
 2743TIP3    H2 8173   1.873   5.609   4.144
 2744TIP3   OH2 8174   6.836   1.733   2.395
 2744TIP3    H1 8175   6.798   1.787   2.464
 2744TIP3    H2 8176   6.795   1.765   2.315
 2745TIP3   OH2 8177   4.689   5.450   6.224
 2745TIP3    H1 8178   4.750   5.444   6.151
 2745TIP3    H2 8179   4.651   5.362   6.231
 2746TIP3   OH2 8180   6.959   5.156   1.624
 2746TIP3    H1 8181   6.961   5.217   1.697
 2746TIP3    H2 8182   6.867   5.130   1.618
 2747TIP3   OH2 8183   4.272   0.124   6.699
 2747TIP3    H1 8184   4.318   0.041   6.686
 2747TIP3    H2 8185   4.336   0.180   6.744
 2748TIP3   OH2 8186   6.031   0.715   0.192
 2748TIP3    H1 8187   6.099   0.667   0.146
 2748TIP3    H2 8188   5.981   0.647   0.238
 2749TIP3   OH2 8189   4.415   4.605   0.341
 2749TIP3    H1 8190   4.475   4.530   0.340
 2749TIP3    H2 8191   4.392   4.620   0.250
 2750TIP3   OH2 8192   7.572   0.658   4.428
 2750TIP3    H1 8193   7.481   0.687   4.422
 2750TIP3    H2 8194   7.613   0.692   4.348
 2751TIP3   OH2 8195   6.696   2.767   2.732
 2751TIP3    H1 8196   6.658   2.680   2.721
 2751TIP3    H2 8197   6.781   2.762   2.689
 2752TIP3   OH2 8198   4.523   4.538   4.785
 2752TIP3    H1 8199   4.550   4.533   4.694
 2752TIP3    H2 8200   4.464   4.463   4.796
 2753TIP3   OH2 8201   0.360   1.293   5.777
 2753TIP3    H1 8202   0.339   1.380   5.811
 2753TIP3    H2 8203   0.322   1.232   5.841
 2754TIP3   OH2 8204   3.874   5.445   2.204
 2754TIP3    H1 8205   3.913   5.427   2.289
 2754TIP3    H2 8206   3.793   5.491   2.224
 2755TIP3   OH2 8207   7.256   7.382   3.971
 2755TIP3    H1 8208   7.185   7.399   4.033
 2755TIP3    H2 8209   7.227   7.425   3.890
 2756TIP3   OH2 8210   4.230   4.959   3.077
 2756TIP3    H1 8211   4.183   5.019   3.018
 2756TIP3    H2 8212   4.304   5.010   3.108
 2757TIP3   OH2 8213   3.066   1.489   5.570
 2757TIP3    H1 8214   3.016   1.446   5.501
 2757TIP3    H2 8215   3.124   1.549   5.524
 2758TIP3   OH2 8216   2.549   3.600   2.259
 2758TIP3    H1 8217   2.585   3.572   2.343
 2758TIP3    H2 8218   2.557   3.695   2.260
 2759TIP3   OH2 8219   6.240   1.181   5.127
 2759TIP3    H1 8220   6.249   1.135   5.043
 2759TIP3    H2 8221   6.330   1.202   5.152
 2760TIP3   OH2 8222   6.259   0.667   3.326
 2760TIP3    H1 8223   6.182   0.706   3.285
 2760TIP3    H2 8224   6.323   0.738   3.330
 2761TIP3   OH2 8225   7.531   0.619   2.584
 2761TIP3    H1 8226   7.497   0.639   2.496
 2761TIP3    H2 8227   7.596   0.687   2.600
 2762TIP3   OH2 8228   0.058   1.992   3.947
 2762TIP3    H1 8229   0.045   1.977   3.853
 2762TIP3    H2 8230  -0.026   1.969   3.987
 2763TIP3   OH2 8231   2.606   7.602   6.182
 2763TIP3    H1 8232   2.638   7.654   6.108
 2763TIP3    H2 8233   2.632   7.512   6.160
 2764TIP3   OH2 8234   1.119   2.167   2.195
 2764TIP3    H1 8235   1.047   2.210   2.241
 2764TIP3    H2 8236   1.075   2.111   2.131
 2765TIP3   OH2 8237   0.078   4.904   3.035
 2765TIP3    H1 8238   0.100   4.845   2.963
 2765TIP3    H2 8239   0.153   4.962   3.043
 2766TIP3   OH2 8240   4.248   3.570   0.440
 2766TIP3    H1 8241   4.170   3.550   0.389
 2766TIP3    H2 8242   4.216   3.589   0.528
 2767TIP3   OH2 8243   1.365   6.591   0.676
 2767TIP3    H1 8244   1.380   6.646   0.599
 2767TIP3    H2 8245   1.387   6.503   0.647
 2768TIP3   OH2 8246   5.349   7.678   0.517
 2768TIP3    H1 8247   5.290   7.749   0.543
 2768TIP3    H2 8248   5.403   7.716   0.448
 2769TIP3   OH2 8249   6.611   6.632   6.552
 2769TIP3    H1 8250   6.571   6.718   6.533
 2769TIP3    H2 8251   6.557   6.596   6.623
 2770TIP3   OH2 8252   6.325   4.955   5.277
 2770TIP3    H1 8253   6.232   4.937   5.261
 2770TIP3    H2 8254   6.357   4.876   5.321
 2771TIP3   OH2 8255   6.377   5.525   3.385
 2771TIP3    H1 8256   6.333   5.477   3.455
 2771TIP3    H2 8257   6.449   5.468   3.358
 2772TIP3   OH2 8258   8.109   6.449   1.802
 2772TIP3    H1 8259   8.104   6.536   1.841
 2772TIP3    H2 8260   8.193   6.448   1.756
 2773TIP3   OH2 8261   8.150   2.597   4.510
 2773TIP3    H1 8262   8.238   2.588   4.548
 2773TIP3    H2 8263   8.092   2.605   4.586
 2774TIP3   OH2 8264   7.238   5.563   3.628
 2774TIP3    H1 8265   7.148   5.592   3.613
 2774TIP3    H2 8266   7.239   5.472   3.600
 2775TIP3   OH2 8267   1.742   2.877   3.345
 2775TIP3    H1 8268   1.754   2.948   3.409
 2775TIP3    H2 8269   1.664   2.902   3.296
 2776TIP3   OH2 8270   6.300   6.516   0.664
 2776TIP3    H1 8271   6.285   6.563   0.583
 2776TIP3    H2 8272   6.344   6.435   0.637
 2777TIP3   OH2 8273   5.155   2.217   1.519
 2777TIP3    H1 8274   5.228   2.277   1.504
 2777TIP3    H2 8275   5.081   2.273   1.541
 2778TIP3   OH2 8276   1.566   2.203   4.982
 2778TIP3    H1 8277   1.477   2.176   4.958
 2778TIP3    H2 8278   1.622   2.160   4.917
 2779TIP3   OH2 8279   0.788   1.324   2.520
 2779TIP3    H1 8280   0.811   1.334   2.428
 2779TIP3    H2 8281   0.782   1.413   2.554
 2780TIP3   OH2 8282   7.394   0.988   2.090
 2780TIP3    H1 8283   7.423   1.032   2.170
 2780TIP3    H2 8284   7.340   1.053   2.045
 2781TIP3   OH2 8285   5.477   4.363   3.907
 2781TIP3    H1 8286   5.407   4.309   3.945
 2781TIP3    H2 8287   5.432   4.420   3.845
 2782TIP3   OH2 8288   7.804   5.537   6.170
 2782TIP3    H1 8289   7.806   5.444   6.147
 2782TIP3    H2 8290   7.887   5.552   6.215
 2783TIP3   OH2 8291   7.070   3.047   2.091
 2783TIP3    H1 8292   7.126   2.971   2.075
 2783TIP3    H2 8293   7.123   3.106   2.145
 2784TIP3   OH2 8294   6.169   1.116   3.421
 2784TIP3    H1 8295   6.075   1.097   3.416
 2784TIP3    H2 8296   6.206   1.038   3.463
 2785TIP3   OH2 8297   5.680   4.858   5.761
 2785TIP3    H1 8298   5.585   4.868   5.760
 2785TIP3    H2 8299   5.694   4.771   5.798
 2786TIP3   OH2 8300   8.123   2.652   1.538
 2786TIP3    H1 8301   8.103   2.742   1.563
 2786TIP3    H2 8302   8.208   2.658   1.496
 2787TIP3   OH2 8303   3.559   4.604   5.062
 2787TIP3    H1 8304   3.477   4.554   5.067
 2787TIP3    H2 8305   3.559   4.656   5.143
 2788TIP3   OH2 8306   4.599   5.483   1.102
 2788TIP3    H1 8307   4.689   5.453   1.116
 2788TIP3    H2 8308   4.602   5.526   1.016
 2789TIP3   OH2 8309   3.790   2.783   4.412
 2789TIP3    H1 8310   3.712   2.758   4.461
 2789TIP3    H2 8311   3.855   2.716   4.434
 2790TIP3   OH2 8312   1.645   6.273   2.893
 2790TIP3    H1 8313   1.585   6.280   2.819
 2790TIP3    H2 8314   1.731   6.264   2.853
 2791TIP3   OH2 8315   7.513   0.167   3.403
 2791TIP3    H1 8316   7.570   0.236   3.436
 2791TIP3    H2 8317   7.468   0.207   3.328
 2792TIP3   OH2 8318   1.637   6.247   1.777
 2792TIP3    H1 8319   1.703   6.221   1.713
 2792TIP3    H2 8320   1.660   6.201   1.857
 2793TIP3   OH2 8321   5.086   3.498   1.761
 2793TIP3    H1 8322   5.111   3.580   1.719
 2793TIP3    H2 8323   4.997   3.481   1.730
 2794TIP3   OH2 8324   7.353   0.042   2.992
 2794TIP3    H1 8325   7.405   0.027   3.071
 2794TIP3    H2 8326   7.417   0.043   2.921
 2795TIP3   OH2 8327   6.165   0.359   0.528
 2795TIP3    H1 8328   6.085   0.400   0.496
 2795TIP3    H2 8329   6.235   0.419   0.501
 2796TIP3   OH2 8330   3.543   7.482   0.255
 2796TIP3    H1 8331   3.588   7.401   0.231
 2796TIP3    H2 8332   3.606   7.529   0.309
 2797TIP3   OH2 8333   4.744   2.503   0.526
 2797TIP3    H1 8334   4.687   2.508   0.603
 2797TIP3    H2 8335   4.826   2.467   0.558
 2798TIP3   OH2 8336   2.345   6.629   2.955
 2798TIP3    H1 8337   2.311   6.631   2.865
 2798TIP3    H2 8338   2.354   6.536   2.976
 2799TIP3   OH2 8339   7.567   2.935   0.145
 2799TIP3    H1 8340   7.621   2.989   0.203
 2799TIP3    H2 8341   7.489   2.916   0.197
 2800TIP3   OH2 8342   5.987   5.619   5.964
 2800TIP3    H1 8343   6.000   5.696   5.909
 2800TIP3    H2 8344   6.065   5.614   6.019
 2801TIP3   OH2 8345   7.142   5.090   3.822
 2801TIP3    H1 8346   7.153   5.185   3.834
 2801TIP3    H2 8347   7.232   5.057   3.814
 2802TIP3   OH2 8348   2.920   6.255   1.831
 2802TIP3    H1 8349   2.905   6.337   1.880
 2802TIP3    H2 8350   2.863   6.191   1.874
 2803TIP3   OH2 8351   1.332   2.393   2.453
 2803TIP3    H1 8352   1.349   2.354   2.538
 2803TIP3    H2 8353   1.324   2.486   2.470
 2804TIP3   OH2 8354   1.056   4.942   2.382
 2804TIP3    H1 8355   0.972   4.896   2.374
 2804TIP3    H2 8356   1.039   5.030   2.350
 2805TIP3   OH2 8357   1.986   6.427   2.866
 2805TIP3    H1 8358   2.061   6.447   2.811
 2805TIP3    H2 8359   1.910   6.443   2.810
 2806TIP3   OH2 8360   4.408   1.470   5.356
 2806TIP3    H1 8361   4.339   1.525   5.318
 2806TIP3    H2 8362   4.489   1.513   5.329
 2807TIP3   OH2 8363   1.945   2.796   2.913
 2807TIP3    H1 8364   2.026   2.752   2.939
 2807TIP3    H2 8365   1.914   2.840   2.993
 2808TIP3   OH2 8366   5.647   1.599   5.629
 2808TIP3    H1 8367   5.626   1.505   5.628
 2808TIP3    H2 8368   5.727   1.605   5.578
 2809TIP3   OH2 8369   4.533   4.501   5.140
 2809TIP3    H1 8370   4.532   4.436   5.069
 2809TIP3    H2 8371   4.540   4.449   5.220
 2810TIP3   OH2 8372   5.463   5.520   5.175
 2810TIP3    H1 8373   5.491   5.473   5.254
 2810TIP3    H2 8374   5.511   5.603   5.177
 2811TIP3   OH2 8375   6.945   1.302   4.534
 2811TIP3    H1 8376   6.939   1.218   4.488
 2811TIP3    H2 8377   7.023   1.342   4.498
 2812TIP3   OH2 8378   7.394   1.012   1.151
 2812TIP3    H1 8379   7.418   1.045   1.064
 2812TIP3    H2 8380   7.299   1.009   1.151
 2813TIP3   OH2 8381   1.124   1.958   6.029
 2813TIP3    H1 8382   1.135   2.025   6.097
 2813TIP3    H2 8383   1.200   1.900   6.039
 2814TIP3   OH2 8384   6.913   6.735   0.290
 2814TIP3    H1 8385   6.948   6.720   0.377
 2814TIP3    H2 8386   6.823   6.762   0.305
 2815TIP3   OH2 8387   6.242   3.313   0.306
 2815TIP3    H1 8388   6.168   3.327   0.247
 2815TIP3    H2 8389   6.223   3.367   0.383
 2816TIP3   OH2 8390   1.422   1.239   6.295
 2816TIP3    H1 8391   1.346   1.206   6.344
 2816TIP3    H2 8392   1.480   1.274   6.362
 2817TIP3   OH2 8393   5.870   0.809  -0.060
 2817TIP3    H1 8394   5.895   0.835   0.029
 2817TIP3    H2 8395   5.782   0.843  -0.071
 2818TIP3   OH2 8396   3.268   1.722   6.046
 2818TIP3    H1 8397   3.202   1.713   6.116
 2818TIP3    H2 8398   3.348   1.686   6.085
 2819TIP3   OH2 8399   2.771   4.555   1.052
 2819TIP3    H1 8400   2.738   4.466   1.065
 2819TIP3    H2 8401   2.769   4.567   0.957
 2820TIP3   OH2 8402   0.946   4.936   0.068
 2820TIP3    H1 8403   0.901   5.017   0.094
 2820TIP3    H2 8404   0.969   4.894   0.151
 2821TIP3   OH2 8405   5.902   3.177   5.819
 2821TIP3    H1 8406   5.941   3.253   5.862
 2821TIP3    H2 8407   5.864   3.212   5.738
 2822TIP3   OH2 8408   0.074   7.696   5.186
 2822TIP3    H1 8409   0.107   7.609   5.211
 2822TIP3    H2 8410   0.118   7.716   5.104
 2823TIP3   OH2 8411   2.939   3.174   4.626
 2823TIP3    H1 8412   2.944   3.127   4.709
 2823TIP3    H2 8413   2.977   3.260   4.644
 2824TIP3   OH2 8414   6.438   5.129   2.109
 2824TIP3    H1 8415   6.364   5.150   2.166
 2824TIP3    H2 8416   6.427   5.186   2.033
 2825TIP3   OH2 8417   0.397   4.914   5.112
 2825TIP3    H1 8418   0.464   4.876   5.168
 2825TIP3    H2 8419   0.364   4.840   5.061
 2826TIP3   OH2 8420   3.923   2.206   2.187
 2826TIP3    H1 8421   3.829   2.197   2.202
 2826TIP3    H2 8422   3.964   2.170   2.266
 2827TIP3   OH2 8423   6.813   4.142   0.511
 2827TIP3    H1 8424   6.885   4.204   0.524
 2827TIP3    H2 8425   6.760   4.150   0.590
 2828TIP3   OH2 8426   5.497   7.394   0.763
 2828TIP3    H1 8427   5.529   7.484   0.772
 2828TIP3    H2 8428   5.404   7.403   0.744
 2829TIP3   OH2 8429   2.401   1.289   5.548
 2829TIP3    H1 8430   2.393   1.374   5.505
 2829TIP3    H2 8431   2.426   1.310   5.638
 2830TIP3   OH2 8432   1.525   6.733   4.670
 2830TIP3    H1 8433   1.467   6.802   4.703
 2830TIP3    H2 8434   1.541   6.677   4.746
 2831TIP3   OH2 8435   7.458   3.598   2.961
 2831TIP3    H1 8436   7.414   3.657   2.900
 2831TIP3    H2 8437   7.503   3.535   2.905
 2832TIP3   OH2 8438   5.129   3.894   1.125
 2832TIP3    H1 8439   5.066   3.849   1.069
 2832TIP3    H2 8440   5.091   3.980   1.140
 2833TIP3   OH2 8441   0.674   5.751   1.527
 2833TIP3    H1 8442   0.602   5.691   1.505
 2833TIP3    H2 8443   0.631   5.829   1.560
 2834TIP3   OH2 8444   0.126   4.887   0.289
 2834TIP3    H1 8445   0.145   4.816   0.228
 2834TIP3    H2 8446   0.127   4.966   0.234
 2835TIP3   OH2 8447   3.251   5.890   6.261
 2835TIP3    H1 8448   3.262   5.978   6.225
 2835TIP3    H2 8449   3.260   5.832   6.185
 2836TIP3   OH2 8450   8.132   7.036   1.725
 2836TIP3    H1 8451   8.157   7.121   1.762
 2836TIP3    H2 8452   8.037   7.042   1.714
 2837TIP3   OH2 8453   7.967   2.693   3.818
 2837TIP3    H1 8454   7.965   2.710   3.724
 2837TIP3    H2 8455   7.884   2.650   3.836
 2838TIP3   OH2 8456   6.709   7.116   4.842
 2838TIP3    H1 8457   6.737   7.141   4.930
 2838TIP3    H2 8458   6.769   7.045   4.817
 2839TIP3   OH2 8459   0.429   6.340   1.452
 2839TIP3    H1 8460   0.443   6.251   1.486
 2839TIP3    H2 8461   0.484   6.345   1.374
 2840TIP3   OH2 8462   8.163   5.691   2.544
 2840TIP3    H1 8463   8.115   5.693   2.462
 2840TIP3    H2 8464   8.116   5.754   2.601
 2841TIP3   OH2 8465   4.745   5.548   0.148
 2841TIP3    H1 8466   4.761   5.533   0.241
 2841TIP3    H2 8467   4.665   5.499   0.129
 2842TIP3   OH2 8468   0.551   5.875   6.190
 2842TIP3    H1 8469   0.458   5.869   6.212
 2842TIP3    H2 8470   0.582   5.950   6.240
 2843TIP3   OH2 8471   2.430   5.510   2.887
 2843TIP3    H1 8472   2.522   5.503   2.862
 2843TIP3    H2 8473   2.430   5.564   2.966
 2844TIP3   OH2 8474   6.226   1.435   3.710
 2844TIP3    H1 8475   6.210   1.490   3.787
 2844TIP3    H2 8476   6.142   1.433   3.664
 2845TIP3   OH2 8477   5.507   1.332   2.529
 2845TIP3    H1 8478   5.506   1.385   2.449
 2845TIP3    H2 8479   5.443   1.374   2.586
 2846TIP3   OH2 8480   7.371   0.549   3.860
 2846TIP3    H1 8481   7.349   0.482   3.795
 2846TIP3    H2 8482   7.419   0.501   3.928
 2847TIP3   OH2 8483   1.200   5.011   4.504
 2847TIP3    H1 8484   1.147   5.047   4.575
 2847TIP3    H2 8485   1.246   5.087   4.468
 2848TIP3   OH2 8486   2.670   7.800   5.967
 2848TIP3    H1 8487   2.671   7.890   5.999
 2848TIP3    H2 8488   2.762   7.777   5.956
 2849TIP3   OH2 8489   0.142   2.869   0.374
 2849TIP3    H1 8490   0.183   2.956   0.371
 2849TIP3    H2 8491   0.057   2.881   0.333
 2850TIP3   OH2 8492   6.646   1.950   6.647
 2850TIP3    H1 8493   6.693   1.866   6.641
 2850TIP3    H2 8494   6.603   1.959   6.562
 2851TIP3   OH2 8495   0.126   6.337   4.326
 2851TIP3    H1 8496   0.039   6.298   4.331
 2851TIP3    H2 8497   0.183   6.264   4.302
 2852TIP3   OH2 8498   4.873   7.273   4.101
 2852TIP3    H1 8499   4.912   7.353   4.138
 2852TIP3    H2 8500   4.802   7.305   4.045
 2853TIP3   OH2 8501   3.281   7.695   4.330
 2853TIP3    H1 8502   3.337   7.736   4.396
 2853TIP3    H2 8503   3.194   7.733   4.346
 2854TIP3   OH2 8504   2.408   3.821   3.844
 2854TIP3    H1 8505   2.466   3.892   3.872
 2854TIP3    H2 8506   2.383   3.843   3.755
 2855TIP3   OH2 8507   5.313   7.462   3.225
 2855TIP3    H1 8508   5.312   7.427   3.136
 2855TIP3    H2 8509   5.285   7.389   3.281
 2856TIP3   OH2 8510   0.009   6.477   2.657
 2856TIP3    H1 8511   0.024   6.499   2.565
 2856TIP3    H2 8512   0.094   6.487   2.699
 2857TIP3   OH2 8513   5.044   1.607   3.653
 2857TIP3    H1 8514   4.994   1.525   3.648
 2857TIP3    H2 8515   5.076   1.621   3.563
 2858TIP3   OH2 8516   2.862   0.662   0.694
 2858TIP3    H1 8517   2.772   0.693   0.687
 2858TIP3    H2 8518   2.866   0.618   0.779
 2859TIP3   OH2 8519   4.720   4.875   4.226
 2859TIP3    H1 8520   4.724   4.784   4.196
 2859TIP3    H2 8521   4.667   4.919   4.160
 2860TIP3   OH2 8522   0.997   7.735   0.463
 2860TIP3    H1 8523   1.058   7.745   0.536
 2860TIP3    H2 8524   1.004   7.817   0.413
 2861TIP3   OH2 8525   3.656   3.248   2.202
 2861TIP3    H1 8526   3.645   3.296   2.284
 2861TIP3    H2 8527   3.568   3.248   2.162
 2862TIP3   OH2 8528   3.264   5.116   3.909
 2862TIP3    H1 8529   3.233   5.200   3.877
 2862TIP3    H2 8530   3.191   5.082   3.961
 2863TIP3   OH2 8531   1.277   2.169   3.440
 2863TIP3    H1 8532   1.232   2.109   3.381
 2863TIP3    H2 8533   1.208   2.229   3.471
 2864TIP3   OH2 8534   5.095   7.262   5.397
 2864TIP3    H1 8535   5.043   7.192   5.436
 2864TIP3    H2 8536   5.176   7.220   5.368
 2865TIP3   OH2 8537   1.583   0.244   4.336
 2865TIP3    H1 8538   1.567   0.155   4.305
 2865TIP3    H2 8539   1.678   0.248   4.348
 2866TIP3   OH2 8540   1.353   3.246   0.235
 2866TIP3    H1 8541   1.257   3.244   0.239
 2866TIP3    H2 8542   1.380   3.280   0.320
 2867TIP3   OH2 8543   5.479   2.638   0.710
 2867TIP3    H1 8544   5.458   2.731   0.701
 2867TIP3    H2 8545   5.399   2.593   0.686
 2868TIP3   OH2 8546   7.558   7.140   1.542
 2868TIP3    H1 8547   7.625   7.164   1.606
 2868TIP3    H2 8548   7.581   7.187   1.463
 2869TIP3   OH2 8549   4.577   4.492   3.496
 2869TIP3    H1 8550   4.552   4.533   3.413
 2869TIP3    H2 8551   4.658   4.445   3.476
 2870TIP3   OH2 8552   2.506   0.324   4.672
 2870TIP3    H1 8553   2.426   0.285   4.636
 2870TIP3    H2 8554   2.555   0.353   4.595
 2871TIP3   OH2 8555   4.970   5.852   5.115
 2871TIP3    H1 8556   4.976   5.938   5.075
 2871TIP3    H2 8557   5.054   5.810   5.095
 2872TIP3   OH2 8558   3.102   2.091   0.495
 2872TIP3    H1 8559   3.195   2.082   0.474
 2872TIP3    H2 8560   3.100   2.149   0.571
 2873TIP3   OH2 8561   2.758   7.369   6.242
 2873TIP3    H1 8562   2.729   7.363   6.151
 2873TIP3    H2 8563   2.784   7.280   6.266
 2874TIP3   OH2 8564   3.163   5.843   2.438
 2874TIP3    H1 8565   3.070   5.834   2.457
 2874TIP3    H2 8566   3.172   5.814   2.347
 2875TIP3   OH2 8567   0.964   3.542   2.126
 2875TIP3    H1 8568   0.981   3.540   2.220
 2875TIP3    H2 8569   0.917   3.624   2.112
 2876TIP3   OH2 8570   6.158   2.468   1.372
 2876TIP3    H1 8571   6.249   2.459   1.344
 2876TIP3    H2 8572   6.112   2.496   1.293
 2877TIP3   OH2 8573   4.440   7.577   3.091
 2877TIP3    H1 8574   4.494   7.654   3.073
 2877TIP3    H2 8575   4.383   7.569   3.014
 2878TIP3   OH2 8576   5.625   4.035   5.466
 2878TIP3    H1 8577   5.559   3.986   5.417
 2878TIP3    H2 8578   5.576   4.104   5.510
 2879TIP3   OH2 8579   2.962   6.013   4.641
 2879TIP3    H1 8580   2.974   5.988   4.733
 2879TIP3    H2 8581   3.048   6.001   4.601
 2880TIP3   OH2 8582   6.217   0.438   6.591
 2880TIP3    H1 8583   6.288   0.447   6.528
 2880TIP3    H2 8584   6.244   0.365   6.647
 2881TIP3   OH2 8585   0.479   0.800   3.555
 2881TIP3    H1 8586   0.417   0.851   3.608
 2881TIP3    H2 8587   0.518   0.738   3.617
 2882TIP3   OH2 8588   5.886   2.376   2.393
 2882TIP3    H1 8589   5.970   2.344   2.423
 2882TIP3    H2 8590   5.893   2.378   2.298
 2883TIP3   OH2 8591   2.293   3.976   1.135
 2883TIP3    H1 8592   2.289   4.067   1.165
 2883TIP3    H2 8593   2.263   3.981   1.044
 2884TIP3   OH2 8594   2.104   1.571   5.579
 2884TIP3    H1 8595   2.101   1.611   5.665
 2884TIP3    H2 8596   2.195   1.584   5.549
 2885TIP3   OH2 8597   2.333   6.471   5.466
 2885TIP3    H1 8598   2.302   6.406   5.529
 2885TIP3    H2 8599   2.425   6.448   5.451
 2886TIP3   OH2 8600   5.433   3.434   1.053
 2886TIP3    H1 8601   5.517   3.453   1.096
 2886TIP3    H2 8602   5.443   3.345   1.020
 2887TIP3   OH2 8603   8.220   7.131   5.532
 2887TIP3    H1 8604   8.300   7.081   5.547
 2887TIP3    H2 8605   8.151   7.064   5.529
 2888TIP3   OH2 8606   0.473   5.596   6.557
 2888TIP3    H1 8607   0.479   5.618   6.464
 2888TIP3    H2 8608   0.514   5.510   6.564
 2889TIP3   OH2 8609   0.486   3.720   2.428
 2889TIP3    H1 8610   0.400   3.685   2.450
 2889TIP3    H2 8611   0.491   3.712   2.332
 2890TIP3   OH2 8612   1.116   0.406   2.384
 2890TIP3    H1 8613   1.142   0.415   2.293
 2890TIP3    H2 8614   1.196   0.383   2.430
 2891TIP3   OH2 8615   6.556   0.743   4.768
 2891TIP3    H1 8616   6.473   0.697   4.757
 2891TIP3    H2 8617   6.563   0.800   4.691
 2892TIP3   OH2 8618   4.459   2.569   4.473
 2892TIP3    H1 8619   4.521   2.536   4.539
 2892TIP3    H2 8620   4.495   2.539   4.390
 2893TIP3   OH2 8621   0.894   4.450   2.686
 2893TIP3    H1 8622   0.931   4.367   2.655
 2893TIP3    H2 8623   0.948   4.474   2.761
 2894TIP3   OH2 8624   0.423   1.328   2.239
 2894TIP3    H1 8625   0.431   1.297   2.149
 2894TIP3    H2 8626   0.404   1.249   2.290
 2895TIP3   OH2 8627   0.419   6.958   6.558
 2895TIP3    H1 8628   0.366   7.038   6.555
 2895TIP3    H2 8629   0.356   6.887   6.548
 2896TIP3   OH2 8630   2.540   1.427   1.393
 2896TIP3    H1 8631   2.557   1.408   1.485
 2896TIP3    H2 8632   2.570   1.349   1.346
 2897TIP3   OH2 8633   7.019   6.011   5.551
 2897TIP3    H1 8634   7.073   5.939   5.582
 2897TIP3    H2 8635   7.077   6.087   5.553
 2898TIP3   OH2 8636   1.293   2.658   3.188
 2898TIP3    H1 8637   1.320   2.743   3.224
 2898TIP3    H2 8638   1.363   2.598   3.214
 2899TIP3   OH2 8639   0.573   2.307   0.024
 2899TIP3    H1 8640   0.605   2.365  -0.045
 2899TIP3    H2 8641   0.639   2.238   0.030
 2900TIP3   OH2 8642   4.791   6.967   5.397
 2900TIP3    H1 8643   4.880   6.968   5.364
 2900TIP3    H2 8644   4.740   7.013   5.331
 2901TIP3   OH2 8645   3.029   3.082   5.736
 2901TIP3    H1 8646   3.092   3.154   5.748
 2901TIP3    H2 8647   3.076   3.019   5.682
 2902TIP3   OH2 8648   5.444   4.025   1.283
 2902TIP3    H1 8649   5.428   3.930   1.285
 2902TIP3    H2 8650   5.524   4.036   1.335
 2903TIP3   OH2 8651   2.542   6.635   3.793
 2903TIP3    H1 8652   2.457   6.595   3.814
 2903TIP3    H2 8653   2.520   6.716   3.747
 2904TIP3   OH2 8654   8.235   6.954   2.937
 2904TIP3    H1 8655   8.266   7.044   2.941
 2904TIP3    H2 8656   8.176   6.946   3.012
 2905TIP3   OH2 8657   2.163   3.538   3.183
 2905TIP3    H1 8658   2.169   3.630   3.156
 2905TIP3    H2 8659   2.175   3.489   3.102
 2906TIP3   OH2 8660   3.148   3.869   1.469
 2906TIP3    H1 8661   3.151   3.939   1.534
 2906TIP3    H2 8662   3.111   3.795   1.516
 2907TIP3   OH2 8663   1.266   7.689   5.976
 2907TIP3    H1 8664   1.302   7.773   5.948
 2907TIP3    H2 8665   1.223   7.707   6.059
 2908TIP3   OH2 8666   6.637   0.040   4.010
 2908TIP3    H1 8667   6.608   0.122   4.051
 2908TIP3    H2 8668   6.731   0.036   4.029
 2909TIP3   OH2 8669   1.846   1.869   5.447
 2909TIP3    H1 8670   1.838   1.774   5.448
 2909TIP3    H2 8671   1.928   1.886   5.402
 2910TIP3   OH2 8672   4.256   6.611   5.639
 2910TIP3    H1 8673   4.301   6.690   5.670
 2910TIP3    H2 8674   4.240   6.561   5.719
 2911TIP3   OH2 8675   5.068   0.605   3.169
 2911TIP3    H1 8676   5.038   0.515   3.153
 2911TIP3    H2 8677   5.117   0.629   3.091
 2912TIP3   OH2 8678   1.490   7.245   5.370
 2912TIP3    H1 8679   1.555   7.177   5.359
 2912TIP3    H2 8680   1.456   7.233   5.459
 2913TIP3   OH2 8681   4.965   7.438   1.472
 2913TIP3    H1 8682   4.991   7.530   1.477
 2913TIP3    H2 8683   4.990   7.411   1.384
 2914TIP3   OH2 8684   0.409   4.380   4.149
 2914TIP3    H1 8685   0.447   4.344   4.069
 2914TIP3    H2 8686   0.320   4.345   4.152
 2915TIP3   OH2 8687   1.251   1.823   1.106
 2915TIP3    H1 8688   1.273   1.814   1.014
 2915TIP3    H2 8689   1.250   1.918   1.122
 2916TIP3   OH2 8690   2.884   2.758   2.598
 2916TIP3    H1 8691   2.835   2.689   2.553
 2916TIP3    H2 8692   2.939   2.796   2.529
 2917TIP3   OH2 8693   2.257   6.231   1.000
 2917TIP3    H1 8694   2.220   6.301   1.053
 2917TIP3    H2 8695   2.291   6.168   1.064
 2918TIP3   OH2 8696   7.414   7.186   5.710
 2918TIP3    H1 8697   7.474   7.231   5.650
 2918TIP3    H2 8698   7.460   7.106   5.735
 2919TIP3   OH2 8699   7.760   7.560   6.040
 2919TIP3    H1 8700   7.720   7.553   6.126
 2919TIP3    H2 8701   7.763   7.653   6.021
 2920TIP3   OH2 8702   6.640   3.684   2.332
 2920TIP3    H1 8703   6.598   3.713   2.412
 2920TIP3    H2 8704   6.695   3.611   2.359
 2921TIP3   OH2 8705   2.889   5.899   0.733
 2921TIP3    H1 8706   2.892   5.808   0.762
 2921TIP3    H2 8707   2.883   5.950   0.814
 2922TIP3   OH2 8708   1.182   4.213   3.009
 2922TIP3    H1 8709   1.103   4.182   3.053
 2922TIP3    H2 8710   1.153   4.291   2.961
 2923TIP3   OH2 8711   4.905   5.655   6.588
 2923TIP3    H1 8712   4.886   5.742   6.622
 2923TIP3    H2 8713   4.819   5.616   6.572
 2924TIP3   OH2 8714   2.821   3.313   5.151
 2924TIP3    H1 8715   2.802   3.400   5.116
 2924TIP3    H2 8716   2.914   3.316   5.173
 2925TIP3   OH2 8717   5.111   0.878   5.425
 2925TIP3    H1 8718   5.044   0.829   5.378
 2925TIP3    H2 8719   5.112   0.964   5.382
 2926TIP3   OH2 8720   3.720   2.174   1.786
 2926TIP3    H1 8721   3.682   2.205   1.704
 2926TIP3    H2 8722   3.647   2.175   1.848
 2927TIP3   OH2 8723   3.475   4.067   6.124
 2927TIP3    H1 8724   3.420   3.989   6.120
 2927TIP3    H2 8725   3.532   4.060   6.047
 2928TIP3   OH2 8726   3.476   4.030   3.957
 2928TIP3    H1 8727   3.416   4.079   3.902
 2928TIP3    H2 8728   3.558   4.029   3.908
 2929TIP3   OH2 8729   5.463   4.858   5.331
 2929TIP3    H1 8730   5.388   4.799   5.339
 2929TIP3    H2 8731   5.425   4.942   5.305
 2930TIP3   OH2 8732   1.375   3.330   6.417
 2930TIP3    H1 8733   1.459   3.354   6.377
 2930TIP3    H2 8734   1.371   3.383   6.497
 2931TIP3   OH2 8735   0.529   2.938   4.646
 2931TIP3    H1 8736   0.452   2.932   4.703
 2931TIP3    H2 8737   0.589   2.872   4.680
 2932TIP3   OH2 8738   7.636   5.875   4.186
 2932TIP3    H1 8739   7.719   5.855   4.228
 2932TIP3    H2 8740   7.651   5.855   4.093
 2933TIP3   OH2 8741   5.206   4.980   5.664
 2933TIP3    H1 8742   5.299   4.961   5.653
 2933TIP3    H2 8743   5.204   5.069   5.700
 2934TIP3   OH2 8744   0.899   0.428   4.025
 2934TIP3    H1 8745   0.974   0.394   4.074
 2934TIP3    H2 8746   0.937   0.494   3.967
 2935TIP3   OH2 8747   3.506   3.237   3.514
 2935TIP3    H1 8748   3.589   3.189   3.521
 2935TIP3    H2 8749   3.444   3.184   3.562
 2936TIP3   OH2 8750   0.176   7.552   4.202
 2936TIP3    H1 8751   0.217   7.471   4.233
 2936TIP3    H2 8752   0.101   7.523   4.150
 2937TIP3   OH2 8753   4.710   1.037   2.196
 2937TIP3    H1 8754   4.768   1.103   2.232
 2937TIP3    H2 8755   4.768   0.973   2.154
 2938TIP3   OH2 8756   6.910   4.621   0.574
 2938TIP3    H1 8757   7.004   4.603   0.566
 2938TIP3    H2 8758   6.903   4.716   0.566
 2939TIP3   OH2 8759   2.865   4.670   1.283
 2939TIP3    H1 8760   2.947   4.719   1.273
 2939TIP3    H2 8761   2.846   4.636   1.196
 2940TIP3   OH2 8762   0.941   2.803   5.600
 2940TIP3    H1 8763   0.876   2.870   5.621
 2940TIP3    H2 8764   1.024   2.840   5.630
 2941TIP3   OH2 8765   0.870   5.074   1.325
 2941TIP3    H1 8766   0.851   5.030   1.408
 2941TIP3    H2 8767   0.794   5.129   1.309
 2942TIP3   OH2 8768   2.087   3.717   2.469
 2942TIP3    H1 8769   2.048   3.789   2.419
 2942TIP3    H2 8770   2.178   3.715   2.440
 2943TIP3   OH2 8771   7.428   7.639   6.044
 2943TIP3    H1 8772   7.360   7.680   5.990
 2943TIP3    H2 8773   7.503   7.630   5.985
 2944TIP3   OH2 8774   2.771   0.159   3.492
 2944TIP3    H1 8775   2.862   0.167   3.463
 2944TIP3    H2 8776   2.720   0.157   3.410
 2945TIP3   OH2 8777   4.788   6.299   3.564
 2945TIP3    H1 8778   4.706   6.339   3.593
 2945TIP3    H2 8779   4.763   6.242   3.491
 2946TIP3   OH2 8780   3.298   5.484   5.425
 2946TIP3    H1 8781   3.263   5.407   5.380
 2946TIP3    H2 8782   3.270   5.558   5.371
 2947TIP3   OH2 8783   5.478   6.984   4.378
 2947TIP3    H1 8784   5.458   6.891   4.390
 2947TIP3    H2 8785   5.494   6.993   4.284
 2948TIP3   OH2 8786   6.294   5.940   1.022
 2948TIP3    H1 8787   6.292   5.849   1.052
 2948TIP3    H2 8788   6.224   5.945   0.956
 2949TIP3   OH2 8789   4.480   3.133   1.827
 2949TIP3    H1 8790   4.430   3.203   1.783
 2949TIP3    H2 8791   4.413   3.070   1.854
 2950TIP3   OH2 8792   6.964   6.335   5.467
 2950TIP3    H1 8793   7.058   6.338   5.449
 2950TIP3    H2 8794   6.927   6.280   5.398
 2951TIP3   OH2 8795   0.062   2.533   2.637
 2951TIP3    H1 8796  -0.004   2.566   2.699
 2951TIP3    H2 8797   0.030   2.447   2.612
 2952TIP3   OH2 8798   0.663   7.752   2.835
 2952TIP3    H1 8799   0.630   7.680   2.781
 2952TIP3    H2 8800   0.707   7.810   2.774
 2953TIP3   OH2 8801   1.859   6.167   2.755
 2953TIP3    H1 8802   1.888   6.134   2.670
 2953TIP3    H2 8803   1.927   6.230   2.780
 2954TIP3   OH2 8804   5.016   0.831   3.513
 2954TIP3    H1 8805   5.053   0.754   3.555
 2954TIP3    H2 8806   4.922   0.813   3.507
 2955TIP3   OH2 8807   2.871   5.206   5.787
 2955TIP3    H1 8808   2.820   5.262   5.845
 2955TIP3    H2 8809   2.876   5.255   5.705
 2956TIP3   OH2 8810   7.601   3.609   3.979
 2956TIP3    H1 8811   7.633   3.621   3.889
 2956TIP3    H2 8812   7.575   3.697   4.007
 2957TIP3   OH2 8813   7.647   5.780   2.394
 2957TIP3    H1 8814   7.629   5.860   2.344
 2957TIP3    H2 8815   7.567   5.728   2.385
 2958TIP3   OH2 8816   5.461   5.392   1.723
 2958TIP3    H1 8817   5.417   5.376   1.639
 2958TIP3    H2 8818   5.543   5.344   1.716
 2959TIP3   OH2 8819   2.484   0.655   3.414
 2959TIP3    H1 8820   2.531   0.667   3.332
 2959TIP3    H2 8821   2.421   0.727   3.417
 2960TIP3   OH2 8822   4.114   1.473   3.439
 2960TIP3    H1 8823   4.055   1.404   3.469
 2960TIP3    H2 8824   4.096   1.482   3.346
 2961TIP3   OH2 8825   3.717   1.002   1.063
 2961TIP3    H1 8826   3.685   0.932   1.006
 2961TIP3    H2 8827   3.789   0.963   1.112
 2962TIP3   OH2 8828   2.355   7.379   6.097
 2962TIP3    H1 8829   2.408   7.302   6.119
 2962TIP3    H2 8830   2.419   7.450   6.091
 2963TIP3   OH2 8831   0.159   3.706   5.083
 2963TIP3    H1 8832   0.083   3.650   5.067
 2963TIP3    H2 8833   0.139   3.749   5.166
 2964TIP3   OH2 8834   7.277   6.084   3.982
 2964TIP3    H1 8835   7.359   6.035   3.989
 2964TIP3    H2 8836   7.210   6.025   4.016
 2965TIP3   OH2 8837   5.149   5.435   5.493
 2965TIP3    H1 8838   5.102   5.509   5.457
 2965TIP3    H2 8839   5.104   5.358   5.458
 2966TIP3   OH2 8840   1.869   1.594   0.332
 2966TIP3    H1 8841   1.829   1.510   0.352
 2966TIP3    H2 8842   1.798   1.648   0.299
 2967TIP3   OH2 8843   0.752   0.544   5.904
 2967TIP3    H1 8844   0.831   0.581   5.941
 2967TIP3    H2 8845   0.704   0.619   5.868
 2968TIP3   OH2 8846   1.588   0.582   0.328
 2968TIP3    H1 8847   1.665   0.538   0.290
 2968TIP3    H2 8848   1.528   0.592   0.255
 2969TIP3   OH2 8849   2.272   3.645   4.224
 2969TIP3    H1 8850   2.237   3.680   4.305
 2969TIP3    H2 8851   2.365   3.631   4.243
 2970TIP3   OH2 8852   6.306   1.288   2.615
 2970TIP3    H1 8853   6.373   1.256   2.555
 2970TIP3    H2 8854   6.239   1.220   2.615
 2971TIP3   OH2 8855   5.893   1.028   3.395
 2971TIP3    H1 8856   5.853   1.094   3.452
 2971TIP3    H2 8857   5.870   1.056   3.306
 2972TIP3   OH2 8858   6.840   3.144   1.045
 2972TIP3    H1 8859   6.763   3.201   1.047
 2972TIP3    H2 8860   6.873   3.147   1.135
 2973TIP3   OH2 8861   1.153   3.519   1.928
 2973TIP3    H1 8862   1.093   3.531   2.002
 2973TIP3    H2 8863   1.122   3.439   1.885
 2974TIP3   OH2 8864   4.814   6.427   1.202
 2974TIP3    H1 8865   4.818   6.333   1.217
 2974TIP3    H2 8866   4.903   6.450   1.173
 2975TIP3   OH2 8867   1.760   6.165   3.693
 2975TIP3    H1 8868   1.833   6.142   3.750
 2975TIP3    H2 8869   1.798   6.224   3.628
 2976TIP3   OH2 8870   5.928   7.383   0.811
 2976TIP3    H1 8871   6.008   7.396   0.760
 2976TIP3    H2 8872   5.864   7.353   0.747
 2977TIP3   OH2 8873   0.190   5.521   6.299
 2977TIP3    H1 8874   0.181   5.613   6.323
 2977TIP3    H2 8875   0.150   5.514   6.213
 2978TIP3   OH2 8876   5.719   5.955   4.170
 2978TIP3    H1 8877   5.772   6.030   4.197
 2978TIP3    H2 8878   5.730   5.891   4.240
 2979TIP3   OH2 8879   4.426   6.841   2.109
 2979TIP3    H1 8880   4.492   6.845   2.040
 2979TIP3    H2 8881   4.343   6.851   2.063
 2980TIP3   OH2 8882   7.359   0.507   1.884
 2980TIP3    H1 8883   7.269   0.526   1.859
 2980TIP3    H2 8884   7.404   0.592   1.879
 2981TIP3   OH2 8885   3.295   4.924   5.697
 2981TIP3    H1 8886   3.247   5.007   5.695
 2981TIP3    H2 8887   3.367   4.940   5.758
 2982TIP3   OH2 8888   6.811   3.754   0.543
 2982TIP3    H1 8889   6.758   3.831   0.565
 2982TIP3    H2 8890   6.854   3.730   0.625
 2983TIP3   OH2 8891   2.863   3.760   4.740
 2983TIP3    H1 8892   2.905   3.684   4.781
 2983TIP3    H2 8893   2.935   3.814   4.708
 2984TIP3   OH2 8894   3.145   4.696   3.704
 2984TIP3    H1 8895   3.230   4.653   3.714
 2984TIP3    H2 8896   3.166   4.786   3.677
 2985TIP3   OH2 8897   2.353   1.087   0.067
 2985TIP3    H1 8898   2.394   1.044   0.142
 2985TIP3    H2 8899   2.376   1.179   0.077
 2986TIP3   OH2 8900   1.989   6.144   4.455
 2986TIP3    H1 8901   2.009   6.067   4.507
 2986TIP3    H2 8902   2.039   6.133   4.374
 2987TIP3   OH2 8903   7.051   2.631   3.113
 2987TIP3    H1 8904   7.132   2.659   3.155
 2987TIP3    H2 8905   7.039   2.692   3.041
 2988TIP3   OH2 8906   4.124   5.856   1.360
 2988TIP3    H1 8907   4.061   5.928   1.359
 2988TIP3    H2 8908   4.075   5.781   1.326
 2989TIP3   OH2 8909   5.236   3.659   2.786
 2989TIP3    H1 8910   5.310   3.660   2.725
 2989TIP3    H2 8911   5.186   3.738   2.765
 2990TIP3   OH2 8912   1.502   1.202   6.034
 2990TIP3    H1 8913   1.522   1.288   5.996
 2990TIP3    H2 8914   1.522   1.212   6.127
 2991TIP3   OH2 8915   1.236   3.081   6.454
 2991TIP3    H1 8916   1.155   3.065   6.504
 2991TIP3    H2 8917   1.261   3.170   6.478
 2992TIP3   OH2 8918   6.209   4.933   4.712
 2992TIP3    H1 8919   6.234   5.021   4.739
 2992TIP3    H2 8920   6.291   4.882   4.716
 2993TIP3   OH2 8921   5.354   3.220   2.710
 2993TIP3    H1 8922   5.449   3.220   2.698
 2993TIP3    H2 8923   5.319   3.193   2.625
 2994TIP3   OH2 8924   7.181   1.556   5.509
 2994TIP3    H1 8925   7.131   1.476   5.522
 2994TIP3    H2 8926   7.206   1.584   5.597
 2995TIP3   OH2 8927   7.743   4.390   4.537
 2995TIP3    H1 8928   7.833   4.370   4.513
 2995TIP3    H2 8929   7.709   4.439   4.463
 2996TIP3   OH2 8930   5.448   0.789   5.000
 2996TIP3    H1 8931   5.403   0.820   4.922
 2996TIP3    H2 8932   5.381   0.789   5.068
 2997TIP3   OH2 8933   6.901   1.243   1.274
 2997TIP3    H1 8934   6.826   1.237   1.332
 2997TIP3    H2 8935   6.865   1.233   1.186
 2998TIP3   OH2 8936   3.196   4.802   4.480
 2998TIP3    H1 8937   3.153   4.874   4.527
 2998TIP3    H2 8938   3.237   4.750   4.550
 2999TIP3   OH2 8939   6.664   4.557   3.341
 2999TIP3    H1 8940   6.605   4.593   3.275
 2999TIP3    H2 8941   6.634   4.466   3.353
 3000TIP3   OH2 8942   6.273   3.487   0.520
 3000TIP3    H1 8943   6.353   3.524   0.482
 3000TIP3    H2 8944   6.234   3.559   0.569
 3001TIP3   OH2 8945   6.698   6.126   2.921
 3001TIP3    H1 8946   6.793   6.124   2.930
 3001TIP3    H2 8947   6.677   6.047   2.871
 3002TIP3   OH2 8948   2.152   2.910   2.314
 3002TIP3    H1 8949   2.223   2.906   2.378
 3002TIP3    H2 8950   2.111   2.824   2.318
 3003TIP3   OH2 8951   2.194   5.867   2.414
 3003TIP3    H1 8952   2.273   5.813   2.419
 3003TIP3    H2 8953   2.185   5.886   2.321
 3004TIP3   OH2 8954   5.099   5.189   0.217
 3004TIP3    H1 8955   5.133   5.212   0.131
 3004TIP3    H2 8956   5.116   5.266   0.272
 3005TIP3   OH2 8957   0.964   3.636   4.976
 3005TIP3    H1 8958   1.027   3.582   5.022
 3005TIP3    H2 8959   1.004   3.723   4.973
 3006TIP3   OH2 8960   7.123   6.974   2.306
 3006TIP3    H1 8961   7.079   7.058   2.315
 3006TIP3    H2 8962   7.117   6.934   2.393
 3007TIP3   OH2 8963   1.079   0.587   2.569
 3007TIP3    H1 8964   0.994   0.557   2.600
 3007TIP3    H2 8965   1.094   0.538   2.489
 3008TIP3   OH2 8966   3.322   1.502   4.805
 3008TIP3    H1 8967   3.252   1.442   4.832
 3008TIP3    H2 8968   3.277   1.568   4.753
 3009TIP3   OH2 8969   7.306   3.708   0.524
 3009TIP3    H1 8970   7.275   3.799   0.519
 3009TIP3    H2 8971   7.241   3.657   0.476
 3010TIP3   OH2 8972   3.310   5.063   0.309
 3010TIP3    H1 8973   3.266   5.096   0.387
 3010TIP3    H2 8974   3.304   5.134   0.245
 3011TIP3   OH2 8975   5.940   2.893   2.348
 3011TIP3    H1 8976   5.957   2.808   2.308
 3011TIP3    H2 8977   6.021   2.943   2.334
 3012TIP3   OH2 8978   7.988   3.009   6.474
 3012TIP3    H1 8979   8.036   3.084   6.509
 3012TIP3    H2 8980   8.045   2.973   6.406
 3013TIP3   OH2 8981   4.753   6.886   4.473
 3013TIP3    H1 8982   4.768   6.931   4.390
 3013TIP3    H2 8983   4.803   6.804   4.465
 3014TIP3   OH2 8984   4.918   4.276   0.962
 3014TIP3    H1 8985   4.959   4.200   0.920
 3014TIP3    H2 8986   4.984   4.345   0.955
 3015TIP3   OH2 8987   5.240   4.196   6.740
 3015TIP3    H1 8988   5.277   4.142   6.670
 3015TIP3    H2 8989   5.283   4.281   6.730
 3016TIP3   OH2 8990   1.673   1.447   4.970
 3016TIP3    H1 8991   1.717   1.365   4.951
 3016TIP3    H2 8992   1.651   1.483   4.883
 3017TIP3   OH2 8993   6.105   2.497   4.936
 3017TIP3    H1 8994   6.023   2.534   4.905
 3017TIP3    H2 8995   6.106   2.407   4.902
 3018TIP3   OH2 8996   2.736   4.286   1.701
 3018TIP3    H1 8997   2.674   4.346   1.742
 3018TIP3    H2 8998   2.749   4.322   1.613
 3019TIP3   OH2 8999   7.706   3.976  -0.030
 3019TIP3    H1 9000   7.620   3.950   0.003
 3019TIP3    H2 9001   7.765   3.906  -0.002
 3020TIP3   OH2 9002   2.964   5.273   2.385
 3020TIP3    H1 9003   3.005   5.359   2.388
 3020TIP3    H2 9004   2.907   5.276   2.308
 3021TIP3   OH2 9005   5.059   5.782   6.298
 3021TIP3    H1 9006   5.049   5.849   6.365
 3021TIP3    H2 9007   5.126   5.724   6.331
 3022TIP3   OH2 9008   3.930   6.086   6.177
 3022TIP3    H1 9009   3.914   6.125   6.263
 3022TIP3    H2 9010   4.017   6.118   6.152
 3023TIP3   OH2 9011   2.047   3.311   6.307
 3023TIP3    H1 9012   2.013   3.388   6.260
 3023TIP3    H2 9013   2.131   3.339   6.342
 3024TIP3   OH2 9014   2.077   3.501   5.350
 3024TIP3    H1 9015   2.080   3.578   5.407
 3024TIP3    H2 9016   2.041   3.431   5.406
 3025TIP3   OH2 9017   3.833   6.983   2.331
 3025TIP3    H1 9018   3.876   7.066   2.309
 3025TIP3    H2 9019   3.759   7.008   2.386
 3026TIP3   OH2 9020   2.823   5.006   1.992
 3026TIP3    H1 9021   2.855   4.918   2.011
 3026TIP3    H2 9022   2.738   5.011   2.036
 3027TIP3   OH2 9023   5.731   0.501   0.169
 3027TIP3    H1 9024   5.704   0.576   0.222
 3027TIP3    H2 9025   5.694   0.519   0.083
 3028TIP3   OH2 9026   7.253   1.572   6.696
 3028TIP3    H1 9027   7.316   1.602   6.761
 3028TIP3    H2 9028   7.192   1.645   6.687
 3029TIP3   OH2 9029   1.582   7.001   5.866
 3029TIP3    H1 9030   1.630   7.083   5.854
 3029TIP3    H2 9031   1.642   6.933   5.835
 3030TIP3   OH2 9032   2.077   3.876   6.533
 3030TIP3    H1 9033   2.145   3.833   6.480
 3030TIP3    H2 9034   2.001   3.879   6.475
 3031TIP3   OH2 9035   4.850   3.069   6.450
 3031TIP3    H1 9036   4.851   2.977   6.475
 3031TIP3    H2 9037   4.813   3.070   6.362
 3032TIP3   OH2 9038   6.285   2.118   1.186
 3032TIP3    H1 9039   6.285   2.197   1.132
 3032TIP3    H2 9040   6.309   2.048   1.125
 3033TIP3   OH2 9041   0.097   3.044   3.368
 3033TIP3    H1 9042   0.079   3.068   3.459
 3033TIP3    H2 9043   0.184   3.081   3.350
 3034TIP3   OH2 9044   7.436   0.051   4.375
 3034TIP3    H1 9045   7.393   0.100   4.305
 3034TIP3    H2 9046   7.365   0.033   4.437
 3035TIP3   OH2 9047   0.624   5.997   0.623
 3035TIP3    H1 9048   0.557   5.952   0.673
 3035TIP3    H2 9049   0.700   5.939   0.627
 3036TIP3   OH2 9050   2.664   6.558   2.868
 3036TIP3    H1 9051   2.588   6.504   2.887
 3036TIP3    H2 9052   2.653   6.635   2.922
 3037TIP3   OH2 9053   3.496   5.894   3.016
 3037TIP3    H1 9054   3.481   5.801   3.030
 3037TIP3    H2 9055   3.410   5.928   2.991
 3038TIP3   OH2 9056   4.235   7.368   0.198
 3038TIP3    H1 9057   4.232   7.314   0.276
 3038TIP3    H2 9058   4.215   7.457   0.228
 3039TIP3   OH2 9059   3.889   5.743   0.383
 3039TIP3    H1 9060   3.947   5.666   0.381
 3039TIP3    H2 9061   3.926   5.801   0.316
 3040TIP3   OH2 9062   1.163   4.300   0.998
 3040TIP3    H1 9063   1.153   4.377   0.942
 3040TIP3    H2 9064   1.089   4.304   1.058
 3041TIP3   OH2 9065   2.072   0.991   2.803
 3041TIP3    H1 9066   2.135   1.059   2.828
 3041TIP3    H2 9067   1.987   1.028   2.824
 3042TIP3   OH2 9068   2.005   3.502   5.079
 3042TIP3    H1 9069   2.036   3.428   5.027
 3042TIP3    H2 9070   2.043   3.487   5.166
 3043TIP3   OH2 9071   3.684   5.036   4.825
 3043TIP3    H1 9072   3.755   5.092   4.794
 3043TIP3    H2 9073   3.640   5.006   4.745
 3044TIP3   OH2 9074   0.708   4.530   6.047
 3044TIP3    H1 9075   0.618   4.530   6.080
 3044TIP3    H2 9076   0.714   4.452   5.991
 3045TIP3   OH2 9077   6.443   5.484   0.454
 3045TIP3    H1 9078   6.374   5.539   0.491
 3045TIP3    H2 9079   6.494   5.456   0.530
 3046TIP3   OH2 9080   3.239   7.485   6.360
 3046TIP3    H1 9081   3.172   7.494   6.292
 3046TIP3    H2 9082   3.226   7.562   6.416
 3047TIP3   OH2 9083   4.585   3.248   4.927
 3047TIP3    H1 9084   4.509   3.304   4.910
 3047TIP3    H2 9085   4.573   3.173   4.868
 3048TIP3   OH2 9086   6.864   6.195   4.067
 3048TIP3    H1 9087   6.785   6.209   4.015
 3048TIP3    H2 9088   6.936   6.225   4.011
 3049TIP3   OH2 9089   1.884   5.069   5.903
 3049TIP3    H1 9090   1.791   5.045   5.894
 3049TIP3    H2 9091   1.882   5.150   5.954
 3050TIP3   OH2 9092   6.257   6.571   1.101
 3050TIP3    H1 9093   6.299   6.534   1.024
 3050TIP3    H2 9094   6.311   6.543   1.175
 3051TIP3   OH2 9095   8.237   4.788   1.642
 3051TIP3    H1 9096   8.268   4.698   1.650
 3051TIP3    H2 9097   8.149   4.779   1.606
 3052TIP3   OH2 9098   8.045   1.779   2.880
 3052TIP3    H1 9099   8.085   1.715   2.939
 3052TIP3    H2 9100   8.109   1.790   2.810
 3053TIP3   OH2 9101   4.536   7.303   4.244
 3053TIP3    H1 9102   4.589   7.382   4.253
 3053TIP3    H2 9103   4.467   7.327   4.183
 3054TIP3   OH2 9104   3.584   4.732   2.819
 3054TIP3    H1 9105   3.584   4.744   2.724
 3054TIP3    H2 9106   3.546   4.646   2.833
 3055TIP3   OH2 9107   6.394   6.478   1.320
 3055TIP3    H1 9108   6.383   6.549   1.383
 3055TIP3    H2 9109   6.341   6.406   1.354
 3056TIP3   OH2 9110   6.053   1.124   5.332
 3056TIP3    H1 9111   6.056   1.200   5.390
 3056TIP3    H2 9112   6.126   1.137   5.272
 3057TIP3   OH2 9113   3.820   5.976   1.566
 3057TIP3    H1 9114   3.856   5.986   1.478
 3057TIP3    H2 9115   3.896   5.964   1.623
 3058TIP3   OH2 9116   1.840   1.375   6.449
 3058TIP3    H1 9117   1.808   1.329   6.527
 3058TIP3    H2 9118   1.935   1.365   6.453
 3059TIP3   OH2 9119   1.345   5.872   1.402
 3059TIP3    H1 9120   1.303   5.906   1.481
 3059TIP3    H2 9121   1.277   5.820   1.359
 3060TIP3   OH2 9122   3.002   1.463   6.446
 3060TIP3    H1 9123   2.908   1.453   6.454
 3060TIP3    H2 9124   3.034   1.468   6.536
 3061TIP3   OH2 9125   5.605   5.934   5.997
 3061TIP3    H1 9126   5.518   5.909   6.030
 3061TIP3    H2 9127   5.665   5.909   6.067
 3062TIP3   OH2 9128   3.376   3.560   0.738
 3062TIP3    H1 9129   3.385   3.580   0.831
 3062TIP3    H2 9130   3.319   3.630   0.704
 3063TIP3   OH2 9131   6.574   6.170   2.634
 3063TIP3    H1 9132   6.583   6.249   2.688
 3063TIP3    H2 9133   6.662   6.132   2.633
 3064TIP3   OH2 9134   4.452   3.518   0.194
 3064TIP3    H1 9135   4.518   3.585   0.214
 3064TIP3    H2 9136   4.368   3.563   0.200
 3065TIP3   OH2 9137   4.656   7.025   1.562
 3065TIP3    H1 9138   4.716   7.054   1.631
 3065TIP3    H2 9139   4.680   7.077   1.486
 3066TIP3   OH2 9140   5.697   1.546   4.390
 3066TIP3    H1 9141   5.772   1.605   4.386
 3066TIP3    H2 9142   5.721   1.481   4.456
 3067TIP3   OH2 9143   1.040   2.264   1.097
 3067TIP3    H1 9144   1.048   2.340   1.038
 3067TIP3    H2 9145   1.103   2.201   1.063
 3068TIP3   OH2 9146   8.234   7.795   0.149
 3068TIP3    H1 9147   8.151   7.747   0.152
 3068TIP3    H2 9148   8.262   7.787   0.058
 3069TIP3   OH2 9149   7.258   4.876   0.775
 3069TIP3    H1 9150   7.320   4.842   0.840
 3069TIP3    H2 9151   7.296   4.852   0.691
 3070TIP3   OH2 9152   7.583   5.660   2.071
 3070TIP3    H1 9153   7.650   5.607   2.114
 3070TIP3    H2 9154   7.632   5.715   2.010
 3071TIP3   OH2 9155   4.145   2.086   3.321
 3071TIP3    H1 9156   4.087   2.156   3.351
 3071TIP3    H2 9157   4.216   2.131   3.277
 3072TIP3   OH2 9158   1.449   4.717   3.489
 3072TIP3    H1 9159   1.392   4.791   3.466
 3072TIP3    H2 9160   1.454   4.719   3.584
 3073TIP3   OH2 9161   7.003   1.573   2.025
 3073TIP3    H1 9162   6.993   1.665   2.002
 3073TIP3    H2 9163   7.093   1.551   2.000
 3074TIP3   OH2 9164   2.887   6.917   4.216
 3074TIP3    H1 9165   2.893   6.824   4.194
 3074TIP3    H2 9166   2.977   6.948   4.210
 3075TIP3   OH2 9167   4.466   5.785   0.981
 3075TIP3    H1 9168   4.477   5.700   0.939
 3075TIP3    H2 9169   4.555   5.820   0.989
 3076TIP3   OH2 9170   7.958   7.784   4.715
 3076TIP3    H1 9171   8.037   7.796   4.663
 3076TIP3    H2 9172   7.989   7.784   4.806
 3077TIP3   OH2 9173   2.308   7.349   5.087
 3077TIP3    H1 9174   2.260   7.321   5.009
 3077TIP3    H2 9175   2.267   7.432   5.111
 3078TIP3   OH2 9176   7.665   3.163   5.189
 3078TIP3    H1 9177   7.733   3.159   5.121
 3078TIP3    H2 9178   7.584   3.146   5.142
 3079TIP3   OH2 9179   2.613   5.404   0.411
 3079TIP3    H1 9180   2.579   5.457   0.483
 3079TIP3    H2 9181   2.702   5.439   0.397
 3080TIP3   OH2 9182   5.736   5.179   5.219
 3080TIP3    H1 9183   5.700   5.168   5.307
 3080TIP3    H2 9184   5.796   5.253   5.227
 3081TIP3   OH2 9185   0.737   0.026   3.839
 3081TIP3    H1 9186   0.705   0.090   3.902
 3081TIP3    H2 9187   0.691   0.047   3.758
 3082TIP3   OH2 9188   6.765   1.727   3.474
 3082TIP3    H1 9189   6.786   1.718   3.567
 3082TIP3    H2 9190   6.788   1.817   3.453
 3083TIP3   OH2 9191   5.813   5.643   2.292
 3083TIP3    H1 9192   5.765   5.724   2.309
 3083TIP3    H2 9193   5.748   5.586   2.249
 3084TIP3   OH2 9194   5.062   6.276   1.182
 3084TIP3    H1 9195   5.027   6.201   1.229
 3084TIP3    H2 9196   5.021   6.272   1.095
 3085TIP3   OH2 9197   0.265   4.972   0.658
 3085TIP3    H1 9198   0.351   4.937   0.636
 3085TIP3    H2 9199   0.221   4.901   0.706
 3086TIP3   OH2 9200   5.853   0.728   3.378
 3086TIP3    H1 9201   5.909   0.676   3.436
 3086TIP3    H2 9202   5.878   0.819   3.397
 3087TIP3   OH2 9203   1.472   7.274   1.764
 3087TIP3    H1 9204   1.404   7.243   1.705
 3087TIP3    H2 9205   1.523   7.196   1.787
 3088TIP3   OH2 9206   5.072   5.641   1.862
 3088TIP3    H1 9207   5.134   5.678   1.925
 3088TIP3    H2 9208   5.118   5.644   1.778
 3089TIP3   OH2 9209   1.651   1.165   0.694
 3089TIP3    H1 9210   1.733   1.125   0.723
 3089TIP3    H2 9211   1.649   1.152   0.599
 3090TIP3   OH2 9212   0.093   1.472   0.927
 3090TIP3    H1 9213   0.116   1.468   1.020
 3090TIP3    H2 9214   0.171   1.439   0.882
 3091TIP3   OH2 9215   1.366   3.306   1.990
 3091TIP3    H1 9216   1.277   3.308   1.958
 3091TIP3    H2 9217   1.415   3.259   1.922
 3092TIP3   OH2 9218   6.811   2.861   0.047
 3092TIP3    H1 9219   6.840   2.904  -0.034
 3092TIP3    H2 9220   6.881   2.880   0.110
 3093TIP3   OH2 9221   3.114   3.125   3.806
 3093TIP3    H1 9222   3.180   3.098   3.742
 3093TIP3    H2 9223   3.050   3.174   3.755
 3094TIP3   OH2 9224   1.686   1.150   3.358
 3094TIP3    H1 9225   1.742   1.137   3.434
 3094TIP3    H2 9226   1.729   1.101   3.288
 3095TIP3   OH2 9227   7.929   5.785   3.857
 3095TIP3    H1 9228   7.966   5.783   3.945
 3095TIP3    H2 9229   7.995   5.741   3.802
 3096TIP3   OH2 9230   4.055   3.738   0.161
 3096TIP3    H1 9231   4.075   3.784   0.243
 3096TIP3    H2 9232   4.137   3.738   0.112
 3097TIP3   OH2 9233   5.212   1.496   1.233
 3097TIP3    H1 9234   5.247   1.581   1.205
 3097TIP3    H2 9235   5.197   1.506   1.327
 3098TIP3   OH2 9236   4.824   5.188   0.481
 3098TIP3    H1 9237   4.847   5.277   0.454
 3098TIP3    H2 9238   4.783   5.199   0.567
 3099TIP3   OH2 9239   6.034   3.652   4.024
 3099TIP3    H1 9240   5.949   3.618   3.995
 3099TIP3    H2 9241   6.098   3.602   3.975
 3100TIP3   OH2 9242   6.108   5.356   6.100
 3100TIP3    H1 9243   6.181   5.295   6.098
 3100TIP3    H2 9244   6.035   5.305   6.135
 3101TIP3   OH2 9245   3.767   1.952   5.479
 3101TIP3    H1 9246   3.681   1.951   5.437
 3101TIP3    H2 9247   3.826   1.989   5.413
 3102TIP3   OH2 9248   4.466   0.462   0.612
 3102TIP3    H1 9249   4.491   0.374   0.640
 3102TIP3    H2 9250   4.527   0.483   0.541
 3103TIP3   OH2 9251   2.432   4.738   2.186
 3103TIP3    H1 9252   2.449   4.693   2.269
 3103TIP3    H2 9253   2.449   4.830   2.204
 3104TIP3   OH2 9254   5.657   5.374   4.182
 3104TIP3    H1 9255   5.583   5.341   4.233
 3104TIP3    H2 9256   5.626   5.376   4.092
 3105TIP3   OH2 9257   3.906   4.945   6.651
 3105TIP3    H1 9258   3.895   4.945   6.746
 3105TIP3    H2 9259   3.961   5.022   6.633
 3106TIP3   OH2 9260   3.425   4.762   0.627
 3106TIP3    H1 9261   3.452   4.778   0.537
 3106TIP3    H2 9262   3.495   4.799   0.680
 3107TIP3   OH2 9263   2.878   2.127   0.860
 3107TIP3    H1 9264   2.786   2.137   0.835
 3107TIP3    H2 9265   2.888   2.033   0.875
 3108TIP3   OH2 9266   2.814   7.738   4.028
 3108TIP3    H1 9267   2.734   7.687   4.042
 3108TIP3    H2 9268   2.825   7.741   3.933
 3109TIP3   OH2 9269   3.213   1.699   5.476
 3109TIP3    H1 9270   3.251   1.698   5.388
 3109TIP3    H2 9271   3.154   1.774   5.475
 3110TIP3   OH2 9272   1.730   3.344   1.443
 3110TIP3    H1 9273   1.778   3.266   1.415
 3110TIP3    H2 9274   1.647   3.310   1.476
 3111TIP3   OH2 9275   0.524   4.146   2.786
 3111TIP3    H1 9276   0.616   4.140   2.809
 3111TIP3    H2 9277   0.490   4.057   2.798
 3112TIP3   OH2 9278   4.334   6.317   5.698
 3112TIP3    H1 9279   4.256   6.261   5.695
 3112TIP3    H2 9280   4.301   6.402   5.726
 3113TIP3   OH2 9281   6.676   2.897   3.251
 3113TIP3    H1 9282   6.665   2.900   3.156
 3113TIP3    H2 9283   6.650   2.984   3.281
 3114TIP3   OH2 9284   5.035   1.295   0.110
 3114TIP3    H1 9285   4.950   1.256   0.127
 3114TIP3    H2 9286   5.033   1.320   0.018
 3115TIP3   OH2 9287   3.161   7.566   3.517
 3115TIP3    H1 9288   3.149   7.524   3.432
 3115TIP3    H2 9289   3.255   7.585   3.521
 3116TIP3   OH2 9290   3.400   1.154   2.075
 3116TIP3    H1 9291   3.420   1.073   2.123
 3116TIP3    H2 9292   3.315   1.182   2.109
 3117TIP3   OH2 9293   4.079   0.284   5.165
 3117TIP3    H1 9294   4.110   0.269   5.254
 3117TIP3    H2 9295   3.996   0.331   5.176
 3118TIP3   OH2 9296   1.521   0.469   4.664
 3118TIP3    H1 9297   1.590   0.517   4.619
 3118TIP3    H2 9298   1.475   0.422   4.595
 3119TIP3   OH2 9299   7.391   1.350   4.887
 3119TIP3    H1 9300   7.433   1.432   4.913
 3119TIP3    H2 9301   7.460   1.284   4.895
 3120TIP3   OH2 9302   2.781   4.741   2.067
 3120TIP3    H1 9303   2.802   4.656   2.029
 3120TIP3    H2 9304   2.691   4.758   2.040
 3121TIP3   OH2 9305   0.717   2.155   2.392
 3121TIP3    H1 9306   0.728   2.125   2.302
 3121TIP3    H2 9307   0.622   2.148   2.408
 3122TIP3   OH2 9308   7.930   6.314   5.014
 3122TIP3    H1 9309   7.997   6.277   4.956
 3122TIP3    H2 9310   7.961   6.403   5.032
 3123TIP3   OH2 9311   0.595   4.100   1.797
 3123TIP3    H1 9312   0.688   4.116   1.780
 3123TIP3    H2 9313   0.594   4.020   1.849
 3124TIP3   OH2 9314   7.439   5.365   6.299
 3124TIP3    H1 9315   7.404   5.311   6.229
 3124TIP3    H2 9316   7.421   5.455   6.273
 3125TIP3   OH2 9317   4.720   3.787   2.180
 3125TIP3    H1 9318   4.675   3.808   2.262
 3125TIP3    H2 9319   4.777   3.713   2.202
 3126TIP3   OH2 9320   2.749   1.154   2.897
 3126TIP3    H1 9321   2.708   1.240   2.911
 3126TIP3    H2 9322   2.832   1.159   2.945
 3127TIP3   OH2 9323   6.043   3.929   1.634
 3127TIP3    H1 9324   5.984   3.919   1.709
 3127TIP3    H2 9325   5.988   3.908   1.558
 3128TIP3   OH2 9326   1.804   1.546   3.450
 3128TIP3    H1 9327   1.788   1.558   3.544
 3128TIP3    H2 9328   1.835   1.632   3.421
 3129TIP3   OH2 9329   7.886   4.999   0.670
 3129TIP3    H1 9330   7.815   4.936   0.659
 3129TIP3    H2 9331   7.905   5.030   0.582
 3130TIP3   OH2 9332   8.054   0.606   5.351
 3130TIP3    H1 9333   8.109   0.670   5.305
 3130TIP3    H2 9334   8.012   0.655   5.421
 3131TIP3   OH2 9335   5.724   7.531   2.023
 3131TIP3    H1 9336   5.812   7.542   1.986
 3131TIP3    H2 9337   5.721   7.594   2.095
 3132TIP3   OH2 9338   1.822   2.584   4.163
 3132TIP3    H1 9339   1.903   2.545   4.130
 3132TIP3    H2 9340   1.758   2.512   4.160
 3133TIP3   OH2 9341   0.787   2.148   5.947
 3133TIP3    H1 9342   0.802   2.088   6.020
 3133TIP3    H2 9343   0.870   2.195   5.937
 3134TIP3   OH2 9344   2.687   5.985   2.476
 3134TIP3    H1 9345   2.755   5.919   2.473
 3134TIP3    H2 9346   2.605   5.937   2.466
 3135TIP3   OH2 9347   5.192   7.222   4.446
 3135TIP3    H1 9348   5.252   7.251   4.377
 3135TIP3    H2 9349   5.152   7.142   4.411
 3136TIP3   OH2 9350   6.463   3.792   1.972
 3136TIP3    H1 9351   6.470   3.848   2.050
 3136TIP3    H2 9352   6.426   3.849   1.905
 3137TIP3   OH2 9353   0.967   4.310   2.200
 3137TIP3    H1 9354   1.028   4.361   2.147
 3137TIP3    H2 9355   0.969   4.352   2.286
 3138TIP3   OH2 9356   3.054   7.632   5.741
 3138TIP3    H1 9357   3.136   7.586   5.726
 3138TIP3    H2 9358   3.052   7.701   5.675
 3139TIP3   OH2 9359   4.513   3.772   1.591
 3139TIP3    H1 9360   4.567   3.849   1.607
 3139TIP3    H2 9361   4.558   3.701   1.638
 3140TIP3   OH2 9362   1.745   3.253   2.513
 3140TIP3    H1 9363   1.700   3.196   2.575
 3140TIP3    H2 9364   1.831   3.213   2.501
 3141TIP3   OH2 9365   7.153   0.966   3.018
 3141TIP3    H1 9366   7.108   0.947   2.935
 3141TIP3    H2 9367   7.148   1.062   3.026
 3142TIP3   OH2 9368   5.634   4.184   1.832
 3142TIP3    H1 9369   5.689   4.259   1.811
 3142TIP3    H2 9370   5.662   4.157   1.919
 3143TIP3   OH2 9371   6.974   4.009   3.303
 3143TIP3    H1 9372   6.902   4.066   3.332
 3143TIP3    H2 9373   6.951   3.922   3.336
 3144TIP3   OH2 9374   2.822   3.294   0.366
 3144TIP3    H1 9375   2.805   3.268   0.457
 3144TIP3    H2 9376   2.785   3.382   0.358
 3145TIP3   OH2 9377   0.292   1.158   4.146
 3145TIP3    H1 9378   0.309   1.127   4.235
 3145TIP3    H2 9379   0.350   1.234   4.136
 3146TIP3   OH2 9380   3.099   5.210   4.246
 3146TIP3    H1 9381   3.094   5.144   4.177
 3146TIP3    H2 9382   3.180   5.258   4.228
 3147TIP3   OH2 9383   1.678   6.619   5.610
 3147TIP3    H1 9384   1.598   6.656   5.647
 3147TIP3    H2 9385   1.731   6.695   5.586
 3148TIP3   OH2 9386   2.890   7.748   2.343
 3148TIP3    H1 9387   2.941   7.802   2.403
 3148TIP3    H2 9388   2.929   7.661   2.351
 3149TIP3   OH2 9389   7.970   3.687   4.300
 3149TIP3    H1 9390   7.910   3.636   4.246
 3149TIP3    H2 9391   8.014   3.623   4.356
 3150TIP3   OH2 9392   1.049   3.831   4.674
 3150TIP3    H1 9393   1.117   3.897   4.661
 3150TIP3    H2 9394   1.052   3.812   4.768
 3151TIP3   OH2 9395   0.754   2.366   0.431
 3151TIP3    H1 9396   0.831   2.397   0.384
 3151TIP3    H2 9397   0.730   2.284   0.386
 3152TIP3   OH2 9398   0.439   2.046   1.014
 3152TIP3    H1 9399   0.371   2.101   0.974
 3152TIP3    H2 9400   0.512   2.105   1.029
 3153TIP3   OH2 9401   6.941   7.156   3.251
 3153TIP3    H1 9402   6.964   7.234   3.200
 3153TIP3    H2 9403   6.889   7.103   3.191
 3154TIP3   OH2 9404   5.551   2.367   5.584
 3154TIP3    H1 9405   5.581   2.344   5.496
 3154TIP3    H2 9406   5.593   2.304   5.642
 3155TIP3   OH2 9407   0.296   7.279   1.353
 3155TIP3    H1 9408   0.335   7.266   1.439
 3155TIP3    H2 9409   0.335   7.211   1.298
 3156TIP3   OH2 9410   4.876   3.825   1.693
 3156TIP3    H1 9411   4.821   3.879   1.636
 3156TIP3    H2 9412   4.844   3.844   1.781
 3157TIP3   OH2 9413   0.372   5.697   6.784
 3157TIP3    H1 9414   0.299   5.742   6.741
 3157TIP3    H2 9415   0.413   5.646   6.715
 3158TIP3   OH2 9416   4.247   4.027   2.570
 3158TIP3    H1 9417   4.329   3.978   2.569
 3158TIP3    H2 9418   4.188   3.975   2.515
 3159TIP3   OH2 9419   5.683   7.656   3.830
 3159TIP3    H1 9420   5.745   7.721   3.798
 3159TIP3    H2 9421   5.682   7.588   3.763
 3160TIP3   OH2 9422   1.843   3.007   4.911
 3160TIP3    H1 9423   1.837   3.097   4.944
 3160TIP3    H2 9424   1.935   2.983   4.922
 3161TIP3   OH2 9425   7.039   5.241   0.891
 3161TIP3    H1 9426   7.127   5.259   0.858
 3161TIP3    H2 9427   7.014   5.159   0.847
 3162TIP3   OH2 9428   6.056   2.214   1.440
 3162TIP3    H1 9429   6.077   2.305   1.418
 3162TIP3    H2 9430   5.986   2.221   1.505
 3163TIP3   OH2 9431   2.975   1.474   5.087
 3163TIP3    H1 9432   2.933   1.476   5.001
 3163TIP3    H2 9433   2.969   1.564   5.119
 3164TIP3   OH2 9434   1.509   2.777   2.010
 3164TIP3    H1 9435   1.540   2.760   1.921
 3164TIP3    H2 9436   1.500   2.690   2.049
 3165TIP3   OH2 9437   5.014   0.255   2.534
 3165TIP3    H1 9438   4.983   0.333   2.488
 3165TIP3    H2 9439   5.054   0.201   2.465
 3166TIP3   OH2 9440   8.015   5.965   0.381
 3166TIP3    H1 9441   7.920   5.960   0.382
 3166TIP3    H2 9442   8.038   6.018   0.458
 3167TIP3   OH2 9443   5.932   3.123   6.587
 3167TIP3    H1 9444   5.933   3.030   6.567
 3167TIP3    H2 9445   6.019   3.141   6.623
 3168TIP3   OH2 9446   0.961   0.391   0.486
 3168TIP3    H1 9447   0.922   0.462   0.537
 3168TIP3    H2 9448   1.040   0.429   0.449
 3169TIP3   OH2 9449   3.647   2.616   5.321
 3169TIP3    H1 9450   3.578   2.639   5.384
 3169TIP3    H2 9451   3.601   2.564   5.254
 3170TIP3   OH2 9452   3.781   0.198   0.391
 3170TIP3    H1 9453   3.854   0.231   0.340
 3170TIP3    H2 9454   3.715   0.173   0.326
 3171TIP3   OH2 9455   3.064   3.729   5.665
 3171TIP3    H1 9456   2.984   3.684   5.640
 3171TIP3    H2 9457   3.034   3.809   5.708
 3172TIP3   OH2 9458   2.499   7.456   0.435
 3172TIP3    H1 9459   2.464   7.480   0.520
 3172TIP3    H2 9460   2.593   7.470   0.442
 3173TIP3   OH2 9461   2.358   2.641   1.208
 3173TIP3    H1 9462   2.405   2.681   1.134
 3173TIP3    H2 9463   2.335   2.716   1.264
 3174TIP3   OH2 9464   6.081   5.746   1.029
 3174TIP3    H1 9465   6.035   5.827   1.006
 3174TIP3    H2 9466   6.025   5.676   0.995
 3175TIP3   OH2 9467   2.211   2.524   0.409
 3175TIP3    H1 9468   2.138   2.498   0.353
 3175TIP3    H2 9469   2.284   2.536   0.348
 3176TIP3   OH2 9470   6.595   3.810   3.199
 3176TIP3    H1 9471   6.631   3.721   3.200
 3176TIP3    H2 9472   6.501   3.798   3.184
 3177TIP3   OH2 9473   0.622   7.740   3.904
 3177TIP3    H1 9474   0.578   7.659   3.877
 3177TIP3    H2 9475   0.567   7.774   3.975
 3178TIP3   OH2 9476   1.607   4.765   3.932
 3178TIP3    H1 9477   1.613   4.674   3.961
 3178TIP3    H2 9478   1.695   4.800   3.945
 3179TIP3   OH2 9479   0.639   6.858   4.269
 3179TIP3    H1 9480   0.703   6.869   4.339
 3179TIP3    H2 9481   0.685   6.886   4.190
 3180TIP3   OH2 9482   6.311   0.409   3.408
 3180TIP3    H1 9483   6.312   0.492   3.360
 3180TIP3    H2 9484   6.353   0.346   3.350
 3181TIP3   OH2 9485   5.410   3.376   4.143
 3181TIP3    H1 9486   5.481   3.318   4.170
 3181TIP3    H2 9487   5.427   3.458   4.189
 3182TIP3   OH2 9488   6.908   3.169   1.311
 3182TIP3    H1 9489   6.847   3.164   1.385
 3182TIP3    H2 9490   6.968   3.240   1.334
 3183TIP3   OH2 9491   1.651   7.477   1.662
 3183TIP3    H1 9492   1.622   7.561   1.698
 3183TIP3    H2 9493   1.601   7.412   1.712
 3184TIP3   OH2 9494   1.613   7.509   3.086
 3184TIP3    H1 9495   1.663   7.571   3.032
 3184TIP3    H2 9496   1.550   7.471   3.025
 3185TIP3   OH2 9497   0.375   5.346   3.278
 3185TIP3    H1 9498   0.376   5.263   3.327
 3185TIP3    H2 9499   0.382   5.319   3.186
 3186TIP3   OH2 9500   6.754   1.794   0.562
 3186TIP3    H1 9501   6.749   1.883   0.526
 3186TIP3    H2 9502   6.748   1.807   0.657
 3187TIP3   OH2 9503   6.965   7.651   6.469
 3187TIP3    H1 9504   6.977   7.739   6.504
 3187TIP3    H2 9505   6.959   7.663   6.375
 3188TIP3   OH2 9506   5.745   2.243   4.667
 3188TIP3    H1 9507   5.833   2.238   4.629
 3188TIP3    H2 9508   5.756   2.206   4.755
 3189TIP3   OH2 9509   0.939   6.618   6.549
 3189TIP3    H1 9510   0.894   6.586   6.626
 3189TIP3    H2 9511   1.022   6.569   6.548
 3190TIP3   OH2 9512   7.687   0.044   3.592
 3190TIP3    H1 9513   7.657   0.073   3.505
 3190TIP3    H2 9514   7.782   0.059   3.591
 3191TIP3   OH2 9515   2.277   2.889  -0.012
 3191TIP3    H1 9516   2.304   2.817  -0.069
 3191TIP3    H2 9517   2.325   2.875   0.070
 3192TIP3   OH2 9518   6.571   2.087   4.351
 3192TIP3    H1 9519   6.511   2.092   4.276
 3192TIP3    H2 9520   6.627   2.012   4.331
 3193TIP3   OH2 9521   2.694   1.977   1.836
 3193TIP3    H1 9522   2.710   1.944   1.748
 3193TIP3    H2 9523   2.769   1.945   1.887
 3194TIP3   OH2 9524   3.538   3.546   3.234
 3194TIP3    H1 9525   3.545   3.580   3.145
 3194TIP3    H2 9526   3.621   3.501   3.250
 3195TIP3   OH2 9527   3.306   3.218   6.514
 3195TIP3    H1 9528   3.306   3.199   6.420
 3195TIP3    H2 9529   3.241   3.287   6.524
 3196TIP3   OH2 9530   1.643   4.693   2.236
 3196TIP3    H1 9531   1.645   4.621   2.300
 3196TIP3    H2 9532   1.720   4.678   2.181
 3197TIP3   OH2 9533   5.982   4.486   5.393
 3197TIP3    H1 9534   5.997   4.545   5.467
 3197TIP3    H2 9535   6.070   4.466   5.360
 3198TIP3   OH2 9536   1.372   6.297   4.834
 3198TIP3    H1 9537   1.351   6.384   4.868
 3198TIP3    H2 9538   1.353   6.303   4.740
 3199TIP3   OH2 9539   1.176   2.851   4.488
 3199TIP3    H1 9540   1.100   2.809   4.528
 3199TIP3    H2 9541   1.247   2.788   4.502
 3200TIP3   OH2 9542   1.751   2.655   0.775
 3200TIP3    H1 9543   1.780   2.598   0.704
 3200TIP3    H2 9544   1.722   2.595   0.844
 3201TIP3   OH2 9545   7.900   5.769   1.044
 3201TIP3    H1 9546   7.846   5.839   1.080
 3201TIP3    H2 9547   7.975   5.765   1.103
 3202TIP3   OH2 9548   4.708   2.501   0.228
 3202TIP3    H1 9549   4.737   2.579   0.179
 3202TIP3    H2 9550   4.690   2.534   0.316
 3203TIP3   OH2 9551   1.986   1.984   0.887
 3203TIP3    H1 9552   1.947   2.062   0.846
 3203TIP3    H2 9553   1.928   1.912   0.862
 3204TIP3   OH2 9554   6.415   4.661   4.725
 3204TIP3    H1 9555   6.369   4.671   4.808
 3204TIP3    H2 9556   6.471   4.739   4.720
 3205TIP3   OH2 9557   7.787   2.192   5.405
 3205TIP3    H1 9558   7.805   2.270   5.352
 3205TIP3    H2 9559   7.828   2.120   5.357
 3206TIP3   OH2 9560   8.039   3.793   0.360
 3206TIP3    H1 9561   7.949   3.828   0.359
 3206TIP3    H2 9562   8.037   3.722   0.297
 3207TIP3   OH2 9563   7.375   5.704   2.267
 3207TIP3    H1 9564   7.414   5.726   2.182
 3207TIP3    H2 9565   7.372   5.609   2.268
 3208TIP3   OH2 9566   7.579   7.408   5.880
 3208TIP3    H1 9567   7.666   7.406   5.918
 3208TIP3    H2 9568   7.589   7.372   5.792
 3209TIP3   OH2 9569   0.054   0.854   1.099
 3209TIP3    H1 9570   0.031   0.897   1.017
 3209TIP3    H2 9571   0.075   0.764   1.074
 3210TIP3   OH2 9572   5.249   4.152   2.632
 3210TIP3    H1 9573   5.180   4.203   2.590
 3210TIP3    H2 9574   5.322   4.212   2.641
 3211TIP3   OH2 9575   4.142   4.620   6.546
 3211TIP3    H1 9576   4.148   4.692   6.609
 3211TIP3    H2 9577   4.191   4.651   6.470
 3212TIP3   OH2 9578   0.206   0.284   2.727
 3212TIP3    H1 9579   0.204   0.371   2.688
 3212TIP3    H2 9580   0.297   0.272   2.753
 3213TIP3   OH2 9581   7.788   3.473   5.609
 3213TIP3    H1 9582   7.701   3.449   5.638
 3213TIP3    H2 9583   7.822   3.529   5.679
 3214TIP3   OH2 9584   8.083   6.626   0.401
 3214TIP3    H1 9585   8.044   6.637   0.488
 3214TIP3    H2 9586   8.085   6.714   0.364
 3215TIP3   OH2 9587   5.381   0.864   0.409
 3215TIP3    H1 9588   5.330   0.836   0.485
 3215TIP3    H2 9589   5.465   0.818   0.418
 3216TIP3   OH2 9590   0.789   5.511   6.306
 3216TIP3    H1 9591   0.865   5.508   6.248
 3216TIP3    H2 9592   0.820   5.560   6.383
 3217TIP3   OH2 9593   3.448   5.576   6.343
 3217TIP3    H1 9594   3.402   5.556   6.261
 3217TIP3    H2 9595   3.466   5.491   6.382
 3218TIP3   OH2 9596   4.125   0.195   3.677
 3218TIP3    H1 9597   4.200   0.239   3.718
 3218TIP3    H2 9598   4.115   0.239   3.592
 3219TIP3   OH2 9599   6.950   6.494   3.093
 3219TIP3    H1 9600   6.971   6.479   3.001
 3219TIP3    H2 9601   6.979   6.584   3.110
 3220TIP3   OH2 9602   3.425   1.006   2.544
 3220TIP3    H1 9603   3.471   0.983   2.624
 3220TIP3    H2 9604   3.360   1.070   2.570
 3221TIP3   OH2 9605   1.578   2.628   3.211
 3221TIP3    H1 9606   1.660   2.633   3.259
 3221TIP3    H2 9607   1.566   2.716   3.175
 3222TIP3   OH2 9608   2.050   7.694   0.455
 3222TIP3    H1 9609   2.145   7.689   0.469
 3222TIP3    H2 9610   2.027   7.609   0.417
 3223TIP3   OH2 9611   6.983   1.753   1.767
 3223TIP3    H1 9612   7.049   1.823   1.763
 3223TIP3    H2 9613   7.020   1.683   1.713
 3224TIP3   OH2 9614   7.245   0.351   2.513
 3224TIP3    H1 9615   7.238   0.438   2.472
 3224TIP3    H2 9616   7.216   0.365   2.603
 3225TIP3   OH2 9617   7.465   5.235   1.183
 3225TIP3    H1 9618   7.454   5.214   1.276
 3225TIP3    H2 9619   7.390   5.195   1.140
 3226TIP3   OH2 9620   8.319   4.509   6.696
 3226TIP3    H1 9621   8.233   4.493   6.658
 3226TIP3    H2 9622   8.366   4.558   6.629
 3227TIP3   OH2 9623   2.269   1.425   1.407
 3227TIP3    H1 9624   2.363   1.413   1.394
 3227TIP3    H2 9625   2.234   1.336   1.411
 3228TIP3   OH2 9626   0.894   0.971   3.028
 3228TIP3    H1 9627   0.915   0.956   3.120
 3228TIP3    H2 9628   0.829   0.905   3.006
 3229TIP3   OH2 9629   3.958   7.784   1.779
 3229TIP3    H1 9630   3.865   7.763   1.789
 3229TIP3    H2 9631   4.002   7.727   1.842
 3230TIP3   OH2 9632   0.960   7.377   2.893
 3230TIP3    H1 9633   0.925   7.455   2.937
 3230TIP3    H2 9634   1.055   7.386   2.900
 3231TIP3   OH2 9635   5.374   1.080   1.855
 3231TIP3    H1 9636   5.293   1.037   1.827
 3231TIP3    H2 9637   5.431   1.008   1.882
 3232TIP3   OH2 9638   1.836   4.421   3.527
 3232TIP3    H1 9639   1.817   4.461   3.442
 3232TIP3    H2 9640   1.869   4.494   3.580
 3233TIP3   OH2 9641  -0.068   1.633   3.028
 3233TIP3    H1 9642  -0.087   1.546   3.063
 3233TIP3    H2 9643   0.005   1.619   2.967
 3234TIP3   OH2 9644   3.501   4.806   4.196
 3234TIP3    H1 9645   3.411   4.774   4.206
 3234TIP3    H2 9646   3.545   4.781   4.278
 3235TIP3   OH2 9647   5.667   4.403   4.750
 3235TIP3    H1 9648   5.671   4.325   4.804
 3235TIP3    H2 9649   5.574   4.420   4.737
 3236TIP3   OH2 9650   1.228   7.807   4.407
 3236TIP3    H1 9651   1.259   7.897   4.414
 3236TIP3    H2 9652   1.228   7.789   4.313
 3237TIP3   OH2 9653   3.722   3.246   0.383
 3237TIP3    H1 9654   3.718   3.341   0.395
 3237TIP3    H2 9655   3.644   3.212   0.426
 3238TIP3   OH2 9656   3.019   3.659   1.587
 3238TIP3    H1 9657   2.993   3.698   1.670
 3238TIP3    H2 9658   2.938   3.659   1.535
 3239TIP3   OH2 9659   7.024   5.813   2.995
 3239TIP3    H1 9660   6.939   5.770   2.987
 3239TIP3    H2 9661   7.087   5.744   2.971
 3240TIP3   OH2 9662   2.162   2.416   0.678
 3240TIP3    H1 9663   2.187   2.445   0.590
 3240TIP3    H2 9664   2.134   2.496   0.722
 3241TIP3   OH2 9665   2.261   6.917   0.589
 3241TIP3    H1 9666   2.334   6.953   0.640
 3241TIP3    H2 9667   2.187   6.975   0.610
 3242TIP3   OH2 9668   0.780   2.669   4.870
 3242TIP3    H1 9669   0.789   2.714   4.786
 3242TIP3    H2 9670   0.813   2.732   4.934
 3243TIP3   OH2 9671   1.434   1.887   4.191
 3243TIP3    H1 9672   1.380   1.966   4.187
 3243TIP3    H2 9673   1.415   1.850   4.277
 3244TIP3   OH2 9674   5.407   3.154   5.710
 3244TIP3    H1 9675   5.400   3.164   5.805
 3244TIP3    H2 9676   5.484   3.205   5.685
 3245TIP3   OH2 9677   4.195   5.462   0.546
 3245TIP3    H1 9678   4.194   5.554   0.522
 3245TIP3    H2 9679   4.106   5.444   0.578
 3246TIP3   OH2 9680   4.770   7.160   2.304
 3246TIP3    H1 9681   4.676   7.169   2.295
 3246TIP3    H2 9682   4.783   7.072   2.340
 3247TIP3   OH2 9683   6.838   0.913   4.638
 3247TIP3    H1 9684   6.752   0.923   4.598
 3247TIP3    H2 9685   6.882   0.848   4.584
 3248TIP3   OH2 9686   5.238   5.514   6.008
 3248TIP3    H1 9687   5.229   5.548   5.919
 3248TIP3    H2 9688   5.176   5.442   6.012
 3249TIP3   OH2 9689   3.009   5.965   6.115
 3249TIP3    H1 9690   3.100   5.938   6.132
 3249TIP3    H2 9691   3.015   6.019   6.036
 3250TIP3   OH2 9692   1.693   6.781   5.993
 3250TIP3    H1 9693   1.710   6.863   6.040
 3250TIP3    H2 9694   1.598   6.778   5.983
 3251TIP3   OH2 9695   2.423   6.369   0.353
 3251TIP3    H1 9696   2.414   6.323   0.437
 3251TIP3    H2 9697   2.335   6.368   0.316
 3252TIP3   OH2 9698   1.809   5.052   0.302
 3252TIP3    H1 9699   1.840   5.092   0.383
 3252TIP3    H2 9700   1.723   5.091   0.287
 3253TIP3   OH2 9701   0.371   1.478   4.474
 3253TIP3    H1 9702   0.276   1.463   4.476
 3253TIP3    H2 9703   0.387   1.520   4.390
 3254TIP3   OH2 9704   8.033   1.104   6.646
 3254TIP3    H1 9705   8.112   1.095   6.699
 3254TIP3    H2 9706   7.984   1.023   6.661
 3255TIP3   OH2 9707   5.829   7.120   5.576
 3255TIP3    H1 9708   5.796   7.109   5.665
 3255TIP3    H2 9709   5.783   7.054   5.525
 3256TIP3   OH2 9710   5.822   3.221   4.811
 3256TIP3    H1 9711   5.884   3.293   4.824
 3256TIP3    H2 9712   5.742   3.251   4.855
 3257TIP3   OH2 9713   6.838   3.634   5.613
 3257TIP3    H1 9714   6.883   3.629   5.697
 3257TIP3    H2 9715   6.847   3.547   5.575
 3258TIP3   OH2 9716   8.241   3.927   0.038
 3258TIP3    H1 9717   8.204   4.010   0.069
 3258TIP3    H2 9718   8.324   3.951  -0.003
 3259TIP3   OH2 9719   0.171   2.159   3.481
 3259TIP3    H1 9720   0.088   2.204   3.472
 3259TIP3    H2 9721   0.150   2.077   3.525
 3260TIP3   OH2 9722   4.194   6.576   2.446
 3260TIP3    H1 9723   4.131   6.645   2.467
 3260TIP3    H2 9724   4.256   6.619   2.386
 3261TIP3   OH2 9725   5.800   2.489   5.399
 3261TIP3    H1 9726   5.836   2.426   5.336
 3261TIP3    H2 9727   5.706   2.474   5.398
 3262TIP3   OH2 9728   0.070   1.241   4.918
 3262TIP3    H1 9729   0.115   1.320   4.887
 3262TIP3    H2 9730   0.120   1.214   4.995
 3263TIP3   OH2 9731   2.881   5.543   0.715
 3263TIP3    H1 9732   2.805   5.553   0.773
 3263TIP3    H2 9733   2.947   5.601   0.753
 3264TIP3   OH2 9734   1.101   0.641   5.069
 3264TIP3    H1 9735   1.172   0.588   5.105
 3264TIP3    H2 9736   1.055   0.582   5.009
 3265TIP3   OH2 9737   0.679   2.391   1.294
 3265TIP3    H1 9738   0.641   2.475   1.269
 3265TIP3    H2 9739   0.771   2.411   1.312
 3266TIP3   OH2 9740   6.996   6.163   0.008
 3266TIP3    H1 9741   6.987   6.226   0.080
 3266TIP3    H2 9742   7.081   6.183  -0.031
 3267TIP3   OH2 9743   0.911   7.121   0.754
 3267TIP3    H1 9744   0.897   7.073   0.672
 3267TIP3    H2 9745   0.921   7.212   0.726
 3268TIP3   OH2 9746   4.343   5.324   4.024
 3268TIP3    H1 9747   4.360   5.380   4.099
 3268TIP3    H2 9748   4.381   5.372   3.950
 3269TIP3   OH2 9749   5.912   0.934   2.602
 3269TIP3    H1 9750   5.897   0.903   2.691
 3269TIP3    H2 9751   5.824   0.946   2.565
 3270TIP3   OH2 9752   0.892   1.710   6.364
 3270TIP3    H1 9753   0.812   1.761   6.356
 3270TIP3    H2 9754   0.940   1.752   6.436
 3271TIP3   OH2 9755   6.174   2.648   3.363
 3271TIP3    H1 9756   6.182   2.601   3.280
 3271TIP3    H2 9757   6.105   2.713   3.347
 3272TIP3   OH2 9758   5.664   5.805   3.941
 3272TIP3    H1 9759   5.755   5.775   3.933
 3272TIP3    H2 9760   5.661   5.849   4.026
 3273TIP3   OH2 9761   4.494   5.983   3.531
 3273TIP3    H1 9762   4.453   5.899   3.509
 3273TIP3    H2 9763   4.548   5.965   3.608
 3274TIP3   OH2 9764   6.065   4.983   5.135
 3274TIP3    H1 9765   6.045   5.050   5.070
 3274TIP3    H2 9766   6.028   4.903   5.099
 3275TIP3   OH2 9767   3.523   6.746   2.330
 3275TIP3    H1 9768   3.488   6.810   2.268
 3275TIP3    H2 9769   3.550   6.798   2.406
 3276TIP3   OH2 9770   6.174   7.329   2.206
 3276TIP3    H1 9771   6.119   7.371   2.273
 3276TIP3    H2 9772   6.112   7.303   2.137
 3277TIP3   OH2 9773   0.608   2.572   4.327
 3277TIP3    H1 9774   0.681   2.510   4.320
 3277TIP3    H2 9775   0.550   2.533   4.392
 3278TIP3   OH2 9776   5.456   4.569   4.904
 3278TIP3    H1 9777   5.401   4.644   4.929
 3278TIP3    H2 9778   5.423   4.543   4.818
 3279TIP3   OH2 9779   6.759   1.120   3.846
 3279TIP3    H1 9780   6.694   1.094   3.780
 3279TIP3    H2 9781   6.844   1.111   3.801
 3280TIP3   OH2 9782   5.222   3.786   3.107
 3280TIP3    H1 9783   5.164   3.810   3.180
 3280TIP3    H2 9784   5.174   3.718   3.060
 3281TIP3   OH2 9785   4.828   6.449   5.452
 3281TIP3    H1 9786   4.770   6.524   5.443
 3281TIP3    H2 9787   4.847   6.444   5.545
 3282TIP3   OH2 9788   3.714   1.346   3.683
 3282TIP3    H1 9789   3.712   1.378   3.593
 3282TIP3    H2 9790   3.790   1.388   3.722
 3283TIP3   OH2 9791   3.729   1.092   4.438
 3283TIP3    H1 9792   3.807   1.046   4.407
 3283TIP3    H2 9793   3.660   1.026   4.438
 3284TIP3   OH2 9794   1.116   2.366   5.587
 3284TIP3    H1 9795   1.107   2.454   5.552
 3284TIP3    H2 9796   1.206   2.340   5.566
 3285TIP3   OH2 9797   1.844   5.338   6.064
 3285TIP3    H1 9798   1.799   5.356   5.981
 3285TIP3    H2 9799   1.878   5.423   6.092
 3286TIP3   OH2 9800   6.883   0.192   5.317
 3286TIP3    H1 9801   6.827   0.158   5.387
 3286TIP3    H2 9802   6.848   0.280   5.298
 3287TIP3   OH2 9803   1.729   1.539   4.610
 3287TIP3    H1 9804   1.775   1.621   4.625
 3287TIP3    H2 9805   1.789   1.472   4.643
 3288TIP3   OH2 9806   0.394   2.462   5.680
 3288TIP3    H1 9807   0.355   2.542   5.716
 3288TIP3    H2 9808   0.349   2.450   5.596
 3289TIP3   OH2 9809   5.576   6.173   0.144
 3289TIP3    H1 9810   5.643   6.141   0.083
 3289TIP3    H2 9811   5.613   6.255   0.178
 3290TIP3   OH2 9812   7.976   6.407   0.783
 3290TIP3    H1 9813   8.063   6.371   0.802
 3290TIP3    H2 9814   7.935   6.418   0.868
 3291TIP3   OH2 9815   7.453   2.573   5.715
 3291TIP3    H1 9816   7.400   2.641   5.758
 3291TIP3    H2 9817   7.539   2.614   5.703
 3292TIP3   OH2 9818   7.898   3.923   4.471
 3292TIP3    H1 9819   7.986   3.900   4.442
 3292TIP3    H2 9820   7.912   3.996   4.532
 3293TIP3   OH2 9821   2.816   1.781   4.726
 3293TIP3    H1 9822   2.829   1.851   4.662
 3293TIP3    H2 9823   2.873   1.710   4.695
 3294TIP3   OH2 9824   0.178   7.596   6.405
 3294TIP3    H1 9825   0.142   7.536   6.471
 3294TIP3    H2 9826   0.196   7.677   6.453
 3295TIP3   OH2 9827   3.243   0.494   0.523
 3295TIP3    H1 9828   3.303   0.557   0.482
 3295TIP3    H2 9829   3.296   0.451   0.590
 3296TIP3   OH2 9830   4.548   7.755   3.794
 3296TIP3    H1 9831   4.617   7.742   3.859
 3296TIP3    H2 9832   4.474   7.704   3.827
 3297TIP3   OH2 9833   0.336   3.714   4.215
 3297TIP3    H1 9834   0.245   3.706   4.242
 3297TIP3    H2 9835   0.366   3.795   4.256
 3298TIP3   OH2 9836   8.112   1.169   3.092
 3298TIP3    H1 9837   8.093   1.170   2.999
 3298TIP3    H2 9838   8.109   1.076   3.116
 3299TIP3   OH2 9839   5.344   0.939   3.965
 3299TIP3    H1 9840   5.427   0.976   3.935
 3299TIP3    H2 9841   5.286   1.015   3.976
 3300TIP3   OH2 9842   2.997   1.139   4.331
 3300TIP3    H1 9843   3.076   1.166   4.377
 3300TIP3    H2 9844   3.006   1.044   4.321
 3301TIP3   OH2 9845   1.300   7.016   4.983
 3301TIP3    H1 9846   1.288   7.106   5.013
 3301TIP3    H2 9847   1.349   6.974   5.053
 3302TIP3   OH2 9848   6.966   6.097   4.527
 3302TIP3    H1 9849   6.878   6.065   4.505
 3302TIP3    H2 9850   6.994   6.043   4.600
 3303TIP3   OH2 9851   2.457   4.485   0.579
 3303TIP3    H1 9852   2.542   4.445   0.557
 3303TIP3    H2 9853   2.475   4.579   0.579
 3304TIP3   OH2 9854   1.618   3.221   5.627
 3304TIP3    H1 9855   1.557   3.220   5.701
 3304TIP3    H2 9856   1.699   3.184   5.663
 3305TIP3   OH2 9857   4.765   7.741   3.964
 3305TIP3    H1 9858   4.778   7.660   3.915
 3305TIP3    H2 9859   4.828   7.735   4.036
 3306TIP3   OH2 9860   1.269   2.067   6.602
 3306TIP3    H1 9861   1.223   2.065   6.685
 3306TIP3    H2 9862   1.302   2.156   6.594
 3307TIP3   OH2 9863   5.248   5.877   1.305
 3307TIP3    H1 9864   5.235   5.964   1.342
 3307TIP3    H2 9865   5.191   5.875   1.228
 3308TIP3   OH2 9866   5.529   6.276   1.656
 3308TIP3    H1 9867   5.446   6.313   1.626
 3308TIP3    H2 9868   5.536   6.192   1.610
 3309TIP3   OH2 9869   7.188   0.716   3.221
 3309TIP3    H1 9870   7.100   0.747   3.241
 3309TIP3    H2 9871   7.246   0.776   3.269
 3310TIP3   OH2 9872   7.591   1.090   3.655
 3310TIP3    H1 9873   7.596   1.144   3.734
 3310TIP3    H2 9874   7.648   1.016   3.672
 3311TIP3   OH2 9875   5.279   1.242   2.283
 3311TIP3    H1 9876   5.225   1.317   2.309
 3311TIP3    H2 9877   5.285   1.189   2.362
 3312TIP3   OH2 9878   7.979   4.958   1.676
 3312TIP3    H1 9879   7.969   4.868   1.645
 3312TIP3    H2 9880   8.018   4.949   1.763
 3313TIP3   OH2 9881   1.763   1.831   2.828
 3313TIP3    H1 9882   1.774   1.758   2.768
 3313TIP3    H2 9883   1.721   1.793   2.906
 3314TIP3   OH2 9884   0.922   2.642   4.226
 3314TIP3    H1 9885   0.890   2.558   4.193
 3314TIP3    H2 9886   0.991   2.668   4.164
 3315TIP3   OH2 9887   7.282   6.473   2.710
 3315TIP3    H1 9888   7.308   6.388   2.673
 3315TIP3    H2 9889   7.318   6.472   2.799
 3316TIP3   OH2 9890   7.524   6.580   5.451
 3316TIP3    H1 9891   7.544   6.664   5.492
 3316TIP3    H2 9892   7.529   6.598   5.357
 3317TIP3   OH2 9893   5.487   0.219   2.328
 3317TIP3    H1 9894   5.525   0.158   2.392
 3317TIP3    H2 9895   5.434   0.163   2.271
 3318TIP3   OH2 9896   3.425   1.266   2.992
 3318TIP3    H1 9897   3.488   1.331   3.025
 3318TIP3    H2 9898   3.341   1.312   2.993
 3319TIP3   OH2 9899   7.699   0.947   6.637
 3319TIP3    H1 9900   7.661   0.896   6.566
 3319TIP3    H2 9901   7.788   0.913   6.645
 3320TIP3   OH2 9902   7.500   2.571   0.065
 3320TIP3    H1 9903   7.519   2.612  -0.019
 3320TIP3    H2 9904   7.459   2.487   0.042
 3321TIP3   OH2 9905   6.980   3.239   6.373
 3321TIP3    H1 9906   6.981   3.226   6.468
 3321TIP3    H2 9907   6.976   3.151   6.336
 3322TIP3   OH2 9908   0.168   7.663   0.243
 3322TIP3    H1 9909   0.118   7.743   0.226
 3322TIP3    H2 9910   0.131   7.598   0.184
 3323TIP3   OH2 9911   7.784   5.109   0.910
 3323TIP3    H1 9912   7.815   5.060   0.834
 3323TIP3    H2 9913   7.847   5.088   0.980
 3324TIP3   OH2 9914   6.162   0.201   2.086
 3324TIP3    H1 9915   6.235   0.213   2.146
 3324TIP3    H2 9916   6.087   0.240   2.132
 3325TIP3   OH2 9917   1.031   3.624   1.587
 3325TIP3    H1 9918   1.085   3.680   1.643
 3325TIP3    H2 9919   0.959   3.680   1.558
 3326TIP3   OH2 9920   1.731   6.726   2.969
 3326TIP3    H1 9921   1.783   6.747   2.892
 3326TIP3    H2 9922   1.660   6.671   2.937
 3327TIP3   OH2 9923   1.815   0.267   5.526
 3327TIP3    H1 9924   1.827   0.327   5.600
 3327TIP3    H2 9925   1.759   0.198   5.559
 3328TIP3   OH2 9926   1.572   7.623   5.083
 3328TIP3    H1 9927   1.477   7.619   5.081
 3328TIP3    H2 9928   1.600   7.538   5.115
 3329TIP3   OH2 9929   7.769   2.460   6.287
 3329TIP3    H1 9930   7.819   2.408   6.349
 3329TIP3    H2 9931   7.793   2.426   6.201
 3330TIP3   OH2 9932   4.325   0.079   3.013
 3330TIP3    H1 9933   4.244   0.105   3.057
 3330TIP3    H2 9934   4.390   0.074   3.083
 3331TIP3   OH2 9935   3.352   3.826   6.165
 3331TIP3    H1 9936   3.282   3.794   6.109
 3331TIP3    H2 9937   3.407   3.750   6.182
 3332TIP3   OH2 9938   4.839   5.795   4.431
 3332TIP3    H1 9939   4.817   5.715   4.480
 3332TIP3    H2 9940   4.772   5.858   4.457
 3333TIP3   OH2 9941   0.607   2.825   6.452
 3333TIP3    H1 9942   0.582   2.917   6.446
 3333TIP3    H2 9943   0.639   2.803   6.364
 3334TIP3   OH2 9944   7.916   2.519   2.377
 3334TIP3    H1 9945   7.866   2.597   2.403
 3334TIP3    H2 9946   8.006   2.539   2.399
 3335TIP3   OH2 9947   1.638   3.488   2.016
 3335TIP3    H1 9948   1.548   3.516   2.029
 3335TIP3    H2 9949   1.681   3.504   2.100
 3336TIP3   OH2 9950   5.329   6.132   2.897
 3336TIP3    H1 9951   5.355   6.047   2.932
 3336TIP3    H2 9952   5.234   6.126   2.888
 3337TIP3   OH2 9953   2.826   0.837   6.690
 3337TIP3    H1 9954   2.794   0.850   6.780
 3337TIP3    H2 9955   2.901   0.895   6.682
 3338TIP3   OH2 9956   2.953   6.338   0.863
 3338TIP3    H1 9957   2.963   6.329   0.958
 3338TIP3    H2 9958   3.038   6.310   0.829
 3339TIP3   OH2 9959   2.318   7.735   5.732
 3339TIP3    H1 9960   2.364   7.781   5.803
 3339TIP3    H2 9961   2.299   7.804   5.668
 3340TIP3   OH2 9962   7.713   6.343   5.972
 3340TIP3    H1 9963   7.662   6.366   6.049
 3340TIP3    H2 9964   7.655   6.366   5.898
 3341TIP3   OH2 9965   2.829   3.864   5.104
 3341TIP3    H1 9966   2.838   3.959   5.099
 3341TIP3    H2 9967   2.742   3.850   5.142
 3342TIP3   OH2 9968   7.231   2.098   5.969
 3342TIP3    H1 9969   7.182   2.053   5.901
 3342TIP3    H2 9970   7.198   2.062   6.051
 3343TIP3   OH2 9971   4.518   4.584   1.158
 3343TIP3    H1 9972   4.501   4.678   1.167
 3343TIP3    H2 9973   4.433   4.543   1.170
 3344TIP3   OH2 9974   1.924   4.358   6.664
 3344TIP3    H1 9975   1.995   4.309   6.704
 3344TIP3    H2 9976   1.860   4.291   6.639
 3345TIP3   OH2 9977   1.647   7.604   1.434
 3345TIP3    H1 9978   1.631   7.555   1.515
 3345TIP3    H2 9979   1.674   7.537   1.371
 3346TIP3   OH2 9980   7.312   5.976   2.334
 3346TIP3    H1 9981   7.399   5.998   2.300
 3346TIP3    H2 9982   7.310   5.880   2.336
 3347TIP3   OH2 9983   4.581   5.180   0.291
 3347TIP3    H1 9984   4.521   5.249   0.319
 3347TIP3    H2 9985   4.628   5.155   0.371
 3348TIP3   OH2 9986   7.878   4.400   4.118
 3348TIP3    H1 9987   7.844   4.322   4.161
 3348TIP3    H2 9988   7.912   4.369   4.034
 3349TIP3   OH2 9989   5.446   0.808   1.909
 3349TIP3    H1 9990   5.441   0.783   2.001
 3349TIP3    H2 9991   5.365   0.774   1.871
 3350TIP3   OH2 9992   1.224   3.770   4.883
 3350TIP3    H1 9993   1.287   3.729   4.942
 3350TIP3    H2 9994   1.256   3.859   4.871
 3351TIP3   OH2 9995   1.849   7.600   5.846
 3351TIP3    H1 9996   1.913   7.587   5.916
 3351TIP3    H2 9997   1.791   7.669   5.879
 3352TIP3   OH2 9998   2.890   4.778   3.564
 3352TIP3    H1 9999   2.872   4.854   3.620
 3352TIP3    H210000   2.974   4.744   3.596
 3353TIP3   OH210001   0.423   0.097   6.489
 3353TIP3    H110002   0.509   0.058   6.477
 3353TIP3    H210003   0.370   0.059   6.419
 3354TIP3   OH210004   0.729   4.867   0.859
 3354TIP3    H110005   0.643   4.902   0.883
 3354TIP3    H210006   0.773   4.852   0.943
 3355TIP3   OH210007   7.521   3.459   0.228
 3355TIP3    H110008   7.595   3.414   0.268
 3355TIP3    H210009   7.474   3.390   0.181
 3356TIP3   OH210010   7.801   6.715   0.939
 3356TIP3    H110011   7.876   6.764   0.906
 3356TIP3    H210012   7.729   6.736   0.879
 3357TIP3   OH210013   7.102   6.422   1.400
 3357TIP3    H110014   7.193   6.449   1.413
 3357TIP3    H210015   7.077   6.460   1.315
 3358TIP3   OH210016   0.977   5.211   1.691
 3358TIP3    H110017   0.929   5.153   1.632
 3358TIP3    H210018   0.930   5.205   1.775
 3359TIP3   OH210019   2.976   0.390   6.426
 3359TIP3    H110020   2.890   0.390   6.384
 3359TIP3    H210021   3.035   0.350   6.362
 3360TIP3   OH210022   6.712   0.771   4.200
 3360TIP3    H110023   6.630   0.819   4.191
 3360TIP3    H210024   6.714   0.744   4.291
 3361TIP3   OH210025   1.586   5.443   5.130
 3361TIP3    H110026   1.606   5.532   5.159
 3361TIP3    H210027   1.576   5.393   5.211
 3362TIP3   OH210028   6.008   7.763   1.013
 3362TIP3    H110029   6.012   7.840   1.069
 3362TIP3    H210030   6.098   7.730   1.009
 3363TIP3   OH210031   5.114   5.955   5.979
 3363TIP3    H110032   5.028   5.937   5.941
 3363TIP3    H210033   5.096   5.985   6.068
 3364TIP3   OH210034   0.482   7.564   2.087
 3364TIP3    H110035   0.445   7.625   2.024
 3364TIP3    H210036   0.433   7.581   2.168
 3365TIP3   OH210037   4.194   2.460   3.126
 3365TIP3    H110038   4.258   2.453   3.197
 3365TIP3    H210039   4.114   2.422   3.163
 3366TIP3   OH210040   5.233   5.783   6.566
 3366TIP3    H110041   5.203   5.727   6.638
 3366TIP3    H210042   5.200   5.870   6.589
 3367TIP3   OH210043   6.085   7.168   5.578
 3367TIP3    H110044   6.117   7.191   5.490
 3367TIP3    H210045   5.991   7.153   5.565
 3368TIP3   OH210046   4.086   4.635   3.611
 3368TIP3    H110047   3.997   4.615   3.581
 3368TIP3    H210048   4.075   4.666   3.701
 3369TIP3   OH210049   4.436   4.949   2.720
 3369TIP3    H110050   4.387   5.022   2.757
 3369TIP3    H210051   4.522   4.985   2.699
 3370TIP3   OH210052   2.617   6.365   4.270
 3370TIP3    H110053   2.604   6.390   4.178
 3370TIP3    H210054   2.578   6.279   4.277
 3371TIP3   OH210055   6.658   4.631   3.826
 3371TIP3    H110056   6.707   4.699   3.780
 3371TIP3    H210057   6.715   4.606   3.899
 3372TIP3   OH210058   1.918   5.238   3.173
 3372TIP3    H110059   1.988   5.191   3.219
 3372TIP3    H210060   1.922   5.205   3.083
 3373TIP3   OH210061   1.490   4.521   1.535
 3373TIP3    H110062   1.485   4.488   1.445
 3373TIP3    H210063   1.424   4.589   1.540
 3374TIP3   OH210064   2.583   3.285   2.459
 3374TIP3    H110065   2.547   3.257   2.375
 3374TIP3    H210066   2.516   3.258   2.523
 3375TIP3   OH210067   6.809   4.651   6.262
 3375TIP3    H110068   6.787   4.559   6.276
 3375TIP3    H210069   6.895   4.650   6.219
 3376TIP3   OH210070   6.701   5.250   2.242
 3376TIP3    H110071   6.610   5.223   2.239
 3376TIP3    H210072   6.750   5.176   2.206
 3377TIP3   OH210073   4.155   2.943   6.607
 3377TIP3    H110074   4.184   2.852   6.614
 3377TIP3    H210075   4.167   2.965   6.515
 3378TIP3   OH210076   0.270   0.092   3.745
 3378TIP3    H110077   0.292   0.155   3.813
 3378TIP3    H210078   0.313   0.125   3.666
 3379TIP3   OH210079   3.956   1.508   2.709
 3379TIP3    H110080   4.012   1.482   2.782
 3379TIP3    H210081   3.925   1.596   2.732
 3380TIP3   OH210082   4.805   1.139   6.651
 3380TIP3    H110083   4.741   1.067   6.648
 3380TIP3    H210084   4.771   1.204   6.590
 3381TIP3   OH210085   5.870   2.867   4.373
 3381TIP3    H110086   5.901   2.781   4.403
 3381TIP3    H210087   5.881   2.924   4.449
 3382TIP3   OH210088   5.676   4.008   2.628
 3382TIP3    H110089   5.612   3.961   2.575
 3382TIP3    H210090   5.624   4.053   2.694
 3383TIP3   OH210091   1.016   3.545  -0.001
 3383TIP3    H110092   0.957   3.583  -0.066
 3383TIP3    H210093   0.959   3.493   0.056
 3384TIP3   OH210094   0.309   1.080   1.518
 3384TIP3    H110095   0.383   1.057   1.574
 3384TIP3    H210096   0.232   1.052   1.567
 3385TIP3   OH210097   1.174   7.769   5.172
 3385TIP3    H110098   1.268   7.776   5.187
 3385TIP3    H210099   1.134   7.799   5.254
 3386TIP3   OH210100   4.756   1.161   4.207
 3386TIP3    H110101   4.824   1.201   4.154
 3386TIP3    H210102   4.674   1.200   4.175
 3387TIP3   OH210103   7.188   1.446   3.535
 3387TIP3    H110104   7.284   1.444   3.533
 3387TIP3    H210105   7.166   1.536   3.510
 3388TIP3   OH210106   2.859   2.414   2.715
 3388TIP3    H110107   2.918   2.339   2.715
 3388TIP3    H210108   2.835   2.425   2.623
 3389TIP3   OH210109   6.691   1.537   2.651
 3389TIP3    H110110   6.663   1.536   2.742
 3389TIP3    H210111   6.721   1.627   2.636
 3390TIP3   OH210112   0.242   2.332   2.968
 3390TIP3    H110113   0.153   2.355   2.996
 3390TIP3    H210114   0.277   2.412   2.931
 3391TIP3   OH210115   3.061   7.187   6.450
 3391TIP3    H110116   2.998   7.129   6.407
 3391TIP3    H210117   3.071   7.262   6.391
 3392TIP3   OH210118   6.010   7.272   1.074
 3392TIP3    H110119   6.101   7.277   1.043
 3392TIP3    H210120   5.959   7.314   1.005
 3393TIP3   OH210121   5.704   1.964   0.290
 3393TIP3    H110122   5.743   1.879   0.267
 3393TIP3    H210123   5.617   1.941   0.324
 3394TIP3   OH210124   6.821   7.105   4.334
 3394TIP3    H110125   6.733   7.075   4.312
 3394TIP3    H210126   6.878   7.030   4.315
 3395TIP3   OH210127   5.171   2.539   3.141
 3395TIP3    H110128   5.106   2.484   3.185
 3395TIP3    H210129   5.253   2.520   3.187
 3396TIP3   OH210130   0.533   2.569   4.912
 3396TIP3    H110131   0.619   2.610   4.896
 3396TIP3    H210132   0.471   2.630   4.873
 3397TIP3   OH210133   7.571   5.245   1.889
 3397TIP3    H110134   7.564   5.193   1.810
 3397TIP3    H210135   7.647   5.208   1.935
 3398TIP3   OH210136   6.877   6.627   2.421
 3398TIP3    H110137   6.934   6.597   2.492
 3398TIP3    H210138   6.913   6.587   2.343
 3399TIP3   OH210139   1.990   5.406   3.896
 3399TIP3    H110140   2.022   5.472   3.834
 3399TIP3    H210141   2.024   5.323   3.862
 3400TIP3   OH210142   0.786   5.281   5.486
 3400TIP3    H110143   0.869   5.249   5.453
 3400TIP3    H210144   0.807   5.365   5.527
 3401TIP3   OH210145   5.400   3.905   5.175
 3401TIP3    H110146   5.381   3.987   5.129
 3401TIP3    H210147   5.477   3.870   5.130
 3402TIP3   OH210148   3.830   0.616   0.877
 3402TIP3    H110149   3.810   0.572   0.960
 3402TIP3    H210150   3.821   0.547   0.811
 3403TIP3   OH210151   0.975   0.014   5.071
 3403TIP3    H110152   0.950  -0.077   5.084
 3403TIP3    H210153   1.053   0.010   5.015
 3404TIP3   OH210154   8.047   6.180   2.830
 3404TIP3    H110155   8.038   6.192   2.735
 3404TIP3    H210156   7.970   6.127   2.854
 3405TIP3   OH210157   6.186   6.481   4.780
 3405TIP3    H110158   6.248   6.409   4.781
 3405TIP3    H210159   6.190   6.515   4.690
 3406TIP3   OH210160   0.531   5.072   6.638
 3406TIP3    H110161   0.449   5.068   6.687
 3406TIP3    H210162   0.595   5.029   6.695
 3407TIP3   OH210163   5.354   3.365   5.266
 3407TIP3    H110164   5.285   3.410   5.315
 3407TIP3    H210165   5.432   3.372   5.322
 3408TIP3   OH210166   0.984   5.629   0.960
 3408TIP3    H110167   1.027   5.558   1.006
 3408TIP3    H210168   1.044   5.653   0.889
 3409TIP3   OH210169   5.294   6.163   1.918
 3409TIP3    H110170   5.341   6.246   1.930
 3409TIP3    H210171   5.271   6.136   2.007
 3410TIP3   OH210172   7.141   1.421   1.216
 3410TIP3    H110173   7.099   1.467   1.143
 3410TIP3    H210174   7.072   1.363   1.251
 3411TIP3   OH210175   6.690   4.940   4.132
 3411TIP3    H110176   6.624   4.944   4.201
 3411TIP3    H210177   6.663   4.866   4.078
 3412TIP3   OH210178   3.748   0.570   0.396
 3412TIP3    H110179   3.803   0.603   0.325
 3412TIP3    H210180   3.670   0.536   0.353
 3413TIP3   OH210181   1.763   7.035   4.193
 3413TIP3    H110182   1.853   7.025   4.224
 3413TIP3    H210183   1.729   7.110   4.242
 3414TIP3   OH210184   2.168   6.296   3.438
 3414TIP3    H110185   2.203   6.289   3.349
 3414TIP3    H210186   2.235   6.344   3.487
 3415TIP3   OH210187   2.123   1.740   6.457
 3415TIP3    H110188   2.126   1.657   6.505
 3415TIP3    H210189   2.032   1.748   6.428
 3416TIP3   OH210190   0.804   5.762   0.681
 3416TIP3    H110191   0.825   5.726   0.768
 3416TIP3    H210192   0.714   5.733   0.664
 3417TIP3   OH210193   6.723   7.668   5.371
 3417TIP3    H110194   6.713   7.638   5.281
 3417TIP3    H210195   6.713   7.588   5.424
 3418TIP3   OH210196   4.261   4.998   4.525
 3418TIP3    H110197   4.209   4.946   4.465
 3418TIP3    H210198   4.302   4.934   4.584
 3419TIP3   OH210199   6.308   3.860   5.987
 3419TIP3    H110200   6.401   3.857   5.965
 3419TIP3    H210201   6.299   3.804   6.064
 3420TIP3   OH210202   2.073   3.648   6.747
 3420TIP3    H110203   2.129   3.714   6.788
 3420TIP3    H210204   1.992   3.649   6.797
 3421TIP3   OH210205   0.888   5.033   5.142
 3421TIP3    H110206   0.811   5.057   5.091
 3421TIP3    H210207   0.960   5.032   5.078
 3422TIP3   OH210208   6.031   1.431   6.396
 3422TIP3    H110209   6.031   1.397   6.486
 3422TIP3    H210210   5.988   1.363   6.345
 3423TIP3   OH210211   5.993   3.663   6.144
 3423TIP3    H110212   6.087   3.679   6.135
 3423TIP3    H210213   5.987   3.569   6.162
 3424TIP3   OH210214   0.668   5.623   2.298
 3424TIP3    H110215   0.590   5.671   2.273
 3424TIP3    H210216   0.694   5.576   2.218
 3425TIP3   OH210217   4.113   0.492   3.864
 3425TIP3    H110218   4.131   0.435   3.939
 3425TIP3    H210219   4.049   0.556   3.898
 3426TIP3   OH210220   5.938   6.842   0.313
 3426TIP3    H110221   5.971   6.767   0.362
 3426TIP3    H210222   5.879   6.886   0.374
 3427TIP3   OH210223   2.789   1.300   2.606
 3427TIP3    H110224   2.809   1.207   2.615
 3427TIP3    H210225   2.711   1.314   2.660
 3428TIP3   OH210226   7.858   1.000   2.376
 3428TIP3    H110227   7.793   0.949   2.328
 3428TIP3    H210228   7.927   1.018   2.312
 3429TIP3   OH210229   1.228   4.263   3.981
 3429TIP3    H110230   1.301   4.219   3.938
 3429TIP3    H210231   1.247   4.357   3.971
 3430TIP3   OH210232   3.350   2.446   4.850
 3430TIP3    H110233   3.271   2.392   4.851
 3430TIP3    H210234   3.403   2.412   4.922
 3431TIP3   OH210235   3.797   2.065   5.163
 3431TIP3    H110236   3.819   2.132   5.099
 3431TIP3    H210237   3.780   2.114   5.244
 3432TIP3   OH210238   2.307   4.085   5.763
 3432TIP3    H110239   2.279   4.167   5.723
 3432TIP3    H210240   2.393   4.068   5.725
 3433TIP3   OH210241   0.460   5.282   4.741
 3433TIP3    H110242   0.420   5.196   4.729
 3433TIP3    H210243   0.447   5.302   4.834
 3434TIP3   OH210244   7.960   2.691   6.100
 3434TIP3    H110245   8.038   2.713   6.150
 3434TIP3    H210246   7.888   2.701   6.161
 3435TIP3   OH210247   2.041   4.375   5.317
 3435TIP3    H110248   2.022   4.382   5.410
 3435TIP3    H210249   2.135   4.360   5.312
 3436TIP3   OH210250   5.098   6.376   4.615
 3436TIP3    H110251   5.105   6.469   4.592
 3436TIP3    H210252   5.118   6.330   4.534
 3437TIP3   OH210253   5.657   7.448   2.783
 3437TIP3    H110254   5.664   7.510   2.710
 3437TIP3    H210255   5.602   7.377   2.749
 3438TIP3   OH210256   2.582   0.990   0.919
 3438TIP3    H110257   2.499   0.987   0.968
 3438TIP3    H210258   2.574   1.067   0.863
 3439TIP3   OH210259   2.715   0.136   3.985
 3439TIP3    H110260   2.728   0.154   3.891
 3439TIP3    H210261   2.760   0.207   4.030
 3440TIP3   OH210262   7.547   7.712   1.513
 3440TIP3    H110263   7.483   7.784   1.512
 3440TIP3    H210264   7.528   7.665   1.595
 3441TIP3   OH210265   4.820   5.982   5.294
 3441TIP3    H110266   4.886   6.050   5.301
 3441TIP3    H210267   4.853   5.922   5.227
 3442TIP3   OH210268   2.604   1.673   5.969
 3442TIP3    H110269   2.589   1.747   5.909
 3442TIP3    H210270   2.523   1.623   5.965
 3443TIP3   OH210271   1.442   4.821   0.785
 3443TIP3    H110272   1.481   4.806   0.699
 3443TIP3    H210273   1.368   4.761   0.789
 3444TIP3   OH210274   1.950   2.760   1.811
 3444TIP3    H110275   1.964   2.768   1.905
 3444TIP3    H210276   2.028   2.799   1.772
 3445TIP3   OH210277   0.450   1.357   2.584
 3445TIP3    H110278   0.476   1.279   2.633
 3445TIP3    H210279   0.513   1.362   2.512
 3446TIP3   OH210280   7.126   1.400   5.823
 3446TIP3    H110281   7.039   1.413   5.859
 3446TIP3    H210282   7.173   1.351   5.890
 3447TIP3   OH210283   3.617   7.073   3.155
 3447TIP3    H110284   3.532   7.075   3.200
 3447TIP3    H210285   3.659   7.155   3.182
 3448TIP3   OH210286   5.089   1.077   5.668
 3448TIP3    H110287   5.128   1.085   5.755
 3448TIP3    H210288   5.041   0.995   5.670
 3449TIP3   OH210289   5.271   0.655   4.111
 3449TIP3    H110290   5.210   0.593   4.150
 3449TIP3    H210291   5.253   0.738   4.156
 3450TIP3   OH210292   1.213   2.135   2.720
 3450TIP3    H110293   1.270   2.211   2.728
 3450TIP3    H210294   1.250   2.071   2.780
 3451TIP3   OH210295   5.608   0.086   1.259
 3451TIP3    H110296   5.570   0.019   1.202
 3451TIP3    H210297   5.695   0.052   1.281
 3452TIP3   OH210298   1.498   1.333   3.382
 3452TIP3    H110299   1.573   1.273   3.381
 3452TIP3    H210300   1.484   1.352   3.475
 3453TIP3   OH210301   3.090   5.785   1.101
 3453TIP3    H110302   3.062   5.771   1.191
 3453TIP3    H210303   3.186   5.778   1.104
 3454TIP3   OH210304   3.249   7.350   4.637
 3454TIP3    H110305   3.279   7.315   4.554
 3454TIP3    H210306   3.248   7.445   4.625
 3455TIP3   OH210307   2.651   0.224   1.275
 3455TIP3    H110308   2.563   0.210   1.309
 3455TIP3    H210309   2.645   0.306   1.226
 3456TIP3   OH210310   2.098   2.244   4.830
 3456TIP3    H110311   2.123   2.171   4.887
 3456TIP3    H210312   2.177   2.263   4.780
 3457TIP3   OH210313   7.737   2.512   5.977
 3457TIP3    H110314   7.658   2.566   5.977
 3457TIP3    H210315   7.809   2.574   5.989
 3458TIP3   OH210316   6.579   4.851   6.611
 3458TIP3    H110317   6.500   4.806   6.580
 3458TIP3    H210318   6.623   4.881   6.532
 3459TIP3   OH210319   6.928   1.643   5.368
 3459TIP3    H110320   7.020   1.645   5.340
 3459TIP3    H210321   6.927   1.579   5.440
 3460TIP3   OH210322   6.719   3.368   0.101
 3460TIP3    H110323   6.684   3.343   0.187
 3460TIP3    H210324   6.802   3.411   0.121
 3461TIP3   OH210325   4.816   2.685   3.239
 3461TIP3    H110326   4.743   2.684   3.301
 3461TIP3    H210327   4.806   2.767   3.191
 3462TIP3   OH210328   7.120   2.643   4.049
 3462TIP3    H110329   7.043   2.650   4.105
 3462TIP3    H210330   7.167   2.725   4.062
 3463TIP3   OH210331   7.771   5.282   1.243
 3463TIP3    H110332   7.828   5.348   1.203
 3463TIP3    H210333   7.715   5.252   1.171
 3464TIP3   OH210334   0.141   4.654   6.496
 3464TIP3    H110335   0.117   4.686   6.409
 3464TIP3    H210336   0.230   4.619   6.484
 3465TIP3   OH210337   2.822   0.481   3.182
 3465TIP3    H110338   2.733   0.450   3.162
 3465TIP3    H210339   2.879   0.407   3.161
 3466TIP3   OH210340   0.886   6.237   3.844
 3466TIP3    H110341   0.869   6.280   3.928
 3466TIP3    H210342   0.810   6.180   3.831
 3467TIP3   OH210343   1.002   2.914   2.662
 3467TIP3    H110344   1.071   2.977   2.641
 3467TIP3    H210345   0.927   2.942   2.609
 3468TIP3   OH210346   5.061   3.863   2.751
 3468TIP3    H110347   5.016   3.936   2.795
 3468TIP3    H210348   5.061   3.887   2.658
 3469TIP3   OH210349   6.936   2.071   2.535
 3469TIP3    H110350   7.004   2.123   2.492
 3469TIP3    H210351   6.971   2.054   2.622
 3470TIP3   OH210352   1.636   1.104   2.062
 3470TIP3    H110353   1.676   1.088   1.976
 3470TIP3    H210354   1.709   1.129   2.118
 3471TIP3   OH210355   7.200   6.618   5.371
 3471TIP3    H110356   7.212   6.706   5.334
 3471TIP3    H210357   7.139   6.631   5.443
 3472TIP3   OH210358   7.598   1.144   4.898
 3472TIP3    H110359   7.563   1.070   4.849
 3472TIP3    H210360   7.682   1.163   4.856
 3473TIP3   OH210361   3.054   1.209   3.887
 3473TIP3    H110362   3.001   1.257   3.951
 3473TIP3    H210363   3.072   1.125   3.929
 3474TIP3   OH210364   1.850   1.036   0.894
 3474TIP3    H110365   1.861   1.104   0.960
 3474TIP3    H210366   1.897   1.070   0.817
 3475TIP3   OH210367   4.116   5.863   6.308
 3475TIP3    H110368   4.207   5.846   6.282
 3475TIP3    H210369   4.107   5.958   6.300
 3476TIP3   OH210370   4.595   7.637   0.502
 3476TIP3    H110371   4.536   7.661   0.573
 3476TIP3    H210372   4.563   7.686   0.426
 3477TIP3   OH210373   1.682   3.473   1.085
 3477TIP3    H110374   1.707   3.519   1.165
 3477TIP3    H210375   1.629   3.399   1.116
 3478TIP3   OH210376   6.348   0.864   5.804
 3478TIP3    H110377   6.303   0.780   5.813
 3478TIP3    H210378   6.432   0.851   5.848
 3479TIP3   OH210379   4.692   5.182   6.566
 3479TIP3    H110380   4.754   5.139   6.624
 3479TIP3    H210381   4.717   5.154   6.478
 3480TIP3   OH210382   3.533   0.894   4.049
 3480TIP3    H110383   3.545   0.799   4.046
 3480TIP3    H210384   3.616   0.927   4.083
 3481TIP3   OH210385   5.981   6.214   3.745
 3481TIP3    H110386   5.937   6.252   3.821
 3481TIP3    H210387   5.910   6.174   3.694
 3482TIP3   OH210388   1.714   5.258   6.523
 3482TIP3    H110389   1.756   5.344   6.516
 3482TIP3    H210390   1.763   5.213   6.592
 3483TIP3   OH210391   4.195   3.850   5.000
 3483TIP3    H110392   4.121   3.823   5.054
 3483TIP3    H210393   4.165   3.928   4.954
 3484TIP3   OH210394   5.002   6.643   1.380
 3484TIP3    H110395   4.930   6.697   1.412
 3484TIP3    H210396   5.000   6.564   1.434
 3485TIP3   OH210397   3.457   7.712   3.929
 3485TIP3    H110398   3.540   7.683   3.966
 3485TIP3    H210399   3.469   7.706   3.834
 3486TIP3   OH210400   5.078   7.165   4.869
 3486TIP3    H110401   5.062   7.102   4.799
 3486TIP3    H210402   5.009   7.230   4.859
 3487TIP3   OH210403   7.638   3.546   4.430
 3487TIP3    H110404   7.707   3.613   4.434
 3487TIP3    H210405   7.578   3.578   4.363
 3488TIP3   OH210406   7.899   5.037   5.748
 3488TIP3    H110407   7.960   5.002   5.813
 3488TIP3    H210408   7.926   4.995   5.665
 3489TIP3   OH210409   3.425   0.711   2.759
 3489TIP3    H110410   3.507   0.734   2.803
 3489TIP3    H210411   3.429   0.616   2.750
 3490TIP3   OH210412   1.447   2.508   5.748
 3490TIP3    H110413   1.356   2.516   5.779
 3490TIP3    H210414   1.450   2.422   5.706
 3491TIP3   OH210415   2.321   2.985   4.616
 3491TIP3    H110416   2.370   3.022   4.689
 3491TIP3    H210417   2.250   2.936   4.656
 3492TIP3   OH210418   6.765   0.848   3.012
 3492TIP3    H110419   6.754   0.943   3.005
 3492TIP3    H210420   6.678   0.815   3.030
 3493TIP3   OH210421   4.922   5.004   0.992
 3493TIP3    H110422   4.898   4.911   0.991
 3493TIP3    H210423   4.966   5.016   1.076
 3494TIP3   OH210424   5.744   2.100   0.996
 3494TIP3    H110425   5.826   2.055   0.977
 3494TIP3    H210426   5.770   2.190   1.016
 3495TIP3   OH210427   1.250   0.524   3.972
 3495TIP3    H110428   1.271   0.603   4.022
 3495TIP3    H210429   1.202   0.469   4.033
 3496TIP3   OH210430   0.870   5.587   4.977
 3496TIP3    H110431   0.815   5.509   4.973
 3496TIP3    H210432   0.936   5.567   5.043
 3497TIP3   OH210433   0.602   7.328   3.363
 3497TIP3    H110434   0.606   7.238   3.394
 3497TIP3    H210435   0.631   7.323   3.271
 3498TIP3   OH210436   7.504   2.087   6.060
 3498TIP3    H110437   7.416   2.085   6.022
 3498TIP3    H210438   7.562   2.097   5.984
 3499TIP3   OH210439   2.118   5.692   3.471
 3499TIP3    H110440   2.031   5.673   3.437
 3499TIP3    H210441   2.165   5.609   3.468
 3500TIP3   OH210442   7.240   0.309   0.656
 3500TIP3    H110443   7.257   0.309   0.750
 3500TIP3    H210444   7.240   0.402   0.632
 3501TIP3   OH210445   3.903   6.980   3.693
 3501TIP3    H110446   3.988   6.944   3.717
 3501TIP3    H210447   3.867   7.015   3.774
 3502TIP3   OH210448   3.527   6.917   2.906
 3502TIP3    H110449   3.519   6.897   2.999
 3502TIP3    H210450   3.609   6.966   2.899
 3503TIP3   OH210451   0.148   1.269   2.876
 3503TIP3    H110452   0.152   1.181   2.913
 3503TIP3    H210453   0.125   1.256   2.784
 3504TIP3   OH210454   1.219   1.265   1.814
 3504TIP3    H110455   1.134   1.281   1.854
 3504TIP3    H210456   1.200   1.206   1.741
 3505TIP3   OH210457   5.599   6.557   5.153
 3505TIP3    H110458   5.598   6.577   5.247
 3505TIP3    H210459   5.629   6.466   5.149
 3506TIP3   OH210460   6.489   5.391   2.633
 3506TIP3    H110461   6.475   5.298   2.649
 3506TIP3    H210462   6.524   5.425   2.716
 3507TIP3   OH210463   1.975   7.118   0.885
 3507TIP3    H110464   2.034   7.152   0.818
 3507TIP3    H210465   2.022   7.129   0.968
 3508TIP3   OH210466   3.847   2.724   3.906
 3508TIP3    H110467   3.817   2.775   3.981
 3508TIP3    H210468   3.837   2.633   3.935
 3509TIP3   OH210469   2.562   6.819   2.954
 3509TIP3    H110470   2.485   6.762   2.957
 3509TIP3    H210471   2.532   6.899   2.912
 3510TIP3   OH210472   7.393   1.754   3.626
 3510TIP3    H110473   7.449   1.723   3.698
 3510TIP3    H210474   7.450   1.750   3.549
 3511TIP3   OH210475   1.246   1.737   1.664
 3511TIP3    H110476   1.271   1.713   1.754
 3511TIP3    H210477   1.208   1.657   1.628
 3512TIP3   OH210478   1.448   1.606   0.857
 3512TIP3    H110479   1.389   1.580   0.928
 3512TIP3    H210480   1.517   1.539   0.859
 3513TIP3   OH210481   1.900   1.739   0.031
 3513TIP3    H110482   1.878   1.645   0.036
 3513TIP3    H210483   1.815   1.782   0.022
 3514TIP3   OH210484   6.392   7.536   2.873
 3514TIP3    H110485   6.456   7.547   2.803
 3514TIP3    H210486   6.374   7.442   2.874
 3515TIP3   OH210487   6.184   4.994   0.550
 3515TIP3    H110488   6.104   5.039   0.578
 3515TIP3    H210489   6.223   5.053   0.485
 3516TIP3   OH210490   4.196   6.176   6.107
 3516TIP3    H110491   4.252   6.144   6.036
 3516TIP3    H210492   4.212   6.270   6.111
 3517TIP3   OH210493   5.924   5.260   3.302
 3517TIP3    H110494   5.873   5.272   3.222
 3517TIP3    H210495   5.895   5.176   3.337
 3518TIP3   OH210496   6.281   5.499   5.261
 3518TIP3    H110497   6.356   5.534   5.309
 3518TIP3    H210498   6.290   5.404   5.268
 3519TIP3   OH210499   4.045   3.890   5.955
 3519TIP3    H110500   3.957   3.862   5.979
 3519TIP3    H210501   4.099   3.863   6.030
 3520TIP3   OH210502   5.336   2.347   0.681
 3520TIP3    H110503   5.278   2.423   0.682
 3520TIP3    H210504   5.386   2.356   0.600
 3521TIP3   OH210505   2.028   2.487   2.807
 3521TIP3    H110506   1.956   2.435   2.844
 3521TIP3    H210507   2.077   2.425   2.754
 3522TIP3   OH210508   4.780   4.075   1.868
 3522TIP3    H110509   4.713   4.031   1.815
 3522TIP3    H210510   4.785   4.163   1.831
 3523TIP3   OH210511   5.153   1.484   2.317
 3523TIP3    H110512   5.096   1.555   2.287
 3523TIP3    H210513   5.098   1.435   2.378
 3524TIP3   OH210514   5.960   1.133   2.402
 3524TIP3    H110515   5.899   1.071   2.441
 3524TIP3    H210516   5.955   1.210   2.458
 3525TIP3   OH210517   7.717   0.783   5.449
 3525TIP3    H110518   7.800   0.770   5.495
 3525TIP3    H210519   7.666   0.704   5.468
 3526TIP3   OH210520   4.323   7.598   2.855
 3526TIP3    H110521   4.259   7.550   2.802
 3526TIP3    H210522   4.384   7.635   2.791
 3527TIP3   OH210523   1.376   7.178   3.204
 3527TIP3    H110524   1.467   7.152   3.218
 3527TIP3    H210525   1.372   7.203   3.112
 3528TIP3   OH210526   1.228   3.020   1.891
 3528TIP3    H110527   1.319   2.997   1.869
 3528TIP3    H210528   1.178   2.942   1.868
 3529TIP3   OH210529   2.394   1.564   5.835
 3529TIP3    H110530   2.431   1.577   5.747
 3529TIP3    H210531   2.336   1.488   5.825
 3530TIP3   OH210532   2.487   1.371   1.980
 3530TIP3    H110533   2.480   1.276   1.993
 3530TIP3    H210534   2.423   1.392   1.913
 3531TIP3   OH210535   0.094   5.819   1.369
 3531TIP3    H110536   0.181   5.824   1.329
 3531TIP3    H210537   0.111   5.782   1.456
 3532TIP3   OH210538   6.867   0.847   4.923
 3532TIP3    H110539   6.814   0.873   4.847
 3532TIP3    H210540   6.872   0.926   4.976
 3533TIP3   OH210541   3.638   5.578   2.177
 3533TIP3    H110542   3.699   5.591   2.105
 3533TIP3    H210543   3.564   5.636   2.156
 3534TIP3   OH210544   1.547   4.260   0.126
 3534TIP3    H110545   1.455   4.277   0.145
 3534TIP3    H210546   1.591   4.344   0.141
 3535TIP3   OH210547   1.421   1.715   2.442
 3535TIP3    H110548   1.365   1.781   2.401
 3535TIP3    H210549   1.369   1.635   2.441
 3536TIP3   OH210550   2.400   1.243   0.501
 3536TIP3    H110551   2.334   1.280   0.442
 3536TIP3    H210552   2.481   1.287   0.476
 3537TIP3   OH210553   0.406   5.725   2.222
 3537TIP3    H110554   0.346   5.764   2.285
 3537TIP3    H210555   0.403   5.784   2.147
 3538TIP3   OH210556   2.610   5.422   3.281
 3538TIP3    H110557   2.527   5.469   3.286
 3538TIP3    H210558   2.638   5.412   3.372
 3539TIP3   OH210559   6.880   7.376   2.207
 3539TIP3    H110560   6.869   7.297   2.260
 3539TIP3    H210561   6.841   7.354   2.123
 3540TIP3   OH210562   7.288   3.660   6.281
 3540TIP3    H110563   7.195   3.638   6.270
 3540TIP3    H210564   7.291   3.711   6.362
 3541TIP3   OH210565   3.744   2.498   6.562
 3541TIP3    H110566   3.776   2.420   6.516
 3541TIP3    H210567   3.694   2.546   6.496
 3542TIP3   OH210568   8.251   0.696   0.765
 3542TIP3    H110569   8.207   0.682   0.681
 3542TIP3    H210570   8.189   0.660   0.829
 3543TIP3   OH210571   7.367   1.537   3.278
 3543TIP3    H110572   7.400   1.605   3.338
 3543TIP3    H210573   7.438   1.474   3.273
 3544TIP3   OH210574   3.430   7.689   5.519
 3544TIP3    H110575   3.474   7.667   5.436
 3544TIP3    H210576   3.501   7.718   5.576
 3545TIP3   OH210577   1.951   0.842   3.584
 3545TIP3    H110578   1.961   0.936   3.571
 3545TIP3    H210579   2.040   0.807   3.577
 3546TIP3   OH210580   3.660   2.689   1.917
 3546TIP3    H110581   3.741   2.720   1.877
 3546TIP3    H210582   3.592   2.745   1.880
 3547TIP3   OH210583   4.349   6.561   6.416
 3547TIP3    H110584   4.272   6.543   6.360
 3547TIP3    H210585   4.361   6.655   6.410
 3548TIP3   OH210586   4.957   0.042   0.962
 3548TIP3    H110587   4.885   0.017   0.904
 3548TIP3    H210588   5.033  -0.004   0.926
 3549TIP3   OH210589   7.366   0.404   6.549
 3549TIP3    H110590   7.341   0.344   6.479
 3549TIP3    H210591   7.348   0.356   6.630
 3550TIP3   OH210592   6.288   7.518   5.312
 3550TIP3    H110593   6.306   7.424   5.316
 3550TIP3    H210594   6.268   7.542   5.402
 3551TIP3   OH210595   7.752   4.845   4.837
 3551TIP3    H110596   7.696   4.917   4.808
 3551TIP3    H210597   7.714   4.768   4.795
 3552TIP3   OH210598   5.573   2.869   5.800
 3552TIP3    H110599   5.538   2.947   5.844
 3552TIP3    H210600   5.527   2.796   5.841
 3553TIP3   OH210601   0.774   0.913   3.623
 3553TIP3    H110602   0.763   0.978   3.553
 3553TIP3    H210603   0.688   0.911   3.666
 3554TIP3   OH210604   0.199   1.782   1.189
 3554TIP3    H110605   0.180   1.871   1.217
 3554TIP3    H210606   0.281   1.760   1.234
 3555TIP3   OH210607   0.110   6.445   1.765
 3555TIP3    H110608   0.179   6.383   1.791
 3555TIP3    H210609   0.067   6.468   1.847
 3556TIP3   OH210610   1.336   4.374   6.443
 3556TIP3    H110611   1.324   4.458   6.398
 3556TIP3    H210612   1.252   4.359   6.486
 3557TIP3   OH210613   0.616   0.743   6.348
 3557TIP3    H110614   0.567   0.775   6.272
 3557TIP3    H210615   0.687   0.692   6.310
 3558TIP3   OH210616   4.102   0.220   5.461
 3558TIP3    H110617   4.007   0.211   5.457
 3558TIP3    H210618   4.133   0.132   5.481
 3559TIP3   OH210619   1.335   5.405   0.991
 3559TIP3    H110620   1.426   5.430   1.005
 3559TIP3    H210621   1.330   5.386   0.897
 3560TIP3   OH210622   5.337   5.751   1.969
 3560TIP3    H110623   5.313   5.695   2.043
 3560TIP3    H210624   5.418   5.793   1.997
 3561TIP3   OH210625   1.431   7.001   6.173
 3561TIP3    H110626   1.437   7.083   6.220
 3561TIP3    H210627   1.451   6.934   6.239
 3562TIP3   OH210628   3.499   0.926   6.408
 3562TIP3    H110629   3.557   0.887   6.343
 3562TIP3    H210630   3.543   1.006   6.436
 3563TIP3   OH210631   0.810   4.271   4.476
 3563TIP3    H110632   0.878   4.250   4.411
 3563TIP3    H210633   0.728   4.246   4.434
 3564TIP3   OH210634   4.826   6.164   6.064
 3564TIP3    H110635   4.780   6.100   6.010
 3564TIP3    H210636   4.832   6.122   6.150
 3565TIP3   OH210637   6.573   1.205   1.859
 3565TIP3    H110638   6.568   1.127   1.803
 3565TIP3    H210639   6.648   1.254   1.825
 3566TIP3   OH210640   1.446   3.642   5.936
 3566TIP3    H110641   1.496   3.589   5.874
 3566TIP3    H210642   1.455   3.732   5.903
 3567TIP3   OH210643   3.529   4.695   2.526
 3567TIP3    H110644   3.593   4.627   2.507
 3567TIP3    H210645   3.577   4.777   2.515
 3568TIP3   OH210646   4.543   4.506   2.725
 3568TIP3    H110647   4.471   4.562   2.697
 3568TIP3    H210648   4.522   4.420   2.688
 3569TIP3   OH210649   6.906   0.174   3.696
 3569TIP3    H110650   6.866   0.121   3.627
 3569TIP3    H210651   6.874   0.135   3.777
 3570TIP3   OH210652   7.511   1.984   0.208
 3570TIP3    H110653   7.559   1.963   0.288
 3570TIP3    H210654   7.449   1.912   0.198
 3571TIP3   OH210655   0.037   5.290   6.124
 3571TIP3    H110656  -0.015   5.217   6.091
 3571TIP3    H210657   0.119   5.251   6.152
 3572TIP3   OH210658   6.192   2.830   5.310
 3572TIP3    H110659   6.288   2.833   5.319
 3572TIP3    H210660   6.178   2.822   5.216
 3573TIP3   OH210661   1.803   6.613   3.609
 3573TIP3    H110662   1.731   6.586   3.666
 3573TIP3    H210663   1.761   6.664   3.540
 3574TIP3   OH210664   2.851   2.921   5.375
 3574TIP3    H110665   2.886   2.891   5.291
 3574TIP3    H210666   2.782   2.858   5.396
 3575TIP3   OH210667   5.809   0.061   0.831
 3575TIP3    H110668   5.858   0.107   0.762
 3575TIP3    H210669   5.875   0.011   0.878
 3576TIP3   OH210670   5.083   5.286   6.023
 3576TIP3    H110671   5.084   5.190   6.027
 3576TIP3    H210672   4.990   5.308   6.018
 3577TIP3   OH210673   1.412   6.156   2.308
 3577TIP3    H110674   1.370   6.097   2.245
 3577TIP3    H210675   1.353   6.232   2.312
 3578TIP3   OH210676   0.717   4.627   3.129
 3578TIP3    H110677   0.779   4.672   3.071
 3578TIP3    H210678   0.754   4.540   3.141
 3579TIP3   OH210679   1.881   2.546   5.422
 3579TIP3    H110680   1.918   2.571   5.507
 3579TIP3    H210681   1.945   2.486   5.384
 3580TIP3   OH210682   4.428   1.500   1.889
 3580TIP3    H110683   4.520   1.506   1.862
 3580TIP3    H210684   4.383   1.464   1.813
 3581TIP3   OH210685   3.828   1.406   2.369
 3581TIP3    H110686   3.760   1.471   2.353
 3581TIP3    H210687   3.781   1.326   2.391
 3582TIP3   OH210688   5.222   1.969   1.671
 3582TIP3    H110689   5.171   1.954   1.751
 3582TIP3    H210690   5.187   2.051   1.636
 3583TIP3   OH210691   2.235   6.776   2.408
 3583TIP3    H110692   2.211   6.720   2.335
 3583TIP3    H210693   2.300   6.837   2.372
 3584TIP3   OH210694   1.154   6.151   5.360
 3584TIP3    H110695   1.165   6.064   5.397
 3584TIP3    H210696   1.177   6.211   5.432
 3585TIP3   OH210697   1.041   1.206   4.484
 3585TIP3    H110698   0.981   1.138   4.455
 3585TIP3    H210699   1.123   1.160   4.503
 3586TIP3   OH210700   4.153   1.993   0.411
 3586TIP3    H110701   4.142   1.937   0.334
 3586TIP3    H210702   4.209   2.065   0.381
 3587TIP3   OH210703   0.218  -0.003   0.165
 3587TIP3    H110704   0.214   0.028   0.255
 3587TIP3    H210705   0.128  -0.030   0.145
 3588TIP3   OH210706   5.413   5.573   2.831
 3588TIP3    H110707   5.380   5.509   2.767
 3588TIP3    H210708   5.397   5.658   2.789
 3589TIP3   OH210709   1.666   2.465   5.015
 3589TIP3    H110710   1.638   2.374   5.013
 3589TIP3    H210711   1.762   2.461   5.014
 3590TIP3   OH210712   4.663   6.514   0.948
 3590TIP3    H110713   4.695   6.463   1.022
 3590TIP3    H210714   4.633   6.447   0.885
 3591TIP3   OH210715   0.480   7.100   1.275
 3591TIP3    H110716   0.492   7.007   1.295
 3591TIP3    H210717   0.488   7.105   1.180
 3592TIP3   OH210718   1.547   0.433   2.958
 3592TIP3    H110719   1.464   0.448   3.005
 3592TIP3    H210720   1.585   0.357   3.002
 3593TIP3   OH210721   6.556   3.336   1.887
 3593TIP3    H110722   6.560   3.285   1.806
 3593TIP3    H210723   6.545   3.427   1.857
 3594TIP3   OH210724   6.348   5.243   5.193
 3594TIP3    H110725   6.381   5.161   5.230
 3594TIP3    H210726   6.403   5.258   5.116
 3595TIP3   OH210727   2.732   7.502  -0.008
 3595TIP3    H110728   2.676   7.466   0.061
 3595TIP3    H210729   2.721   7.597   0.000
 3596TIP3   OH210730   3.923   3.692   4.296
 3596TIP3    H110731   3.886   3.663   4.212
 3596TIP3    H210732   3.987   3.759   4.272
 3597TIP3   OH210733   2.158   3.813   3.969
 3597TIP3    H110734   2.118   3.891   3.931
 3597TIP3    H210735   2.239   3.801   3.919
 3598TIP3   OH210736   3.488   7.656   0.696
 3598TIP3    H110737   3.463   7.564   0.693
 3598TIP3    H210738   3.416   7.702   0.651
 3599TIP3   OH210739   5.553   4.958   4.301
 3599TIP3    H110740   5.620   5.012   4.344
 3599TIP3    H210741   5.533   4.890   4.365
 3600TIP3   OH210742   4.823   5.660   1.961
 3600TIP3    H110743   4.905   5.672   1.913
 3600TIP3    H210744   4.823   5.731   2.026
 3601TIP3   OH210745   0.283   0.768   1.633
 3601TIP3    H110746   0.349   0.833   1.655
 3601TIP3    H210747   0.201   0.816   1.634
 3602TIP3   OH210748   8.345   3.534   4.207
 3602TIP3    H110749   8.356   3.500   4.296
 3602TIP3    H210750   8.276   3.480   4.169
 3603TIP3   OH210751   7.867   4.423   0.432
 3603TIP3    H110752   7.925   4.453   0.362
 3603TIP3    H210753   7.923   4.371   0.489
 3604TIP3   OH210754   0.909   2.142   5.535
 3604TIP3    H110755   0.835   2.200   5.516
 3604TIP3    H210756   0.984   2.201   5.545
 3605TIP3   OH210757   2.740   1.225   6.206
 3605TIP3    H110758   2.671   1.246   6.269
 3605TIP3    H210759   2.820   1.222   6.258
 3606TIP3   OH210760   1.401   0.635   2.335
 3606TIP3    H110761   1.405   0.551   2.381
 3606TIP3    H210762   1.357   0.615   2.252
 3607TIP3   OH210763   3.520   4.342   0.626
 3607TIP3    H110764   3.481   4.404   0.564
 3607TIP3    H210765   3.478   4.259   0.607
 3608TIP3   OH210766   6.446   7.027   4.574
 3608TIP3    H110767   6.355   7.004   4.593
 3608TIP3    H210768   6.467   7.096   4.637
 3609TIP3   OH210769   1.389   0.542   3.421
 3609TIP3    H110770   1.453   0.586   3.477
 3609TIP3    H210771   1.352   0.612   3.368
 3610TIP3   OH210772   2.183   2.595   4.601
 3610TIP3    H110773   2.093   2.563   4.597
 3610TIP3    H210774   2.234   2.520   4.630
 3611TIP3   OH210775   4.348   1.128   6.738
 3611TIP3    H110776   4.286   1.181   6.788
 3611TIP3    H210777   4.381   1.188   6.670
 3612TIP3   OH210778   7.907   1.273   0.097
 3612TIP3    H110779   7.961   1.234   0.028
 3612TIP3    H210780   7.944   1.360   0.111
 3613TIP3   OH210781   0.448   2.486   4.524
 3613TIP3    H110782   0.392   2.548   4.570
 3613TIP3    H210783   0.431   2.402   4.566
 3614TIP3   OH210784   7.578   0.125   2.043
 3614TIP3    H110785   7.603   0.203   2.094
 3614TIP3    H210786   7.504   0.155   1.990
 3615TIP3   OH210787   3.837   3.044   5.485
 3615TIP3    H110788   3.775   3.116   5.475
 3615TIP3    H210789   3.905   3.061   5.420
 3616TIP3   OH210790   1.531   5.113   4.745
 3616TIP3    H110791   1.455   5.104   4.803
 3616TIP3    H210792   1.498   5.163   4.670
 3617TIP3   OH210793   3.596   2.364   2.987
 3617TIP3    H110794   3.584   2.441   3.042
 3617TIP3    H210795   3.571   2.291   3.042
 3618TIP3   OH210796   7.292   2.773   4.266
 3618TIP3    H110797   7.305   2.859   4.225
 3618TIP3    H210798   7.368   2.722   4.238
 3619TIP3   OH210799   4.409   7.472   0.828
 3619TIP3    H110800   4.501   7.497   0.826
 3619TIP3    H210801   4.364   7.540   0.778
 3620TIP3   OH210802   6.718   6.219   1.148
 3620TIP3    H110803   6.623   6.221   1.140
 3620TIP3    H210804   6.740   6.299   1.195
 3621TIP3   OH210805   4.890   2.986   4.345
 3621TIP3    H110806   4.803   3.014   4.373
 3621TIP3    H210807   4.941   2.981   4.426
 3622TIP3   OH210808   0.429   6.001   3.463
 3622TIP3    H110809   0.518   6.031   3.480
 3622TIP3    H210810   0.387   6.072   3.415
 3623TIP3   OH210811   2.019   4.998   2.623
 3623TIP3    H110812   2.035   5.065   2.556
 3623TIP3    H210813   1.976   5.046   2.694
 3624TIP3   OH210814   4.345   6.160   3.926
 3624TIP3    H110815   4.428   6.142   3.881
 3624TIP3    H210816   4.367   6.157   4.019
 3625TIP3   OH210817   6.409   7.402   4.458
 3625TIP3    H110818   6.354   7.349   4.399
 3625TIP3    H210819   6.405   7.355   4.542
 3626TIP3   OH210820   2.774   1.228   1.595
 3626TIP3    H110821   2.775   1.162   1.526
 3626TIP3    H210822   2.865   1.234   1.624
 3627TIP3   OH210823   5.548   3.240   2.104
 3627TIP3    H110824   5.526   3.276   2.190
 3627TIP3    H210825   5.547   3.145   2.117
 3628TIP3   OH210826   2.308   1.295   0.867
 3628TIP3    H110827   2.231   1.342   0.835
 3628TIP3    H210828   2.383   1.346   0.835
 3629TIP3   OH210829   5.587   3.704   1.101
 3629TIP3    H110830   5.632   3.630   1.142
 3629TIP3    H210831   5.495   3.693   1.127
 3630TIP3   OH210832   3.419   5.656   5.642
 3630TIP3    H110833   3.394   5.602   5.567
 3630TIP3    H210834   3.422   5.596   5.716
 3631TIP3   OH210835   0.556   0.784   0.776
 3631TIP3    H110836   0.534   0.815   0.688
 3631TIP3    H210837   0.650   0.800   0.783
 3632TIP3   OH210838   0.818   0.497   1.948
 3632TIP3    H110839   0.730   0.530   1.962
 3632TIP3    H210840   0.811   0.441   1.871
 3633TIP3   OH210841   0.816   6.945   0.180
 3633TIP3    H110842   0.845   6.854   0.171
 3633TIP3    H210843   0.890   6.997   0.147
 3634TIP3   OH210844   8.122   3.148   2.408
 3634TIP3    H110845   8.121   3.231   2.359
 3634TIP3    H210846   8.146   3.082   2.344
 3635TIP3   OH210847   3.990   6.645   1.772
 3635TIP3    H110848   4.022   6.724   1.727
 3635TIP3    H210849   3.905   6.671   1.808
 3636TIP3   OH210850   3.572   2.867   2.131
 3636TIP3    H110851   3.618   2.806   2.073
 3636TIP3    H210852   3.548   2.940   2.074
 3637TIP3   OH210853   6.797   1.964   0.285
 3637TIP3    H110854   6.810   1.999   0.373
 3637TIP3    H210855   6.702   1.954   0.278
 3638TIP3   OH210856   5.619   2.417   5.071
 3638TIP3    H110857   5.591   2.326   5.082
 3638TIP3    H210858   5.593   2.440   4.982
 3639TIP3   OH210859   5.263   2.351   2.185
 3639TIP3    H110860   5.329   2.292   2.222
 3639TIP3    H210861   5.313   2.412   2.132
 3640TIP3   OH210862   7.525   2.833   0.676
 3640TIP3    H110863   7.519   2.738   0.666
 3640TIP3    H210864   7.443   2.857   0.721
 3641TIP3   OH210865   1.594   4.606   1.809
 3641TIP3    H110866   1.572   4.592   1.716
 3641TIP3    H210867   1.516   4.650   1.845
 3642TIP3   OH210868   7.034   2.373   3.198
 3642TIP3    H110869   7.040   2.465   3.171
 3642TIP3    H210870   7.101   2.364   3.267
 3643TIP3   OH210871   2.953   6.071   3.083
 3643TIP3    H110872   2.907   5.988   3.099
 3643TIP3    H210873   2.915   6.104   3.002
 3644TIP3   OH210874   5.299   0.637   1.587
 3644TIP3    H110875   5.218   0.634   1.535
 3644TIP3    H210876   5.342   0.718   1.559
 3645TIP3   OH210877   0.046   5.929   3.734
 3645TIP3    H110878   0.096   5.988   3.677
 3645TIP3    H210879   0.083   5.842   3.717
 3646TIP3   OH210880   8.292   4.068   5.632
 3646TIP3    H110881   8.214   4.050   5.685
 3646TIP3    H210882   8.265   4.048   5.543
 3647TIP3   OH210883   0.148   4.070   5.894
 3647TIP3    H110884   0.072   4.050   5.839
 3647TIP3    H210885   0.127   4.154   5.934
 3648TIP3   OH210886   0.708   2.393   4.570
 3648TIP3    H110887   0.625   2.439   4.560
 3648TIP3    H210888   0.774   2.462   4.568
 3649TIP3   OH210889   7.329   5.060   1.039
 3649TIP3    H110890   7.279   5.108   0.972
 3649TIP3    H210891   7.291   4.972   1.039
 3650TIP3   OH210892   4.886   7.261   2.845
 3650TIP3    H110893   4.937   7.186   2.876
 3650TIP3    H210894   4.823   7.223   2.783
 3651TIP3   OH210895   6.709   2.183   5.084
 3651TIP3    H110896   6.669   2.096   5.081
 3651TIP3    H210897   6.790   2.171   5.132
 3652TIP3   OH210898   3.105   3.317   0.874
 3652TIP3    H110899   3.125   3.354   0.960
 3652TIP3    H210900   3.144   3.230   0.876
 3653TIP3   OH210901   4.524   1.733   6.450
 3653TIP3    H110902   4.444   1.736   6.398
 3653TIP3    H210903   4.515   1.807   6.511
 3654TIP3   OH210904   6.009   7.313   4.269
 3654TIP3    H110905   5.941   7.376   4.291
 3654TIP3    H210906   5.987   7.285   4.180
 3655TIP3   OH210907   1.388   1.560   0.215
 3655TIP3    H110908   1.320   1.543   0.150
 3655TIP3    H210909   1.393   1.480   0.267
 3656TIP3   OH210910   4.519   0.218   0.060
 3656TIP3    H110911   4.612   0.239   0.053
 3656TIP3    H210912   4.493   0.252   0.146
 3657TIP3   OH210913   5.163   5.453   2.532
 3657TIP3    H110914   5.215   5.533   2.537
 3657TIP3    H210915   5.220   5.391   2.486
 3658TIP3   OH210916   2.602   2.216   4.033
 3658TIP3    H110917   2.595   2.228   3.938
 3658TIP3    H210918   2.598   2.304   4.069
 3659TIP3   OH210919   5.666   5.039   4.568
 3659TIP3    H110920   5.639   4.959   4.612
 3659TIP3    H210921   5.603   5.105   4.597
 3660TIP3   OH210922   6.835   2.572   4.450
 3660TIP3    H110923   6.790   2.488   4.458
 3660TIP3    H210924   6.912   2.552   4.397
 3661TIP3   OH210925   7.002   6.516   1.155
 3661TIP3    H110926   7.021   6.466   1.076
 3661TIP3    H210927   6.910   6.497   1.175
 3662TIP3   OH210928   1.979   6.477   1.815
 3662TIP3    H110929   1.884   6.478   1.817
 3662TIP3    H210930   2.005   6.452   1.903
 3663TIP3   OH210931   7.616   5.160   2.687
 3663TIP3    H110932   7.686   5.095   2.683
 3663TIP3    H210933   7.539   5.111   2.713
 3664TIP3   OH210934   0.205   5.416   1.141
 3664TIP3    H110935   0.219   5.325   1.168
 3664TIP3    H210936   0.112   5.431   1.155
 3665TIP3   OH210937   4.577   5.987   1.299
 3665TIP3    H110938   4.628   5.989   1.380
 3665TIP3    H210939   4.505   5.926   1.318
 3666TIP3   OH210940   2.548   5.774   3.298
 3666TIP3    H110941   2.508   5.762   3.212
 3666TIP3    H210942   2.531   5.866   3.319
 3667TIP3   OH210943   0.083   4.662   2.121
 3667TIP3    H110944   0.137   4.715   2.061
 3667TIP3    H210945   0.145   4.598   2.157
 3668TIP3   OH210946   6.853   4.744   2.469
 3668TIP3    H110947   6.880   4.757   2.378
 3668TIP3    H210948   6.795   4.818   2.487
 3669TIP3   OH210949   2.273   3.907   2.883
 3669TIP3    H110950   2.361   3.939   2.865
 3669TIP3    H210951   2.219   3.947   2.814
 3670TIP3   OH210952   1.834   7.431   6.328
 3670TIP3    H110953   1.752   7.402   6.368
 3670TIP3    H210954   1.902   7.383   6.374
 3671TIP3   OH210955   7.146   3.554   5.124
 3671TIP3    H110956   7.136   3.467   5.162
 3671TIP3    H210957   7.076   3.605   5.164
 3672TIP3   OH210958   6.629   0.709   5.235
 3672TIP3    H110959   6.606   0.802   5.228
 3672TIP3    H210960   6.711   0.701   5.187
 3673TIP3   OH210961   4.532   5.107   4.896
 3673TIP3    H110962   4.515   5.052   4.819
 3673TIP3    H210963   4.628   5.109   4.903
 3674TIP3   OH210964   0.036   6.516   0.422
 3674TIP3    H110965   0.056   6.553   0.508
 3674TIP3    H210966  -0.059   6.526   0.414
 3675TIP3   OH210967   5.109   4.055   5.218
 3675TIP3    H110968   5.204   4.057   5.205
 3675TIP3    H210969   5.085   4.146   5.236
 3676TIP3   OH210970   5.084   1.517   4.348
 3676TIP3    H110971   5.136   1.454   4.298
 3676TIP3    H210972   5.106   1.500   4.439
 3677TIP3   OH210973   7.016   3.707   2.225
 3677TIP3    H110974   7.052   3.643   2.164
 3677TIP3    H210975   7.012   3.788   2.176
 3678TIP3   OH210976   1.838   7.189   1.677
 3678TIP3    H110977   1.880   7.275   1.683
 3678TIP3    H210978   1.901   7.129   1.717
 3679TIP3   OH210979   3.954   6.721   5.976
 3679TIP3    H110980   4.029   6.734   6.034
 3679TIP3    H210981   3.922   6.633   5.997
 3680TIP3   OH210982   2.221   6.210   5.547
 3680TIP3    H110983   2.165   6.204   5.470
 3680TIP3    H210984   2.252   6.120   5.561
 3681TIP3   OH210985   6.249   1.691   3.004
 3681TIP3    H110986   6.250   1.636   2.926
 3681TIP3    H210987   6.312   1.761   2.985
 3682TIP3   OH210988   0.175   7.738   0.500
 3682TIP3    H110989   0.261   7.780   0.494
 3682TIP3    H210990   0.168   7.686   0.420
 3683TIP3   OH210991   5.726   0.787   3.843
 3683TIP3    H110992   5.664   0.723   3.878
 3683TIP3    H210993   5.710   0.787   3.748
 3684TIP3   OH210994   1.618   6.900   3.171
 3684TIP3    H110995   1.644   6.991   3.157
 3684TIP3    H210996   1.622   6.860   3.084
 3685TIP3   OH210997   5.738   2.200   2.207
 3685TIP3    H110998   5.675   2.241   2.268
 3685TIP3    H210999   5.782   2.133   2.260
 3686TIP3   OH211000   4.200   3.828   1.056
 3686TIP3    H111001   4.247   3.746   1.044
 3686TIP3    H211002   4.259   3.895   1.022
 3687TIP3   OH211003   4.858   5.228   1.737
 3687TIP3    H111004   4.801   5.302   1.755
 3687TIP3    H211005   4.922   5.229   1.808
 3688TIP3   OH211006   2.735   4.377   6.313
 3688TIP3    H111007   2.793   4.412   6.380
 3688TIP3    H211008   2.648   4.404   6.340
 3689TIP3   OH211009   7.981   6.590   3.037
 3689TIP3    H111010   7.935   6.656   2.986
 3689TIP3    H211011   8.068   6.584   2.996
 3690TIP3   OH211012   1.302   4.584   1.254
 3690TIP3    H111013   1.232   4.585   1.319
 3690TIP3    H211014   1.300   4.671   1.215
 3691TIP3   OH211015   5.219   2.594   1.622
 3691TIP3    H111016   5.131   2.592   1.660
 3691TIP3    H211017   5.268   2.529   1.672
 3692TIP3   OH211018   1.447   1.895   1.596
 3692TIP3    H111019   1.388   1.823   1.618
 3692TIP3    H211020   1.474   1.931   1.681
 3693TIP3   OH211021   1.100   4.504   5.371
 3693TIP3    H111022   1.079   4.412   5.359
 3693TIP3    H211023   1.084   4.543   5.285
 3694TIP3   OH211024   0.554   1.679   6.692
 3694TIP3    H111025   0.577   1.766   6.661
 3694TIP3    H211026   0.547   1.689   6.787
 3695TIP3   OH211027   0.894   5.307   2.410
 3695TIP3    H111028   0.938   5.256   2.342
 3695TIP3    H211029   0.802   5.304   2.387
 3696TIP3   OH211030   1.792   6.711   1.688
 3696TIP3    H111031   1.804   6.616   1.681
 3696TIP3    H211032   1.752   6.736   1.604
 3697TIP3   OH211033   4.485   4.088   6.381
 3697TIP3    H111034   4.499   4.170   6.334
 3697TIP3    H211035   4.496   4.020   6.315
 3698TIP3   OH211036   4.513   4.029   1.205
 3698TIP3    H111037   4.593   4.028   1.152
 3698TIP3    H211038   4.515   4.115   1.249
 3699TIP3   OH211039   3.550   2.872   1.101
 3699TIP3    H111040   3.640   2.843   1.086
 3699TIP3    H211041   3.538   2.945   1.040
 3700TIP3   OH211042   5.907   6.546   1.293
 3700TIP3    H111043   5.825   6.517   1.334
 3700TIP3    H211044   5.964   6.470   1.298
 3701TIP3   OH211045   4.346   1.539   6.583
 3701TIP3    H111046   4.330   1.446   6.570
 3701TIP3    H211047   4.394   1.567   6.505
 3702TIP3   OH211048   1.003   5.549   3.098
 3702TIP3    H111049   0.934   5.541   3.164
 3702TIP3    H211050   1.067   5.608   3.137
 3703TIP3   OH211051   6.824   3.957   2.595
 3703TIP3    H111052   6.863   3.870   2.592
 3703TIP3    H211053   6.737   3.947   2.555
 3704TIP3   OH211054   0.870   7.021   6.016
 3704TIP3    H111055   0.912   7.099   5.981
 3704TIP3    H211056   0.862   7.038   6.110
 3705TIP3   OH211057   5.367   4.689   1.252
 3705TIP3    H111058   5.354   4.750   1.325
 3705TIP3    H211059   5.299   4.712   1.189
 3706TIP3   OH211060   7.703   2.697   5.701
 3706TIP3    H111061   7.791   2.710   5.737
 3706TIP3    H211062   7.718   2.679   5.608
 3707TIP3   OH211063   3.526   6.266   0.033
 3707TIP3    H111064   3.550   6.347   0.079
 3707TIP3    H211065   3.563   6.196   0.087
 3708TIP3   OH211066   8.179   1.220   5.491
 3708TIP3    H111067   8.263   1.241   5.451
 3708TIP3    H211068   8.139   1.156   5.432
 3709TIP3   OH211069   3.106   2.997   5.466
 3709TIP3    H111070   3.030   2.966   5.417
 3709TIP3    H211071   3.102   3.093   5.459
 3710TIP3   OH211072   7.399   3.833   5.396
 3710TIP3    H111073   7.445   3.800   5.319
 3710TIP3    H211074   7.463   3.890   5.440
 3711TIP3   OH211075   1.279   2.525   6.421
 3711TIP3    H111076   1.327   2.607   6.411
 3711TIP3    H211077   1.346   2.458   6.428
 3712TIP3   OH211078   3.385   7.399   0.676
 3712TIP3    H111079   3.408   7.332   0.741
 3712TIP3    H211080   3.414   7.362   0.593
 3713TIP3   OH211081   1.022   2.955   2.942
 3713TIP3    H111082   0.979   2.951   2.856
 3713TIP3    H211083   1.114   2.936   2.923
 3714TIP3   OH211084   8.306   1.844   4.558
 3714TIP3    H111085   8.212   1.858   4.544
 3714TIP3    H211086   8.347   1.927   4.534
 3715TIP3   OH211087   7.381   2.679   2.998
 3715TIP3    H111088   7.318   2.619   2.958
 3715TIP3    H211089   7.340   2.766   2.989
 3716TIP3   OH211090   6.323   0.577   1.280
 3716TIP3    H111091   6.334   0.617   1.194
 3716TIP3    H211092   6.245   0.522   1.271
 3717TIP3   OH211093   1.828   4.413   4.505
 3717TIP3    H111094   1.873   4.495   4.523
 3717TIP3    H211095   1.771   4.432   4.430
 3718TIP3   OH211096   0.815   0.189   3.497
 3718TIP3    H111097   0.876   0.237   3.441
 3718TIP3    H211098   0.834   0.219   3.586
 3719TIP3   OH211099   3.940   7.091   6.574
 3719TIP3    H111100   3.980   7.173   6.602
 3719TIP3    H211101   3.872   7.116   6.512
 3720TIP3   OH211102   4.448   5.241   1.048
 3720TIP3    H111103   4.484   5.329   1.036
 3720TIP3    H211104   4.449   5.228   1.143
 3721TIP3   OH211105   2.641   7.070   5.860
 3721TIP3    H111106   2.628   7.021   5.778
 3721TIP3    H211107   2.649   7.161   5.831
 3722TIP3   OH211108   5.012   6.125   2.841
 3722TIP3    H111109   4.919   6.134   2.819
 3722TIP3    H211110   5.028   6.194   2.906
 3723TIP3   OH211111   1.921   3.190   0.256
 3723TIP3    H111112   1.985   3.124   0.231
 3723TIP3    H211113   1.839   3.161   0.215
 3724TIP3   OH211114   5.309   3.386   4.462
 3724TIP3    H111115   5.225   3.431   4.473
 3724TIP3    H211116   5.301   3.342   4.378
 3725TIP3   OH211117   0.495   1.487   6.070
 3725TIP3    H111118   0.585   1.510   6.049
 3725TIP3    H211119   0.446   1.509   5.991
 3726TIP3   OH211120   1.127   0.886   6.133
 3726TIP3    H111121   1.209   0.882   6.182
 3726TIP3    H211122   1.064   0.922   6.194
 3727TIP3   OH211123   3.790   5.830   5.322
 3727TIP3    H111124   3.699   5.860   5.330
 3727TIP3    H211125   3.821   5.869   5.241
 3728TIP3   OH211126   1.593   5.087   2.904
 3728TIP3    H111127   1.643   5.048   2.976
 3728TIP3    H211128   1.624   5.043   2.826
 3729TIP3   OH211129   5.865   2.603   4.911
 3729TIP3    H111130   5.840   2.680   4.860
 3729TIP3    H211131   5.790   2.544   4.902
 3730TIP3   OH211132   5.457   3.845   4.374
 3730TIP3    H111133   5.374   3.850   4.421
 3730TIP3    H211134   5.522   3.826   4.441
 3731TIP3   OH211135   0.220   5.056   0.980
 3731TIP3    H111136   0.152   5.121   0.965
 3731TIP3    H211137   0.173   4.978   1.009
 3732TIP3   OH211138   6.283   2.938   1.680
 3732TIP3    H111139   6.265   2.847   1.705
 3732TIP3    H211140   6.331   2.973   1.755
 3733TIP3   OH211141   3.341   1.652   3.366
 3733TIP3    H111142   3.299   1.705   3.434
 3733TIP3    H211143   3.358   1.713   3.294
 3734TIP3   OH211144   7.169   7.712   2.558
 3734TIP3    H111145   7.262   7.734   2.557
 3734TIP3    H211146   7.125   7.795   2.575
 3735TIP3   OH211147   4.912   0.568   6.181
 3735TIP3    H111148   4.949   0.631   6.242
 3735TIP3    H211149   4.821   0.597   6.168
 3736TIP3   OH211150   1.679   6.876   4.005
 3736TIP3    H111151   1.716   6.790   4.024
 3736TIP3    H211152   1.700   6.929   4.082
 3737TIP3   OH211153   7.525   6.669   3.007
 3737TIP3    H111154   7.550   6.696   2.918
 3737TIP3    H211155   7.536   6.574   3.007
 3738TIP3   OH211156   6.023   3.847   0.108
 3738TIP3    H111157   5.945   3.887   0.144
 3738TIP3    H211158   6.057   3.793   0.180
 3739TIP3   OH211159   8.005   0.767   0.296
 3739TIP3    H111160   8.084   0.818   0.314
 3739TIP3    H211161   7.960   0.815   0.227
 3740TIP3   OH211162   4.304   0.424   2.857
 3740TIP3    H111163   4.250   0.355   2.895
 3740TIP3    H211164   4.392   0.406   2.889
 3741TIP3   OH211165   2.312   0.513   6.437
 3741TIP3    H111166   2.238   0.568   6.412
 3741TIP3    H211167   2.273   0.432   6.467
 3742TIP3   OH211168   4.897   5.111   3.041
 3742TIP3    H111169   4.804   5.090   3.045
 3742TIP3    H211170   4.923   5.125   3.132
 3743TIP3   OH211171   3.157   6.974   4.221
 3743TIP3    H111172   3.188   6.995   4.133
 3743TIP3    H211173   3.171   7.054   4.271
 3744TIP3   OH211174   7.639   5.834   1.677
 3744TIP3    H111175   7.580   5.787   1.619
 3744TIP3    H211176   7.662   5.914   1.629
 3745TIP3   OH211177   5.196   0.850   0.834
 3745TIP3    H111178   5.137   0.889   0.770
 3745TIP3    H211179   5.170   0.758   0.838
 3746TIP3   OH211180   5.645   4.651   3.667
 3746TIP3    H111181   5.616   4.602   3.590
 3746TIP3    H211182   5.692   4.727   3.632
 3747TIP3   OH211183   2.732   6.521   0.832
 3747TIP3    H111184   2.658   6.508   0.891
 3747TIP3    H211185   2.797   6.456   0.859
 3748TIP3   OH211186   1.461   1.263   1.123
 3748TIP3    H111187   1.528   1.248   1.189
 3748TIP3    H211188   1.454   1.180   1.076
 3749TIP3   OH211189   0.189   3.469   1.457
 3749TIP3    H111190   0.272   3.449   1.413
 3749TIP3    H211191   0.157   3.547   1.412
 3750TIP3   OH211192   4.944   5.544   2.309
 3750TIP3    H111193   5.013   5.560   2.373
 3750TIP3    H211194   4.979   5.474   2.254
 3751TIP3   OH211195   5.084   2.008   0.219
 3751TIP3    H111196   5.144   2.042   0.285
 3751TIP3    H211197   5.062   1.920   0.250
 3752TIP3   OH211198   2.310   4.801   4.144
 3752TIP3    H111199   2.376   4.738   4.173
 3752TIP3    H211200   2.278   4.766   4.061
 3753TIP3   OH211201   5.490   7.717   5.535
 3753TIP3    H111202   5.487   7.809   5.559
 3753TIP3    H211203   5.427   7.709   5.463
 3754TIP3   OH211204   2.844   5.652   3.805
 3754TIP3    H111205   2.934   5.633   3.835
 3754TIP3    H211206   2.788   5.614   3.873
 3755TIP3   OH211207   0.313   0.237   0.686
 3755TIP3    H111208   0.386   0.258   0.744
 3755TIP3    H211209   0.257   0.315   0.690
 3756TIP3   OH211210   0.633   4.774   4.572
 3756TIP3    H111211   0.668   4.709   4.511
 3756TIP3    H211212   0.546   4.796   4.537
 3757TIP3   OH211213   2.337   2.696   3.323
 3757TIP3    H111214   2.389   2.754   3.267
 3757TIP3    H211215   2.401   2.659   3.384
 3758TIP3   OH211216   5.915   2.278   2.901
 3758TIP3    H111217   5.943   2.256   2.990
 3758TIP3    H211218   5.821   2.296   2.910
 3759TIP3   OH211219   4.073   7.102   3.490
 3759TIP3    H111220   4.011   7.054   3.436
 3759TIP3    H211221   4.020   7.170   3.532
 3760TIP3   OH211222   5.909   2.707   6.237
 3760TIP3    H111223   5.829   2.725   6.189
 3760TIP3    H211224   5.968   2.668   6.172
 3761TIP3   OH211225   5.940   5.793   5.450
 3761TIP3    H111226   5.979   5.745   5.376
 3761TIP3    H211227   6.004   5.861   5.471
 3762TIP3   OH211228   6.894   2.043   0.031
 3762TIP3    H111229   6.846   2.044   0.114
 3762TIP3    H211230   6.863   2.121  -0.015
 3763TIP3   OH211231   1.133   0.292   1.123
 3763TIP3    H111232   1.072   0.221   1.145
 3763TIP3    H211233   1.219   0.250   1.123
 3764TIP3   OH211234   6.763   6.152   1.589
 3764TIP3    H111235   6.852   6.134   1.559
 3764TIP3    H211236   6.723   6.066   1.601
 3765TIP3   OH211237   4.025   1.908   2.634
 3765TIP3    H111238   4.108   1.916   2.587
 3765TIP3    H211239   3.969   1.856   2.577
 3766TIP3   OH211240   2.511   2.646   6.647
 3766TIP3    H111241   2.426   2.670   6.686
 3766TIP3    H211242   2.531   2.718   6.588
 3767TIP3   OH211243   2.064   2.229   6.139
 3767TIP3    H111244   1.988   2.286   6.128
 3767TIP3    H211245   2.129   2.262   6.077
 3768TIP3   OH211246   4.881   1.410   2.932
 3768TIP3    H111247   4.964   1.449   2.959
 3768TIP3    H211248   4.815   1.472   2.962
 3769TIP3   OH211249   7.712   2.304   5.667
 3769TIP3    H111250   7.742   2.303   5.576
 3769TIP3    H211251   7.727   2.394   5.696
 3770TIP3   OH211252   8.015   6.553   6.723
 3770TIP3    H111253   7.957   6.605   6.779
 3770TIP3    H211254   7.956   6.504   6.666
 3771TIP3   OH211255   1.419   4.253   0.687
 3771TIP3    H111256   1.384   4.166   0.705
 3771TIP3    H211257   1.479   4.240   0.614
 3772TIP3   OH211258   6.403   6.739   0.044
 3772TIP3    H111259   6.326   6.682   0.042
 3772TIP3    H211260   6.477   6.680   0.030
 3773TIP3   OH211261   7.781   6.676   3.540
 3773TIP3    H111262   7.762   6.593   3.584
 3773TIP3    H211263   7.729   6.740   3.589
 3774TIP3   OH211264   7.541   7.547   3.839
 3774TIP3    H111265   7.586   7.464   3.820
 3774TIP3    H211266   7.590   7.612   3.790
 3775TIP3   OH211267   6.935   2.669   0.405
 3775TIP3    H111268   6.973   2.697   0.321
 3775TIP3    H211269   6.871   2.737   0.426
 3776TIP3   OH211270   1.219   4.096   1.748
 3776TIP3    H111271   1.132   4.135   1.762
 3776TIP3    H211272   1.277   4.151   1.800
 3777TIP3   OH211273   7.263   2.940   5.497
 3777TIP3    H111274   7.240   3.033   5.495
 3777TIP3    H211275   7.182   2.896   5.520
 3778TIP3   OH211276   3.773   7.671   0.569
 3778TIP3    H111277   3.861   7.635   0.582
 3778TIP3    H211278   3.716   7.595   0.562
 3779TIP3   OH211279   8.282   5.279   3.699
 3779TIP3    H111280   8.292   5.326   3.616
 3779TIP3    H211281   8.305   5.344   3.766
 3780TIP3   OH211282   2.361   0.796   0.004
 3780TIP3    H111283   2.447   0.756   0.015
 3780TIP3    H211284   2.372   0.886   0.035
 3781TIP3   OH211285   5.074   4.822   1.800
 3781TIP3    H111286   5.102   4.862   1.882
 3781TIP3    H211287   4.988   4.861   1.783
 3782TIP3   OH211288   2.064   7.325   6.446
 3782TIP3    H111289   2.141   7.316   6.503
 3782TIP3    H211290   2.100   7.348   6.361
 3783TIP3   OH211291   5.910   6.928   6.107
 3783TIP3    H111292   5.837   6.910   6.167
 3783TIP3    H211293   5.917   7.023   6.105
 3784TIP3   OH211294   3.953   1.571   4.220
 3784TIP3    H111295   3.997   1.628   4.283
 3784TIP3    H211296   4.016   1.559   4.150
 3785TIP3   OH211297   0.719   7.593   1.618
 3785TIP3    H111298   0.787   7.554   1.672
 3785TIP3    H211299   0.665   7.520   1.590
 3786TIP3   OH211300   3.965   0.990   4.364
 3786TIP3    H111301   4.008   0.906   4.381
 3786TIP3    H211302   4.036   1.047   4.335
 3787TIP3   OH211303   6.373   7.145   4.978
 3787TIP3    H111304   6.326   7.095   5.044
 3787TIP3    H211305   6.447   7.184   5.025
 3788TIP3   OH211306   0.567   2.675   6.199
 3788TIP3    H111307   0.613   2.596   6.171
 3788TIP3    H211308   0.606   2.745   6.146
 3789TIP3   OH211309   3.161   3.800   2.485
 3789TIP3    H111310   3.230   3.766   2.427
 3789TIP3    H211311   3.100   3.727   2.495
 3790TIP3   OH211312   6.760   2.988   0.843
 3790TIP3    H111313   6.777   3.055   0.777
 3790TIP3    H211314   6.775   3.033   0.927
 3791TIP3   OH211315   5.452   1.336   1.894
 3791TIP3    H111316   5.395   1.384   1.953
 3791TIP3    H211317   5.430   1.244   1.907
 3792TIP3   OH211318   2.229   2.058   4.089
 3792TIP3    H111319   2.275   2.140   4.072
 3792TIP3    H211320   2.261   2.029   4.175
 3793TIP3   OH211321   7.869   3.191   2.969
 3793TIP3    H111322   7.895   3.101   2.947
 3793TIP3    H211323   7.814   3.181   3.047
 3794TIP3   OH211324   8.038   0.183   6.226
 3794TIP3    H111325   7.965   0.128   6.256
 3794TIP3    H211326   7.996   0.256   6.181
 3795TIP3   OH211327   2.414   1.145   2.283
 3795TIP3    H111328   2.474   1.157   2.209
 3795TIP3    H211329   2.357   1.221   2.280
 3796TIP3   OH211330   6.374   5.112   2.683
 3796TIP3    H111331   6.306   5.068   2.734
 3796TIP3    H211332   6.364   5.076   2.594
 3797TIP3   OH211333   0.959   0.270   5.160
 3797TIP3    H111334   0.959   0.174   5.156
 3797TIP3    H211335   1.029   0.291   5.221
 3798TIP3   OH211336   0.696   6.260   3.345
 3798TIP3    H111337   0.726   6.207   3.419
 3798TIP3    H211338   0.639   6.326   3.383
 3799TIP3   OH211339   1.174   4.769   5.937
 3799TIP3    H111340   1.259   4.725   5.936
 3799TIP3    H211341   1.148   4.773   5.846
 3800TIP3   OH211342   6.877   6.156   1.890
 3800TIP3    H111343   6.918   6.226   1.840
 3800TIP3    H211344   6.948   6.095   1.910
 3801TIP3   OH211345   5.205   6.749   4.193
 3801TIP3    H111346   5.229   6.789   4.110
 3801TIP3    H211347   5.250   6.664   4.193
 3802TIP3   OH211348   7.672   0.335   2.203
 3802TIP3    H111349   7.645   0.392   2.131
 3802TIP3    H211350   7.669   0.391   2.281
 3803TIP3   OH211351   3.070   5.698   0.829
 3803TIP3    H111352   3.155   5.654   0.835
 3803TIP3    H211353   3.058   5.737   0.915
 3804TIP3   OH211354   3.501   6.518   0.112
 3804TIP3    H111355   3.423   6.468   0.137
 3804TIP3    H211356   3.496   6.599   0.162
 3805TIP3   OH211357   5.953   1.711   3.749
 3805TIP3    H111358   6.025   1.739   3.804
 3805TIP3    H211359   5.910   1.641   3.798
 3806TIP3   OH211360   6.310   2.318   0.276
 3806TIP3    H111361   6.257   2.315   0.356
 3806TIP3    H211362   6.400   2.304   0.307
 3807TIP3   OH211363   4.308   6.602   3.125
 3807TIP3    H111364   4.361   6.576   3.201
 3807TIP3    H211365   4.258   6.678   3.156
 3808TIP3   OH211366   1.187   0.645   6.374
 3808TIP3    H111367   1.225   0.583   6.436
 3808TIP3    H211368   1.107   0.602   6.344
 3809TIP3   OH211369   3.766   0.520   2.685
 3809TIP3    H111370   3.860   0.514   2.704
 3809TIP3    H211371   3.725   0.460   2.747
 3810TIP3   OH211372   4.471   5.403   0.611
 3810TIP3    H111373   4.498   5.486   0.572
 3810TIP3    H211374   4.378   5.395   0.588
 3811TIP3   OH211375   3.337   7.691   0.352
 3811TIP3    H111376   3.409   7.671   0.293
 3811TIP3    H211377   3.369   7.765   0.404
 3812TIP3   OH211378   5.223   7.216   1.208
 3812TIP3    H111379   5.276   7.295   1.210
 3812TIP3    H211380   5.282   7.147   1.238
 3813TIP3   OH211381   2.560   7.281   2.541
 3813TIP3    H111382   2.589   7.311   2.627
 3813TIP3    H211383   2.504   7.352   2.509
 3814TIP3   OH211384   0.432   4.131   5.599
 3814TIP3    H111385   0.471   4.163   5.517
 3814TIP3    H211386   0.394   4.046   5.577
 3815TIP3   OH211387   5.197   0.199   0.112
 3815TIP3    H111388   5.269   0.262   0.106
 3815TIP3    H211389   5.118   0.253   0.115
 3816TIP3   OH211390   3.155   2.549   1.650
 3816TIP3    H111391   3.210   2.581   1.578
 3816TIP3    H211392   3.199   2.470   1.681
 3817TIP3   OH211393   1.611   4.081   4.803
 3817TIP3    H111394   1.543   4.062   4.867
 3817TIP3    H211395   1.632   3.996   4.764
 3818TIP3   OH211396   0.156   7.662   0.972
 3818TIP3    H111397   0.136   7.711   0.892
 3818TIP3    H211398   0.100   7.700   1.039
 3819TIP3   OH211399   5.698   6.105   5.046
 3819TIP3    H111400   5.675   6.116   5.138
 3819TIP3    H211401   5.616   6.116   4.999
 3820TIP3   OH211402   5.737   3.863   5.718
 3820TIP3    H111403   5.773   3.947   5.690
 3820TIP3    H211404   5.650   3.884   5.751
 3821TIP3   OH211405   6.811   4.192   1.678
 3821TIP3    H111406   6.841   4.103   1.660
 3821TIP3    H211407   6.762   4.217   1.600
 3822TIP3   OH211408   7.030   1.634   4.169
 3822TIP3    H111409   7.073   1.576   4.231
 3822TIP3    H211410   6.939   1.638   4.198
 3823TIP3   OH211411   4.766   6.720   5.520
 3823TIP3    H111412   4.827   6.733   5.592
 3823TIP3    H211413   4.768   6.802   5.471
 3824TIP3   OH211414   2.804   3.137   1.466
 3824TIP3    H111415   2.864   3.067   1.441
 3824TIP3    H211416   2.717   3.102   1.449
 3825TIP3   OH211417   2.559   0.194   0.634
 3825TIP3    H111418   2.614   0.207   0.557
 3825TIP3    H211419   2.613   0.223   0.707
 3826TIP3   OH211420   6.302   2.349   1.015
 3826TIP3    H111421   6.372   2.396   1.061
 3826TIP3    H211422   6.339   2.328   0.929
 3827TIP3   OH211423   1.223   4.671   3.033
 3827TIP3    H111424   1.290   4.606   3.055
 3827TIP3    H211425   1.272   4.750   3.014
 3828TIP3   OH211426   2.660   7.405   6.000
 3828TIP3    H111427   2.730   7.419   5.935
 3828TIP3    H211428   2.585   7.375   5.949
 3829TIP3   OH211429   2.506   5.928   4.559
 3829TIP3    H111430   2.471   5.965   4.640
 3829TIP3    H211431   2.594   5.900   4.582
 3830TIP3   OH211432   4.407   3.181   0.224
 3830TIP3    H111433   4.437   3.271   0.209
 3830TIP3    H211434   4.333   3.191   0.284
 3831TIP3   OH211435   7.998   4.634   5.907
 3831TIP3    H111436   7.971   4.717   5.948
 3831TIP3    H211437   7.920   4.606   5.859
 3832TIP3   OH211438   5.359   4.131   2.266
 3832TIP3    H111439   5.289   4.095   2.211
 3832TIP3    H211440   5.320   4.209   2.305
 3833TIP3   OH211441   5.857   1.405   2.889
 3833TIP3    H111442   5.851   1.312   2.870
 3833TIP3    H211443   5.950   1.424   2.892
 3834TIP3   OH211444   5.929   5.081   1.485
 3834TIP3    H111445   5.983   5.055   1.410
 3834TIP3    H211446   5.972   5.041   1.561
 3835TIP3   OH211447   4.514   0.818   1.855
 3835TIP3    H111448   4.496   0.776   1.939
 3835TIP3    H211449   4.519   0.745   1.793
 3836TIP3   OH211450   2.339   1.720   3.695
 3836TIP3    H111451   2.363   1.812   3.705
 3836TIP3    H211452   2.249   1.714   3.725
 3837TIP3   OH211453   0.417   0.818   2.995
 3837TIP3    H111454   0.404   0.786   3.084
 3837TIP3    H211455   0.359   0.764   2.941
 3838TIP3   OH211456   4.831   6.210   4.419
 3838TIP3    H111457   4.786   6.154   4.357
 3838TIP3    H211458   4.902   6.250   4.369
 3839TIP3   OH211459   5.606   1.591   6.761
 3839TIP3    H111460   5.635   1.673   6.802
 3839TIP3    H211461   5.527   1.566   6.809
 3840TIP3   OH211462   7.799   6.112   0.485
 3840TIP3    H111463   7.783   6.064   0.566
 3840TIP3    H211464   7.834   6.196   0.513
 3841TIP3   OH211465   0.901   1.841   3.442
 3841TIP3    H111466   0.880   1.750   3.424
 3841TIP3    H211467   0.819   1.888   3.427
 3842TIP3   OH211468   6.964   6.133   2.678
 3842TIP3    H111469   6.954   6.039   2.693
 3842TIP3    H211470   7.011   6.140   2.595
 3843TIP3   OH211471   0.098   5.423   3.904
 3843TIP3    H111472   0.171   5.480   3.882
 3843TIP3    H211473   0.043   5.476   3.962
 3844TIP3   OH211474   5.785   7.165   4.709
 3844TIP3    H111475   5.851   7.158   4.640
 3844TIP3    H211476   5.710   7.206   4.666
 3845TIP3   OH211477   4.101   5.609   0.779
 3845TIP3    H111478   4.128   5.527   0.819
 3845TIP3    H211479   4.181   5.642   0.738
 3846TIP3   OH211480   2.119   0.461   6.154
 3846TIP3    H111481   2.126   0.554   6.177
 3846TIP3    H211482   2.203   0.423   6.181
 3847TIP3   OH211483   6.571   2.319   1.046
 3847TIP3    H111484   6.647   2.346   0.995
 3847TIP3    H211485   6.592   2.344   1.136
 3848TIP3   OH211486   1.246   1.527   3.001
 3848TIP3    H111487   1.311   1.462   3.028
 3848TIP3    H211488   1.172   1.512   3.059
 3849TIP3   OH211489   6.015   3.246   5.016
 3849TIP3    H111490   5.985   3.331   5.049
 3849TIP3    H211491   5.937   3.190   5.019
 3850TIP3   OH211492   0.301   3.498   5.833
 3850TIP3    H111493   0.356   3.528   5.905
 3850TIP3    H211494   0.234   3.567   5.824
 3851TIP3   OH211495   7.197   3.462   4.088
 3851TIP3    H111496   7.112   3.419   4.086
 3851TIP3    H211497   7.177   3.555   4.076
 3852TIP3   OH211498   7.547   6.608   3.984
 3852TIP3    H111499   7.541   6.512   3.984
 3852TIP3    H211500   7.457   6.638   3.994
 3853TIP3   OH211501   7.597   0.221   4.819
 3853TIP3    H111502   7.566   0.137   4.785
 3853TIP3    H211503   7.691   0.208   4.831
 3854TIP3   OH211504   1.290   6.937   4.473
 3854TIP3    H111505   1.313   6.989   4.549
 3854TIP3    H211506   1.368   6.939   4.418
 3855TIP3   OH211507   1.668   0.330   4.026
 3855TIP3    H111508   1.668   0.358   3.935
 3855TIP3    H211509   1.628   0.243   4.024
 3856TIP3   OH211510   2.175   0.785   3.889
 3856TIP3    H111511   2.145   0.699   3.858
 3856TIP3    H211512   2.228   0.766   3.966
 3857TIP3   OH211513   1.935   7.595   2.012
 3857TIP3    H111514   1.968   7.623   1.927
 3857TIP3    H211515   1.924   7.676   2.061
 3858TIP3   OH211516   4.734   6.424   2.825
 3858TIP3    H111517   4.809   6.464   2.781
 3858TIP3    H211518   4.748   6.330   2.815
 3859TIP3   OH211519   2.787   3.571   5.039
 3859TIP3    H111520   2.793   3.667   5.045
 3859TIP3    H211521   2.693   3.553   5.038
 3860TIP3   OH211522   1.810   1.430   5.778
 3860TIP3    H111523   1.810   1.503   5.716
 3860TIP3    H211524   1.743   1.454   5.843
 3861TIP3   OH211525   7.022   3.973   3.774
 3861TIP3    H111526   7.021   3.878   3.783
 3861TIP3    H211527   6.938   3.994   3.732
 3862TIP3   OH211528   7.301   0.857   6.507
 3862TIP3    H111529   7.264   0.917   6.572
 3862TIP3    H211530   7.307   0.909   6.427
 3863TIP3   OH211531   0.799   4.455   0.780
 3863TIP3    H111532   0.858   4.380   0.782
 3863TIP3    H211533   0.712   4.417   0.793
 3864TIP3   OH211534   3.083   0.159   3.478
 3864TIP3    H111535   3.146   0.118   3.538
 3864TIP3    H211536   3.057   0.089   3.419
 3865TIP3   OH211537   7.322   1.300   0.220
 3865TIP3    H111538   7.330   1.345   0.136
 3865TIP3    H211539   7.412   1.279   0.245
 3866TIP3   OH211540   2.295   0.436   0.305
 3866TIP3    H111541   2.213   0.417   0.259
 3866TIP3    H211542   2.320   0.523   0.275
 3867TIP3   OH211543   1.139   0.423   0.894
 3867TIP3    H111544   1.146   0.373   0.976
 3867TIP3    H211545   1.174   0.364   0.827
 3868TIP3   OH211546   5.677   2.083   5.195
 3868TIP3    H111547   5.620   2.042   5.260
 3868TIP3    H211548   5.648   2.046   5.111
 3869TIP3   OH211549   0.131   3.345   6.362
 3869TIP3    H111550   0.196   3.416   6.364
 3869TIP3    H211551   0.095   3.349   6.273
 3870TIP3   OH211552   6.139   4.394   1.700
 3870TIP3    H111553   6.049   4.418   1.721
 3870TIP3    H211554   6.134   4.359   1.611
 3871TIP3   OH211555   3.887   0.315   4.919
 3871TIP3    H111556   3.976   0.298   4.951
 3871TIP3    H211557   3.899   0.349   4.831
 3872TIP3   OH211558   8.008   4.814   0.213
 3872TIP3    H111559   8.036   4.726   0.237
 3872TIP3    H211560   8.067   4.841   0.143
 3873TIP3   OH211561   7.536   2.128   5.516
 3873TIP3    H111562   7.589   2.137   5.437
 3873TIP3    H211563   7.573   2.191   5.578
 3874TIP3   OH211564   2.976   0.901  -0.008
 3874TIP3    H111565   2.938   0.829  -0.058
 3874TIP3    H211566   2.930   0.898   0.077
 3875TIP3   OH211567   2.537   2.381   3.528
 3875TIP3    H111568   2.553   2.362   3.436
 3875TIP3    H211569   2.441   2.385   3.535
 3876TIP3   OH211570   2.985   3.420   3.816
 3876TIP3    H111571   2.990   3.502   3.866
 3876TIP3    H211572   2.968   3.353   3.881
 3877TIP3   OH211573   1.777   2.159   1.725
 3877TIP3    H111574   1.818   2.157   1.812
 3877TIP3    H211575   1.751   2.068   1.709
 3878TIP3   OH211576   4.032   5.335   1.141
 3878TIP3    H111577   4.017   5.409   1.200
 3878TIP3    H211578   4.070   5.267   1.198
 3879TIP3   OH211579   4.463   5.353   4.596
 3879TIP3    H111580   4.497   5.263   4.600
 3879TIP3    H211581   4.443   5.375   4.688
 3880TIP3   OH211582   4.871   0.179   1.197
 3880TIP3    H111583   4.892   0.111   1.133
 3880TIP3    H211584   4.777   0.172   1.210
 3881TIP3   OH211585   0.940   5.487   5.587
 3881TIP3    H111586   0.996   5.513   5.514
 3881TIP3    H211587   0.991   5.423   5.636
 3882TIP3   OH211588   3.811   5.319   3.423
 3882TIP3    H111589   3.858   5.245   3.385
 3882TIP3    H211590   3.874   5.359   3.484
 3883TIP3   OH211591   2.568   3.775   5.147
 3883TIP3    H111592   2.508   3.702   5.132
 3883TIP3    H211593   2.552   3.800   5.238
 3884TIP3   OH211594   6.880   5.737   5.819
 3884TIP3    H111595   6.859   5.713   5.909
 3884TIP3    H211596   6.975   5.745   5.818
 3885TIP3   OH211597   6.029   2.385   5.208
 3885TIP3    H111598   6.096   2.317   5.216
 3885TIP3    H211599   6.025   2.405   5.114
 3886TIP3   OH211600   6.441   3.603   5.376
 3886TIP3    H111601   6.500   3.529   5.391
 3886TIP3    H211602   6.487   3.678   5.415
 3887TIP3   OH211603   1.748   2.055   4.784
 3887TIP3    H111604   1.781   1.998   4.853
 3887TIP3    H211605   1.731   1.996   4.711
 3888TIP3   OH211606   2.721   5.645   6.671
 3888TIP3    H111607   2.806   5.687   6.666
 3888TIP3    H211608   2.662   5.704   6.624
 3889TIP3   OH211609   3.626   4.234   1.705
 3889TIP3    H111610   3.593   4.177   1.775
 3889TIP3    H211611   3.631   4.321   1.744
 3890TIP3   OH211612   0.920   7.075   6.288
 3890TIP3    H111613   0.922   7.165   6.319
 3890TIP3    H211614   0.897   7.024   6.366
 3891TIP3   OH211615   4.805   2.276   0.991
 3891TIP3    H111616   4.813   2.365   1.024
 3891TIP3    H211617   4.895   2.246   0.982
 3892TIP3   OH211618   2.489   3.920   3.179
 3892TIP3    H111619   2.482   3.838   3.129
 3892TIP3    H211620   2.496   3.988   3.113
 3893TIP3   OH211621   6.912   4.495   4.420
 3893TIP3    H111622   6.986   4.535   4.466
 3893TIP3    H211623   6.868   4.568   4.376
 3894TIP3   OH211624   1.035   1.038   0.402
 3894TIP3    H111625   0.944   1.027   0.431
 3894TIP3    H211626   1.063   1.121   0.440
 3895TIP3   OH211627   6.390   3.296   5.632
 3895TIP3    H111628   6.365   3.235   5.701
 3895TIP3    H211629   6.419   3.240   5.560
 3896TIP3   OH211630   3.268   7.045   5.158
 3896TIP3    H111631   3.229   6.975   5.212
 3896TIP3    H211632   3.321   7.096   5.219
 3897TIP3   OH211633   4.129   3.744   3.214
 3897TIP3    H111634   4.207   3.785   3.251
 3897TIP3    H211635   4.103   3.802   3.143
 3898TIP3   OH211636   2.584   7.592   1.147
 3898TIP3    H111637   2.605   7.565   1.236
 3898TIP3    H211638   2.670   7.602   1.104
 3899TIP3   OH211639   5.514   6.606   2.903
 3899TIP3    H111640   5.451   6.629   2.834
 3899TIP3    H211641   5.479   6.525   2.941
 3900TIP3   OH211642   6.781   4.291   1.218
 3900TIP3    H111643   6.697   4.307   1.176
 3900TIP3    H211644   6.838   4.361   1.187
 3901TIP3   OH211645   1.894   5.169   4.592
 3901TIP3    H111646   1.898   5.073   4.596
 3901TIP3    H211647   1.846   5.194   4.671
 3902TIP3   OH211648   4.906   6.378   4.176
 3902TIP3    H111649   4.840   6.322   4.134
 3902TIP3    H211650   4.943   6.429   4.105
 3903TIP3   OH211651   7.501   2.004   4.178
 3903TIP3    H111652   7.515   2.012   4.083
 3903TIP3    H211653   7.431   1.940   4.187
 3904TIP3   OH211654   3.424   5.644   6.732
 3904TIP3    H111655   3.472   5.694   6.667
 3904TIP3    H211656   3.438   5.690   6.815
 3905TIP3   OH211657   3.964   5.518   5.471
 3905TIP3    H111658   3.943   5.532   5.564
 3905TIP3    H211659   4.005   5.601   5.443
 3906TIP3   OH211660   7.263   5.724   0.177
 3906TIP3    H111661   7.300   5.697   0.093
 3906TIP3    H211662   7.175   5.756   0.156
 3907TIP3   OH211663   0.677   6.321   5.856
 3907TIP3    H111664   0.698   6.397   5.910
 3907TIP3    H211665   0.751   6.312   5.796
 3908TIP3   OH211666   2.868   2.005   3.596
 3908TIP3    H111667   2.862   1.968   3.508
 3908TIP3    H211668   2.948   2.058   3.594
 3909TIP3   OH211669   3.765   4.274   2.249
 3909TIP3    H111670   3.730   4.197   2.293
 3909TIP3    H211671   3.849   4.244   2.212
 3910TIP3   OH211672   7.424   7.221   2.918
 3910TIP3    H111673   7.428   7.127   2.901
 3910TIP3    H211674   7.468   7.232   3.003
 3911TIP3   OH211675   3.423   0.983   3.436
 3911TIP3    H111676   3.377   0.922   3.378
 3911TIP3    H211677   3.418   0.942   3.522
 3912TIP3   OH211678   3.199   5.317   4.495
 3912TIP3    H111679   3.275   5.264   4.471
 3912TIP3    H211680   3.206   5.327   4.590
 3913TIP3   OH211681   4.482   4.812   4.779
 3913TIP3    H111682   4.494   4.718   4.796
 3913TIP3    H211683   4.541   4.830   4.705
 3914TIP3   OH211684   1.512   0.028   4.593
 3914TIP3    H111685   1.593   0.066   4.558
 3914TIP3    H211686   1.541  -0.049   4.641
 3915TIP3   OH211687   2.524   2.123   5.662
 3915TIP3    H111688   2.537   2.211   5.626
 3915TIP3    H211689   2.430   2.107   5.654
 3916TIP3   OH211690   3.117   3.720   0.919
 3916TIP3    H111691   3.124   3.703   1.013
 3916TIP3    H211692   3.117   3.632   0.880
 3917TIP3   OH211693   2.383   2.334   1.795
 3917TIP3    H111694   2.331   2.296   1.866
 3917TIP3    H211695   2.396   2.425   1.821
 3918TIP3   OH211696   3.066   0.636   4.600
 3918TIP3    H111697   3.143   0.579   4.596
 3918TIP3    H211698   3.099   0.717   4.639
 3919TIP3   OH211699   4.989   1.099   3.717
 3919TIP3    H111700   5.053   1.072   3.783
 3919TIP3    H211701   4.941   1.019   3.695
 3920TIP3   OH211702   5.012   5.749   5.700
 3920TIP3    H111703   4.956   5.726   5.626
 3920TIP3    H211704   4.966   5.716   5.777
 3921TIP3   OH211705   1.824   5.905   3.548
 3921TIP3    H111706   1.883   5.939   3.481
 3921TIP3    H211707   1.812   5.978   3.609
 3922TIP3   OH211708   8.027   7.488   5.098
 3922TIP3    H111709   7.977   7.456   5.024
 3922TIP3    H211710   8.118   7.470   5.075
 3923TIP3   OH211711   7.047   6.153   1.459
 3923TIP3    H111712   7.063   6.238   1.419
 3923TIP3    H211713   6.996   6.105   1.394
 3924TIP3   OH211714   4.735   3.229   1.859
 3924TIP3    H111715   4.734   3.285   1.936
 3924TIP3    H211716   4.652   3.182   1.861
 3925TIP3   OH211717   2.774   6.634   5.194
 3925TIP3    H111718   2.787   6.553   5.145
 3925TIP3    H211719   2.696   6.673   5.155
 3926TIP3   OH211720   4.049   5.267   4.393
 3926TIP3    H111721   4.113   5.283   4.462
 3926TIP3    H211722   3.997   5.193   4.425
 3927TIP3   OH211723   5.392   6.191   3.462
 3927TIP3    H111724   5.391   6.287   3.452
 3927TIP3    H211725   5.315   6.161   3.414
 3928TIP3   OH211726   2.234   6.893   1.956
 3928TIP3    H111727   2.246   6.806   1.993
 3928TIP3    H211728   2.274   6.888   1.869
 3929TIP3   OH211729   5.666   4.010  -0.006
 3929TIP3    H111730   5.682   4.056   0.077
 3929TIP3    H211731   5.754   3.989  -0.039
 3930TIP3   OH211732   2.877   0.928   4.733
 3930TIP3    H111733   2.830   0.918   4.816
 3930TIP3    H211734   2.810   0.916   4.666
 3931TIP3   OH211735   2.353   2.806   1.443
 3931TIP3    H111736   2.284   2.746   1.470
 3931TIP3    H211737   2.317   2.893   1.458
 3932TIP3   OH211738   0.896   7.089   3.003
 3932TIP3    H111739   0.924   7.165   2.953
 3932TIP3    H211740   0.960   7.021   2.981
 3933TIP3   OH211741   3.496   2.984   6.503
 3933TIP3    H111742   3.558   3.056   6.510
 3933TIP3    H211743   3.422   3.012   6.557
 3934TIP3   OH211744   3.947   4.991   2.223
 3934TIP3    H111745   3.934   5.063   2.160
 3934TIP3    H211746   3.873   4.933   2.208
 3935TIP3   OH211747   4.180   6.910   2.017
 3935TIP3    H111748   4.093   6.880   2.044
 3935TIP3    H211749   4.177   6.908   1.921
 3936TIP3   OH211750   1.348   7.118   5.905
 3936TIP3    H111751   1.378   7.190   5.960
 3936TIP3    H211752   1.424   7.062   5.894
 3937TIP3   OH211753   4.944   5.101   4.623
 3937TIP3    H111754   4.961   5.193   4.647
 3937TIP3    H211755   4.933   5.103   4.528
 3938TIP3   OH211756   4.185   4.022   2.862
 3938TIP3    H111757   4.236   3.991   2.787
 3938TIP3    H211758   4.145   4.103   2.832
 3939TIP3   OH211759   0.140   6.098   0.675
 3939TIP3    H111760   0.174   6.034   0.613
 3939TIP3    H211761   0.216   6.149   0.702
 3940TIP3   OH211762   2.343   3.134   2.558
 3940TIP3    H111763   2.325   3.124   2.652
 3940TIP3    H211764   2.344   3.045   2.525
 3941TIP3   OH211765   8.263   0.162   5.619
 3941TIP3    H111766   8.285   0.254   5.633
 3941TIP3    H211767   8.186   0.147   5.673
 3942TIP3   OH211768  -0.015   4.123   4.596
 3942TIP3    H111769   0.067   4.131   4.547
 3942TIP3    H211770   0.001   4.049   4.655
 3943TIP3   OH211771   7.227   5.258   5.373
 3943TIP3    H111772   7.162   5.188   5.379
 3943TIP3    H211773   7.285   5.244   5.447
 3944TIP3   OH211774   0.919   3.908   6.072
 3944TIP3    H111775   0.922   3.955   5.989
 3944TIP3    H211776   0.914   3.815   6.047
 3945TIP3   OH211777   6.424   7.265   2.832
 3945TIP3    H111778   6.404   7.171   2.830
 3945TIP3    H211779   6.515   7.271   2.803
 3946TIP3   OH211780   1.666   3.008   5.931
 3946TIP3    H111781   1.628   2.981   5.848
 3946TIP3    H211782   1.607   2.971   5.998
 3947TIP3   OH211783   1.964   1.867   6.692
 3947TIP3    H111784   1.924   1.805   6.752
 3947TIP3    H211785   2.048   1.828   6.669
 3948TIP3   OH211786   6.162   2.833   4.535
 3948TIP3    H111787   6.180   2.890   4.609
 3948TIP3    H211788   6.238   2.775   4.530
 3949TIP3   OH211789   0.167   7.141   1.909
 3949TIP3    H111790   0.146   7.226   1.871
 3949TIP3    H211791   0.170   7.081   1.834
 3950TIP3   OH211792   0.086   7.208   3.367
 3950TIP3    H111793   0.101   7.116   3.344
 3950TIP3    H211794   0.147   7.224   3.439
 3951TIP3   OH211795   2.285   3.255   1.299
 3951TIP3    H111796   2.365   3.277   1.251
 3951TIP3    H211797   2.286   3.311   1.376
 3952TIP3   OH211798   2.221   3.260   3.283
 3952TIP3    H111799   2.181   3.236   3.366
 3952TIP3    H211800   2.237   3.354   3.290
 3953TIP3   OH211801   4.539   3.123  -0.014
 3953TIP3    H111802   4.537   3.140  -0.108
 3953TIP3    H211803   4.587   3.197   0.022
 3954TIP3   OH211804   2.041   0.217   0.123
 3954TIP3    H111805   2.115   0.195   0.067
 3954TIP3    H211806   1.964   0.195   0.070
 3955TIP3   OH211807   1.238   6.296   3.860
 3955TIP3    H111808   1.151   6.258   3.860
 3955TIP3    H211809   1.270   6.286   3.949
 3956TIP3   OH211810   8.051   3.763   3.953
 3956TIP3    H111811   7.956   3.767   3.961
 3956TIP3    H211812   8.082   3.839   4.002
 3957TIP3   OH211813   4.331   3.788   2.722
 3957TIP3    H111814   4.244   3.752   2.738
 3957TIP3    H211815   4.373   3.791   2.808
 3958TIP3   OH211816   4.123   6.287   0.502
 3958TIP3    H111817   4.134   6.377   0.531
 3958TIP3    H211818   4.068   6.292   0.424
 3959TIP3   OH211819   3.484   6.104   2.758
 3959TIP3    H111820   3.460   6.173   2.697
 3959TIP3    H211821   3.469   6.023   2.709
 3960TIP3   OH211822   3.230   6.236   0.787
 3960TIP3    H111823   3.260   6.283   0.865
 3960TIP3    H211824   3.228   6.302   0.719
 3961TIP3   OH211825   0.705   0.163   0.662
 3961TIP3    H111826   0.786   0.156   0.711
 3961TIP3    H211827   0.636   0.142   0.725
 3962TIP3   OH211828   8.177   7.810   1.763
 3962TIP3    H111829   8.187   7.766   1.678
 3962TIP3    H211830   8.085   7.796   1.786
 3963TIP3   OH211831   1.974   3.375   4.381
 3963TIP3    H111832   1.996   3.407   4.468
 3963TIP3    H211833   1.910   3.437   4.347
 3964TIP3   OH211834   0.966   1.028   5.659
 3964TIP3    H111835   0.974   1.042   5.754
 3964TIP3    H211836   1.056   1.028   5.627
 3965TIP3   OH211837   4.668   5.946   1.778
 3965TIP3    H111838   4.724   5.955   1.855
 3965TIP3    H211839   4.581   5.973   1.808
 3966TIP3   OH211840   1.069   2.083   6.805
 3966TIP3    H111841   1.004   2.014   6.802
 3966TIP3    H211842   1.019   2.164   6.794
 3967TIP3   OH211843   3.817   6.767   3.544
 3967TIP3    H111844   3.820   6.839   3.607
 3967TIP3    H211845   3.907   6.759   3.513
 3968TIP3   OH211846   3.204   2.022   4.139
 3968TIP3    H111847   3.114   1.999   4.161
 3968TIP3    H211848   3.198   2.069   4.056
 3969TIP3   OH211849   0.908   2.208   3.859
 3969TIP3    H111850   0.933   2.236   3.771
 3969TIP3    H211851   0.916   2.288   3.912
 3970TIP3   OH211852   6.193   2.192   5.144
 3970TIP3    H111853   6.135   2.172   5.070
 3970TIP3    H211854   6.259   2.250   5.108
 3971TIP3   OH211855   6.067   4.676   1.253
 3971TIP3    H111856   6.072   4.614   1.180
 3971TIP3    H211857   5.975   4.701   1.257
 3972TIP3   OH211858   0.124   2.701   3.897
 3972TIP3    H111859   0.127   2.768   3.964
 3972TIP3    H211860   0.113   2.749   3.815
 3973TIP3   OH211861   7.278   3.510   3.784
 3973TIP3    H111862   7.289   3.553   3.869
 3973TIP3    H211863   7.237   3.426   3.805
 3974TIP3   OH211864   3.493   3.386   1.561
 3974TIP3    H111865   3.479   3.409   1.653
 3974TIP3    H211866   3.585   3.360   1.557
 3975TIP3   OH211867   5.217   0.374   5.915
 3975TIP3    H111868   5.134   0.419   5.899
 3975TIP3    H211869   5.249   0.411   5.998
 3976TIP3   OH211870   3.859   3.661   3.319
 3976TIP3    H111871   3.950   3.691   3.319
 3976TIP3    H211872   3.846   3.624   3.406
 3977TIP3   OH211873   6.668   3.539   0.477
 3977TIP3    H111874   6.762   3.556   0.486
 3977TIP3    H211875   6.629   3.573   0.557
 3978TIP3   OH211876   4.394   0.421   0.213
 3978TIP3    H111877   4.423   0.471   0.137
 3978TIP3    H211878   4.342   0.483   0.264
 3979TIP3   OH211879   3.781   2.475   4.566
 3979TIP3    H111880   3.696   2.430   4.563
 3979TIP3    H211881   3.774   2.534   4.641
 3980TIP3   OH211882   8.001   1.679   3.406
 3980TIP3    H111883   8.050   1.607   3.366
 3980TIP3    H211884   8.008   1.663   3.501
 3981TIP3   OH211885   4.860   7.643   0.605
 3981TIP3    H111886   4.782   7.654   0.550
 3981TIP3    H211887   4.853   7.712   0.671
 3982TIP3   OH211888   2.116   0.107   4.072
 3982TIP3    H111889   2.171   0.096   3.995
 3982TIP3    H211890   2.050   0.039   4.065
 3983TIP3   OH211891   3.027   5.891   2.046
 3983TIP3    H111892   3.056   5.807   2.081
 3983TIP3    H211893   2.951   5.871   1.993
 3984TIP3   OH211894   1.130   2.666   6.193
 3984TIP3    H111895   1.157   2.612   6.267
 3984TIP3    H211896   1.186   2.744   6.199
 3985TIP3   OH211897   0.567   4.185   4.314
 3985TIP3    H111898   0.638   4.151   4.259
 3985TIP3    H211899   0.520   4.246   4.257
 3986TIP3   OH211900   4.998   5.533   1.584
 3986TIP3    H111901   5.035   5.446   1.569
 3986TIP3    H211902   5.057   5.593   1.537
 3987TIP3   OH211903   2.306   5.573   0.073
 3987TIP3    H111904   2.347   5.565  -0.014
 3987TIP3    H211905   2.290   5.483   0.100
 3988TIP3   OH211906   5.409   4.275   1.782
 3988TIP3    H111907   5.479   4.210   1.777
 3988TIP3    H211908   5.344   4.245   1.719
 3989TIP3   OH211909   7.792   7.832   4.321
 3989TIP3    H111910   7.705   7.796   4.336
 3989TIP3    H211911   7.795   7.911   4.375
 3990TIP3   OH211912   1.351   4.139   5.480
 3990TIP3    H111913   1.295   4.133   5.558
 3990TIP3    H211914   1.418   4.072   5.494
 3991TIP3   OH211915   7.899   7.551   3.536
 3991TIP3    H111916   7.970   7.501   3.495
 3991TIP3    H211917   7.866   7.493   3.604
 3992TIP3   OH211918   3.529   3.797   1.059
 3992TIP3    H111919   3.589   3.737   1.103
 3992TIP3    H211920   3.461   3.740   1.023
 3993TIP3   OH211921   2.734   1.589   0.434
 3993TIP3    H111922   2.803   1.584   0.368
 3993TIP3    H211923   2.780   1.580   0.518
 3994TIP3   OH211924   0.458   3.951   6.632
 3994TIP3    H111925   0.532   4.008   6.650
 3994TIP3    H211926   0.494   3.863   6.634
 3995TIP3   OH211927   7.392   4.247   2.788
 3995TIP3    H111928   7.322   4.212   2.843
 3995TIP3    H211929   7.414   4.331   2.829
 3996TIP3   OH211930   4.054   3.069   1.821
 3996TIP3    H111931   4.009   3.082   1.737
 3996TIP3    H211932   4.006   2.998   1.863
 3997TIP3   OH211933   2.631   2.128   0.739
 3997TIP3    H111934   2.591   2.195   0.683
 3997TIP3    H211935   2.622   2.047   0.689
 3998TIP3   OH211936   3.747   7.354   2.900
 3998TIP3    H111937   3.714   7.417   2.964
 3998TIP3    H211938   3.709   7.383   2.816
 3999TIP3   OH211939   1.454   1.515   5.137
 3999TIP3    H111940   1.523   1.504   5.071
 3999TIP3    H211941   1.444   1.610   5.146
 4000TIP3   OH211942   7.345   0.319   0.927
 4000TIP3    H111943   7.335   0.413   0.917
 4000TIP3    H211944   7.328   0.302   1.020
 4001TIP3   OH211945   3.001   4.709   2.300
 4001TIP3    H111946   2.916   4.725   2.341
 4001TIP3    H211947   2.983   4.705   2.206
 4002TIP3   OH211948   8.163   2.384   4.771
 4002TIP3    H111949   8.141   2.293   4.791
 4002TIP3    H211950   8.132   2.433   4.847
 4003TIP3   OH211951   0.443   7.485   5.418
 4003TIP3    H111952   0.460   7.491   5.324
 4003TIP3    H211953   0.363   7.538   5.431
 4004TIP3   OH211954   1.362   4.022   1.287
 4004TIP3    H111955   1.343   4.097   1.344
 4004TIP3    H211956   1.347   3.945   1.343
 4005TIP3   OH211957   2.655   4.799   6.755
 4005TIP3    H111958   2.701   4.794   6.671
 4005TIP3    H211959   2.716   4.762   6.819
 4006TIP3   OH211960   1.971   4.182   1.005
 4006TIP3    H111961   1.926   4.128   0.941
 4006TIP3    H211962   1.976   4.268   0.965
 4007TIP3   OH211963   3.430   0.488   1.924
 4007TIP3    H111964   3.425   0.409   1.978
 4007TIP3    H211965   3.504   0.472   1.865
 4008TIP3   OH211966   0.903   3.187   3.879
 4008TIP3    H111967   0.843   3.257   3.907
 4008TIP3    H211968   0.961   3.230   3.816
 4009TIP3   OH211969   2.208   5.727   6.214
 4009TIP3    H111970   2.236   5.818   6.226
 4009TIP3    H211971   2.155   5.708   6.291
 4010TIP3   OH211972   2.140   7.333   2.839
 4010TIP3    H111973   2.085   7.307   2.765
 4010TIP3    H211974   2.205   7.263   2.846
 4011TIP3   OH211975   4.949   1.943   0.537
 4011TIP3    H111976   4.927   1.850   0.544
 4011TIP3    H211977   4.879   1.980   0.482
 4012TIP3   OH211978   0.391   7.814   4.595
 4012TIP3    H111979   0.337   7.789   4.670
 4012TIP3    H211980   0.430   7.898   4.620
 4013TIP3   OH211981   2.689   0.527   0.227
 4013TIP3    H111982   2.686   0.435   0.201
 4013TIP3    H211983   2.738   0.526   0.310
 4014TIP3   OH211984   1.169   0.479   3.567
 4014TIP3    H111985   1.128   0.537   3.631
 4014TIP3    H211986   1.241   0.531   3.531
 4015TIP3   OH211987   8.025   4.886   1.945
 4015TIP3    H111988   8.110   4.920   1.976
 4015TIP3    H211989   8.000   4.822   2.012
 4016TIP3   OH211990   1.426   6.944   3.930
 4016TIP3    H111991   1.517   6.919   3.945
 4016TIP3    H211992   1.375   6.888   3.988
 4017TIP3   OH211993   7.269   5.559   1.686
 4017TIP3    H111994   7.350   5.568   1.737
 4017TIP3    H211995   7.205   5.609   1.736
 4018TIP3   OH211996   1.888   4.166   2.052
 4018TIP3    H111997   1.820   4.219   2.009
 4018TIP3    H211998   1.961   4.226   2.063
 4019TIP3   OH211999   6.090   1.381   5.449
 4019TIP3    H112000   6.178   1.409   5.474
 4019TIP3    H212001   6.032   1.427   5.510
 4020TIP3   OH212002   6.813   6.256   5.246
 4020TIP3    H112003   6.745   6.316   5.278
 4020TIP3    H212004   6.851   6.301   5.170
 4021TIP3   OH212005   1.185   3.026   3.292
 4021TIP3    H112006   1.216   2.945   3.331
 4021TIP3    H212007   1.102   3.003   3.250
 4022TIP3   OH212008   0.022   6.119   2.786
 4022TIP3    H112009   0.074   6.134   2.866
 4022TIP3    H212010  -0.069   6.123   2.816
 4023TIP3   OH212011   7.797   1.880   3.366
 4023TIP3    H112012   7.818   1.899   3.275
 4023TIP3    H212013   7.868   1.822   3.395
 4024TIP3   OH212014   5.310   3.605   5.930
 4024TIP3    H112015   5.329   3.630   5.840
 4024TIP3    H212016   5.394   3.609   5.975
 4025TIP3   OH212017   6.638   2.222   4.804
 4025TIP3    H112018   6.657   2.141   4.755
 4025TIP3    H212019   6.646   2.197   4.896
 4026TIP3   OH212020   5.388   5.638   3.997
 4026TIP3    H112021   5.407   5.727   3.967
 4026TIP3    H212022   5.411   5.639   4.090
 4027TIP3   OH212023   2.971   1.436   2.162
 4027TIP3    H112024   2.908   1.454   2.232
 4027TIP3    H212025   2.920   1.437   2.082
 4028TIP3   OH212026   0.277   6.652   6.482
 4028TIP3    H112027   0.221   6.718   6.440
 4028TIP3    H212028   0.216   6.583   6.508
 4029TIP3   OH212029   0.407   0.402   2.474
 4029TIP3    H112030   0.314   0.406   2.452
 4029TIP3    H212031   0.420   0.315   2.511
 4030TIP3   OH212032   2.593   4.740   5.616
 4030TIP3    H112033   2.500   4.759   5.633
 4030TIP3    H212034   2.617   4.798   5.544
 4031TIP3   OH212035   3.665   2.692   0.785
 4031TIP3    H112036   3.669   2.637   0.707
 4031TIP3    H212037   3.734   2.657   0.842
 4032TIP3   OH212038   6.835   1.248   3.540
 4032TIP3    H112039   6.893   1.302   3.486
 4032TIP3    H212040   6.894   1.194   3.592
 4033TIP3   OH212041   0.093   1.769   0.639
 4033TIP3    H112042   0.181   1.784   0.604
 4033TIP3    H212043   0.056   1.700   0.584
 4034TIP3   OH212044   6.921   6.112   4.957
 4034TIP3    H112045   6.881   6.164   4.888
 4034TIP3    H212046   6.980   6.173   5.002
 4035TIP3   OH212047   2.834   3.841   2.677
 4035TIP3    H112048   2.888   3.762   2.683
 4035TIP3    H212049   2.793   3.848   2.763
 4036TIP3   OH212050   5.384   7.715   2.398
 4036TIP3    H112051   5.290   7.712   2.411
 4036TIP3    H212052   5.398   7.793   2.344
 4037TIP3   OH212053   0.351   0.721   2.519
 4037TIP3    H112054   0.297   0.656   2.564
 4037TIP3    H212055   0.425   0.670   2.485
 4038TIP3   OH212056   6.880   5.573   0.065
 4038TIP3    H112057   6.810   5.629   0.032
 4038TIP3    H212058   6.940   5.633   0.110
 4039TIP3   OH212059   7.941   1.803   1.861
 4039TIP3    H112060   7.940   1.709   1.877
 4039TIP3    H212061   7.853   1.833   1.883
 4040TIP3   OH212062   2.315   4.520   6.097
 4040TIP3    H112063   2.334   4.434   6.061
 4040TIP3    H212064   2.284   4.502   6.186
 4041TIP3   OH212065   6.600   5.850   1.331
 4041TIP3    H112066   6.651   5.794   1.273
 4041TIP3    H212067   6.509   5.831   1.307
 4042TIP3   OH212068   7.417   4.630   0.736
 4042TIP3    H112069   7.363   4.587   0.803
 4042TIP3    H212070   7.504   4.635   0.774
 4043TIP3   OH212071   1.653   4.328   4.892
 4043TIP3    H112072   1.653   4.235   4.869
 4043TIP3    H212073   1.592   4.334   4.966
 4044TIP3   OH212074   4.478   5.051   3.777
 4044TIP3    H112075   4.550   5.105   3.746
 4044TIP3    H212076   4.411   5.059   3.709
 4045TIP3   OH212077   4.584   5.361   1.545
 4045TIP3    H112078   4.581   5.425   1.616
 4045TIP3    H212079   4.677   5.352   1.524
 4046TIP3   OH212080   4.539   6.148   1.587
 4046TIP3    H112081   4.519   6.190   1.504
 4046TIP3    H212082   4.634   6.132   1.585
 4047TIP3   OH212083   0.866   1.316   5.661
 4047TIP3    H112084   0.895   1.307   5.752
 4047TIP3    H212085   0.858   1.226   5.630
 4048TIP3   OH212086   2.544   4.311   5.886
 4048TIP3    H112087   2.602   4.243   5.920
 4048TIP3    H212088   2.602   4.370   5.838
 4049TIP3   OH212089   7.740   7.338   2.826
 4049TIP3    H112090   7.687   7.406   2.868
 4049TIP3    H212091   7.823   7.382   2.807
 4050TIP3   OH212092   3.205  -0.005   0.391
 4050TIP3    H112093   3.269   0.063   0.411
 4050TIP3    H212094   3.225  -0.032   0.302
 4051TIP3   OH212095   5.464   6.043   5.718
 4051TIP3    H112096   5.500   5.957   5.739
 4051TIP3    H212097   5.538   6.102   5.727
 4052TIP3   OH212098   0.404   1.791   0.934
 4052TIP3    H112099   0.347   1.772   1.008
 4052TIP3    H212100   0.403   1.886   0.927
 4053TIP3   OH212101   3.530   5.900   5.895
 4053TIP3    H112102   3.572   5.950   5.965
 4053TIP3    H212103   3.497   5.822   5.939
 4054TIP3   OH212104   6.286   7.238   5.382
 4054TIP3    H112105   6.360   7.201   5.429
 4054TIP3    H212106   6.268   7.174   5.312
 4055TIP3   OH212107   0.259   7.175   3.593
 4055TIP3    H112108   0.207   7.197   3.670
 4055TIP3    H212109   0.317   7.105   3.622
 4056TIP3   OH212110   5.366   2.421   1.789
 4056TIP3    H112111   5.397   2.368   1.862
 4056TIP3    H212112   5.391   2.373   1.711
 4057TIP3   OH212113   0.572   1.466   6.532
 4057TIP3    H112114   0.573   1.390   6.591
 4057TIP3    H212115   0.564   1.541   6.590
 4058TIP3   OH212116   7.884   2.096   0.022
 4058TIP3    H112117   7.934   2.069   0.099
 4058TIP3    H212118   7.891   2.192   0.023
 4059TIP3   OH212119   2.526   0.982   0.255
 4059TIP3    H112120   2.617   0.955   0.256
 4059TIP3    H212121   2.506   1.003   0.347
 4060TIP3   OH212122   1.336   2.312   6.728
 4060TIP3    H112123   1.360   2.283   6.816
 4060TIP3    H212124   1.359   2.405   6.726
 4061TIP3   OH212125   7.954   2.760   5.720
 4061TIP3    H112126   8.037   2.713   5.732
 4061TIP3    H212127   7.964   2.803   5.635
 4062TIP3   OH212128   7.164   3.409   5.380
 4062TIP3    H112129   7.217   3.450   5.449
 4062TIP3    H212130   7.085   3.379   5.426
 4063TIP3   OH212131   1.821   5.764   0.180
 4063TIP3    H112132   1.915   5.774   0.164
 4063TIP3    H212133   1.806   5.807   0.264
 4064TIP3   OH212134   0.965   5.111   5.902
 4064TIP3    H112135   0.916   5.193   5.912
 4064TIP3    H212136   0.897   5.045   5.887
 4065TIP3   OH212137   0.711   5.362   5.060
 4065TIP3    H112138   0.659   5.285   5.035
 4065TIP3    H212139   0.649   5.420   5.103
 4066TIP3   OH212140   7.962   0.669   3.558
 4066TIP3    H112141   7.868   0.671   3.538
 4066TIP3    H212142   7.990   0.760   3.549
 4067TIP3   OH212143   7.547   0.709   6.277
 4067TIP3    H112144   7.473   0.769   6.264
 4067TIP3    H212145   7.566   0.715   6.371
 4068TIP3   OH212146   6.116   1.474   6.727
 4068TIP3    H112147   6.042   1.527   6.756
 4068TIP3    H212148   6.077   1.389   6.705
 4069TIP3   OH212149   7.000   0.374   0.920
 4069TIP3    H112150   6.990   0.279   0.922
 4069TIP3    H212151   6.973   0.398   0.831
 4070TIP3   OH212152   1.181   3.917   2.327
 4070TIP3    H112153   1.179   3.859   2.251
 4070TIP3    H212154   1.203   3.860   2.400
 4071TIP3   OH212155   4.793   7.729   1.832
 4071TIP3    H112156   4.879   7.688   1.837
 4071TIP3    H212157   4.799   7.806   1.889
 4072TIP3   OH212158   4.650   7.511   2.119
 4072TIP3    H112159   4.712   7.452   2.076
 4072TIP3    H212160   4.579   7.521   2.056
 4073TIP3   OH212161   7.521   7.765   3.594
 4073TIP3    H112162   7.610   7.742   3.619
 4073TIP3    H212163   7.493   7.692   3.538
 4074TIP3   OH212164   2.364   3.898   4.769
 4074TIP3    H112165   2.366   3.993   4.755
 4074TIP3    H212166   2.452   3.876   4.799
 4075TIP3   OH212167   0.970   4.453   0.187
 4075TIP3    H112168   0.897   4.438   0.247
 4075TIP3    H212169   0.929   4.460   0.101
 4076TIP3   OH212170   4.620   0.375   0.376
 4076TIP3    H112171   4.548   0.395   0.315
 4076TIP3    H212172   4.593   0.293   0.417
 4077TIP3   OH212173   7.148   0.423   1.147
 4077TIP3    H112174   7.090   0.400   1.075
 4077TIP3    H212175   7.127   0.361   1.216
 4078TIP3   OH212176   5.180   0.109   1.807
 4078TIP3    H112177   5.179   0.188   1.753
 4078TIP3    H212178   5.266   0.070   1.791
 4079TIP3   OH212179  -0.005   3.965   3.793
 4079TIP3    H112180   0.087   3.946   3.773
 4079TIP3    H212181  -0.051   3.884   3.773
 4080TIP3   OH212182   3.414   1.487   5.566
 4080TIP3    H112183   3.341   1.531   5.523
 4080TIP3    H212184   3.396   1.498   5.659
 4081TIP3   OH212185   1.850   5.198   5.270
 4081TIP3    H112186   1.914   5.175   5.336
 4081TIP3    H212187   1.770   5.218   5.319
 4082TIP3   OH212188   4.438   6.244   6.543
 4082TIP3    H112189   4.435   6.337   6.519
 4082TIP3    H212190   4.346   6.217   6.543
 4083TIP3   OH212191   1.125   3.694   2.838
 4083TIP3    H112192   1.100   3.785   2.854
 4083TIP3    H212193   1.095   3.676   2.749
 4084TIP3   OH212194   1.914   2.895   1.186
 4084TIP3    H112195   1.924   2.986   1.214
 4084TIP3    H212196   1.865   2.901   1.104
 4085TIP3   OH212197   1.483   4.800   6.619
 4085TIP3    H112198   1.450   4.886   6.594
 4085TIP3    H212199   1.546   4.777   6.551
 4086TIP3   OH212200   2.295   2.342   3.994
 4086TIP3    H112201   2.326   2.338   3.904
 4086TIP3    H212202   2.284   2.436   4.011
 4087TIP3   OH212203   6.292   7.289   5.729
 4087TIP3    H112204   6.247   7.316   5.809
 4087TIP3    H212205   6.222   7.285   5.663
 4088TIP3   OH212206   4.797   1.671   2.220
 4088TIP3    H112207   4.777   1.698   2.309
 4088TIP3    H212208   4.749   1.589   2.209
 4089TIP3   OH212209   3.414   0.415   2.695
 4089TIP3    H112210   3.327   0.421   2.656
 4089TIP3    H212211   3.427   0.322   2.712
 4090TIP3   OH212212   1.834   4.048   0.800
 4090TIP3    H112213   1.870   3.962   0.819
 4090TIP3    H212214   1.749   4.050   0.843
 4091TIP3   OH212215   7.295   0.899   5.855
 4091TIP3    H112216   7.375   0.886   5.804
 4091TIP3    H212217   7.231   0.841   5.815
 4092TIP3   OH212218   7.386   3.473   0.673
 4092TIP3    H112219   7.347   3.554   0.641
 4092TIP3    H212220   7.478   3.478   0.645
 4093TIP3   OH212221   7.347   5.416   2.309
 4093TIP3    H112222   7.332   5.359   2.234
 4093TIP3    H212223   7.405   5.366   2.367
 4094TIP3   OH212224   8.160   7.365   3.818
 4094TIP3    H112225   8.090   7.429   3.828
 4094TIP3    H212226   8.125   7.299   3.758
 4095TIP3   OH212227   6.782   7.777   4.529
 4095TIP3    H112228   6.872   7.782   4.561
 4095TIP3    H212229   6.751   7.690   4.555
 4096TIP3   OH212230   5.162   1.914   2.386
 4096TIP3    H112231   5.076   1.935   2.422
 4096TIP3    H212232   5.217   1.989   2.409
 4097TIP3   OH212233   0.755   0.731   5.300
 4097TIP3    H112234   0.829   0.755   5.245
 4097TIP3    H212235   0.749   0.801   5.365
 4098TIP3   OH212236   7.392   6.991   4.117
 4098TIP3    H112237   7.370   6.899   4.129
 4098TIP3    H212238   7.485   6.997   4.138
 4099TIP3   OH212239   1.207   0.203   1.761
 4099TIP3    H112240   1.208   0.280   1.704
 4099TIP3    H212241   1.262   0.139   1.715
 4100TIP3   OH212242   3.571   5.175   6.217
 4100TIP3    H112243   3.498   5.203   6.162
 4100TIP3    H212244   3.644   5.165   6.157
 4101TIP3   OH212245   2.635   1.230   6.463
 4101TIP3    H112246   2.613   1.228   6.556
 4101TIP3    H212247   2.573   1.169   6.423
 4102TIP3   OH212248   8.285   5.616   5.115
 4102TIP3    H112249   8.214   5.646   5.057
 4102TIP3    H212250   8.289   5.682   5.184
 4103TIP3   OH212251   6.095   2.651   2.318
 4103TIP3    H112252   6.182   2.621   2.294
 4103TIP3    H212253   6.036   2.608   2.256
 4104TIP3   OH212254   3.736   2.124   6.720
 4104TIP3    H112255   3.832   2.117   6.719
 4104TIP3    H212256   3.715   2.157   6.807
 4105TIP3   OH212257   7.727   6.054   1.504
 4105TIP3    H112258   7.808   6.090   1.467
 4105TIP3    H212259   7.698   6.120   1.567
 4106TIP3   OH212260   6.593   3.913   4.989
 4106TIP3    H112261   6.642   3.904   4.907
 4106TIP3    H212262   6.550   3.998   4.981
 4107TIP3   OH212263   0.936   0.566   6.560
 4107TIP3    H112264   0.973   0.647   6.593
 4107TIP3    H212265   0.843   0.571   6.584
 4108TIP3   OH212266   0.286   3.695   1.851
 4108TIP3    H112267   0.197   3.725   1.869
 4108TIP3    H212268   0.293   3.698   1.755
 4109TIP3   OH212269   7.157   0.476   4.276
 4109TIP3    H112270   7.162   0.403   4.338
 4109TIP3    H212271   7.241   0.521   4.283
 4110TIP3   OH212272   7.366   6.323   3.665
 4110TIP3    H112273   7.454   6.358   3.648
 4110TIP3    H212274   7.352   6.258   3.596
 4111TIP3   OH212275   7.486   0.677   0.131
 4111TIP3    H112276   7.559   0.618   0.146
 4111TIP3    H212277   7.516   0.762   0.164
 4112TIP3   OH212278   4.047   5.711   5.950
 4112TIP3    H112279   4.018   5.801   5.936
 4112TIP3    H212280   4.142   5.716   5.943
 4113TIP3   OH212281   1.756   6.315   0.000
 4113TIP3    H112282   1.700   6.273  -0.066
 4113TIP3    H212283   1.760   6.251   0.071
 4114TIP3   OH212284   2.984   3.998   3.892
 4114TIP3    H112285   2.998   3.903   3.892
 4114TIP3    H212286   2.924   4.013   3.965
 4115TIP3   OH212287   2.996   3.013   1.632
 4115TIP3    H112288   2.923   3.068   1.607
 4115TIP3    H212289   3.037   2.988   1.548
 4116TIP3   OH212290   5.989   1.467   3.588
 4116TIP3    H112291   5.957   1.537   3.646
 4116TIP3    H212292   5.926   1.396   3.599
 4117TIP3   OH212293   3.746   6.711   0.022
 4117TIP3    H112294   3.817   6.659  -0.017
 4117TIP3    H212295   3.765   6.711   0.116
 4118TIP3   OH212296   4.176   3.308   5.611
 4118TIP3    H112297   4.110   3.240   5.617
 4118TIP3    H212298   4.196   3.330   5.702
 4119TIP3   OH212299   2.875   7.406   5.808
 4119TIP3    H112300   2.925   7.333   5.845
 4119TIP3    H212301   2.942   7.465   5.773
 4120TIP3   OH212302   4.371   5.132   5.963
 4120TIP3    H112303   4.287   5.086   5.963
 4120TIP3    H212304   4.353   5.215   5.917
 4121TIP3   OH212305   5.333   1.469   5.869
 4121TIP3    H112306   5.345   1.390   5.815
 4121TIP3    H212307   5.240   1.467   5.893
 4122TIP3   OH212308   3.409   5.384   4.669
 4122TIP3    H112309   3.502   5.387   4.690
 4122TIP3    H212310   3.383   5.475   4.659
 4123TIP3   OH212311   2.105   0.402   2.327
 4123TIP3    H112312   2.197   0.424   2.334
 4123TIP3    H212313   2.065   0.443   2.404
 4124TIP3   OH212314   6.277   4.365   6.613
 4124TIP3    H112315   6.327   4.388   6.692
 4124TIP3    H212316   6.323   4.410   6.542
 4125TIP3   OH212317   6.642   6.376   1.681
 4125TIP3    H112318   6.672   6.290   1.650
 4125TIP3    H212319   6.697   6.439   1.635
 4126TIP3   OH212320   7.553   6.467   1.675
 4126TIP3    H112321   7.633   6.520   1.673
 4126TIP3    H212322   7.497   6.513   1.738
 4127TIP3   OH212323   2.965   6.728   1.738
 4127TIP3    H112324   2.915   6.649   1.717
 4127TIP3    H212325   2.975   6.725   1.833
 4128TIP3   OH212326   3.259   0.220   1.225
 4128TIP3    H112327   3.325   0.264   1.278
 4128TIP3    H212328   3.228   0.148   1.279
 4129TIP3   OH212329   4.814   4.440   6.331
 4129TIP3    H112330   4.835   4.513   6.273
 4129TIP3    H212331   4.896   4.419   6.375
 4130TIP3   OH212332   3.533   0.560   3.035
 4130TIP3    H112333   3.442   0.555   3.065
 4130TIP3    H212334   3.564   0.470   3.039
 4131TIP3   OH212335   1.292   4.211   1.476
 4131TIP3    H112336   1.301   4.184   1.567
 4131TIP3    H212337   1.207   4.177   1.448
 4132TIP3   OH212338   4.680   6.042   5.809
 4132TIP3    H112339   4.699   6.051   5.716
 4132TIP3    H212340   4.680   5.948   5.825
 4133TIP3   OH212341   2.537   2.147   5.195
 4133TIP3    H112342   2.589   2.194   5.261
 4133TIP3    H212343   2.456   2.196   5.189
 4134TIP3   OH212344   0.485   5.410   3.583
 4134TIP3    H112345   0.403   5.385   3.541
 4134TIP3    H212346   0.460   5.479   3.645
 4135TIP3   OH212347   4.285   7.211   1.213
 4135TIP3    H112348   4.296   7.193   1.120
 4135TIP3    H212349   4.235   7.136   1.246
 4136TIP3   OH212350   1.192   6.578   5.874
 4136TIP3    H112351   1.114   6.602   5.925
 4136TIP3    H212352   1.228   6.502   5.921
 4137TIP3   OH212353   5.572   1.345   5.620
 4137TIP3    H112354   5.642   1.283   5.640
 4137TIP3    H212355   5.491   1.298   5.644
 4138TIP3   OH212356   6.041   6.637   5.000
 4138TIP3    H112357   6.089   6.706   4.954
 4138TIP3    H212358   6.042   6.563   4.940
 4139TIP3   OH212359   2.017   7.625   4.660
 4139TIP3    H112360   2.110   7.604   4.657
 4139TIP3    H212361   1.978   7.556   4.714
 4140TIP3   OH212362   3.515   4.153   1.217
 4140TIP3    H112363   3.547   4.118   1.300
 4140TIP3    H212364   3.443   4.095   1.192
 4141TIP3   OH212365   4.724   2.504   5.961
 4141TIP3    H112366   4.679   2.572   6.011
 4141TIP3    H212367   4.782   2.553   5.902
 4142TIP3   OH212368   3.120   1.817   6.587
 4142TIP3    H112369   3.029   1.789   6.581
 4142TIP3    H212370   3.167   1.759   6.529
 4143TIP3   OH212371   3.414   3.265   3.985
 4143TIP3    H112372   3.332   3.295   4.025
 4143TIP3    H212373   3.388   3.233   3.898
 4144TIP3   OH212374   3.176   5.134   5.810
 4144TIP3    H112375   3.080   5.138   5.806
 4144TIP3    H212376   3.202   5.223   5.834
 4145TIP3   OH212377   3.110   3.950   4.172
 4145TIP3    H112378   3.106   3.868   4.123
 4145TIP3    H212379   3.037   4.002   4.138
 4146TIP3   OH212380   2.347   3.470   1.042
 4146TIP3    H112381   2.260   3.509   1.036
 4146TIP3    H212382   2.386   3.511   1.119
 4147TIP3   OH212383   4.299   5.293   2.807
 4147TIP3    H112384   4.392   5.305   2.829
 4147TIP3    H212385   4.269   5.380   2.781
 4148TIP3   OH212386   4.544   0.511   0.880
 4148TIP3    H112387   4.519   0.491   0.790
 4148TIP3    H212388   4.563   0.605   0.879
 4149TIP3   OH212389   0.086   0.105   0.741
 4149TIP3    H112390   0.163   0.150   0.707
 4149TIP3    H212391   0.061   0.155   0.819
 4150TIP3   OH212392   5.043   4.448   0.100
 4150TIP3    H112393   5.014   4.363   0.067
 4150TIP3    H212394   5.112   4.427   0.164
 4151TIP3   OH212395   4.846   1.148   1.661
 4151TIP3    H112396   4.898   1.228   1.667
 4151TIP3    H212397   4.779   1.157   1.729
 4152TIP3   OH212398   2.814   6.124   2.848
 4152TIP3    H112399   2.774   6.207   2.820
 4152TIP3    H212400   2.750   6.057   2.823
 4153TIP3   OH212401   6.078   6.721   4.085
 4153TIP3    H112402   6.147   6.787   4.088
 4153TIP3    H212403   6.126   6.637   4.080
 4154TIP3   OH212404   3.852   0.139   0.842
 4154TIP3    H112405   3.818   0.185   0.765
 4154TIP3    H212406   3.799   0.171   0.915
 4155TIP3   OH212407   3.066   5.752   5.833
 4155TIP3    H112408   3.058   5.848   5.827
 4155TIP3    H212409   2.983   5.724   5.872
 4156TIP3   OH212410   0.572   7.173   4.882
 4156TIP3    H112411   0.522   7.185   4.963
 4156TIP3    H212412   0.663   7.171   4.910
 4157TIP3   OH212413   0.424   6.597   2.311
 4157TIP3    H112414   0.438   6.676   2.363
 4157TIP3    H212415   0.432   6.625   2.220
 4158TIP3   OH212416   1.802   6.460   4.765
 4158TIP3    H112417   1.882   6.478   4.716
 4158TIP3    H212418   1.790   6.537   4.820
 4159TIP3   OH212419   6.230   4.822   0.104
 4159TIP3    H112420   6.244   4.782   0.189
 4159TIP3    H212421   6.143   4.792   0.077
 4160TIP3   OH212422   6.601   3.247   4.211
 4160TIP3    H112423   6.670   3.266   4.148
 4160TIP3    H212424   6.519   3.257   4.162
 4161TIP3   OH212425   5.088   2.518   3.520
 4161TIP3    H112426   5.015   2.551   3.572
 4161TIP3    H212427   5.048   2.489   3.438
 4162TIP3   OH212428   7.120   4.885   5.556
 4162TIP3    H112429   7.076   4.799   5.552
 4162TIP3    H212430   7.099   4.925   5.471
 4163TIP3   OH212431   0.683   5.295   2.259
 4163TIP3    H112432   0.602   5.339   2.283
 4163TIP3    H212433   0.733   5.361   2.210
 4164TIP3   OH212434   7.760   7.099   4.864
 4164TIP3    H112435   7.854   7.085   4.854
 4164TIP3    H212436   7.750   7.193   4.872
 4165TIP3   OH212437   0.350   0.954   5.145
 4165TIP3    H112438   0.331   0.966   5.052
 4165TIP3    H212439   0.374   0.862   5.153
 4166TIP3   OH212440   6.651   0.970   1.244
 4166TIP3    H112441   6.732   0.922   1.265
 4166TIP3    H212442   6.617   0.997   1.329
 4167TIP3   OH212443   0.312   3.170   2.205
 4167TIP3    H112444   0.255   3.095   2.225
 4167TIP3    H212445   0.316   3.219   2.287
 4168TIP3   OH212446   7.724   7.327   3.633
 4168TIP3    H112447   7.791   7.266   3.603
 4168TIP3    H212448   7.654   7.321   3.568
 4169TIP3   OH212449   6.243   4.333   1.221
 4169TIP3    H112450   6.284   4.324   1.307
 4169TIP3    H212451   6.292   4.403   1.178
 4170TIP3   OH212452   5.832   4.827   0.107
 4170TIP3    H112453   5.869   4.746   0.071
 4170TIP3    H212454   5.874   4.897   0.057
 4171TIP3   OH212455   3.890   3.366   0.834
 4171TIP3    H112456   3.904   3.453   0.873
 4171TIP3    H212457   3.809   3.375   0.784
 4172TIP3   OH212458   6.193   6.819   3.491
 4172TIP3    H112459   6.135   6.848   3.562
 4172TIP3    H212460   6.281   6.821   3.529
 4173TIP3   OH212461   4.533   5.790   5.576
 4173TIP3    H112462   4.437   5.795   5.577
 4173TIP3    H212463   4.557   5.770   5.667
 4174TIP3   OH212464   4.962   0.578   2.748
 4174TIP3    H112465   4.970   0.489   2.782
 4174TIP3    H212466   4.894   0.619   2.802
 4175TIP3   OH212467   1.305   6.083   4.995
 4175TIP3    H112468   1.284   6.126   5.078
 4175TIP3    H212469   1.335   6.155   4.939
 4176TIP3   OH212470   7.732   6.249   2.372
 4176TIP3    H112471   7.808   6.236   2.315
 4176TIP3    H212472   7.716   6.343   2.370
 4177TIP3   OH212473   2.848   2.668  -0.008
 4177TIP3    H112474   2.891   2.710  -0.083
 4177TIP3    H212475   2.902   2.592   0.011
 4178TIP3   OH212476   5.360   3.709   5.650
 4178TIP3    H112477   5.359   3.768   5.574
 4178TIP3    H212478   5.310   3.633   5.621
 4179TIP3   OH212479   1.964   5.354   1.720
 4179TIP3    H112480   1.940   5.294   1.650
 4179TIP3    H212481   1.963   5.441   1.680
 4180TIP3   OH212482   3.720   4.477   1.273
 4180TIP3    H112483   3.713   4.572   1.274
 4180TIP3    H212484   3.667   4.448   1.347
 4181TIP3   OH212485   3.848   4.573   0.511
 4181TIP3    H112486   3.931   4.554   0.467
 4181TIP3    H212487   3.849   4.668   0.523
 4182TIP3   OH212488   8.250   4.203   2.188
 4182TIP3    H112489   8.256   4.253   2.270
 4182TIP3    H212490   8.157   4.184   2.178
 4183TIP3   OH212491   0.648   6.054   5.937
 4183TIP3    H112492   0.683   6.141   5.956
 4183TIP3    H212493   0.630   6.016   6.024
 4184TIP3   OH212494   7.481   2.573   0.691
 4184TIP3    H112495   7.467   2.508   0.623
 4184TIP3    H212496   7.422   2.547   0.762
 4185TIP3   OH212497   4.024   1.510   5.020
 4185TIP3    H112498   4.014   1.494   4.926
 4185TIP3    H212499   3.952   1.568   5.043
 4186TIP3   OH212500   2.185   6.432   2.643
 4186TIP3    H112501   2.196   6.524   2.620
 4186TIP3    H212502   2.274   6.399   2.657
 4187TIP3   OH212503   2.402   4.232   4.070
 4187TIP3    H112504   2.492   4.218   4.099
 4187TIP3    H212505   2.359   4.148   4.084
 4188TIP3   OH212506   3.958   0.388   0.206
 4188TIP3    H112507   3.883   0.423   0.158
 4188TIP3    H212508   4.030   0.447   0.182
 4189TIP3   OH212509   3.230   6.639   5.393
 4189TIP3    H112510   3.195   6.727   5.406
 4189TIP3    H212511   3.303   6.651   5.333
 4190TIP3   OH212512   0.316   1.830   5.701
 4190TIP3    H112513   0.263   1.868   5.631
 4190TIP3    H212514   0.287   1.875   5.780
 4191TIP3   OH212515   1.281   6.065   0.558
 4191TIP3    H112516   1.211   6.043   0.497
 4191TIP3    H212517   1.360   6.028   0.519
 4192TIP3   OH212518   7.395   6.295   2.487
 4192TIP3    H112519   7.475   6.242   2.488
 4192TIP3    H212520   7.401   6.344   2.405
 4193TIP3   OH212521   8.280   4.501   0.762
 4193TIP3    H112522   8.223   4.545   0.825
 4193TIP3    H212523   8.350   4.465   0.816
 4194TIP3   OH212524   6.488   6.061   1.184
 4194TIP3    H112525   6.430   6.019   1.121
 4194TIP3    H212526   6.529   5.988   1.231
 4195TIP3   OH212527   6.435   1.111   2.430
 4195TIP3    H112528   6.368   1.065   2.380
 4195TIP3    H212529   6.514   1.058   2.420
 4196TIP3   OH212530   0.817   4.188   0.015
 4196TIP3    H112531   0.829   4.093   0.014
 4196TIP3    H212532   0.796   4.208   0.106
 4197TIP3   OH212533   4.457   4.566   2.371
 4197TIP3    H112534   4.448   4.635   2.305
 4197TIP3    H212535   4.423   4.606   2.451
 4198TIP3   OH212536   1.707   2.754   0.240
 4198TIP3    H112537   1.725   2.780   0.330
 4198TIP3    H212538   1.789   2.714   0.210
 4199TIP3   OH212539   2.131   1.289   5.462
 4199TIP3    H112540   2.148   1.383   5.470
 4199TIP3    H212541   2.197   1.248   5.518
 4200TIP3   OH212542   6.072   0.127   3.408
 4200TIP3    H112543   6.147   0.143   3.351
 4200TIP3    H212544   6.016   0.067   3.358
 4201TIP3   OH212545   0.409   3.545   5.037
 4201TIP3    H112546   0.359   3.626   5.048
 4201TIP3    H212547   0.352   3.488   4.988
 4202TIP3   OH212548   4.530   7.459   4.492
 4202TIP3    H112549   4.486   7.382   4.456
 4202TIP3    H212550   4.570   7.502   4.416
 4203TIP3   OH212551   5.915   7.718   4.186
 4203TIP3    H112552   5.972   7.659   4.136
 4203TIP3    H212553   5.882   7.664   4.257
 4204TIP3   OH212554   0.827   0.160   2.896
 4204TIP3    H112555   0.753   0.217   2.917
 4204TIP3    H212556   0.855   0.189   2.809
 4205TIP3   OH212557   0.442   3.895   2.127
 4205TIP3    H112558   0.430   3.805   2.158
 4205TIP3    H212559   0.354   3.933   2.130
 4206TIP3   OH212560   0.449   6.293   4.046
 4206TIP3    H112561   0.493   6.280   4.129
 4206TIP3    H212562   0.384   6.223   4.042
 4207TIP3   OH212563   2.636   3.714   6.155
 4207TIP3    H112564   2.654   3.808   6.165
 4207TIP3    H212565   2.635   3.699   6.061
 4208TIP3   OH212566   0.228   0.154   4.398
 4208TIP3    H112567   0.176   0.185   4.324
 4208TIP3    H212568   0.205   0.061   4.406
 4209TIP3   OH212569   4.389   6.829   6.341
 4209TIP3    H112570   4.323   6.889   6.376
 4209TIP3    H212571   4.413   6.867   6.257
 4210TIP3   OH212572   2.438   4.219   4.687
 4210TIP3    H112573   2.470   4.185   4.603
 4210TIP3    H212574   2.503   4.191   4.751
 4211TIP3   OH212575   7.441   6.403   2.938
 4211TIP3    H112576   7.529   6.372   2.914
 4211TIP3    H212577   7.391   6.323   2.955
 4212TIP3   OH212578   4.283   2.064   2.746
 4212TIP3    H112579   4.195   2.034   2.726
 4212TIP3    H212580   4.340   2.013   2.689
 4213TIP3   OH212581   5.385   4.563   4.116
 4213TIP3    H112582   5.325   4.590   4.047
 4213TIP3    H212583   5.451   4.510   4.072
 4214TIP3   OH212584   1.136   2.011   0.131
 4214TIP3    H112585   1.220   1.968   0.114
 4214TIP3    H212586   1.139   2.091   0.077
 4215TIP3   OH212587   3.121   0.660   4.962
 4215TIP3    H112588   3.100   0.744   5.003
 4215TIP3    H212589   3.036   0.623   4.939
 4216TIP3   OH212590   0.249   2.101   5.989
 4216TIP3    H112591   0.197   2.160   5.935
 4216TIP3    H212592   0.224   2.122   6.079
 4217TIP3   OH212593   3.061   2.417   3.451
 4217TIP3    H112594   2.984   2.463   3.486
 4217TIP3    H212595   3.061   2.439   3.358
 4218TIP3   OH212596   6.258   7.180   0.020
 4218TIP3    H112597   6.170   7.201  -0.011
 4218TIP3    H212598   6.246   7.104   0.078
 4219TIP3   OH212599   5.675   6.732   5.758
 4219TIP3    H112600   5.704   6.671   5.825
 4219TIP3    H212601   5.691   6.686   5.675
 4220TIP3   OH212602   1.365   6.175   0.246
 4220TIP3    H112603   1.287   6.228   0.263
 4220TIP3    H212604   1.436   6.239   0.237
 4221TIP3   OH212605   1.653   4.910   5.908
 4221TIP3    H112606   1.583   4.950   5.960
 4221TIP3    H212607   1.614   4.895   5.822
 4222TIP3   OH212608   7.239   1.018   6.716
 4222TIP3    H112609   7.143   1.019   6.716
 4222TIP3    H212610   7.263   1.111   6.708
 4223TIP3   OH212611   6.675   0.380   6.001
 4223TIP3    H112612   6.667   0.351   5.910
 4223TIP3    H212613   6.604   0.443   6.012
 4224TIP3   OH212614   6.112   6.817   3.789
 4224TIP3    H112615   6.110   6.831   3.884
 4224TIP3    H212616   6.056   6.740   3.775
 4225TIP3   OH212617   6.330   5.425   6.376
 4225TIP3    H112618   6.390   5.351   6.365
 4225TIP3    H212619   6.386   5.497   6.406
 4226TIP3   OH212620   3.691   1.184   2.410
 4226TIP3    H112621   3.746   1.143   2.343
 4226TIP3    H212622   3.606   1.142   2.401
 4227TIP3   OH212623   7.078   4.085   5.774
 4227TIP3    H112624   7.133   4.026   5.825
 4227TIP3    H212625   7.140   4.140   5.725
 4228TIP3   OH212626   7.191   1.122   0.024
 4228TIP3    H112627   7.235   1.183   0.084
 4228TIP3    H212628   7.260   1.095  -0.037
 4229TIP3   OH212629   2.317   6.145   1.241
 4229TIP3    H112630   2.376   6.202   1.289
 4229TIP3    H212631   2.332   6.058   1.278
 4230TIP3   OH212632   8.041   4.299   5.952
 4230TIP3    H112633   8.101   4.291   6.027
 4230TIP3    H212634   8.082   4.364   5.895
 4231TIP3   OH212635   0.568   3.885   5.820
 4231TIP3    H112636   0.480   3.898   5.855
 4231TIP3    H212637   0.556   3.831   5.742
 4232TIP3   OH212638   4.877   7.109   1.693
 4232TIP3    H112639   4.923   7.109   1.609
 4232TIP3    H212640   4.865   7.201   1.714
 4233TIP3   OH212641   5.431   0.460   2.649
 4233TIP3    H112642   5.507   0.458   2.591
 4233TIP3    H212643   5.461   0.422   2.731
 4234TIP3   OH212644   3.887   6.980   6.039
 4234TIP3    H112645   3.812   7.019   5.994
 4234TIP3    H212646   3.894   6.892   6.004
 4235TIP3   OH212647   5.688   6.278   1.345
 4235TIP3    H112648   5.671   6.210   1.410
 4235TIP3    H212649   5.710   6.229   1.265
 4236TIP3   OH212650   4.452   5.830   4.313
 4236TIP3    H112651   4.441   5.755   4.254
 4236TIP3    H212652   4.496   5.793   4.389
 4237TIP3   OH212653   7.941   5.891   2.082
 4237TIP3    H112654   7.944   5.816   2.141
 4237TIP3    H212655   7.854   5.888   2.043
 4238TIP3   OH212656   1.482   7.754   2.057
 4238TIP3    H112657   1.413   7.809   2.094
 4238TIP3    H212658   1.534   7.727   2.132
 4239TIP3   OH212659   6.596   7.434   5.551
 4239TIP3    H112660   6.503   7.458   5.546
 4239TIP3    H212661   6.598   7.340   5.538
 4240TIP3   OH212662   4.328   1.923   3.838
 4240TIP3    H112663   4.342   1.889   3.926
 4240TIP3    H212664   4.252   1.982   3.847
 4241TIP3   OH212665   1.233   6.438   1.826
 4241TIP3    H112666   1.278   6.520   1.804
 4241TIP3    H212667   1.179   6.461   1.902
 4242TIP3   OH212668   6.663   0.940   2.283
 4242TIP3    H112669   6.752   0.940   2.319
 4242TIP3    H212670   6.669   0.994   2.204
 4243TIP3   OH212671   5.585   0.412   3.817
 4243TIP3    H112672   5.653   0.444   3.758
 4243TIP3    H212673   5.522   0.484   3.821
 4244TIP3   OH212674   4.172   5.331   5.533
 4244TIP3    H112675   4.241   5.370   5.479
 4244TIP3    H212676   4.094   5.383   5.515
 4245TIP3   OH212677   7.181   7.099   5.542
 4245TIP3    H112678   7.258   7.106   5.598
 4245TIP3    H212679   7.153   7.008   5.550
 4246TIP3   OH212680   0.666   5.862   6.624
 4246TIP3    H112681   0.599   5.794   6.618
 4246TIP3    H212682   0.727   5.830   6.690
 4247TIP3   OH212683   1.429   3.273   5.802
 4247TIP3    H112684   1.343   3.292   5.767
 4247TIP3    H212685   1.412   3.228   5.885
 4248TIP3   OH212686   6.775   7.765   0.697
 4248TIP3    H112687   6.770   7.743   0.790
 4248TIP3    H212688   6.788   7.860   0.695
 4249TIP3   OH212689   1.627   5.728   5.230
 4249TIP3    H112690   1.604   5.818   5.251
 4249TIP3    H212691   1.712   5.714   5.273
 4250TIP3   OH212692   4.971   1.738   1.324
 4250TIP3    H112693   4.989   1.736   1.230
 4250TIP3    H212694   4.971   1.831   1.347
 4251TIP3   OH212695   6.842   7.344   0.310
 4251TIP3    H112696   6.759   7.366   0.268
 4251TIP3    H212697   6.835   7.381   0.398
 4252TIP3   OH212698   1.041   0.969   2.822
 4252TIP3    H112699   0.987   0.981   2.900
 4252TIP3    H212700   1.128   0.949   2.856
 4253TIP3   OH212701   7.228   6.973   4.634
 4253TIP3    H112702   7.206   7.045   4.693
 4253TIP3    H212703   7.201   7.005   4.547
 4254TIP3   OH212704   5.654   5.512   2.006
 4254TIP3    H112705   5.584   5.512   1.941
 4254TIP3    H212706   5.732   5.538   1.957
 4255TIP3   OH212707   4.790   3.677   0.763
 4255TIP3    H112708   4.817   3.724   0.685
 4255TIP3    H212709   4.773   3.588   0.733
 4256TIP3   OH212710   7.177   1.931   6.200
 4256TIP3    H112711   7.112   1.864   6.180
 4256TIP3    H212712   7.244   1.885   6.251
 4257TIP3   OH212713   2.168   4.836   1.481
 4257TIP3    H112714   2.203   4.861   1.395
 4257TIP3    H212715   2.106   4.766   1.463
 4258TIP3   OH212716   2.388   0.383   6.088
 4258TIP3    H112717   2.419   0.394   5.998
 4258TIP3    H212718   2.453   0.324   6.127
 4259TIP3   OH212719   7.765   0.487   0.798
 4259TIP3    H112720   7.680   0.444   0.786
 4259TIP3    H212721   7.825   0.437   0.744
 4260TIP3   OH212722   3.368   7.421   3.812
 4260TIP3    H112723   3.380   7.489   3.879
 4260TIP3    H212724   3.281   7.438   3.777
 4261TIP3   OH212725   1.116   0.364   5.388
 4261TIP3    H112726   1.049   0.365   5.456
 4261TIP3    H212727   1.131   0.456   5.367
 4262TIP3   OH212728   6.687   7.687   3.243
 4262TIP3    H112729   6.595   7.665   3.247
 4262TIP3    H212730   6.689   7.782   3.231
 4263TIP3   OH212731   3.190   7.759   1.112
 4263TIP3    H112732   3.102   7.750   1.149
 4263TIP3    H212733   3.188   7.710   1.030
 4264TIP3   OH212734   4.994   1.376   1.965
 4264TIP3    H112735   4.988   1.381   1.869
 4264TIP3    H212736   4.985   1.283   1.985
 4265TIP3   OH212737   5.523   4.825   1.861
 4265TIP3    H112738   5.564   4.756   1.912
 4265TIP3    H212739   5.560   4.906   1.895
 4266TIP3   OH212740   4.327   5.792   5.937
 4266TIP3    H112741   4.389   5.758   6.001
 4266TIP3    H212742   4.347   5.885   5.931
 4267TIP3   OH212743   4.226   2.950   0.161
 4267TIP3    H112744   4.158   2.891   0.131
 4267TIP3    H212745   4.190   2.991   0.240
 4268TIP3   OH212746   7.413   7.766   1.925
 4268TIP3    H112747   7.440   7.747   2.015
 4268TIP3    H212748   7.367   7.687   1.896
 4269TIP3   OH212749   4.347   0.692   5.310
 4269TIP3    H112750   4.406   0.654   5.375
 4269TIP3    H212751   4.312   0.617   5.262
 4270TIP3   OH212752   5.132   5.926   0.458
 4270TIP3    H112753   5.085   6.007   0.438
 4270TIP3    H212754   5.201   5.952   0.519
 4271TIP3   OH212755   6.349   7.061   0.668
 4271TIP3    H112756   6.387   7.097   0.588
 4271TIP3    H212757   6.255   7.057   0.650
 4272TIP3   OH212758   5.886   0.746   4.404
 4272TIP3    H112759   5.797   0.743   4.369
 4272TIP3    H212760   5.878   0.795   4.485
 4273TIP3   OH212761   6.176   5.190   3.866
 4273TIP3    H112762   6.243   5.244   3.908
 4273TIP3    H212763   6.100   5.198   3.922
 4274TIP3   OH212764   3.402   0.238   3.848
 4274TIP3    H112765   3.438   0.205   3.930
 4274TIP3    H212766   3.456   0.314   3.827
 4275TIP3   OH212767   8.159   2.561   5.899
 4275TIP3    H112768   8.238   2.571   5.951
 4275TIP3    H212769   8.089   2.594   5.955
 4276TIP3   OH212770   5.095   2.165   0.668
 4276TIP3    H112771   5.132   2.132   0.750
 4276TIP3    H212772   5.055   2.088   0.627
 4277TIP3   OH212773   6.983   6.490   3.819
 4277TIP3    H112774   7.019   6.404   3.839
 4277TIP3    H212775   7.058   6.542   3.789
 4278TIP3   OH212776   6.435   4.639   6.113
 4278TIP3    H112777   6.403   4.550   6.130
 4278TIP3    H212778   6.488   4.630   6.034
 4279TIP3   OH212779   6.035   7.570   5.642
 4279TIP3    H112780   5.972   7.503   5.616
 4279TIP3    H212781   5.986   7.627   5.701
 4280TIP3   OH212782   0.067   3.204   4.187
 4280TIP3    H112783   0.021   3.174   4.264
 4280TIP3    H212784   0.145   3.149   4.182
 4281TIP3   OH212785   5.518   3.393   3.375
 4281TIP3    H112786   5.474   3.361   3.454
 4281TIP3    H212787   5.499   3.328   3.308
 4282TIP3   OH212788   1.956   3.394   1.187
 4282TIP3    H112789   2.011   3.449   1.131
 4282TIP3    H212790   1.873   3.441   1.193
 4283TIP3   OH212791   6.567   0.984   4.912
 4283TIP3    H112792   6.579   0.910   4.853
 4283TIP3    H212793   6.486   1.025   4.884
 4284TIP3   OH212794   2.853   0.544   0.446
 4284TIP3    H112795   2.839   0.600   0.523
 4284TIP3    H212796   2.915   0.478   0.477
 4285TIP3   OH212797   6.811   2.730   5.819
 4285TIP3    H112798   6.832   2.644   5.782
 4285TIP3    H212799   6.716   2.727   5.834
 4286TIP3   OH212800   2.756   0.468   6.262
 4286TIP3    H112801   2.670   0.474   6.303
 4286TIP3    H212802   2.759   0.541   6.200
 4287TIP3   OH212803   7.861   5.115   4.888
 4287TIP3    H112804   7.947   5.157   4.897
 4287TIP3    H212805   7.881   5.021   4.883
 4288TIP3   OH212806   4.234   1.886   5.005
 4288TIP3    H112807   4.146   1.849   5.000
 4288TIP3    H212808   4.243   1.938   4.925
 4289TIP3   OH212809   2.023   1.917   2.956
 4289TIP3    H112810   2.011   1.829   2.921
 4289TIP3    H212811   1.935   1.945   2.982
 4290TIP3   OH212812   3.702   6.719   2.601
 4290TIP3    H112813   3.721   6.629   2.575
 4290TIP3    H212814   3.709   6.718   2.696
 4291TIP3   OH212815   2.307   0.420   3.263
 4291TIP3    H112816   2.332   0.498   3.313
 4291TIP3    H212817   2.345   0.347   3.311
 4292TIP3   OH212818   0.441   7.474   0.947
 4292TIP3    H112819   0.524   7.429   0.933
 4292TIP3    H212820   0.465   7.557   0.988
 4293TIP3   OH212821   2.747   1.781   5.347
 4293TIP3    H112822   2.766   1.868   5.383
 4293TIP3    H212823   2.696   1.737   5.415
 4294TIP3   OH212824   3.359   3.708   2.248
 4294TIP3    H112825   3.420   3.712   2.174
 4294TIP3    H212826   3.274   3.688   2.209
 4295TIP3   OH212827   3.462   1.800   4.572
 4295TIP3    H112828   3.483   1.726   4.515
 4295TIP3    H212829   3.385   1.840   4.531
 4296TIP3   OH212830   1.720   1.924   6.533
 4296TIP3    H112831   1.775   1.898   6.607
 4296TIP3    H212832   1.663   1.992   6.569
 4297TIP3   OH212833   3.914   7.655   5.426
 4297TIP3    H112834   3.841   7.598   5.403
 4297TIP3    H212835   3.878   7.744   5.419
 4298TIP3   OH212836   2.084   5.134   4.930
 4298TIP3    H112837   2.018   5.199   4.909
 4298TIP3    H212838   2.040   5.072   4.988
 4299TIP3   OH212839   4.856   4.414   5.328
 4299TIP3    H112840   4.859   4.494   5.381
 4299TIP3    H212841   4.842   4.344   5.392
 4300TIP3   OH212842   2.918   5.049   3.677
 4300TIP3    H112843   2.903   5.120   3.614
 4300TIP3    H212844   2.861   5.071   3.751
 4301TIP3   OH212845   6.038   5.498   3.948
 4301TIP3    H112846   6.018   5.410   3.979
 4301TIP3    H212847   6.123   5.490   3.905
 4302TIP3   OH212848   1.937   7.450   1.655
 4302TIP3    H112849   1.852   7.468   1.615
 4302TIP3    H212850   1.951   7.522   1.717
 4303TIP3   OH212851   4.810   5.220   0.132
 4303TIP3    H112852   4.743   5.237   0.199
 4303TIP3    H212853   4.891   5.211   0.181
 4304TIP3   OH212854   4.006   7.598   5.982
 4304TIP3    H112855   3.914   7.588   6.007
 4304TIP3    H212856   4.006   7.593   5.886
 4305TIP3   OH212857   2.706   2.500   4.214
 4305TIP3    H112858   2.648   2.556   4.162
 4305TIP3    H212859   2.790   2.546   4.213
 4306TIP3   OH212860   5.095   3.003   4.152
 4306TIP3    H112861   5.014   2.988   4.200
 4306TIP3    H212862   5.159   3.025   4.219
 4307TIP3   OH212863   2.588   1.386   4.670
 4307TIP3    H112864   2.517   1.353   4.614
 4307TIP3    H212865   2.666   1.341   4.638
 4308TIP3   OH212866   7.699   6.519   2.365
 4308TIP3    H112867   7.667   6.604   2.333
 4308TIP3    H212868   7.748   6.541   2.444
 4309TIP3   OH212869   6.257   7.630   1.109
 4309TIP3    H112870   6.233   7.603   1.198
 4309TIP3    H212871   6.324   7.697   1.122
 4310TIP3   OH212872   6.065   2.334   6.610
 4310TIP3    H112873   6.103   2.362   6.693
 4310TIP3    H212874   6.118   2.259   6.583
 4311TIP3   OH212875   2.397   0.920   1.213
 4311TIP3    H112876   2.359   0.980   1.277
 4311TIP3    H212877   2.323   0.893   1.158
 4312TIP3   OH212878   7.284   4.765   3.260
 4312TIP3    H112879   7.292   4.805   3.347
 4312TIP3    H212880   7.353   4.806   3.208
 4313TIP3   OH212881   4.455   1.141   1.870
 4313TIP3    H112882   4.365   1.168   1.850
 4313TIP3    H212883   4.461   1.053   1.834
 4314TIP3   OH212884   0.890   7.319   0.051
 4314TIP3    H112885   0.941   7.269  -0.013
 4314TIP3    H212886   0.911   7.278   0.135
 4315TIP3   OH212887   6.674   7.848   1.363
 4315TIP3    H112888   6.714   7.856   1.276
 4315TIP3    H212889   6.728   7.783   1.408
 4316TIP3   OH212890   4.255   5.098   1.675
 4316TIP3    H112891   4.216   5.102   1.588
 4316TIP3    H212892   4.271   5.189   1.699
 4317TIP3   OH212893   3.791   1.017   5.791
 4317TIP3    H112894   3.709   1.056   5.823
 4317TIP3    H212895   3.764   0.943   5.737
 4318TIP3   OH212896   6.809   5.797   1.141
 4318TIP3    H112897   6.840   5.818   1.053
 4318TIP3    H212898   6.836   5.706   1.155
 4319TIP3   OH212899   6.597   3.088   3.473
 4319TIP3    H112900   6.546   3.044   3.540
 4319TIP3    H212901   6.687   3.084   3.504
 4320TIP3   OH212902   5.027   1.982   5.078
 4320TIP3    H112903   5.117   1.963   5.102
 4320TIP3    H212904   5.027   2.075   5.055
 4321TIP3   OH212905   4.198   0.818   4.220
 4321TIP3    H112906   4.255   0.822   4.296
 4321TIP3    H212907   4.213   0.731   4.184
 4322TIP3   OH212908   3.343   7.738   5.874
 4322TIP3    H112909   3.323   7.644   5.877
 4322TIP3    H212910   3.388   7.755   5.957
 4323TIP3   OH212911   2.244   7.221   4.862
 4323TIP3    H112912   2.280   7.150   4.809
 4323TIP3    H212913   2.153   7.227   4.834
 4324TIP3   OH212914   1.801   1.926   1.435
 4324TIP3    H112915   1.778   2.018   1.426
 4324TIP3    H212916   1.897   1.925   1.437
 4325TIP3   OH212917   3.815   7.721   0.241
 4325TIP3    H112918   3.808   7.817   0.240
 4325TIP3    H212919   3.783   7.695   0.327
 4326TIP3   OH212920   3.353   5.431   2.025
 4326TIP3    H112921   3.351   5.448   2.119
 4326TIP3    H212922   3.429   5.373   2.013
 4327TIP3   OH212923   2.047   7.697   1.283
 4327TIP3    H112924   2.048   7.637   1.209
 4327TIP3    H212925   2.097   7.652   1.351
 4328TIP3   OH212926   1.558   6.404   4.011
 4328TIP3    H112927   1.560   6.391   4.106
 4328TIP3    H212928   1.590   6.322   3.974
 4329TIP3   OH212929   7.748   2.981   0.626
 4329TIP3    H112930   7.674   2.936   0.667
 4329TIP3    H212931   7.802   2.909   0.591
 4330TIP3   OH212932   7.828   7.566   5.285
 4330TIP3    H112933   7.863   7.575   5.197
 4330TIP3    H212934   7.766   7.639   5.294
 4331TIP3   OH212935   2.888   2.274   5.816
 4331TIP3    H112936   2.853   2.267   5.905
 4331TIP3    H212937   2.881   2.185   5.781
 4332TIP3   OH212938   1.521   5.884   3.220
 4332TIP3    H112939   1.566   5.826   3.281
 4332TIP3    H212940   1.502   5.830   3.144
 4333TIP3   OH212941   5.631   0.176   2.699
 4333TIP3    H112942   5.536   0.185   2.703
 4333TIP3    H212943   5.660   0.181   2.790
 4334TIP3   OH212944   7.392   6.667   3.572
 4334TIP3    H112945   7.478   6.709   3.568
 4334TIP3    H212946   7.392   6.605   3.499
 4335TIP3   OH212947   6.983   5.587   4.976
 4335TIP3    H112948   7.073   5.589   5.008
 4335TIP3    H212949   6.955   5.678   4.977
 4336TIP3   OH212950   0.894   7.402   4.940
 4336TIP3    H112951   0.961   7.400   4.871
 4336TIP3    H212952   0.884   7.495   4.960
 4337TIP3   OH212953   2.743   5.781   2.040
 4337TIP3    H112954   2.740   5.724   1.963
 4337TIP3    H212955   2.697   5.732   2.108
 4338TIP3   OH212956   7.721   2.588   3.918
 4338TIP3    H112957   7.673   2.530   3.859
 4338TIP3    H212958   7.654   2.645   3.955
 4339TIP3   OH212959   7.896   2.963   3.149
 4339TIP3    H112960   7.945   2.981   3.229
 4339TIP3    H212961   7.817   3.016   3.157
 4340TIP3   OH212962   2.015   0.246   1.613
 4340TIP3    H112963   1.994   0.241   1.706
 4340TIP3    H212964   2.106   0.215   1.608
 4341TIP3   OH212965   7.506   2.106   1.864
 4341TIP3    H112966   7.417   2.072   1.878
 4341TIP3    H212967   7.538   2.055   1.789
 4342TIP3   OH212968   3.431   3.350   2.578
 4342TIP3    H112969   3.391   3.274   2.536
 4342TIP3    H212970   3.518   3.321   2.604
 4343TIP3   OH212971   7.081   2.729   5.173
 4343TIP3    H112972   7.120   2.668   5.236
 4343TIP3    H212973   7.030   2.673   5.114
 4344TIP3   OH212974   2.134   3.973   2.677
 4344TIP3    H112975   2.044   4.005   2.677
 4344TIP3    H212976   2.142   3.925   2.595
 4345TIP3   OH212977   2.080   7.416   4.127
 4345TIP3    H112978   2.151   7.372   4.080
 4345TIP3    H212979   2.122   7.454   4.203
 4346TIP3   OH212980   2.100   6.119   1.932
 4346TIP3    H112981   2.071   6.130   2.023
 4346TIP3    H212982   2.086   6.026   1.915
 4347TIP3   OH212983   7.962   2.218   5.765
 4347TIP3    H112984   7.877   2.191   5.731
 4347TIP3    H212985   8.025   2.176   5.706
 4348TIP3   OH212986   5.510   5.058   4.856
 4348TIP3    H112987   5.455   5.120   4.903
 4348TIP3    H212988   5.589   5.050   4.911
 4349TIP3   OH212989   2.754   4.497   0.784
 4349TIP3    H112990   2.777   4.409   0.814
 4349TIP3    H212991   2.759   4.491   0.688
 4350TIP3   OH212992   1.228   4.824   1.153
 4350TIP3    H112993   1.191   4.910   1.167
 4350TIP3    H212994   1.208   4.803   1.061
 4351TIP3   OH212995   3.725   7.193   2.590
 4351TIP3    H112996   3.815   7.195   2.623
 4351TIP3    H212997   3.672   7.227   2.663
 4352TIP3   OH212998   5.224   4.895   0.201
 4352TIP3    H112999   5.203   4.983   0.170
 4352TIP3    H213000   5.147   4.869   0.252
 4353TIP3   OH213001   7.087   3.827   0.240
 4353TIP3    H113002   7.003   3.781   0.247
 4353TIP3    H213003   7.148   3.761   0.208
 4354TIP3   OH213004   4.057   4.060   3.311
 4354TIP3    H113005   4.055   4.029   3.220
 4354TIP3    H213006   4.016   4.146   3.307
 4355TIP3   OH213007   4.319   5.841   1.930
 4355TIP3    H113008   4.333   5.935   1.923
 4355TIP3    H213009   4.325   5.809   1.840
 4356TIP3   OH213010   4.513   6.346   1.801
 4356TIP3    H113011   4.424   6.363   1.829
 4356TIP3    H213012   4.504   6.284   1.728
 4357TIP3   OH213013   6.199   7.733   2.732
 4357TIP3    H113014   6.107   7.759   2.727
 4357TIP3    H213015   6.214   7.713   2.824
 4358TIP3   OH213016   6.817   6.600   5.456
 4358TIP3    H113017   6.848   6.509   5.458
 4358TIP3    H213018   6.810   6.625   5.549
 4359TIP3   OH213019   3.907   5.537   4.482
 4359TIP3    H113020   3.960   5.508   4.407
 4359TIP3    H213021   3.899   5.632   4.470
 4360TIP3   OH213022   0.044   0.914   6.567
 4360TIP3    H113023   0.129   0.948   6.540
 4360TIP3    H213024  -0.014   0.935   6.495
 4361TIP3   OH213025   4.353   3.049   2.478
 4361TIP3    H113026   4.389   3.120   2.531
 4361TIP3    H213027   4.269   3.082   2.447
 4362TIP3   OH213028   0.560   0.903   4.082
 4362TIP3    H113029   0.480   0.861   4.113
 4362TIP3    H213030   0.628   0.836   4.093
 4363TIP3   OH213031   0.855   2.124   6.517
 4363TIP3    H113032   0.867   2.214   6.548
 4363TIP3    H213033   0.771   2.097   6.553
 4364TIP3   OH213034   5.713   7.783   4.765
 4364TIP3    H113035   5.741   7.865   4.806
 4364TIP3    H213036   5.624   7.769   4.798
 4365TIP3   OH213037   2.623   1.102   4.766
 4365TIP3    H113038   2.649   1.021   4.812
 4365TIP3    H213039   2.600   1.073   4.678
 4366TIP3   OH213040   4.021   5.433   3.020
 4366TIP3    H113041   4.056   5.521   3.020
 4366TIP3    H213042   3.950   5.435   2.956
 4367TIP3   OH213043   6.323   7.643   0.368
 4367TIP3    H113044   6.319   7.676   0.458
 4367TIP3    H213045   6.402   7.682   0.331
 4368TIP3   OH213046   2.633   6.366   6.107
 4368TIP3    H113047   2.588   6.411   6.036
 4368TIP3    H213048   2.574   6.373   6.182
 4369TIP3   OH213049   7.086   6.773   3.691
 4369TIP3    H113050   7.032   6.799   3.616
 4369TIP3    H213051   7.035   6.800   3.767
 4370TIP3   OH213052   0.095   7.435   1.871
 4370TIP3    H113053   0.002   7.439   1.848
 4370TIP3    H213054   0.104   7.497   1.944
 4371TIP3   OH213055   1.051   2.091   3.249
 4371TIP3    H113056   1.076   2.091   3.157
 4371TIP3    H213057   1.012   2.005   3.264
 4372TIP3   OH213058   4.078   1.758   6.067
 4372TIP3    H113059   4.069   1.715   5.982
 4372TIP3    H213060   4.030   1.840   6.058
 4373TIP3   OH213061   5.797   3.511   0.210
 4373TIP3    H113062   5.834   3.424   0.198
 4373TIP3    H213063   5.828   3.561   0.134
 4374TIP3   OH213064   4.926   6.605   3.996
 4374TIP3    H113065   4.971   6.690   3.994
 4374TIP3    H213066   4.898   6.591   3.906
 4375TIP3   OH213067   4.832   5.684   6.173
 4375TIP3    H113068   4.809   5.604   6.220
 4375TIP3    H213069   4.903   5.723   6.224
 4376TIP3   OH213070   5.029   6.384   3.474
 4376TIP3    H113071   4.950   6.358   3.522
 4376TIP3    H213072   5.060   6.462   3.519
 4377TIP3   OH213073   3.128   0.609   6.542
 4377TIP3    H113074   3.186   0.665   6.491
 4377TIP3    H213075   3.140   0.522   6.503
 4378TIP3   OH213076   8.100   1.149   1.764
 4378TIP3    H113077   8.026   1.089   1.770
 4378TIP3    H213078   8.159   1.121   1.835
 4379TIP3   OH213079   8.004   3.772   4.853
 4379TIP3    H113080   7.990   3.679   4.834
 4379TIP3    H213081   8.057   3.804   4.780
 4380TIP3   OH213082   3.741   1.083   6.507
 4380TIP3    H113083   3.770   1.040   6.588
 4380TIP3    H213084   3.731   1.175   6.531
 4381TIP3   OH213085   4.410   5.487   3.797
 4381TIP3    H113086   4.375   5.468   3.710
 4381TIP3    H213087   4.468   5.561   3.784
 4382TIP3   OH213088   5.622   0.751   0.215
 4382TIP3    H113089   5.636   0.845   0.211
 4382TIP3    H213090   5.554   0.734   0.149
 4383TIP3   OH213091   2.058   5.019   1.654
 4383TIP3    H113092   2.084   4.953   1.590
 4383TIP3    H213093   2.021   5.090   1.601
 4384TIP3   OH213094   2.060   6.426   0.144
 4384TIP3    H113095   2.122   6.353   0.145
 4384TIP3    H213096   2.102   6.493   0.199
 4385TIP3   OH213097   2.066   3.168   3.494
 4385TIP3    H113098   1.988   3.157   3.549
 4385TIP3    H213099   2.095   3.079   3.476
 4386TIP3   OH213100   7.804   2.219   0.334
 4386TIP3    H113101   7.785   2.288   0.270
 4386TIP3    H213102   7.827   2.267   0.414
 4387TIP3   OH213103   5.190   2.565   0.660
 4387TIP3    H113104   5.114   2.509   0.646
 4387TIP3    H213105   5.156   2.642   0.705
 4388TIP3   OH213106   7.206   2.830   2.033
 4388TIP3    H113107   7.301   2.817   2.034
 4388TIP3    H213108   7.172   2.753   2.080
 4389TIP3   OH213109   5.132   4.033   4.229
 4389TIP3    H113110   5.067   4.027   4.299
 4389TIP3    H213111   5.214   4.009   4.271
 4390TIP3   OH213112   3.540   3.170   0.561
 4390TIP3    H113113   3.495   3.217   0.631
 4390TIP3    H213114   3.521   3.078   0.577
 4391TIP3   OH213115   5.613   0.667   2.817
 4391TIP3    H113116   5.690   0.720   2.797
 4391TIP3    H213117   5.647   0.577   2.824
 4392TIP3   OH213118   7.922   4.564   6.301
 4392TIP3    H113119   8.010   4.588   6.330
 4392TIP3    H213120   7.866   4.633   6.338
 4393TIP3   OH213121   3.610   6.004   3.235
 4393TIP3    H113122   3.560   6.079   3.268
 4393TIP3    H213123   3.556   5.969   3.164
 4394TIP3   OH213124   0.566   1.291   4.139
 4394TIP3    H113125   0.614   1.255   4.065
 4394TIP3    H213126   0.588   1.384   4.139
 4395TIP3   OH213127   6.153   3.863   3.428
 4395TIP3    H113128   6.107   3.875   3.511
 4395TIP3    H213129   6.089   3.890   3.361
 4396TIP3   OH213130   1.804   4.842   0.603
 4396TIP3    H113131   1.817   4.812   0.513
 4396TIP3    H213132   1.734   4.785   0.637
 4397TIP3   OH213133   4.308   1.835   0.878
 4397TIP3    H113134   4.323   1.930   0.884
 4397TIP3    H213135   4.346   1.800   0.959
 4398TIP3   OH213136   7.496   0.745   3.299
 4398TIP3    H113137   7.464   0.833   3.279
 4398TIP3    H213138   7.437   0.713   3.368
 4399TIP3   OH213139   5.557   1.440   3.214
 4399TIP3    H113140   5.570   1.425   3.120
 4399TIP3    H213141   5.540   1.353   3.250
 4400TIP3   OH213142   0.287   6.135   5.487
 4400TIP3    H113143   0.352   6.147   5.419
 4400TIP3    H213144   0.325   6.176   5.565
 4401TIP3   OH213145   4.062   0.363   0.715
 4401TIP3    H113146   3.981   0.380   0.668
 4401TIP3    H213147   4.035   0.318   0.795
 4402TIP3   OH213148   5.218   6.892   0.894
 4402TIP3    H113149   5.165   6.959   0.851
 4402TIP3    H213150   5.307   6.910   0.867
 4403TIP3   OH213151   7.168   6.460   4.760
 4403TIP3    H113152   7.155   6.491   4.850
 4403TIP3    H213153   7.169   6.540   4.707
 4404TIP3   OH213154   0.669   2.241   5.313
 4404TIP3    H113155   0.577   2.218   5.327
 4404TIP3    H213156   0.687   2.308   5.379
 4405TIP3   OH213157   6.135   6.318   1.857
 4405TIP3    H113158   6.222   6.282   1.873
 4405TIP3    H213159   6.141   6.359   1.770
 4406TIP3   OH213160   2.021   3.076   1.954
 4406TIP3    H113161   2.024   2.982   1.970
 4406TIP3    H213162   2.106   3.096   1.915
 4407TIP3   OH213163   6.164   7.110   3.188
 4407TIP3    H113164   6.143   7.137   3.099
 4407TIP3    H213165   6.172   7.015   3.183
 4408TIP3   OH213166   3.303   2.517   2.866
 4408TIP3    H113167   3.393   2.539   2.841
 4408TIP3    H213168   3.300   2.421   2.865
 4409TIP3   OH213169   5.958   1.315   4.938
 4409TIP3    H113170   6.052   1.299   4.928
 4409TIP3    H213171   5.940   1.300   5.030
 4410TIP3   OH213172   5.330   0.511   0.710
 4410TIP3    H113173   5.287   0.555   0.783
 4410TIP3    H213174   5.274   0.527   0.634
 4411TIP3   OH213175   6.742   1.304   6.123
 4411TIP3    H113176   6.684   1.248   6.173
 4411TIP3    H213177   6.830   1.285   6.157
 4412TIP3   OH213178   7.737   6.985   0.031
 4412TIP3    H113179   7.778   7.022  -0.047
 4412TIP3    H213180   7.753   7.050   0.099
 4413TIP3   OH213181   7.273   2.003   4.730
 4413TIP3    H113182   7.346   2.047   4.775
 4413TIP3    H213183   7.232   1.949   4.798
 4414TIP3   OH213184   1.427   0.125   6.128
 4414TIP3    H113185   1.459   0.213   6.150
 4414TIP3    H213186   1.406   0.130   6.035
 4415TIP3   OH213187   2.006   0.562   4.247
 4415TIP3    H113188   1.987   0.495   4.181
 4415TIP3    H213189   1.954   0.637   4.221
 4416TIP3   OH213190   5.172   0.157   3.267
 4416TIP3    H113191   5.166   0.062   3.272
 4416TIP3    H213192   5.143   0.179   3.179
 4417TIP3   OH213193   2.558   6.729   5.761
 4417TIP3    H113194   2.486   6.729   5.697
 4417TIP3    H213195   2.599   6.815   5.750
 4418TIP3   OH213196   3.165   2.595   6.126
 4418TIP3    H113197   3.079   2.635   6.113
 4418TIP3    H213198   3.148   2.501   6.131
 4419TIP3   OH213199   6.683   1.403   6.531
 4419TIP3    H113200   6.749   1.430   6.467
 4419TIP3    H213201   6.690   1.307   6.534
 4420TIP3   OH213202   3.012   3.538   4.878
 4420TIP3    H113203   3.042   3.449   4.862
 4420TIP3    H213204   2.937   3.528   4.937
 4421TIP3   OH213205   4.389   4.615   3.325
 4421TIP3    H113206   4.399   4.623   3.230
 4421TIP3    H213207   4.447   4.684   3.360
 4422TIP3   OH213208   7.182   0.788   2.012
 4422TIP3    H113209   7.221   0.822   1.931
 4422TIP3    H213210   7.237   0.822   2.082
 4423TIP3   OH213211   7.273   6.504   0.775
 4423TIP3    H113212   7.184   6.469   0.769
 4423TIP3    H213213   7.262   6.591   0.812
 4424TIP3   OH213214   0.172   2.009   5.510
 4424TIP3    H113215   0.151   2.074   5.576
 4424TIP3    H213216   0.116   2.031   5.436
 4425TIP3   OH213217   4.532   4.347   1.981
 4425TIP3    H113218   4.570   4.302   2.057
 4425TIP3    H213219   4.606   4.391   1.940
 4426TIP3   OH213220   4.290   6.825   0.272
 4426TIP3    H113221   4.367   6.863   0.230
 4426TIP3    H213222   4.233   6.799   0.200
 4427TIP3   OH213223   1.338   1.477   2.296
 4427TIP3    H113224   1.425   1.437   2.306
 4427TIP3    H213225   1.282   1.430   2.358
 4428TIP3   OH213226   5.741   5.231   1.786
 4428TIP3    H113227   5.815   5.224   1.845
 4428TIP3    H213228   5.769   5.185   1.707
 4429TIP3   OH213229   6.082   7.343   4.707
 4429TIP3    H113230   6.062   7.371   4.617
 4429TIP3    H213231   6.047   7.413   4.762
 4430TIP3   OH213232   2.428   0.110   3.076
 4430TIP3    H113233   2.467   0.035   3.032
 4430TIP3    H213234   2.363   0.072   3.136
 4431TIP3   OH213235   5.464   1.653   4.548
 4431TIP3    H113236   5.412   1.573   4.557
 4431TIP3    H213237   5.553   1.622   4.530
 4432TIP3   OH213238   2.264   2.601   4.309
 4432TIP3    H113239   2.215   2.606   4.391
 4432TIP3    H213240   2.333   2.537   4.325
 4433TIP3   OH213241   4.514   4.318   5.340
 4433TIP3    H113242   4.449   4.284   5.401
 4433TIP3    H213243   4.532   4.245   5.280
 4434TIP3   OH213244   7.089   3.282   6.110
 4434TIP3    H113245   7.043   3.257   6.190
 4434TIP3    H213246   7.022   3.279   6.042
 4435TIP3   OH213247   3.602   7.762   6.405
 4435TIP3    H113248   3.689   7.722   6.404
 4435TIP3    H213249   3.544   7.694   6.370
 4436TIP3   OH213250   3.934   2.087   1.928
 4436TIP3    H113251   3.860   2.143   1.903
 4436TIP3    H213252   3.956   2.114   2.017
 4437TIP3   OH213253   6.029   7.676   3.214
 4437TIP3    H113254   6.094   7.676   3.143
 4437TIP3    H213255   6.035   7.764   3.251
 4438TIP3   OH213256   0.565   0.729   5.763
 4438TIP3    H113257   0.588   0.695   5.677
 4438TIP3    H213258   0.470   0.744   5.758
 4439TIP3   OH213259   7.367   1.850   0.481
 4439TIP3    H113260   7.349   1.760   0.455
 4439TIP3    H213261   7.457   1.848   0.515
 4440TIP3   OH213262   3.044   1.841   0.608
 4440TIP3    H113263   3.047   1.927   0.565
 4440TIP3    H213264   2.951   1.818   0.608
 4441TIP3   OH213265   3.850   5.988   5.108
 4441TIP3    H113266   3.867   6.036   5.027
 4441TIP3    H213267   3.897   6.037   5.176
 4442TIP3   OH213268   3.422   0.582   1.380
 4442TIP3    H113269   3.455   0.521   1.314
 4442TIP3    H213270   3.359   0.637   1.333
 4443TIP3   OH213271   6.489   1.851   2.910
 4443TIP3    H113272   6.494   1.917   2.842
 4443TIP3    H213273   6.539   1.886   2.983
 4444TIP3   OH213274   1.374   2.271   2.213
 4444TIP3    H113275   1.367   2.321   2.294
 4444TIP3    H213276   1.291   2.223   2.207
 4445TIP3   OH213277   1.195   5.337   0.334
 4445TIP3    H113278   1.161   5.424   0.312
 4445TIP3    H213279   1.205   5.294   0.249
 4446TIP3   OH213280   5.826   2.853   6.470
 4446TIP3    H113281   5.904   2.820   6.514
 4446TIP3    H213282   5.838   2.831   6.378
 4447TIP3   OH213283   3.265   7.041   3.626
 4447TIP3    H113284   3.342   7.032   3.682
 4447TIP3    H213285   3.301   7.062   3.539
 4448TIP3   OH213286   5.634   7.346   6.049
 4448TIP3    H113287   5.576   7.411   6.091
 4448TIP3    H213288   5.650   7.381   5.962
 4449TIP3   OH213289   6.055   4.129   0.323
 4449TIP3    H113290   5.968   4.123   0.284
 4449TIP3    H213291   6.114   4.099   0.254
 4450TIP3   OH213292   6.365   1.982   5.791
 4450TIP3    H113293   6.286   2.019   5.751
 4450TIP3    H213294   6.420   2.057   5.811
 4451TIP3   OH213295   3.992   1.073   3.936
 4451TIP3    H113296   3.973   1.007   4.004
 4451TIP3    H213297   3.944   1.042   3.859
 4452TIP3   OH213298   0.076   1.198   1.741
 4452TIP3    H113299  -0.020   1.201   1.732
 4452TIP3    H213300   0.102   1.121   1.689
 4453TIP3   OH213301   5.946   6.278   2.360
 4453TIP3    H113302   5.882   6.219   2.320
 4453TIP3    H213303   5.893   6.347   2.401
 4454TIP3   OH213304   2.632   6.558   3.220
 4454TIP3    H113305   2.542   6.541   3.194
 4454TIP3    H213306   2.666   6.472   3.245
 4455TIP3   OH213307   0.865   3.058   2.481
 4455TIP3    H113308   0.786   3.004   2.472
 4455TIP3    H213309   0.837   3.146   2.456
 4456TIP3   OH213310   4.086   6.013   4.424
 4456TIP3    H113311   4.040   5.991   4.343
 4456TIP3    H213312   4.138   6.090   4.402
 4457TIP3   OH213313   0.557   1.069   6.129
 4457TIP3    H113314   0.625   1.121   6.170
 4457TIP3    H213315   0.585   1.060   6.037
 4458TIP3   OH213316   8.191   1.811   5.611
 4458TIP3    H113317   8.143   1.885   5.573
 4458TIP3    H213318   8.187   1.826   5.705
 4459TIP3   OH213319   6.036   4.366   4.786
 4459TIP3    H113320   5.962   4.318   4.749
 4459TIP3    H213321   6.019   4.367   4.880
 4460TIP3   OH213322   3.520   6.151   6.514
 4460TIP3    H113323   3.599   6.155   6.461
 4460TIP3    H213324   3.499   6.243   6.533
 4461TIP3   OH213325   5.043   2.821   2.232
 4461TIP3    H113326   4.993   2.747   2.198
 4461TIP3    H213327   5.000   2.842   2.315
 4462TIP3   OH213328   4.492   4.287   1.285
 4462TIP3    H113329   4.517   4.376   1.259
 4462TIP3    H213330   4.445   4.299   1.368
 4463TIP3   OH213331   6.852   0.149   0.469
 4463TIP3    H113332   6.765   0.181   0.493
 4463TIP3    H213333   6.906   0.166   0.546
 4464TIP3   OH213334   4.232   7.173   5.090
 4464TIP3    H113335   4.175   7.137   5.022
 4464TIP3    H213336   4.250   7.262   5.063
 4465TIP3   OH213337   2.043   2.062   0.303
 4465TIP3    H113338   2.008   2.090   0.388
 4465TIP3    H213339   1.989   2.107   0.239
 4466TIP3   OH213340   4.317   1.993   1.183
 4466TIP3    H113341   4.384   2.005   1.250
 4466TIP3    H213342   4.360   2.019   1.101
 4467TIP3   OH213343   6.685   5.971   6.406
 4467TIP3    H113344   6.621   5.899   6.402
 4467TIP3    H213345   6.661   6.028   6.333
 4468TIP3   OH213346   5.874   0.608   5.433
 4468TIP3    H113347   5.919   0.570   5.357
 4468TIP3    H213348   5.921   0.689   5.452
 4469TIP3   OH213349   6.882   5.948   6.219
 4469TIP3    H113350   6.842   5.936   6.305
 4469TIP3    H213351   6.868   5.865   6.174
 4470TIP3   OH213352   5.619   0.686   5.348
 4470TIP3    H113353   5.709   0.666   5.375
 4470TIP3    H213354   5.578   0.720   5.428
 4471TIP3   OH213355   2.762   4.261   2.755
 4471TIP3    H113356   2.691   4.324   2.742
 4471TIP3    H213357   2.721   4.188   2.802
 4472TIP3   OH213358   7.861   3.481   0.861
 4472TIP3    H113359   7.867   3.570   0.896
 4472TIP3    H213360   7.951   3.450   0.859
 4473TIP3   OH213361   2.365   5.871   5.957
 4473TIP3    H113362   2.332   5.912   6.037
 4473TIP3    H213363   2.438   5.927   5.930
 4474TIP3   OH213364   1.391   0.271   3.604
 4474TIP3    H113365   1.434   0.276   3.518
 4474TIP3    H213366   1.307   0.315   3.591
 4475TIP3   OH213367   7.255   4.480   0.091
 4475TIP3    H113368   7.228   4.488   0.000
 4475TIP3    H213369   7.226   4.561   0.133
 4476TIP3   OH213370   0.747   2.209   0.741
 4476TIP3    H113371   0.743   2.221   0.836
 4476TIP3    H213372   0.823   2.260   0.713
 4477TIP3   OH213373   2.071   1.166   3.414
 4477TIP3    H113374   2.131   1.104   3.372
 4477TIP3    H213375   2.067   1.240   3.352
 4478TIP3   OH213376   6.156   7.221   0.287
 4478TIP3    H113377   6.075   7.200   0.240
 4478TIP3    H213378   6.226   7.202   0.224
 4479TIP3   OH213379   2.085   3.572   0.721
 4479TIP3    H113380   2.049   3.496   0.676
 4479TIP3    H213381   2.087   3.641   0.654
 4480TIP3   OH213382   3.263   2.261   2.958
 4480TIP3    H113383   3.226   2.228   3.040
 4480TIP3    H213384   3.315   2.188   2.924
 4481TIP3   OH213385   6.401   4.323   2.319
 4481TIP3    H113386   6.481   4.377   2.314
 4481TIP3    H213387   6.390   4.305   2.413
 4482TIP3   OH213388   2.124   5.855   4.570
 4482TIP3    H113389   2.203   5.815   4.532
 4482TIP3    H213390   2.149   5.875   4.661
 4483TIP3   OH213391   4.356   3.331   1.667
 4483TIP3    H113392   4.421   3.399   1.681
 4483TIP3    H213393   4.294   3.369   1.604
 4484TIP3   OH213394   0.067   3.795   3.379
 4484TIP3    H113395  -0.014   3.798   3.429
 4484TIP3    H213396   0.083   3.702   3.364
 4485TIP3   OH213397   4.357   5.962   4.992
 4485TIP3    H113398   4.414   5.888   5.013
 4485TIP3    H213399   4.275   5.943   5.038
 4486TIP3   OH213400   2.681   3.003   6.801
 4486TIP3    H113401   2.718   2.949   6.871
 4486TIP3    H213402   2.752   3.061   6.775
 4487TIP3   OH213403   7.098   6.880   6.387
 4487TIP3    H113404   7.019   6.872   6.335
 4487TIP3    H213405   7.161   6.923   6.329
 4488TIP3   OH213406   3.178   4.651   6.669
 4488TIP3    H113407   3.224   4.610   6.596
 4488TIP3    H213408   3.180   4.745   6.649
 4489TIP3   OH213409   5.040   6.177   1.792
 4489TIP3    H113410   4.991   6.167   1.873
 4489TIP3    H213411   5.131   6.191   1.820
 4490TIP3   OH213412   7.862   2.640   4.979
 4490TIP3    H113413   7.867   2.621   4.885
 4490TIP3    H213414   7.823   2.727   4.983
 4491TIP3   OH213415   0.084   0.819   2.731
 4491TIP3    H113416   0.119   0.812   2.820
 4491TIP3    H213417   0.034   0.900   2.731
 4492TIP3   OH213418   6.673   0.117   1.119
 4492TIP3    H113419   6.666   0.056   1.192
 4492TIP3    H213420   6.748   0.085   1.068
 4493TIP3   OH213421   7.374   1.993   3.942
 4493TIP3    H113422   7.324   2.002   3.862
 4493TIP3    H213423   7.461   1.964   3.913
 4494TIP3   OH213424   5.964   0.459   2.452
 4494TIP3    H113425   6.018   0.423   2.523
 4494TIP3    H213426   5.996   0.548   2.439
 4495TIP3   OH213427   7.631   6.121   2.583
 4495TIP3    H113428   7.653   6.149   2.494
 4495TIP3    H213429   7.657   6.029   2.585
 4496TIP3   OH213430   7.182   5.107   4.157
 4496TIP3    H113431   7.228   5.144   4.082
 4496TIP3    H213432   7.251   5.074   4.215
 4497TIP3   OH213433   4.594   0.293   1.458
 4497TIP3    H113434   4.633   0.208   1.478
 4497TIP3    H213435   4.660   0.357   1.483
 4498TIP3   OH213436   2.548   3.029   1.445
 4498TIP3    H113437   2.515   2.947   1.482
 4498TIP3    H213438   2.521   3.026   1.353
 4499TIP3   OH213439   0.397   2.843   5.857
 4499TIP3    H113440   0.427   2.808   5.941
 4499TIP3    H213441   0.416   2.936   5.862
 4500TIP3   OH213442   7.086   7.319   2.466
 4500TIP3    H113443   7.040   7.400   2.489
 4500TIP3    H213444   7.123   7.288   2.549
 4501TIP3   OH213445   0.291   6.082   5.896
 4501TIP3    H113446   0.335   6.002   5.926
 4501TIP3    H213447   0.346   6.114   5.825
 4502TIP3   OH213448   3.966   3.126   1.011
 4502TIP3    H113449   3.953   3.181   0.934
 4502TIP3    H213450   4.061   3.115   1.017
 4503TIP3   OH213451   3.441   2.826   3.931
 4503TIP3    H113452   3.436   2.788   4.019
 4503TIP3    H213453   3.524   2.872   3.929
 4504TIP3   OH213454   7.356   1.896   1.933
 4504TIP3    H113455   7.331   1.804   1.931
 4504TIP3    H213456   7.366   1.916   2.026
 4505TIP3   OH213457   6.972   4.521   1.098
 4505TIP3    H113458   7.058   4.490   1.126
 4505TIP3    H213459   6.965   4.492   1.007
 4506TIP3   OH213460   5.387   5.086   4.116
 4506TIP3    H113461   5.452   5.025   4.151
 4506TIP3    H213462   5.334   5.034   4.056
 4507TIP3   OH213463   5.906   3.755   6.438
 4507TIP3    H113464   5.921   3.662   6.426
 4507TIP3    H213465   5.898   3.790   6.350
 4508TIP3   OH213466   7.410   1.376   5.499
 4508TIP3    H113467   7.344   1.320   5.540
 4508TIP3    H213468   7.479   1.385   5.564
 4509TIP3   OH213469   7.605   4.138   4.577
 4509TIP3    H113470   7.514   4.120   4.558
 4509TIP3    H213471   7.616   4.231   4.556
 4510TIP3   OH213472   5.272   2.056   5.659
 4510TIP3    H113473   5.320   2.016   5.731
 4510TIP3    H213474   5.180   2.034   5.675
 4511TIP3   OH213475   5.485   6.907   2.494
 4511TIP3    H113476   5.541   6.949   2.428
 4511TIP3    H213477   5.402   6.953   2.487
 4512TIP3   OH213478   4.170   0.883   2.129
 4512TIP3    H113479   4.107   0.811   2.125
 4512TIP3    H213480   4.200   0.895   2.039
 4513TIP3   OH213481   2.213   7.277   2.400
 4513TIP3    H113482   2.244   7.198   2.445
 4513TIP3    H213483   2.293   7.328   2.383
 4514TIP3   OH213484   0.166   2.009   2.050
 4514TIP3    H113485   0.223   1.936   2.074
 4514TIP3    H213486   0.090   1.967   2.010
 4515TIP3   OH213487   4.407   3.695   5.047
 4515TIP3    H113488   4.331   3.753   5.056
 4515TIP3    H213489   4.377   3.611   5.081
 4516TIP3   OH213490   4.233   0.817   6.208
 4516TIP3    H113491   4.324   0.828   6.236
 4516TIP3    H213492   4.207   0.903   6.175
 4517TIP3   OH213493   8.019   0.927   3.548
 4517TIP3    H113494   7.961   0.988   3.503
 4517TIP3    H213495   8.105   0.941   3.509
 4518TIP3   OH213496   2.156   6.330   0.744
 4518TIP3    H113497   2.060   6.327   0.737
 4518TIP3    H213498   2.174   6.297   0.831
 4519TIP3   OH213499   8.137   5.347   5.599
 4519TIP3    H113500   8.043   5.365   5.591
 4519TIP3    H213501   8.164   5.397   5.676
 4520TIP3   OH213502   6.467   7.670   6.110
 4520TIP3    H113503   6.419   7.659   6.028
 4520TIP3    H213504   6.410   7.632   6.176
 4521TIP3   OH213505   7.160   3.755   5.729
 4521TIP3    H113506   7.183   3.811   5.803
 4521TIP3    H213507   7.088   3.701   5.761
 4522TIP3   OH213508   6.095   0.256   3.853
 4522TIP3    H113509   6.027   0.323   3.860
 4522TIP3    H213510   6.130   0.266   3.765
 4523TIP3   OH213511   8.190   0.320   2.055
 4523TIP3    H113512   8.219   0.314   1.964
 4523TIP3    H213513   8.095   0.309   2.051
 4524TIP3   OH213514   7.631   7.549   3.155
 4524TIP3    H113515   7.586   7.464   3.159
 4524TIP3    H213516   7.608   7.584   3.069
 4525TIP3   OH213517   6.522   6.860   4.222
 4525TIP3    H113518   6.521   6.952   4.248
 4525TIP3    H213519   6.508   6.812   4.304
 4526TIP3   OH213520   3.007   6.703   0.085
 4526TIP3    H113521   2.920   6.667   0.099
 4526TIP3    H213522   3.032   6.740   0.170
 4527TIP3   OH213523   6.915   6.178   0.618
 4527TIP3    H113524   6.902   6.084   0.601
 4527TIP3    H213525   6.878   6.192   0.705
 4528TIP3   OH213526   5.705   0.248   3.520
 4528TIP3    H113527   5.610   0.252   3.519
 4528TIP3    H213528   5.730   0.278   3.608
 4529TIP3   OH213529   2.760   3.746   3.850
 4529TIP3    H113530   2.700   3.692   3.900
 4529TIP3    H213531   2.845   3.734   3.892
 4530TIP3   OH213532   4.149   2.436   2.854
 4530TIP3    H113533   4.204   2.452   2.931
 4530TIP3    H213534   4.203   2.461   2.780
 4531TIP3   OH213535   1.209   6.984   3.759
 4531TIP3    H113536   1.248   6.930   3.691
 4531TIP3    H213537   1.267   6.974   3.834
 4532TIP3   OH213538   5.897   5.759   0.639
 4532TIP3    H113539   5.897   5.669   0.672
 4532TIP3    H213540   5.847   5.808   0.704
 4533TIP3   OH213541   7.742   0.356   4.398
 4533TIP3    H113542   7.806   0.368   4.328
 4533TIP3    H213543   7.737   0.261   4.410
 4534TIP3   OH213544   5.721   7.422   2.295
 4534TIP3    H113545   5.725   7.515   2.317
 4534TIP3    H213546   5.702   7.420   2.201
 4535TIP3   OH213547   5.229   2.901   1.885
 4535TIP3    H113548   5.219   2.848   1.965
 4535TIP3    H213549   5.229   2.991   1.916
 4536TIP3   OH213550   6.411   7.625   4.099
 4536TIP3    H113551   6.436   7.559   4.034
 4536TIP3    H213552   6.349   7.681   4.053
 4537TIP3   OH213553   3.386   2.842   5.116
 4537TIP3    H113554   3.354   2.853   5.205
 4537TIP3    H213555   3.474   2.881   5.116
 4538TIP3   OH213556   7.843   1.213   0.359
 4538TIP3    H113557   7.915   1.233   0.418
 4538TIP3    H213558   7.871   1.247   0.274
 4539TIP3   OH213559   4.641   4.973   3.020
 4539TIP3    H113560   4.589   4.974   3.100
 4539TIP3    H213561   4.634   4.882   2.989
 4540TIP3   OH213562   3.295   7.006   2.344
 4540TIP3    H113563   3.276   6.918   2.377
 4540TIP3    H213564   3.352   7.044   2.411
 4541TIP3   OH213565   3.351   0.234   0.373
 4541TIP3    H113566   3.294   0.296   0.417
 4541TIP3    H213567   3.411   0.289   0.322
 4542TIP3   OH213568   4.481   0.639   4.906
 4542TIP3    H113569   4.451   0.711   4.961
 4542TIP3    H213570   4.452   0.560   4.951
 4543TIP3   OH213571   6.827   3.459   6.323
 4543TIP3    H113572   6.825   3.507   6.405
 4543TIP3    H213573   6.877   3.380   6.342
 4544TIP3   OH213574   5.114   0.994   1.766
 4544TIP3    H113575   5.060   0.997   1.687
 4544TIP3    H213576   5.135   0.901   1.777
 4545TIP3   OH213577   2.241   6.414   5.901
 4545TIP3    H113578   2.230   6.499   5.945
 4545TIP3    H213579   2.167   6.409   5.840
 4546TIP3   OH213580   6.772   5.399   6.582
 4546TIP3    H113581   6.837   5.436   6.521
 4546TIP3    H213582   6.823   5.376   6.660
 4547TIP3   OH213583   4.870   7.217   0.793
 4547TIP3    H113584   4.777   7.193   0.790
 4547TIP3    H213585   4.903   7.175   0.872
 4548TIP3   OH213586   2.282   1.569   3.488
 4548TIP3    H113587   2.347   1.627   3.527
 4548TIP3    H213588   2.211   1.628   3.462
 4549TIP3   OH213589   4.743   2.421   3.514
 4549TIP3    H113590   4.797   2.486   3.558
 4549TIP3    H213591   4.662   2.418   3.565
 4550TIP3   OH213592   0.352   3.503   6.679
 4550TIP3    H113593   0.368   3.411   6.657
 4550TIP3    H213594   0.306   3.500   6.763
 4551TIP3   OH213595   2.395   0.426   2.540
 4551TIP3    H113596   2.426   0.382   2.461
 4551TIP3    H213597   2.378   0.516   2.513
 4552TIP3   OH213598   4.133   2.512   4.735
 4552TIP3    H113599   4.167   2.542   4.820
 4552TIP3    H213600   4.059   2.456   4.758
 4553TIP3   OH213601   6.202   6.310   3.416
 4553TIP3    H113602   6.159   6.374   3.474
 4553TIP3    H213603   6.143   6.235   3.415
 4554TIP3   OH213604   0.626   6.768   5.531
 4554TIP3    H113605   0.707   6.731   5.496
 4554TIP3    H213606   0.556   6.723   5.483
 4555TIP3   OH213607   2.171   4.263   2.801
 4555TIP3    H113608   2.123   4.182   2.786
 4555TIP3    H213609   2.143   4.321   2.731
 4556TIP3   OH213610   2.766   2.067   2.992
 4556TIP3    H113611   2.695   2.014   3.029
 4556TIP3    H213612   2.845   2.013   3.004
 4557TIP3   OH213613   1.585   4.145   2.929
 4557TIP3    H113614   1.516   4.084   2.957
 4557TIP3    H213615   1.614   4.112   2.845
 4558TIP3   OH213616   0.631   0.445  -0.031
 4558TIP3    H113617   0.583   0.389   0.030
 4558TIP3    H213618   0.578   0.445  -0.111
 4559TIP3   OH213619   4.361   2.537   0.879
 4559TIP3    H113620   4.293   2.515   0.816
 4559TIP3    H213621   4.372   2.632   0.871
 4560TIP3   OH213622   1.303   0.130   2.959
 4560TIP3    H113623   1.294   0.196   2.891
 4560TIP3    H213624   1.216   0.089   2.965
 4561TIP3   OH213625   6.536   3.240   6.090
 4561TIP3    H113626   6.558   3.171   6.027
 4561TIP3    H213627   6.566   3.206   6.174
 4562TIP3   OH213628   5.283   2.394   0.152
 4562TIP3    H113629   5.291   2.466   0.215
 4562TIP3    H213630   5.221   2.334   0.192
 4563TIP3   OH213631   7.302   0.910   1.798
 4563TIP3    H113632   7.360   0.881   1.727
 4563TIP3    H213633   7.283   1.001   1.779
 4564TIP3   OH213634   2.856   0.768   5.749
 4564TIP3    H113635   2.865   0.722   5.832
 4564TIP3    H213636   2.900   0.852   5.762
 4565TIP3   OH213637   5.492   2.553   5.278
 4565TIP3    H113638   5.514   2.465   5.309
 4565TIP3    H213639   5.539   2.561   5.195
 4566TIP3   OH213640   4.672   1.204   3.837
 4566TIP3    H113641   4.581   1.234   3.835
 4566TIP3    H213642   4.679   1.146   3.761
 4567TIP3   OH213643   2.854   2.247   4.270
 4567TIP3    H113644   2.801   2.231   4.349
 4567TIP3    H213645   2.814   2.325   4.230
 4568TIP3   OH213646   0.017   0.421   3.528
 4568TIP3    H113647  -0.040   0.409   3.452
 4568TIP3    H213648   0.048   0.333   3.549
 4569TIP3   OH213649   3.782   2.906   6.538
 4569TIP3    H113650   3.809   2.827   6.585
 4569TIP3    H213651   3.687   2.902   6.537
 4570TIP3   OH213652   2.959   1.958   4.209
 4570TIP3    H113653   2.939   1.902   4.134
 4570TIP3    H213654   2.896   2.030   4.203
 4571TIP3   OH213655   3.566   2.259   4.057
 4571TIP3    H113656   3.484   2.308   4.047
 4571TIP3    H213657   3.590   2.234   3.967
 4572TIP3   OH213658   0.146   4.311   1.744
 4572TIP3    H113659   0.092   4.390   1.735
 4572TIP3    H213660   0.086   4.239   1.725
 4573TIP3   OH213661   7.147   3.356   0.742
 4573TIP3    H113662   7.231   3.394   0.767
 4573TIP3    H213663   7.144   3.271   0.786
 4574TIP3   OH213664   7.107   7.127   3.863
 4574TIP3    H113665   7.069   7.192   3.922
 4574TIP3    H213666   7.100   7.045   3.912
 4575TIP3   OH213667   7.695   7.061   2.866
 4575TIP3    H113668   7.721   7.023   2.782
 4575TIP3    H213669   7.743   7.144   2.870
 4576TIP3   OH213670   6.225   1.853   0.941
 4576TIP3    H113671   6.226   1.764   0.979
 4576TIP3    H213672   6.257   1.841   0.852
 4577TIP3   OH213673   1.593   3.847   2.293
 4577TIP3    H113674   1.607   3.770   2.348
 4577TIP3    H213675   1.544   3.814   2.217
 4578TIP3   OH213676   1.053   2.694   4.680
 4578TIP3    H113677   1.054   2.755   4.754
 4578TIP3    H213678   1.104   2.619   4.709
 4579TIP3   OH213679   4.390   3.289   2.335
 4579TIP3    H113680   4.464   3.228   2.338
 4579TIP3    H213681   4.367   3.294   2.242
 4580TIP3   OH213682   6.734   5.400   2.479
 4580TIP3    H113683   6.645   5.384   2.512
 4580TIP3    H213684   6.734   5.361   2.392
 4581TIP3   OH213685   6.961   0.635   6.742
 4581TIP3    H113686   6.985   0.558   6.690
 4581TIP3    H213687   6.873   0.616   6.774
 4582TIP3   OH213688   1.161   5.513   4.987
 4582TIP3    H113689   1.236   5.570   5.006
 4582TIP3    H213690   1.104   5.567   4.932
 4583TIP3   OH213691   2.056   5.716   6.481
 4583TIP3    H113692   2.017   5.761   6.407
 4583TIP3    H213693   2.041   5.774   6.556
 4584TIP3   OH213694   0.249   7.675   2.260
 4584TIP3    H113695   0.165   7.657   2.218
 4584TIP3    H213696   0.257   7.771   2.257
 4585TIP3   OH213697   2.777   1.842   2.210
 4585TIP3    H113698   2.693   1.819   2.170
 4585TIP3    H213699   2.770   1.812   2.300
 4586TIP3   OH213700   7.105   4.110   2.290
 4586TIP3    H113701   7.115   4.129   2.383
 4586TIP3    H213702   7.016   4.139   2.270
 4587TIP3   OH213703   1.936   6.357   3.603
 4587TIP3    H113704   2.013   6.342   3.548
 4587TIP3    H213705   1.918   6.450   3.594
 4588TIP3   OH213706   4.219   2.322   4.002
 4588TIP3    H113707   4.310   2.297   3.985
 4588TIP3    H213708   4.167   2.251   3.964
 4589TIP3   OH213709   4.954   6.797   4.880
 4589TIP3    H113710   4.924   6.727   4.938
 4589TIP3    H213711   5.047   6.809   4.903
 4590TIP3   OH213712   6.801   1.314   2.525
 4590TIP3    H113713   6.759   1.384   2.575
 4590TIP3    H213714   6.838   1.358   2.448
 4591TIP3   OH213715   4.476   6.463   2.889
 4591TIP3    H113716   4.468   6.487   2.981
 4591TIP3    H213717   4.567   6.437   2.878
 4592TIP3   OH213718   7.678   1.782   2.544
 4592TIP3    H113719   7.599   1.730   2.561
 4592TIP3    H213720   7.713   1.803   2.630
 4593TIP3   OH213721   2.662   6.185   1.086
 4593TIP3    H113722   2.622   6.229   1.161
 4593TIP3    H213723   2.755   6.207   1.093
 4594TIP3   OH213724   4.842   0.412   1.571
 4594TIP3    H113725   4.861   0.415   1.664
 4594TIP3    H213726   4.913   0.362   1.533
 4595TIP3   OH213727   2.126   2.362   1.195
 4595TIP3    H113728   2.137   2.273   1.228
 4595TIP3    H213729   2.174   2.363   1.112
 4596TIP3   OH213730   5.811   1.282   3.745
 4596TIP3    H113731   5.821   1.187   3.759
 4596TIP3    H213732   5.780   1.289   3.655
 4597TIP3   OH213733   8.121   7.257   0.153
 4597TIP3    H113734   8.055   7.214   0.099
 4597TIP3    H213735   8.179   7.186   0.181
 4598TIP3   OH213736   5.791   1.181   5.826
 4598TIP3    H113737   5.845   1.123   5.773
 4598TIP3    H213738   5.847   1.258   5.842
 4599TIP3   OH213739   2.728   1.450   2.965
 4599TIP3    H113740   2.679   1.456   3.048
 4599TIP3    H213741   2.737   1.541   2.936
 4600TIP3   OH213742   6.323   2.247   6.356
 4600TIP3    H113743   6.279   2.256   6.271
 4600TIP3    H213744   6.416   2.255   6.335
 4601TIP3   OH213745   1.286   2.606   5.417
 4601TIP3    H113746   1.229   2.550   5.365
 4601TIP3    H213747   1.373   2.568   5.408
 4602TIP3   OH213748   3.288   7.192   6.016
 4602TIP3    H113749   3.351   7.142   5.964
 4602TIP3    H213750   3.256   7.129   6.081
 4603TIP3   OH213751   3.208   0.695   5.812
 4603TIP3    H113752   3.294   0.727   5.785
 4603TIP3    H213753   3.169   0.658   5.733
 4604TIP3   OH213754   5.071   2.155   5.307
 4604TIP3    H113755   5.057   2.067   5.342
 4604TIP3    H213756   5.161   2.177   5.332
 4605TIP3   OH213757   1.591   7.543   5.967
 4605TIP3    H113758   1.557   7.632   5.960
 4605TIP3    H213759   1.683   7.555   5.992
 4606TIP3   OH213760   5.611   2.571   2.914
 4606TIP3    H113761   5.705   2.554   2.915
 4606TIP3    H213762   5.579   2.526   2.993
 4607TIP3   OH213763   4.099  -0.054   3.738
 4607TIP3    H113764   4.193  -0.071   3.742
 4607TIP3    H213765   4.092   0.035   3.705
 4608TIP3   OH213766   4.176   4.461   6.002
 4608TIP3    H113767   4.269   4.479   6.016
 4608TIP3    H213768   4.163   4.373   6.040
 4609TIP3   OH213769   3.221   0.724   3.854
 4609TIP3    H113770   3.147   0.740   3.796
 4609TIP3    H213771   3.193   0.650   3.908
 4610TIP3   OH213772   7.820   5.231   6.616
 4610TIP3    H113773   7.761   5.226   6.541
 4610TIP3    H213774   7.894   5.175   6.592
 4611TIP3   OH213775   4.751   0.476   4.611
 4611TIP3    H113776   4.793   0.559   4.632
 4611TIP3    H213777   4.724   0.486   4.519
 4612TIP3   OH213778   4.804  -0.004   2.789
 4612TIP3    H113779   4.891  -0.023   2.756
 4612TIP3    H213780   4.788   0.087   2.765
 4613TIP3   OH213781   5.171   1.286   2.857
 4613TIP3    H113782   5.152   1.349   2.926
 4613TIP3    H213783   5.208   1.338   2.786
 4614TIP3   OH213784   3.303   6.665   1.694
 4614TIP3    H113785   3.232   6.679   1.632
 4614TIP3    H213786   3.259   6.646   1.777
 4615TIP3   OH213787   6.283   7.621   4.363
 4615TIP3    H113788   6.354   7.576   4.409
 4615TIP3    H213789   6.294   7.596   4.272
 4616TIP3   OH213790   4.435   5.077   1.947
 4616TIP3    H113791   4.489   5.111   2.019
 4616TIP3    H213792   4.396   5.155   1.908
 4617TIP3   OH213793   7.758   5.232   2.979
 4617TIP3    H113794   7.699   5.273   3.043
 4617TIP3    H213795   7.700   5.183   2.921
 4618TIP3   OH213796   5.872   2.044   2.402
 4618TIP3    H113797   5.946   2.105   2.407
 4618TIP3    H213798   5.837   2.041   2.491
 4619TIP3   OH213799   6.003   6.716   5.654
 4619TIP3    H113800   5.939   6.651   5.683
 4619TIP3    H213801   6.087   6.679   5.679
 4620TIP3   OH213802   3.883   0.731   4.854
 4620TIP3    H113803   3.973   0.762   4.859
 4620TIP3    H213804   3.851   0.765   4.770
 4621TIP3   OH213805   5.060   1.568   4.016
 4621TIP3    H113806   5.082   1.480   3.986
 4621TIP3    H213807   5.114   1.626   3.963
 4622TIP3   OH213808   7.123   4.989   5.266
 4622TIP3    H113809   7.170   4.906   5.254
 4622TIP3    H213810   7.082   5.005   5.180
 4623TIP3   OH213811   4.117   3.861   4.652
 4623TIP3    H113812   4.121   3.767   4.637
 4623TIP3    H213813   4.073   3.870   4.737
 4624TIP3   OH213814   4.991   7.365   1.196
 4624TIP3    H113815   5.071   7.316   1.212
 4624TIP3    H213816   5.020   7.449   1.159
 4625TIP3   OH213817   4.387   6.450   3.345
 4625TIP3    H113818   4.380   6.364   3.386
 4625TIP3    H213819   4.466   6.489   3.384
 4626TIP3   OH213820   4.063   5.720   1.719
 4626TIP3    H113821   3.987   5.671   1.689
 4626TIP3    H213822   4.045   5.811   1.695
 4627TIP3   OH213823   8.096   5.339   2.818
 4627TIP3    H113824   8.006   5.343   2.786
 4627TIP3    H213825   8.090   5.295   2.903
 4628TIP3   OH213826   0.868   2.623   6.019
 4628TIP3    H113827   0.952   2.579   6.022
 4628TIP3    H213828   0.859   2.665   6.104
 4629TIP3   OH213829   7.354   1.469   4.595
 4629TIP3    H113830   7.386   1.430   4.676
 4629TIP3    H213831   7.308   1.548   4.623
 4630TIP3   OH213832   4.860   1.250   2.720
 4630TIP3    H113833   4.837   1.168   2.763
 4630TIP3    H213834   4.859   1.315   2.791
 4631TIP3   OH213835   2.733   4.723   2.354
 4631TIP3    H113836   2.741   4.676   2.271
 4631TIP3    H213837   2.655   4.685   2.396
 4632TIP3   OH213838   7.687   1.483   5.964
 4632TIP3    H113839   7.605   1.502   6.010
 4632TIP3    H213840   7.732   1.567   5.958
 4633TIP3   OH213841   5.161   5.779   0.222
 4633TIP3    H113842   5.256   5.771   0.228
 4633TIP3    H213843   5.133   5.807   0.309
 4634TIP3   OH213844   4.817   0.740   4.647
 4634TIP3    H113845   4.746   0.785   4.601
 4634TIP3    H213846   4.847   0.804   4.713
 4635TIP3   OH213847   5.746   1.681   5.868
 4635TIP3    H113848   5.720   1.644   5.783
 4635TIP3    H213849   5.766   1.772   5.849
 4636TIP3   OH213850   5.356   2.459   4.308
 4636TIP3    H113851   5.281   2.498   4.353
 4636TIP3    H213852   5.341   2.365   4.312
 4637TIP3   OH213853   5.095   2.163   4.094
 4637TIP3    H113854   5.189   2.150   4.078
 4637TIP3    H213855   5.055   2.079   4.070
 4638TIP3   OH213856   6.245   3.841   4.006
 4638TIP3    H113857   6.262   3.870   3.916
 4638TIP3    H213858   6.150   3.835   4.012
 4639TIP3   OH213859   6.960   1.006   0.131
 4639TIP3    H113860   6.968   0.939   0.063
 4639TIP3    H213861   7.040   1.058   0.124
 4640TIP3   OH213862   4.493   0.308   1.757
 4640TIP3    H113863   4.519   0.226   1.716
 4640TIP3    H213864   4.398   0.313   1.743
 4641TIP3   OH213865   6.488   0.474   2.078
 4641TIP3    H113866   6.463   0.565   2.093
 4641TIP3    H213867   6.469   0.459   1.985
 4642TIP3   OH213868   3.543   1.600   4.946
 4642TIP3    H113869   3.525   1.685   4.906
 4642TIP3    H213870   3.464   1.548   4.930
 4643TIP3   OH213871   3.398   2.020   2.971
 4643TIP3    H113872   3.483   1.989   2.938
 4643TIP3    H213873   3.333   1.964   2.928
 4644TIP3   OH213874   6.775   5.001   5.732
 4644TIP3    H113875   6.777   5.096   5.717
 4644TIP3    H213876   6.815   4.990   5.818
 4645TIP3   OH213877   5.633   0.416   6.494
 4645TIP3    H113878   5.630   0.333   6.447
 4645TIP3    H213879   5.594   0.479   6.434
 4646TIP3   OH213880   0.176   4.602   4.629
 4646TIP3    H113881   0.189   4.696   4.642
 4646TIP3    H213882   0.114   4.596   4.556
 4647TIP3   OH213883   1.628   0.048   5.477
 4647TIP3    H113884   1.538   0.046   5.446
 4647TIP3    H213885   1.634  -0.023   5.540
 4648TIP3   OH213886   6.242   6.011   1.887
 4648TIP3    H113887   6.199   5.971   1.812
 4648TIP3    H213888   6.303   6.074   1.849
 4649TIP3   OH213889   1.012   2.258   2.580
 4649TIP3    H113890   1.075   2.320   2.544
 4649TIP3    H213891   1.064   2.201   2.637
 4650TIP3   OH213892   3.324   1.083   3.746
 4650TIP3    H113893   3.293   1.051   3.831
 4650TIP3    H213894   3.419   1.094   3.758
 4651TIP3   OH213895   6.591   5.466   1.644
 4651TIP3    H113896   6.538   5.396   1.682
 4651TIP3    H213897   6.528   5.524   1.601
 4652TIP3   OH213898   6.834   4.648   5.751
 4652TIP3    H113899   6.904   4.697   5.796
 4652TIP3    H213900   6.872   4.625   5.666
 4653TIP3   OH213901   7.265   7.127   0.968
 4653TIP3    H113902   7.299   7.216   0.965
 4653TIP3    H213903   7.288   7.096   1.055
 4654TIP3   OH213904   3.120   0.322   0.867
 4654TIP3    H113905   3.047   0.293   0.921
 4654TIP3    H213906   3.198   0.304   0.920
 4655TIP3   OH213907   6.752   5.597   3.139
 4655TIP3    H113908   6.807   5.566   3.067
 4655TIP3    H213909   6.813   5.622   3.208
 4656TIP3   OH213910   6.937   2.822   2.974
 4656TIP3    H113911   7.007   2.882   2.951
 4656TIP3    H213912   6.858   2.861   2.936
 4657TIP3   OH213913   7.639   5.515   1.441
 4657TIP3    H113914   7.615   5.465   1.363
 4657TIP3    H213915   7.596   5.599   1.429
 4658TIP3   OH213916   0.824   5.768   4.737
 4658TIP3    H113917   0.863   5.705   4.798
 4658TIP3    H213918   0.767   5.715   4.681
 4659TIP3   OH213919   4.508   7.038   4.333
 4659TIP3    H113920   4.489   7.035   4.427
 4659TIP3    H213921   4.539   7.127   4.318
 4660TIP3   OH213922   1.794   4.447   4.202
 4660TIP3    H113923   1.736   4.438   4.126
 4660TIP3    H213924   1.861   4.510   4.174
 4661TIP3   OH213925   0.140   0.697   5.492
 4661TIP3    H113926   0.092   0.628   5.445
 4661TIP3    H213927   0.094   0.777   5.470
 4662TIP3   OH213928   6.838   2.783   4.726
 4662TIP3    H113929   6.769   2.831   4.680
 4662TIP3    H213930   6.854   2.706   4.672
 4663TIP3   OH213931   0.280   4.076   4.512
 4663TIP3    H113932   0.335   4.082   4.589
 4663TIP3    H213933   0.250   3.985   4.511
 4664TIP3   OH213934   8.229   7.802   4.627
 4664TIP3    H113935   8.277   7.875   4.587
 4664TIP3    H213936   8.269   7.723   4.590
 4665TIP3   OH213937   3.160   6.618   4.032
 4665TIP3    H113938   3.245   6.583   4.001
 4665TIP3    H213939   3.175   6.712   4.042
 4666TIP3   OH213940   5.828   3.391   1.602
 4666TIP3    H113941   5.846   3.330   1.531
 4666TIP3    H213942   5.738   3.419   1.588
 4667TIP3   OH213943   7.539   0.375   4.167
 4667TIP3    H113944   7.473   0.306   4.172
 4667TIP3    H213945   7.578   0.379   4.254
 4668TIP3   OH213946   5.499   2.893   6.230
 4668TIP3    H113947   5.417   2.933   6.200
 4668TIP3    H213948   5.552   2.967   6.260
 4669TIP3   OH213949   6.513   6.429   5.641
 4669TIP3    H113950   6.555   6.364   5.697
 4669TIP3    H213951   6.531   6.513   5.684
 4670TIP3   OH213952   7.246   0.807   1.349
 4670TIP3    H113953   7.203   0.891   1.361
 4670TIP3    H213954   7.211   0.773   1.267
 4671TIP3   OH213955   6.131   6.780   2.187
 4671TIP3    H113956   6.094   6.808   2.103
 4671TIP3    H213957   6.137   6.684   2.178
 4672TIP3   OH213958   0.273   7.721   5.413
 4672TIP3    H113959   0.250   7.764   5.331
 4672TIP3    H213960   0.239   7.778   5.481
 4673TIP3   OH213961   0.885   1.557   2.670
 4673TIP3    H113962   0.912   1.483   2.725
 4673TIP3    H213963   0.962   1.615   2.669
 4674TIP3   OH213964   8.156   0.394   2.336
 4674TIP3    H113965   8.154   0.345   2.254
 4674TIP3    H213966   8.074   0.444   2.336
 4675TIP3   OH213967   3.392   0.149   5.971
 4675TIP3    H113968   3.325   0.216   5.955
 4675TIP3    H213969   3.386   0.132   6.065
 4676TIP3   OH213970   0.562   4.017   1.301
 4676TIP3    H113971   0.627   4.034   1.233
 4676TIP3    H213972   0.489   4.074   1.280
 4677TIP3   OH213973   3.671   0.548   4.707
 4677TIP3    H113974   3.756   0.519   4.674
 4677TIP3    H213975   3.645   0.617   4.646
 4678TIP3   OH213976   4.407   1.435   5.043
 4678TIP3    H113977   4.363   1.456   5.125
 4678TIP3    H213978   4.361   1.488   4.977
 4679TIP3   OH213979   1.322   0.439   1.312
 4679TIP3    H113980   1.388   0.403   1.370
 4679TIP3    H213981   1.248   0.379   1.319
 4680TIP3   OH213982   1.878   6.156   2.355
 4680TIP3    H113983   1.921   6.221   2.411
 4680TIP3    H213984   1.801   6.129   2.405
 4681TIP3   OH213985   2.710   4.398   0.508
 4681TIP3    H113986   2.729   4.310   0.475
 4681TIP3    H213987   2.746   4.457   0.442
 4682TIP3   OH213988   1.861   1.807   3.268
 4682TIP3    H113989   1.901   1.763   3.193
 4682TIP3    H213990   1.830   1.890   3.233
 4683TIP3   OH213991   0.355   6.820   4.349
 4683TIP3    H113992   0.356   6.770   4.267
 4683TIP3    H213993   0.433   6.876   4.344
 4684TIP3   OH213994   4.340   5.337   5.773
 4684TIP3    H113995   4.270   5.339   5.707
 4684TIP3    H213996   4.389   5.418   5.759
 4685TIP3   OH213997   3.837   5.110   6.107
 4685TIP3    H113998   3.817   5.016   6.107
 4685TIP3    H213999   3.918   5.118   6.157
 4686TIP3   OH214000   1.249   6.591   4.653
 4686TIP3    H114001   1.215   6.565   4.739
 4686TIP3    H214002   1.226   6.684   4.645
 4687TIP3   OH214003   2.357   1.264   5.810
 4687TIP3    H114004   2.408   1.272   5.891
 4687TIP3    H214005   2.278   1.217   5.836
 4688TIP3   OH214006   5.252   2.242   3.319
 4688TIP3    H114007   5.320   2.267   3.382
 4688TIP3    H214008   5.206   2.170   3.361
 4689TIP3   OH214009   3.723   0.066   6.489
 4689TIP3    H114010   3.724  -0.012   6.433
 4689TIP3    H214011   3.816   0.091   6.497
 4690TIP3   OH214012   6.720   4.123   0.792
 4690TIP3    H114013   6.650   4.189   0.792
 4690TIP3    H214014   6.675   4.041   0.771
 4691TIP3   OH214015   5.740   5.009   5.025
 4691TIP3    H114016   5.721   4.926   5.069
 4691TIP3    H214017   5.723   5.076   5.091
 4692TIP3   OH214018   6.457   5.331   0.938
 4692TIP3    H114019   6.548   5.322   0.911
 4692TIP3    H214020   6.429   5.241   0.955
 4693TIP3   OH214021   2.363   4.428   1.645
 4693TIP3    H114022   2.366   4.336   1.619
 4693TIP3    H214023   2.273   4.442   1.675
 4694TIP3   OH214024   5.441   3.573   4.813
 4694TIP3    H114025   5.445   3.485   4.776
 4694TIP3    H214026   5.517   3.577   4.872
 4695TIP3   OH214027   5.433   1.716   5.765
 4695TIP3    H114028   5.493   1.674   5.704
 4695TIP3    H214029   5.384   1.644   5.805
 4696TIP3   OH214030   5.550   1.343   0.797
 4696TIP3    H114031   5.558   1.414   0.733
 4696TIP3    H214032   5.472   1.295   0.769
 4697TIP3   OH214033   3.925   4.835   3.259
 4697TIP3    H114034   3.941   4.749   3.298
 4697TIP3    H214035   3.925   4.819   3.165
 4698TIP3   OH214036   1.215   3.728   3.377
 4698TIP3    H114037   1.288   3.785   3.403
 4698TIP3    H214038   1.195   3.677   3.456
 4699TIP3   OH214039   6.516   3.521   2.895
 4699TIP3    H114040   6.531   3.526   2.989
 4699TIP3    H214041   6.513   3.612   2.866
 4700TIP3   OH214042   1.296   3.766   4.309
 4700TIP3    H114043   1.314   3.860   4.316
 4700TIP3    H214044   1.243   3.758   4.230
 4701TIP3   OH214045   6.622   2.461   5.102
 4701TIP3    H114046   6.679   2.497   5.169
 4701TIP3    H214047   6.610   2.369   5.128
 4702TIP3   OH214048   3.363   5.445   4.985
 4702TIP3    H114049   3.317   5.444   4.902
 4702TIP3    H214050   3.445   5.491   4.967
 4703TIP3   OH214051   1.199   1.954   0.626
 4703TIP3    H114052   1.257   2.012   0.577
 4703TIP3    H214053   1.113   1.968   0.588
 4704TIP3   OH214054   3.328   1.758   5.233
 4704TIP3    H114055   3.400   1.787   5.178
 4704TIP3    H214056   3.304   1.672   5.199
 4705TIP3   OH214057   1.061   2.521   3.240
 4705TIP3    H114058   1.140   2.559   3.200
 4705TIP3    H214059   1.029   2.590   3.298
 4706TIP3   OH214060   7.784   1.445   2.017
 4706TIP3    H114061   7.784   1.465   2.111
 4706TIP3    H214062   7.874   1.462   1.990
 4707TIP3   OH214063   5.808   2.918   0.235
 4707TIP3    H114064   5.883   2.859   0.245
 4707TIP3    H214065   5.759   2.882   0.161
 4708TIP3   OH214066   0.428   4.891   0.402
 4708TIP3    H114067   0.449   4.973   0.357
 4708TIP3    H214068   0.351   4.858   0.357
 4709TIP3   OH214069   2.340   5.472   3.317
 4709TIP3    H114070   2.267   5.441   3.372
 4709TIP3    H214071   2.297   5.509   3.240
 4710TIP3   OH214072   1.934   7.673   4.118
 4710TIP3    H114073   1.989   7.705   4.190
 4710TIP3    H214074   1.951   7.579   4.115
 4711TIP3   OH214075   7.831   6.191   4.760
 4711TIP3    H114076   7.758   6.203   4.820
 4711TIP3    H214077   7.893   6.136   4.807
 4712TIP3   OH214078   2.883   4.586   4.149
 4712TIP3    H114079   2.897   4.557   4.058
 4712TIP3    H214080   2.810   4.647   4.144
 4713TIP3   OH214081   7.271   2.678   4.650
 4713TIP3    H114082   7.267   2.749   4.714
 4713TIP3    H214083   7.204   2.701   4.585
 4714TIP3   OH214084   4.655   5.593   2.375
 4714TIP3    H114085   4.728   5.597   2.313
 4714TIP3    H214086   4.582   5.633   2.329
 4715TIP3   OH214087   1.139   1.986   2.502
 4715TIP3    H114088   1.048   1.958   2.504
 4715TIP3    H214089   1.156   2.021   2.590
 4716TIP3   OH214090   5.876   7.509   4.893
 4716TIP3    H114091   5.784   7.493   4.915
 4716TIP3    H214092   5.886   7.604   4.900
 4717TIP3   OH214093   3.400   3.380   1.839
 4717TIP3    H114094   3.357   3.442   1.899
 4717TIP3    H214095   3.450   3.322   1.897
 4718TIP3   OH214096   8.105   7.005   5.788
 4718TIP3    H114097   8.162   6.949   5.841
 4718TIP3    H214098   8.146   7.092   5.794
 4719TIP3   OH214099   0.678   3.936   2.007
 4719TIP3    H114100   0.605   3.918   2.065
 4719TIP3    H214101   0.712   4.020   2.036
 4720TIP3   OH214102   8.112   5.005   2.846
 4720TIP3    H114103   8.159   5.042   2.772
 4720TIP3    H214104   8.160   4.924   2.867
 4721TIP3   OH214105   2.883   1.506   3.573
 4721TIP3    H114106   2.870   1.567   3.501
 4721TIP3    H214107   2.915   1.561   3.645
 4722TIP3   OH214108   7.446   7.399   6.545
 4722TIP3    H114109   7.514   7.455   6.509
 4722TIP3    H214110   7.364   7.445   6.526
 4723TIP3   OH214111   5.309   0.752   5.245
 4723TIP3    H114112   5.377   0.695   5.279
 4723TIP3    H214113   5.282   0.806   5.320
 4724TIP3   OH214114   7.377   3.534   2.665
 4724TIP3    H114115   7.350   3.444   2.680
 4724TIP3    H214116   7.295   3.583   2.658
 4725TIP3   OH214117   7.298   3.352   2.036
 4725TIP3    H114118   7.260   3.276   2.079
 4725TIP3    H214119   7.390   3.350   2.061
 4726TIP3   OH214120   0.090   2.897   1.011
 4726TIP3    H114121   0.070   2.863   0.924
 4726TIP3    H214122   0.016   2.953   1.033
 4727TIP3   OH214123   3.467   5.619   6.057
 4727TIP3    H114124   3.504   5.695   6.103
 4727TIP3    H214125   3.379   5.609   6.094
 4728TIP3   OH214126   2.564   2.759   5.958
 4728TIP3    H114127   2.538   2.851   5.967
 4728TIP3    H214128   2.598   2.752   5.869
 4729TIP3   OH214129   3.944   2.746   0.491
 4729TIP3    H114130   4.006   2.725   0.421
 4729TIP3    H214131   3.863   2.769   0.447
 4730TIP3   OH214132   4.024   4.812   0.258
 4730TIP3    H114133   4.110   4.854   0.258
 4730TIP3    H214134   3.981   4.846   0.337
 4731TIP3   OH214135   2.919   5.551   4.204
 4731TIP3    H114136   2.848   5.489   4.223
 4731TIP3    H214137   2.970   5.509   4.135
 4732TIP3   OH214138   7.774   3.142   1.267
 4732TIP3    H114139   7.834   3.185   1.207
 4732TIP3    H214140   7.830   3.094   1.328
 4733TIP3   OH214141   3.206   2.059   2.403
 4733TIP3    H114142   3.193   2.143   2.448
 4733TIP3    H214143   3.161   2.070   2.319
 4734TIP3   OH214144   0.332   4.113   5.132
 4734TIP3    H114145   0.409   4.059   5.113
 4734TIP3    H214146   0.347   4.194   5.083
 4735TIP3   OH214147   4.433   1.087   4.365
 4735TIP3    H114148   4.441   1.179   4.390
 4735TIP3    H214149   4.440   1.039   4.448
 4736TIP3   OH214150   8.228   6.918   0.603
 4736TIP3    H114151   8.234   7.007   0.568
 4736TIP3    H214152   8.142   6.886   0.576
 4737TIP3   OH214153   1.571   4.213   2.224
 4737TIP3    H114154   1.591   4.252   2.139
 4737TIP3    H214155   1.483   4.243   2.245
 4738TIP3   OH214156   1.583   5.345   4.190
 4738TIP3    H114157   1.615   5.305   4.271
 4738TIP3    H214158   1.627   5.430   4.187
 4739TIP3   OH214159   7.938   6.667   0.635
 4739TIP3    H114160   7.934   6.597   0.701
 4739TIP3    H214161   7.846   6.687   0.617
 4740TIP3   OH214162   7.370   2.715   6.239
 4740TIP3    H114163   7.351   2.807   6.217
 4740TIP3    H214164   7.391   2.716   6.332
 4741TIP3   OH214165   4.121   6.533   0.041
 4741TIP3    H114166   4.046   6.517  -0.016
 4741TIP3    H214167   4.108   6.623   0.073
 4742TIP3   OH214168   5.003   5.610   5.347
 4742TIP3    H114169   5.070   5.671   5.316
 4742TIP3    H214170   4.944   5.665   5.399
 4743TIP3   OH214171   4.816   2.192   0.162
 4743TIP3    H114172   4.899   2.177   0.206
 4743TIP3    H214173   4.808   2.287   0.158
 4744TIP3   OH214174   4.185   3.226   0.388
 4744TIP3    H114175   4.102   3.178   0.389
 4744TIP3    H214176   4.162   3.313   0.355
 4745TIP3   OH214177   6.707   0.091   5.520
 4745TIP3    H114178   6.756   0.053   5.593
 4745TIP3    H214179   6.616   0.063   5.534
 4746TIP3   OH214180   2.289   0.312   4.184
 4746TIP3    H114181   2.368   0.268   4.153
 4746TIP3    H214182   2.219   0.249   4.170
 4747TIP3   OH214183   1.526   3.662   3.382
 4747TIP3    H114184   1.523   3.758   3.381
 4747TIP3    H214185   1.549   3.638   3.293
 4748TIP3   OH214186   4.998   5.242   6.487
 4748TIP3    H114187   5.074   5.186   6.477
 4748TIP3    H214188   4.944   5.223   6.411
 4749TIP3   OH214189   5.173   2.417   6.706
 4749TIP3    H114190   5.237   2.352   6.677
 4749TIP3    H214191   5.174   2.411   6.801
 4750TIP3   OH214192   0.316   7.012   6.144
 4750TIP3    H114193   0.282   7.046   6.227
 4750TIP3    H214194   0.410   7.001   6.158
 4751TIP3   OH214195   4.137   2.662   6.682
 4751TIP3    H114196   4.146   2.604   6.758
 4751TIP3    H214197   4.045   2.688   6.682
 4752TIP3   OH214198   5.851   2.938   2.947
 4752TIP3    H114199   5.815   2.863   2.995
 4752TIP3    H214200   5.781   2.964   2.888
 4753TIP3   OH214201   5.712   1.587   2.199
 4753TIP3    H114202   5.761   1.658   2.240
 4753TIP3    H214203   5.650   1.558   2.266
 4754TIP3   OH214204   7.786   3.842   0.254
 4754TIP3    H114205   7.787   3.936   0.272
 4754TIP3    H214206   7.699   3.813   0.282
 4755TIP3   OH214207   5.416   3.742   3.793
 4755TIP3    H114208   5.449   3.826   3.761
 4755TIP3    H214209   5.457   3.677   3.735
 4756TIP3   OH214210   2.838   5.086   6.750
 4756TIP3    H114211   2.814   5.178   6.748
 4756TIP3    H214212   2.853   5.063   6.659
 4757TIP3   OH214213   4.334   6.192   3.462
 4757TIP3    H114214   4.249   6.161   3.433
 4757TIP3    H214215   4.385   6.113   3.479
 4758TIP3   OH214216   6.429   5.343   3.662
 4758TIP3    H114217   6.516   5.367   3.693
 4758TIP3    H214218   6.445   5.277   3.594
 4759TIP3   OH214219   1.750   7.027   6.173
 4759TIP3    H114220   1.829   7.026   6.228
 4759TIP3    H214221   1.703   7.106   6.201
 4760TIP3   OH214222   3.356   2.689   5.953
 4760TIP3    H114223   3.361   2.616   5.891
 4760TIP3    H214224   3.281   2.669   6.008
 4761TIP3   OH214225   4.461   7.212   0.061
 4761TIP3    H114226   4.393   7.264   0.018
 4761TIP3    H214227   4.419   7.180   0.141
 4762TIP3   OH214228   8.218   2.302   2.028
 4762TIP3    H114229   8.272   2.255   1.964
 4762TIP3    H214230   8.151   2.239   2.053
 4763TIP3   OH214231   5.887   6.628   0.793
 4763TIP3    H114232   5.874   6.566   0.721
 4763TIP3    H214233   5.919   6.575   0.866
 4764TIP3   OH214234   1.953   2.217   0.095
 4764TIP3    H114235   1.859   2.202   0.088
 4764TIP3    H214236   1.981   2.238   0.006
 4765TIP3   OH214237   6.177   6.002   3.009
 4765TIP3    H114238   6.157   6.071   2.946
 4765TIP3    H214239   6.271   6.011   3.026
 4766TIP3   OH214240   4.887   5.816   2.226
 4766TIP3    H114241   4.959   5.865   2.265
 4766TIP3    H214242   4.899   5.726   2.256
 4767TIP3   OH214243   2.397   5.068   4.722
 4767TIP3    H114244   2.364   5.038   4.637
 4767TIP3    H214245   2.348   5.017   4.786
 4768TIP3   OH214246   2.283   0.303   5.067
 4768TIP3    H114247   2.374   0.313   5.039
 4768TIP3    H214248   2.283   0.223   5.120
 4769TIP3   OH214249   0.871   2.400   6.553
 4769TIP3    H114250   0.834   2.486   6.533
 4769TIP3    H214251   0.838   2.379   6.640
 4770TIP3   OH214252   0.712   0.110  -0.072
 4770TIP3    H114253   0.780   0.125  -0.006
 4770TIP3    H214254   0.631   0.106  -0.022
 4771TIP3   OH214255   7.898   7.505   3.849
 4771TIP3    H114256   7.860   7.420   3.872
 4771TIP3    H214257   7.856   7.567   3.909
 4772TIP3   OH214258   5.415   2.604   3.736
 4772TIP3    H114259   5.435   2.527   3.684
 4772TIP3    H214260   5.493   2.659   3.730
 4773TIP3   OH214261   4.389   2.091   0.927
 4773TIP3    H114262   4.389   2.179   0.966
 4773TIP3    H214263   4.480   2.076   0.901
 4774TIP3   OH214264   7.703   1.487   4.008
 4774TIP3    H114265   7.700   1.395   3.982
 4774TIP3    H214266   7.733   1.485   4.099
 4775TIP3   OH214267   1.770   3.136   6.409
 4775TIP3    H114268   1.712   3.132   6.486
 4775TIP3    H214269   1.776   3.230   6.389
 4776TIP3   OH214270   1.613   2.967   0.453
 4776TIP3    H114271   1.694   2.917   0.463
 4776TIP3    H214272   1.571   2.929   0.376
 4777TIP3   OH214273   7.709   0.489   6.317
 4777TIP3    H114274   7.657   0.537   6.254
 4777TIP3    H214275   7.648   0.467   6.388
 4778TIP3   OH214276  -0.010   2.145   3.110
 4778TIP3    H114277   0.048   2.076   3.077
 4778TIP3    H214278   0.017   2.223   3.063
 4779TIP3   OH214279   7.370   5.419   4.900
 4779TIP3    H114280   7.463   5.398   4.889
 4779TIP3    H214281   7.325   5.353   4.848
 4780TIP3   OH214282   0.657   4.491   2.079
 4780TIP3    H114283   0.744   4.524   2.102
 4780TIP3    H214284   0.627   4.549   2.009
 4781TIP3   OH214285   7.401   3.375   4.941
 4781TIP3    H114286   7.316   3.393   4.901
 4781TIP3    H214287   7.409   3.280   4.940
 4782TIP3   OH214288   7.903   2.588   0.270
 4782TIP3    H114289   7.900   2.644   0.193
 4782TIP3    H214290   7.818   2.544   0.272
 4783TIP3   OH214291   0.561   6.479   2.618
 4783TIP3    H114292   0.623   6.552   2.615
 4783TIP3    H214293   0.496   6.507   2.682
 4784TIP3   OH214294   3.791   6.666   2.948
 4784TIP3    H114295   3.841   6.632   3.022
 4784TIP3    H214296   3.708   6.620   2.951
 4785TIP3   OH214297   1.948   3.993   0.302
 4785TIP3    H114298   1.923   4.036   0.383
 4785TIP3    H214299   1.866   3.959   0.267
 4786TIP3   OH214300   1.196   6.043   2.099
 4786TIP3    H114301   1.162   6.124   2.137
 4786TIP3    H214302   1.223   6.068   2.010
 4787TIP3   OH214303   3.190   6.955   1.901
 4787TIP3    H114304   3.109   6.965   1.851
 4787TIP3    H214305   3.259   6.987   1.843
 4788TIP3   OH214306   8.227   1.163   1.082
 4788TIP3    H114307   8.311   1.121   1.100
 4788TIP3    H214308   8.227   1.175   0.987
 4789TIP3   OH214309   5.036   3.915   2.491
 4789TIP3    H114310   5.035   3.844   2.428
 4789TIP3    H214311   5.018   3.994   2.439
 4790TIP3   OH214312   7.794   5.696   4.359
 4790TIP3    H114313   7.837   5.760   4.415
 4790TIP3    H214314   7.726   5.658   4.414
 4791TIP3   OH214315   7.688   7.119   2.112
 4791TIP3    H114316   7.715   7.154   2.197
 4791TIP3    H214317   7.593   7.110   2.119
 4792TIP3   OH214318   2.505   7.303   5.777
 4792TIP3    H114319   2.428   7.246   5.787
 4792TIP3    H214320   2.506   7.324   5.683
 4793TIP3   OH214321   0.722   3.003   3.723
 4793TIP3    H114322   0.771   3.065   3.777
 4793TIP3    H214323   0.647   2.978   3.777
 4794TIP3   OH214324   1.955   2.775   5.200
 4794TIP3    H114325   1.973   2.681   5.203
 4794TIP3    H214326   1.971   2.800   5.109
 4795TIP3   OH214327   1.778   0.830   0.571
 4795TIP3    H114328   1.788   0.831   0.475
 4795TIP3    H214329   1.687   0.857   0.585
 4796TIP3   OH214330   2.769   5.983   5.046
 4796TIP3    H114331   2.811   5.897   5.041
 4796TIP3    H214332   2.835   6.043   5.014
 4797TIP3   OH214333   7.618   3.982   3.257
 4797TIP3    H114334   7.622   3.906   3.200
 4797TIP3    H214335   7.590   3.947   3.342
 4798TIP3   OH214336   2.753   4.714   6.481
 4798TIP3    H114337   2.729   4.714   6.388
 4798TIP3    H214338   2.689   4.655   6.522
 4799TIP3   OH214339   7.889   5.478   1.887
 4799TIP3    H114340   7.891   5.390   1.851
 4799TIP3    H214341   7.892   5.535   1.811
 4800TIP3   OH214342   0.878   5.753   1.900
 4800TIP3    H114343   0.867   5.684   1.835
 4800TIP3    H214344   0.879   5.708   1.984
 4801TIP3   OH214345   4.642   7.358   0.482
 4801TIP3    H114346   4.637   7.453   0.490
 4801TIP3    H214347   4.650   7.327   0.572
 4802TIP3   OH214348   2.186   1.930   1.094
 4802TIP3    H114349   2.125   1.952   1.165
 4802TIP3    H214350   2.146   1.967   1.016
 4803TIP3   OH214351   1.600   3.496   5.766
 4803TIP3    H114352   1.664   3.471   5.699
 4803TIP3    H214353   1.550   3.416   5.782
 4804TIP3   OH214354   5.702   6.509   1.836
 4804TIP3    H114355   5.763   6.551   1.897
 4804TIP3    H214356   5.643   6.580   1.809
 4805TIP3   OH214357   4.366   2.233   3.230
 4805TIP3    H114358   4.364   2.178   3.152
 4805TIP3    H214359   4.457   2.263   3.236
 4806TIP3   OH214360   2.389   4.322   3.331
 4806TIP3    H114361   2.426   4.306   3.245
 4806TIP3    H214362   2.452   4.380   3.374
 4807TIP3   OH214363   3.431   5.660   4.129
 4807TIP3    H114364   3.345   5.659   4.086
 4807TIP3    H214365   3.494   5.669   4.057
 4808TIP3   OH214366   0.620   5.166   2.691
 4808TIP3    H114367   0.660   5.252   2.677
 4808TIP3    H214368   0.693   5.104   2.686
 4809TIP3   OH214369   7.285   0.915   5.027
 4809TIP3    H114370   7.334   0.835   5.010
 4809TIP3    H214371   7.256   0.944   4.941
 4810TIP3   OH214372   0.730   0.522   5.140
 4810TIP3    H114373   0.724   0.600   5.194
 4810TIP3    H214374   0.708   0.450   5.199
 4811TIP3   OH214375   6.095   3.855   5.484
 4811TIP3    H114376   6.136   3.884   5.565
 4811TIP3    H214377   6.013   3.904   5.478
 4812TIP3   OH214378   6.240   3.297   1.050
 4812TIP3    H114379   6.277   3.210   1.038
 4812TIP3    H214380   6.228   3.331   0.962
 4813TIP3   OH214381   6.569   7.078   3.826
 4813TIP3    H114382   6.618   7.034   3.756
 4813TIP3    H214383   6.563   7.169   3.797
 4814TIP3   OH214384   7.084   0.047   2.023
 4814TIP3    H114385   6.990   0.035   2.037
 4814TIP3    H214386   7.125   0.007   2.099
 4815TIP3   OH214387   0.600   1.148   5.722
 4815TIP3    H114388   0.525   1.189   5.765
 4815TIP3    H214389   0.634   1.087   5.787
 4816TIP3   OH214390   0.125   2.690   0.815
 4816TIP3    H114391   0.219   2.703   0.828
 4816TIP3    H214392   0.114   2.687   0.720
 4817TIP3   OH214393   6.351   3.291   4.119
 4817TIP3    H114394   6.261   3.262   4.104
 4817TIP3    H214395   6.342   3.377   4.160
 4818TIP3   OH214396   2.829   1.585   0.133
 4818TIP3    H114397   2.875   1.643   0.195
 4818TIP3    H214398   2.833   1.631   0.050
 4819TIP3   OH214399   8.236   2.923   1.408
 4819TIP3    H114400   8.287   3.004   1.401
 4819TIP3    H214401   8.227   2.908   1.502
 4820TIP3   OH214402   1.057   5.020   4.926
 4820TIP3    H114403   1.106   5.102   4.916
 4820TIP3    H214404   1.124   4.952   4.935
 4821TIP3   OH214405   6.726   1.428   5.039
 4821TIP3    H114406   6.742   1.522   5.049
 4821TIP3    H214407   6.780   1.403   4.964
 4822TIP3   OH214408   2.788   6.048   1.934
 4822TIP3    H114409   2.785   5.977   1.998
 4822TIP3    H214410   2.730   6.020   1.864
 4823TIP3   OH214411   1.596   6.368   4.282
 4823TIP3    H114412   1.691   6.362   4.275
 4823TIP3    H214413   1.580   6.385   4.374
 4824TIP3   OH214414   2.843   0.497   3.751
 4824TIP3    H114415   2.769   0.549   3.719
 4824TIP3    H214416   2.880   0.550   3.822
 4825TIP3   OH214417   0.294   0.489   1.597
 4825TIP3    H114418   0.220   0.549   1.612
 4825TIP3    H214419   0.354   0.508   1.669
 4826TIP3   OH214420   6.983   3.178   0.136
 4826TIP3    H114421   7.054   3.225   0.179
 4826TIP3    H214422   6.925   3.247   0.104
 4827TIP3   OH214423   3.782   3.765   6.362
 4827TIP3    H114424   3.732   3.705   6.418
 4827TIP3    H214425   3.756   3.852   6.391
 4828TIP3   OH214426   7.212   1.189   2.715
 4828TIP3    H114427   7.221   1.095   2.706
 4828TIP3    H214428   7.119   1.205   2.699
 4829TIP3   OH214429  -0.033   6.652   0.170
 4829TIP3    H114430  -0.028   6.589   0.242
 4829TIP3    H214431   0.031   6.621   0.106
 4830TIP3   OH214432   4.996   4.844   2.958
 4830TIP3    H114433   4.938   4.920   2.956
 4830TIP3    H214434   5.050   4.857   3.036
 4831TIP3   OH214435   6.510   5.761   3.986
 4831TIP3    H114436   6.463   5.767   3.903
 4831TIP3    H214437   6.580   5.698   3.969
 4832TIP3   OH214438   0.268   2.953   6.606
 4832TIP3    H114439   0.272   2.997   6.520
 4832TIP3    H214440   0.193   2.993   6.650
 4833TIP3   OH214441   0.968   2.989   1.091
 4833TIP3    H114442   0.918   3.023   1.017
 4833TIP3    H214443   1.014   3.066   1.126
 4834TIP3   OH214444   4.713   3.609   1.367
 4834TIP3    H114445   4.780   3.675   1.382
 4834TIP3    H214446   4.655   3.648   1.302
 4835TIP3   OH214447   7.462   3.889   0.046
 4835TIP3    H114448   7.442   3.844   0.129
 4835TIP3    H214449   7.457   3.820  -0.020
 4836TIP3   OH214450   5.925   0.499   0.400
 4836TIP3    H114451   5.935   0.412   0.362
 4836TIP3    H214452   5.836   0.499   0.437
 4837TIP3   OH214453   2.614   1.852   6.347
 4837TIP3    H114454   2.587   1.830   6.437
 4837TIP3    H214455   2.531   1.859   6.299
 4838TIP3   OH214456   0.587   0.595   2.430
 4838TIP3    H114457   0.656   0.580   2.366
 4838TIP3    H214458   0.535   0.514   2.428
 4839TIP3   OH214459   0.310   5.136   3.440
 4839TIP3    H114460   0.276   5.132   3.530
 4839TIP3    H214461   0.342   5.048   3.422
 4840TIP3   OH214462   7.356   3.154   1.752
 4840TIP3    H114463   7.264   3.165   1.776
 4840TIP3    H214464   7.386   3.243   1.733
 4841TIP3   OH214465   0.534   1.016   3.791
 4841TIP3    H114466   0.550   0.971   3.874
 4841TIP3    H214467   0.440   1.038   3.794
 4842TIP3   OH214468   8.185   1.543   0.578
 4842TIP3    H114469   8.171   1.454   0.546
 4842TIP3    H214470   8.129   1.597   0.522
 4843TIP3   OH214471   3.229   2.918   0.530
 4843TIP3    H114472   3.251   2.957   0.615
 4843TIP3    H214473   3.311   2.879   0.500
 4844TIP3   OH214474   1.822   0.863   4.721
 4844TIP3    H114475   1.912   0.891   4.707
 4844TIP3    H214476   1.790   0.916   4.794
 4845TIP3   OH214477   0.563   0.096   3.321
 4845TIP3    H114478   0.646   0.142   3.336
 4845TIP3    H214479   0.502   0.136   3.383
 4846TIP3   OH214480   4.075   1.193   6.427
 4846TIP3    H114481   4.083   1.262   6.361
 4846TIP3    H214482   3.986   1.203   6.462
 4847TIP3   OH214483   8.204   7.652   5.676
 4847TIP3    H114484   8.180   7.567   5.640
 4847TIP3    H214485   8.293   7.640   5.709
 4848TIP3   OH214486   1.118   5.816   3.190
 4848TIP3    H114487   1.188   5.881   3.195
 4848TIP3    H214488   1.062   5.836   3.266
 4849TIP3   OH214489   1.819   3.814   5.311
 4849TIP3    H114490   1.911   3.810   5.285
 4849TIP3    H214491   1.817   3.875   5.384
 4850TIP3   OH214492   7.622   4.837   5.116
 4850TIP3    H114493   7.621   4.859   5.209
 4850TIP3    H214494   7.537   4.868   5.083
 4851TIP3   OH214495   0.778   3.524   4.840
 4851TIP3    H114496   0.863   3.561   4.866
 4851TIP3    H214497   0.760   3.457   4.905
 4852TIP3   OH214498   2.724   2.955   0.012
 4852TIP3    H114499   2.743   3.013   0.086
 4852TIP3    H214500   2.780   2.879   0.026
 4853TIP3   OH214501   2.353   2.777   5.668
 4853TIP3    H114502   2.325   2.833   5.739
 4853TIP3    H214503   2.406   2.833   5.612
 4854TIP3   OH214504   0.758   3.461   1.589
 4854TIP3    H114505   0.694   3.515   1.542
 4854TIP3    H214506   0.720   3.449   1.676
 4855TIP3   OH214507   7.672   1.727   0.272
 4855TIP3    H114508   7.645   1.792   0.337
 4855TIP3    H214509   7.755   1.761   0.238
 4856TIP3   OH214510   6.092   6.061   2.552
 4856TIP3    H114511   6.009   6.093   2.588
 4856TIP3    H214512   6.078   6.059   2.458
 4857TIP3   OH214513   0.274   5.394   6.548
 4857TIP3    H114514   0.335   5.463   6.575
 4857TIP3    H214515   0.236   5.426   6.467
 4858TIP3   OH214516   2.741   3.473   3.089
 4858TIP3    H114517   2.649   3.452   3.072
 4858TIP3    H214518   2.782   3.388   3.106
 4859TIP3   OH214519   5.830   7.439   5.839
 4859TIP3    H114520   5.915   7.396   5.849
 4859TIP3    H214521   5.785   7.386   5.772
 4860TIP3   OH214522   3.639   0.650   3.993
 4860TIP3    H114523   3.714   0.604   4.032
 4860TIP3    H214524   3.581   0.579   3.963
 4861TIP3   OH214525   5.761   6.939   1.804
 4861TIP3    H114526   5.849   6.907   1.825
 4861TIP3    H214527   5.764   7.033   1.824
 4862TIP3   OH214528   5.594   3.912   1.629
 4862TIP3    H114529   5.604   3.969   1.553
 4862TIP3    H214530   5.637   3.959   1.700
 4863TIP3   OH214531   4.622   0.239   3.944
 4863TIP3    H114532   4.673   0.319   3.936
 4863TIP3    H214533   4.642   0.189   3.865
 4864TIP3   OH214534   0.286   2.474   3.919
 4864TIP3    H114535   0.243   2.418   3.983
 4864TIP3    H214536   0.223   2.545   3.904
 4865TIP3   OH214537   3.670   4.206   6.275
 4865TIP3    H114538   3.595   4.180   6.221
 4865TIP3    H214539   3.677   4.137   6.341
 4866TIP3   OH214540   0.108   7.248   0.327
 4866TIP3    H114541   0.103   7.300   0.247
 4866TIP3    H214542   0.089   7.158   0.298
 4867TIP3   OH214543   3.660   5.329   2.419
 4867TIP3    H114544   3.657   5.289   2.332
 4867TIP3    H214545   3.753   5.329   2.442
 4868TIP3   OH214546   5.406   1.871   3.366
 4868TIP3    H114547   5.438   1.784   3.391
 4868TIP3    H214548   5.483   1.928   3.375
 4869TIP3   OH214549   4.446   0.089   3.433
 4869TIP3    H114550   4.365   0.079   3.383
 4869TIP3    H214551   4.481   0.174   3.405
 4870TIP3   OH214552   7.229   4.263   5.630
 4870TIP3    H114553   7.225   4.180   5.583
 4870TIP3    H214554   7.286   4.319   5.576
 4871TIP3   OH214555   5.125   4.280   2.980
 4871TIP3    H114556   5.117   4.355   2.921
 4871TIP3    H214557   5.180   4.311   3.051
 4872TIP3   OH214558   6.934   6.931   0.103
 4872TIP3    H114559   6.950   6.897   0.015
 4872TIP3    H214560   6.923   6.853   0.157
 4873TIP3   OH214561   8.030   5.853   6.286
 4873TIP3    H114562   7.945   5.833   6.248
 4873TIP3    H214563   8.026   5.946   6.306
 4874TIP3   OH214564   6.363   2.874   3.020
 4874TIP3    H114565   6.301   2.867   2.947
 4874TIP3    H214566   6.341   2.800   3.077
 4875TIP3   OH214567   4.562   5.065   1.507
 4875TIP3    H114568   4.554   5.156   1.536
 4875TIP3    H214569   4.643   5.063   1.456
 4876TIP3   OH214570   0.186   1.431   1.183
 4876TIP3    H114571   0.207   1.450   1.274
 4876TIP3    H214572   0.119   1.363   1.187
 4877TIP3   OH214573   4.270   4.559   4.042
 4877TIP3    H114574   4.269   4.619   4.117
 4877TIP3    H214575   4.215   4.602   3.977
 4878TIP3   OH214576   0.298   3.458   2.015
 4878TIP3    H114577   0.264   3.521   1.951
 4878TIP3    H214578   0.385   3.434   1.982
 4879TIP3   OH214579   2.766   7.431   5.547
 4879TIP3    H114580   2.807   7.426   5.633
 4879TIP3    H214581   2.787   7.519   5.516
 4880TIP3   OH214582   3.739   2.715   1.590
 4880TIP3    H114583   3.830   2.691   1.574
 4880TIP3    H214584   3.698   2.635   1.622
 4881TIP3   OH214585   5.520   3.416   6.383
 4881TIP3    H114586   5.611   3.414   6.413
 4881TIP3    H214587   5.520   3.361   6.304
 4882TIP3   OH214588   2.630   3.681   0.965
 4882TIP3    H114589   2.598   3.753   1.019
 4882TIP3    H214590   2.573   3.683   0.888
 4883TIP3   OH214591   2.076   3.598   5.608
 4883TIP3    H114592   2.130   3.534   5.653
 4883TIP3    H214593   1.987   3.580   5.639
 4884TIP3   OH214594   7.483   7.786   6.368
 4884TIP3    H114595   7.551   7.830   6.315
 4884TIP3    H214596   7.524   7.704   6.395
 4885TIP3   OH214597   8.129   2.051   1.117
 4885TIP3    H114598   8.202   2.089   1.166
 4885TIP3    H214599   8.051   2.095   1.152
 4886TIP3   OH214600   7.196   3.955   5.008
 4886TIP3    H114601   7.256   4.019   5.045
 4886TIP3    H214602   7.142   3.927   5.082
 4887TIP3   OH214603   4.333   7.378   6.640
 4887TIP3    H114604   4.324   7.320   6.716
 4887TIP3    H214605   4.292   7.460   6.667
 4888TIP3   OH214606   5.754   4.681   1.612
 4888TIP3    H114607   5.752   4.687   1.516
 4888TIP3    H214608   5.662   4.677   1.638
 4889TIP3   OH214609   1.419   5.929   0.323
 4889TIP3    H114610   1.447   5.895   0.238
 4889TIP3    H214611   1.392   6.019   0.305
 4890TIP3   OH214612   3.551   4.365   1.461
 4890TIP3    H114613   3.516   4.290   1.414
 4890TIP3    H214614   3.579   4.330   1.546
 4891TIP3   OH214615   8.006   4.125   4.654
 4891TIP3    H114616   7.948   4.194   4.623
 4891TIP3    H214617   8.093   4.149   4.622
 4892TIP3   OH214618   2.333   3.358   5.075
 4892TIP3    H114619   2.334   3.311   5.158
 4892TIP3    H214620   2.264   3.314   5.024
 4893TIP3   OH214621   7.253   3.574   1.058
 4893TIP3    H114622   7.228   3.602   0.970
 4893TIP3    H214623   7.291   3.652   1.098
 4894TIP3   OH214624   3.907   4.050   2.465
 4894TIP3    H114625   3.814   4.067   2.482
 4894TIP3    H214626   3.953   4.124   2.504
 4895TIP3   OH214627   2.743   0.971   0.442
 4895TIP3    H114628   2.737   1.053   0.491
 4895TIP3    H214629   2.710   0.905   0.503
 4896TIP3   OH214630   4.271   4.345   0.841
 4896TIP3    H114631   4.189   4.304   0.813
 4896TIP3    H214632   4.282   4.317   0.932
 4897TIP3   OH214633   3.372   1.037   4.201
 4897TIP3    H114634   3.341   0.971   4.262
 4897TIP3    H214635   3.435   0.992   4.145
 4898TIP3   OH214636   2.940   2.662   4.215
 4898TIP3    H114637   2.917   2.754   4.205
 4898TIP3    H214638   3.007   2.661   4.283
 4899TIP3   OH214639   6.752   4.368   6.197
 4899TIP3    H114640   6.783   4.379   6.107
 4899TIP3    H214641   6.670   4.417   6.200
 4900TIP3   OH214642   2.963   3.137   1.142
 4900TIP3    H114643   3.037   3.140   1.202
 4900TIP3    H214644   2.897   3.192   1.182
 4901TIP3   OH214645   4.911   2.784   0.538
 4901TIP3    H114646   4.950   2.735   0.465
 4901TIP3    H214647   4.848   2.723   0.577
 4902TIP3   OH214648   1.401   4.490   3.146
 4902TIP3    H114649   1.402   4.399   3.115
 4902TIP3    H214650   1.492   4.519   3.137
 4903TIP3   OH214651   2.375   6.268   0.601
 4903TIP3    H114652   2.426   6.218   0.664
 4903TIP3    H214653   2.291   6.282   0.644
 4904TIP3   OH214654   7.731   7.779   0.733
 4904TIP3    H114655   7.742   7.873   0.745
 4904TIP3    H214656   7.678   7.751   0.808
 4905TIP3   OH214657   2.147   0.547   3.533
 4905TIP3    H114658   2.088   0.489   3.484
 4905TIP3    H214659   2.153   0.626   3.479
 4906TIP3   OH214660   2.724   4.505   5.737
 4906TIP3    H114661   2.705   4.518   5.644
 4906TIP3    H214662   2.687   4.582   5.780
 4907TIP3   OH214663   6.224   1.631   1.094
 4907TIP3    H114664   6.197   1.646   1.184
 4907TIP3    H214665   6.151   1.582   1.055
 4908TIP3   OH214666   7.018   0.434   2.246
 4908TIP3    H114667   7.022   0.338   2.250
 4908TIP3    H214668   7.046   0.456   2.157
 4909TIP3   OH214669   2.262   5.330   0.437
 4909TIP3    H114670   2.191   5.386   0.405
 4909TIP3    H214671   2.218   5.254   0.475
 4910TIP3   OH214672   6.211   4.548   3.720
 4910TIP3    H114673   6.180   4.533   3.631
 4910TIP3    H214674   6.301   4.515   3.720
 4911TIP3   OH214675   1.039   3.211   3.053
 4911TIP3    H114676   1.040   3.116   3.042
 4911TIP3    H214677   1.118   3.231   3.103
 4912TIP3   OH214678   0.951   0.643   1.464
 4912TIP3    H114679   0.860   0.613   1.473
 4912TIP3    H214680   0.980   0.605   1.381
 4913TIP3   OH214681   1.058   5.096   0.899
 4913TIP3    H114682   0.975   5.141   0.918
 4913TIP3    H214683   1.092   5.142   0.822
 4914TIP3   OH214684   2.421   2.000   3.693
 4914TIP3    H114685   2.431   2.082   3.742
 4914TIP3    H214686   2.434   2.024   3.602
 4915TIP3   OH214687   1.987   2.723   3.841
 4915TIP3    H114688   1.915   2.773   3.881
 4915TIP3    H214689   2.053   2.719   3.910
 4916TIP3   OH214690   1.207   3.099   6.012
 4916TIP3    H114691   1.234   3.058   5.930
 4916TIP3    H214692   1.166   3.181   5.985
 4917TIP3   OH214693   4.114   5.629   4.238
 4917TIP3    H114694   4.071   5.556   4.194
 4917TIP3    H214695   4.196   5.592   4.272
 4918TIP3   OH214696   3.369   4.226   6.330
 4918TIP3    H114697   3.396   4.204   6.240
 4918TIP3    H214698   3.378   4.144   6.378
 4919TIP3   OH214699   0.208   5.104   0.172
 4919TIP3    H114700   0.268   5.099   0.098
 4919TIP3    H214701   0.262   5.133   0.246
 4920TIP3   OH214702   1.077   5.829   4.887
 4920TIP3    H114703   1.059   5.811   4.795
 4920TIP3    H214704   1.032   5.911   4.905
 4921TIP3   OH214705   0.258   3.867   0.524
 4921TIP3    H114706   0.243   3.923   0.600
 4921TIP3    H214707   0.170   3.847   0.491
 4922TIP3   OH214708   7.630   5.832   1.294
 4922TIP3    H114709   7.598   5.895   1.357
 4922TIP3    H214710   7.688   5.882   1.237
 4923TIP3   OH214711   4.002   7.673   2.210
 4923TIP3    H114712   4.088   7.669   2.253
 4923TIP3    H214713   4.011   7.616   2.134
 4924TIP3   OH214714   8.031   4.561   4.276
 4924TIP3    H114715   8.074   4.510   4.345
 4924TIP3    H214716   7.994   4.495   4.217
 4925TIP3   OH214717   2.488   4.727   0.360
 4925TIP3    H114718   2.556   4.769   0.308
 4925TIP3    H214719   2.509   4.749   0.451
 4926TIP3   OH214720   4.505   2.878   0.237
 4926TIP3    H114721   4.464   2.792   0.243
 4926TIP3    H214722   4.582   2.871   0.294
 4927TIP3   OH214723   4.238   6.078   2.524
 4927TIP3    H114724   4.164   6.123   2.565
 4927TIP3    H214725   4.218   6.081   2.430
 4928TIP3   OH214726   2.407   7.235   1.031
 4928TIP3    H114727   2.390   7.309   0.973
 4928TIP3    H214728   2.466   7.178   0.981
 4929TIP3   OH214729   5.577   1.367   1.590
 4929TIP3    H114730   5.524   1.447   1.597
 4929TIP3    H214731   5.563   1.321   1.673
 4930TIP3   OH214732   4.234   5.363   3.590
 4930TIP3    H114733   4.186   5.286   3.560
 4930TIP3    H214734   4.171   5.410   3.645
 4931TIP3   OH214735   5.702   3.545   4.955
 4931TIP3    H114736   5.652   3.464   4.955
 4931TIP3    H214737   5.788   3.520   4.920
 4932TIP3   OH214738   0.304   5.691   1.218
 4932TIP3    H114739   0.376   5.658   1.164
 4932TIP3    H214740   0.250   5.614   1.236
 4933TIP3   OH214741   5.423   1.910   1.252
 4933TIP3    H114742   5.373   1.987   1.223
 4933TIP3    H214743   5.512   1.942   1.263
 4934TIP3   OH214744   2.450   2.659   0.650
 4934TIP3    H114745   2.378   2.661   0.587
 4934TIP3    H214746   2.488   2.747   0.645
 4935TIP3   OH214747   1.793   2.256   4.021
 4935TIP3    H114748   1.719   2.222   3.970
 4935TIP3    H214749   1.861   2.272   3.956
 4936TIP3   OH214750   1.472   7.108   0.394
 4936TIP3    H114751   1.397   7.119   0.336
 4936TIP3    H214752   1.546   7.094   0.336
 4937TIP3   OH214753   5.814   2.514   1.530
 4937TIP3    H114754   5.752   2.586   1.546
 4937TIP3    H214755   5.900   2.552   1.548
 4938TIP3   OH214756   5.144   5.453   2.138
 4938TIP3    H114757   5.223   5.480   2.185
 4938TIP3    H214758   5.177   5.412   2.058
 4939TIP3   OH214759   2.150   3.057   0.198
 4939TIP3    H114760   2.177   3.032   0.286
 4939TIP3    H214761   2.196   2.997   0.140
 4940TIP3   OH214762   2.140   6.204   6.486
 4940TIP3    H114763   2.130   6.257   6.407
 4940TIP3    H214764   2.205   6.138   6.463
 4941TIP3   OH214765   8.221   1.664   4.342
 4941TIP3    H114766   8.271   1.730   4.390
 4941TIP3    H214767   8.138   1.707   4.322
 4942TIP3   OH214768   4.996   3.507   6.546
 4942TIP3    H114769   5.044   3.509   6.464
 4942TIP3    H214770   5.055   3.464   6.608
 4943TIP3   OH214771   4.039   5.972   2.365
 4943TIP3    H114772   4.050   5.878   2.356
 4943TIP3    H214773   3.948   5.983   2.391
 4944TIP3   OH214774   3.816   4.276   4.695
 4944TIP3    H114775   3.740   4.236   4.737
 4944TIP3    H214776   3.862   4.203   4.653
 4945TIP3   OH214777   5.302   1.575   0.394
 4945TIP3    H114778   5.265   1.543   0.312
 4945TIP3    H214779   5.295   1.501   0.455
 4946TIP3   OH214780   6.272   6.649   5.649
 4946TIP3    H114781   6.252   6.731   5.604
 4946TIP3    H214782   6.320   6.597   5.584
 4947TIP3   OH214783   3.115   3.334   5.183
 4947TIP3    H114784   3.191   3.367   5.134
 4947TIP3    H214785   3.069   3.413   5.211
 4948TIP3   OH214786   7.024   2.099   6.411
 4948TIP3    H114787   7.107   2.128   6.373
 4948TIP3    H214788   6.981   2.050   6.341
 4949TIP3   OH214789   6.130   5.010   3.637
 4949TIP3    H114790   6.148   4.936   3.695
 4949TIP3    H214791   6.127   5.086   3.695
 4950TIP3   OH214792   0.828   0.976   1.114
 4950TIP3    H114793   0.768   1.050   1.126
 4950TIP3    H214794   0.914   1.017   1.103
 4951TIP3   OH214795   5.646   3.651   5.550
 4951TIP3    H114796   5.669   3.740   5.574
 4951TIP3    H214797   5.562   3.635   5.593
 4952TIP3   OH214798   2.856   4.351   3.298
 4952TIP3    H114799   2.944   4.387   3.298
 4952TIP3    H214800   2.865   4.265   3.257
 4953TIP3   OH214801   2.696   3.179   5.406
 4953TIP3    H114802   2.713   3.253   5.348
 4953TIP3    H214803   2.745   3.106   5.367
 4954TIP3   OH214804   4.599   0.212   2.331
 4954TIP3    H114805   4.524   0.258   2.293
 4954TIP3    H214806   4.592   0.227   2.425
 4955TIP3   OH214807   4.100   2.832   3.964
 4955TIP3    H114808   4.106   2.810   4.057
 4955TIP3    H214809   4.031   2.775   3.930
 4956TIP3   OH214810   1.342   4.292   2.559
 4956TIP3    H114811   1.398   4.347   2.613
 4956TIP3    H214812   1.363   4.203   2.585
 4957TIP3   OH214813   8.068   3.116   4.775
 4957TIP3    H114814   8.144   3.150   4.729
 4957TIP3    H214815   8.097   3.106   4.866
 4958TIP3   OH214816   2.142   6.641   6.043
 4958TIP3    H114817   2.060   6.630   6.091
 4958TIP3    H214818   2.199   6.690   6.102
 4959TIP3   OH214819   0.374   5.291   6.225
 4959TIP3    H114820   0.329   5.346   6.288
 4959TIP3    H214821   0.374   5.204   6.265
 4960TIP3   OH214822   5.285   7.661   5.383
 4960TIP3    H114823   5.243   7.634   5.464
 4960TIP3    H214824   5.221   7.717   5.340
 4961TIP3   OH214825   5.140   5.981   5.711
 4961TIP3    H114826   5.093   5.898   5.708
 4961TIP3    H214827   5.163   5.992   5.804
 4962TIP3   OH214828   2.920   7.293   4.238
 4962TIP3    H114829   2.982   7.242   4.291
 4962TIP3    H214830   2.971   7.323   4.163
 4963TIP3   OH214831   6.407   7.008   2.763
 4963TIP3    H114832   6.382   7.032   2.674
 4963TIP3    H214833   6.455   6.926   2.752
 4964TIP3   OH214834   5.111   6.030   4.488
 4964TIP3    H114835   5.030   6.010   4.534
 4964TIP3    H214836   5.093   6.111   4.440
 4965TIP3   OH214837   5.757   5.737   4.351
 4965TIP3    H114838   5.671   5.719   4.390
 4965TIP3    H214839   5.780   5.656   4.307
 4966TIP3   OH214840   1.271   2.837   3.503
 4966TIP3    H114841   1.254   2.895   3.576
 4966TIP3    H214842   1.189   2.790   3.489
 4967TIP3   OH214843   1.697   5.012   3.153
 4967TIP3    H114844   1.683   4.932   3.203
 4967TIP3    H214845   1.700   5.082   3.219
 4968TIP3   OH214846   0.158   4.456   3.965
 4968TIP3    H114847   0.220   4.528   3.973
 4968TIP3    H214848   0.180   4.414   3.882
 4969TIP3   OH214849   0.513   5.100   3.850
 4969TIP3    H114850   0.507   5.178   3.906
 4969TIP3    H214851   0.525   5.027   3.911
 4970TIP3   OH214852   7.241   4.840   3.522
 4970TIP3    H114853   7.278   4.894   3.592
 4970TIP3    H214854   7.184   4.778   3.566
 4971TIP3   OH214855   2.056   5.143   6.429
 4971TIP3    H114856   2.036   5.227   6.469
 4971TIP3    H214857   2.151   5.140   6.425
 4972TIP3   OH214858   0.677   0.502   1.125
 4972TIP3    H114859   0.594   0.533   1.089
 4972TIP3    H214860   0.744   0.554   1.080
 4973TIP3   OH214861   4.874   5.259   2.320
 4973TIP3    H114862   4.926   5.187   2.283
 4973TIP3    H214863   4.818   5.217   2.385
 4974TIP3   OH214864   4.194   3.765   2.416
 4974TIP3    H114865   4.206   3.680   2.457
 4974TIP3    H214866   4.114   3.800   2.455
 4975TIP3   OH214867   7.904   4.533   6.630
 4975TIP3    H114868   7.919   4.573   6.716
 4975TIP3    H214869   7.811   4.511   6.630
 4976TIP3   OH214870   4.887   3.378   0.933
 4976TIP3    H114871   4.981   3.363   0.918
 4976TIP3    H214872   4.884   3.430   1.014
 4977TIP3   OH214873   1.882   2.774   4.612
 4977TIP3    H114874   1.791   2.750   4.632
 4977TIP3    H214875   1.900   2.730   4.529
 4978TIP3   OH214876   5.010   2.832   1.361
 4978TIP3    H114877   4.937   2.817   1.420
 4978TIP3    H214878   5.059   2.750   1.363
 4979TIP3   OH214879   2.864   2.803   6.376
 4979TIP3    H114880   2.933   2.765   6.431
 4979TIP3    H214881   2.868   2.753   6.295
 4980TIP3   OH214882   1.241   2.753   2.859
 4980TIP3    H114883   1.168   2.715   2.810
 4980TIP3    H214884   1.230   2.718   2.948
 4981TIP3   OH214885   3.684   5.718   2.904
 4981TIP3    H114886   3.631   5.794   2.929
 4981TIP3    H214887   3.749   5.710   2.973
 4982TIP3   OH214888  -0.002   4.949   1.866
 4982TIP3    H114889  -0.044   4.871   1.830
 4982TIP3    H214890   0.089   4.923   1.880
 4983TIP3   OH214891   4.135   5.967   1.112
 4983TIP3    H114892   4.219   6.007   1.135
 4983TIP3    H214893   4.111   5.916   1.190
 4984TIP3   OH214894   2.135   6.795   6.511
 4984TIP3    H114895   2.179   6.877   6.535
 4984TIP3    H214896   2.043   6.818   6.505
 4985TIP3   OH214897   6.151   2.272   0.495
 4985TIP3    H114898   6.149   2.252   0.589
 4985TIP3    H214899   6.063   2.249   0.464
 4986TIP3   OH214900   5.086   1.341   1.025
 4986TIP3    H114901   5.162   1.365   0.972
 4986TIP3    H214902   5.060   1.422   1.069
 4987TIP3   OH214903   7.178   6.122   6.220
 4987TIP3    H114904   7.083   6.134   6.215
 4987TIP3    H214905   7.214   6.210   6.209
 4988TIP3   OH214906   6.355   7.028   6.699
 4988TIP3    H114907   6.290   7.007   6.632
 4988TIP3    H214908   6.304   7.042   6.779
 4989TIP3   OH214909   0.181   2.632   0.534
 4989TIP3    H114910   0.235   2.708   0.512
 4989TIP3    H214911   0.239   2.557   0.521
 4990TIP3   OH214912   2.895   7.546   4.871
 4990TIP3    H114913   2.976   7.508   4.905
 4990TIP3    H214914   2.920   7.587   4.788
 4991TIP3   OH214915   4.367   2.962   3.634
 4991TIP3    H114916   4.401   2.981   3.546
 4991TIP3    H214917   4.283   3.008   3.638
 4992TIP3   OH214918   4.225   3.375   5.870
 4992TIP3    H114919   4.179   3.348   5.949
 4992TIP3    H214920   4.318   3.374   5.895
 4993TIP3   OH214921   5.206   3.844   4.491
 4993TIP3    H114922   5.217   3.760   4.536
 4993TIP3    H214923   5.112   3.863   4.498
 4994TIP3   OH214924   0.346   3.525   6.333
 4994TIP3    H114925   0.332   3.560   6.420
 4994TIP3    H214926   0.415   3.460   6.344
 4995TIP3   OH214927   2.665   6.112   5.516
 4995TIP3    H114928   2.607   6.089   5.444
 4995TIP3    H214929   2.713   6.189   5.485
 4996TIP3   OH214930   2.566   0.106   1.010
 4996TIP3    H114931   2.597   0.134   1.097
 4996TIP3    H214932   2.471   0.115   1.015
 4997TIP3   OH214933   4.342   2.222   6.398
 4997TIP3    H114934   4.389   2.151   6.442
 4997TIP3    H214935   4.410   2.274   6.356
 4998TIP3   OH214936   2.652   5.161   4.696
 4998TIP3    H114937   2.568   5.114   4.692
 4998TIP3    H214938   2.699   5.120   4.769
 4999TIP3   OH214939   3.848   7.222   5.671
 4999TIP3    H114940   3.855   7.316   5.687
 4999TIP3    H214941   3.892   7.208   5.587
 5000TIP3   OH214942   4.016   2.324   0.463
 5000TIP3    H114943   4.051   2.331   0.374
 5000TIP3    H214944   4.019   2.231   0.483
 5001TIP3   OH214945   3.985   0.358   6.618
 5001TIP3    H114946   4.023   0.421   6.678
 5001TIP3    H214947   3.946   0.411   6.548
 5002TIP3   OH214948   7.609   0.461   4.674
 5002TIP3    H114949   7.594   0.375   4.714
 5002TIP3    H214950   7.618   0.521   4.748
 5003TIP3   OH214951   5.758   6.640   6.535
 5003TIP3    H114952   5.687   6.663   6.475
 5003TIP3    H214953   5.779   6.722   6.580
 5004TIP3   OH214954   4.106   6.708   1.406
 5004TIP3    H114955   4.143   6.684   1.322
 5004TIP3    H214956   4.031   6.649   1.417
 5005TIP3   OH214957   5.332   2.074   3.072
 5005TIP3    H114958   5.259   2.109   3.021
 5005TIP3    H214959   5.330   2.123   3.154
 5006TIP3   OH214960   2.646   1.534   3.251
 5006TIP3    H114961   2.572   1.561   3.196
 5006TIP3    H214962   2.696   1.615   3.264
 5007TIP3   OH214963   6.616   3.876   6.657
 5007TIP3    H114964   6.601   3.963   6.694
 5007TIP3    H214965   6.670   3.831   6.722
 5008TIP3   OH214966   4.183   5.476   5.974
 5008TIP3    H114967   4.234   5.445   5.899
 5008TIP3    H214968   4.092   5.462   5.948
 5009TIP3   OH214969   2.474   1.293   4.119
 5009TIP3    H114970   2.541   1.287   4.051
 5009TIP3    H214971   2.523   1.289   4.202
 5010TIP3   OH214972   6.556   2.000   6.393
 5010TIP3    H114973   6.556   2.082   6.344
 5010TIP3    H214974   6.516   1.937   6.332
 5011TIP3   OH214975   8.108   3.877   1.980
 5011TIP3    H114976   8.101   3.823   2.059
 5011TIP3    H214977   8.149   3.958   2.010
 5012TIP3   OH214978   7.376   0.489   2.163
 5012TIP3    H114979   7.337   0.407   2.193
 5012TIP3    H214980   7.382   0.480   2.068
 5013TIP3   OH214981   2.137   4.384   3.731
 5013TIP3    H114982   2.127   4.398   3.637
 5013TIP3    H214983   2.184   4.300   3.738
 5014TIP3   OH214984   1.800   6.769   0.311
 5014TIP3    H114985   1.717   6.786   0.355
 5014TIP3    H214986   1.812   6.674   0.318
 5015TIP3   OH214987   0.288   0.740   5.792
 5015TIP3    H114988   0.229   0.679   5.837
 5015TIP3    H214989   0.229   0.803   5.750
 5016TIP3   OH214990   3.482   1.293   4.280
 5016TIP3    H114991   3.520   1.238   4.348
 5016TIP3    H214992   3.407   1.243   4.248
 5017TIP3   OH214993   5.619   6.002   3.765
 5017TIP3    H114994   5.614   5.930   3.828
 5017TIP3    H214995   5.529   6.034   3.758
 5018TIP3   OH214996   1.230   3.513   6.261
 5018TIP3    H114997   1.265   3.595   6.226
 5018TIP3    H214998   1.308   3.464   6.290
 5019TIP3   OH214999   1.820   5.503   4.961
 5019TIP3    H115000   1.892   5.567   4.965
 5019TIP3    H215001   1.825   5.457   5.045
 5020TIP3   OH215002   2.869   2.822   4.634
 5020TIP3    H115003   2.851   2.831   4.728
 5020TIP3    H215004   2.799   2.871   4.591
 5021TIP3   OH215005   1.854   0.646   5.767
 5021TIP3    H115006   1.852   0.555   5.739
 5021TIP3    H215007   1.933   0.682   5.727
 5022TIP3   OH215008   5.749   3.764   6.134
 5022TIP3    H115009   5.836   3.725   6.123
 5022TIP3    H215010   5.766   3.858   6.140
 5023TIP3   OH215011   8.273   5.134   1.571
 5023TIP3    H115012   8.244   5.214   1.615
 5023TIP3    H215013   8.277   5.069   1.641
 5024TIP3   OH215014   5.495   2.132   6.424
 5024TIP3    H115015   5.451   2.053   6.455
 5024TIP3    H215016   5.559   2.100   6.360
 5025TIP3   OH215017   3.618   5.584   1.011
 5025TIP3    H115018   3.692   5.524   0.999
 5025TIP3    H215019   3.651   5.669   0.979
 5026TIP3   OH215020   2.936   5.805   2.610
 5026TIP3    H115021   2.953   5.896   2.633
 5026TIP3    H215022   2.909   5.764   2.692
 5027TIP3   OH215023   3.807   1.429   1.186
 5027TIP3    H115024   3.810   1.464   1.097
 5027TIP3    H215025   3.772   1.501   1.239
 5028TIP3   OH215026   0.198   4.338   3.722
 5028TIP3    H115027   0.209   4.253   3.680
 5028TIP3    H215028   0.204   4.401   3.650
 5029TIP3   OH215029   3.376   7.586   4.636
 5029TIP3    H115030   3.375   7.602   4.730
 5029TIP3    H215031   3.372   7.673   4.597
 5030TIP3   OH215032   5.408   7.156   1.877
 5030TIP3    H115033   5.432   7.179   1.967
 5030TIP3    H215034   5.440   7.230   1.825
 5031TIP3   OH215035   6.186   4.461   2.849
 5031TIP3    H115036   6.217   4.549   2.870
 5031TIP3    H215037   6.153   4.468   2.760
 5032TIP3   OH215038   2.181   6.331   4.014
 5032TIP3    H115039   2.152   6.293   4.097
 5032TIP3    H215040   2.180   6.257   3.953
 5033TIP3   OH215041   2.148   3.041   5.691
 5033TIP3    H115042   2.083   2.988   5.644
 5033TIP3    H215043   2.181   2.983   5.759
 5034TIP3   OH215044   3.523   2.734   2.571
 5034TIP3    H115045   3.601   2.733   2.515
 5034TIP3    H215046   3.526   2.650   2.618
 5035TIP3   OH215047   7.767   7.820   5.967
 5035TIP3    H115048   7.849   7.862   5.940
 5035TIP3    H215049   7.700   7.864   5.915
 5036TIP3   OH215050   7.369   4.726   6.673
 5036TIP3    H115051   7.307   4.736   6.745
 5036TIP3    H215052   7.411   4.811   6.665
 5037TIP3   OH215053   0.221   7.253   5.913
 5037TIP3    H115054   0.137   7.299   5.922
 5037TIP3    H215055   0.225   7.196   5.990
 5038TIP3   OH215056   0.825   1.939   6.784
 5038TIP3    H115057   0.767   1.961   6.711
 5038TIP3    H215058   0.766   1.916   6.855
 5039TIP3   OH215059   4.016   3.934   3.059
 5039TIP3    H115060   4.062   3.989   2.995
 5039TIP3    H215061   3.931   3.917   3.019
 5040TIP3   OH215062   3.236   2.886   4.876
 5040TIP3    H115063   3.293   2.841   4.814
 5040TIP3    H215064   3.287   2.891   4.957
 5041TIP3   OH215065   7.694   1.834   1.985
 5041TIP3    H115066   7.633   1.785   2.041
 5041TIP3    H215067   7.694   1.923   2.023
 5042TIP3   OH215068   3.124   3.387   1.935
 5042TIP3    H115069   3.134   3.336   1.854
 5042TIP3    H215070   3.065   3.335   1.989
 5043TIP3   OH215071   3.444   6.481   4.666
 5043TIP3    H115072   3.357   6.522   4.670
 5043TIP3    H215073   3.487   6.509   4.747
 5044TIP3   OH215074   0.122   2.495   3.680
 5044TIP3    H115075   0.126   2.590   3.665
 5044TIP3    H215076   0.201   2.476   3.731
 5045TIP3   OH215077   6.990   0.660   0.019
 5045TIP3    H115078   7.081   0.645   0.042
 5045TIP3    H215079   6.990   0.743  -0.029
 5046TIP3   OH215080   0.252   1.065   3.872
 5046TIP3    H115081   0.292   1.086   3.956
 5046TIP3    H215082   0.188   0.996   3.892
 5047TIP3   OH215083   3.221   1.371   6.297
 5047TIP3    H115084   3.199   1.396   6.387
 5047TIP3    H215085   3.138   1.372   6.251
 5048TIP3   OH215086   6.974   2.343   5.418
 5048TIP3    H115087   6.968   2.281   5.346
 5048TIP3    H215088   6.984   2.289   5.496
 5049TIP3   OH215089   7.655   7.212   1.289
 5049TIP3    H115090   7.649   7.126   1.248
 5049TIP3    H215091   7.649   7.274   1.216
 5050TIP3   OH215092   6.079   5.025   6.006
 5050TIP3    H115093   6.027   5.077   6.067
 5050TIP3    H215094   6.094   5.084   5.931
 5051TIP3   OH215095   0.210   5.679   3.037
 5051TIP3    H115096   0.305   5.666   3.041
 5051TIP3    H215097   0.194   5.709   2.947
 5052TIP3   OH215098   7.587   2.559   4.849
 5052TIP3    H115099   7.515   2.502   4.876
 5052TIP3    H215100   7.666   2.511   4.874
 5053TIP3   OH215101   0.777   5.695   1.248
 5053TIP3    H115102   0.862   5.737   1.262
 5053TIP3    H215103   0.732   5.701   1.333
 5054TIP3   OH215104   5.714   3.666   1.720
 5054TIP3    H115105   5.683   3.612   1.648
 5054TIP3    H215106   5.669   3.749   1.710
 5055TIP3   OH215107   7.792   3.525   3.240
 5055TIP3    H115108   7.791   3.486   3.153
 5055TIP3    H215109   7.729   3.473   3.290
 5056TIP3   OH215110   1.420   6.341   0.554
 5056TIP3    H115111   1.499   6.298   0.588
 5056TIP3    H215112   1.352   6.274   0.560
 5057TIP3   OH215113   4.325   7.182   5.356
 5057TIP3    H115114   4.298   7.201   5.266
 5057TIP3    H215115   4.374   7.100   5.349
 5058TIP3   OH215116   7.601   1.701   6.660
 5058TIP3    H115117   7.637   1.661   6.740
 5058TIP3    H215118   7.618   1.636   6.592
 5059TIP3   OH215119   7.484   7.537   3.458
 5059TIP3    H115120   7.550   7.468   3.466
 5059TIP3    H215121   7.401   7.490   3.447
 5060TIP3   OH215122   5.666   4.018   3.189
 5060TIP3    H115123   5.707   4.075   3.124
 5060TIP3    H215124   5.589   4.066   3.219
 5061TIP3   OH215125   5.470   0.249   6.127
 5061TIP3    H115126   5.385   0.233   6.167
 5061TIP3    H215127   5.533   0.233   6.197
 5062TIP3   OH215128   3.485   5.952   5.399
 5062TIP3    H115129   3.410   5.911   5.442
 5062TIP3    H215130   3.534   5.993   5.470
 5063TIP3   OH215131   7.391   2.167   6.575
 5063TIP3    H115132   7.361   2.169   6.485
 5063TIP3    H215133   7.482   2.196   6.571
 5064TIP3   OH215134   0.378   1.403   2.972
 5064TIP3    H115135   0.448   1.415   2.908
 5064TIP3    H215136   0.314   1.348   2.928
 5065TIP3   OH215137   2.228   6.416   2.321
 5065TIP3    H115138   2.304   6.441   2.269
 5065TIP3    H215139   2.249   6.328   2.353
 5066TIP3   OH215140   0.472   4.558   5.333
 5066TIP3    H115141   0.394   4.529   5.287
 5066TIP3    H215142   0.453   4.541   5.425
 5067TIP3   OH215143   7.417   7.628   5.397
 5067TIP3    H115144   7.498   7.678   5.397
 5067TIP3    H215145   7.377   7.647   5.482
 5068TIP3   OH215146   1.754   0.058   5.198
 5068TIP3    H115147   1.711   0.102   5.272
 5068TIP3    H215148   1.840   0.099   5.192
 5069TIP3   OH215149   2.377   0.744   6.721
 5069TIP3    H115150   2.306   0.796   6.760
 5069TIP3    H215151   2.356   0.654   6.746
 5070TIP3   OH215152   5.774   2.734   3.177
 5070TIP3    H115153   5.789   2.646   3.212
 5070TIP3    H215154   5.797   2.793   3.249
 5071TIP3   OH215155   6.817   5.317   1.033
 5071TIP3    H115156   6.798   5.230   1.068
 5071TIP3    H215157   6.908   5.312   1.004
 5072TIP3   OH215158   4.513   0.317   5.474
 5072TIP3    H115159   4.488   0.408   5.491
 5072TIP3    H215160   4.601   0.309   5.510
 5073TIP3   OH215161   3.806   2.498   0.043
 5073TIP3    H115162   3.738   2.485  -0.023
 5073TIP3    H215163   3.847   2.412   0.052
 5074TIP3   OH215164   3.879   6.968   0.011
 5074TIP3    H115165   3.882   7.061  -0.011
 5074TIP3    H215166   3.806   6.934  -0.040
 5075TIP3   OH215167   2.570   4.354   1.116
 5075TIP3    H115168   2.505   4.329   1.050
 5075TIP3    H215169   2.565   4.286   1.182
 5076TIP3   OH215170   4.213   5.679   1.057
 5076TIP3    H115171   4.296   5.725   1.048
 5076TIP3    H215172   4.233   5.589   1.031
 5077TIP3   OH215173   7.870   7.013   0.731
 5077TIP3    H115174   7.904   7.001   0.642
 5077TIP3    H215175   7.792   7.067   0.719
 5078TIP3   OH215176   5.790   4.474   5.863
 5078TIP3    H115177   5.757   4.539   5.925
 5078TIP3    H215178   5.780   4.515   5.777
 5079TIP3   OH215179   6.482   5.722   2.209
 5079TIP3    H115180   6.486   5.737   2.304
 5079TIP3    H215181   6.556   5.771   2.174
 5080TIP3   OH215182   6.970   7.428   3.894
 5080TIP3    H115183   6.951   7.385   3.977
 5080TIP3    H215184   6.884   7.442   3.854
 5081TIP3   OH215185   6.131   5.942   1.639
 5081TIP3    H115186   6.097   5.854   1.622
 5081TIP3    H215187   6.054   5.998   1.632
 5082TIP3   OH215188   1.324   3.008   5.162
 5082TIP3    H115189   1.294   2.939   5.102
 5082TIP3    H215190   1.381   3.063   5.108
 5083TIP3   OH215191   7.798   4.505   1.806
 5083TIP3    H115192   7.714   4.485   1.847
 5083TIP3    H215193   7.778   4.511   1.712
 5084TIP3   OH215194   5.372   5.417   6.653
 5084TIP3    H115195   5.285   5.446   6.625
 5084TIP3    H215196   5.410   5.493   6.696
 5085TIP3   OH215197   0.050   3.694   0.657
 5085TIP3    H115198   0.007   3.672   0.575
 5085TIP3    H215199   0.124   3.633   0.662
 5086TIP3   OH215200   5.878   3.564   3.510
 5086TIP3    H115201   5.882   3.498   3.441
 5086TIP3    H215202   5.785   3.578   3.526
 5087TIP3   OH215203   3.326   1.985   1.832
 5087TIP3    H115204   3.379   1.968   1.754
 5087TIP3    H215205   3.382   2.041   1.887
 5088TIP3   OH215206   2.291   6.877   3.155
 5088TIP3    H115207   2.235   6.813   3.112
 5088TIP3    H215208   2.317   6.836   3.237
 5089TIP3   OH215209   3.911   5.037   4.998
 5089TIP3    H115210   3.819   5.015   4.985
 5089TIP3    H215211   3.958   4.981   4.936
 5090TIP3   OH215212   6.783   3.028   6.550
 5090TIP3    H115213   6.865   3.057   6.589
 5090TIP3    H215214   6.750   2.963   6.612
 5091TIP3   OH215215   3.290   7.421   0.204
 5091TIP3    H115216   3.379   7.450   0.224
 5091TIP3    H215217   3.234   7.485   0.247
 5092TIP3   OH215218   1.400   4.054   4.251
 5092TIP3    H115219   1.468   4.005   4.205
 5092TIP3    H215220   1.448   4.115   4.307
 5093TIP3   OH215221   3.383   5.901   2.627
 5093TIP3    H115222   3.316   5.894   2.559
 5093TIP3    H215223   3.435   5.821   2.617
 5094TIP3   OH215224   2.751   0.195   6.141
 5094TIP3    H115225   2.667   0.225   6.174
 5094TIP3    H215226   2.781   0.265   6.083
 5095TIP3   OH215227   1.053   3.437   1.383
 5095TIP3    H115228   0.962   3.408   1.392
 5095TIP3    H215229   1.078   3.467   1.470
 5096TIP3   OH215230   2.907   4.321   4.318
 5096TIP3    H115231   2.984   4.353   4.365
 5096TIP3    H215232   2.898   4.381   4.244
 5097TIP3   OH215233   2.017   2.943   4.208
 5097TIP3    H115234   1.933   2.920   4.247
 5097TIP3    H215235   2.082   2.909   4.270
 5098TIP3   OH215236   7.297   3.796   1.241
 5098TIP3    H115237   7.317   3.886   1.268
 5098TIP3    H215238   7.368   3.743   1.279
 5099TIP3   OH215239   6.045   7.428   2.427
 5099TIP3    H115240   6.112   7.419   2.494
 5099TIP3    H215241   5.962   7.417   2.474
 5100TIP3   OH215242   2.428   3.562   3.336
 5100TIP3    H115243   2.432   3.557   3.240
 5100TIP3    H215244   2.513   3.596   3.361
 5101TIP3   OH215245   3.498   1.196   4.564
 5101TIP3    H115246   3.514   1.283   4.601
 5101TIP3    H215247   3.583   1.153   4.566
 5102TIP3   OH215248   7.392   4.852   6.355
 5102TIP3    H115249   7.402   4.763   6.320
 5102TIP3    H215250   7.317   4.845   6.414
 5103TIP3   OH215251   6.326   2.681   4.148
 5103TIP3    H115252   6.239   2.673   4.188
 5103TIP3    H215253   6.359   2.765   4.179
 5104TIP3   OH215254   2.968   3.614   2.680
 5104TIP3    H115255   3.041   3.562   2.646
 5104TIP3    H215256   2.946   3.573   2.764
 5105TIP3   OH215257   7.205   1.251   6.031
 5105TIP3    H115258   7.251   1.319   6.079
 5105TIP3    H215259   7.156   1.202   6.097
 5106TIP3   OH215260   7.538   3.840   1.729
 5106TIP3    H115261   7.595   3.816   1.802
 5106TIP3    H215262   7.588   3.818   1.651
 5107TIP3   OH215263   5.976   2.596   0.661
 5107TIP3    H115264   6.009   2.636   0.580
 5107TIP3    H215265   6.041   2.618   0.727
 5108TIP3   OH215266   1.863   1.286   5.530
 5108TIP3    H115267   1.857   1.328   5.615
 5108TIP3    H215268   1.933   1.332   5.485
 5109TIP3   OH215269   4.300   3.261   0.632
 5109TIP3    H115270   4.239   3.324   0.671
 5109TIP3    H215271   4.268   3.248   0.543
 5110TIP3   OH215272   0.003   4.162   2.476
 5110TIP3    H115273   0.093   4.181   2.502
 5110TIP3    H215274  -0.043   4.144   2.558
 5111TIP3   OH215275   0.971   7.008   2.025
 5111TIP3    H115276   0.996   6.916   2.020
 5111TIP3    H215277   1.048   7.052   2.061
 5112TIP3   OH215278   1.259   5.224   2.692
 5112TIP3    H115279   1.335   5.279   2.713
 5112TIP3    H215280   1.198   5.283   2.647
 5113TIP3   OH215281   4.259   4.204   0.206
 5113TIP3    H115282   4.291   4.123   0.244
 5113TIP3    H215283   4.207   4.245   0.276
 5114TIP3   OH215284   5.715   1.426   6.569
 5114TIP3    H115285   5.680   1.498   6.621
 5114TIP3    H215286   5.703   1.455   6.478
 5115TIP3   OH215287   5.975   0.433   4.364
 5115TIP3    H115288   5.959   0.394   4.278
 5115TIP3    H215289   5.903   0.495   4.376
 5116TIP3   OH215290   0.652   1.607   3.784
 5116TIP3    H115291   0.604   1.525   3.793
 5116TIP3    H215292   0.712   1.608   3.859
 5117TIP3   OH215293   6.022   0.001   2.310
 5117TIP3    H115294   6.099   0.057   2.317
 5117TIP3    H215295   5.975   0.032   2.233
 5118TIP3   OH215296   4.824   5.330   5.917
 5118TIP3    H115297   4.753   5.353   5.858
 5118TIP3    H215298   4.843   5.238   5.897
 5119TIP3   OH215299   3.261   2.862   1.103
 5119TIP3    H115300   3.265   2.771   1.133
 5119TIP3    H215301   3.349   2.896   1.116
 5120TIP3   OH215302   4.858   0.312   2.261
 5120TIP3    H115303   4.779   0.259   2.270
 5120TIP3    H215304   4.928   0.247   2.247
 5121TIP3   OH215305   7.606   4.467   6.567
 5121TIP3    H115306   7.635   4.452   6.478
 5121TIP3    H215307   7.529   4.524   6.558
 5122TIP3   OH215308   7.362   2.227   3.505
 5122TIP3    H115309   7.315   2.277   3.572
 5122TIP3    H215310   7.355   2.282   3.426
 5123TIP3   OH215311   3.733   4.820   1.032
 5123TIP3    H115312   3.661   4.798   1.091
 5123TIP3    H215313   3.788   4.880   1.084
 5124TIP3   OH215314   1.357   6.783   2.504
 5124TIP3    H115315   1.365   6.702   2.553
 5124TIP3    H215316   1.429   6.838   2.535
 5125TIP3   OH215317   1.470   3.806   0.408
 5125TIP3    H115318   1.510   3.781   0.492
 5125TIP3    H215319   1.422   3.887   0.428
 5126TIP3   OH215320   1.510   1.730   2.135
 5126TIP3    H115321   1.487   1.789   2.063
 5126TIP3    H215322   1.425   1.701   2.170
 5127TIP3   OH215323   0.395   7.246   3.951
 5127TIP3    H115324   0.479   7.287   3.968
 5127TIP3    H215325   0.406   7.203   3.866
 5128TIP3   OH215326   7.250   0.930   2.691
 5128TIP3    H115327   7.246   0.927   2.595
 5128TIP3    H215328   7.257   0.838   2.717
 5129TIP3   OH215329   2.554   6.264   2.237
 5129TIP3    H115330   2.641   6.263   2.276
 5129TIP3    H215331   2.516   6.180   2.261
 5130TIP3   OH215332   4.534   6.975   2.332
 5130TIP3    H115333   4.567   6.919   2.402
 5130TIP3    H215334   4.475   6.920   2.282
 5131TIP3   OH215335   1.299   1.379   5.572
 5131TIP3    H115336   1.274   1.298   5.527
 5131TIP3    H215337   1.285   1.447   5.507
 5132TIP3   OH215338   3.267   4.473   3.922
 5132TIP3    H115339   3.270   4.385   3.960
 5132TIP3    H215340   3.266   4.532   3.997
 5133TIP3   OH215341   6.884   0.107   5.980
 5133TIP3    H115342   6.880   0.052   6.059
 5133TIP3    H215343   6.924   0.189   6.010
 5134TIP3   OH215344   2.460   2.109   1.390
 5134TIP3    H115345   2.453   2.140   1.300
 5134TIP3    H215346   2.387   2.151   1.436
 5135TIP3   OH215347   5.814   6.582   5.946
 5135TIP3    H115348   5.854   6.524   5.880
 5135TIP3    H215349   5.886   6.603   6.005
 5136TIP3   OH215350   7.523   6.171   3.191
 5136TIP3    H115351   7.487   6.255   3.219
 5136TIP3    H215352   7.608   6.193   3.152
 5137TIP3   OH215353   0.285   3.917   5.474
 5137TIP3    H115354   0.252   3.867   5.549
 5137TIP3    H215355   0.209   3.926   5.416
 5138TIP3   OH215356   3.361   0.296   0.697
 5138TIP3    H115357   3.445   0.282   0.652
 5138TIP3    H215358   3.367   0.241   0.776
 5139TIP3   OH215359   5.051   5.576   1.150
 5139TIP3    H115360   5.050   5.669   1.172
 5139TIP3    H215361   4.980   5.539   1.202
 5140TIP3   OH215362   1.309   4.076   1.001
 5140TIP3    H115363   1.254   4.154   1.010
 5140TIP3    H215364   1.337   4.057   1.091
 5141TIP3   OH215365   7.928   6.401   6.501
 5141TIP3    H115366   7.967   6.313   6.495
 5141TIP3    H215367   7.980   6.454   6.441
 5142TIP3   OH215368   7.296   6.630   2.495
 5142TIP3    H115369   7.381   6.673   2.500
 5142TIP3    H215370   7.303   6.555   2.555
 5143TIP3   OH215371   3.365   4.193   3.513
 5143TIP3    H115372   3.283   4.182   3.464
 5143TIP3    H215373   3.348   4.152   3.598
 5144TIP3   OH215374   4.620   2.925   3.747
 5144TIP3    H115375   4.673   2.936   3.668
 5144TIP3    H215376   4.670   2.862   3.800
 5145TIP3   OH215377   3.555   6.522   2.920
 5145TIP3    H115378   3.496   6.582   2.875
 5145TIP3    H215379   3.506   6.439   2.923
 5146TIP3   OH215380   2.210   7.434   4.391
 5146TIP3    H115381   2.238   7.494   4.460
 5146TIP3    H215382   2.129   7.395   4.424
 5147TIP3   OH215383   3.159   6.577   4.624
 5147TIP3    H115384   3.083   6.631   4.601
 5147TIP3    H215385   3.123   6.489   4.636
 5148TIP3   OH215386   3.545   5.638   4.466
 5148TIP3    H115387   3.622   5.648   4.411
 5148TIP3    H215388   3.490   5.713   4.445
 5149TIP3   OH215389   5.017   2.196   4.558
 5149TIP3    H115390   4.989   2.129   4.495
 5149TIP3    H215391   5.113   2.195   4.552
 5150TIP3   OH215392   1.893   1.244   0.137
 5150TIP3    H115393   1.942   1.304   0.080
 5150TIP3    H215394   1.915   1.157   0.105
 5151TIP3   OH215395   3.924   5.560   3.982
 5151TIP3    H115396   3.941   5.502   4.057
 5151TIP3    H215397   4.006   5.562   3.934
 5152TIP3   OH215398   7.755   2.050   6.189
 5152TIP3    H115399   7.665   2.077   6.170
 5152TIP3    H215400   7.810   2.111   6.140
 5153TIP3   OH215401   5.568   6.098   1.880
 5153TIP3    H115402   5.599   6.145   1.802
 5153TIP3    H215403   5.474   6.117   1.884
 5154TIP3   OH215404   0.595   2.606   5.899
 5154TIP3    H115405   0.686   2.604   5.926
 5154TIP3    H215406   0.599   2.605   5.803
 5155TIP3   OH215407   1.906   5.736   2.636
 5155TIP3    H115408   1.924   5.651   2.677
 5155TIP3    H215409   1.875   5.791   2.708
 5156TIP3   OH215410   7.401   6.886   1.802
 5156TIP3    H115411   7.460   6.844   1.865
 5156TIP3    H215412   7.442   6.869   1.717
 5157TIP3   OH215413   0.606   6.190   2.279
 5157TIP3    H115414   0.657   6.264   2.246
 5157TIP3    H215415   0.671   6.131   2.317
 5158TIP3   OH215416   2.672   3.212   2.008
 5158TIP3    H115417   2.747   3.231   2.064
 5158TIP3    H215418   2.704   3.229   1.919
 5159TIP3   OH215419   4.385   5.789   1.423
 5159TIP3    H115420   4.293   5.791   1.397
 5159TIP3    H215421   4.421   5.711   1.381
 5160TIP3   OH215422   6.744   3.294   5.154
 5160TIP3    H115423   6.732   3.233   5.227
 5160TIP3    H215424   6.837   3.289   5.133
 5161TIP3   OH215425   5.977   3.378   0.616
 5161TIP3    H115426   5.965   3.317   0.690
 5161TIP3    H215427   6.072   3.377   0.600
 5162TIP3   OH215428   6.044   6.023   0.376
 5162TIP3    H115429   6.045   6.003   0.282
 5162TIP3    H215430   6.088   5.948   0.417
 5163TIP3   OH215431   7.072   3.956   4.066
 5163TIP3    H115432   7.050   4.013   3.993
 5163TIP3    H215433   7.150   3.996   4.105
 5164TIP3   OH215434   2.848   3.106   2.634
 5164TIP3    H115435   2.778   3.041   2.624
 5164TIP3    H215436   2.918   3.060   2.679
 5165TIP3   OH215437   4.253   5.466   4.474
 5165TIP3    H115438   4.329   5.427   4.519
 5165TIP3    H215439   4.205   5.510   4.544
 5166TIP3   OH215440   5.306   6.649   2.740
 5166TIP3    H115441   5.240   6.701   2.694
 5166TIP3    H215442   5.262   6.566   2.760
 5167TIP3   OH215443   0.351   5.442   0.657
 5167TIP3    H115444   0.300   5.458   0.737
 5167TIP3    H215445   0.337   5.520   0.603
 5168TIP3   OH215446   4.371   1.449   1.631
 5168TIP3    H115447   4.342   1.360   1.611
 5168TIP3    H215448   4.444   1.465   1.572
 5169TIP3   OH215449   6.749   2.838   5.008
 5169TIP3    H115450   6.683   2.771   4.989
 5169TIP3    H215451   6.811   2.832   4.936
 5170TIP3   OH215452   1.941   0.350   4.048
 5170TIP3    H115453   1.847   0.342   4.066
 5170TIP3    H215454   1.969   0.260   4.029
 5171TIP3   OH215455   0.356   5.901   0.216
 5171TIP3    H115456   0.330   5.991   0.199
 5171TIP3    H215457   0.451   5.904   0.223
 5172TIP3   OH215458   1.382   0.889  -0.009
 5172TIP3    H115459   1.416   0.979  -0.003
 5172TIP3    H215460   1.299   0.892   0.038
 5173TIP3   OH215461   0.869   2.004   4.110
 5173TIP3    H115462   0.828   2.018   4.024
 5173TIP3    H215463   0.808   1.945   4.155
 5174TIP3   OH215464   7.620   4.964   5.370
 5174TIP3    H115465   7.544   4.983   5.425
 5174TIP3    H215466   7.688   4.936   5.432
 5175TIP3   OH215467   3.357   2.531   6.327
 5175TIP3    H115468   3.408   2.612   6.323
 5175TIP3    H215469   3.280   2.548   6.271
 5176TIP3   OH215470   7.594   4.448   4.791
 5176TIP3    H115471   7.568   4.538   4.774
 5176TIP3    H215472   7.605   4.409   4.704
 5177TIP3   OH215473   4.444   2.000   6.532
 5177TIP3    H115474   4.354   1.968   6.539
 5177TIP3    H215475   4.458   2.050   6.612
 5178TIP3   OH215476   4.327   1.493   4.584
 5178TIP3    H115477   4.295   1.558   4.521
 5178TIP3    H215478   4.249   1.464   4.631
 5179TIP3   OH215479   0.750   0.156   6.326
 5179TIP3    H115480   0.713   0.094   6.390
 5179TIP3    H215481   0.743   0.241   6.369
 5180TIP3   OH215482   4.995   5.945   6.505
 5180TIP3    H115483   5.046   6.003   6.562
 5180TIP3    H215484   4.923   5.914   6.560
 5181TIP3   OH215485   1.581   1.500   6.400
 5181TIP3    H115486   1.669   1.483   6.433
 5181TIP3    H215487   1.594   1.524   6.308
 5182TIP3   OH215488   1.400   0.162   4.069
 5182TIP3    H115489   1.351   0.142   4.149
 5182TIP3    H215490   1.377   0.252   4.048
 5183TIP3   OH215491   0.536   4.826   3.005
 5183TIP3    H115492   0.599   4.857   2.940
 5183TIP3    H215493   0.589   4.777   3.067
 5184TIP3   OH215494   0.187   1.403   4.059
 5184TIP3    H115495   0.104   1.435   4.096
 5184TIP3    H215496   0.174   1.308   4.052
 5185TIP3   OH215497   4.723   7.122   0.128
 5185TIP3    H115498   4.773   7.178   0.187
 5185TIP3    H215499   4.641   7.169   0.113
 5186TIP3   OH215500   0.448   2.376   0.836
 5186TIP3    H115501   0.492   2.358   0.918
 5186TIP3    H215502   0.388   2.302   0.824
 5187TIP3   OH215503   7.843   0.070   3.159
 5187TIP3    H115504   7.911   0.049   3.222
 5187TIP3    H215505   7.801  -0.014   3.140
 5188TIP3   OH215506   8.141   4.890   0.755
 5188TIP3    H115507   8.061   4.938   0.734
 5188TIP3    H215508   8.201   4.908   0.682
 5189TIP3   OH215509   7.935   6.708   3.298
 5189TIP3    H115510   7.881   6.663   3.362
 5189TIP3    H215511   7.916   6.665   3.215
 5190TIP3   OH215512   7.260   1.608   1.891
 5190TIP3    H115513   7.344   1.572   1.916
 5190TIP3    H215514   7.254   1.592   1.796
 5191TIP3   OH215515   0.813   2.256   1.804
 5191TIP3    H115516   0.753   2.268   1.877
 5191TIP3    H215517   0.766   2.199   1.743
 5192TIP3   OH215518   1.485   0.742   5.086
 5192TIP3    H115519   1.503   0.835   5.095
 5192TIP3    H215520   1.495   0.725   4.992
 5193TIP3   OH215521   1.763   1.895   2.051
 5193TIP3    H115522   1.711   1.832   2.101
 5193TIP3    H215523   1.794   1.846   1.975
 5194TIP3   OH215524   2.248   2.002   0.795
 5194TIP3    H115525   2.167   1.979   0.841
 5194TIP3    H215526   2.236   1.964   0.708
 5195TIP3   OH215527   5.723   4.457   0.888
 5195TIP3    H115528   5.777   4.386   0.924
 5195TIP3    H215529   5.781   4.533   0.889
 5196TIP3   OH215530   1.132   3.427   3.396
 5196TIP3    H115531   1.116   3.497   3.459
 5196TIP3    H215532   1.163   3.471   3.317
 5197TIP3   OH215533   4.273   2.542   5.611
 5197TIP3    H115534   4.345   2.552   5.549
 5197TIP3    H215535   4.306   2.578   5.693
 5198TIP3   OH215536   7.626   3.929   0.666
 5198TIP3    H115537   7.610   3.984   0.590
 5198TIP3    H215538   7.569   3.853   0.654
 5199TIP3   OH215539   6.387   6.051   2.151
 5199TIP3    H115540   6.469   6.093   2.123
 5199TIP3    H215541   6.340   6.034   2.070
 5200TIP3   OH215542   6.684   4.543   1.792
 5200TIP3    H115543   6.641   4.558   1.708
 5200TIP3    H215544   6.668   4.450   1.810
 5201TIP3   OH215545   0.368   1.778   0.542
 5201TIP3    H115546   0.324   1.856   0.507
 5201TIP3    H215547   0.442   1.814   0.591
 5202TIP3   OH215548   7.248   1.091   4.308
 5202TIP3    H115549   7.263   1.089   4.213
 5202TIP3    H215550   7.290   1.172   4.337
 5203TIP3   OH215551   4.685   1.443   1.593
 5203TIP3    H115552   4.664   1.438   1.686
 5203TIP3    H215553   4.756   1.507   1.587
 5204TIP3   OH215554   7.971   0.624   2.281
 5204TIP3    H115555   7.968   0.647   2.188
 5204TIP3    H215556   7.889   0.659   2.316
 5205TIP3   OH215557   4.103   3.079   3.848
 5205TIP3    H115558   4.195   3.101   3.861
 5205TIP3    H215559   4.087   3.007   3.910
 5206TIP3   OH215560   4.008   4.548   5.549
 5206TIP3    H115561   4.065   4.612   5.591
 5206TIP3    H215562   3.923   4.560   5.592
 5207TIP3   OH215563   8.204   4.406   4.627
 5207TIP3    H115564   8.287   4.373   4.592
 5207TIP3    H215565   8.204   4.377   4.718
 5208TIP3   OH215566   3.727   6.154   3.918
 5208TIP3    H115567   3.719   6.248   3.937
 5208TIP3    H215568   3.638   6.120   3.928
 5209TIP3   OH215569   3.745   6.385   0.549
 5209TIP3    H115570   3.815   6.345   0.497
 5209TIP3    H215571   3.788   6.451   0.602
 5210TIP3   OH215572   7.386   6.477   1.465
 5210TIP3    H115573   7.427   6.457   1.380
 5210TIP3    H215574   7.453   6.455   1.530
 5211TIP3   OH215575   1.419   0.883   1.995
 5211TIP3    H115576   1.500   0.891   1.946
 5211TIP3    H215577   1.394   0.791   1.986
 5212TIP3   OH215578   0.174   0.565   2.680
 5212TIP3    H115579   0.141   0.654   2.671
 5212TIP3    H215580   0.258   0.575   2.726
 5213TIP3   OH215581   1.227   5.258   4.887
 5213TIP3    H115582   1.209   5.336   4.939
 5213TIP3    H215583   1.314   5.230   4.915
 5214TIP3   OH215584   6.510   6.615   4.422
 5214TIP3    H115585   6.590   6.635   4.470
 5214TIP3    H215586   6.530   6.536   4.373
 5215TIP3   OH215587   0.193   0.134   2.378
 5215TIP3    H115588   0.203   0.229   2.379
 5215TIP3    H215589   0.179   0.111   2.470
 5216TIP3   OH215590   1.610   3.747   6.293
 5216TIP3    H115591   1.697   3.756   6.254
 5216TIP3    H215592   1.558   3.703   6.225
 5217TIP3   OH215593   0.419   4.232   5.854
 5217TIP3    H115594   0.395   4.155   5.905
 5217TIP3    H215595   0.428   4.201   5.764
 5218TIP3   OH215596   3.495   1.095   0.642
 5218TIP3    H115597   3.450   1.045   0.574
 5218TIP3    H215598   3.574   1.045   0.660
 5219TIP3   OH215599   1.291   4.351   1.854
 5219TIP3    H115600   1.380   4.327   1.827
 5219TIP3    H215601   1.272   4.432   1.805
 5220TIP3   OH215602   0.329   2.960   4.068
 5220TIP3    H115603   0.234   2.954   4.055
 5220TIP3    H215604   0.350   2.887   4.127
 5221TIP3   OH215605   0.459   5.264   2.028
 5221TIP3    H115606   0.503   5.318   1.962
 5221TIP3    H215607   0.453   5.321   2.105
 5222TIP3   OH215608   4.376   5.190   5.109
 5222TIP3    H115609   4.434   5.138   5.053
 5222TIP3    H215610   4.320   5.126   5.152
 5223TIP3   OH215611   4.890   3.389   2.701
 5223TIP3    H115612   4.820   3.373   2.637
 5223TIP3    H215613   4.893   3.484   2.709
 5224TIP3   OH215614   8.248   5.403   2.579
 5224TIP3    H115615   8.243   5.498   2.571
 5224TIP3    H215616   8.204   5.385   2.663
 5225TIP3   OH215617   5.953   7.218   1.734
 5225TIP3    H115618   5.987   7.131   1.717
 5225TIP3    H215619   5.907   7.242   1.654
 5226TIP3   OH215620   2.485   4.834   2.610
 5226TIP3    H115621   2.570   4.825   2.654
 5226TIP3    H215622   2.475   4.753   2.560
 5227TIP3   OH215623   6.040   6.784   1.901
 5227TIP3    H115624   6.018   6.737   1.820
 5227TIP3    H215625   6.136   6.781   1.905
 5228TIP3   OH215626   7.230   4.729   5.304
 5228TIP3    H115627   7.259   4.645   5.270
 5228TIP3    H215628   7.298   4.754   5.366
 5229TIP3   OH215629   0.198   4.145   3.552
 5229TIP3    H115630   0.158   4.122   3.468
 5229TIP3    H215631   0.222   4.060   3.591
 5230TIP3   OH215632   6.723   1.550   1.484
 5230TIP3    H115633   6.636   1.533   1.447
 5230TIP3    H215634   6.718   1.640   1.515
 5231TIP3   OH215635   0.521   1.091   2.985
 5231TIP3    H115636   0.490   1.135   2.905
 5231TIP3    H215637   0.491   1.001   2.976
 5232TIP3   OH215638   2.492   3.396   2.068
 5232TIP3    H115639   2.561   3.331   2.056
 5232TIP3    H215640   2.515   3.441   2.149
 5233TIP3   OH215641   0.906   7.727   4.558
 5233TIP3    H115642   0.950   7.704   4.476
 5233TIP3    H215643   0.813   7.717   4.539
 5234TIP3   OH215644   7.439   3.410   1.673
 5234TIP3    H115645   7.455   3.442   1.761
 5234TIP3    H215646   7.512   3.445   1.621
 5235TIP3   OH215647   6.762   5.759   2.042
 5235TIP3    H115648   6.698   5.751   1.971
 5235TIP3    H215649   6.763   5.673   2.083
 5236TIP3   OH215650   4.993   1.692   4.548
 5236TIP3    H115651   4.998   1.740   4.466
 5236TIP3    H215652   5.080   1.653   4.559
 5237TIP3   OH215653   4.790   5.484   1.727
 5237TIP3    H115654   4.776   5.563   1.779
 5237TIP3    H215655   4.870   5.502   1.677
 5238TIP3   OH215656   0.871   7.576   3.064
 5238TIP3    H115657   0.921   7.528   3.130
 5238TIP3    H215658   0.783   7.584   3.100
 5239TIP3   OH215659   4.534   6.842   4.157
 5239TIP3    H115660   4.522   6.908   4.226
 5239TIP3    H215661   4.623   6.810   4.170
 5240TIP3   OH215662   6.826   0.119   2.130
 5240TIP3    H115663   6.788   0.040   2.166
 5240TIP3    H215664   6.754   0.182   2.127
 5241TIP3   OH215665   1.739   0.786   0.870
 5241TIP3    H115666   1.755   0.869   0.914
 5241TIP3    H215667   1.750   0.805   0.777
 5242TIP3   OH215668   6.393   6.325   4.777
 5242TIP3    H115669   6.488   6.310   4.782
 5242TIP3    H215670   6.365   6.274   4.701
 5243TIP3   OH215671   2.817   4.544   0.298
 5243TIP3    H115672   2.844   4.460   0.262
 5243TIP3    H215673   2.826   4.606   0.226
 5244TIP3   OH215674   1.723   2.454   0.562
 5244TIP3    H115675   1.703   2.422   0.474
 5244TIP3    H215676   1.686   2.387   0.621
 5245TIP3   OH215677   0.217   5.097   5.461
 5245TIP3    H115678   0.220   5.187   5.495
 5245TIP3    H215679   0.278   5.049   5.517
 5246TIP3   OH215680   6.316   4.607   1.621
 5246TIP3    H115681   6.401   4.563   1.619
 5246TIP3    H215682   6.255   4.540   1.651
 5247TIP3   OH215683   3.076   2.610   5.290
 5247TIP3    H115684   3.166   2.610   5.257
 5247TIP3    H215685   3.068   2.691   5.340
 5248TIP3   OH215686   3.404   4.523   3.261
 5248TIP3    H115687   3.367   4.609   3.239
 5248TIP3    H215688   3.371   4.464   3.194
 5249TIP3   OH215689   7.675   3.881   4.363
 5249TIP3    H115690   7.765   3.865   4.391
 5249TIP3    H215691   7.662   3.975   4.376
 5250TIP3   OH215692   1.913   0.117   6.027
 5250TIP3    H115693   1.839   0.058   6.014
 5250TIP3    H215694   1.951   0.089   6.111
 5251TIP3   OH215695   7.499   5.524   3.133
 5251TIP3    H115696   7.487   5.467   3.209
 5251TIP3    H215697   7.412   5.528   3.092
 5252TIP3   OH215698   1.166   4.098   5.695
 5252TIP3    H115699   1.100   4.030   5.700
 5252TIP3    H215700   1.237   4.067   5.752
 5253TIP3   OH215701   7.901   7.110   6.170
 5253TIP3    H115702   7.924   7.161   6.092
 5253TIP3    H215703   7.860   7.174   6.229
 5254TIP3   OH215704   0.749   1.448   0.535
 5254TIP3    H115705   0.671   1.427   0.484
 5254TIP3    H215706   0.727   1.425   0.625
 5255TIP3   OH215707   7.201   3.313   3.353
 5255TIP3    H115708   7.158   3.231   3.377
 5255TIP3    H215709   7.196   3.367   3.431
 5256TIP3   OH215710   5.497   7.339   5.437
 5256TIP3    H115711   5.468   7.376   5.520
 5256TIP3    H215712   5.586   7.373   5.425
 5257TIP3   OH215713   2.674   5.156   1.334
 5257TIP3    H115714   2.712   5.221   1.394
 5257TIP3    H215715   2.737   5.084   1.333
 5258TIP3   OH215716   2.416   5.534   6.201
 5258TIP3    H115717   2.412   5.508   6.293
 5258TIP3    H215718   2.351   5.604   6.193
 5259TIP3   OH215719   6.018   0.731   2.424
 5259TIP3    H115720   5.971   0.787   2.485
 5259TIP3    H215721   5.983   0.755   2.338
 5260TIP3   OH215722   2.403   0.229   3.445
 5260TIP3    H115723   2.416   0.169   3.519
 5260TIP3    H215724   2.472   0.205   3.382
 5261TIP3   OH215725   6.232   5.513   3.733
 5261TIP3    H115726   6.304   5.449   3.730
 5261TIP3    H215727   6.274   5.596   3.756
 5262TIP3   OH215728   0.556   3.718   0.273
 5262TIP3    H115729   0.522   3.800   0.236
 5262TIP3    H215730   0.584   3.667   0.197
 5263TIP3   OH215731   6.513   0.257   5.022
 5263TIP3    H115732   6.600   0.230   4.993
 5263TIP3    H215733   6.500   0.344   4.984
 5264TIP3   OH215734   3.215   5.583   6.141
 5264TIP3    H115735   3.161   5.523   6.194
 5264TIP3    H215736   3.156   5.614   6.072
 5265TIP3   OH215737   5.790   3.547   3.833
 5265TIP3    H115738   5.769   3.460   3.867
 5265TIP3    H215739   5.818   3.532   3.743
 5266TIP3   OH215740   1.614   0.459   2.683
 5266TIP3    H115741   1.654   0.545   2.667
 5266TIP3    H215742   1.594   0.459   2.776
 5267TIP3   OH215743   7.510   7.164   6.398
 5267TIP3    H115744   7.495   7.094   6.461
 5267TIP3    H215745   7.487   7.244   6.445
 5268TIP3   OH215746   0.652   2.684   3.126
 5268TIP3    H115747   0.579   2.637   3.166
 5268TIP3    H215748   0.621   2.775   3.120
 5269TIP3   OH215749   4.197   3.323   1.882
 5269TIP3    H115750   4.255   3.312   1.806
 5269TIP3    H215751   4.127   3.260   1.868
 5270TIP3   OH215752   3.092   3.480   2.307
 5270TIP3    H115753   3.049   3.543   2.249
 5270TIP3    H215754   3.021   3.425   2.340
 5271TIP3   OH215755   2.048   0.962   0.444
 5271TIP3    H115756   2.080   0.872   0.453
 5271TIP3    H215757   2.062   0.984   0.352
 5272TIP3   OH215758   8.168   2.148   4.481
 5272TIP3    H115759   8.251   2.119   4.445
 5272TIP3    H215760   8.137   2.215   4.420
 5273TIP3   OH215761   4.963   3.049   1.152
 5273TIP3    H115762   4.995   3.053   1.242
 5273TIP3    H215763   4.873   3.082   1.157
 5274TIP3   OH215764   4.115   5.326   3.277
 5274TIP3    H115765   4.106   5.354   3.185
 5274TIP3    H215766   4.057   5.250   3.285
 5275TIP3   OH215767   7.249   2.399   4.619
 5275TIP3    H115768   7.272   2.491   4.606
 5275TIP3    H215769   7.284   2.355   4.541
 5276TIP3   OH215770   7.949   2.356   6.492
 5276TIP3    H115771   7.924   2.414   6.565
 5276TIP3    H215772   7.986   2.279   6.534
 5277TIP3   OH215773   7.829   7.149   0.324
 5277TIP3    H115774   7.855   7.229   0.278
 5277TIP3    H215775   7.741   7.168   0.355
 5278TIP3   OH215776   5.180   1.758   0.554
 5278TIP3    H115777   5.224   1.720   0.478
 5278TIP3    H215778   5.112   1.814   0.516
 5279TIP3   OH215779   8.308   3.764   1.818
 5279TIP3    H115780   8.237   3.771   1.882
 5279TIP3    H215781   8.267   3.729   1.739
 5280TIP3   OH215782   6.992   3.289   4.101
 5280TIP3    H115783   6.927   3.254   4.040
 5280TIP3    H215784   7.020   3.214   4.153
 5281TIP3   OH215785   3.530   0.191   1.581
 5281TIP3    H115786   3.527   0.103   1.543
 5281TIP3    H215787   3.600   0.186   1.646
 5282TIP3   OH215788   5.284   0.504   6.171
 5282TIP3    H115789   5.279   0.423   6.221
 5282TIP3    H215790   5.286   0.574   6.237
 5283TIP3   OH215791   4.092   6.005   1.693
 5283TIP3    H115792   4.181   5.969   1.691
 5283TIP3    H215793   4.099   6.089   1.649
 5284TIP3   OH215794   3.786   1.721   1.315
 5284TIP3    H115795   3.736   1.799   1.340
 5284TIP3    H215796   3.826   1.691   1.397
 5285TIP3   OH215797   4.008   2.132   6.716
 5285TIP3    H115798   4.001   2.159   6.625
 5285TIP3    H215799   4.066   2.197   6.756
 5286TIP3   OH215800   1.417   5.500   1.962
 5286TIP3    H115801   1.405   5.594   1.976
 5286TIP3    H215802   1.344   5.474   1.906
 5287TIP3   OH215803   8.158   1.028   3.886
 5287TIP3    H115804   8.186   1.055   3.799
 5287TIP3    H215805   8.194   0.939   3.897
 5288TIP3   OH215806   4.816   5.104   4.374
 5288TIP3    H115807   4.854   5.147   4.297
 5288TIP3    H215808   4.806   5.013   4.349
 5289TIP3   OH215809   1.786   6.762   2.667
 5289TIP3    H115810   1.712   6.812   2.633
 5289TIP3    H215811   1.862   6.796   2.619
 5290TIP3   OH215812   1.377   1.178   3.608
 5290TIP3    H115813   1.344   1.210   3.692
 5290TIP3    H215814   1.466   1.149   3.626
 5291TIP3   OH215815   5.497   6.695   6.433
 5291TIP3    H115816   5.424   6.736   6.481
 5291TIP3    H215817   5.460   6.612   6.401
 5292TIP3   OH215818   3.314   3.611   5.596
 5292TIP3    H115819   3.348   3.657   5.519
 5292TIP3    H215820   3.228   3.650   5.612
 5293TIP3   OH215821   0.893   7.687   5.087
 5293TIP3    H115822   0.862   7.656   5.172
 5293TIP3    H215823   0.963   7.749   5.107
 5294TIP3   OH215824   3.472   2.137   0.274
 5294TIP3    H115825   3.429   2.133   0.360
 5294TIP3    H215826   3.564   2.155   0.294
 5295TIP3   OH215827   0.668   1.290   3.858
 5295TIP3    H115828   0.575   1.289   3.882
 5295TIP3    H215829   0.668   1.271   3.764
 5296TIP3   OH215830   2.144   2.269   1.974
 5296TIP3    H115831   2.096   2.349   1.953
 5296TIP3    H215832   2.076   2.202   1.983
 5297TIP3   OH215833   6.459   0.517   2.354
 5297TIP3    H115834   6.538   0.483   2.310
 5297TIP3    H215835   6.429   0.444   2.408
 5298TIP3   OH215836   5.092   4.559   4.784
 5298TIP3    H115837   5.121   4.650   4.787
 5298TIP3    H215838   5.112   4.524   4.871
 5299TIP3   OH215839   7.797   7.826   1.415
 5299TIP3    H115840   7.707   7.817   1.446
 5299TIP3    H215841   7.840   7.745   1.442
 5300TIP3   OH215842   7.530   5.261   2.429
 5300TIP3    H115843   7.578   5.223   2.356
 5300TIP3    H215844   7.557   5.209   2.505
 5301TIP3   OH215845   0.298   5.576   5.127
 5301TIP3    H115846   0.337   5.663   5.117
 5301TIP3    H215847   0.207   5.593   5.149
 5302TIP3   OH215848   1.770   4.844   6.141
 5302TIP3    H115849   1.740   4.863   6.052
 5302TIP3    H215850   1.787   4.930   6.179
 5303TIP3   OH215851   7.613   0.941   1.913
 5303TIP3    H115852   7.545   0.964   1.975
 5303TIP3    H215853   7.578   0.866   1.864
 5304TIP3   OH215854   2.362   5.754   3.825
 5304TIP3    H115855   2.387   5.743   3.733
 5304TIP3    H215856   2.378   5.668   3.865
 5305TIP3   OH215857   3.505   1.485   3.506
 5305TIP3    H115858   3.473   1.538   3.433
 5305TIP3    H215859   3.429   1.437   3.537
 5306TIP3   OH215860   7.209   4.957   0.241
 5306TIP3    H115861   7.207   5.047   0.273
 5306TIP3    H215862   7.157   4.959   0.161
 5307TIP3   OH215863   4.064   4.256   2.574
 5307TIP3    H115864   4.097   4.320   2.511
 5307TIP3    H215865   4.133   4.190   2.581
 5308TIP3   OH215866   8.058   4.630   0.804
 5308TIP3    H115867   8.064   4.725   0.792
 5308TIP3    H215868   7.984   4.604   0.750
 5309TIP3   OH215869   1.115   6.529   6.274
 5309TIP3    H115870   1.173   6.601   6.301
 5309TIP3    H215871   1.166   6.480   6.209
 5310TIP3   OH215872   0.998   0.046   3.922
 5310TIP3    H115873   0.927   0.015   3.866
 5310TIP3    H215874   0.972   0.019   4.010
 5311TIP3   OH215875   2.345   6.569   1.825
 5311TIP3    H115876   2.350   6.488   1.775
 5311TIP3    H215877   2.372   6.637   1.764
 5312TIP3   OH215878   5.420   5.999   4.270
 5312TIP3    H115879   5.484   5.979   4.202
 5312TIP3    H215880   5.336   5.971   4.232
 5313TIP3   OH215881   1.622   3.904   0.985
 5313TIP3    H115882   1.553   3.839   0.993
 5313TIP3    H215883   1.702   3.853   0.972
 5314TIP3   OH215884   6.547   5.737   6.358
 5314TIP3    H115885   6.521   5.692   6.438
 5314TIP3    H215886   6.560   5.666   6.294
 5315TIP3   OH215887   2.289   3.018   2.080
 5315TIP3    H115888   2.254   2.975   2.158
 5315TIP3    H215889   2.260   3.109   2.088
 5316TIP3   OH215890   4.915   3.807   0.972
 5316TIP3    H115891   4.862   3.746   0.920
 5316TIP3    H215892   4.862   3.887   0.976
 5317TIP3   OH215893   2.309   1.951   2.976
 5317TIP3    H115894   2.321   1.966   2.882
 5317TIP3    H215895   2.216   1.934   2.986
 5318TIP3   OH215896   5.677   0.059   6.586
 5318TIP3    H115897   5.739  -0.014   6.584
 5318TIP3    H215898   5.722   0.128   6.635
 5319TIP3   OH215899   2.862   0.635   4.034
 5319TIP3    H115900   2.829   0.550   4.061
 5319TIP3    H215901   2.840   0.695   4.105
 5320TIP3   OH215902   0.860   2.596   4.497
 5320TIP3    H115903   0.883   2.597   4.404
 5320TIP3    H215904   0.935   2.637   4.541
 5321TIP3   OH215905   5.399   7.396   3.734
 5321TIP3    H115906   5.394   7.460   3.806
 5321TIP3    H215907   5.342   7.433   3.666
 5322TIP3   OH215908   6.351   2.096   3.897
 5322TIP3    H115909   6.430   2.086   3.950
 5322TIP3    H215910   6.355   2.187   3.866
 5323TIP3   OH215911   2.874   7.059   3.516
 5323TIP3    H115912   2.950   7.093   3.470
 5323TIP3    H215913   2.814   7.134   3.521
 5324TIP3   OH215914   1.857   2.284   1.126
 5324TIP3    H115915   1.895   2.317   1.045
 5324TIP3    H215916   1.925   2.298   1.192
 5325TIP3   OH215917   2.239   1.891   4.334
 5325TIP3    H115918   2.225   1.846   4.251
 5325TIP3    H215919   2.201   1.832   4.400
 5326TIP3   OH215920   2.323   5.986   6.209
 5326TIP3    H115921   2.297   6.053   6.146
 5326TIP3    H215922   2.408   6.016   6.242
 5327TIP3   OH215923   2.183   4.986   5.811
 5327TIP3    H115924   2.099   4.995   5.857
 5327TIP3    H215925   2.178   4.899   5.771
 5328TIP3   OH215926   7.395   6.019   1.801
 5328TIP3    H115927   7.471   6.062   1.839
 5328TIP3    H215928   7.380   6.064   1.718
 5329TIP3   OH215929   6.436   1.461   3.527
 5329TIP3    H115930   6.445   1.555   3.513
 5329TIP3    H215931   6.360   1.452   3.586
 5330TIP3   OH215932   5.765   6.015   2.686
 5330TIP3    H115933   5.672   5.998   2.705
 5330TIP3    H215934   5.781   6.103   2.721
 5331TIP3   OH215935   0.545   6.883   5.752
 5331TIP3    H115936   0.571   6.828   5.826
 5331TIP3    H215937   0.584   6.842   5.676
 5332TIP3   OH215938   1.636   7.298   6.480
 5332TIP3    H115939   1.573   7.284   6.550
 5332TIP3    H215940   1.585   7.292   6.399
 5333TIP3   OH215941   1.448   3.034   0.102
 5333TIP3    H115942   1.396   3.048   0.023
 5333TIP3    H215943   1.408   3.092   0.167
 5334TIP3   OH215944   2.532   7.365   0.161
 5334TIP3    H115945   2.521   7.271   0.174
 5334TIP3    H215946   2.525   7.402   0.249
 5335TIP3   OH215947   6.602   7.327   4.018
 5335TIP3    H115948   6.669   7.340   3.951
 5335TIP3    H215949   6.642   7.362   4.098
 5336TIP3   OH215950   6.956   1.518   1.021
 5336TIP3    H115951   6.900   1.441   1.010
 5336TIP3    H215952   6.953   1.562   0.936
 5337TIP3   OH215953   3.733   7.764   0.986
 5337TIP3    H115954   3.773   7.728   0.907
 5337TIP3    H215955   3.775   7.849   0.997
 5338TIP3   OH215956   2.434   6.292   2.677
 5338TIP3    H115957   2.401   6.250   2.598
 5338TIP3    H215958   2.529   6.283   2.671
 5339TIP3   OH215959   0.160   3.557   5.503
 5339TIP3    H115960   0.074   3.540   5.465
 5339TIP3    H215961   0.222   3.518   5.442
 5340TIP3   OH215962   2.663   7.832   1.828
 5340TIP3    H115963   2.701   7.788   1.904
 5340TIP3    H215964   2.670   7.925   1.849
 5341TIP3   OH215965   2.963   3.244   4.088
 5341TIP3    H115966   2.966   3.222   4.181
 5341TIP3    H215967   3.053   3.268   4.066
 5342TIP3   OH215968   1.739   4.854   5.186
 5342TIP3    H115969   1.760   4.871   5.277
 5342TIP3    H215970   1.718   4.760   5.184
 5343TIP3   OH215971   0.578   3.970   0.117
 5343TIP3    H115972   0.532   4.041   0.071
 5343TIP3    H215973   0.620   3.920   0.046
 5344TIP3   OH215974   2.353   5.661   1.998
 5344TIP3    H115975   2.400   5.745   2.004
 5344TIP3    H215976   2.398   5.614   1.927
 5345TIP3   OH215977   2.034   6.233   5.343
 5345TIP3    H115978   2.003   6.151   5.304
 5345TIP3    H215979   1.956   6.270   5.385
 5346TIP3   OH215980   6.125   2.516   5.781
 5346TIP3    H115981   6.092   2.462   5.709
 5346TIP3    H215982   6.124   2.458   5.857
 5347TIP3   OH215983   2.840   6.828   2.914
 5347TIP3    H115984   2.861   6.900   2.974
 5347TIP3    H215985   2.745   6.824   2.914
 5348TIP3   OH215986   3.009   0.347   0.591
 5348TIP3    H115987   3.070   0.402   0.542
 5348TIP3    H215988   3.035   0.358   0.683
 5349TIP3   OH215989   5.685   1.650   5.026
 5349TIP3    H115990   5.759   1.643   5.086
 5349TIP3    H215991   5.714   1.605   4.947
 5350TIP3   OH215992   2.166   6.391   1.591
 5350TIP3    H115993   2.102   6.448   1.634
 5350TIP3    H215994   2.186   6.324   1.657
 5351TIP3   OH215995   8.142   3.554   4.475
 5351TIP3    H115996   8.087   3.489   4.519
 5351TIP3    H215997   8.218   3.504   4.445
 5352TIP3   OH215998   2.611   1.041   4.357
 5352TIP3    H115999   2.560   1.056   4.278
 5352TIP3    H216000   2.660   1.122   4.370
 5353TIP3   OH216001   7.350   3.965   0.913
 5353TIP3    H116002   7.388   3.881   0.887
 5353TIP3    H216003   7.324   4.006   0.831
 5354TIP3   OH216004   2.741   5.443   0.111
 5354TIP3    H116005   2.718   5.529   0.075
 5354TIP3    H216006   2.779   5.463   0.197
 5355TIP3   OH216007   0.651   6.422   0.517
 5355TIP3    H116008   0.673   6.507   0.556
 5355TIP3    H216009   0.559   6.431   0.492
 5356TIP3   OH216010   0.722   4.733   6.536
 5356TIP3    H116011   0.710   4.777   6.451
 5356TIP3    H216012   0.758   4.801   6.593
 5357TIP3   OH216013   1.249   5.010   1.448
 5357TIP3    H116014   1.169   5.002   1.395
 5357TIP3    H216015   1.302   5.074   1.401
 5358TIP3   OH216016   3.823   5.988   2.522
 5358TIP3    H116017   3.819   5.897   2.491
 5358TIP3    H216018   3.759   5.991   2.593
 5359TIP3   OH216019   8.251   3.734   4.639
 5359TIP3    H116020   8.194   3.692   4.575
 5359TIP3    H216021   8.292   3.661   4.685
 5360TIP3   OH216022   3.055   0.517   3.422
 5360TIP3    H116023   3.133   0.539   3.371
 5360TIP3    H216024   3.001   0.466   3.362
 5361TIP3   OH216025   4.394   1.885   0.429
 5361TIP3    H116026   4.311   1.932   0.425
 5361TIP3    H216027   4.451   1.933   0.368
 5362TIP3   OH216028   2.135   7.339   0.421
 5362TIP3    H116029   2.164   7.409   0.362
 5362TIP3    H216030   2.114   7.266   0.363
 5363TIP3   OH216031   1.304   7.448   5.252
 5363TIP3    H116032   1.256   7.461   5.334
 5363TIP3    H216033   1.366   7.378   5.272
 5364TIP3   OH216034   7.906   0.287   1.808
 5364TIP3    H116035   7.852   0.212   1.782
 5364TIP3    H216036   7.874   0.311   1.894
 5365TIP3   OH216037   6.723   7.014   4.071
 5365TIP3    H116038   6.649   6.959   4.097
 5365TIP3    H216039   6.685   7.079   4.013
 5366TIP3   OH216040   1.068   0.657   1.757
 5366TIP3    H116041   1.096   0.634   1.669
 5366TIP3    H216042   1.126   0.729   1.783
 5367TIP3   OH216043   4.937   1.176   4.982
 5367TIP3    H116044   4.982   1.100   4.944
 5367TIP3    H216045   5.006   1.242   4.990
 5368TIP3   OH216046   1.807   2.436   1.751
 5368TIP3    H116047   1.852   2.452   1.834
 5368TIP3    H216048   1.773   2.347   1.758
 5369TIP3   OH216049   5.348   1.965   0.046
 5369TIP3    H116050   5.360   1.895  -0.018
 5369TIP3    H216051   5.349   1.922   0.131
 5370TIP3   OH216052   6.071   5.971   0.834
 5370TIP3    H116053   6.056   5.924   0.752
 5370TIP3    H216054   6.006   6.041   0.833
 5371TIP3   OH216055   5.578   2.617   4.271
 5371TIP3    H116056   5.601   2.630   4.363
 5371TIP3    H216057   5.496   2.568   4.273
 5372TIP3   OH216058   2.555   3.040   6.011
 5372TIP3    H116059   2.472   3.085   6.030
 5372TIP3    H216060   2.591   3.020   6.097
 5373TIP3   OH216061   6.874   7.316   2.656
 5373TIP3    H116062   6.808   7.296   2.721
 5373TIP3    H216063   6.956   7.324   2.706
 5374TIP3   OH216064   0.336   1.111   0.699
 5374TIP3    H116065   0.276   1.070   0.761
 5374TIP3    H216066   0.300   1.089   0.613
 5375TIP3   OH216067   8.104   2.624   4.038
 5375TIP3    H116068   8.136   2.542   4.001
 5375TIP3    H216069   8.060   2.668   3.965
 5376TIP3   OH216070   1.240   3.779   6.137
 5376TIP3    H116071   1.212   3.765   6.047
 5376TIP3    H216072   1.293   3.859   6.135
 5377TIP3   OH216073   3.506   0.121   4.122
 5377TIP3    H116074   3.477   0.046   4.174
 5377TIP3    H216075   3.594   0.098   4.094
 5378TIP3   OH216076   1.362   0.425   0.502
 5378TIP3    H116077   1.343   0.340   0.460
 5378TIP3    H216078   1.432   0.462   0.449
 5379TIP3   OH216079   0.848   7.357   6.329
 5379TIP3    H116080   0.799   7.382   6.251
 5379TIP3    H216081   0.814   7.413   6.399
 5380TIP3   OH216082   7.123   1.026   1.126
 5380TIP3    H116083   7.112   1.097   1.064
 5380TIP3    H216084   7.116   0.946   1.074
 5381TIP3   OH216085   5.584   7.187   0.917
 5381TIP3    H116086   5.582   7.252   0.847
 5381TIP3    H216087   5.516   7.124   0.893
 5382TIP3   OH216088   3.106   2.554   2.661
 5382TIP3    H116089   3.144   2.586   2.743
 5382TIP3    H216090   3.023   2.514   2.687
 5383TIP3   OH216091   6.792   2.419   4.125
 5383TIP3    H116092   6.832   2.365   4.057
 5383TIP3    H216093   6.858   2.424   4.194
 5384TIP3   OH216094   7.901   2.111   3.200
 5384TIP3    H116095   7.978   2.054   3.188
 5384TIP3    H216096   7.938   2.199   3.207
 5385TIP3   OH216097   7.494   2.801   1.884
 5385TIP3    H116098   7.547   2.770   1.810
 5385TIP3    H216099   7.416   2.746   1.883
 5386TIP3   OH216100   2.232   5.872   5.322
 5386TIP3    H116101   2.139   5.882   5.338
 5386TIP3    H216102   2.238   5.807   5.252
 5387TIP3   OH216103   1.213   6.585   3.311
 5387TIP3    H116104   1.130   6.558   3.350
 5387TIP3    H216105   1.270   6.603   3.385
 5388TIP3   OH216106   4.218   0.577   0.605
 5388TIP3    H116107   4.169   0.525   0.669
 5388TIP3    H216108   4.309   0.551   0.617
 5389TIP3   OH216109   6.842   0.397   2.975
 5389TIP3    H116110   6.761   0.365   2.938
 5389TIP3    H216111   6.867   0.331   3.040
 5390TIP3   OH216112   1.733   5.502   0.767
 5390TIP3    H116113   1.693   5.558   0.701
 5390TIP3    H216114   1.676   5.511   0.844
 5391TIP3   OH216115   7.454   3.158   0.786
 5391TIP3    H116116   7.548   3.141   0.778
 5391TIP3    H216117   7.449   3.246   0.822
 5392TIP3   OH216118   3.707   3.675   1.208
 5392TIP3    H116119   3.732   3.743   1.271
 5392TIP3    H216120   3.656   3.613   1.259
 5393TIP3   OH216121   1.852   0.729   4.094
 5393TIP3    H116122   1.852   0.722   3.999
 5393TIP3    H216123   1.772   0.685   4.122
 5394TIP3   OH216124   8.011   3.972   3.106
 5394TIP3    H116125   7.932   3.923   3.080
 5394TIP3    H216126   8.005   3.976   3.201
 5395TIP3   OH216127   0.144   4.860   4.670
 5395TIP3    H116128   0.075   4.861   4.736
 5395TIP3    H216129   0.101   4.890   4.590
 5396TIP3   OH216130   7.276   7.674   3.146
 5396TIP3    H116131   7.279   7.730   3.224
 5396TIP3    H216132   7.188   7.689   3.110
 5397TIP3   OH216133   1.039   2.527   2.418
 5397TIP3    H116134   1.008   2.570   2.498
 5397TIP3    H216135   1.134   2.540   2.419
 5398TIP3   OH216136   0.744   2.390   5.533
 5398TIP3    H116137   0.666   2.443   5.519
 5398TIP3    H216138   0.811   2.452   5.563
 5399TIP3   OH216139   7.995   1.309   1.385
 5399TIP3    H116140   8.014   1.399   1.357
 5399TIP3    H216141   7.922   1.282   1.329
 5400TIP3   OH216142   3.504   6.938   5.016
 5400TIP3    H116143   3.578   6.995   5.033
 5400TIP3    H216144   3.431   6.978   5.064
 5401TIP3   OH216145   4.763   2.665   3.995
 5401TIP3    H116146   4.803   2.741   3.954
 5401TIP3    H216147   4.826   2.639   4.063
 5402TIP3   OH216148   1.722   2.549   3.830
 5402TIP3    H116149   1.724   2.507   3.916
 5402TIP3    H216150   1.682   2.634   3.845
 5403TIP3   OH216151   0.685   7.500   3.604
 5403TIP3    H116152   0.728   7.422   3.569
 5403TIP3    H216153   0.593   7.490   3.580
 5404TIP3   OH216154   7.536   0.965   4.685
 5404TIP3    H116155   7.474   0.892   4.691
 5404TIP3    H216156   7.527   0.997   4.595
 5405TIP3   OH216157   1.225   2.247   1.773
 5405TIP3    H116158   1.315   2.267   1.747
 5405TIP3    H216159   1.214   2.294   1.856
 5406TIP3   OH216160   3.577   7.229   0.791
 5406TIP3    H116161   3.552   7.207   0.881
 5406TIP3    H216162   3.569   7.146   0.743
 5407TIP3   OH216163   0.383   2.101   6.680
 5407TIP3    H116164   0.312   2.150   6.722
 5407TIP3    H216165   0.455   2.164   6.674
 5408TIP3   OH216166   2.931   5.708   5.414
 5408TIP3    H116167   2.995   5.779   5.407
 5408TIP3    H216168   2.964   5.653   5.486
 5409TIP3   OH216169   5.630   0.589   4.906
 5409TIP3    H116170   5.610   0.667   4.957
 5409TIP3    H216171   5.548   0.541   4.903
 5410TIP3   OH216172   6.402   2.291   5.010
 5410TIP3    H116173   6.434   2.202   5.020
 5410TIP3    H216174   6.420   2.313   4.918
 5411TIP3   OH216175   3.825   3.403   2.010
 5411TIP3    H116176   3.824   3.314   2.047
 5411TIP3    H216177   3.741   3.440   2.036
 5412TIP3   OH216178   7.718   4.888   3.038
 5412TIP3    H116179   7.749   4.908   2.949
 5412TIP3    H216180   7.769   4.946   3.094
 5413TIP3   OH216181   7.191   4.446   1.266
 5413TIP3    H116182   7.174   4.486   1.351
 5413TIP3    H216183   7.280   4.410   1.273
 5414TIP3   OH216184   0.586   5.317   6.505
 5414TIP3    H116185   0.677   5.302   6.479
 5414TIP3    H216186   0.549   5.230   6.516
 5415TIP3   OH216187   5.842   5.024   2.191
 5415TIP3    H116188   5.797   5.086   2.247
 5415TIP3    H216189   5.792   5.024   2.109
 5416TIP3   OH216190   0.940   6.001   4.283
 5416TIP3    H116191   0.970   5.911   4.276
 5416TIP3    H216192   0.847   5.997   4.264
 5417TIP3   OH216193   5.979   7.579   2.892
 5417TIP3    H116194   5.955   7.487   2.902
 5417TIP3    H216195   6.066   7.585   2.931
 5418TIP3   OH216196   6.115   1.086   2.662
 5418TIP3    H116197   6.054   1.025   2.619
 5418TIP3    H216198   6.200   1.044   2.653
 5419TIP3   OH216199   1.311   4.451   3.452
 5419TIP3    H116200   1.255   4.468   3.376
 5419TIP3    H216201   1.359   4.533   3.466
 5420TIP3   OH216202   2.505   0.972   1.521
 5420TIP3    H116203   2.517   1.025   1.599
 5420TIP3    H216204   2.582   0.990   1.467
 5421TIP3   OH216205   8.186   3.694   1.579
 5421TIP3    H116206   8.213   3.602   1.586
 5421TIP3    H216207   8.263   3.739   1.546
 5422TIP3   OH216208   7.369   3.652   5.023
 5422TIP3    H116209   7.432   3.580   5.016
 5422TIP3    H216210   7.295   3.614   5.072
 5423TIP3   OH216211   5.698   5.378   4.586
 5423TIP3    H116212   5.608   5.367   4.555
 5423TIP3    H216213   5.696   5.459   4.637
 5424TIP3   OH216214   2.773   3.459   6.530
 5424TIP3    H116215   2.832   3.529   6.555
 5424TIP3    H216216   2.745   3.482   6.441
 5425TIP3   OH216217   1.966   5.870   4.180
 5425TIP3    H116218   1.963   5.827   4.266
 5425TIP3    H216219   2.016   5.810   4.125
 5426TIP3   OH216220   0.869   4.979   6.681
 5426TIP3    H116221   0.952   4.934   6.670
 5426TIP3    H216222   0.873   5.018   6.768
 5427TIP3   OH216223   5.107   7.270   2.280
 5427TIP3    H116224   5.076   7.297   2.367
 5427TIP3    H216225   5.031   7.230   2.239
 5428TIP3   OH216226   4.122   1.243   2.145
 5428TIP3    H116227   4.084   1.197   2.220
 5428TIP3    H216228   4.180   1.179   2.104
 5429TIP3   OH216229   3.064   7.338   3.066
 5429TIP3    H116230   3.107   7.304   2.987
 5429TIP3    H216231   3.136   7.364   3.123
 5430TIP3   OH216232   4.012   7.669   6.537
 5430TIP3    H116233   3.998   7.582   6.500
 5430TIP3    H216234   3.969   7.728   6.476
 5431TIP3   OH216235   3.632   4.373   3.046
 5431TIP3    H116236   3.670   4.377   3.134
 5431TIP3    H216237   3.593   4.286   3.041
 5432TIP3   OH216238   7.763   7.418   4.916
 5432TIP3    H116239   7.740   7.494   4.864
 5432TIP3    H216240   7.853   7.398   4.891
 5433TIP3   OH216241   0.892   2.816   3.167
 5433TIP3    H116242   0.911   2.860   3.084
 5433TIP3    H216243   0.819   2.757   3.147
 5434TIP3   OH216244   2.639   6.818   1.778
 5434TIP3    H116245   2.636   6.914   1.782
 5434TIP3    H216246   2.576   6.795   1.709
 5435TIP3   OH216247   1.732   4.320   3.809
 5435TIP3    H116248   1.773   4.305   3.724
 5435TIP3    H216249   1.799   4.296   3.872
 5436TIP3   OH216250   4.733   4.437   0.064
 5436TIP3    H116251   4.678   4.419   0.140
 5436TIP3    H216252   4.801   4.495   0.097
 5437TIP3   OH216253   5.876   2.014   5.379
 5437TIP3    H116254   5.817   2.032   5.305
 5437TIP3    H216255   5.819   2.017   5.456
 5438TIP3   OH216256   2.614   3.772   3.422
 5438TIP3    H116257   2.556   3.839   3.385
 5438TIP3    H216258   2.693   3.777   3.368
 5439TIP3   OH216259   6.128   4.458   2.317
 5439TIP3    H116260   6.208   4.471   2.267
 5439TIP3    H216261   6.156   4.413   2.397
 5440TIP3   OH216262   5.637   4.112   1.437
 5440TIP3    H116263   5.676   4.128   1.351
 5440TIP3    H216264   5.639   4.198   1.480
 5441TIP3   OH216265   2.518   3.463   1.326
 5441TIP3    H116266   2.464   3.430   1.398
 5441TIP3    H216267   2.501   3.557   1.324
 5442TIP3   OH216268   4.830   3.985   3.424
 5442TIP3    H116269   4.782   3.908   3.455
 5442TIP3    H216270   4.898   3.950   3.367
 5443TIP3   OH216271   0.732   2.359   2.568
 5443TIP3    H116272   0.817   2.370   2.610
 5443TIP3    H216273   0.745   2.286   2.507
 5444TIP3   OH216274   2.325   5.483   5.746
 5444TIP3    H116275   2.355   5.475   5.836
 5444TIP3    H216276   2.398   5.525   5.700
 5445TIP3   OH216277   1.598   4.297   5.455
 5445TIP3    H116278   1.611   4.318   5.547
 5445TIP3    H216279   1.506   4.317   5.439
 5446TIP3   OH216280   1.527   3.539   3.614
 5446TIP3    H116281   1.496   3.583   3.535
 5446TIP3    H216282   1.620   3.526   3.600
 5447TIP3   OH216283   3.772   1.555   1.850
 5447TIP3    H116284   3.817   1.478   1.885
 5447TIP3    H216285   3.832   1.628   1.865
 5448TIP3   OH216286   5.768   1.821   3.116
 5448TIP3    H116287   5.858   1.789   3.127
 5448TIP3    H216288   5.767   1.857   3.028
 5449TIP3   OH216289   8.142   5.695   4.362
 5449TIP3    H116290   8.163   5.655   4.446
 5449TIP3    H216291   8.090   5.628   4.316
 5450TIP3   OH216292   2.468   5.936   1.953
 5450TIP3    H116293   2.407   5.992   1.906
 5450TIP3    H216294   2.551   5.945   1.905
 5451TIP3   OH216295   0.681   0.258   4.026
 5451TIP3    H116296   0.724   0.343   4.039
 5451TIP3    H216297   0.618   0.252   4.098
 5452TIP3   OH216298   6.843   3.608   1.821
 5452TIP3    H116299   6.840   3.703   1.813
 5452TIP3    H216300   6.846   3.591   1.915
 5453TIP3   OH216301   7.126   1.883   1.380
 5453TIP3    H116302   7.062   1.821   1.345
 5453TIP3    H216303   7.146   1.940   1.307
 5454TIP3   OH216304   3.289   3.793   5.357
 5454TIP3    H116305   3.209   3.756   5.319
 5454TIP3    H216306   3.259   3.871   5.403
 5455TIP3   OH216307   5.598   3.296   4.933
 5455TIP3    H116308   5.557   3.241   4.999
 5455TIP3    H216309   5.536   3.295   4.859
 5456TIP3   OH216310   7.502   1.852   5.765
 5456TIP3    H116311   7.534   1.942   5.763
 5456TIP3    H216312   7.567   1.805   5.818
 5457TIP3   OH216313   3.941   1.847   5.050
 5457TIP3    H116314   3.922   1.801   5.132
 5457TIP3    H216315   3.934   1.940   5.073
 5458TIP3   OH216316   5.321   7.371   2.970
 5458TIP3    H116317   5.362   7.394   2.887
 5458TIP3    H216318   5.232   7.344   2.946
 5459TIP3   OH216319   7.828   6.604   2.623
 5459TIP3    H116320   7.809   6.513   2.646
 5459TIP3    H216321   7.924   6.610   2.628
 5460TIP3   OH216322   5.097   5.317   5.086
 5460TIP3    H116323   5.043   5.393   5.064
 5460TIP3    H216324   5.056   5.281   5.165
 5461TIP3   OH216325   1.237   3.788   4.008
 5461TIP3    H116326   1.173   3.820   3.944
 5461TIP3    H216327   1.300   3.739   3.956
 5462TIP3   OH216328   3.880   0.989   6.242
 5462TIP3    H116329   3.845   1.025   6.323
 5462TIP3    H216330   3.912   0.902   6.266
 5463TIP3   OH216331   7.323   5.483   5.888
 5463TIP3    H116332   7.366   5.568   5.901
 5463TIP3    H216333   7.233   5.505   5.867
 5464TIP3   OH216334   7.247   1.126   4.032
 5464TIP3    H116335   7.168   1.178   4.044
 5464TIP3    H216336   7.215   1.043   3.997
 5465TIP3   OH216337   5.609   7.773   3.300
 5465TIP3    H116338   5.550   7.794   3.373
 5465TIP3    H216339   5.630   7.680   3.313
 5466TIP3   OH216340   2.297   6.043   4.289
 5466TIP3    H116341   2.391   6.061   4.293
 5466TIP3    H216342   2.289   5.951   4.314
 5467TIP3   OH216343   8.074   5.737   4.087
 5467TIP3    H116344   8.078   5.748   4.182
 5467TIP3    H216345   8.111   5.818   4.052
 5468TIP3   OH216346   0.271   4.446   2.235
 5468TIP3    H116347   0.272   4.462   2.329
 5468TIP3    H216348   0.278   4.350   2.227
 5469TIP3   OH216349   7.703   2.119   2.048
 5469TIP3    H116350   7.781   2.151   2.003
 5469TIP3    H216351   7.635   2.118   1.981
 5470TIP3   OH216352   7.244   6.877   5.305
 5470TIP3    H116353   7.229   6.950   5.245
 5470TIP3    H216354   7.183   6.892   5.377
 5471TIP3   OH216355   3.184   2.426   3.810
 5471TIP3    H116356   3.228   2.506   3.780
 5471TIP3    H216357   3.111   2.458   3.864
 5472TIP3   OH216358   6.970   4.132   0.275
 5472TIP3    H116359   6.940   4.137   0.365
 5472TIP3    H216360   6.968   4.038   0.255
 5473TIP3   OH216361   2.166   7.493   1.478
 5473TIP3    H116362   2.084   7.473   1.524
 5473TIP3    H216363   2.201   7.569   1.525
 5474TIP3   OH216364   1.369   7.724   4.710
 5474TIP3    H116365   1.345   7.735   4.802
 5474TIP3    H216366   1.287   7.702   4.666
 5475TIP3   OH216367   5.430   6.823   5.344
 5475TIP3    H116368   5.416   6.751   5.405
 5475TIP3    H216369   5.431   6.782   5.258
 5476TIP3   OH216370   6.580   1.283   0.106
 5476TIP3    H116371   6.536   1.213   0.153
 5476TIP3    H216372   6.528   1.361   0.124
 5477TIP3   OH216373   1.527   3.217   4.267
 5477TIP3    H116374   1.433   3.205   4.261
 5477TIP3    H216375   1.539   3.312   4.269
 5478TIP3   OH216376   1.401   0.987   6.667
 5478TIP3    H116377   1.364   1.037   6.740
 5478TIP3    H216378   1.476   1.039   6.638
 5479TIP3   OH216379   1.461   0.920   2.249
 5479TIP3    H116380   1.457   0.906   2.155
 5479TIP3    H216381   1.501   1.007   2.259
 5480TIP3   OH216382   3.464   0.500   5.930
 5480TIP3    H116383   3.489   0.426   5.875
 5480TIP3    H216384   3.379   0.527   5.895
 5481TIP3   OH216385   6.330   3.280   3.508
 5481TIP3    H116386   6.363   3.278   3.418
 5481TIP3    H216387   6.337   3.371   3.534
 5482TIP3   OH216388   3.336   1.045   0.862
 5482TIP3    H116389   3.404   0.978   0.852
 5482TIP3    H216390   3.341   1.071   0.954
 5483TIP3   OH216391   7.157   5.089   6.793
 5483TIP3    H116392   7.221   5.087   6.721
 5483TIP3    H216393   7.182   5.165   6.845
 5484TIP3   OH216394   0.888   0.384   5.598
 5484TIP3    H116395   0.855   0.317   5.657
 5484TIP3    H216396   0.839   0.371   5.517
 5485TIP3   OH216397   6.930   5.424   5.465
 5485TIP3    H116398   6.951   5.514   5.442
 5485TIP3    H216399   6.842   5.411   5.432
 5486TIP3   OH216400   3.096   6.121   2.462
 5486TIP3    H116401   3.173   6.065   2.453
 5486TIP3    H216402   3.056   6.095   2.545
 5487TIP3   OH216403   3.993   3.118   5.686
 5487TIP3    H116404   3.939   3.136   5.763
 5487TIP3    H216405   3.931   3.095   5.618
 5488TIP3   OH216406   0.043   0.377   3.918
 5488TIP3    H116407   0.106   0.407   3.852
 5488TIP3    H216408   0.036   0.450   3.979
 5489TIP3   OH216409   5.378   2.804   2.715
 5489TIP3    H116410   5.340   2.769   2.796
 5489TIP3    H216411   5.303   2.839   2.667
 5490TIP3   OH216412   0.058   6.202   5.882
 5490TIP3    H116413   0.137   6.154   5.909
 5490TIP3    H216414   0.087   6.254   5.807
 5491TIP3   OH216415   2.452   4.062   2.062
 5491TIP3    H116416   2.416   4.114   1.990
 5491TIP3    H216417   2.375   4.039   2.116
 5492TIP3   OH216418   3.063   6.770   2.183
 5492TIP3    H116419   3.124   6.708   2.222
 5492TIP3    H216420   3.012   6.802   2.257
 5493TIP3   OH216421   5.117   3.044   0.901
 5493TIP3    H116422   5.144   3.015   0.988
 5493TIP3    H216423   5.147   3.135   0.895
 5494TIP3   OH216424   2.880   0.668   6.440
 5494TIP3    H116425   2.894   0.700   6.351
 5494TIP3    H216426   2.966   0.638   6.469
 5495TIP3   OH216427   4.788   3.994   5.325
 5495TIP3    H116428   4.818   4.051   5.396
 5495TIP3    H216429   4.788   4.050   5.247
 5496TIP3   OH216430   0.428   2.747   0.047
 5496TIP3    H116431   0.390   2.717  -0.036
 5496TIP3    H216432   0.367   2.715   0.113
 5497TIP3   OH216433   7.038   4.770   5.910
 5497TIP3    H116434   7.124   4.755   5.871
 5497TIP3    H216435   7.042   4.725   5.994
 5498TIP3   OH216436   8.157   3.724   5.481
 5498TIP3    H116437   8.139   3.700   5.390
 5498TIP3    H216438   8.130   3.815   5.487
 5499TIP3   OH216439   3.075   3.519   0.664
 5499TIP3    H116440   3.097   3.464   0.740
 5499TIP3    H216441   2.982   3.539   0.675
 5500TIP3   OH216442   6.377   4.250   5.561
 5500TIP3    H116443   6.438   4.218   5.494
 5500TIP3    H216444   6.352   4.172   5.611
 5501TIP3   OH216445   6.618   3.990   0.360
 5501TIP3    H116446   6.652   3.923   0.301
 5501TIP3    H216447   6.695   4.023   0.406
 5502TIP3   OH216448   6.964   5.804   6.611
 5502TIP3    H116449   6.886   5.773   6.657
 5502TIP3    H216450   6.988   5.885   6.656
 5503TIP3   OH216451   8.057   7.644   1.002
 5503TIP3    H116452   8.067   7.739   1.009
 5503TIP3    H216453   8.049   7.628   0.908
 5504TIP3   OH216454   1.836   6.733   2.185
 5504TIP3    H116455   1.899   6.662   2.169
 5504TIP3    H216456   1.761   6.690   2.225
 5505TIP3   OH216457   5.592   2.365   6.227
 5505TIP3    H116458   5.533   2.426   6.271
 5505TIP3    H216459   5.603   2.293   6.288
 5506TIP3   OH216460   6.651   0.074   6.395
 5506TIP3    H116461   6.722   0.128   6.360
 5506TIP3    H216462   6.573   0.127   6.383
 5507TIP3   OH216463   6.986   6.891   4.376
 5507TIP3    H116464   6.962   6.873   4.467
 5507TIP3    H216465   7.007   6.806   4.339
 5508TIP3   OH216466   6.354   0.822   4.388
 5508TIP3    H116467   6.302   0.741   4.386
 5508TIP3    H216468   6.399   0.822   4.303
 5509TIP3   OH216469   3.221   6.142   6.472
 5509TIP3    H116470   3.181   6.056   6.462
 5509TIP3    H216471   3.313   6.123   6.491
 5510TIP3   OH216472   0.148   6.543   0.004
 5510TIP3    H116473   0.161   6.545  -0.091
 5510TIP3    H216474   0.102   6.460   0.020
 5511TIP3   OH216475   1.158   1.272   2.376
 5511TIP3    H116476   1.169   1.209   2.304
 5511TIP3    H216477   1.194   1.228   2.453
 5512TIP3   OH216478   1.172   0.129   6.266
 5512TIP3    H116479   1.256   0.126   6.221
 5512TIP3    H216480   1.107   0.112   6.198
 5513TIP3   OH216481   2.664   1.232   5.584
 5513TIP3    H116482   2.573   1.231   5.553
 5513TIP3    H216483   2.707   1.162   5.535
 5514TIP3   OH216484   7.646   3.484   4.954
 5514TIP3    H116485   7.687   3.466   4.869
 5514TIP3    H216486   7.570   3.426   4.956
 5515TIP3   OH216487   5.080   2.962   3.696
 5515TIP3    H116488   5.048   2.992   3.611
 5515TIP3    H216489   5.135   2.886   3.675
 5516TIP3   OH216490   5.485   5.685   6.743
 5516TIP3    H116491   5.399   5.703   6.781
 5516TIP3    H216492   5.513   5.770   6.707
 5517TIP3   OH216493   4.465   3.621   0.588
 5517TIP3    H116494   4.453   3.716   0.584
 5517TIP3    H216495   4.406   3.588   0.520
 5518TIP3   OH216496   2.121   4.084   5.490
 5518TIP3    H116497   2.133   4.006   5.544
 5518TIP3    H216498   2.188   4.077   5.422
 5519TIP3   OH216499   0.791   5.926   5.331
 5519TIP3    H116500   0.857   5.990   5.304
 5519TIP3    H216501   0.772   5.876   5.251
 5520TIP3   OH216502   3.495   0.507   5.134
 5520TIP3    H116503   3.467   0.451   5.206
 5520TIP3    H216504   3.567   0.460   5.093
 5521TIP3   OH216505   7.229   2.776   4.898
 5521TIP3    H116506   7.180   2.851   4.933
 5521TIP3    H216507   7.181   2.699   4.928
 5522TIP3   OH216508   8.149   4.966   5.093
 5522TIP3    H116509   8.083   4.897   5.088
 5522TIP3    H216510   8.128   5.013   5.174
 5523TIP3   OH216511   0.154   5.396   3.034
 5523TIP3    H116512   0.184   5.439   2.954
 5523TIP3    H216513   0.141   5.467   3.096
 5524TIP3   OH216514   5.056   5.717   3.172
 5524TIP3    H116515   5.120   5.775   3.130
 5524TIP3    H216516   5.073   5.631   3.134
 5525TIP3   OH216517   5.511   1.504   0.590
 5525TIP3    H116518   5.439   1.547   0.544
 5525TIP3    H216519   5.588   1.554   0.566
 5526TIP3   OH216520   2.915   4.711   0.511
 5526TIP3    H116521   2.883   4.638   0.459
 5526TIP3    H216522   2.849   4.779   0.501
 5527TIP3   OH216523   4.012   0.586   3.069
 5527TIP3    H116524   3.997   0.575   2.975
 5527TIP3    H216525   3.993   0.678   3.086
 5528TIP3   OH216526   7.201   3.710   3.195
 5528TIP3    H116527   7.119   3.715   3.243
 5528TIP3    H216528   7.175   3.682   3.107
 5529TIP3   OH216529   6.675   7.540   6.300
 5529TIP3    H116530   6.656   7.484   6.224
 5529TIP3    H216531   6.763   7.572   6.284
 5530TIP3   OH216532   6.099   3.932   3.140
 5530TIP3    H116533   6.048   3.953   3.061
 5530TIP3    H216534   6.059   3.852   3.174
 5531TIP3   OH216535   4.302   1.751   6.290
 5531TIP3    H116536   4.296   1.805   6.211
 5531TIP3    H216537   4.215   1.713   6.300
 5532TIP3   OH216538   8.128   6.140   5.733
 5532TIP3    H116539   8.119   6.045   5.742
 5532TIP3    H216540   8.190   6.164   5.802
 5533TIP3   OH216541   2.612   1.636   2.665
 5533TIP3    H116542   2.673   1.656   2.737
 5533TIP3    H216543   2.605   1.541   2.666
 5534TIP3   OH216544   1.200   5.121   6.641
 5534TIP3    H116545   1.163   5.131   6.729
 5534TIP3    H216546   1.291   5.150   6.649
 5535TIP3   OH216547   6.886   0.585   1.065
 5535TIP3    H116548   6.931   0.525   1.005
 5535TIP3    H216549   6.840   0.527   1.126
 5536TIP3   OH216550   1.326   6.194   6.270
 5536TIP3    H116551   1.394   6.140   6.229
 5536TIP3    H216552   1.262   6.131   6.303
 5537TIP3   OH216553   2.864   0.222   4.529
 5537TIP3    H116554   2.924   0.253   4.461
 5537TIP3    H216555   2.785   0.275   4.517
 5538TIP3   OH216556   6.261   7.569   0.107
 5538TIP3    H116557   6.272   7.609   0.193
 5538TIP3    H216558   6.169   7.542   0.104
 5539TIP3   OH216559   5.731   0.552   4.232
 5539TIP3    H116560   5.776   0.481   4.187
 5539TIP3    H216561   5.641   0.547   4.201
 5540TIP3   OH216562   2.578   1.255   3.149
 5540TIP3    H116563   2.615   1.167   3.148
 5540TIP3    H216564   2.615   1.296   3.228
 5541TIP3   OH216565   0.741   1.048   1.806
 5541TIP3    H116566   0.774   0.969   1.764
 5541TIP3    H216567   0.699   1.017   1.886
 5542TIP3   OH216568   0.973   5.905   1.703
 5542TIP3    H116569   0.894   5.958   1.688
 5542TIP3    H216570   0.957   5.861   1.786
 5543TIP3   OH216571   6.739   6.764   6.281
 5543TIP3    H116572   6.800   6.776   6.208
 5543TIP3    H216573   6.757   6.837   6.340
 5544TIP3   OH216574   6.725   5.742   0.721
 5544TIP3    H116575   6.728   5.653   0.755
 5544TIP3    H216576   6.640   5.776   0.750
 5545TIP3   OH216577   4.404   3.917   4.797
 5545TIP3    H116578   4.371   3.869   4.873
 5545TIP3    H216579   4.331   3.915   4.734
 5546TIP3   OH216580   8.012   7.644   4.348
 5546TIP3    H116581   7.985   7.577   4.412
 5546TIP3    H216582   7.943   7.710   4.353
 5547TIP3   OH216583   7.013   0.160   0.683
 5547TIP3    H116584   7.082   0.226   0.681
 5547TIP3    H216585   7.012   0.129   0.774
 5548TIP3   OH216586   6.937   1.494   2.298
 5548TIP3    H116587   6.942   1.530   2.209
 5548TIP3    H216588   6.901   1.565   2.351
 5549TIP3   OH216589   6.053   5.403   3.535
 5549TIP3    H116590   6.090   5.468   3.595
 5549TIP3    H216591   6.053   5.321   3.585
 5550TIP3   OH216592   0.960   6.257   3.166
 5550TIP3    H116593   0.976   6.184   3.226
 5550TIP3    H216594   0.944   6.332   3.223
 5551TIP3   OH216595   7.971   5.436   0.817
 5551TIP3    H116596   8.022   5.388   0.752
 5551TIP3    H216597   7.880   5.408   0.802
 5552TIP3   OH216598   2.265   0.830   4.869
 5552TIP3    H116599   2.207   0.791   4.934
 5552TIP3    H216600   2.328   0.762   4.848
 5553TIP3   OH216601   3.140   4.667   0.366
 5553TIP3    H116602   3.095   4.692   0.447
 5553TIP3    H216603   3.144   4.571   0.370
 5554TIP3   OH216604   3.341   6.581   0.740
 5554TIP3    H116605   3.271   6.553   0.799
 5554TIP3    H216606   3.394   6.642   0.792
 5555TIP3   OH216607   6.734   3.654   4.545
 5555TIP3    H116608   6.730   3.572   4.495
 5555TIP3    H216609   6.769   3.717   4.482
 5556TIP3   OH216610   7.013   1.987   3.900
 5556TIP3    H116611   7.091   2.011   3.850
 5556TIP3    H216612   7.043   1.922   3.963
 5557TIP3   OH216613   3.152   5.917   4.851
 5557TIP3    H116614   3.242   5.935   4.879
 5557TIP3    H216615   3.141   5.823   4.867
 5558TIP3   OH216616   3.488   6.814   1.829
 5558TIP3    H116617   3.448   6.836   1.914
 5558TIP3    H216618   3.416   6.782   1.776
 5559TIP3   OH216619   4.552   4.399   3.097
 5559TIP3    H116620   4.468   4.440   3.075
 5559TIP3    H216621   4.608   4.472   3.123
 5560TIP3   OH216622   6.595   7.527   2.693
 5560TIP3    H116623   6.683   7.565   2.693
 5560TIP3    H216624   6.601   7.453   2.632
 5561TIP3   OH216625   6.999   1.035   5.118
 5561TIP3    H116626   7.087   0.999   5.116
 5561TIP3    H216627   7.000   1.105   5.053
 5562TIP3   OH216628   7.016   4.324   2.474
 5562TIP3    H116629   7.044   4.380   2.402
 5562TIP3    H216630   7.063   4.358   2.551
 5563TIP3   OH216631   0.263   4.278   1.105
 5563TIP3    H116632   0.244   4.194   1.146
 5563TIP3    H216633   0.351   4.300   1.135
 5564TIP3   OH216634   2.567   1.405   2.268
 5564TIP3    H116635   2.581   1.419   2.175
 5564TIP3    H216636   2.650   1.432   2.309
 5565TIP3   OH216637   5.591   1.165   1.387
 5565TIP3    H116638   5.583   1.199   1.476
 5565TIP3    H216639   5.618   1.074   1.398
 5566TIP3   OH216640   6.623   6.427   2.814
 5566TIP3    H116641   6.702   6.373   2.820
 5566TIP3    H216642   6.618   6.454   2.723
 5567TIP3   OH216643   5.878   0.286   0.181
 5567TIP3    H116644   5.818   0.214   0.159
 5567TIP3    H216645   5.824   0.365   0.176
 5568TIP3   OH216646   6.927   3.720   4.128
 5568TIP3    H116647   6.910   3.735   4.221
 5568TIP3    H216648   6.964   3.803   4.097
 5569TIP3   OH216649   1.890   2.434   6.116
 5569TIP3    H116650   1.926   2.518   6.088
 5569TIP3    H216651   1.796   2.450   6.125
 5570TIP3   OH216652   6.190   4.743   2.866
 5570TIP3    H116653   6.222   4.833   2.855
 5570TIP3    H216654   6.102   4.753   2.903
 5571TIP3   OH216655   3.264   1.595   2.406
 5571TIP3    H116656   3.286   1.518   2.458
 5571TIP3    H216657   3.263   1.667   2.469
 5572TIP3   OH216658   5.295   0.563   1.003
 5572TIP3    H116659   5.383   0.586   0.971
 5572TIP3    H216660   5.303   0.472   1.031
 5573TIP3   OH216661   3.120   1.094   0.649
 5573TIP3    H116662   3.088   1.005   0.666
 5573TIP3    H216663   3.184   1.110   0.719
 5574TIP3   OH216664   2.523   7.773   2.421
 5574TIP3    H116665   2.584   7.743   2.489
 5574TIP3    H216666   2.576   7.778   2.342
 5575TIP3   OH216667   1.087   6.009   2.449
 5575TIP3    H116668   1.174   5.969   2.438
 5575TIP3    H216669   1.048   5.961   2.523
 5576TIP3   OH216670   3.402   5.697   5.218
 5576TIP3    H116671   3.351   5.770   5.183
 5576TIP3    H216672   3.431   5.649   5.141
 5577TIP3   OH216673   7.438   5.894   0.392
 5577TIP3    H116674   7.450   5.952   0.467
 5577TIP3    H216675   7.502   5.924   0.328
 5578TIP3   OH216676   1.821   6.040   6.706
 5578TIP3    H116677   1.733   6.053   6.742
 5578TIP3    H216678   1.864   6.125   6.717
 5579TIP3   OH216679   3.579   3.523   2.066
 5579TIP3    H116680   3.497   3.495   2.106
 5579TIP3    H216681   3.578   3.619   2.074
 5580TIP3   OH216682   2.325   0.434   1.250
 5580TIP3    H116683   2.362   0.472   1.171
 5580TIP3    H216684   2.234   0.464   1.251
 5581TIP3   OH216685   6.762   5.465   2.045
 5581TIP3    H116686   6.844   5.468   2.094
 5581TIP3    H216687   6.706   5.405   2.095
 5582TIP3   OH216688   3.787   1.414   4.454
 5582TIP3    H116689   3.705   1.422   4.502
 5582TIP3    H216690   3.772   1.343   4.392
 5583TIP3   OH216691   6.438   7.585   5.089
 5583TIP3    H116692   6.381   7.572   5.164
 5583TIP3    H216693   6.421   7.510   5.032
 5584TIP3   OH216694   1.829   3.471   0.862
 5584TIP3    H116695   1.913   3.478   0.908
 5584TIP3    H216696   1.765   3.455   0.931
 5585TIP3   OH216697   4.066   4.794   3.874
 5585TIP3    H116698   4.004   4.837   3.933
 5585TIP3    H216699   4.141   4.853   3.870
 5586TIP3   OH216700   6.510   0.544   5.022
 5586TIP3    H116701   6.544   0.603   5.089
 5586TIP3    H216702   6.434   0.590   4.986
 5587TIP3   OH216703   0.080   5.799   4.255
 5587TIP3    H116704  -0.016   5.793   4.263
 5587TIP3    H216705   0.113   5.739   4.321
 5588TIP3   OH216706   6.272   6.900   4.107
 5588TIP3    H116707   6.293   6.985   4.067
 5588TIP3    H216708   6.357   6.867   4.137
 5589TIP3   OH216709   6.290   2.048   4.761
 5589TIP3    H116710   6.224   2.004   4.815
 5589TIP3    H216711   6.371   2.041   4.811
 5590TIP3   OH216712   4.960   5.432   3.454
 5590TIP3    H116713   4.921   5.455   3.539
 5590TIP3    H216714   5.055   5.439   3.469
 5591TIP3   OH216715   4.351   4.052   0.999
 5591TIP3    H116716   4.268   4.096   1.017
 5591TIP3    H216717   4.392   4.042   1.085
 5592TIP3   OH216718   2.058   5.393   2.205
 5592TIP3    H116719   2.017   5.364   2.124
 5592TIP3    H216720   1.985   5.408   2.265
 5593TIP3   OH216721   7.803   3.257   6.525
 5593TIP3    H116722   7.729   3.231   6.580
 5593TIP3    H216723   7.864   3.184   6.530
 5594TIP3   OH216724   8.052   4.546   3.288
 5594TIP3    H116725   8.142   4.538   3.318
 5594TIP3    H216726   8.016   4.458   3.295
 5595TIP3   OH216727   7.718   4.081   4.975
 5595TIP3    H116728   7.704   4.161   5.027
 5595TIP3    H216729   7.811   4.061   4.987
 5596TIP3   OH216730   6.957   2.916   6.007
 5596TIP3    H116731   6.990   2.995   5.964
 5596TIP3    H216732   6.923   2.862   5.936
 5597TIP3   OH216733   1.709   7.812   4.939
 5597TIP3    H116734   1.724   7.775   4.852
 5597TIP3    H216735   1.656   7.746   4.984
 5598TIP3   OH216736   3.622   3.678   2.723
 5598TIP3    H116737   3.530   3.667   2.699
 5598TIP3    H216738   3.664   3.597   2.695
 5599TIP3   OH216739   2.578   5.582   5.077
 5599TIP3    H116740   2.643   5.582   5.147
 5599TIP3    H216741   2.550   5.491   5.070
 5600TIP3   OH216742   4.365   4.040   5.906
 5600TIP3    H116743   4.437   4.056   5.967
 5600TIP3    H216744   4.376   3.949   5.879
 5601TIP3   OH216745   1.251   5.594   2.700
 5601TIP3    H116746   1.235   5.521   2.760
 5601TIP3    H216747   1.346   5.598   2.692
 5602TIP3   OH216748   0.035   3.658   1.010
 5602TIP3    H116749   0.075   3.738   0.975
 5602TIP3    H216750   0.034   3.672   1.105
 5603TIP3   OH216751   1.037   0.354   3.015
 5603TIP3    H116752   0.983   0.399   3.081
 5603TIP3    H216753   0.976   0.295   2.971
 5604TIP3   OH216754   8.005   0.873   2.550
 5604TIP3    H116755   8.084   0.828   2.519
 5604TIP3    H216756   7.991   0.942   2.485
 5605TIP3   OH216757   4.767   2.190   2.357
 5605TIP3    H116758   4.836   2.257   2.354
 5605TIP3    H216759   4.709   2.212   2.284
 5606TIP3   OH216760   3.477   2.888   3.460
 5606TIP3    H116761   3.560   2.934   3.474
 5606TIP3    H216762   3.503   2.801   3.429
 5607TIP3   OH216763   3.225   4.975   2.097
 5607TIP3    H116764   3.218   4.951   2.005
 5607TIP3    H216765   3.232   4.892   2.144
 5608TIP3   OH216766   4.902   1.735   1.849
 5608TIP3    H116767   4.974   1.746   1.912
 5608TIP3    H216768   4.908   1.812   1.793
 5609TIP3   OH216769   6.265   5.652   4.609
 5609TIP3    H116770   6.285   5.741   4.639
 5609TIP3    H216771   6.170   5.654   4.594
 5610TIP3   OH216772   4.572   6.827   1.865
 5610TIP3    H116773   4.502   6.781   1.820
 5610TIP3    H216774   4.596   6.898   1.806
 5611TIP3   OH216775   4.521   7.175   2.117
 5611TIP3    H116776   4.551   7.090   2.147
 5611TIP3    H216777   4.578   7.196   2.043
 5612TIP3   OH216778   0.706   4.785   0.201
 5612TIP3    H116779   0.715   4.867   0.251
 5612TIP3    H216780   0.791   4.742   0.210
 5613TIP3   OH216781   5.440   3.130   0.216
 5613TIP3    H116782   5.382   3.111   0.142
 5613TIP3    H216783   5.469   3.044   0.245
 5614TIP3   OH216784   7.364   0.309   3.719
 5614TIP3    H116785   7.351   0.228   3.769
 5614TIP3    H216786   7.288   0.313   3.661
 5615TIP3   OH216787   3.611   1.708   1.611
 5615TIP3    H116788   3.684   1.767   1.595
 5615TIP3    H216789   3.624   1.636   1.549
 5616TIP3   OH216790   2.464   2.519   0.131
 5616TIP3    H116791   2.544   2.562   0.163
 5616TIP3    H216792   2.470   2.430   0.165
 5617TIP3   OH216793   1.145   2.941   4.858
 5617TIP3    H116794   1.225   2.958   4.807
 5617TIP3    H216795   1.174   2.885   4.929
 5618TIP3   OH216796   6.776   7.159   2.422
 5618TIP3    H116797   6.801   7.067   2.426
 5618TIP3    H216798   6.834   7.202   2.486
 5619TIP3   OH216799   6.728   7.546   3.862
 5619TIP3    H116800   6.731   7.625   3.809
 5619TIP3    H216801   6.635   7.536   3.885
 5620TIP3   OH216802   2.549   5.169   3.243
 5620TIP3    H116803   2.554   5.265   3.242
 5620TIP3    H216804   2.620   5.140   3.186
 5621TIP3   OH216805   0.056   1.369   5.323
 5621TIP3    H116806   0.075   1.442   5.382
 5621TIP3    H216807   0.142   1.345   5.288
 5622TIP3   OH216808   1.547   2.848   1.468
 5622TIP3    H116809   1.637   2.880   1.457
 5622TIP3    H216810   1.524   2.813   1.382
 5623TIP3   OH216811   8.185   5.108   5.700
 5623TIP3    H116812   8.272   5.122   5.738
 5623TIP3    H216813   8.178   5.176   5.633
 5624TIP3   OH216814   4.466   4.549   3.760
 5624TIP3    H116815   4.502   4.562   3.672
 5624TIP3    H216816   4.430   4.461   3.759
 5625TIP3   OH216817   1.926   6.976   2.291
 5625TIP3    H116818   1.934   7.052   2.234
 5625TIP3    H216819   1.906   6.904   2.232
 5626TIP3   OH216820   3.989   2.806   2.782
 5626TIP3    H116821   4.014   2.802   2.690
 5626TIP3    H216822   4.060   2.760   2.828
 5627TIP3   OH216823   2.575   5.239   1.874
 5627TIP3    H116824   2.519   5.252   1.951
 5627TIP3    H216825   2.540   5.160   1.832
 5628TIP3   OH216826   6.795   2.604   3.889
 5628TIP3    H116827   6.855   2.626   3.961
 5628TIP3    H216828   6.716   2.572   3.933
 5629TIP3   OH216829   7.223   4.993   4.531
 5629TIP3    H116830   7.265   4.971   4.448
 5629TIP3    H216831   7.193   5.084   4.519
 5630TIP3   OH216832   7.084   4.609   4.066
 5630TIP3    H116833   7.003   4.658   4.048
 5630TIP3    H216834   7.057   4.517   4.065
 5631TIP3   OH216835   8.124   4.381   2.947
 5631TIP3    H116836   8.044   4.373   2.998
 5631TIP3    H216837   8.194   4.386   3.012
 5632TIP3   OH216838   0.815   5.457   1.792
 5632TIP3    H116839   0.854   5.481   1.708
 5632TIP3    H216840   0.838   5.365   1.803
 5633TIP3   OH216841   4.923   2.638   4.234
 5633TIP3    H116842   4.896   2.549   4.258
 5633TIP3    H216843   4.941   2.680   4.318
 5634TIP3   OH216844   5.407   6.564   5.466
 5634TIP3    H116845   5.317   6.587   5.490
 5634TIP3    H216846   5.399   6.477   5.425
 5635TIP3   OH216847   7.808   3.220   2.165
 5635TIP3    H116848   7.817   3.125   2.173
 5635TIP3    H216849   7.778   3.249   2.251
 5636TIP3   OH216850   2.287   1.534   6.617
 5636TIP3    H116851   2.360   1.480   6.650
 5636TIP3    H216852   2.260   1.585   6.693
 5637TIP3   OH216853   6.029   0.131   5.715
 5637TIP3    H116854   5.958   0.155   5.775
 5637TIP3    H216855   6.074   0.059   5.758
 5638TIP3   OH216856   2.904   0.355   0.040
 5638TIP3    H116857   2.851   0.306   0.103
 5638TIP3    H216858   2.858   0.345  -0.043
 5639TIP3   OH216859   0.510   4.847   1.955
 5639TIP3    H116860   0.525   4.836   2.049
 5639TIP3    H216861   0.559   4.776   1.914
 5640TIP3   OH216862   0.779   6.969   0.560
 5640TIP3    H116863   0.828   6.905   0.508
 5640TIP3    H216864   0.694   6.976   0.516
 5641TIP3   OH216865   1.268   5.864   6.070
 5641TIP3    H116866   1.209   5.933   6.040
 5641TIP3    H216867   1.242   5.847   6.160
 5642TIP3   OH216868   7.346   6.571   5.978
 5642TIP3    H116869   7.405   6.618   6.037
 5642TIP3    H216870   7.371   6.600   5.890
 5643TIP3   OH216871   4.451   5.825   2.524
 5643TIP3    H116872   4.465   5.901   2.467
 5643TIP3    H216873   4.399   5.859   2.597
 5644TIP3   OH216874   5.509   4.022   4.141
 5644TIP3    H116875   5.481   3.939   4.179
 5644TIP3    H216876   5.590   4.000   4.095
 5645TIP3   OH216877   0.715   0.026   5.310
 5645TIP3    H116878   0.710  -0.070   5.302
 5645TIP3    H216879   0.794   0.041   5.361
 5646TIP3   OH216880   1.068   4.352   5.062
 5646TIP3    H116881   1.085   4.287   4.994
 5646TIP3    H216882   0.998   4.314   5.115
 5647TIP3   OH216883   2.041   6.555   4.243
 5647TIP3    H116884   2.135   6.536   4.243
 5647TIP3    H216885   2.012   6.534   4.332
 5648TIP3   OH216886   7.234   2.958   6.160
 5648TIP3    H116887   7.249   3.050   6.139
 5648TIP3    H216888   7.140   2.945   6.146
 5649TIP3   OH216889   4.332   7.465   1.332
 5649TIP3    H116890   4.313   7.382   1.287
 5649TIP3    H216891   4.279   7.530   1.286
 5650TIP3   OH216892   2.092   1.112   5.836
 5650TIP3    H116893   2.133   1.052   5.898
 5650TIP3    H216894   2.053   1.055   5.769
 5651TIP3   OH216895   2.308   6.716   5.597
 5651TIP3    H116896   2.278   6.792   5.548
 5651TIP3    H216897   2.309   6.645   5.533
 5652TIP3   OH216898   3.176   7.230   2.831
 5652TIP3    H116899   3.098   7.205   2.781
 5652TIP3    H216900   3.242   7.165   2.805
 5653TIP3   OH216901   3.232   1.831   3.551
 5653TIP3    H116902   3.228   1.779   3.631
 5653TIP3    H216903   3.235   1.921   3.581
 5654TIP3   OH216904   6.001   0.498   6.720
 5654TIP3    H116905   6.075   0.469   6.668
 5654TIP3    H216906   6.014   0.592   6.732
 5655TIP3   OH216907   0.421   2.791   0.569
 5655TIP3    H116908   0.440   2.784   0.475
 5655TIP3    H216909   0.446   2.880   0.592
 5656TIP3   OH216910   6.511   5.803   4.597
 5656TIP3    H116911   6.598   5.794   4.558
 5656TIP3    H216912   6.496   5.719   4.642
 5657TIP3   OH216913   3.382   4.809   5.210
 5657TIP3    H116914   3.395   4.883   5.151
 5657TIP3    H216915   3.321   4.751   5.164
 5658TIP3   OH216916   0.879   1.976   2.538
 5658TIP3    H116917   0.819   1.904   2.518
 5658TIP3    H216918   0.834   2.055   2.509
 5659TIP3   OH216919   1.000   1.017   3.287
 5659TIP3    H116920   0.942   0.949   3.322
 5659TIP3    H216921   1.032   1.063   3.364
 5660TIP3   OH216922   8.161   4.876   5.531
 5660TIP3    H116923   8.196   4.954   5.574
 5660TIP3    H216924   8.232   4.846   5.474
 5661TIP3   OH216925   4.651   6.088   5.510
 5661TIP3    H116926   4.722   6.067   5.449
 5661TIP3    H216927   4.616   6.003   5.536
 5662TIP3   OH216928   5.930   3.301   0.102
 5662TIP3    H116929   6.009   3.320   0.051
 5662TIP3    H216930   5.963   3.279   0.189
 5663TIP3   OH216931   7.712   1.525   1.671
 5663TIP3    H116932   7.769   1.463   1.625
 5663TIP3    H216933   7.747   1.526   1.760
 5664TIP3   OH216934   1.034   5.838   5.771
 5664TIP3    H116935   1.006   5.870   5.856
 5664TIP3    H216936   1.015   5.744   5.772
 5665TIP3   OH216937   6.185   0.611   4.383
 5665TIP3    H116938   6.101   0.655   4.371
 5665TIP3    H216939   6.195   0.556   4.306
 5666TIP3   OH216940   3.880   0.318   1.184
 5666TIP3    H116941   3.808   0.260   1.159
 5666TIP3    H216942   3.899   0.295   1.275
 5667TIP3   OH216943   1.220   4.908   3.410
 5667TIP3    H116944   1.228   4.955   3.493
 5667TIP3    H216945   1.133   4.868   3.413
 5668TIP3   OH216946   5.552   5.347   0.585
 5668TIP3    H116947   5.595   5.265   0.560
 5668TIP3    H216948   5.600   5.377   0.662
 5669TIP3   OH216949   0.506   2.172   0.341
 5669TIP3    H116950   0.510   2.136   0.430
 5669TIP3    H216951   0.488   2.096   0.285
 5670TIP3   OH216952   6.911   4.158   3.037
 5670TIP3    H116953   7.000   4.135   3.063
 5670TIP3    H216954   6.880   4.216   3.107
 5671TIP3   OH216955   1.674   5.882   4.308
 5671TIP3    H116956   1.605   5.883   4.242
 5671TIP3    H216957   1.751   5.914   4.263
 5672TIP3   OH216958   6.470   5.859   5.490
 5672TIP3    H116959   6.396   5.872   5.549
 5672TIP3    H216960   6.521   5.940   5.498
 5673TIP3   OH216961   5.651   7.203   4.251
 5673TIP3    H116962   5.574   7.217   4.306
 5673TIP3    H216963   5.616   7.158   4.174
 5674TIP3   OH216964   2.609   3.488   3.950
 5674TIP3    H116965   2.586   3.501   3.858
 5674TIP3    H216966   2.644   3.399   3.954
 5675TIP3   OH216967   3.060   1.449   6.709
 5675TIP3    H116968   3.116   1.483   6.779
 5675TIP3    H216969   3.034   1.362   6.739
 5676TIP3   OH216970   6.604   5.961   4.145
 5676TIP3    H116971   6.574   5.895   4.082
 5676TIP3    H216972   6.639   5.910   4.218
 5677TIP3   OH216973   2.938   1.540   4.638
 5677TIP3    H116974   2.856   1.548   4.588
 5677TIP3    H216975   2.965   1.449   4.626
 5678TIP3   OH216976   6.068   0.658   5.247
 5678TIP3    H116977   6.009   0.681   5.175
 5678TIP3    H216978   6.070   0.736   5.302
 5679TIP3   OH216979   6.590   1.784   5.182
 5679TIP3    H116980   6.544   1.710   5.143
 5679TIP3    H216981   6.568   1.858   5.124
 5680TIP3   OH216982   3.389   3.168   5.710
 5680TIP3    H116983   3.354   3.088   5.749
 5680TIP3    H216984   3.427   3.216   5.784
 5681TIP3   OH216985   3.410   4.982   4.953
 5681TIP3    H116986   3.341   5.011   4.892
 5681TIP3    H216987   3.491   4.994   4.904
 5682TIP3   OH216988   6.632   3.356   1.156
 5682TIP3    H116989   6.547   3.400   1.149
 5682TIP3    H216990   6.659   3.370   1.247
 5683TIP3   OH216991   0.735   4.953   5.876
 5683TIP3    H116992   0.732   4.940   5.781
 5683TIP3    H216993   0.783   4.876   5.909
 5684TIP3   OH216994   1.357   2.627   4.463
 5684TIP3    H116995   1.361   2.684   4.386
 5684TIP3    H216996   1.333   2.541   4.428
 5685TIP3   OH216997   3.423   5.885   4.958
 5685TIP3    H116998   3.497   5.823   4.955
 5685TIP3    H216999   3.444   5.944   5.029
 5686TIP3   OH217000   4.677   0.108   0.484
 5686TIP3    H117001   4.591   0.083   0.449
 5686TIP3    H217002   4.732   0.032   0.469
 5687TIP3   OH217003   1.788   2.822   6.637
 5687TIP3    H117004   1.743   2.766   6.574
 5687TIP3    H217005   1.877   2.831   6.602
 5688TIP3   OH217006   7.246   6.600   1.659
 5688TIP3    H117007   7.284   6.585   1.746
 5688TIP3    H217008   7.305   6.555   1.599
 5689TIP3   OH217009   5.097   3.359   5.820
 5689TIP3    H117010   5.071   3.447   5.846
 5689TIP3    H217011   5.023   3.304   5.847
 5690TIP3   OH217012   1.511   3.472   4.125
 5690TIP3    H117013   1.430   3.447   4.169
 5690TIP3    H217014   1.484   3.536   4.060
 5691TIP3   OH217015   2.057   1.409   4.213
 5691TIP3    H117016   2.021   1.362   4.137
 5691TIP3    H217017   1.995   1.479   4.230
 5692TIP3   OH217018   4.309   2.644   3.343
 5692TIP3    H117019   4.229   2.694   3.324
 5692TIP3    H217020   4.311   2.639   3.439
 5693TIP3   OH217021   7.923   5.957   5.492
 5693TIP3    H117022   7.932   5.867   5.523
 5693TIP3    H217023   7.952   5.954   5.401
 5694TIP3   OH217024   6.128   5.050   6.350
 5694TIP3    H117025   6.045   5.055   6.303
 5694TIP3    H217026   6.178   4.983   6.303
 5695TIP3   OH217027   7.555   2.434   2.116
 5695TIP3    H117028   7.568   2.424   2.022
 5695TIP3    H217029   7.627   2.383   2.155
 5696TIP3   OH217030   2.247   2.368   2.334
 5696TIP3    H117031   2.323   2.323   2.297
 5696TIP3    H217032   2.171   2.328   2.290
 5697TIP3   OH217033   1.043   4.244   2.569
 5697TIP3    H117034   1.121   4.279   2.525
 5697TIP3    H217035   1.069   4.156   2.597
 5698TIP3   OH217036   7.096   7.509   0.317
 5698TIP3    H117037   7.078   7.428   0.270
 5698TIP3    H217038   7.093   7.484   0.410
 5699TIP3   OH217039   0.995   1.611   3.737
 5699TIP3    H117040   1.055   1.622   3.663
 5699TIP3    H217041   0.911   1.590   3.697
 5700TIP3   OH217042   2.264   2.022   4.961
 5700TIP3    H117043   2.281   2.020   5.055
 5700TIP3    H217044   2.350   2.014   4.920
 5701TIP3   OH217045  -0.008   3.452   1.663
 5701TIP3    H117046   0.009   3.359   1.679
 5701TIP3    H217047   0.064   3.480   1.607
 5702TIP3   OH217048   0.187   2.604   1.958
 5702TIP3    H117049   0.249   2.532   1.959
 5702TIP3    H217050   0.160   2.612   1.867
 5703TIP3   OH217051   7.944   1.733   6.194
 5703TIP3    H117052   7.898   1.780   6.264
 5703TIP3    H217053   8.037   1.745   6.215
 5704TIP3   OH217054   3.693   1.626   5.179
 5704TIP3    H117055   3.703   1.534   5.203
 5704TIP3    H217056   3.664   1.623   5.087
 5705TIP3   OH217057   2.561   5.859   6.415
 5705TIP3    H117058   2.614   5.898   6.485
 5705TIP3    H217059   2.474   5.896   6.428
 5706TIP3   OH217060   3.038   2.230   6.758
 5706TIP3    H117061   3.053   2.271   6.672
 5706TIP3    H217062   3.125   2.208   6.790
 5707TIP3   OH217063   4.785   1.520   3.332
 5707TIP3    H117064   4.738   1.443   3.363
 5707TIP3    H217065   4.757   1.590   3.391
 5708TIP3   OH217066   4.851   5.476   5.550
 5708TIP3    H117067   4.926   5.422   5.526
 5708TIP3    H217068   4.797   5.479   5.471
 5709TIP3   OH217069   5.968   1.573   5.620
 5709TIP3    H117070   5.996   1.647   5.674
 5709TIP3    H217071   5.936   1.509   5.683
 5710TIP3   OH217072   0.844   7.776   6.749
 5710TIP3    H117073   0.918   7.751   6.804
 5710TIP3    H217074   0.883   7.796   6.664
 5711TIP3   OH217075   2.568   1.242   6.013
 5711TIP3    H117076   2.634   1.212   6.075
 5711TIP3    H217077   2.613   1.305   5.957
 5712TIP3   OH217078   4.088   2.358   1.661
 5712TIP3    H117079   4.030   2.401   1.724
 5712TIP3    H217080   4.122   2.282   1.708
 5713TIP3   OH217081   0.142   6.497   3.939
 5713TIP3    H117082   0.111   6.516   3.850
 5713TIP3    H217083   0.206   6.427   3.927
 5714TIP3   OH217084   6.690   4.903   6.375
 5714TIP3    H117085   6.765   4.957   6.401
 5714TIP3    H217086   6.729   4.827   6.332
 5715TIP3   OH217087   2.402   2.245   1.155
 5715TIP3    H117088   2.444   2.179   1.099
 5715TIP3    H217089   2.333   2.281   1.100
 5716TIP3   OH217090   6.357   2.614   0.004
 5716TIP3    H117091   6.292   2.684   0.009
 5716TIP3    H217092   6.440   2.658   0.023
 5717TIP3   OH217093   7.133   6.188   2.429
 5717TIP3    H117094   7.169   6.131   2.361
 5717TIP3    H217095   7.207   6.242   2.456
 5718TIP3   OH217096   7.235   3.796   4.286
 5718TIP3    H117097   7.224   3.740   4.363
 5718TIP3    H217098   7.174   3.868   4.299
 5719TIP3   OH217099   0.211   4.128   2.196
 5719TIP3    H117100   0.227   4.132   2.101
 5719TIP3    H217101   0.117   4.145   2.205
 5720TIP3   OH217102   6.938   3.538   0.875
 5720TIP3    H117103   7.017   3.554   0.823
 5720TIP3    H217104   6.962   3.466   0.934
 5721TIP3   OH217105   8.145   6.055   5.303
 5721TIP3    H117106   8.170   6.063   5.211
 5721TIP3    H217107   8.189   5.976   5.333
 5722TIP3   OH217108   4.025   7.327   1.500
 5722TIP3    H117109   3.995   7.255   1.444
 5722TIP3    H217110   4.044   7.287   1.584
 5723TIP3   OH217111   0.559   5.385   1.779
 5723TIP3    H117112   0.510   5.455   1.821
 5723TIP3    H217113   0.649   5.416   1.776
 5724TIP3   OH217114   1.478   7.537   0.871
 5724TIP3    H117115   1.438   7.623   0.857
 5724TIP3    H217116   1.467   7.520   0.965
 5725TIP3   OH217117   0.165   0.746   4.068
 5725TIP3    H117118   0.217   0.789   4.136
 5725TIP3    H217119   0.116   0.678   4.114
 5726TIP3   OH217120   1.244   5.986   1.623
 5726TIP3    H117121   1.269   6.051   1.688
 5726TIP3    H217122   1.160   5.952   1.654
 5727TIP3   OH217123   1.807   5.618   5.870
 5727TIP3    H117124   1.812   5.711   5.847
 5727TIP3    H217125   1.895   5.598   5.903
 5728TIP3   OH217126   6.972   4.923   4.181
 5728TIP3    H117127   6.923   4.931   4.099
 5728TIP3    H217128   7.038   4.991   4.176
 5729TIP3   OH217129   3.454   4.893   1.848
 5729TIP3    H117130   3.504   4.861   1.923
 5729TIP3    H217131   3.452   4.819   1.787
 5730TIP3   OH217132   3.252   6.567   3.022
 5730TIP3    H117133   3.299   6.618   3.088
 5730TIP3    H217134   3.199   6.505   3.073
 5731TIP3   OH217135   7.885   1.310   5.136
 5731TIP3    H117136   7.851   1.381   5.189
 5731TIP3    H217137   7.822   1.239   5.148
 5732TIP3   OH217138   8.021   1.971   1.423
 5732TIP3    H117139   8.028   2.050   1.368
 5732TIP3    H217140   8.013   2.005   1.512
 5733TIP3   OH217141   7.186   3.508   5.974
 5733TIP3    H117142   7.270   3.537   6.008
 5733TIP3    H217143   7.167   3.426   6.022
 5734TIP3   OH217144   2.625   5.087   0.486
 5734TIP3    H117145   2.650   5.178   0.497
 5734TIP3    H217146   2.576   5.085   0.403
 5735TIP3   OH217147   0.188   2.325   5.815
 5735TIP3    H117148   0.275   2.359   5.795
 5735TIP3    H217149   0.155   2.383   5.883
 5736TIP3   OH217150   3.994   2.820   1.045
 5736TIP3    H117151   4.057   2.860   1.105
 5736TIP3    H217152   4.028   2.732   1.031
 5737TIP3   OH217153   6.439   1.295   0.907
 5737TIP3    H117154   6.438   1.223   0.845
 5737TIP3    H217155   6.461   1.255   0.991
 5738TIP3   OH217156   3.297   2.519   5.683
 5738TIP3    H117157   3.214   2.493   5.644
 5738TIP3    H217158   3.340   2.436   5.705
 5739TIP3   OH217159   4.479   5.998   2.269
 5739TIP3    H117160   4.568   6.020   2.296
 5739TIP3    H217161   4.440   6.083   2.246
 5740TIP3   OH217162   1.339   2.641   0.493
 5740TIP3    H117163   1.343   2.708   0.425
 5740TIP3    H217164   1.395   2.674   0.563
 5741TIP3   OH217165   6.294   2.537   2.900
 5741TIP3    H117166   6.239   2.492   2.836
 5741TIP3    H217167   6.322   2.617   2.855
 5742TIP3   OH217168   4.508   2.086   2.343
 5742TIP3    H117169   4.531   2.151   2.277
 5742TIP3    H217170   4.543   2.122   2.425
 5743TIP3   OH217171   4.780   1.467   0.733
 5743TIP3    H117172   4.858   1.411   0.738
 5743TIP3    H217173   4.729   1.429   0.662
 5744TIP3   OH217174   7.197   5.985   4.891
 5744TIP3    H117175   7.133   5.966   4.823
 5744TIP3    H217176   7.230   6.072   4.869
 5745TIP3   OH217177   1.907   0.058   0.420
 5745TIP3    H117178   1.850   0.070   0.344
 5745TIP3    H217179   1.916   0.146   0.457
 5746TIP3   OH217180   1.471   7.132   3.595
 5746TIP3    H117181   1.463   7.037   3.603
 5746TIP3    H217182   1.395   7.158   3.544
 5747TIP3   OH217183   6.371   7.407   4.865
 5747TIP3    H117184   6.280   7.435   4.850
 5747TIP3    H217185   6.362   7.317   4.896
 5748TIP3   OH217186   3.560   7.497   6.565
 5748TIP3    H117187   3.591   7.498   6.475
 5748TIP3    H217188   3.517   7.412   6.575
 5749TIP3   OH217189   3.373   0.240   5.321
 5749TIP3    H117190   3.380   0.315   5.379
 5749TIP3    H217191   3.458   0.196   5.329
 5750TIP3   OH217192   1.492   1.368   2.834
 5750TIP3    H117193   1.523   1.288   2.793
 5750TIP3    H217194   1.464   1.341   2.921
 5751TIP3   OH217195   3.917   5.772   1.146
 5751TIP3    H117196   3.865   5.785   1.067
 5751TIP3    H217197   4.005   5.754   1.114
 5752TIP3   OH217198   0.910   7.203   0.332
 5752TIP3    H117199   0.973   7.154   0.385
 5752TIP3    H217200   0.850   7.136   0.300
 5753TIP3   OH217201   1.696   5.644   6.153
 5753TIP3    H117202   1.675   5.682   6.067
 5753TIP3    H217203   1.657   5.557   6.151
 5754TIP3   OH217204   2.241   4.015   2.221
 5754TIP3    H117205   2.202   3.937   2.183
 5754TIP3    H217206   2.187   4.035   2.297
 5755TIP3   OH217207   0.834   6.570   6.282
 5755TIP3    H117208   0.824   6.572   6.377
 5755TIP3    H217209   0.927   6.581   6.267
 5756TIP3   OH217210   5.143   6.917   5.634
 5756TIP3    H117211   5.192   6.836   5.650
 5756TIP3    H217212   5.125   6.916   5.540
 5757TIP3   OH217213   0.333   3.012   2.757
 5757TIP3    H117214   0.286   3.073   2.813
 5757TIP3    H217215   0.267   2.979   2.696
 5758TIP3   OH217216   5.831   5.205   4.323
 5758TIP3    H117217   5.775   5.277   4.295
 5758TIP3    H217218   5.818   5.201   4.418
 5759TIP3   OH217219   5.091   5.875  -0.018
 5759TIP3    H117220   5.140   5.839   0.055
 5759TIP3    H217221   5.044   5.950   0.018
 5760TIP3   OH217222   6.777   5.440   6.136
 5760TIP3    H117223   6.798   5.356   6.177
 5760TIP3    H217224   6.813   5.433   6.047
 5761TIP3   OH217225   6.673   6.357   3.114
 5761TIP3    H117226   6.613   6.419   3.073
 5761TIP3    H217227   6.701   6.300   3.042
 5762TIP3   OH217228   7.870   5.349   2.649
 5762TIP3    H117229   7.786   5.309   2.672
 5762TIP3    H217230   7.921   5.278   2.610
 5763TIP3   OH217231   6.956   3.642   5.896
 5763TIP3    H117232   6.914   3.714   5.943
 5763TIP3    H217233   7.033   3.620   5.949
 5764TIP3   OH217234   1.126   4.850   3.899
 5764TIP3    H117235   1.089   4.836   3.986
 5764TIP3    H217236   1.082   4.929   3.867
 5765TIP3   OH217237   1.671   6.371   3.161
 5765TIP3    H117238   1.645   6.293   3.210
 5765TIP3    H217239   1.696   6.338   3.075
 5766TIP3   OH217240   8.072   7.504   0.352
 5766TIP3    H117241   8.100   7.442   0.284
 5766TIP3    H217242   8.112   7.471   0.433
 5767TIP3   OH217243   2.493   5.741   5.400
 5767TIP3    H117244   2.400   5.757   5.383
 5767TIP3    H217245   2.538   5.808   5.349
 5768TIP3   OH217246   5.334   4.224   5.125
 5768TIP3    H117247   5.417   4.271   5.112
 5768TIP3    H217248   5.275   4.290   5.161
 5769TIP3   OH217249   4.268   6.944   3.395
 5769TIP3    H117250   4.225   7.019   3.437
 5769TIP3    H217251   4.339   6.920   3.454
 5770TIP3   OH217252   2.555   3.614   4.181
 5770TIP3    H117253   2.575   3.565   4.101
 5770TIP3    H217254   2.544   3.704   4.151
 5771TIP3   OH217255   2.270   7.692   2.492
 5771TIP3    H117256   2.255   7.720   2.582
 5771TIP3    H217257   2.360   7.720   2.473
 5772TIP3   OH217258   3.144   0.456   1.161
 5772TIP3    H117259   3.054   0.447   1.193
 5772TIP3    H217260   3.186   0.372   1.182
 5773TIP3   OH217261   4.593   4.658   1.645
 5773TIP3    H117262   4.569   4.713   1.570
 5773TIP3    H217263   4.583   4.714   1.721
 5774TIP3   OH217264   0.910   6.048   1.286
 5774TIP3    H117265   0.952   6.115   1.339
 5774TIP3    H217266   0.877   6.095   1.210
 5775TIP3   OH217267   5.412   4.018   6.281
 5775TIP3    H117268   5.324   3.982   6.287
 5775TIP3    H217269   5.451   3.973   6.206
 5776TIP3   OH217270   2.759   0.996   3.954
 5776TIP3    H117271   2.769   0.987   3.859
 5776TIP3    H217272   2.840   1.037   3.983
 5777TIP3   OH217273   5.029   2.629   5.559
 5777TIP3    H117274   5.080   2.631   5.640
 5777TIP3    H217275   5.018   2.721   5.535
 5778TIP3   OH217276   3.305   1.058   5.110
 5778TIP3    H117277   3.354   1.003   5.049
 5778TIP3    H217278   3.215   1.029   5.102
 5779TIP3   OH217279   8.157   6.330   3.376
 5779TIP3    H117280   8.195   6.243   3.383
 5779TIP3    H217281   8.215   6.377   3.315
 5780TIP3   OH217282   5.383   0.654   3.549
 5780TIP3    H117283   5.366   0.692   3.463
 5780TIP3    H217284   5.307   0.680   3.601
 5781TIP3   OH217285   4.060   5.715   2.299
 5781TIP3    H117286   4.115   5.643   2.330
 5781TIP3    H217287   4.076   5.719   2.205
 5782TIP3   OH217288   2.244   2.334   0.110
 5782TIP3    H117289   2.168   2.277   0.120
 5782TIP3    H217290   2.286   2.334   0.196
 5783TIP3   OH217291   0.310   1.759   3.805
 5783TIP3    H117292   0.332   1.836   3.858
 5783TIP3    H217293   0.381   1.752   3.742
 5784TIP3   OH217294   4.704   1.648   0.966
 5784TIP3    H117295   4.707   1.572   0.908
 5784TIP3    H217296   4.746   1.718   0.915
 5785TIP3   OH217297   4.016   7.456   2.869
 5785TIP3    H117298   4.018   7.468   2.774
 5785TIP3    H217299   3.953   7.385   2.883
 5786TIP3   OH217300   1.669   0.027   6.649
 5786TIP3    H117301   1.700   0.083   6.720
 5786TIP3    H217302   1.646   0.088   6.579
 5787TIP3   OH217303   3.471   3.758   6.629
 5787TIP3    H117304   3.454   3.711   6.711
 5787TIP3    H217305   3.494   3.847   6.657
 5788TIP3   OH217306   5.648   0.485   4.491
 5788TIP3    H117307   5.575   0.428   4.465
 5788TIP3    H217308   5.677   0.525   4.409
 5789TIP3   OH217309   7.636   5.123   2.215
 5789TIP3    H117310   7.652   5.035   2.183
 5789TIP3    H217311   7.682   5.180   2.153
 5790TIP3   OH217312   3.449   4.006   0.071
 5790TIP3    H117313   3.488   3.935   0.020
 5790TIP3    H217314   3.500   4.083   0.048
 5791TIP3   OH217315   7.599   3.440   3.457
 5791TIP3    H117316   7.549   3.430   3.538
 5791TIP3    H217317   7.534   3.471   3.393
 5792TIP3   OH217318   0.333   2.385   1.171
 5792TIP3    H117319   0.337   2.382   1.267
 5792TIP3    H217320   0.277   2.460   1.152
 5793TIP3   OH217321   4.420   2.103   4.842
 5793TIP3    H117322   4.505   2.145   4.827
 5793TIP3    H217323   4.397   2.128   4.932
 5794TIP3   OH217324   1.298   4.990   0.247
 5794TIP3    H117325   1.262   5.015   0.332
 5794TIP3    H217326   1.268   5.059   0.187
 5795TIP3   OH217327   4.874   1.285   3.999
 5795TIP3    H117328   4.847   1.374   4.022
 5795TIP3    H217329   4.804   1.254   3.941
 5796TIP3   OH217330   0.284   7.227   5.512
 5796TIP3    H117331   0.224   7.161   5.549
 5796TIP3    H217332   0.353   7.235   5.577
 5797TIP3   OH217333   5.666   1.997   2.909
 5797TIP3    H117334   5.698   2.083   2.936
 5797TIP3    H217335   5.582   2.014   2.867
 5798TIP3   OH217336   5.428   2.419   3.068
 5798TIP3    H117337   5.423   2.481   3.142
 5798TIP3    H217338   5.347   2.368   3.075
 5799TIP3   OH217339   6.875   6.812   4.610
 5799TIP3    H117340   6.896   6.835   4.700
 5799TIP3    H217341   6.781   6.829   4.602
 5800TIP3   OH217342   0.653   4.614   3.389
 5800TIP3    H117343   0.657   4.620   3.294
 5800TIP3    H217344   0.569   4.573   3.407
 5801TIP3   OH217345   1.265   5.800   2.917
 5801TIP3    H117346   1.191   5.856   2.940
 5801TIP3    H217347   1.238   5.756   2.837
 5802TIP3   OH217348   7.602   6.730   4.708
 5802TIP3    H117349   7.627   6.713   4.799
 5802TIP3    H217350   7.592   6.825   4.703
 5803TIP3   OH217351   6.513   4.067   3.120
 5803TIP3    H117352   6.436   4.097   3.169
 5803TIP3    H217353   6.567   4.023   3.185
 5804TIP3   OH217354   7.195   5.123   5.003
 5804TIP3    H117355   7.152   5.198   5.046
 5804TIP3    H217356   7.172   5.132   4.911
 5805TIP3   OH217357   7.615   5.618   4.586
 5805TIP3    H117358   7.534   5.586   4.545
 5805TIP3    H217359   7.587   5.657   4.668
 5806TIP3   OH217360   6.753   4.160   2.174
 5806TIP3    H117361   6.782   4.251   2.182
 5806TIP3    H217362   6.747   4.129   2.264
 5807TIP3   OH217363   4.873   1.128   5.883
 5807TIP3    H117364   4.866   1.104   5.790
 5807TIP3    H217365   4.966   1.116   5.903
 5808TIP3   OH217366   6.284   4.081   4.904
 5808TIP3    H117367   6.195   4.112   4.884
 5808TIP3    H217368   6.304   4.018   4.835
 5809TIP3   OH217369   2.168   1.124   4.343
 5809TIP3    H117370   2.118   1.101   4.265
 5809TIP3    H217371   2.231   1.053   4.353
 5810TIP3   OH217372   2.390   5.274   2.766
 5810TIP3    H117373   2.419   5.354   2.809
 5810TIP3    H217374   2.356   5.219   2.837
 5811TIP3   OH217375   0.272   7.269   2.608
 5811TIP3    H117376   0.273   7.336   2.676
 5811TIP3    H217377   0.359   7.230   2.611
 5812TIP3   OH217378   2.703   1.798   3.345
 5812TIP3    H117379   2.789   1.787   3.386
 5812TIP3    H217380   2.644   1.816   3.419
 5813TIP3   OH217381   3.406   0.357   4.267
 5813TIP3    H117382   3.413   0.342   4.361
 5813TIP3    H217383   3.438   0.277   4.227
 5814TIP3   OH217384   2.921   7.109   2.717
 5814TIP3    H117385   2.834   7.070   2.726
 5814TIP3    H217386   2.976   7.038   2.685
 5815TIP3   OH217387   5.865   3.249   0.907
 5815TIP3    H117388   5.934   3.226   0.845
 5815TIP3    H217389   5.810   3.171   0.911
 5816TIP3   OH217390   6.950   5.345   1.812
 5816TIP3    H117391   7.000   5.336   1.893
 5816TIP3    H217392   6.952   5.439   1.793
 5817TIP3   OH217393   6.298   6.265   5.045
 5817TIP3    H117394   6.287   6.174   5.073
 5817TIP3    H217395   6.328   6.260   4.955
 5818TIP3   OH217396   5.368   4.971   6.652
 5818TIP3    H117397   5.309   5.001   6.583
 5818TIP3    H217398   5.313   4.962   6.729
 5819TIP3   OH217399   1.433   5.669   3.797
 5819TIP3    H117400   1.523   5.701   3.790
 5819TIP3    H217401   1.381   5.748   3.811
 5820TIP3   OH217402   0.247   6.346   4.939
 5820TIP3    H117403   0.258   6.406   5.013
 5820TIP3    H217404   0.183   6.390   4.882
 5821TIP3   OH217405   3.058   4.603   2.899
 5821TIP3    H117406   2.995   4.651   2.845
 5821TIP3    H217407   3.003   4.551   2.958
 5822TIP3   OH217408   2.375   3.497   4.710
 5822TIP3    H117409   2.398   3.506   4.618
 5822TIP3    H217410   2.287   3.534   4.716
 5823TIP3   OH217411   5.835   4.813   6.443
 5823TIP3    H117412   5.823   4.903   6.413
 5823TIP3    H217413   5.748   4.787   6.473
 5824TIP3   OH217414   5.075   1.945   6.758
 5824TIP3    H117415   5.027   1.963   6.677
 5824TIP3    H217416   5.114   1.859   6.744
 5825TIP3   OH217417   5.004   6.721   0.773
 5825TIP3    H117418   4.987   6.731   0.680
 5825TIP3    H217419   5.098   6.734   0.783
 5826TIP3   OH217420   5.057   4.558   2.840
 5826TIP3    H117421   4.984   4.527   2.786
 5826TIP3    H217422   5.037   4.651   2.855
 5827TIP3   OH217423   5.096   4.993   1.239
 5827TIP3    H117424   5.087   5.064   1.302
 5827TIP3    H217425   5.185   5.002   1.206
 5828TIP3   OH217426   0.927   7.704   2.331
 5828TIP3    H117427   0.852   7.675   2.382
 5828TIP3    H217428   0.946   7.792   2.365
 5829TIP3   OH217429   6.786   3.248   0.729
 5829TIP3    H117430   6.697   3.259   0.696
 5829TIP3    H217431   6.806   3.330   0.774
 5830TIP3   OH217432   4.326   0.056   1.433
 5830TIP3    H117433   4.265   0.060   1.361
 5830TIP3    H217434   4.374  -0.027   1.421
 5831TIP3   OH217435   5.477   2.902   4.773
 5831TIP3    H117436   5.565   2.870   4.790
 5831TIP3    H217437   5.475   2.990   4.810
 5832TIP3   OH217438   7.664   3.792   6.618
 5832TIP3    H117439   7.683   3.819   6.528
 5832TIP3    H217440   7.659   3.697   6.614
 5833TIP3   OH217441   2.222   0.697   5.885
 5833TIP3    H117442   2.176   0.743   5.956
 5833TIP3    H217443   2.197   0.745   5.806
 5834TIP3   OH217444   1.332   6.610   3.621
 5834TIP3    H117445   1.411   6.560   3.642
 5834TIP3    H217446   1.271   6.589   3.691
 5835TIP3   OH217447   3.651   5.232   3.059
 5835TIP3    H117448   3.730   5.267   3.016
 5835TIP3    H217449   3.673   5.141   3.079
 5836TIP3   OH217450   3.862   3.104   4.330
 5836TIP3    H117451   3.950   3.084   4.299
 5836TIP3    H217452   3.823   3.019   4.347
 5837TIP3   OH217453   0.707   0.815   2.890
 5837TIP3    H117454   0.621   0.834   2.929
 5837TIP3    H217455   0.693   0.825   2.795
 5838TIP3   OH217456   0.264   2.595   4.702
 5838TIP3    H117457   0.214   2.537   4.760
 5838TIP3    H217458   0.202   2.618   4.632
 5839TIP3   OH217459   7.578   0.309   0.747
 5839TIP3    H117460   7.597   0.232   0.694
 5839TIP3    H217461   7.484   0.301   0.768
 5840TIP3   OH217462   4.640   7.167   2.700
 5840TIP3    H117463   4.554   7.128   2.684
 5840TIP3    H217464   4.648   7.235   2.634
 5841TIP3   OH217465   4.026   1.908   4.584
 5841TIP3    H117466   3.974   1.983   4.554
 5841TIP3    H217467   3.962   1.849   4.625
 5842TIP3   OH217468   3.751   3.373   2.670
 5842TIP3    H117469   3.794   3.411   2.593
 5842TIP3    H217470   3.740   3.281   2.648
 5843TIP3   OH217471   7.952   4.272   1.828
 5843TIP3    H117472   7.894   4.341   1.798
 5843TIP3    H217473   7.903   4.226   1.896
 5844TIP3   OH217474   4.038   1.325   1.257
 5844TIP3    H117475   3.961   1.367   1.217
 5844TIP3    H217476   4.091   1.297   1.182
 5845TIP3   OH217477   7.966   1.245   3.498
 5845TIP3    H117478   8.029   1.236   3.569
 5845TIP3    H217479   7.919   1.161   3.496
 5846TIP3   OH217480   6.481   5.198   6.353
 5846TIP3    H117481   6.457   5.124   6.410
 5846TIP3    H217482   6.568   5.224   6.382
 5847TIP3   OH217483   5.324   6.640   0.923
 5847TIP3    H117484   5.335   6.699   0.998
 5847TIP3    H217485   5.377   6.680   0.853
 5848TIP3   OH217486   3.321   3.160   4.759
 5848TIP3    H117487   3.236   3.187   4.793
 5848TIP3    H217488   3.332   3.071   4.793
 5849TIP3   OH217489   7.655   0.499   5.444
 5849TIP3    H117490   7.729   0.488   5.504
 5849TIP3    H217491   7.662   0.425   5.384
 5850TIP3   OH217492   2.304   4.847   1.236
 5850TIP3    H117493   2.301   4.929   1.188
 5850TIP3    H217494   2.392   4.813   1.221
 5851TIP3   OH217495   1.251   5.244   6.365
 5851TIP3    H117496   1.211   5.169   6.320
 5851TIP3    H217497   1.343   5.218   6.377
 5852TIP3   OH217498   3.480   3.184   1.275
 5852TIP3    H117499   3.385   3.175   1.271
 5852TIP3    H217500   3.510   3.107   1.324
 5853TIP3   OH217501   2.556   2.799   4.526
 5853TIP3    H117502   2.539   2.710   4.557
 5853TIP3    H217503   2.513   2.855   4.591
 5854TIP3   OH217504   1.374   6.312   3.171
 5854TIP3    H117505   1.410   6.270   3.249
 5854TIP3    H217506   1.390   6.406   3.184
 5855TIP3   OH217507   0.098   6.230   0.403
 5855TIP3    H117508   0.090   6.325   0.400
 5855TIP3    H217509   0.185   6.214   0.440
 5856TIP3   OH217510   3.057   1.404   6.076
 5856TIP3    H117511   3.010   1.376   5.998
 5856TIP3    H217512   3.143   1.431   6.044
 5857TIP3   OH217513   5.881   3.906   1.864
 5857TIP3    H117514   5.940   3.970   1.904
 5857TIP3    H217515   5.920   3.821   1.885
 5858TIP3   OH217516   2.442   4.683   4.489
 5858TIP3    H117517   2.382   4.611   4.510
 5858TIP3    H217518   2.523   4.638   4.464
 5859TIP3   OH217519   0.329   1.811   4.561
 5859TIP3    H117520   0.234   1.813   4.570
 5859TIP3    H217521   0.359   1.757   4.635
 5860TIP3   OH217522   1.515   1.498   4.753
 5860TIP3    H117523   1.595   1.506   4.701
 5860TIP3    H217524   1.448   1.543   4.702
 5861TIP3   OH217525   7.476   1.888   5.142
 5861TIP3    H117526   7.514   1.865   5.057
 5861TIP3    H217527   7.548   1.880   5.204
 5862TIP3   OH217528   3.050   4.599   0.797
 5862TIP3    H117529   3.075   4.607   0.889
 5862TIP3    H217530   2.958   4.572   0.799
 5863TIP3   OH217531   4.878   2.245   5.657
 5863TIP3    H117532   4.852   2.153   5.667
 5863TIP3    H217533   4.962   2.250   5.702
 5864TIP3   OH217534   0.865   3.684   4.195
 5864TIP3    H117535   0.931   3.659   4.130
 5864TIP3    H217536   0.828   3.601   4.224
 5865TIP3   OH217537   5.041   1.611   2.092
 5865TIP3    H117538   5.009   1.544   2.032
 5865TIP3    H217539   4.963   1.651   2.129
 5866TIP3   OH217540   7.128   2.989   1.178
 5866TIP3    H117541   7.196   2.987   1.111
 5866TIP3    H217542   7.103   2.898   1.190
 5867TIP3   OH217543   7.021   5.364   4.156
 5867TIP3    H117544   6.932   5.394   4.173
 5867TIP3    H217545   7.012   5.303   4.084
 5868TIP3   OH217546   4.817   6.574   4.635
 5868TIP3    H117547   4.907   6.605   4.629
 5868TIP3    H217548   4.776   6.632   4.699
 5869TIP3   OH217549   0.395   0.574   6.505
 5869TIP3    H117550   0.366   0.637   6.570
 5869TIP3    H217551   0.317   0.556   6.452
 5870TIP3   OH217552   4.635   4.159   3.165
 5870TIP3    H117553   4.594   4.244   3.149
 5870TIP3    H217554   4.659   4.161   3.257
 5871TIP3   OH217555   7.973   0.929   4.235
 5871TIP3    H117556   7.938   0.986   4.167
 5871TIP3    H217557   8.050   0.976   4.269
 5872TIP3   OH217558   0.226   4.987   2.597
 5872TIP3    H117559   0.274   4.969   2.678
 5872TIP3    H217560   0.255   5.074   2.571
 5873TIP3   OH217561   4.351   3.415   2.773
 5873TIP3    H117562   4.316   3.445   2.857
 5873TIP3    H217563   4.273   3.405   2.717
 5874TIP3   OH217564   5.014   2.628   0.320
 5874TIP3    H117565   4.949   2.625   0.250
 5874TIP3    H217566   5.092   2.666   0.279
 5875TIP3   OH217567   7.297   4.126   4.550
 5875TIP3    H117568   7.262   4.134   4.639
 5875TIP3    H217569   7.290   4.033   4.530
 5876TIP3   OH217570   6.552   7.124   0.952
 5876TIP3    H117571   6.552   7.142   0.858
 5876TIP3    H217572   6.528   7.032   0.959
 5877TIP3   OH217573   7.783   7.369   6.627
 5877TIP3    H117574   7.792   7.441   6.565
 5877TIP3    H217575   7.841   7.301   6.593
 5878TIP3   OH217576   6.342   5.281   5.537
 5878TIP3    H117577   6.389   5.215   5.486
 5878TIP3    H217578   6.409   5.320   5.593
 5879TIP3   OH217579   4.121   5.085   3.563
 5879TIP3    H117580   4.188   5.017   3.565
 5879TIP3    H217581   4.078   5.079   3.648
 5880TIP3   OH217582   0.938   1.535   5.502
 5880TIP3    H117583   0.888   1.472   5.554
 5880TIP3    H217584   0.949   1.610   5.560
 5881TIP3   OH217585   3.503   0.457   0.286
 5881TIP3    H117586   3.562   0.479   0.214
 5881TIP3    H217587   3.416   0.479   0.253
 5882TIP3   OH217588   2.805   6.140   4.456
 5882TIP3    H117589   2.805   6.235   4.469
 5882TIP3    H217590   2.880   6.109   4.506
 5883TIP3   OH217591   3.844   4.845   4.575
 5883TIP3    H117592   3.865   4.919   4.632
 5883TIP3    H217593   3.844   4.770   4.634
 5884TIP3   OH217594   7.229   7.170   3.167
 5884TIP3    H117595   7.261   7.097   3.115
 5884TIP3    H217596   7.152   7.135   3.213
 5885TIP3   OH217597   3.311   2.659   1.444
 5885TIP3    H117598   3.348   2.739   1.481
 5885TIP3    H217599   3.385   2.616   1.400
 5886TIP3   OH217600   5.269   7.142   6.520
 5886TIP3    H117601   5.263   7.201   6.595
 5886TIP3    H217602   5.180   7.137   6.487
 5887TIP3   OH217603   2.737   5.887   4.110
 5887TIP3    H117604   2.736   5.792   4.095
 5887TIP3    H217605   2.652   5.917   4.079
 5888TIP3   OH217606   1.928   3.853   2.954
 5888TIP3    H117607   1.856   3.877   2.895
 5888TIP3    H217608   1.973   3.782   2.909
 5889TIP3   OH217609   1.765   1.376   3.187
 5889TIP3    H117610   1.776   1.448   3.248
 5889TIP3    H217611   1.753   1.299   3.242
 5890TIP3   OH217612   7.938   0.314   4.161
 5890TIP3    H117613   7.993   0.373   4.110
 5890TIP3    H217614   7.860   0.302   4.106
 5891TIP3   OH217615   7.092   2.031   1.162
 5891TIP3    H117616   6.998   2.028   1.179
 5891TIP3    H217617   7.101   2.003   1.071
 5892TIP3   OH217618   7.418   3.195   4.689
 5892TIP3    H117619   7.498   3.203   4.638
 5892TIP3    H217620   7.366   3.129   4.643
 5893TIP3   OH217621   1.569   7.470   3.357
 5893TIP3    H117622   1.601   7.384   3.383
 5893TIP3    H217623   1.576   7.471   3.261
 5894TIP3   OH217624   5.077   0.136   2.284
 5894TIP3    H117625   5.042   0.081   2.213
 5894TIP3    H217626   5.140   0.080   2.329
 5895TIP3   OH217627   4.082   3.141   2.403
 5895TIP3    H117628   4.085   3.174   2.313
 5895TIP3    H217629   4.009   3.080   2.404
 5896TIP3   OH217630   3.624   1.395   1.680
 5896TIP3    H117631   3.679   1.452   1.734
 5896TIP3    H217632   3.646   1.420   1.590
 5897TIP3   OH217633   2.184   2.861   3.143
 5897TIP3    H117634   2.213   2.792   3.083
 5897TIP3    H217635   2.261   2.917   3.154
 5898TIP3   OH217636   4.484   6.556   5.971
 5898TIP3    H117637   4.486   6.635   6.025
 5898TIP3    H217638   4.546   6.496   6.013
 5899TIP3   OH217639   1.164   4.150   6.628
 5899TIP3    H117640   1.195   4.190   6.710
 5899TIP3    H217641   1.234   4.089   6.604
 5900TIP3   OH217642   3.973   5.845   5.543
 5900TIP3    H117643   3.915   5.857   5.467
 5900TIP3    H217644   3.918   5.865   5.618
 5901TIP3   OH217645  -0.004   7.804   6.362
 5901TIP3    H117646   0.047   7.726   6.342
 5901TIP3    H217647   0.000   7.857   6.283
 5902TIP3   OH217648   7.051   0.936   3.979
 5902TIP3    H117649   7.116   0.875   3.944
 5902TIP3    H217650   6.997   0.883   4.037
 5903TIP3   OH217651   3.810   1.685   6.477
 5903TIP3    H117652   3.756   1.658   6.551
 5903TIP3    H217653   3.748   1.716   6.411
 5904TIP3   OH217654   6.153   2.118   2.113
 5904TIP3    H117655   6.117   2.195   2.069
 5904TIP3    H217656   6.099   2.046   2.083
 5905TIP3   OH217657   5.109   6.090   5.450
 5905TIP3    H117658   5.079   6.071   5.538
 5905TIP3    H217659   5.192   6.043   5.442
 5906TIP3   OH217660   3.175   4.932   6.641
 5906TIP3    H117661   3.232   4.980   6.581
 5906TIP3    H217662   3.171   4.987   6.719
 5907TIP3   OH217663   4.843   0.870   0.992
 5907TIP3    H117664   4.759   0.904   1.022
 5907TIP3    H217665   4.896   0.948   0.975
 5908TIP3   OH217666   6.177   3.458   5.598
 5908TIP3    H117667   6.244   3.398   5.630
 5908TIP3    H217668   6.217   3.544   5.605
 5909TIP3   OH217669   5.768   6.216   6.661
 5909TIP3    H117670   5.717   6.283   6.618
 5909TIP3    H217671   5.856   6.224   6.623
 5910TIP3   OH217672   0.233   5.945   2.348
 5910TIP3    H117673   0.228   6.013   2.416
 5910TIP3    H217674   0.191   5.984   2.272
 5911TIP3   OH217675   2.924   5.500   4.824
 5911TIP3    H117676   2.962   5.418   4.792
 5911TIP3    H217677   2.836   5.476   4.852
 5912TIP3   OH217678   5.203   0.662   4.848
 5912TIP3    H117679   5.169   0.743   4.809
 5912TIP3    H217680   5.296   0.662   4.825
 5913TIP3   OH217681   4.677   3.406   2.119
 5913TIP3    H117682   4.648   3.461   2.193
 5913TIP3    H217683   4.614   3.426   2.049
 5914TIP3   OH217684   7.788   6.235   3.669
 5914TIP3    H117685   7.739   6.169   3.717
 5914TIP3    H217686   7.866   6.190   3.638
 5915TIP3   OH217687   5.413   4.452   1.988
 5915TIP3    H117688   5.448   4.521   1.933
 5915TIP3    H217689   5.408   4.375   1.931
 5916TIP3   OH217690   1.309   1.772   1.924
 5916TIP3    H117691   1.264   1.751   2.007
 5916TIP3    H217692   1.258   1.843   1.887
 5917TIP3   OH217693   5.291   5.780   3.553
 5917TIP3    H117694   5.343   5.842   3.502
 5917TIP3    H217695   5.259   5.717   3.488
 5918TIP3   OH217696   3.424   3.834   1.533
 5918TIP3    H117697   3.337   3.863   1.505
 5918TIP3    H217698   3.451   3.770   1.467
 5919TIP3   OH217699   0.840   7.406   1.240
 5919TIP3    H117700   0.815   7.395   1.331
 5919TIP3    H217701   0.788   7.340   1.193
 5920TIP3   OH217702   5.346   3.759   1.218
 5920TIP3    H117703   5.259   3.774   1.182
 5920TIP3    H217704   5.331   3.705   1.296
 5921TIP3   OH217705   1.480   5.095   1.741
 5921TIP3    H117706   1.404   5.052   1.780
 5921TIP3    H217707   1.444   5.151   1.673
 5922TIP3   OH217708   7.688   1.083   2.133
 5922TIP3    H117709   7.700   1.112   2.043
 5922TIP3    H217710   7.683   0.987   2.127
 5923TIP3   OH217711   1.210   1.119   5.987
 5923TIP3    H117712   1.297   1.137   6.022
 5923TIP3    H217713   1.175   1.051   6.046
 5924TIP3   OH217714   2.132   6.088   2.233
 5924TIP3    H117715   2.042   6.111   2.256
 5924TIP3    H217716   2.185   6.134   2.298
 5925TIP3   OH217717   4.431   1.944   2.056
 5925TIP3    H117718   4.395   1.907   1.976
 5925TIP3    H217719   4.522   1.917   2.057
 5926TIP3   OH217720   3.731   7.098   4.631
 5926TIP3    H117721   3.642   7.073   4.655
 5926TIP3    H217722   3.781   7.017   4.637
 5927TIP3   OH217723   0.183   3.895   0.816
 5927TIP3    H117724   0.110   3.957   0.820
 5927TIP3    H217725   0.158   3.834   0.746
 5928TIP3   OH217726   0.094   1.445   4.460
 5928TIP3    H117727   0.037   1.498   4.405
 5928TIP3    H217728   0.034   1.401   4.520
 5929TIP3   OH217729   6.572   7.505   6.572
 5929TIP3    H117730   6.562   7.498   6.477
 5929TIP3    H217731   6.666   7.515   6.585
 5930TIP3   OH217732   7.623   2.141   4.583
 5930TIP3    H117733   7.585   2.173   4.501
 5930TIP3    H217734   7.708   2.184   4.589
 5931TIP3   OH217735   5.205   2.751   6.403
 5931TIP3    H117736   5.116   2.716   6.412
 5931TIP3    H217737   5.203   2.799   6.320
 5932TIP3   OH217738   1.902   4.132   2.761
 5932TIP3    H117739   1.843   4.191   2.716
 5932TIP3    H217740   1.855   4.105   2.840
 5933TIP3   OH217741   3.733   3.703   5.721
 5933TIP3    H117742   3.821   3.664   5.722
 5933TIP3    H217743   3.748   3.794   5.694
 5934TIP3   OH217744   4.617   2.873   5.959
 5934TIP3    H117745   4.604   2.967   5.953
 5934TIP3    H217746   4.696   2.863   6.013
 5935TIP3   OH217747   0.345   0.899   4.840
 5935TIP3    H117748   0.264   0.913   4.791
 5935TIP3    H217749   0.350   0.804   4.851
 5936TIP3   OH217750   5.102   5.741   4.464
 5936TIP3    H117751   5.010   5.736   4.438
 5936TIP3    H217752   5.113   5.831   4.495
 5937TIP3   OH217753   8.241   1.004   1.990
 5937TIP3    H117754   8.313   1.064   2.006
 5937TIP3    H217755   8.279   0.935   1.936
 5938TIP3   OH217756   5.590   3.676   3.982
 5938TIP3    H117757   5.646   3.614   3.936
 5938TIP3    H217758   5.511   3.681   3.928
 5939TIP3   OH217759   8.249   7.648   3.463
 5939TIP3    H117760   8.299   7.658   3.545
 5939TIP3    H217761   8.244   7.737   3.428
 5940TIP3   OH217762   4.873   1.685   4.874
 5940TIP3    H117763   4.785   1.693   4.838
 5940TIP3    H217764   4.860   1.649   4.962
 5941TIP3   OH217765   2.316   0.051   1.088
 5941TIP3    H117766   2.241   0.048   1.029
 5941TIP3    H217767   2.280   0.024   1.173
 5942TIP3   OH217768   2.661   0.619   2.568
 5942TIP3    H117769   2.597   0.641   2.500
 5942TIP3    H217770   2.705   0.541   2.535
 5943TIP3   OH217771   8.090   6.874   1.210
 5943TIP3    H117772   8.156   6.813   1.177
 5943TIP3    H217773   8.053   6.914   1.132
 5944TIP3   OH217774   2.515   6.556   0.529
 5944TIP3    H117775   2.481   6.545   0.617
 5944TIP3    H217776   2.473   6.486   0.478
 5945TIP3   OH217777   8.248   2.698   4.252
 5945TIP3    H117778   8.179   2.686   4.187
 5945TIP3    H217779   8.211   2.663   4.333
 5946TIP3   OH217780   5.437   6.039   6.551
 5946TIP3    H117781   5.412   6.043   6.459
 5946TIP3    H217782   5.513   5.981   6.553
 5947TIP3   OH217783   1.711   7.390   1.290
 5947TIP3    H117784   1.706   7.357   1.200
 5947TIP3    H217785   1.740   7.314   1.341
 5948TIP3   OH217786   4.872   4.006   2.127
 5948TIP3    H117787   4.850   4.022   2.035
 5948TIP3    H217788   4.814   3.934   2.152
 5949TIP3   OH217789   2.202   6.005   3.260
 5949TIP3    H117790   2.294   6.010   3.234
 5949TIP3    H217791   2.157   5.977   3.181
 5950TIP3   OH217792   5.516   4.388   2.722
 5950TIP3    H117793   5.490   4.480   2.724
 5950TIP3    H217794   5.575   4.381   2.647
 5951TIP3   OH217795   2.654   7.309   2.831
 5951TIP3    H117796   2.711   7.323   2.907
 5951TIP3    H217797   2.626   7.397   2.805
 5952TIP3   OH217798   4.216   4.526   2.777
 5952TIP3    H117799   4.261   4.587   2.718
 5952TIP3    H217800   4.124   4.547   2.768
 5953TIP3   OH217801   2.895   1.420   5.372
 5953TIP3    H117802   2.944   1.461   5.300
 5953TIP3    H217803   2.804   1.418   5.341
 5954TIP3   OH217804   4.053   5.016   1.849
 5954TIP3    H117805   4.102   5.073   1.789
 5954TIP3    H217806   4.121   4.975   1.902
 5955TIP3   OH217807   5.459   7.489   4.525
 5955TIP3    H117808   5.397   7.494   4.598
 5955TIP3    H217809   5.470   7.395   4.509
 5956TIP3   OH217810   4.140   3.772   3.645
 5956TIP3    H117811   4.123   3.860   3.677
 5956TIP3    H217812   4.054   3.740   3.617
 5957TIP3   OH217813   7.600   4.809   4.257
 5957TIP3    H117814   7.649   4.746   4.204
 5957TIP3    H217815   7.508   4.782   4.248
 5958TIP3   OH217816   7.212   4.109   3.215
 5958TIP3    H117817   7.255   4.045   3.158
 5958TIP3    H217818   7.130   4.066   3.241
 5959TIP3   OH217819   7.781   5.784   0.255
 5959TIP3    H117820   7.718   5.713   0.245
 5959TIP3    H217821   7.835   5.779   0.176
 5960TIP3   OH217822   3.372   5.467   2.309
 5960TIP3    H117823   3.461   5.502   2.307
 5960TIP3    H217824   3.373   5.402   2.380
 5961TIP3   OH217825   6.323   0.408   3.872
 5961TIP3    H117826   6.258   0.344   3.843
 5961TIP3    H217827   6.383   0.416   3.798
 5962TIP3   OH217828   3.307   4.689   2.969
 5962TIP3    H117829   3.345   4.616   2.921
 5962TIP3    H217830   3.213   4.674   2.965
 5963TIP3   OH217831   1.860   0.700   1.221
 5963TIP3    H117832   1.784   0.653   1.188
 5963TIP3    H217833   1.921   0.702   1.147
 5964TIP3   OH217834   1.762   0.693   5.218
 5964TIP3    H117835   1.744   0.605   5.251
 5964TIP3    H217836   1.676   0.732   5.204
 5965TIP3   OH217837   3.453   7.575   3.472
 5965TIP3    H117838   3.451   7.613   3.384
 5965TIP3    H217839   3.490   7.487   3.459
 5966TIP3   OH217840   7.510   2.497   6.661
 5966TIP3    H117841   7.420   2.465   6.664
 5966TIP3    H217842   7.534   2.509   6.753
 5967TIP3   OH217843   5.084   6.752   2.316
 5967TIP3    H117844   5.056   6.731   2.226
 5967TIP3    H217845   5.086   6.668   2.361
 5968TIP3   OH217846   4.843   5.542   3.214
 5968TIP3    H117847   4.898   5.617   3.193
 5968TIP3    H217848   4.887   5.499   3.287
 5969TIP3   OH217849   3.433   3.342   5.948
 5969TIP3    H117850   3.512   3.394   5.964
 5969TIP3    H217851   3.387   3.388   5.879
 5970TIP3   OH217852   0.534   5.275   1.521
 5970TIP3    H117853   0.544   5.272   1.616
 5970TIP3    H217854   0.439   5.274   1.506
 5971TIP3   OH217855   8.174   4.561   3.556
 5971TIP3    H117856   8.120   4.636   3.530
 5971TIP3    H217857   8.232   4.597   3.624
 5972TIP3   OH217858   2.012   0.170   5.158
 5972TIP3    H117859   1.987   0.251   5.112
 5972TIP3    H217860   2.054   0.201   5.238
 5973TIP3   OH217861   6.601   0.354   6.706
 5973TIP3    H117862   6.571   0.398   6.626
 5973TIP3    H217863   6.521   0.323   6.748
 5974TIP3   OH217864   5.207   1.829   2.128
 5974TIP3    H117865   5.186   1.841   2.221
 5974TIP3    H217866   5.164   1.746   2.105
 5975TIP3   OH217867   4.971   6.441   6.111
 5975TIP3    H117868   4.988   6.381   6.184
 5975TIP3    H217869   4.881   6.423   6.085
 5976TIP3   OH217870   1.369   5.602   4.328
 5976TIP3    H117871   1.415   5.608   4.245
 5976TIP3    H217872   1.312   5.525   4.318
 5977TIP3   OH217873   7.591   5.432   5.736
 5977TIP3    H117874   7.523   5.443   5.803
 5977TIP3    H217875   7.643   5.358   5.767
 5978TIP3   OH217876   7.564   5.894   0.012
 5978TIP3    H117877   7.565   5.911  -0.083
 5978TIP3    H217878   7.655   5.877   0.035
 5979TIP3   OH217879   4.654   1.308   6.473
 5979TIP3    H117880   4.599   1.320   6.397
 5979TIP3    H217881   4.730   1.364   6.458
 5980TIP3   OH217882   4.022   5.450   1.911
 5980TIP3    H117883   4.013   5.388   1.839
 5980TIP3    H217884   4.111   5.436   1.944
 5981TIP3   OH217885   3.294   3.659   4.462
 5981TIP3    H117886   3.366   3.721   4.471
 5981TIP3    H217887   3.216   3.713   4.460
 5982TIP3   OH217888   1.917   0.440   5.107
 5982TIP3    H117889   1.869   0.446   5.189
 5982TIP3    H217890   1.893   0.520   5.059
 5983TIP3   OH217891   1.617   2.501   5.459
 5983TIP3    H117892   1.607   2.406   5.469
 5983TIP3    H217893   1.709   2.514   5.441
 5984TIP3   OH217894   1.730   1.830   0.883
 5984TIP3    H117895   1.650   1.882   0.885
 5984TIP3    H217896   1.738   1.802   0.791
 5985TIP3   OH217897   5.962   1.671   0.937
 5985TIP3    H117898   6.031   1.655   0.873
 5985TIP3    H217899   5.886   1.626   0.902
 5986TIP3   OH217900   4.068   3.078   5.297
 5986TIP3    H117901   4.050   3.047   5.208
 5986TIP3    H217902   4.138   3.143   5.286
 5987TIP3   OH217903   5.447   7.483   5.696
 5987TIP3    H117904   5.480   7.557   5.645
 5987TIP3    H217905   5.379   7.521   5.751
 5988TIP3   OH217906   4.537   3.787   2.527
 5988TIP3    H117907   4.450   3.799   2.566
 5988TIP3    H217908   4.578   3.719   2.580
 5989TIP3   OH217909   2.091   0.110   2.345
 5989TIP3    H117910   2.072   0.137   2.435
 5989TIP3    H217911   2.100   0.192   2.297
 5990TIP3   OH217912   0.383   2.510   3.555
 5990TIP3    H117913   0.291   2.535   3.564
 5990TIP3    H217914   0.384   2.416   3.569
 5991TIP3   OH217915   5.803   7.616   0.948
 5991TIP3    H117916   5.849   7.553   0.893
 5991TIP3    H217917   5.869   7.684   0.967
 5992TIP3   OH217918   4.837   4.980   1.463
 5992TIP3    H117919   4.860   4.929   1.386
 5992TIP3    H217920   4.900   4.951   1.530
 5993TIP3   OH217921   0.926   5.794   6.028
 5993TIP3    H117922   0.888   5.833   6.107
 5993TIP3    H217923   0.851   5.756   5.982
 5994TIP3   OH217924   0.755   6.195   3.004
 5994TIP3    H117925   0.833   6.194   3.060
 5994TIP3    H217926   0.689   6.241   3.056
 5995TIP3   OH217927   4.213   1.212   5.702
 5995TIP3    H117928   4.285   1.260   5.660
 5995TIP3    H217929   4.255   1.138   5.745
 5996TIP3   OH217930   0.460   5.997   4.889
 5996TIP3    H117931   0.533   5.955   4.844
 5996TIP3    H217932   0.383   5.947   4.863
 5997TIP3   OH217933   2.897   0.224   1.124
 5997TIP3    H117934   2.857   0.143   1.155
 5997TIP3    H217935   2.865   0.291   1.184
 5998TIP3   OH217936   7.905   1.754   3.694
 5998TIP3    H117937   7.892   1.659   3.694
 5998TIP3    H217938   7.817   1.789   3.707
 5999TIP3   OH217939   6.138   2.316   3.760
 5999TIP3    H117940   6.067   2.376   3.781
 5999TIP3    H217941   6.217   2.362   3.786
 6000TIP3   OH217942   6.992   4.474   0.836
 6000TIP3    H117943   6.979   4.379   0.837
 6000TIP3    H217944   7.013   4.494   0.745
 6001TIP3   OH217945   6.244   5.316   0.056
 6001TIP3    H117946   6.295   5.294  -0.022
 6001TIP3    H217947   6.300   5.377   0.105
 6002TIP3   OH217948   0.407   5.375   4.991
 6002TIP3    H117949   0.340   5.442   5.005
 6002TIP3    H217950   0.381   5.302   5.047
 6003TIP3   OH217951   0.581   7.109   1.740
 6003TIP3    H117952   0.589   7.183   1.800
 6003TIP3    H217953   0.575   7.032   1.796
 6004TIP3   OH217954   6.219   6.055   3.743
 6004TIP3    H117955   6.284   6.125   3.752
 6004TIP3    H217956   6.142   6.100   3.707
 6005TIP3   OH217957   3.060   7.140   3.349
 6005TIP3    H117958   3.006   7.110   3.276
 6005TIP3    H217959   3.136   7.082   3.348
 6006TIP3   OH217960   7.564   3.058   1.538
 6006TIP3    H117961   7.595   2.981   1.491
 6006TIP3    H217962   7.474   3.036   1.561
 6007TIP3   OH217963   7.286   7.208   0.307
 6007TIP3    H117964   7.263   7.270   0.376
 6007TIP3    H217965   7.214   7.215   0.244
 6008TIP3   OH217966   6.560   4.092   3.879
 6008TIP3    H117967   6.553   4.019   3.940
 6008TIP3    H217968   6.577   4.169   3.934
 6009TIP3   OH217969   2.108   6.425   1.156
 6009TIP3    H117970   2.043   6.358   1.174
 6009TIP3    H217971   2.162   6.429   1.235
 6010TIP3   OH217972   4.691   2.823   2.787
 6010TIP3    H117973   4.635   2.854   2.716
 6010TIP3    H217974   4.636   2.760   2.835
 6011TIP3   OH217975   1.438   4.196   3.791
 6011TIP3    H117976   1.527   4.180   3.822
 6011TIP3    H217977   1.445   4.198   3.696
 6012TIP3   OH217978   6.729   7.695   6.032
 6012TIP3    H117979   6.641   7.690   6.069
 6012TIP3    H217980   6.721   7.656   5.945
 6013TIP3   OH217981   3.103   4.852   0.663
 6013TIP3    H117982   3.029   4.855   0.603
 6013TIP3    H217983   3.112   4.760   0.686
 6014TIP3   OH217984   1.992   7.011   6.289
 6014TIP3    H117985   1.979   7.016   6.384
 6014TIP3    H217986   2.085   7.030   6.277
 6015TIP3   OH217987   6.397   1.454   1.852
 6015TIP3    H117988   6.461   1.385   1.837
 6015TIP3    H217989   6.417   1.520   1.785
 6016TIP3   OH217990   3.214   1.201   4.487
 6016TIP3    H117991   3.306   1.184   4.503
 6016TIP3    H217992   3.169   1.165   4.563
 6017TIP3   OH217993   7.347   0.122   1.490
 6017TIP3    H117994   7.319   0.139   1.580
 6017TIP3    H217995   7.329   0.029   1.476
 6018TIP3   OH217996   0.533   6.234   4.327
 6018TIP3    H117997   0.437   6.229   4.335
 6018TIP3    H217998   0.560   6.289   4.400
 6019TIP3   OH217999   3.417   1.828   4.858
 6019TIP3    H118000   3.451   1.844   4.770
 6019TIP3    H218001   3.466   1.888   4.915
 6020TIP3   OH218002   6.983   5.146   0.474
 6020TIP3    H118003   6.930   5.225   0.470
 6020TIP3    H218004   7.073   5.177   0.485
 6021TIP3   OH218005   4.640   3.937   5.943
 6021TIP3    H118006   4.708   3.870   5.932
 6021TIP3    H218007   4.596   3.941   5.858
 6022TIP3   OH218008   5.384   4.652   5.984
 6022TIP3    H118009   5.360   4.744   5.991
 6022TIP3    H218010   5.354   4.626   5.896
 6023TIP3   OH218011   5.561   5.616   1.232
 6023TIP3    H118012   5.626   5.563   1.186
 6023TIP3    H218013   5.612   5.672   1.291
 6024TIP3   OH218014   7.723   4.678   5.500
 6024TIP3    H118015   7.731   4.619   5.426
 6024TIP3    H218016   7.800   4.735   5.495
 6025TIP3   OH218017   1.698   5.743   1.895
 6025TIP3    H118018   1.607   5.753   1.867
 6025TIP3    H218019   1.749   5.755   1.815
 6026TIP3   OH218020   0.264   7.156   2.158
 6026TIP3    H118021   0.336   7.219   2.160
 6026TIP3    H218022   0.241   7.150   2.065
 6027TIP3   OH218023   1.994   7.478   3.018
 6027TIP3    H118024   1.982   7.384   3.030
 6027TIP3    H218025   2.055   7.485   2.944
 6028TIP3   OH218026   3.630   3.193   6.553
 6028TIP3    H118027   3.601   3.218   6.641
 6028TIP3    H218028   3.687   3.265   6.526
 6029TIP3   OH218029   5.026   4.659   3.209
 6029TIP3    H118030   5.078   4.735   3.186
 6029TIP3    H218031   5.008   4.669   3.303
 6030TIP3   OH218032   2.628   4.132   4.852
 6030TIP3    H118033   2.718   4.165   4.852
 6030TIP3    H218034   2.637   4.037   4.844
 6031TIP3   OH218035   3.027   4.216   1.484
 6031TIP3    H118036   2.932   4.211   1.499
 6031TIP3    H218037   3.044   4.310   1.475
 6032TIP3   OH218038   1.900   5.791   6.278
 6032TIP3    H118039   1.841   5.866   6.283
 6032TIP3    H218040   1.850   5.725   6.231
 6033TIP3   OH218041   1.373   5.043   2.141
 6033TIP3    H118042   1.321   5.010   2.068
 6033TIP3    H218043   1.398   5.131   2.115
 6034TIP3   OH218044   2.475   5.978   2.227
 6034TIP3    H118045   2.485   5.971   2.132
 6034TIP3    H218046   2.450   5.890   2.254
 6035TIP3   OH218047   3.328   7.030   2.750
 6035TIP3    H118048   3.367   6.997   2.831
 6035TIP3    H218049   3.401   7.037   2.689
 6036TIP3   OH218050   4.882   2.397   1.530
 6036TIP3    H118051   4.851   2.486   1.545
 6036TIP3    H218052   4.854   2.349   1.608
 6037TIP3   OH218053   1.531   6.745   6.321
 6037TIP3    H118054   1.571   6.687   6.256
 6037TIP3    H218055   1.516   6.689   6.397
 6038TIP3   OH218056   3.917   5.590   5.738
 6038TIP3    H118057   3.974   5.621   5.809
 6038TIP3    H218058   3.848   5.656   5.732
 6039TIP3   OH218059   0.897   7.473   1.770
 6039TIP3    H118060   0.951   7.394   1.772
 6039TIP3    H218061   0.857   7.476   1.856
 6040TIP3   OH218062   5.992   1.686   3.117
 6040TIP3    H118063   6.045   1.652   3.189
 6040TIP3    H218064   6.005   1.624   3.046
 6041TIP3   OH218065   0.135   3.950   5.229
 6041TIP3    H118066   0.073   4.003   5.180
 6041TIP3    H218067   0.221   3.986   5.205
 6042TIP3   OH218068   7.937   2.428   0.476
 6042TIP3    H118069   7.943   2.497   0.410
 6042TIP3    H218070   8.026   2.421   0.511
 6043TIP3   OH218071   2.355   4.769   5.382
 6043TIP3    H118072   2.441   4.808   5.367
 6043TIP3    H218073   2.293   4.838   5.359
 6044TIP3   OH218074   6.912   5.358   5.885
 6044TIP3    H118075   6.965   5.408   5.822
 6044TIP3    H218076   6.828   5.345   5.842
 6045TIP3   OH218077   4.823   3.458   4.826
 6045TIP3    H118078   4.766   3.400   4.776
 6045TIP3    H218079   4.764   3.516   4.873
 6046TIP3   OH218080   5.269   1.412   6.291
 6046TIP3    H118081   5.226   1.489   6.328
 6046TIP3    H218082   5.201   1.344   6.290
 6047TIP3   OH218083   6.488   2.481   0.800
 6047TIP3    H118084   6.431   2.462   0.725
 6047TIP3    H218085   6.570   2.437   0.779
 6048TIP3   OH218086   5.675   3.892   5.124
 6048TIP3    H118087   5.709   3.974   5.160
 6048TIP3    H218088   5.735   3.825   5.158
 6049TIP3   OH218089   4.374   6.042   4.173
 6049TIP3    H118090   4.418   5.986   4.237
 6049TIP3    H218091   4.293   5.996   4.152
 6050TIP3   OH218092   1.633   5.122   5.643
 6050TIP3    H118093   1.695   5.120   5.571
 6050TIP3    H218094   1.597   5.034   5.647
 6051TIP3   OH218095   0.692   6.507   1.917
 6051TIP3    H118096   0.694   6.473   1.828
 6051TIP3    H218097   0.755   6.579   1.917
 6052TIP3   OH218098   5.679   1.037   0.262
 6052TIP3    H118099   5.709   1.059   0.350
 6052TIP3    H218100   5.587   1.060   0.261
 6053TIP3   OH218101   1.031   2.783   3.402
 6053TIP3    H118102   0.990   2.854   3.452
 6053TIP3    H218103   0.999   2.796   3.312
 6054TIP3   OH218104   6.108   2.991   6.053
 6054TIP3    H118105   6.083   2.917   5.997
 6054TIP3    H218106   6.188   2.963   6.096
 6055TIP3   OH218107   2.724   3.467   6.234
 6055TIP3    H118108   2.675   3.547   6.214
 6055TIP3    H218109   2.741   3.427   6.148
 6056TIP3   OH218110   1.083   4.602   1.423
 6056TIP3    H118111   1.063   4.508   1.418
 6056TIP3    H218112   1.003   4.645   1.393
 6057TIP3   OH218113   0.562   2.602   5.470
 6057TIP3    H118114   0.472   2.603   5.438
 6057TIP3    H218115   0.570   2.681   5.524
 6058TIP3   OH218116   3.429   4.414   3.714
 6058TIP3    H118117   3.375   4.459   3.779
 6058TIP3    H218118   3.391   4.326   3.708
 6059TIP3   OH218119   3.416   0.982   2.946
 6059TIP3    H118120   3.466   0.969   2.865
 6059TIP3    H218121   3.418   1.076   2.961
 6060TIP3   OH218122   3.985   6.435   5.726
 6060TIP3    H118123   3.960   6.354   5.770
 6060TIP3    H218124   4.075   6.451   5.755
 6061TIP3   OH218125   0.068   0.268   0.953
 6061TIP3    H118126  -0.009   0.319   0.977
 6061TIP3    H218127   0.118   0.259   1.034
 6062TIP3   OH218128   2.578   6.203   1.589
 6062TIP3    H118129   2.573   6.253   1.508
 6062TIP3    H218130   2.499   6.227   1.637
 6063TIP3   OH218131   5.203   1.539   1.525
 6063TIP3    H118132   5.227   1.631   1.535
 6063TIP3    H218133   5.282   1.492   1.553
 6064TIP3   OH218134   7.250   6.265   3.358
 6064TIP3    H118135   7.281   6.176   3.378
 6064TIP3    H218136   7.164   6.251   3.318
 6065TIP3   OH218137   6.461   0.484   6.464
 6065TIP3    H118138   6.552   0.497   6.436
 6065TIP3    H218139   6.412   0.551   6.418
 6066TIP3   OH218140   6.306   2.166   2.320
 6066TIP3    H118141   6.378   2.103   2.311
 6066TIP3    H218142   6.262   2.165   2.236
 6067TIP3   OH218143   7.691   0.717   4.780
 6067TIP3    H118144   7.763   0.706   4.718
 6067TIP3    H218145   7.677   0.812   4.783
 6068TIP3   OH218146   7.491   4.948   3.207
 6068TIP3    H118147   7.532   4.920   3.125
 6068TIP3    H218148   7.537   5.029   3.229
 6069TIP3   OH218149   0.683   1.888   4.270
 6069TIP3    H118150   0.660   1.824   4.338
 6069TIP3    H218151   0.651   1.972   4.304
 6070TIP3   OH218152   7.865   0.205   4.825
 6070TIP3    H118153   7.911   0.182   4.905
 6070TIP3    H218154   7.933   0.239   4.767
 6071TIP3   OH218155   1.435   5.261   6.693
 6071TIP3    H118156   1.451   5.252   6.787
 6071TIP3    H218157   1.523   5.274   6.656
 6072TIP3   OH218158   6.502   4.029   1.528
 6072TIP3    H118159   6.514   3.989   1.442
 6072TIP3    H218160   6.533   3.963   1.590
 6073TIP3   OH218161   1.632   6.951   6.487
 6073TIP3    H118162   1.621   6.890   6.414
 6073TIP3    H218163   1.573   7.023   6.468
 6074TIP3   OH218164   1.660   0.896   6.173
 6074TIP3    H118165   1.663   0.819   6.117
 6074TIP3    H218166   1.736   0.948   6.147
 6075TIP3   OH218167   6.999   1.746   4.660
 6075TIP3    H118168   6.976   1.839   4.667
 6075TIP3    H218169   6.925   1.706   4.615
 6076TIP3   OH218170   7.894   2.250   4.585
 6076TIP3    H118171   7.920   2.313   4.518
 6076TIP3    H218172   7.930   2.286   4.667
 6077TIP3   OH218173   6.494   2.507   3.114
 6077TIP3    H118174   6.568   2.558   3.081
 6077TIP3    H218175   6.428   2.512   3.044
 6078TIP3   OH218176   3.514   6.735   6.378
 6078TIP3    H118177   3.465   6.660   6.411
 6078TIP3    H218178   3.534   6.712   6.287
 6079TIP3   OH218179   6.079   2.190   4.030
 6079TIP3    H118180   6.122   2.224   3.951
 6079TIP3    H218181   5.996   2.154   3.999
 6080TIP3   OH218182   0.696   5.723   3.121
 6080TIP3    H118183   0.749   5.666   3.177
 6080TIP3    H218184   0.707   5.810   3.159
 6081TIP3   OH218185   2.156   4.301   4.577
 6081TIP3    H118186   2.190   4.218   4.610
 6081TIP3    H218187   2.093   4.330   4.643
 6082TIP3   OH218188   5.782   1.741   4.054
 6082TIP3    H118189   5.829   1.739   3.971
 6082TIP3    H218190   5.735   1.658   4.057
 6083TIP3   OH218191   3.515   1.860   0.285
 6083TIP3    H118192   3.481   1.949   0.294
 6083TIP3    H218193   3.476   1.812   0.358
 6084TIP3   OH218194   5.160   5.327   1.230
 6084TIP3    H118195   5.120   5.411   1.207
 6084TIP3    H218196   5.145   5.271   1.154
 6085TIP3   OH218197   5.674   2.030   1.288
 6085TIP3    H118198   5.678   2.120   1.319
 6085TIP3    H218199   5.706   2.034   1.197
 6086TIP3   OH218200   8.159   1.615   3.673
 6086TIP3    H118201   8.240   1.604   3.724
 6086TIP3    H218202   8.119   1.694   3.708
 6087TIP3   OH218203   5.951   5.384   2.234
 6087TIP3    H118204   5.919   5.370   2.145
 6087TIP3    H218205   5.928   5.304   2.281
 6088TIP3   OH218206   4.681   3.156   6.143
 6088TIP3    H118207   4.626   3.216   6.091
 6088TIP3    H218208   4.639   3.154   6.229
 6089TIP3   OH218209   6.608   3.876   0.718
 6089TIP3    H118210   6.531   3.900   0.768
 6089TIP3    H218211   6.603   3.780   0.710
 6090TIP3   OH218212   6.555   1.257   2.816
 6090TIP3    H118213   6.537   1.327   2.878
 6090TIP3    H218214   6.469   1.231   2.783
 6091TIP3   OH218215   4.464   6.918   5.300
 6091TIP3    H118216   4.412   6.840   5.279
 6091TIP3    H218217   4.531   6.920   5.231
 6092TIP3   OH218218   2.806   5.031   3.963
 6092TIP3    H118219   2.755   4.955   3.934
 6092TIP3    H218220   2.753   5.070   4.032
 6093TIP3   OH218221   4.929   1.011   4.369
 6093TIP3    H118222   4.868   1.065   4.320
 6093TIP3    H218223   4.918   1.038   4.460
 6094TIP3   OH218224   5.667   4.701   2.230
 6094TIP3    H118225   5.757   4.723   2.206
 6094TIP3    H218226   5.676   4.629   2.293
 6095TIP3   OH218227   1.760   2.406   2.188
 6095TIP3    H118228   1.684   2.463   2.182
 6095TIP3    H218229   1.751   2.363   2.274
 6096TIP3   OH218230   1.269   4.153   5.155
 6096TIP3    H118231   1.320   4.154   5.237
 6096TIP3    H218232   1.198   4.214   5.171
 6097TIP3   OH218233   4.214   7.729   0.412
 6097TIP3    H118234   4.147   7.797   0.405
 6097TIP3    H218235   4.239   7.710   0.321
 6098TIP3   OH218236   3.076   2.921   6.692
 6098TIP3    H118237   3.022   2.853   6.652
 6098TIP3    H218238   3.158   2.920   6.642
 6099TIP3   OH218239   6.978   7.421   5.804
 6099TIP3    H118240   6.958   7.331   5.830
 6099TIP3    H218241   6.989   7.417   5.709
 6100TIP3   OH218242   1.066   0.643   4.647
 6100TIP3    H118243   1.015   0.572   4.685
 6100TIP3    H218244   1.012   0.721   4.660
 6101TIP3   OH218245   3.854   4.870   0.527
 6101TIP3    H118246   3.765   4.903   0.533
 6101TIP3    H218247   3.881   4.858   0.618
 6102TIP3   OH218248   0.644   6.483   1.610
 6102TIP3    H118249   0.559   6.512   1.641
 6102TIP3    H218250   0.624   6.417   1.544
 6103TIP3   OH218251   3.852   6.718   5.422
 6103TIP3    H118252   3.817   6.729   5.334
 6103TIP3    H218253   3.871   6.807   5.452
 6104TIP3   OH218254   6.369   6.912   3.053
 6104TIP3    H118255   6.295   6.854   3.069
 6104TIP3    H218256   6.337   6.975   2.988
 6105TIP3   OH218257   4.631   0.076   1.288
 6105TIP3    H118258   4.554   0.043   1.242
 6105TIP3    H218259   4.685  -0.002   1.303
 6106TIP3   OH218260   4.239   1.012   0.636
 6106TIP3    H118261   4.172   1.075   0.610
 6106TIP3    H218262   4.210   0.929   0.599
 6107TIP3   OH218263   0.776   6.421   4.066
 6107TIP3    H118264   0.696   6.459   4.101
 6107TIP3    H218265   0.841   6.432   4.135
 6108TIP3   OH218266   3.656   7.195   6.067
 6108TIP3    H118267   3.745   7.223   6.090
 6108TIP3    H218268   3.613   7.274   6.033
 6109TIP3   OH218269   1.200   6.433   4.305
 6109TIP3    H118270   1.246   6.357   4.269
 6109TIP3    H218271   1.265   6.503   4.306
 6110TIP3   OH218272   6.026   0.172   6.455
 6110TIP3    H118273   5.973   0.240   6.414
 6110TIP3    H218274   6.114   0.185   6.418
 6111TIP3   OH218275   6.012   6.055   4.386
 6111TIP3    H118276   6.070   6.072   4.460
 6111TIP3    H218277   6.064   6.004   4.324
 6112TIP3   OH218278   5.661   0.879   5.162
 6112TIP3    H118279   5.592   0.892   5.097
 6112TIP3    H218280   5.623   0.815   5.223
 6113TIP3   OH218281   0.394   4.903   4.042
 6113TIP3    H118282   0.313   4.939   4.075
 6113TIP3    H218283   0.455   4.906   4.116
 6114TIP3   OH218284   2.970   0.122   1.922
 6114TIP3    H118285   3.031   0.197   1.917
 6114TIP3    H218286   2.892   0.152   1.875
 6115TIP3   OH218287   3.553   7.620   0.010
 6115TIP3    H118288   3.570   7.710   0.039
 6115TIP3    H218289   3.552   7.568   0.091
 6116TIP3   OH218290   1.918   4.437   6.005
 6116TIP3    H118291   1.963   4.371   6.059
 6116TIP3    H218292   1.869   4.490   6.068
 6117TIP3   OH218293   5.382   7.123   4.099
 6117TIP3    H118294   5.362   7.208   4.137
 6117TIP3    H218295   5.358   7.131   4.007
 6118TIP3   OH218296   5.604   6.472   2.678
 6118TIP3    H118297   5.585   6.522   2.599
 6118TIP3    H218298   5.579   6.530   2.750
 6119TIP3   OH218299   6.565   0.519   5.543
 6119TIP3    H118300   6.583   0.580   5.472
 6119TIP3    H218301   6.630   0.450   5.532
 6120TIP3   OH218302   5.100   2.531   1.344
 6120TIP3    H118303   5.152   2.533   1.424
 6120TIP3    H218304   5.027   2.473   1.364
 6121TIP3   OH218305   7.633   2.852   1.052
 6121TIP3    H118306   7.591   2.937   1.069
 6121TIP3    H218307   7.620   2.838   0.958
 6122TIP3   OH218308   0.002   5.693   5.623
 6122TIP3    H118309   0.066   5.742   5.675
 6122TIP3    H218310  -0.018   5.615   5.675
 6123TIP3   OH218311   2.876   4.724   1.639
 6123TIP3    H118312   2.815   4.701   1.708
 6123TIP3    H218313   2.821   4.740   1.562
 6124TIP3   OH218314   5.528   5.691   1.736
 6124TIP3    H118315   5.486   5.608   1.715
 6124TIP3    H218316   5.461   5.741   1.782
 6125TIP3   OH218317   6.615   3.559   3.538
 6125TIP3    H118318   6.620   3.547   3.443
 6125TIP3    H218319   6.627   3.471   3.573
 6126TIP3   OH218320   1.159   1.423   4.968
 6126TIP3    H118321   1.089   1.388   5.023
 6126TIP3    H218322   1.229   1.447   5.029
 6127TIP3   OH218323   7.774   6.973   3.833
 6127TIP3    H118324   7.790   7.068   3.836
 6127TIP3    H218325   7.736   6.953   3.918
 6128TIP3   OH218326   1.506   3.609   4.422
 6128TIP3    H118327   1.450   3.669   4.372
 6128TIP3    H218328   1.486   3.628   4.513
 6129TIP3   OH218329   0.348   0.193   3.489
 6129TIP3    H118330   0.395   0.275   3.503
 6129TIP3    H218331   0.290   0.211   3.414
 6130TIP3   OH218332   2.791   0.929   0.190
 6130TIP3    H118333   2.788   1.022   0.169
 6130TIP3    H218334   2.790   0.927   0.286
 6131TIP3   OH218335   5.415   1.589   3.396
 6131TIP3    H118336   5.441   1.542   3.475
 6131TIP3    H218337   5.482   1.567   3.331
 6132TIP3   OH218338   6.291   4.227   3.934
 6132TIP3    H118339   6.213   4.197   3.887
 6132TIP3    H218340   6.363   4.174   3.898
 6133TIP3   OH218341   5.798   4.936   1.694
 6133TIP3    H118342   5.778   4.843   1.679
 6133TIP3    H218343   5.752   4.982   1.623
 6134TIP3   OH218344   4.889   6.808   5.773
 6134TIP3    H118345   4.958   6.862   5.735
 6134TIP3    H218346   4.936   6.749   5.833
 6135TIP3   OH218347   8.077   6.386   2.507
 6135TIP3    H118348   8.160   6.394   2.553
 6135TIP3    H218349   8.074   6.462   2.449
 6136TIP3   OH218350   2.482   1.792   2.147
 6136TIP3    H118351   2.461   1.873   2.101
 6136TIP3    H218352   2.465   1.812   2.239
 6137TIP3   OH218353   3.922   4.054   4.088
 6137TIP3    H118354   3.865   4.018   4.156
 6137TIP3    H218355   3.890   4.143   4.074
 6138TIP3   OH218356   6.281   3.872   2.908
 6138TIP3    H118357   6.299   3.879   3.002
 6138TIP3    H218358   6.363   3.842   2.870
 6139TIP3   OH218359   5.222   5.574   5.741
 6139TIP3    H118360   5.223   5.529   5.657
 6139TIP3    H218361   5.154   5.641   5.732
 6140TIP3   OH218362   4.376   6.071   1.102
 6140TIP3    H118363   4.411   6.029   1.024
 6140TIP3    H218364   4.446   6.065   1.167
 6141TIP3   OH218365   2.520   7.619   5.198
 6141TIP3    H118366   2.582   7.590   5.131
 6141TIP3    H218367   2.435   7.590   5.165
 6142TIP3   OH218368   7.452   5.453   3.397
 6142TIP3    H118369   7.457   5.371   3.447
 6142TIP3    H218370   7.360   5.479   3.403
 6143TIP3   OH218371   2.608   0.328   4.412
 6143TIP3    H118372   2.599   0.403   4.353
 6143TIP3    H218373   2.592   0.252   4.356
 6144TIP3   OH218374   5.808   1.949   4.552
 6144TIP3    H118375   5.872   2.020   4.554
 6144TIP3    H218376   5.827   1.902   4.470
 6145TIP3   OH218377   6.675   6.984   6.620
 6145TIP3    H118378   6.598   6.943   6.580
 6145TIP3    H218379   6.690   7.062   6.566
 6146TIP3   OH218380   0.657   3.403   5.834
 6146TIP3    H118381   0.705   3.456   5.771
 6146TIP3    H218382   0.672   3.445   5.919
 6147TIP3   OH218383   4.962   7.820   5.554
 6147TIP3    H118384   4.886   7.763   5.539
 6147TIP3    H218385   5.022   7.766   5.606
 6148TIP3   OH218386   3.568   2.548   2.785
 6148TIP3    H118387   3.563   2.473   2.843
 6148TIP3    H218388   3.651   2.590   2.808
 6149TIP3   OH218389   4.765   7.482   1.103
 6149TIP3    H118390   4.703   7.421   1.142
 6149TIP3    H218391   4.851   7.445   1.123
 6150TIP3   OH218392   6.264   7.282   0.968
 6150TIP3    H118393   6.303   7.195   0.966
 6150TIP3    H218394   6.246   7.303   0.877
 6151TIP3   OH218395   0.971   6.971   2.393
 6151TIP3    H118396   0.995   6.919   2.316
 6151TIP3    H218397   0.996   6.915   2.467
 6152TIP3   OH218398   8.208   2.904   3.750
 6152TIP3    H118399   8.177   2.868   3.833
 6152TIP3    H218400   8.132   2.901   3.692
 6153TIP3   OH218401   4.255   5.521   1.691
 6153TIP3    H118402   4.231   5.514   1.599
 6153TIP3    H218403   4.215   5.603   1.720
 6154TIP3   OH218404   7.322   3.978   1.634
 6154TIP3    H118405   7.236   3.945   1.658
 6154TIP3    H218406   7.383   3.919   1.677
 6155TIP3   OH218407   4.280   4.889   5.000
 6155TIP3    H118408   4.369   4.895   4.965
 6155TIP3    H218409   4.276   4.802   5.041
 6156TIP3   OH218410   2.544   1.279   3.803
 6156TIP3    H118411   2.629   1.279   3.758
 6156TIP3    H218412   2.480   1.261   3.735
 6157TIP3   OH218413   1.121   5.469   5.359
 6157TIP3    H118414   1.149   5.385   5.324
 6157TIP3    H218415   1.184   5.533   5.324
 6158TIP3   OH218416   4.443   1.340   3.868
 6158TIP3    H118417   4.382   1.406   3.837
 6158TIP3    H218418   4.399   1.257   3.855
 6159TIP3   OH218419   6.685   0.446   4.852
 6159TIP3    H118420   6.769   0.473   4.890
 6159TIP3    H218421   6.620   0.495   4.903
 6160TIP3   OH218422   6.584   7.123   6.284
 6160TIP3    H118423   6.525   7.152   6.354
 6160TIP3    H218424   6.670   7.152   6.312
 6161TIP3   OH218425   7.248   7.238   2.705
 6161TIP3    H118426   7.204   7.323   2.717
 6161TIP3    H218427   7.320   7.239   2.768
 6162TIP3   OH218428   7.689   3.171   0.025
 6162TIP3    H118429   7.606   3.144   0.062
 6162TIP3    H218430   7.754   3.148   0.091
 6163TIP3   OH218431   0.042   4.385   6.402
 6163TIP3    H118432   0.128   4.364   6.438
 6163TIP3    H218433  -0.017   4.321   6.441
 6164TIP3   OH218434   7.979   0.194   5.230
 6164TIP3    H118435   7.975   0.285   5.197
 6164TIP3    H218436   7.944   0.142   5.158
 6165TIP3   OH218437   1.124   1.106   3.498
 6165TIP3    H118438   1.209   1.129   3.535
 6165TIP3    H218439   1.065   1.104   3.574
 6166TIP3   OH218440   6.203   3.126   5.190
 6166TIP3    H118441   6.262   3.199   5.207
 6166TIP3    H218442   6.130   3.164   5.142
 6167TIP3   OH218443   0.620   4.111   1.011
 6167TIP3    H118444   0.554   4.054   0.970
 6167TIP3    H218445   0.692   4.114   0.947
 6168TIP3   OH218446   4.513   6.951   3.031
 6168TIP3    H118447   4.490   6.894   2.957
 6168TIP3    H218448   4.546   6.891   3.098
 6169TIP3   OH218449   0.438   1.146   5.292
 6169TIP3    H118450   0.502   1.115   5.356
 6169TIP3    H218451   0.415   1.069   5.241
 6170TIP3   OH218452   5.908   1.653   5.185
 6170TIP3    H118453   5.973   1.584   5.198
 6170TIP3    H218454   5.842   1.637   5.252
 6171TIP3   OH218455   0.191   3.079   6.342
 6171TIP3    H118456   0.175   3.056   6.250
 6171TIP3    H218457   0.182   3.175   6.344
 6172TIP3   OH218458   6.695   7.346   1.936
 6172TIP3    H118459   6.720   7.413   1.873
 6172TIP3    H218460   6.639   7.286   1.886
 6173TIP3   OH218461   1.900   6.386   6.054
 6173TIP3    H118462   1.882   6.436   5.975
 6173TIP3    H218463   1.833   6.415   6.117
 6174TIP3   OH218464   3.079   2.294   4.740
 6174TIP3    H118465   3.125   2.302   4.656
 6174TIP3    H218466   2.994   2.335   4.724
 6175TIP3   OH218467   3.942   0.145   3.946
 6175TIP3    H118468   4.001   0.173   3.875
 6175TIP3    H218469   3.999   0.102   4.009
 6176TIP3   OH218470   4.232   7.297   4.586
 6176TIP3    H118471   4.260   7.228   4.526
 6176TIP3    H218472   4.145   7.322   4.556
 6177TIP3   OH218473   6.663   6.134   4.705
 6177TIP3    H118474   6.663   6.081   4.625
 6177TIP3    H218475   6.651   6.224   4.674
 6178TIP3   OH218476   5.620   3.503   0.433
 6178TIP3    H118477   5.549   3.459   0.385
 6178TIP3    H218478   5.689   3.513   0.368
 6179TIP3   OH218479   2.868   6.282   5.925
 6179TIP3    H118480   2.797   6.260   5.986
 6179TIP3    H218481   2.864   6.377   5.917
 6180TIP3   OH218482   5.272   6.121   2.222
 6180TIP3    H118483   5.311   6.205   2.244
 6180TIP3    H218484   5.339   6.056   2.243
 6181TIP3   OH218485   6.375   0.993   6.461
 6181TIP3    H118486   6.344   1.033   6.543
 6181TIP3    H218487   6.295   0.979   6.410
 6182TIP3   OH218488   3.996   4.180   4.494
 6182TIP3    H118489   4.006   4.233   4.415
 6182TIP3    H218490   4.067   4.116   4.489
 6183TIP3   OH218491   4.268   7.759   0.157
 6183TIP3    H118492   4.330   7.751   0.084
 6183TIP3    H218493   4.182   7.747   0.116
 6184TIP3   OH218494   1.854   0.714   3.820
 6184TIP3    H118495   1.922   0.648   3.831
 6184TIP3    H218496   1.888   0.773   3.754
 6185TIP3   OH218497   0.398   1.520   0.586
 6185TIP3    H118498   0.423   1.496   0.497
 6185TIP3    H218499   0.383   1.614   0.582
 6186TIP3   OH218500   4.080   4.290   5.139
 6186TIP3    H118501   4.145   4.301   5.069
 6186TIP3    H218502   4.132   4.265   5.216
 6187TIP3   OH218503   2.952   4.566   3.867
 6187TIP3    H118504   2.977   4.474   3.874
 6187TIP3    H218505   3.029   4.609   3.830
 6188TIP3   OH218506   7.621   2.537   5.222
 6188TIP3    H118507   7.591   2.453   5.188
 6188TIP3    H218508   7.669   2.577   5.150
 6189TIP3   OH218509   3.917   4.960   4.037
 6189TIP3    H118510   3.851   5.029   4.048
 6189TIP3    H218511   3.970   4.965   4.116
 6190TIP3   OH218512   7.196   0.211   6.667
 6190TIP3    H118513   7.212   0.117   6.655
 6190TIP3    H218514   7.138   0.215   6.743
 6191TIP3   OH218515   5.507   1.133   3.549
 6191TIP3    H118516   5.419   1.103   3.523
 6191TIP3    H218517   5.509   1.121   3.643
 6192TIP3   OH218518   3.638   3.799   3.843
 6192TIP3    H118519   3.657   3.891   3.827
 6192TIP3    H218520   3.641   3.758   3.756
 6193TIP3   OH218521   8.029   3.791   1.328
 6193TIP3    H118522   8.026   3.847   1.405
 6193TIP3    H218523   8.101   3.730   1.344
 6194TIP3   OH218524   7.770   0.898   4.443
 6194TIP3    H118525   7.834   0.968   4.443
 6194TIP3    H218526   7.821   0.817   4.446
 6195TIP3   OH218527   0.140   2.055   4.434
 6195TIP3    H118528   0.209   2.093   4.489
 6195TIP3    H218529   0.187   1.998   4.372
 6196TIP3   OH218530   7.057   2.367   0.724
 6196TIP3    H118531   7.131   2.380   0.783
 6196TIP3    H218532   7.061   2.442   0.664
 6197TIP3   OH218533   4.263   1.212   1.528
 6197TIP3    H118534   4.168   1.197   1.535
 6197TIP3    H218535   4.280   1.205   1.434
 6198TIP3   OH218536   0.431   1.018   3.371
 6198TIP3    H118537   0.412   0.958   3.299
 6198TIP3    H218538   0.436   0.962   3.448
 6199TIP3   OH218539   1.765   3.928   5.068
 6199TIP3    H118540   1.744   4.017   5.100
 6199TIP3    H218541   1.748   3.872   5.144
 6200TIP3   OH218542   5.452   6.462   0.339
 6200TIP3    H118543   5.529   6.443   0.286
 6200TIP3    H218544   5.407   6.378   0.346
 6201TIP3   OH218545   1.782   5.405   0.433
 6201TIP3    H118546   1.766   5.354   0.513
 6201TIP3    H218547   1.701   5.396   0.383
 6202TIP3   OH218548   7.147   7.538   6.020
 6202TIP3    H118549   7.095   7.514   5.942
 6202TIP3    H218550   7.146   7.459   6.074
 6203TIP3   OH218551   3.346   5.874   4.614
 6203TIP3    H118552   3.358   5.779   4.606
 6203TIP3    H218553   3.286   5.884   4.687
 6204TIP3   OH218554   6.670   3.085   5.901
 6204TIP3    H118555   6.731   3.013   5.882
 6204TIP3    H218556   6.589   3.059   5.858
 6205TIP3   OH218557   4.588   2.286   4.504
 6205TIP3    H118558   4.608   2.226   4.575
 6205TIP3    H218559   4.673   2.320   4.475
 6206TIP3   OH218560   4.633   1.158   1.194
 6206TIP3    H118561   4.680   1.149   1.277
 6206TIP3    H218562   4.683   1.225   1.146
 6207TIP3   OH218563   3.239   6.014   0.936
 6207TIP3    H118564   3.243   6.041   1.028
 6207TIP3    H218565   3.230   6.096   0.887
 6208TIP3   OH218566   7.984   3.978   2.651
 6208TIP3    H118567   7.903   3.954   2.695
 6208TIP3    H218568   8.006   4.064   2.687
 6209TIP3   OH218569   6.062   7.498   3.762
 6209TIP3    H118570   6.010   7.455   3.693
 6209TIP3    H218571   6.046   7.592   3.749
 6210TIP3   OH218572   3.764   3.418   1.470
 6210TIP3    H118573   3.832   3.463   1.519
 6210TIP3    H218574   3.812   3.371   1.401
 6211TIP3   OH218575   6.412   5.007   3.822
 6211TIP3    H118576   6.446   4.934   3.873
 6211TIP3    H218577   6.347   5.048   3.878
 6212TIP3   OH218578   7.606   5.157   3.360
 6212TIP3    H118579   7.663   5.105   3.417
 6212TIP3    H218580   7.664   5.223   3.321
 6213TIP3   OH218581   0.148   4.394   0.561
 6213TIP3    H118582   0.170   4.485   0.543
 6213TIP3    H218583   0.085   4.398   0.632
 6214TIP3   OH218584   4.095   5.168   2.949
 6214TIP3    H118585   4.179   5.208   2.928
 6214TIP3    H218586   4.037   5.241   2.971
 6215TIP3   OH218587   3.556   7.468   6.022
 6215TIP3    H118588   3.564   7.560   6.049
 6215TIP3    H218589   3.463   7.447   6.037
 6216TIP3   OH218590   4.822   2.275   5.274
 6216TIP3    H118591   4.905   2.227   5.268
 6216TIP3    H218592   4.769   2.224   5.336
 6217TIP3   OH218593   5.026   7.028   1.430
 6217TIP3    H118594   5.058   7.019   1.340
 6217TIP3    H218595   5.104   7.015   1.484
 6218TIP3   OH218596   0.127   3.263   2.822
 6218TIP3    H118597   0.219   3.281   2.840
 6218TIP3    H218598   0.109   3.311   2.741
 6219TIP3   OH218599   1.704   5.094   5.065
 6219TIP3    H118600   1.747   5.117   5.147
 6219TIP3    H218601   1.704   4.998   5.064
 6220TIP3   OH218602   1.591   1.126   0.425
 6220TIP3    H118603   1.496   1.121   0.414
 6220TIP3    H218604   1.623   1.041   0.394
 6221TIP3   OH218605   6.751   4.239   2.447
 6221TIP3    H118606   6.707   4.323   2.444
 6221TIP3    H218607   6.841   4.260   2.471
 6222TIP3   OH218608   7.020   2.035   2.798
 6222TIP3    H118609   7.115   2.021   2.805
 6222TIP3    H218610   6.992   2.050   2.888
 6223TIP3   OH218611   0.729   6.709   0.321
 6223TIP3    H118612   0.760   6.619   0.310
 6223TIP3    H218613   0.808   6.762   0.318
 6224TIP3   OH218614   6.053   2.814   6.668
 6224TIP3    H118615   6.132   2.859   6.639
 6224TIP3    H218616   6.042   2.842   6.759
 6225TIP3   OH218617   0.352   3.320   2.428
 6225TIP3    H118618   0.408   3.262   2.480
 6225TIP3    H218619   0.321   3.386   2.490
 6226TIP3   OH218620   2.721   2.283   5.435
 6226TIP3    H118621   2.755   2.355   5.382
 6226TIP3    H218622   2.641   2.319   5.475
 6227TIP3   OH218623   8.184   1.316   2.304
 6227TIP3    H118624   8.274   1.348   2.307
 6227TIP3    H218625   8.135   1.387   2.263
 6228TIP3   OH218626   4.250   1.707   4.437
 6228TIP3    H118627   4.288   1.787   4.400
 6228TIP3    H218628   4.172   1.736   4.483
 6229TIP3   OH218629   3.266   2.899   5.799
 6229TIP3    H118630   3.223   2.857   5.724
 6229TIP3    H218631   3.315   2.828   5.842
 6230TIP3   OH218632   6.286   6.332   4.102
 6230TIP3    H118633   6.245   6.246   4.100
 6230TIP3    H218634   6.266   6.370   4.017
 6231TIP3   OH218635   4.623   7.032   3.403
 6231TIP3    H118636   4.617   7.116   3.357
 6231TIP3    H218637   4.586   7.049   3.489
 6232TIP3   OH218638   2.727   4.448   5.047
 6232TIP3    H118639   2.648   4.407   5.011
 6232TIP3    H218640   2.790   4.447   4.975
 6233TIP3   OH218641   5.702   2.979   0.935
 6233TIP3    H118642   5.757   2.910   0.898
 6233TIP3    H218643   5.614   2.941   0.935
 6234TIP3   OH218644   0.555   1.501   5.363
 6234TIP3    H118645   0.475   1.551   5.382
 6234TIP3    H218646   0.585   1.534   5.279
 6235TIP3   OH218647   7.602   6.864   3.643
 6235TIP3    H118648   7.616   6.920   3.567
 6235TIP3    H218649   7.654   6.904   3.712
 6236TIP3   OH218650   7.956   4.077   1.339
 6236TIP3    H118651   7.968   4.091   1.433
 6236TIP3    H218652   7.921   4.160   1.307
 6237TIP3   OH218653   8.194   5.032   3.220
 6237TIP3    H118654   8.225   4.991   3.139
 6237TIP3    H218655   8.246   5.111   3.229
 6238TIP3   OH218656   6.400   7.227   2.309
 6238TIP3    H118657   6.398   7.140   2.270
 6238TIP3    H218658   6.316   7.266   2.284
 6239TIP3   OH218659   2.401   5.716   3.076
 6239TIP3    H118660   2.315   5.700   3.115
 6239TIP3    H218661   2.400   5.808   3.053
 6240TIP3   OH218662   1.089   2.723   0.168
 6240TIP3    H118663   1.124   2.634   0.164
 6240TIP3    H218664   0.998   2.714   0.139
 6241TIP3   OH218665   5.784   3.032   2.171
 6241TIP3    H118666   5.840   2.982   2.231
 6241TIP3    H218667   5.801   3.124   2.193
 6242TIP3   OH218668   5.915   6.412   0.536
 6242TIP3    H118669   5.914   6.374   0.448
 6242TIP3    H218670   5.824   6.435   0.554
 6243TIP3   OH218671   8.213   4.839   5.886
 6243TIP3    H118672   8.191   4.808   5.799
 6243TIP3    H218673   8.136   4.889   5.914
 6244TIP3   OH218674   7.180   6.141   4.315
 6244TIP3    H118675   7.265   6.180   4.338
 6244TIP3    H218676   7.128   6.149   4.394
 6245TIP3   OH218677   2.167   5.463   2.504
 6245TIP3    H118678   2.162   5.476   2.410
 6245TIP3    H218679   2.079   5.438   2.530
 6246TIP3   OH218680   5.820   5.206   1.193
 6246TIP3    H118681   5.912   5.213   1.221
 6246TIP3    H218682   5.813   5.269   1.121
 6247TIP3   OH218683   5.863   0.314   5.110
 6247TIP3    H118684   5.864   0.281   5.020
 6247TIP3    H218685   5.770   0.322   5.131
 6248TIP3   OH218686   7.917   6.390   1.576
 6248TIP3    H118687   7.878   6.478   1.582
 6248TIP3    H218688   8.009   6.404   1.599
 6249TIP3   OH218689   2.500   0.379   5.815
 6249TIP3    H118690   2.577   0.431   5.790
 6249TIP3    H218691   2.426   0.427   5.780
 6250TIP3   OH218692   6.395   2.603   2.307
 6250TIP3    H118693   6.449   2.675   2.339
 6250TIP3    H218694   6.457   2.533   2.288
 6251TIP3   OH218695   0.644   4.401   5.179
 6251TIP3    H118696   0.586   4.439   5.245
 6251TIP3    H218697   0.627   4.453   5.100
 6252TIP3   OH218698   8.031   4.345   0.660
 6252TIP3    H118699   7.975   4.328   0.736
 6252TIP3    H218700   8.101   4.401   0.693
 6253TIP3   OH218701   0.749   3.150   5.893
 6253TIP3    H118702   0.822   3.193   5.937
 6253TIP3    H218703   0.707   3.220   5.843
 6254TIP3   OH218704   4.974   2.079   3.366
 6254TIP3    H118705   4.950   2.150   3.425
 6254TIP3    H218706   4.952   1.999   3.413
 6255TIP3   OH218707   2.734   4.874   4.732
 6255TIP3    H118708   2.748   4.891   4.638
 6255TIP3    H218709   2.658   4.816   4.735
 6256TIP3   OH218710   7.384   4.129   5.109
 6256TIP3    H118711   7.451   4.197   5.102
 6256TIP3    H218712   7.432   4.048   5.093
 6257TIP3   OH218713   6.453   5.099   5.893
 6257TIP3    H118714   6.416   5.134   5.973
 6257TIP3    H218715   6.418   5.010   5.888
 6258TIP3   OH218716   2.396   0.573   1.022
 6258TIP3    H118717   2.372   0.547   0.933
 6258TIP3    H218718   2.476   0.625   1.012
 6259TIP3   OH218719   4.440   7.774   2.280
 6259TIP3    H118720   4.380   7.705   2.252
 6259TIP3    H218721   4.476   7.742   2.363
 6260TIP3   OH218722   4.936   3.004   0.020
 6260TIP3    H118723   4.901   3.090   0.042
 6260TIP3    H218724   4.891   2.980  -0.061
 6261TIP3   OH218725   1.161   1.028   2.571
 6261TIP3    H118726   1.114   1.000   2.649
 6261TIP3    H218727   1.135   0.966   2.503
 6262TIP3   OH218728   4.809   4.081   6.315
 6262TIP3    H118729   4.762   4.155   6.354
 6262TIP3    H218730   4.756   4.005   6.336
 6263TIP3   OH218731   0.732   7.795   1.927
 6263TIP3    H118732   0.645   7.800   1.888
 6263TIP3    H218733   0.791   7.787   1.852
 6264TIP3   OH218734   7.651   4.306   5.558
 6264TIP3    H118735   7.692   4.258   5.629
 6264TIP3    H218736   7.706   4.289   5.482
 6265TIP3   OH218737   5.312   6.401   1.089
 6265TIP3    H118738   5.305   6.496   1.086
 6265TIP3    H218739   5.240   6.373   1.147
 6266TIP3   OH218740   5.891   6.041   2.040
 6266TIP3    H118741   5.837   5.994   1.978
 6266TIP3    H218742   5.899   6.129   2.004
 6267TIP3   OH218743   2.080   2.642   1.089
 6267TIP3    H118744   2.025   2.679   1.158
 6267TIP3    H218745   2.164   2.625   1.130
 6268TIP3   OH218746   7.099   2.660   1.659
 6268TIP3    H118747   7.103   2.753   1.679
 6268TIP3    H218748   7.182   2.624   1.689
 6269TIP3   OH218749   4.112   2.795   1.594
 6269TIP3    H118750   4.191   2.752   1.627
 6269TIP3    H218751   4.061   2.724   1.555
 6270TIP3   OH218752  -0.008   1.199   2.556
 6270TIP3    H118753  -0.052   1.272   2.513
 6270TIP3    H218754  -0.010   1.129   2.492
 6271TIP3   OH218755   5.852   1.016   0.492
 6271TIP3    H118756   5.929   1.060   0.527
 6271TIP3    H218757   5.779   1.051   0.542
 6272TIP3   OH218758   0.669   4.526   5.660
 6272TIP3    H118759   0.754   4.522   5.616
 6272TIP3    H218760   0.680   4.475   5.740
 6273TIP3   OH218761   2.572   7.771   0.204
 6273TIP3    H118762   2.610   7.765   0.117
 6273TIP3    H218763   2.513   7.846   0.200
 6274TIP3   OH218764   5.019   3.606   5.876
 6274TIP3    H118765   5.093   3.654   5.914
 6274TIP3    H218766   4.974   3.670   5.820
 6275TIP3   OH218767   8.206   1.077   5.938
 6275TIP3    H118768   8.120   1.115   5.954
 6275TIP3    H218769   8.257   1.102   6.015
 6276TIP3   OH218770   1.102   3.021   3.982
 6276TIP3    H118771   1.081   3.022   4.076
 6276TIP3    H218772   1.026   3.063   3.941
 6277TIP3   OH218773   5.737   4.976   6.050
 6277TIP3    H118774   5.742   4.891   6.006
 6277TIP3    H218775   5.647   4.983   6.080
 6278TIP3   OH218776   0.797   5.009   0.348
 6278TIP3    H118777   0.789   4.990   0.442
 6278TIP3    H218778   0.811   5.103   0.343
 6279TIP3   OH218779   3.203   5.099   0.556
 6279TIP3    H118780   3.167   5.023   0.602
 6279TIP3    H218781   3.186   5.172   0.616
 6280TIP3   OH218782   3.601   5.397   4.209
 6280TIP3    H118783   3.653   5.471   4.239
 6280TIP3    H218784   3.598   5.406   4.114
 6281TIP3   OH218785   6.393   4.996   2.404
 6281TIP3    H118786   6.331   5.067   2.386
 6281TIP3    H218787   6.440   4.983   2.321
 6282TIP3   OH218788   4.593   4.954   1.217
 6282TIP3    H118789   4.498   4.968   1.218
 6282TIP3    H218790   4.630   5.042   1.219
 6283TIP3   OH218791   8.203   7.309   1.525
 6283TIP3    H118792   8.138   7.362   1.480
 6283TIP3    H218793   8.180   7.314   1.617
 6284TIP3   OH218794   3.797   7.630   2.397
 6284TIP3    H118795   3.806   7.535   2.383
 6284TIP3    H218796   3.868   7.668   2.346
 6285TIP3   OH218797   3.362   0.575   3.269
 6285TIP3    H118798   3.414   0.562   3.348
 6285TIP3    H218799   3.323   0.489   3.251
 6286TIP3   OH218800   0.694   2.432   6.199
 6286TIP3    H118801   0.768   2.372   6.206
 6286TIP3    H218802   0.617   2.375   6.192
 6287TIP3   OH218803   1.903   7.431   0.542
 6287TIP3    H118804   1.848   7.352   0.532
 6287TIP3    H218805   1.992   7.400   0.524
 6288TIP3   OH218806   0.964   3.280   5.982
 6288TIP3    H118807   1.019   3.346   5.940
 6288TIP3    H218808   0.984   3.288   6.076
 6289TIP3   OH218809   5.798   2.480   1.881
 6289TIP3    H118810   5.800   2.573   1.858
 6289TIP3    H218811   5.834   2.436   1.804
 6290TIP3   OH218812   2.011   3.060   2.817
 6290TIP3    H118813   1.927   3.059   2.863
 6290TIP3    H218814   2.028   2.968   2.797
 6291TIP3   OH218815   6.226   1.368   4.866
 6291TIP3    H118816   6.308   1.323   4.842
 6291TIP3    H218817   6.214   1.433   4.797
 6292TIP3   OH218818   4.586   0.481   5.937
 6292TIP3    H118819   4.590   0.549   6.005
 6292TIP3    H218820   4.637   0.517   5.865
 6293TIP3   OH218821   1.852   0.443   6.269
 6293TIP3    H118822   1.947   0.449   6.259
 6293TIP3    H218823   1.827   0.526   6.309
 6294TIP3   OH218824   5.431   3.991   4.871
 6294TIP3    H118825   5.399   4.077   4.845
 6294TIP3    H218826   5.354   3.934   4.862
 6295TIP3   OH218827   1.044   5.516   0.117
 6295TIP3    H118828   1.014   5.456   0.049
 6295TIP3    H218829   0.968   5.530   0.173
 6296TIP3   OH218830   4.795   1.829   6.305
 6296TIP3    H118831   4.727   1.876   6.256
 6296TIP3    H218832   4.856   1.798   6.238
 6297TIP3   OH218833   0.607   6.399   1.250
 6297TIP3    H118834   0.650   6.483   1.266
 6297TIP3    H218835   0.612   6.388   1.155
 6298TIP3   OH218836   5.068   2.304   1.983
 6298TIP3    H118837   5.144   2.307   2.041
 6298TIP3    H218838   5.052   2.395   1.960
 6299TIP3   OH218839   2.590   7.377   4.650
 6299TIP3    H118840   2.571   7.341   4.737
 6299TIP3    H218841   2.598   7.471   4.665
 6300TIP3   OH218842   6.677   1.560   0.852
 6300TIP3    H118843   6.697   1.474   0.889
 6300TIP3    H218844   6.759   1.589   0.813
 6301TIP3   OH218845   2.549   6.544   1.050
 6301TIP3    H118846   2.563   6.456   1.084
 6301TIP3    H218847   2.455   6.548   1.032
 6302TIP3   OH218848   5.991   4.063   5.247
 6302TIP3    H118849   5.953   4.050   5.334
 6302TIP3    H218850   6.053   3.992   5.236
 6303TIP3   OH218851   7.704   7.146   4.565
 6303TIP3    H118852   7.764   7.220   4.570
 6303TIP3    H218853   7.638   7.165   4.632
 6304TIP3   OH218854   7.963   3.971   3.397
 6304TIP3    H118855   8.026   3.914   3.441
 6304TIP3    H218856   7.899   3.993   3.465
 6305TIP3   OH218857   0.150   2.255   6.702
 6305TIP3    H118858   0.142   2.191   6.631
 6305TIP3    H218859   0.066   2.302   6.701
 6306TIP3   OH218860   2.430   5.059   0.251
 6306TIP3    H118861   2.351   5.037   0.202
 6306TIP3    H218862   2.437   5.154   0.244
 6307TIP3   OH218863   0.989   6.310   5.873
 6307TIP3    H118864   1.081   6.332   5.888
 6307TIP3    H218865   0.940   6.365   5.934
 6308TIP3   OH218866   5.432   1.255   6.439
 6308TIP3    H118867   5.370   1.312   6.394
 6308TIP3    H218868   5.518   1.296   6.424
 6309TIP3   OH218869   8.009   7.335   4.875
 6309TIP3    H118870   7.997   7.283   4.795
 6309TIP3    H218871   8.103   7.331   4.893
 6310TIP3   OH218872   3.967   0.733   6.219
 6310TIP3    H118873   3.953   0.764   6.130
 6310TIP3    H218874   4.053   0.769   6.244
 6311TIP3   OH218875   0.915   2.106   1.280
 6311TIP3    H118876   0.872   2.036   1.231
 6311TIP3    H218877   0.953   2.163   1.213
 6312TIP3   OH218878   0.435   4.450   3.470
 6312TIP3    H118879   0.353   4.499   3.467
 6312TIP3    H218880   0.407   4.358   3.472
 6313TIP3   OH218881   2.547   6.255   5.214
 6313TIP3    H118882   2.558   6.315   5.288
 6313TIP3    H218883   2.590   6.299   5.141
 6314TIP3   OH218884   7.594   5.692   4.850
 6314TIP3    H118885   7.644   5.641   4.914
 6314TIP3    H218886   7.572   5.773   4.896
 6315TIP3   OH218887   3.088   5.305   3.540
 6315TIP3    H118888   3.113   5.265   3.457
 6315TIP3    H218889   3.036   5.382   3.515
 6316TIP3   OH218890   5.279   0.186   3.783
 6316TIP3    H118891   5.201   0.131   3.794
 6316TIP3    H218892   5.340   0.154   3.849
 6317TIP3   OH218893   7.030   4.138   6.708
 6317TIP3    H118894   7.125   4.135   6.719
 6317TIP3    H218895   7.012   4.224   6.671
 6318TIP3   OH218896   7.085   6.894   1.399
 6318TIP3    H118897   7.070   6.843   1.478
 6318TIP3    H218898   7.137   6.837   1.343
 6319TIP3   OH218899   1.823   4.689   4.369
 6319TIP3    H118900   1.858   4.676   4.281
 6319TIP3    H218901   1.744   4.634   4.372
 6320TIP3   OH218902   5.169   4.215   6.142
 6320TIP3    H118903   5.200   4.219   6.052
 6320TIP3    H218904   5.204   4.133   6.176
 6321TIP3   OH218905   1.083   6.530   2.039
 6321TIP3    H118906   1.027   6.595   2.081
 6321TIP3    H218907   1.149   6.508   2.105
 6322TIP3   OH218908   0.317   6.231   4.707
 6322TIP3    H118909   0.286   6.256   4.793
 6322TIP3    H218910   0.278   6.295   4.647
 6323TIP3   OH218911   6.388   5.080   1.026
 6323TIP3    H118912   6.467   5.026   1.024
 6323TIP3    H218913   6.381   5.109   1.117
 6324TIP3   OH218914   2.829   4.018   4.119
 6324TIP3    H118915   2.842   4.011   4.214
 6324TIP3    H218916   2.778   3.941   4.096
 6325TIP3   OH218917   5.434   6.385   1.915
 6325TIP3    H118918   5.512   6.373   1.861
 6325TIP3    H218919   5.391   6.462   1.880
 6326TIP3   OH218920   1.695   7.041   5.341
 6326TIP3    H118921   1.707   6.976   5.411
 6326TIP3    H218922   1.775   7.093   5.343
 6327TIP3   OH218923   0.292   0.979   2.587
 6327TIP3    H118924   0.348   0.916   2.541
 6327TIP3    H218925   0.230   0.924   2.636
 6328TIP3   OH218926   2.779   1.904   0.552
 6328TIP3    H118927   2.692   1.877   0.523
 6328TIP3    H218928   2.788   1.994   0.519
 6329TIP3   OH218929   0.286   6.706   4.864
 6329TIP3    H118930   0.271   6.733   4.774
 6329TIP3    H218931   0.379   6.722   4.879
 6330TIP3   OH218932   0.882   6.192   4.457
 6330TIP3    H118933   0.914   6.134   4.388
 6330TIP3    H218934   0.877   6.278   4.415
 6331TIP3   OH218935   6.227   1.176   3.143
 6331TIP3    H118936   6.249   1.258   3.187
 6331TIP3    H218937   6.190   1.121   3.212
 6332TIP3   OH218938   3.752   5.536   1.883
 6332TIP3    H118939   3.703   5.460   1.917
 6332TIP3    H218940   3.843   5.518   1.907
 6333TIP3   OH218941   1.338   7.712   0.322
 6333TIP3    H118942   1.357   7.805   0.311
 6333TIP3    H218943   1.274   7.692   0.253
 6334TIP3   OH218944   1.551   0.872   2.525
 6334TIP3    H118945   1.591   0.793   2.560
 6334TIP3    H218946   1.622   0.915   2.477
 6335TIP3   OH218947   1.567   1.107   4.519
 6335TIP3    H118948   1.529   1.039   4.463
 6335TIP3    H218949   1.643   1.138   4.471
 6336TIP3   OH218950   1.295   2.957   5.793
 6336TIP3    H118951   1.254   2.953   5.706
 6336TIP3    H218952   1.388   2.942   5.775
 6337TIP3   OH218953   1.658   4.020   2.702
 6337TIP3    H118954   1.670   3.926   2.717
 6337TIP3    H218955   1.646   4.028   2.608
 6338TIP3   OH218956   5.187   0.350   5.025
 6338TIP3    H118957   5.227   0.328   5.109
 6338TIP3    H218958   5.152   0.438   5.037
 6339TIP3   OH218959   1.965   3.026   4.548
 6339TIP3    H118960   1.924   2.944   4.574
 6339TIP3    H218961   1.908   3.061   4.479
 6340TIP3   OH218962   5.335   1.728   2.489
 6340TIP3    H118963   5.292   1.712   2.573
 6340TIP3    H218964   5.271   1.778   2.438
 6341TIP3   OH218965   7.372   0.189   6.349
 6341TIP3    H118966   7.375   0.110   6.404
 6341TIP3    H218967   7.430   0.170   6.276
 6342TIP3   OH218968   6.074   7.528   4.032
 6342TIP3    H118969   6.110   7.495   3.950
 6342TIP3    H218970   6.069   7.450   4.088
 6343TIP3   OH218971   4.800   6.938   1.181
 6343TIP3    H118972   4.705   6.929   1.183
 6343TIP3    H218973   4.829   6.869   1.121
 6344TIP3   OH218974   6.820   4.765   1.132
 6344TIP3    H118975   6.882   4.692   1.131
 6344TIP3    H218976   6.874   4.843   1.122
 6345TIP3   OH218977   7.961   1.194   3.990
 6345TIP3    H118978   8.037   1.140   3.970
 6345TIP3    H218979   7.991   1.253   4.060
 6346TIP3   OH218980   1.832   2.192   1.427
 6346TIP3    H118981   1.817   2.221   1.517
 6346TIP3    H218982   1.777   2.250   1.374
 6347TIP3   OH218983   6.821   6.478   1.853
 6347TIP3    H118984   6.909   6.446   1.835
 6347TIP3    H218985   6.764   6.425   1.798
 6348TIP3   OH218986   1.257   0.062   3.837
 6348TIP3    H118987   1.167   0.059   3.869
 6348TIP3    H218988   1.252   0.032   3.746
 6349TIP3   OH218989   0.558   0.946   6.521
 6349TIP3    H118990   0.562   0.865   6.469
 6349TIP3    H218991   0.591   0.921   6.607
 6350TIP3   OH218992   6.721   4.780   0.169
 6350TIP3    H118993   6.715   4.782   0.265
 6350TIP3    H218994   6.798   4.833   0.149
 6351TIP3   OH218995   5.449   0.650   3.893
 6351TIP3    H118996   5.409   0.640   3.979
 6351TIP3    H218997   5.379   0.683   3.837
 6352TIP3   OH218998   7.032   5.994   4.157
 6352TIP3    H118999   7.099   6.041   4.206
 6352TIP3    H219000   6.973   6.062   4.124
 6353TIP3   OH219001   1.788   0.634   0.148
 6353TIP3    H119002   1.822   0.548   0.176
 6353TIP3    H219003   1.867   0.687   0.134
 6354TIP3   OH219004   4.082   4.312   1.262
 6354TIP3    H119005   4.020   4.364   1.211
 6354TIP3    H219006   4.027   4.255   1.316
 6355TIP3   OH219007   1.899   5.918   5.754
 6355TIP3    H119008   1.922   5.891   5.665
 6355TIP3    H219009   1.978   5.902   5.805
 6356TIP3   OH219010   4.736   1.256   3.403
 6356TIP3    H119011   4.755   1.220   3.489
 6356TIP3    H219012   4.641   1.244   3.392
 6357TIP3   OH219013   5.785   6.909   2.291
 6357TIP3    H119014   5.852   6.948   2.347
 6357TIP3    H219015   5.777   6.970   2.218
 6358TIP3   OH219016   2.839   7.119   2.045
 6358TIP3    H119017   2.924   7.158   2.066
 6358TIP3    H219018   2.804   7.091   2.129
 6359TIP3   OH219019   2.225   1.160   1.977
 6359TIP3    H119020   2.228   1.211   2.058
 6359TIP3    H219021   2.195   1.223   1.911
 6360TIP3   OH219022   8.269   1.271   5.751
 6360TIP3    H119023   8.255   1.240   5.662
 6360TIP3    H219024   8.275   1.192   5.804
 6361TIP3   OH219025   3.110   1.932   5.409
 6361TIP3    H119026   3.164   2.006   5.434
 6361TIP3    H219027   3.119   1.926   5.314
 6362TIP3   OH219028   5.136   1.141   5.228
 6362TIP3    H119029   5.209   1.195   5.197
 6362TIP3    H219030   5.073   1.204   5.264
 6363TIP3   OH219031   1.524   6.584   3.234
 6363TIP3    H119032   1.578   6.650   3.280
 6363TIP3    H219033   1.577   6.505   3.236
 6364TIP3   OH219034   2.187   6.794   4.693
 6364TIP3    H119035   2.118   6.819   4.632
 6364TIP3    H219036   2.209   6.705   4.668
 6365TIP3   OH219037   3.516   3.117   4.185
 6365TIP3    H119038   3.446   3.167   4.142
 6365TIP3    H219039   3.561   3.182   4.240
 6366TIP3   OH219040   4.117   2.679   4.208
 6366TIP3    H119041   4.078   2.592   4.203
 6366TIP3    H219042   4.138   2.691   4.300
 6367TIP3   OH219043   0.509   7.694   1.108
 6367TIP3    H119044   0.438   7.733   1.158
 6367TIP3    H219045   0.583   7.693   1.168
 6368TIP3   OH219046   6.256   2.051   1.446
 6368TIP3    H119047   6.172   2.092   1.468
 6368TIP3    H219048   6.281   2.093   1.363
 6369TIP3   OH219049   4.685   0.857   5.448
 6369TIP3    H119050   4.693   0.912   5.526
 6369TIP3    H219051   4.767   0.871   5.400
 6370TIP3   OH219052   7.942   0.141   3.861
 6370TIP3    H119053   7.882   0.067   3.865
 6370TIP3    H219054   7.944   0.166   3.769
 6371TIP3   OH219055   1.413   3.657   2.762
 6371TIP3    H119056   1.364   3.675   2.842
 6371TIP3    H219057   1.497   3.700   2.775
 6372TIP3   OH219058   1.196   1.698   3.524
 6372TIP3    H119059   1.248   1.736   3.454
 6372TIP3    H219060   1.212   1.604   3.517
 6373TIP3   OH219061   7.020   4.827   5.042
 6373TIP3    H119062   7.088   4.776   5.086
 6373TIP3    H219063   7.002   4.780   4.961
 6374TIP3   OH219064   0.326   0.212   5.934
 6374TIP3    H119065   0.404   0.265   5.916
 6374TIP3    H219066   0.274   0.265   5.993
 6375TIP3   OH219067   5.078   6.919   5.355
 6375TIP3    H119068   5.050   6.828   5.345
 6375TIP3    H219069   5.111   6.944   5.269
 6376TIP3   OH219070   0.266   6.769   1.844
 6376TIP3    H119071   0.260   6.845   1.786
 6376TIP3    H219072   0.196   6.782   1.908
 6377TIP3   OH219073   4.573   7.348   3.889
 6377TIP3    H119074   4.508   7.396   3.941
 6377TIP3    H219075   4.524   7.320   3.811
 6378TIP3   OH219076   5.267   0.266   2.084
 6378TIP3    H119077   5.261   0.170   2.076
 6378TIP3    H219078   5.250   0.283   2.177
 6379TIP3   OH219079   4.964   4.214   3.531
 6379TIP3    H119080   5.021   4.220   3.607
 6379TIP3    H219081   4.931   4.124   3.532
 6380TIP3   OH219082   5.402   4.438   4.659
 6380TIP3    H119083   5.332   4.375   4.646
 6380TIP3    H219084   5.443   4.447   4.574
 6381TIP3   OH219085   6.171   3.377   3.107
 6381TIP3    H119086   6.192   3.423   3.027
 6381TIP3    H219087   6.223   3.297   3.103
 6382TIP3   OH219088   2.906   1.282   3.096
 6382TIP3    H119089   2.979   1.297   3.156
 6382TIP3    H219090   2.843   1.350   3.118
 6383TIP3   OH219091   6.509   1.632   1.039
 6383TIP3    H119092   6.585   1.622   0.981
 6383TIP3    H219093   6.434   1.613   0.983
 6384TIP3   OH219094   3.783   6.193   6.409
 6384TIP3    H119095   3.814   6.159   6.493
 6384TIP3    H219096   3.758   6.283   6.427
 6385TIP3   OH219097   1.060   3.982   2.631
 6385TIP3    H119098   1.142   3.949   2.594
 6385TIP3    H219099   1.003   3.906   2.635
 6386TIP3   OH219100   0.523   4.300   1.175
 6386TIP3    H119101   0.577   4.242   1.122
 6386TIP3    H219102   0.572   4.382   1.178
 6387TIP3   OH219103   5.088   3.132   6.564
 6387TIP3    H119104   5.008   3.130   6.511
 6387TIP3    H219105   5.140   3.059   6.532
 6388TIP3   OH219106   0.093   1.579   3.799
 6388TIP3    H119107   0.150   1.649   3.829
 6388TIP3    H219108   0.151   1.503   3.788
 6389TIP3   OH219109   4.537   0.862   2.283
 6389TIP3    H119110   4.603   0.927   2.259
 6389TIP3    H219111   4.515   0.817   2.202
 6390TIP3   OH219112   1.323   5.017   3.190
 6390TIP3    H119113   1.330   5.111   3.210
 6390TIP3    H219114   1.278   4.980   3.266
 6391TIP3   OH219115   3.727   7.099   3.509
 6391TIP3    H119116   3.750   7.082   3.418
 6391TIP3    H219117   3.808   7.083   3.558
 6392TIP3   OH219118   6.570   7.227   5.147
 6392TIP3    H119119   6.633   7.265   5.086
 6392TIP3    H219120   6.600   7.254   5.234
 6393TIP3   OH219121   3.412   4.439   2.478
 6393TIP3    H119122   3.489   4.407   2.525
 6393TIP3    H219123   3.425   4.534   2.473
 6394TIP3   OH219124   6.786   7.397   0.730
 6394TIP3    H119125   6.757   7.305   0.728
 6394TIP3    H219126   6.748   7.436   0.652
 6395TIP3   OH219127   6.383   6.931   1.280
 6395TIP3    H119128   6.391   6.897   1.191
 6395TIP3    H219129   6.332   7.011   1.271
 6396TIP3   OH219130   5.314   2.182   5.430
 6396TIP3    H119131   5.272   2.268   5.436
 6396TIP3    H219132   5.321   2.152   5.520
 6397TIP3   OH219133   1.315   6.226   4.142
 6397TIP3    H119134   1.386   6.215   4.206
 6397TIP3    H219135   1.252   6.158   4.165
 6398TIP3   OH219136   2.004   7.528   0.169
 6398TIP3    H119137   1.960   7.458   0.121
 6398TIP3    H219138   2.096   7.501   0.170
 6399TIP3   OH219139   1.889   0.486   0.725
 6399TIP3    H119140   1.808   0.503   0.677
 6399TIP3    H219141   1.874   0.526   0.811
 6400TIP3   OH219142   7.693   4.654   0.891
 6400TIP3    H119143   7.749   4.719   0.933
 6400TIP3    H219144   7.719   4.571   0.931
 6401TIP3   OH219145   5.718   3.814   4.826
 6401TIP3    H119146   5.692   3.873   4.897
 6401TIP3    H219147   5.743   3.733   4.871
 6402TIP3   OH219148   1.865   3.770   0.861
 6402TIP3    H119149   1.852   3.676   0.871
 6402TIP3    H219150   1.941   3.790   0.916
 6403TIP3   OH219151   0.461   4.244   6.219
 6403TIP3    H119152   0.546   4.201   6.232
 6403TIP3    H219153   0.480   4.337   6.226
 6404TIP3   OH219154   4.185   2.112   1.775
 6404TIP3    H119155   4.107   2.078   1.819
 6404TIP3    H219156   4.195   2.057   1.698
 6405TIP3   OH219157   8.115   4.387   2.438
 6405TIP3    H119158   8.195   4.341   2.463
 6405TIP3    H219159   8.048   4.356   2.499
 6406TIP3   OH219160   7.339   4.441   6.343
 6406TIP3    H119161   7.288   4.396   6.275
 6406TIP3    H219162   7.331   4.384   6.420
 6407TIP3   OH219163   1.923   0.605   4.871
 6407TIP3    H119164   1.891   0.680   4.822
 6407TIP3    H219165   1.991   0.567   4.816
 6408TIP3   OH219166   3.506   3.542   0.400
 6408TIP3    H119167   3.464   3.589   0.328
 6408TIP3    H219168   3.599   3.566   0.393
 6409TIP3   OH219169   0.499   0.324   6.184
 6409TIP3    H119170   0.553   0.337   6.261
 6409TIP3    H219171   0.464   0.411   6.163
 6410TIP3   OH219172   6.360   1.778   0.040
 6410TIP3    H119173   6.452   1.797   0.060
 6410TIP3    H219174   6.362   1.693  -0.003
 6411TIP3   OH219175   0.766   7.170   1.092
 6411TIP3    H119176   0.799   7.099   1.036
 6411TIP3    H219177   0.732   7.235   1.030
 6412TIP3   OH219178   0.034   4.003   4.852
 6412TIP3    H119179   0.115   3.952   4.860
 6412TIP3    H219180  -0.008   3.994   4.937
 6413TIP3   OH219181   2.729   6.742   1.112
 6413TIP3    H119182   2.767   6.770   1.028
 6413TIP3    H219183   2.652   6.691   1.087
 6414TIP3   OH219184   5.599   0.151   4.810
 6414TIP3    H119185   5.618   0.178   4.720
 6414TIP3    H219186   5.664   0.083   4.828
 6415TIP3   OH219187   3.020   2.007   0.210
 6415TIP3    H119188   3.045   2.019   0.301
 6415TIP3    H219189   3.080   1.940   0.177
 6416TIP3   OH219190   0.170   5.406   1.716
 6416TIP3    H119191   0.131   5.342   1.776
 6416TIP3    H219192   0.180   5.359   1.634
 6417TIP3   OH219193   5.006   4.165   2.363
 6417TIP3    H119194   4.981   4.249   2.402
 6417TIP3    H219195   5.026   4.186   2.272
 6418TIP3   OH219196   3.498   1.261   6.374
 6418TIP3    H119197   3.563   1.293   6.311
 6418TIP3    H219198   3.413   1.283   6.334
 6419TIP3   OH219199   1.638   6.907   6.750
 6419TIP3    H119200   1.551   6.919   6.787
 6419TIP3    H219201   1.628   6.930   6.658
 6420TIP3   OH219202   0.631   6.131   3.833
 6420TIP3    H119203   0.576   6.209   3.841
 6420TIP3    H219204   0.617   6.102   3.742
 6421TIP3   OH219205   2.929   3.897   3.364
 6421TIP3    H119206   2.900   3.952   3.437
 6421TIP3    H219207   2.994   3.838   3.404
 6422TIP3   OH219208   3.262   6.268   5.932
 6422TIP3    H119209   3.203   6.343   5.945
 6422TIP3    H219210   3.334   6.303   5.880
 6423TIP3   OH219211   5.899   5.855   1.383
 6423TIP3    H119212   5.893   5.851   1.287
 6423TIP3    H219213   5.809   5.869   1.412
 6424TIP3   OH219214   4.556   3.420   3.453
 6424TIP3    H119215   4.594   3.478   3.520
 6424TIP3    H219216   4.531   3.479   3.382
 6425TIP3   OH219217   1.456   4.645   0.354
 6425TIP3    H119218   1.402   4.639   0.275
 6425TIP3    H219219   1.526   4.582   0.340
 6426TIP3   OH219220   6.526   4.684   3.145
 6426TIP3    H119221   6.509   4.629   3.068
 6426TIP3    H219222   6.530   4.773   3.109
 6427TIP3   OH219223   5.478   0.380   1.618
 6427TIP3    H119224   5.469   0.355   1.526
 6427TIP3    H219225   5.409   0.445   1.631
 6428TIP3   OH219226   1.488   2.718   6.355
 6428TIP3    H119227   1.569   2.684   6.393
 6428TIP3    H219228   1.504   2.713   6.260
 6429TIP3   OH219229   3.110   0.356   5.508
 6429TIP3    H119230   3.122   0.380   5.416
 6429TIP3    H219231   3.121   0.439   5.556
 6430TIP3   OH219232   0.408   4.318   4.963
 6430TIP3    H119233   0.460   4.398   4.976
 6430TIP3    H219234   0.361   4.332   4.881
 6431TIP3   OH219235   5.591   1.251   4.068
 6431TIP3    H119236   5.671   1.201   4.085
 6431TIP3    H219237   5.526   1.214   4.129
 6432TIP3   OH219238   4.102   3.301   5.118
 6432TIP3    H119239   4.043   3.359   5.166
 6432TIP3    H219240   4.048   3.264   5.049
 6433TIP3   OH219241   7.339   2.313   5.421
 6433TIP3    H119242   7.382   2.306   5.335
 6433TIP3    H219243   7.394   2.261   5.479
 6434TIP3   OH219244   5.045   0.707   1.498
 6434TIP3    H119245   4.994   0.685   1.419
 6434TIP3    H219246   5.082   0.793   1.479
 6435TIP3   OH219247   8.072   6.257   5.470
 6435TIP3    H119248   8.091   6.176   5.424
 6435TIP3    H219249   8.088   6.237   5.562
 6436TIP3   OH219250   3.218   0.511   2.210
 6436TIP3    H119251   3.244   0.428   2.250
 6436TIP3    H219252   3.152   0.546   2.270
 6437TIP3   OH219253   4.103   6.348   6.420
 6437TIP3    H119254   4.073   6.394   6.498
 6437TIP3    H219255   4.131   6.262   6.451
 6438TIP3   OH219256   6.664   7.536   4.579
 6438TIP3    H119257   6.633   7.579   4.499
 6438TIP3    H219258   6.669   7.443   4.557
 6439TIP3   OH219259   7.136   6.554   5.018
 6439TIP3    H119260   7.202   6.493   5.051
 6439TIP3    H219261   7.180   6.639   5.017
 6440TIP3   OH219262   5.542   6.734   1.773
 6440TIP3    H119263   5.600   6.811   1.779
 6440TIP3    H219264   5.482   6.754   1.701
 6441TIP3   OH219265   3.098   1.682   3.126
 6441TIP3    H119266   3.082   1.615   3.192
 6441TIP3    H219267   3.190   1.670   3.103
 6442TIP3   OH219268   6.204   7.094   2.565
 6442TIP3    H119269   6.207   7.184   2.595
 6442TIP3    H219270   6.233   7.098   2.474
 6443TIP3   OH219271   3.590   0.745   3.260
 6443TIP3    H119272   3.544   0.693   3.325
 6443TIP3    H219273   3.567   0.706   3.176
 6444TIP3   OH219274   6.982   4.083   1.127
 6444TIP3    H119275   6.968   3.994   1.159
 6444TIP3    H219276   6.924   4.137   1.179
 6445TIP3   OH219277   0.663   6.025   1.624
 6445TIP3    H119278   0.693   6.104   1.579
 6445TIP3    H219279   0.612   6.057   1.698
 6446TIP3   OH219280   3.171   2.741   4.037
 6446TIP3    H119281   3.220   2.778   3.964
 6446TIP3    H219282   3.121   2.669   3.999
 6447TIP3   OH219283   1.653   5.608   4.331
 6447TIP3    H119284   1.567   5.645   4.312
 6447TIP3    H219285   1.707   5.683   4.356
 6448TIP3   OH219286   2.686   3.966   0.957
 6448TIP3    H119287   2.781   3.971   0.944
 6448TIP3    H219288   2.651   4.033   0.898
 6449TIP3   OH219289   0.042   6.740   2.338
 6449TIP3    H119290  -0.006   6.790   2.271
 6449TIP3    H219291   0.103   6.803   2.376
 6450TIP3   OH219292   4.316   4.237   0.576
 6450TIP3    H119293   4.389   4.270   0.629
 6450TIP3    H219294   4.254   4.203   0.641
 6451TIP3   OH219295   3.654   3.984   5.914
 6451TIP3    H119296   3.729   4.021   5.868
 6451TIP3    H219297   3.692   3.928   5.982
 6452TIP3   OH219298   1.489   4.321   5.124
 6452TIP3    H119299   1.440   4.371   5.189
 6452TIP3    H219300   1.423   4.273   5.074
 6453TIP3   OH219301   2.474   2.390   5.507
 6453TIP3    H119302   2.425   2.439   5.573
 6453TIP3    H219303   2.475   2.447   5.430
 6454TIP3   OH219304   1.295   7.736   5.599
 6454TIP3    H119305   1.326   7.804   5.659
 6454TIP3    H219306   1.330   7.654   5.635
 6455TIP3   OH219307   1.402   5.431   5.506
 6455TIP3    H119308   1.380   5.497   5.439
 6455TIP3    H219309   1.460   5.477   5.566
 6456TIP3   OH219310   4.642   1.074   1.461
 6456TIP3    H119311   4.603   0.987   1.456
 6456TIP3    H219312   4.698   1.070   1.539
 6457TIP3   OH219313   0.819   5.988   0.231
 6457TIP3    H119314   0.861   5.904   0.210
 6457TIP3    H219315   0.883   6.033   0.286
 6458TIP3   OH219316   1.578   1.447   2.528
 6458TIP3    H119317   1.578   1.395   2.448
 6458TIP3    H219318   1.521   1.522   2.509
 6459TIP3   OH219319   2.655   5.401   4.818
 6459TIP3    H119320   2.677   5.314   4.785
 6459TIP3    H219321   2.560   5.409   4.803
 6460TIP3   OH219322   5.660   7.501   3.575
 6460TIP3    H119323   5.612   7.476   3.496
 6460TIP3    H219324   5.730   7.436   3.582
 6461TIP3   OH219325   0.088   5.709   1.630
 6461TIP3    H119326   0.073   5.634   1.688
 6461TIP3    H219327   0.003   5.753   1.625
 6462TIP3   OH219328   5.864   0.333   1.072
 6462TIP3    H119329   5.792   0.310   1.014
 6462TIP3    H219330   5.927   0.262   1.062
 6463TIP3   OH219331   5.810   3.521   5.834
 6463TIP3    H119332   5.801   3.592   5.770
 6463TIP3    H219333   5.899   3.530   5.868
 6464TIP3   OH219334   5.647   6.979   3.600
 6464TIP3    H119335   5.623   7.050   3.659
 6464TIP3    H219336   5.649   7.020   3.513
 6465TIP3   OH219337   0.426   0.610   1.023
 6465TIP3    H119338   0.370   0.652   0.957
 6465TIP3    H219339   0.375   0.535   1.054
 6466TIP3   OH219340   2.871   0.056   2.797
 6466TIP3    H119341   2.936   0.016   2.740
 6466TIP3    H219342   2.900   0.146   2.807
 6467TIP3   OH219343   5.436   6.384   3.023
 6467TIP3    H119344   5.429   6.291   3.001
 6467TIP3    H219345   5.471   6.385   3.112
 6468TIP3   OH219346   5.063   0.309   0.969
 6468TIP3    H119347   5.028   0.225   0.997
 6468TIP3    H219348   5.021   0.373   1.027
 6469TIP3   OH219349   4.123   5.716   4.688
 6469TIP3    H119350   4.069   5.740   4.764
 6469TIP3    H219351   4.066   5.730   4.613
 6470TIP3   OH219352   6.566   2.662   4.909
 6470TIP3    H119353   6.559   2.588   4.970
 6470TIP3    H219354   6.610   2.626   4.832
 6471TIP3   OH219355   3.770   1.023   0.390
 6471TIP3    H119356   3.734   0.949   0.440
 6471TIP3    H219357   3.770   1.096   0.453
 6472TIP3   OH219358   3.541   6.864  -0.036
 6472TIP3    H119359   3.612   6.805  -0.011
 6472TIP3    H219360   3.541   6.932   0.031
 6473TIP3   OH219361   1.268   5.183   5.983
 6473TIP3    H119362   1.175   5.167   5.969
 6473TIP3    H219363   1.303   5.202   5.896
 6474TIP3   OH219364   4.495   2.716   2.949
 6474TIP3    H119365   4.407   2.705   2.915
 6474TIP3    H219366   4.505   2.644   3.012
 6475TIP3   OH219367   1.710   1.508   4.302
 6475TIP3    H119368   1.721   1.552   4.386
 6475TIP3    H219369   1.615   1.496   4.293
 6476TIP3   OH219370   2.075   2.845   6.513
 6476TIP3    H119371   2.039   2.900   6.444
 6476TIP3    H219372   2.166   2.830   6.487
 6477TIP3   OH219373   7.876   0.587   2.623
 6477TIP3    H119374   7.846   0.562   2.710
 6477TIP3    H219375   7.958   0.634   2.638
 6478TIP3   OH219376   0.996   3.797   5.625
 6478TIP3    H119377   1.025   3.768   5.539
 6478TIP3    H219378   0.940   3.873   5.606
 6479TIP3   OH219379   2.194   4.460   4.141
 6479TIP3    H119380   2.128   4.468   4.073
 6479TIP3    H219381   2.234   4.374   4.126
 6480TIP3   OH219382   1.028   1.977   5.766
 6480TIP3    H119383   0.994   2.066   5.775
 6480TIP3    H219384   1.068   1.959   5.851
 6481TIP3   OH219385   3.688   1.185   3.431
 6481TIP3    H119386   3.713   1.212   3.342
 6481TIP3    H219387   3.595   1.163   3.424
 6482TIP3   OH219388   7.928   7.787   6.423
 6482TIP3    H119389   7.889   7.716   6.373
 6482TIP3    H219390   7.979   7.743   6.491
 6483TIP3   OH219391   7.161   0.706   1.087
 6483TIP3    H119392   7.115   0.718   1.005
 6483TIP3    H219393   7.147   0.613   1.109
 6484TIP3   OH219394   5.658   7.895   1.627
 6484TIP3    H119395   5.621   7.868   1.543
 6484TIP3    H219396   5.752   7.904   1.611
 6485TIP3   OH219397   5.730   1.784   6.120
 6485TIP3    H119398   5.636   1.791   6.141
 6485TIP3    H219399   5.732   1.746   6.032
 6486TIP3   OH219400   3.555   0.882   4.399
 6486TIP3    H119401   3.590   0.799   4.365
 6486TIP3    H219402   3.463   0.881   4.375
 6487TIP3   OH219403   3.743   4.909   3.679
 6487TIP3    H119404   3.824   4.957   3.698
 6487TIP3    H219405   3.708   4.886   3.765
 6488TIP3   OH219406   0.706   6.931   6.674
 6488TIP3    H119407   0.614   6.944   6.652
 6488TIP3    H219408   0.750   6.918   6.590
 6489TIP3   OH219409   3.927   1.666   1.563
 6489TIP3    H119410   3.949   1.626   1.647
 6489TIP3    H219411   4.011   1.695   1.527
 6490TIP3   OH219412   2.052   4.867   1.147
 6490TIP3    H119413   2.073   4.775   1.164
 6490TIP3    H219414   2.128   4.901   1.100
 6491TIP3   OH219415   3.746   4.429   4.461
 6491TIP3    H119416   3.654   4.454   4.466
 6491TIP3    H219417   3.754   4.356   4.522
 6492TIP3   OH219418   5.590   4.400   1.517
 6492TIP3    H119419   5.516   4.428   1.463
 6492TIP3    H219420   5.571   4.436   1.604
 6493TIP3   OH219421   2.102   0.699   6.372
 6493TIP3    H119422   2.091   0.791   6.397
 6493TIP3    H219423   2.029   0.653   6.414
 6494TIP3   OH219424   1.771   1.952   6.043
 6494TIP3    H119425   1.862   1.974   6.065
 6494TIP3    H219426   1.728   2.037   6.034
 6495TIP3   OH219427   2.130   2.836   4.723
 6495TIP3    H119428   2.165   2.752   4.693
 6495TIP3    H219429   2.038   2.835   4.696
 6496TIP3   OH219430   2.779   6.580   0.105
 6496TIP3    H119431   2.759   6.556   0.196
 6496TIP3    H219432   2.722   6.525   0.053
 6497TIP3   OH219433   5.901   0.990   5.089
 6497TIP3    H119434   5.820   0.939   5.100
 6497TIP3    H219435   5.904   1.047   5.166
 6498TIP3   OH219436   1.866   4.784   5.716
 6498TIP3    H119437   1.864   4.841   5.793
 6498TIP3    H219438   1.873   4.696   5.752
 6499TIP3   OH219439   4.312   3.602   5.608
 6499TIP3    H119440   4.294   3.696   5.618
 6499TIP3    H219441   4.359   3.578   5.687
 6500TIP3   OH219442   0.126   5.467   5.913
 6500TIP3    H119443   0.215   5.499   5.933
 6500TIP3    H219444   0.120   5.384   5.960
 6501TIP3   OH219445   2.158   1.412   3.155
 6501TIP3    H119446   2.198   1.365   3.228
 6501TIP3    H219447   2.228   1.467   3.120
 6502TIP3   OH219448   4.931   7.128   5.584
 6502TIP3    H119449   4.998   7.073   5.625
 6502TIP3    H219450   4.871   7.066   5.543
 6503TIP3   OH219451   6.907   0.088   3.988
 6503TIP3    H119452   6.966   0.013   3.983
 6503TIP3    H219453   6.954   0.151   4.043
 6504TIP3   OH219454   4.934   0.395   4.371
 6504TIP3    H119455   4.848   0.425   4.342
 6504TIP3    H219456   4.974   0.473   4.411
 6505TIP3   OH219457   2.959   7.176   1.195
 6505TIP3    H119458   3.040   7.143   1.155
 6505TIP3    H219459   2.903   7.099   1.202
 6506TIP3   OH219460   2.177   0.900   1.041
 6506TIP3    H119461   2.117   0.969   1.069
 6506TIP3    H219462   2.229   0.942   0.972
 6507TIP3   OH219463   1.062   3.953   0.238
 6507TIP3    H119464   0.989   3.892   0.249
 6507TIP3    H219465   1.082   3.951   0.144
 6508TIP3   OH219466   5.132   3.745   1.627
 6508TIP3    H119467   5.061   3.804   1.651
 6508TIP3    H219468   5.212   3.791   1.653
 6509TIP3   OH219469   3.850   4.691   5.898
 6509TIP3    H119470   3.853   4.702   5.803
 6509TIP3    H219471   3.807   4.770   5.930
 6510TIP3   OH219472   5.256   3.799  -0.110
 6510TIP3    H119473   5.259   3.782  -0.016
 6510TIP3    H219474   5.266   3.894  -0.117
 6511TIP3   OH219475   7.991   3.167   0.011
 6511TIP3    H119476   7.970   3.081   0.046
 6511TIP3    H219477   8.085   3.165  -0.005
 6512TIP3   OH219478   3.085   6.771   3.701
 6512TIP3    H119479   2.990   6.784   3.694
 6512TIP3    H219480   3.117   6.772   3.611
 6513TIP3   OH219481   4.550   6.131   0.382
 6513TIP3    H119482   4.490   6.064   0.415
 6513TIP3    H219483   4.636   6.090   0.385
 6514TIP3   OH219484   5.026   0.175   5.221
 6514TIP3    H119485   5.035   0.265   5.250
 6514TIP3    H219486   5.022   0.180   5.126
 6515TIP3   OH219487   4.890   7.235   5.071
 6515TIP3    H119488   4.930   7.316   5.103
 6515TIP3    H219489   4.963   7.186   5.032
 6516TIP3   OH219490   6.610   0.660   1.552
 6516TIP3    H119491   6.703   0.682   1.545
 6516TIP3    H219492   6.599   0.586   1.493
 6517TIP3   OH219493   8.094   6.616   4.429
 6517TIP3    H119494   8.184   6.647   4.434
 6517TIP3    H219495   8.042   6.695   4.413
 6518TIP3   OH219496   3.818   1.933   4.280
 6518TIP3    H119497   3.789   1.968   4.364
 6518TIP3    H219498   3.793   1.840   4.282
 6519TIP3   OH219499   1.983   7.102   1.392
 6519TIP3    H119500   1.888   7.111   1.402
 6519TIP3    H219501   2.012   7.186   1.356
 6520TIP3   OH219502   3.182   7.829   3.911
 6520TIP3    H119503   3.244   7.902   3.908
 6520TIP3    H219504   3.137   7.832   3.826
 6521TIP3   OH219505   5.863   3.268   2.319
 6521TIP3    H119506   5.833   3.325   2.248
 6521TIP3    H219507   5.887   3.327   2.389
 6522TIP3   OH219508   2.510   4.667   0.864
 6522TIP3    H119509   2.568   4.613   0.811
 6522TIP3    H219510   2.434   4.612   0.881
 6523TIP3   OH219511   0.129   3.729   5.717
 6523TIP3    H119512   0.071   3.771   5.653
 6523TIP3    H219513   0.175   3.662   5.666
 6524TIP3   OH219514   5.013   6.804   3.268
 6524TIP3    H119515   4.991   6.863   3.340
 6524TIP3    H219516   4.984   6.851   3.190
 6525TIP3   OH219517   1.487   2.246   1.703
 6525TIP3    H119518   1.460   2.162   1.739
 6525TIP3    H219519   1.564   2.225   1.651
 6526TIP3   OH219520   1.625   6.178   0.629
 6526TIP3    H119521   1.605   6.118   0.700
 6526TIP3    H219522   1.712   6.152   0.598
 6527TIP3   OH219523   5.911   2.980   4.668
 6527TIP3    H119524   5.878   3.064   4.700
 6527TIP3    H219525   6.003   2.996   4.648
 6528TIP3   OH219526   0.999   4.534   4.353
 6528TIP3    H119527   1.039   4.592   4.419
 6528TIP3    H219528   0.906   4.534   4.375
 6529TIP3   OH219529   4.683   4.210   4.876
 6529TIP3    H119530   4.604   4.187   4.828
 6529TIP3    H219531   4.724   4.279   4.823
 6530TIP3   OH219532   7.895   5.011   1.180
 6530TIP3    H119533   7.959   5.036   1.247
 6530TIP3    H219534   7.810   5.029   1.220
 6531TIP3   OH219535   4.938   7.138   1.041
 6531TIP3    H119536   4.897   7.069   1.092
 6531TIP3    H219537   4.967   7.202   1.107
 6532TIP3   OH219538   0.341   6.075   1.607
 6532TIP3    H119539   0.300   6.090   1.692
 6532TIP3    H219540   0.359   5.981   1.605
 6533TIP3   OH219541   6.009   1.012   1.809
 6533TIP3    H119542   6.074   1.082   1.804
 6533TIP3    H219543   5.995   0.986   1.718
 6534TIP3   OH219544   3.649   4.818   3.955
 6534TIP3    H119545   3.741   4.818   3.982
 6534TIP3    H219546   3.600   4.832   4.037
 6535TIP3   OH219547   3.698   3.333   2.964
 6535TIP3    H119548   3.722   3.370   2.879
 6535TIP3    H219549   3.759   3.373   3.026
 6536TIP3   OH219550   4.469   4.980   0.135
 6536TIP3    H119551   4.532   5.040   0.177
 6536TIP3    H219552   4.457   5.016   0.047
 6537TIP3   OH219553   3.313   3.401   2.125
 6537TIP3    H119554   3.239   3.401   2.064
 6537TIP3    H219555   3.281   3.354   2.202
 6538TIP3   OH219556   1.872   6.322   2.140
 6538TIP3    H119557   1.865   6.258   2.211
 6538TIP3    H219558   1.915   6.398   2.180
 6539TIP3   OH219559   3.294   7.445   5.921
 6539TIP3    H119560   3.300   7.426   5.827
 6539TIP3    H219561   3.307   7.361   5.964
 6540TIP3   OH219562   6.612   2.072   5.994
 6540TIP3    H119563   6.627   1.981   5.967
 6540TIP3    H219564   6.680   2.122   5.949
 6541TIP3   OH219565   6.659   2.190   3.762
 6541TIP3    H119566   6.657   2.280   3.729
 6541TIP3    H219567   6.736   2.151   3.720
 6542TIP3   OH219568   6.442   1.447   6.686
 6542TIP3    H119569   6.369   1.441   6.624
 6542TIP3    H219570   6.517   1.412   6.639
 6543TIP3   OH219571   7.866   0.120   4.392
 6543TIP3    H119572   7.932   0.090   4.454
 6543TIP3    H219573   7.889   0.079   4.309
 6544TIP3   OH219574   7.257   7.087   1.497
 6544TIP3    H119575   7.290   7.043   1.576
 6544TIP3    H219576   7.195   7.024   1.460
 6545TIP3   OH219577   6.685   5.937   0.447
 6545TIP3    H119578   6.730   5.878   0.386
 6545TIP3    H219579   6.748   5.953   0.516
 6546TIP3   OH219580   8.351   2.014   0.851
 6546TIP3    H119581   8.282   2.066   0.892
 6546TIP3    H219582   8.354   1.933   0.901
 6547TIP3   OH219583   7.914   0.815   1.198
 6547TIP3    H119584   7.859   0.847   1.127
 6547TIP3    H219585   7.962   0.892   1.227
 6548TIP3   OH219586   6.688   4.926   1.759
 6548TIP3    H119587   6.611   4.880   1.791
 6548TIP3    H219588   6.710   4.987   1.829
 6549TIP3   OH219589   6.063   4.954   1.259
 6549TIP3    H119590   6.128   4.886   1.239
 6549TIP3    H219591   6.001   4.949   1.187
 6550TIP3   OH219592   2.260   0.827   1.576
 6550TIP3    H119593   2.261   0.846   1.670
 6550TIP3    H219594   2.316   0.894   1.537
 6551TIP3   OH219595   7.936   3.433   2.556
 6551TIP3    H119596   7.970   3.401   2.639
 6551TIP3    H219597   7.916   3.525   2.571
 6552TIP3   OH219598   0.907   0.694   0.486
 6552TIP3    H119599   0.846   0.728   0.421
 6552TIP3    H219600   0.987   0.677   0.437
 6553TIP3   OH219601   7.910   7.269   1.384
 6553TIP3    H119602   7.818   7.276   1.359
 6553TIP3    H219603   7.909   7.255   1.479
 6554TIP3   OH219604   6.031   2.936   1.165
 6554TIP3    H119605   5.938   2.933   1.187
 6554TIP3    H219606   6.074   2.957   1.248
 6555TIP3   OH219607   6.948   2.112   5.251
 6555TIP3    H119608   7.028   2.064   5.231
 6555TIP3    H219609   6.892   2.048   5.296
 6556TIP3   OH219610   4.163   5.293   0.328
 6556TIP3    H119611   4.128   5.212   0.364
 6556TIP3    H219612   4.157   5.356   0.399
 6557TIP3   OH219613   5.700   6.925   2.687
 6557TIP3    H119614   5.605   6.932   2.685
 6557TIP3    H219615   5.729   6.956   2.601
 6558TIP3   OH219616   6.269   5.376   4.067
 6558TIP3    H119617   6.324   5.454   4.060
 6558TIP3    H219618   6.245   5.370   4.159
 6559TIP3   OH219619   0.661   7.394   5.133
 6559TIP3    H119620   0.742   7.373   5.087
 6559TIP3    H219621   0.671   7.355   5.220
 6560TIP3   OH219622   5.724   6.393   0.234
 6560TIP3    H119623   5.802   6.354   0.274
 6560TIP3    H219624   5.754   6.478   0.200
 6561TIP3   OH219625   0.273   1.363   3.252
 6561TIP3    H119626   0.336   1.410   3.198
 6561TIP3    H219627   0.204   1.336   3.191
 6562TIP3   OH219628   5.951   3.953   6.222
 6562TIP3    H119629   5.928   4.025   6.281
 6562TIP3    H219630   6.038   3.977   6.188
 6563TIP3   OH219631   5.676   6.977   5.392
 6563TIP3    H119632   5.675   7.031   5.313
 6563TIP3    H219633   5.592   6.931   5.392
 6564TIP3   OH219634   1.682   4.171   3.369
 6564TIP3    H119635   1.732   4.250   3.389
 6564TIP3    H219636   1.745   4.112   3.328
 6565TIP3   OH219637   3.767   3.472   0.048
 6565TIP3    H119638   3.799   3.526  -0.024
 6565TIP3    H219639   3.807   3.386   0.032
 6566TIP3   OH219640   7.130   5.472   5.228
 6566TIP3    H119641   7.180   5.399   5.264
 6566TIP3    H219642   7.044   5.436   5.209
 6567TIP3   OH219643   7.715   4.896   2.030
 6567TIP3    H119644   7.757   4.818   2.067
 6567TIP3    H219645   7.691   4.871   1.941
 6568TIP3   OH219646   2.479   4.830   3.622
 6568TIP3    H119647   2.500   4.889   3.549
 6568TIP3    H219648   2.470   4.744   3.581
 6569TIP3   OH219649   8.081   6.264   1.995
 6569TIP3    H119650   8.077   6.345   1.945
 6569TIP3    H219651   8.071   6.195   1.930
 6570TIP3   OH219652   4.158   5.909   3.442
 6570TIP3    H119653   4.086   5.861   3.483
 6570TIP3    H219654   4.165   5.872   3.354
 6571TIP3   OH219655   8.006   1.840   4.269
 6571TIP3    H119656   8.037   1.922   4.230
 6571TIP3    H219657   7.936   1.867   4.329
 6572TIP3   OH219658   7.710   6.466   6.351
 6572TIP3    H119659   7.770   6.433   6.418
 6572TIP3    H219660   7.625   6.468   6.395
 6573TIP3   OH219661   3.258   6.422   1.287
 6573TIP3    H119662   3.276   6.509   1.250
 6573TIP3    H219663   3.164   6.409   1.273
 6574TIP3   OH219664   5.415   7.706   0.172
 6574TIP3    H119665   5.438   7.682   0.083
 6574TIP3    H219666   5.387   7.623   0.213
 6575TIP3   OH219667   1.709   1.528   2.753
 6575TIP3    H119668   1.671   1.488   2.674
 6575TIP3    H219669   1.651   1.500   2.824
 6576TIP3   OH219670   0.645   5.086   5.018
 6576TIP3    H119671   0.565   5.068   5.068
 6576TIP3    H219672   0.644   5.023   4.946
 6577TIP3   OH219673   7.441   5.722   3.721
 6577TIP3    H119674   7.510   5.690   3.663
 6577TIP3    H219675   7.362   5.679   3.690
 6578TIP3   OH219676   3.104   5.512   5.086
 6578TIP3    H119677   3.188   5.481   5.053
 6578TIP3    H219678   3.055   5.432   5.105
 6579TIP3   OH219679   1.265   3.505   1.075
 6579TIP3    H119680   1.321   3.483   1.149
 6579TIP3    H219681   1.275   3.600   1.065
 6580TIP3   OH219682   4.683   6.885   2.738
 6580TIP3    H119683   4.676   6.867   2.644
 6580TIP3    H219684   4.717   6.974   2.742
 6581TIP3   OH219685   4.187   1.666   0.309
 6581TIP3    H119686   4.221   1.638   0.395
 6581TIP3    H219687   4.194   1.588   0.254
 6582TIP3   OH219688   2.948   2.739   1.041
 6582TIP3    H119689   3.001   2.730   1.120
 6582TIP3    H219690   3.011   2.749   0.970
 6583TIP3   OH219691   2.746   5.844   0.493
 6583TIP3    H119692   2.668   5.897   0.508
 6583TIP3    H219693   2.804   5.866   0.566
 6584TIP3   OH219694   2.193   0.214   5.744
 6584TIP3    H119695   2.198   0.295   5.795
 6584TIP3    H219696   2.238   0.234   5.662
 6585TIP3   OH219697   0.408   3.145   4.900
 6585TIP3    H119698   0.458   3.159   4.981
 6585TIP3    H219699   0.332   3.094   4.928
 6586TIP3   OH219700   3.783   4.294   0.494
 6586TIP3    H119701   3.707   4.297   0.552
 6586TIP3    H219702   3.817   4.384   0.494
 6587TIP3   OH219703   6.854   4.370   2.867
 6587TIP3    H119704   6.799   4.326   2.803
 6587TIP3    H219705   6.879   4.301   2.928
 6588TIP3   OH219706   4.826   4.218   5.540
 6588TIP3    H119707   4.760   4.157   5.575
 6588TIP3    H219708   4.832   4.286   5.607
 6589TIP3   OH219709   6.295   7.007   5.228
 6589TIP3    H119710   6.271   6.922   5.265
 6589TIP3    H219711   6.390   7.010   5.233
 6590TIP3   OH219712   0.401   7.552   5.148
 6590TIP3    H119713   0.479   7.529   5.096
 6590TIP3    H219714   0.414   7.643   5.172
 6591TIP3   OH219715   5.521   6.448   0.780
 6591TIP3    H119716   5.587   6.461   0.848
 6591TIP3    H219717   5.455   6.514   0.798
 6592TIP3   OH219718   5.633   5.045   1.966
 6592TIP3    H119719   5.637   5.086   1.880
 6592TIP3    H219720   5.569   5.096   2.015
 6593TIP3   OH219721   5.919   7.767   2.707
 6593TIP3    H119722   5.828   7.789   2.690
 6593TIP3    H219723   5.916   7.700   2.775
 6594TIP3   OH219724   3.230   4.664   5.628
 6594TIP3    H119725   3.250   4.754   5.654
 6594TIP3    H219726   3.146   4.645   5.670
 6595TIP3   OH219727   0.969   5.819   1.417
 6595TIP3    H119728   0.933   5.890   1.364
 6595TIP3    H219729   0.980   5.858   1.504
 6596TIP3   OH219730   5.200   5.009   2.339
 6596TIP3    H119731   5.256   4.931   2.334
 6596TIP3    H219732   5.142   4.990   2.413
 6597TIP3   OH219733   3.917   6.794   0.931
 6597TIP3    H119734   3.833   6.825   0.965
 6597TIP3    H219735   3.982   6.845   0.978
 6598TIP3   OH219736   3.448   7.624   1.689
 6598TIP3    H119737   3.468   7.637   1.596
 6598TIP3    H219738   3.412   7.708   1.717
 6599TIP3   OH219739   4.071  -0.055   0.849
 6599TIP3    H119740   3.979  -0.029   0.849
 6599TIP3    H219741   4.094  -0.062   0.756
 6600TIP3   OH219742   5.111   0.339   5.530
 6600TIP3    H119743   5.154   0.254   5.544
 6600TIP3    H219744   5.172   0.403   5.567
 6601TIP3   OH219745   4.797   0.952   6.206
 6601TIP3    H119746   4.718   0.918   6.248
 6601TIP3    H219747   4.770   0.973   6.117
 6602TIP3   OH219748   2.232   5.287   3.645
 6602TIP3    H119749   2.188   5.212   3.686
 6602TIP3    H219750   2.317   5.251   3.617
 6603TIP3   OH219751   0.584   7.003   6.310
 6603TIP3    H119752   0.638   6.940   6.263
 6603TIP3    H219753   0.547   6.955   6.383
 6604TIP3   OH219754   6.469   3.063   5.115
 6604TIP3    H119755   6.380   3.027   5.111
 6604TIP3    H219756   6.457   3.156   5.134
 6605TIP3   OH219757   3.063   6.380   5.663
 6605TIP3    H119758   3.018   6.450   5.616
 6605TIP3    H219759   3.145   6.367   5.615
 6606TIP3   OH219760   4.397   1.093   1.289
 6606TIP3    H119761   4.463   1.146   1.245
 6606TIP3    H219762   4.440   1.009   1.306
 6607TIP3   OH219763   4.902   3.810   1.347
 6607TIP3    H119764   4.943   3.880   1.297
 6607TIP3    H219765   4.953   3.806   1.428
 6608TIP3   OH219766   8.170   4.833   2.209
 6608TIP3    H119767   8.243   4.781   2.177
 6608TIP3    H219768   8.128   4.779   2.275
 6609TIP3   OH219769   2.949   2.340   1.348
 6609TIP3    H119770   2.950   2.355   1.253
 6609TIP3    H219771   3.042   2.337   1.372
 6610TIP3   OH219772   4.440   1.112   4.700
 6610TIP3    H119773   4.473   1.190   4.654
 6610TIP3    H219774   4.348   1.130   4.715
 6611TIP3   OH219775   1.685   5.978   6.288
 6611TIP3    H119776   1.668   6.062   6.332
 6611TIP3    H219777   1.735   6.002   6.210
 6612TIP3   OH219778   6.140   4.542   3.448
 6612TIP3    H119779   6.181   4.571   3.367
 6612TIP3    H219780   6.173   4.453   3.461
 6613TIP3   OH219781   6.831   2.419   1.156
 6613TIP3    H119782   6.833   2.508   1.121
 6613TIP3    H219783   6.922   2.399   1.177
 6614TIP3   OH219784   7.462   5.230   3.595
 6614TIP3    H119785   7.508   5.180   3.528
 6614TIP3    H219786   7.531   5.269   3.648
 6615TIP3   OH219787   0.729   4.567   4.415
 6615TIP3    H119788   0.697   4.489   4.460
 6615TIP3    H219789   0.657   4.592   4.357
 6616TIP3   OH219790   3.452   7.157   1.766
 6616TIP3    H119791   3.387   7.226   1.778
 6616TIP3    H219792   3.463   7.151   1.671
 6617TIP3   OH219793   0.405   2.834   3.422
 6617TIP3    H119794   0.468   2.790   3.366
 6617TIP3    H219795   0.456   2.902   3.467
 6618TIP3   OH219796   4.007   7.812   3.546
 6618TIP3    H119797   3.948   7.803   3.621
 6618TIP3    H219798   4.017   7.722   3.513
 6619TIP3   OH219799   1.206   6.543   0.169
 6619TIP3    H119800   1.286   6.507   0.129
 6619TIP3    H219801   1.138   6.529   0.103
 6620TIP3   OH219802   2.112   0.473   4.692
 6620TIP3    H119803   2.199   0.514   4.684
 6620TIP3    H219804   2.129   0.385   4.725
 6621TIP3   OH219805   6.986   2.595   5.593
 6621TIP3    H119806   6.968   2.540   5.669
 6621TIP3    H219807   7.042   2.540   5.537
 6622TIP3   OH219808   3.381   6.919   2.112
 6622TIP3    H119809   3.299   6.899   2.066
 6622TIP3    H219810   3.353   6.950   2.198
 6623TIP3   OH219811   7.282   5.030   2.387
 6623TIP3    H119812   7.224   4.971   2.434
 6623TIP3    H219813   7.285   5.110   2.440
 6624TIP3   OH219814   0.661   5.233   1.289
 6624TIP3    H119815   0.658   5.249   1.383
 6624TIP3    H219816   0.569   5.226   1.263
 6625TIP3   OH219817   1.957   5.035   0.747
 6625TIP3    H119818   1.920   4.979   0.679
 6625TIP3    H219819   1.918   5.003   0.828
 6626TIP3   OH219820   7.485   4.158   3.887
 6626TIP3    H119821   7.521   4.211   3.816
 6626TIP3    H219822   7.504   4.207   3.967
 6627TIP3   OH219823   5.566   1.015   5.800
 6627TIP3    H119824   5.639   1.065   5.835
 6627TIP3    H219825   5.546   0.951   5.868
 6628TIP3   OH219826   0.389   1.926   0.208
 6628TIP3    H119827   0.480   1.895   0.209
 6628TIP3    H219828   0.356   1.904   0.121
 6629TIP3   OH219829   0.937   4.070   2.343
 6629TIP3    H119830   0.963   4.135   2.278
 6629TIP3    H219831   1.014   4.014   2.353
 6630TIP3   OH219832   7.778   4.080   0.371
 6630TIP3    H119833   7.799   4.104   0.461
 6630TIP3    H219834   7.684   4.060   0.373
 6631TIP3   OH219835   5.403   7.039   6.236
 6631TIP3    H119836   5.307   7.043   6.240
 6631TIP3    H219837   5.429   7.008   6.322
 6632TIP3   OH219838   0.436   5.451   2.542
 6632TIP3    H119839   0.482   5.506   2.606
 6632TIP3    H219840   0.434   5.504   2.463
 6633TIP3   OH219841   5.984   1.256   6.630
 6633TIP3    H119842   5.895   1.290   6.641
 6633TIP3    H219843   5.984   1.173   6.676
 6634TIP3   OH219844   4.290   6.128   4.779
 6634TIP3    H119845   4.297   6.069   4.703
 6634TIP3    H219846   4.315   6.074   4.853
 6635TIP3   OH219847   4.337   7.471   1.850
 6635TIP3    H119848   4.338   7.463   1.755
 6635TIP3    H219849   4.404   7.536   1.870
 6636TIP3   OH219850   1.659   0.697   1.879
 6636TIP3    H119851   1.722   0.764   1.907
 6636TIP3    H219852   1.700   0.614   1.902
 6637TIP3   OH219853   4.006   0.344   2.133
 6637TIP3    H119854   4.020   0.398   2.211
 6637TIP3    H219855   4.067   0.379   2.069
 6638TIP3   OH219856   0.546   5.609   2.754
 6638TIP3    H119857   0.535   5.701   2.728
 6638TIP3    H219858   0.528   5.609   2.848
 6639TIP3   OH219859   2.177   2.301   2.673
 6639TIP3    H119860   2.106   2.282   2.612
 6639TIP3    H219861   2.248   2.332   2.618
 6640TIP3   OH219862   6.335   1.999   5.242
 6640TIP3    H119863   6.378   1.984   5.158
 6640TIP3    H219864   6.276   2.073   5.226
 6641TIP3   OH219865   5.790   0.662   6.531
 6641TIP3    H119866   5.730   0.705   6.592
 6641TIP3    H219867   5.742   0.584   6.502
 6642TIP3   OH219868   2.337   3.266   4.029
 6642TIP3    H119869   2.416   3.234   4.072
 6642TIP3    H219870   2.266   3.246   4.091
 6643TIP3   OH219871   5.969   0.891   1.535
 6643TIP3    H119872   5.993   0.804   1.567
 6643TIP3    H219873   5.926   0.875   1.451
 6644TIP3   OH219874   3.200   1.785   0.184
 6644TIP3    H119875   3.185   1.785   0.090
 6644TIP3    H219876   3.292   1.761   0.195
 6645TIP3   OH219877   5.698   3.246   0.663
 6645TIP3    H119878   5.733   3.302   0.732
 6645TIP3    H219879   5.742   3.274   0.584
 6646TIP3   OH219880   7.841   2.987   1.743
 6646TIP3    H119881   7.821   3.080   1.754
 6646TIP3    H219882   7.756   2.946   1.729
 6647TIP3   OH219883   4.942   1.256   0.666
 6647TIP3    H119884   4.941   1.238   0.573
 6647TIP3    H219885   4.890   1.186   0.705
 6648TIP3   OH219886   6.589   4.289   3.286
 6648TIP3    H119887   6.630   4.229   3.348
 6648TIP3    H219888   6.564   4.233   3.212
 6649TIP3   OH219889   7.248   7.356   1.401
 6649TIP3    H119890   7.333   7.388   1.372
 6649TIP3    H219891   7.265   7.269   1.436
 6650TIP3   OH219892   2.349   2.271   4.691
 6650TIP3    H119893   2.442   2.287   4.707
 6650TIP3    H219894   2.348   2.210   4.617
 6651TIP3   OH219895   1.697   2.769   2.205
 6651TIP3    H119896   1.631   2.795   2.141
 6651TIP3    H219897   1.685   2.828   2.278
 6652TIP3   OH219898   3.231   0.290   3.272
 6652TIP3    H119899   3.232   0.253   3.361
 6652TIP3    H219900   3.278   0.227   3.219
 6653TIP3   OH219901   5.457   0.583   4.679
 6653TIP3    H119902   5.533   0.534   4.647
 6653TIP3    H219903   5.384   0.521   4.672
 6654TIP3   OH219904   3.797   5.890   2.014
 6654TIP3    H119905   3.872   5.832   2.027
 6654TIP3    H219906   3.769   5.875   1.924
 6655TIP3   OH219907   8.042   0.307   4.640
 6655TIP3    H119908   8.128   0.349   4.651
 6655TIP3    H219909   7.986   0.375   4.602
 6656TIP3   OH219910   5.425   1.674   3.907
 6656TIP3    H119911   5.411   1.580   3.894
 6656TIP3    H219912   5.488   1.680   3.979
 6657TIP3   OH219913   6.121   1.486   5.166
 6657TIP3    H119914   6.187   1.525   5.224
 6657TIP3    H219915   6.160   1.403   5.140
 6658TIP3   OH219916   1.236   0.885   0.532
 6658TIP3    H119917   1.168   0.929   0.481
 6658TIP3    H219918   1.292   0.955   0.564
 6659TIP3   OH219919   1.110   7.716   6.211
 6659TIP3    H119920   1.060   7.658   6.268
 6659TIP3    H219921   1.049   7.786   6.189
 6660TIP3   OH219922   6.709   7.350   1.398
 6660TIP3    H119923   6.783   7.411   1.398
 6660TIP3    H219924   6.749   7.265   1.377
 6661TIP3   OH219925   0.255   5.982   0.465
 6661TIP3    H119926   0.302   5.954   0.386
 6661TIP3    H219927   0.179   6.029   0.431
 6662TIP3   OH219928   3.741   5.199   0.346
 6662TIP3    H119929   3.778   5.277   0.387
 6662TIP3    H219930   3.677   5.234   0.284
 6663TIP3   OH219931   2.331   1.820   4.714
 6663TIP3    H119932   2.306   1.770   4.791
 6663TIP3    H219933   2.403   1.770   4.675
 6664TIP3   OH219934   0.422   1.458   1.063
 6664TIP3    H119935   0.408   1.427   0.974
 6664TIP3    H219936   0.349   1.423   1.113
 6665TIP3   OH219937   6.738   2.285   2.425
 6665TIP3    H119938   6.650   2.297   2.461
 6665TIP3    H219939   6.795   2.285   2.501
 6666TIP3   OH219940   5.745   2.285   3.612
 6666TIP3    H119941   5.689   2.208   3.612
 6666TIP3    H219942   5.765   2.301   3.704
 6667TIP3   OH219943   4.922   7.505   5.886
 6667TIP3    H119944   4.968   7.441   5.941
 6667TIP3    H219945   4.849   7.456   5.848
 6668TIP3   OH219946   3.402   5.622   1.551
 6668TIP3    H119947   3.366   5.543   1.590
 6668TIP3    H219948   3.360   5.694   1.599
 6669TIP3   OH219949   6.660   4.498   0.682
 6669TIP3    H119950   6.752   4.519   0.668
 6669TIP3    H219951   6.622   4.497   0.594
 6670TIP3   OH219952   5.402   0.951   2.662
 6670TIP3    H119953   5.445   0.866   2.671
 6670TIP3    H219954   5.311   0.934   2.687
 6671TIP3   OH219955   6.861   7.135   1.039
 6671TIP3    H119956   6.892   7.053   1.078
 6671TIP3    H219957   6.766   7.129   1.040
 6672TIP3   OH219958   0.777   1.158   2.836
 6672TIP3    H119959   0.688   1.125   2.822
 6672TIP3    H219960   0.795   1.139   2.928
 6673TIP3   OH219961   0.082   3.513   4.749
 6673TIP3    H119962   0.170   3.546   4.728
 6673TIP3    H219963   0.096   3.456   4.824
 6674TIP3   OH219964   6.609   6.814   4.621
 6674TIP3    H119965   6.558   6.892   4.598
 6674TIP3    H219966   6.550   6.763   4.677
 6675TIP3   OH219967   2.351   5.780   4.385
 6675TIP3    H119968   2.346   5.689   4.415
 6675TIP3    H219969   2.418   5.820   4.441
 6676TIP3   OH219970   0.784   2.659   6.586
 6676TIP3    H119971   0.758   2.672   6.678
 6676TIP3    H219972   0.758   2.740   6.543
 6677TIP3   OH219973   2.540   5.931   5.719
 6677TIP3    H119974   2.445   5.925   5.706
 6677TIP3    H219975   2.569   5.996   5.655
 6678TIP3   OH219976   0.526   4.608   4.238
 6678TIP3    H119977   0.464   4.536   4.250
 6678TIP3    H219978   0.507   4.642   4.151
 6679TIP3   OH219979   3.855   2.385   5.732
 6679TIP3    H119980   3.892   2.297   5.734
 6679TIP3    H219981   3.874   2.417   5.644
 6680TIP3   OH219982   6.283   6.642   5.926
 6680TIP3    H119983   6.245   6.727   5.948
 6680TIP3    H219984   6.286   6.641   5.830
 6681TIP3   OH219985   5.083   1.245   2.533
 6681TIP3    H119986   5.012   1.244   2.598
 6681TIP3    H219987   5.107   1.153   2.522
 6682TIP3   OH219988   3.116   2.214   0.779
 6682TIP3    H119989   3.029   2.194   0.814
 6682TIP3    H219990   3.176   2.187   0.848
 6683TIP3   OH219991   0.157   6.996   5.590
 6683TIP3    H119992   0.210   6.963   5.662
 6683TIP3    H219993   0.200   6.963   5.511
 6684TIP3   OH219994   5.624   4.177   4.903
 6684TIP3    H119995   5.564   4.102   4.900
 6684TIP3    H219996   5.630   4.200   4.996
 6685TIP3   OH219997   2.751   4.110   5.945
 6685TIP3    H119998   2.831   4.144   5.904
 6685TIP3    H219999   2.771   4.110   6.039
 6686TIP3   OH220000   7.391   2.397   1.642
 6686TIP3    H120001   7.378   2.364   1.553
 6686TIP3    H220002   7.304   2.394   1.681
 6687TIP3   OH220003   2.700   1.928   0.229
 6687TIP3    H120004   2.781   1.881   0.250
 6687TIP3    H220005   2.728   1.999   0.170
 6688TIP3   OH220006   0.212   6.170   3.580
 6688TIP3    H120007   0.252   6.245   3.534
 6688TIP3    H220008   0.126   6.202   3.607
 6689TIP3   OH220009   4.415   7.322   3.651
 6689TIP3    H120010   4.327   7.334   3.687
 6689TIP3    H220011   4.408   7.351   3.560
 6690TIP3   OH220012   8.258   6.954   4.615
 6690TIP3    H120013   8.256   7.050   4.621
 6690TIP3    H220014   8.270   6.924   4.705
 6691TIP3   OH220015   0.462   4.596   0.884
 6691TIP3    H120016   0.478   4.690   0.874
 6691TIP3    H220017   0.502   4.573   0.968
 6692TIP3   OH220018   7.113   7.110   0.584
 6692TIP3    H120019   7.096   7.166   0.660
 6692TIP3    H220020   7.027   7.099   0.543
 6693TIP3   OH220021   2.042   5.790   3.912
 6693TIP3    H120022   2.121   5.755   3.869
 6693TIP3    H220023   1.973   5.727   3.889
 6694TIP3   OH220024   5.039   6.086   5.012
 6694TIP3    H120025   5.060   6.127   5.095
 6694TIP3    H220026   4.974   6.144   4.972
 6695TIP3   OH220027   6.418   2.509   3.389
 6695TIP3    H120028   6.451   2.519   3.300
 6695TIP3    H220029   6.332   2.552   3.389
 6696TIP3   OH220030   0.547   7.750   6.349
 6696TIP3    H120031   0.592   7.828   6.318
 6696TIP3    H220032   0.551   7.756   6.445
 6697TIP3   OH220033   2.450   1.037   4.982
 6697TIP3    H120034   2.470   1.090   4.904
 6697TIP3    H220035   2.386   0.973   4.951
 6698TIP3   OH220036   2.167   6.720   1.464
 6698TIP3    H120037   2.216   6.646   1.427
 6698TIP3    H220038   2.171   6.705   1.559
 6699TIP3   OH220039   1.535   2.720   1.224
 6699TIP3    H120040   1.497   2.634   1.239
 6699TIP3    H220041   1.618   2.702   1.180
 6700TIP3   OH220042   2.527   4.963   4.393
 6700TIP3    H120043   2.445   5.006   4.415
 6700TIP3    H220044   2.511   4.870   4.409
 6701TIP3   OH220045   0.195   3.169   5.380
 6701TIP3    H120046   0.279   3.141   5.416
 6701TIP3    H220047   0.159   3.090   5.339
 6702TIP3   OH220048   6.475   6.584   3.441
 6702TIP3    H120049   6.419   6.553   3.369
 6702TIP3    H220050   6.556   6.533   3.432
 6703TIP3   OH220051   0.493   2.012   5.934
 6703TIP3    H120052   0.520   1.951   6.002
 6703TIP3    H220053   0.405   2.040   5.960
 6704TIP3   OH220054   3.185   4.627   1.603
 6704TIP3    H120055   3.100   4.609   1.563
 6704TIP3    H220056   3.172   4.709   1.651
 6705TIP3   OH220057   2.148   4.201   6.475
 6705TIP3    H120058   2.156   4.201   6.571
 6705TIP3    H220059   2.101   4.121   6.455
 6706TIP3   OH220060   0.734   7.131   2.046
 6706TIP3    H120061   0.827   7.111   2.063
 6706TIP3    H220062   0.710   7.072   1.975
 6707TIP3   OH220063   6.026   4.211   2.573
 6707TIP3    H120064   6.082   4.172   2.640
 6707TIP3    H220065   6.013   4.141   2.509
 6708TIP3   OH220066   3.489   3.855   4.448
 6708TIP3    H120067   3.584   3.859   4.456
 6708TIP3    H220068   3.473   3.858   4.353
 6709TIP3   OH220069   7.267   4.331   4.357
 6709TIP3    H120070   7.261   4.286   4.441
 6709TIP3    H220071   7.357   4.365   4.354
 6710TIP3   OH220072   7.217   4.609   0.932
 6710TIP3    H120073   7.138   4.599   0.880
 6710TIP3    H220074   7.194   4.672   1.000
 6711TIP3   OH220075   5.785   3.570   4.168
 6711TIP3    H120076   5.780   3.666   4.163
 6711TIP3    H220077   5.736   3.548   4.247
 6712TIP3   OH220078   8.308   5.205   0.918
 6712TIP3    H120079   8.256   5.135   0.957
 6712TIP3    H220080   8.258   5.232   0.841
 6713TIP3   OH220081   6.718   1.869   1.969
 6713TIP3    H120082   6.804   1.875   2.010
 6713TIP3    H220083   6.664   1.822   2.033
 6714TIP3   OH220084   4.428   5.427   0.269
 6714TIP3    H120085   4.344   5.383   0.281
 6714TIP3    H220086   4.467   5.384   0.192
 6715TIP3   OH220087   5.574   6.778   0.226
 6715TIP3    H120088   5.658   6.733   0.236
 6715TIP3    H220089   5.516   6.713   0.185
 6716TIP3   OH220090   7.691   6.815   4.096
 6716TIP3    H120091   7.772   6.777   4.064
 6716TIP3    H220092   7.622   6.762   4.056
 6717TIP3   OH220093   7.823   3.796   5.912
 6717TIP3    H120094   7.914   3.811   5.937
 6717TIP3    H220095   7.827   3.718   5.856
 6718TIP3   OH220096   6.797   4.277   4.798
 6718TIP3    H120097   6.831   4.277   4.887
 6718TIP3    H220098   6.709   4.241   4.805
 6719TIP3   OH220099   3.289   3.048   4.328
 6719TIP3    H120100   3.265   3.027   4.238
 6719TIP3    H220101   3.381   3.024   4.335
 6720TIP3   OH220102   0.466   5.140   0.292
 6720TIP3    H120103   0.488   5.194   0.368
 6720TIP3    H220104   0.548   5.132   0.244
 6721TIP3   OH220105   2.719   4.276   3.773
 6721TIP3    H120106   2.808   4.243   3.759
 6721TIP3    H220107   2.724   4.369   3.749
 6722TIP3   OH220108   1.784   6.453   6.304
 6722TIP3    H120109   1.833   6.499   6.371
 6722TIP3    H220110   1.756   6.371   6.346
 6723TIP3   OH220111   3.440   6.753   0.520
 6723TIP3    H120112   3.416   6.720   0.607
 6723TIP3    H220113   3.446   6.675   0.465
 6724TIP3   OH220114   2.851   7.477   2.370
 6724TIP3    H120115   2.807   7.499   2.452
 6724TIP3    H220116   2.932   7.435   2.397
 6725TIP3   OH220117   5.690   1.466   1.893
 6725TIP3    H120118   5.596   1.457   1.904
 6725TIP3    H220119   5.703   1.471   1.798
 6726TIP3   OH220120   6.972   3.146   0.571
 6726TIP3    H120121   6.904   3.197   0.615
 6726TIP3    H220122   6.936   3.058   0.565
 6727TIP3   OH220123   7.889   2.751   0.542
 6727TIP3    H120124   7.920   2.696   0.615
 6727TIP3    H220125   7.924   2.709   0.464
 6728TIP3   OH220126   5.648   5.773   5.205
 6728TIP3    H120127   5.614   5.859   5.181
 6728TIP3    H220128   5.656   5.775   5.300
 6729TIP3   OH220129   6.871   0.548   0.695
 6729TIP3    H120130   6.867   0.514   0.606
 6729TIP3    H220131   6.946   0.608   0.695
 6730TIP3   OH220132   7.819   1.602   5.666
 6730TIP3    H120133   7.858   1.528   5.620
 6730TIP3    H220134   7.793   1.566   5.751
 6731TIP3   OH220135   2.910   6.527   3.428
 6731TIP3    H120136   2.911   6.448   3.373
 6731TIP3    H220137   2.867   6.593   3.374
 6732TIP3   OH220138   6.786   2.862   1.122
 6732TIP3    H120139   6.823   2.817   1.047
 6732TIP3    H220140   6.839   2.941   1.131
 6733TIP3   OH220141   6.357   0.011   5.702
 6733TIP3    H120142   6.344  -0.067   5.757
 6733TIP3    H220143   6.336   0.084   5.760
 6734TIP3   OH220144   3.890   0.992   0.101
 6734TIP3    H120145   3.875   0.997   0.007
 6734TIP3    H220146   3.885   0.898   0.121
 6735TIP3   OH220147   7.905   6.379   6.154
 6735TIP3    H120148   7.839   6.407   6.217
 6735TIP3    H220149   7.855   6.344   6.080
 6736TIP3   OH220150   7.417   1.918   2.197
 6736TIP3    H120151   7.461   1.996   2.232
 6736TIP3    H220152   7.402   1.862   2.273
 6737TIP3   OH220153   5.480   0.849   4.684
 6737TIP3    H120154   5.487   0.753   4.679
 6737TIP3    H220155   5.557   0.876   4.733
 6738TIP3   OH220156   2.260   7.312   3.965
 6738TIP3    H120157   2.270   7.265   3.882
 6738TIP3    H220158   2.298   7.254   4.030
 6739TIP3   OH220159   0.757   3.479   0.396
 6739TIP3    H120160   0.790   3.569   0.403
 6739TIP3    H220161   0.803   3.442   0.321
 6740TIP3   OH220162   8.038   2.131   3.567
 6740TIP3    H120163   8.019   2.222   3.543
 6740TIP3    H220164   8.056   2.087   3.484
 6741TIP3   OH220165   5.422   5.199   4.600
 6741TIP3    H120166   5.366   5.266   4.638
 6741TIP3    H220167   5.441   5.140   4.672
 6742TIP3   OH220168   0.476   3.125   2.551
 6742TIP3    H120169   0.435   3.097   2.632
 6742TIP3    H220170   0.516   3.046   2.515
 6743TIP3   OH220171   1.230   1.298   0.851
 6743TIP3    H120172   1.276   1.372   0.890
 6743TIP3    H220173   1.184   1.336   0.775
 6744TIP3   OH220174   4.407   4.281   3.464
 6744TIP3    H120175   4.467   4.356   3.470
 6744TIP3    H220176   4.325   4.318   3.431
 6745TIP3   OH220177   4.808   4.383   3.352
 6745TIP3    H120178   4.857   4.411   3.275
 6745TIP3    H220179   4.866   4.320   3.395
 6746TIP3   OH220180   1.274   2.466   4.187
 6746TIP3    H120181   1.231   2.414   4.120
 6746TIP3    H220182   1.217   2.541   4.201
 6747TIP3   OH220183   0.783   1.453   2.097
 6747TIP3    H120184   0.838   1.450   2.018
 6747TIP3    H220185   0.844   1.442   2.169
 6748TIP3   OH220186   4.107   1.639   1.212
 6748TIP3    H120187   4.176   1.585   1.250
 6748TIP3    H220188   4.129   1.643   1.119
 6749TIP3   OH220189   4.640   1.250   5.507
 6749TIP3    H120190   4.657   1.265   5.413
 6749TIP3    H220191   4.687   1.321   5.551
 6750TIP3   OH220192   6.344   3.792   4.583
 6750TIP3    H120193   6.326   3.882   4.557
 6750TIP3    H220194   6.362   3.796   4.676
 6751TIP3   OH220195   5.480   5.028   3.114
 6751TIP3    H120196   5.459   4.960   3.178
 6751TIP3    H220197   5.485   5.108   3.166
 6752TIP3   OH220198   1.862   2.268   4.641
 6752TIP3    H120199   1.792   2.211   4.673
 6752TIP3    H220200   1.925   2.271   4.712
 6753TIP3   OH220201   4.127   3.423   1.214
 6753TIP3    H120202   4.136   3.518   1.210
 6753TIP3    H220203   4.190   3.390   1.151
 6754TIP3   OH220204   7.048   3.113   3.459
 6754TIP3    H120205   7.030   3.043   3.395
 6754TIP3    H220206   6.975   3.109   3.520
 6755TIP3   OH220207   2.853   6.331   5.422
 6755TIP3    H120208   2.909   6.380   5.361
 6755TIP3    H220209   2.914   6.277   5.473
 6756TIP3   OH220210   3.644   2.174   2.755
 6756TIP3    H120211   3.736   2.148   2.755
 6756TIP3    H220212   3.636   2.232   2.830
 6757TIP3   OH220213   8.007   7.709   0.686
 6757TIP3    H120214   7.911   7.707   0.686
 6757TIP3    H220215   8.029   7.801   0.698
 6758TIP3   OH220216   4.545   1.577   5.772
 6758TIP3    H120217   4.534   1.627   5.853
 6758TIP3    H220218   4.471   1.604   5.718
 6759TIP3   OH220219   5.548   7.540   1.035
 6759TIP3    H120220   5.632   7.579   1.011
 6759TIP3    H220221   5.546   7.456   0.990
 6760TIP3   OH220222   7.209   4.275   0.239
 6760TIP3    H120223   7.242   4.355   0.198
 6760TIP3    H220224   7.119   4.267   0.208
 6761TIP3   OH220225   2.757   5.217   0.947
 6761TIP3    H120226   2.709   5.136   0.967
 6761TIP3    H220227   2.834   5.188   0.898
 6762TIP3   OH220228   1.863   0.070   4.238
 6762TIP3    H120229   1.821   0.055   4.153
 6762TIP3    H220230   1.944   0.115   4.216
 6763TIP3   OH220231   4.730   1.212   1.902
 6763TIP3    H120232   4.636   1.203   1.891
 6763TIP3    H220233   4.742   1.293   1.952
 6764TIP3   OH220234   1.476   3.944   3.337
 6764TIP3    H120235   1.455   3.980   3.251
 6764TIP3    H220236   1.512   4.019   3.386
 6765TIP3   OH220237   5.244   4.364   2.331
 6765TIP3    H120238   5.192   4.363   2.411
 6765TIP3    H220239   5.200   4.429   2.275
 6766TIP3   OH220240   4.719   7.511   6.125
 6766TIP3    H120241   4.760   7.527   6.209
 6766TIP3    H220242   4.765   7.435   6.090
 6767TIP3   OH220243   0.333   2.579   2.871
 6767TIP3    H120244   0.308   2.656   2.922
 6767TIP3    H220245   0.331   2.609   2.780
 6768TIP3   OH220246   0.418   0.560   6.064
 6768TIP3    H120247   0.420   0.656   6.061
 6768TIP3    H220248   0.468   0.532   5.987
 6769TIP3   OH220249   4.504   2.427   1.742
 6769TIP3    H120250   4.578   2.367   1.736
 6769TIP3    H220251   4.449   2.388   1.810
 6770TIP3   OH220252   1.449   1.394   1.782
 6770TIP3    H120253   1.380   1.329   1.793
 6770TIP3    H220254   1.443   1.421   1.691
 6771TIP3   OH220255   4.515   2.932   1.618
 6771TIP3    H120256   4.519   3.000   1.685
 6771TIP3    H220257   4.523   2.850   1.666
 6772TIP3   OH220258   6.150   5.082   0.891
 6772TIP3    H120259   6.075   5.040   0.932
 6772TIP3    H220260   6.223   5.066   0.952
 6773TIP3   OH220261   6.453   2.576   6.010
 6773TIP3    H120262   6.548   2.577   6.013
 6773TIP3    H220263   6.431   2.487   5.982
 6774TIP3   OH220264   2.092   4.254   1.448
 6774TIP3    H120265   2.146   4.226   1.522
 6774TIP3    H220266   2.003   4.259   1.484
 6775TIP3   OH220267   3.362   2.397   3.382
 6775TIP3    H120268   3.267   2.397   3.391
 6775TIP3    H220269   3.377   2.376   3.290
 6776TIP3   OH220270   0.731   0.783   2.174
 6776TIP3    H120271   0.794   0.760   2.106
 6776TIP3    H220272   0.767   0.862   2.215
 6777TIP3   OH220273   7.254   6.792   4.974
 6777TIP3    H120274   7.262   6.817   4.882
 6777TIP3    H220275   7.235   6.874   5.019
 6778TIP3   OH220276   4.944   3.033   1.601
 6778TIP3    H120277   4.871   3.057   1.658
 6778TIP3    H220278   4.970   3.115   1.560
 6779TIP3   OH220279   5.131   2.847   0.144
 6779TIP3    H120280   5.170   2.877   0.227
 6779TIP3    H220281   5.048   2.895   0.138
 6780TIP3   OH220282   1.149   3.227   0.623
 6780TIP3    H120283   1.206   3.154   0.646
 6780TIP3    H220284   1.142   3.277   0.704
 6781TIP3   OH220285   2.976   4.487   1.480
 6781TIP3    H120286   2.970   4.528   1.394
 6781TIP3    H220287   2.899   4.519   1.527
 6782TIP3   OH220288   7.065   5.458   0.371
 6782TIP3    H120289   7.139   5.398   0.365
 6782TIP3    H220290   7.093   5.526   0.432
 6783TIP3   OH220291   6.511   7.275   4.669
 6783TIP3    H120292   6.487   7.339   4.735
 6783TIP3    H220293   6.570   7.215   4.714
 6784TIP3   OH220294   1.010   0.299   5.901
 6784TIP3    H120295   0.938   0.347   5.862
 6784TIP3    H220296   0.969   0.238   5.962
 6785TIP3   OH220297   5.698   1.000   1.573
 6785TIP3    H120298   5.788   0.969   1.571
 6785TIP3    H220299   5.692   1.053   1.653
 6786TIP3   OH220300   4.566   6.718   3.642
 6786TIP3    H120301   4.624   6.644   3.662
 6786TIP3    H220302   4.587   6.783   3.708
 6787TIP3   OH220303   0.195   1.402   2.344
 6787TIP3    H120304   0.205   1.340   2.416
 6787TIP3    H220305   0.276   1.395   2.294
 6788TIP3   OH220306   5.588   7.595   1.793
 6788TIP3    H120307   5.617   7.676   1.751
 6788TIP3    H220308   5.628   7.599   1.880
 6789TIP3   OH220309   3.809   7.786   4.539
 6789TIP3    H120310   3.753   7.715   4.570
 6789TIP3    H220311   3.788   7.861   4.595
 6790TIP3   OH220312   0.809   1.543   0.277
 6790TIP3    H120313   0.870   1.497   0.219
 6790TIP3    H220314   0.824   1.503   0.363
 6791TIP3   OH220315   4.493   1.800   2.399
 6791TIP3    H120316   4.494   1.895   2.383
 6791TIP3    H220317   4.447   1.764   2.323
 6792TIP3   OH220318   4.619   2.656   6.273
 6792TIP3    H120319   4.576   2.736   6.303
 6792TIP3    H220320   4.574   2.632   6.192
 6793TIP3   OH220321   4.271   0.124   4.578
 6793TIP3    H120322   4.215   0.047   4.586
 6793TIP3    H220323   4.360   0.088   4.578
 6794TIP3   OH220324   2.788   7.396   3.051
 6794TIP3    H120325   2.875   7.357   3.061
 6794TIP3    H220326   2.806   7.488   3.032
 6795TIP3   OH220327   4.424   5.722   3.487
 6795TIP3    H120328   4.501   5.665   3.484
 6795TIP3    H220329   4.359   5.678   3.432
 6796TIP3   OH220330   1.617   7.037   1.820
 6796TIP3    H120331   1.656   6.972   1.879
 6796TIP3    H220332   1.691   7.093   1.794
 6797TIP3   OH220333   0.561   4.539   4.954
 6797TIP3    H120334   0.645   4.580   4.976
 6797TIP3    H220335   0.502   4.613   4.940
 6798TIP3   OH220336   3.215   7.038   0.083
 6798TIP3    H120337   3.222   6.997   0.169
 6798TIP3    H220338   3.121   7.051   0.070
 6799TIP3   OH220339   5.871   6.621   2.020
 6799TIP3    H120340   5.920   6.696   1.986
 6799TIP3    H220341   5.938   6.558   2.045
 6800TIP3   OH220342   0.073   6.523   3.214
 6800TIP3    H120343   0.104   6.539   3.125
 6800TIP3    H220344   0.038   6.608   3.242
 6801TIP3   OH220345   5.246   1.096   0.105
 6801TIP3    H120346   5.166   1.148   0.094
 6801TIP3    H220347   5.307   1.155   0.149
 6802TIP3   OH220348   6.183   7.420   0.481
 6802TIP3    H120349   6.239   7.481   0.433
 6802TIP3    H220350   6.193   7.337   0.435
 6803TIP3   OH220351   8.263   6.260   2.187
 6803TIP3    H120352   8.186   6.278   2.133
 6803TIP3    H220353   8.283   6.168   2.171
 6804TIP3   OH220354   1.064   7.471   3.566
 6804TIP3    H120355   0.982   7.430   3.591
 6804TIP3    H220356   1.073   7.545   3.626
 6805TIP3   OH220357   4.018   1.319   2.951
 6805TIP3    H120358   3.994   1.280   3.035
 6805TIP3    H220359   4.069   1.251   2.907
 6806TIP3   OH220360   7.783   1.698   1.091
 6806TIP3    H120361   7.872   1.713   1.060
 6806TIP3    H220362   7.794   1.657   1.177
 6807TIP3   OH220363   6.887   1.392   4.804
 6807TIP3    H120364   6.970   1.437   4.822
 6807TIP3    H220365   6.890   1.374   4.711
 6808TIP3   OH220366   3.520   7.358   2.699
 6808TIP3    H120367   3.439   7.377   2.746
 6808TIP3    H220368   3.504   7.389   2.610
 6809TIP3   OH220369   2.298   6.688   2.659
 6809TIP3    H120370   2.247   6.758   2.699
 6809TIP3    H220371   2.298   6.710   2.566
 6810TIP3   OH220372   1.348   3.232   3.413
 6810TIP3    H120373   1.286   3.171   3.374
 6810TIP3    H220374   1.301   3.316   3.414
 6811TIP3   OH220375   7.802   3.414   5.899
 6811TIP3    H120376   7.794   3.402   5.994
 6811TIP3    H220377   7.896   3.428   5.885
 6812TIP3   OH220378   6.139   3.868   6.556
 6812TIP3    H120379   6.055   3.828   6.533
 6812TIP3    H220380   6.129   3.960   6.532
 6813TIP3   OH220381   4.994   6.664   5.290
 6813TIP3    H120382   4.969   6.593   5.348
 6813TIP3    H220383   4.961   6.638   5.204
 6814TIP3   OH220384   8.193   2.428   1.779
 6814TIP3    H120385   8.182   2.421   1.874
 6814TIP3    H220386   8.138   2.502   1.754
 6815TIP3   OH220387   7.279   6.226   4.769
 6815TIP3    H120388   7.370   6.242   4.743
 6815TIP3    H220389   7.239   6.312   4.769
 6816TIP3   OH220390   5.755   6.858   6.690
 6816TIP3    H120391   5.825   6.923   6.681
 6816TIP3    H220392   5.746   6.846   6.785
 6817TIP3   OH220393   1.503   0.897   0.636
 6817TIP3    H120394   1.503   0.991   0.655
 6817TIP3    H220395   1.481   0.856   0.720
 6818TIP3   OH220396   5.776   0.384   6.198
 6818TIP3    H120397   5.808   0.461   6.245
 6818TIP3    H220398   5.845   0.318   6.211
 6819TIP3   OH220399   3.752   0.542   4.999
 6819TIP3    H120400   3.791   0.603   4.936
 6819TIP3    H220401   3.792   0.457   4.977
 6820TIP3   OH220402   1.312   1.955   2.293
 6820TIP3    H120403   1.283   2.004   2.216
 6820TIP3    H220404   1.247   1.975   2.360
 6821TIP3   OH220405   5.678   4.746   4.807
 6821TIP3    H120406   5.628   4.676   4.847
 6821TIP3    H220407   5.634   4.763   4.724
 6822TIP3   OH220408   1.792   3.832   4.792
 6822TIP3    H120409   1.777   3.863   4.881
 6822TIP3    H220410   1.865   3.771   4.799
 6823TIP3   OH220411   3.358   3.205   5.243
 6823TIP3    H120412   3.352   3.212   5.338
 6823TIP3    H220413   3.280   3.251   5.210
 6824TIP3   OH220414   2.802   5.762   5.978
 6824TIP3    H120415   2.812   5.857   5.973
 6824TIP3    H220416   2.781   5.745   6.070
 6825TIP3   OH220417   1.939   4.170   3.577
 6825TIP3    H120418   1.889   4.250   3.563
 6825TIP3    H220419   2.018   4.181   3.524
 6826TIP3   OH220420   5.293   6.436   6.572
 6826TIP3    H120421   5.314   6.374   6.643
 6826TIP3    H220422   5.282   6.520   6.616
 6827TIP3   OH220423   3.660   2.822   5.133
 6827TIP3    H120424   3.733   2.767   5.105
 6827TIP3    H220425   3.661   2.816   5.229
 6828TIP3   OH220426   3.945   2.260   0.140
 6828TIP3    H120427   3.991   2.185   0.102
 6828TIP3    H220428   3.853   2.233   0.143
 6829TIP3   OH220429   4.980   4.844   5.838
 6829TIP3    H120430   5.019   4.853   5.925
 6829TIP3    H220431   5.036   4.897   5.781
 6830TIP3   OH220432   5.931   7.507   0.325
 6830TIP3    H120433   5.943   7.412   0.328
 6830TIP3    H220434   5.990   7.541   0.392
 6831TIP3   OH220435   2.965   5.443   1.920
 6831TIP3    H120436   2.884   5.490   1.897
 6831TIP3    H220437   2.966   5.368   1.860
 6832TIP3   OH220438   3.790   3.004   3.171
 6832TIP3    H120439   3.839   3.018   3.089
 6832TIP3    H220440   3.834   3.060   3.235
 6833TIP3   OH220441   4.331   5.949   0.382
 6833TIP3    H120442   4.322   5.897   0.302
 6833TIP3    H220443   4.261   5.917   0.440
 6834TIP3   OH220444   8.021   7.174   3.683
 6834TIP3    H120445   7.967   7.171   3.605
 6834TIP3    H220446   8.008   7.088   3.724
 6835TIP3   OH220447   2.138   6.441   6.258
 6835TIP3    H120448   2.112   6.465   6.169
 6835TIP3    H220449   2.143   6.524   6.305
 6836TIP3   OH220450   0.391   4.765   2.424
 6836TIP3    H120451   0.384   4.695   2.489
 6836TIP3    H220452   0.300   4.791   2.407
 6837TIP3   OH220453   6.362   1.775   3.709
 6837TIP3    H120454   6.424   1.785   3.781
 6837TIP3    H220455   6.412   1.735   3.638
 6838TIP3   OH220456   6.470   3.302   4.631
 6838TIP3    H120457   6.493   3.379   4.578
 6838TIP3    H220458   6.536   3.300   4.700
 6839TIP3   OH220459   4.502   2.808   1.162
 6839TIP3    H120460   4.543   2.817   1.076
 6839TIP3    H220461   4.409   2.822   1.145
 6840TIP3   OH220462   5.412   3.943   2.470
 6840TIP3    H120463   5.338   3.954   2.530
 6840TIP3    H220464   5.382   3.984   2.389
 6841TIP3   OH220465   4.568   3.789   0.885
 6841TIP3    H120466   4.638   3.744   0.838
 6841TIP3    H220467   4.580   3.881   0.862
 6842TIP3   OH220468   0.652   5.977   2.568
 6842TIP3    H120469   0.629   6.057   2.615
 6842TIP3    H220470   0.569   5.932   2.555
 6843TIP3   OH220471   1.823   6.377   0.585
 6843TIP3    H120472   1.842   6.290   0.548
 6843TIP3    H220473   1.825   6.363   0.680
 6844TIP3   OH220474   0.680   1.475   1.131
 6844TIP3    H120475   0.587   1.459   1.115
 6844TIP3    H220476   0.693   1.567   1.109
 6845TIP3   OH220477   7.712   7.563   0.565
 6845TIP3    H120478   7.729   7.639   0.619
 6845TIP3    H220479   7.636   7.587   0.513
 6846TIP3   OH220480   8.216   6.133   6.736
 6846TIP3    H120481   8.144   6.194   6.751
 6846TIP3    H220482   8.183   6.049   6.770
 6847TIP3   OH220483   2.317   1.528   4.157
 6847TIP3    H120484   2.354   1.443   4.133
 6847TIP3    H220485   2.226   1.510   4.179
 6848TIP3   OH220486   3.524   5.378   1.204
 6848TIP3    H120487   3.523   5.395   1.110
 6848TIP3    H220488   3.432   5.368   1.228
 6849TIP3   OH220489   2.659   3.210   6.314
 6849TIP3    H120490   2.586   3.241   6.367
 6849TIP3    H220491   2.689   3.288   6.267
 6850TIP3   OH220492   0.959   1.459   2.314
 6850TIP3    H120493   0.966   1.518   2.389
 6850TIP3    H220494   1.031   1.397   2.325
 6851TIP3   OH220495   4.710   6.230   1.998
 6851TIP3    H120496   4.648   6.286   1.951
 6851TIP3    H220497   4.766   6.291   2.046
 6852TIP3   OH220498   0.426   5.978   1.074
 6852TIP3    H120499   0.404   6.069   1.056
 6852TIP3    H220500   0.397   5.964   1.164
 6853TIP3   OH220501   6.533   5.732   2.475
 6853TIP3    H120502   6.599   5.801   2.478
 6853TIP3    H220503   6.541   5.688   2.560
 6854TIP3   OH220504   3.947   1.242   3.542
 6854TIP3    H120505   3.971   1.168   3.486
 6854TIP3    H220506   3.853   1.254   3.527
 6855TIP3   OH220507   1.045   7.719   2.694
 6855TIP3    H120508   1.052   7.686   2.784
 6855TIP3    H220509   1.100   7.659   2.643
 6856TIP3   OH220510   7.365   4.972   6.049
 6856TIP3    H120511   7.341   4.937   6.135
 6856TIP3    H220512   7.344   5.065   6.053
 6857TIP3   OH220513   0.962   2.453   0.677
 6857TIP3    H120514   1.001   2.492   0.599
 6857TIP3    H220515   1.018   2.377   0.696
 6858TIP3   OH220516   3.409  -0.032   4.524
 6858TIP3    H120517   3.441   0.058   4.516
 6858TIP3    H220518   3.321  -0.024   4.561
 6859TIP3   OH220519   4.203   2.636   4.485
 6859TIP3    H120520   4.163   2.586   4.556
 6859TIP3    H220521   4.296   2.618   4.492
 6860TIP3   OH220522   1.563   5.138   0.194
 6860TIP3    H120523   1.534   5.215   0.244
 6860TIP3    H220524   1.487   5.080   0.193
 6861TIP3   OH220525   0.084   6.017   6.097
 6861TIP3    H120526   0.079   6.094   6.154
 6861TIP3    H220527   0.090   6.053   6.009
 6862TIP3   OH220528   3.050   1.042   6.129
 6862TIP3    H120529   3.034   1.094   6.207
 6862TIP3    H220530   2.963   1.032   6.089
 6863TIP3   OH220531   4.938   7.282   6.646
 6863TIP3    H120532   4.952   7.298   6.740
 6863TIP3    H220533   4.903   7.193   6.642
 6864TIP3   OH220534   3.625   6.185   6.173
 6864TIP3    H120535   3.693   6.176   6.241
 6864TIP3    H220536   3.604   6.279   6.174
 6865TIP3   OH220537   4.121   6.447   0.912
 6865TIP3    H120538   4.217   6.449   0.915
 6865TIP3    H220539   4.100   6.366   0.868
 6866TIP3   OH220540   0.998   0.165   0.663
 6866TIP3    H120541   0.975   0.246   0.616
 6866TIP3    H220542   1.094   0.166   0.667
 6867TIP3   OH220543   8.209   4.184   1.871
 6867TIP3    H120544   8.117   4.210   1.869
 6867TIP3    H220545   8.249   4.240   1.937
 6868TIP3   OH220546   3.610   2.125   5.650
 6868TIP3    H120547   3.602   2.166   5.564
 6868TIP3    H220548   3.683   2.064   5.641
 6869TIP3   OH220549   2.071   3.806   2.135
 6869TIP3    H120550   2.055   3.715   2.158
 6869TIP3    H220551   1.994   3.853   2.167
 6870TIP3   OH220552   4.929   0.066   4.804
 6870TIP3    H120553   4.860   0.014   4.764
 6870TIP3    H220554   4.935   0.144   4.749
 6871TIP3   OH220555   4.778   3.878   6.560
 6871TIP3    H120556   4.770   3.793   6.604
 6871TIP3    H220557   4.701   3.927   6.587
 6872TIP3   OH220558   0.771   4.231   0.588
 6872TIP3    H120559   0.722   4.312   0.571
 6872TIP3    H220560   0.843   4.234   0.525
 6873TIP3   OH220561   5.024   1.179   0.406
 6873TIP3    H120562   4.953   1.179   0.342
 6873TIP3    H220563   5.084   1.111   0.376
 6874TIP3   OH220564   6.735   6.482   1.231
 6874TIP3    H120565   6.694   6.566   1.209
 6874TIP3    H220566   6.755   6.489   1.325
 6875TIP3   OH220567   0.940   3.011   6.515
 6875TIP3    H120568   0.932   2.930   6.463
 6875TIP3    H220569   0.880   2.998   6.588
 6876TIP3   OH220570   6.550   4.931   0.714
 6876TIP3    H120571   6.461   4.942   0.678
 6876TIP3    H220572   6.557   4.837   0.732
 6877TIP3   OH220573   7.793   2.744   0.078
 6877TIP3    H120574   7.723   2.809   0.086
 6877TIP3    H220575   7.774   2.698  -0.003
 6878TIP3   OH220576   4.103   6.706   3.429
 6878TIP3    H120577   4.177   6.678   3.483
 6878TIP3    H220578   4.128   6.793   3.397
 6879TIP3   OH220579   5.206   3.494   2.020
 6879TIP3    H120580   5.182   3.507   1.928
 6879TIP3    H220581   5.281   3.552   2.034
 6880TIP3   OH220582   1.681   6.201   4.825
 6880TIP3    H120583   1.717   6.289   4.813
 6880TIP3    H220584   1.595   6.215   4.865
 6881TIP3   OH220585   0.721   2.753   5.275
 6881TIP3    H120586   0.677   2.711   5.350
 6881TIP3    H220587   0.651   2.767   5.211
 6882TIP3   OH220588   3.128   2.399   0.350
 6882TIP3    H120589   3.193   2.389   0.280
 6882TIP3    H220590   3.180   2.409   0.430
 6883TIP3   OH220591   4.191   4.135   6.137
 6883TIP3    H120592   4.101   4.148   6.108
 6883TIP3    H220593   4.239   4.115   6.057
 6884TIP3   OH220594   5.118   1.873   5.438
 6884TIP3    H120595   5.207   1.839   5.438
 6884TIP3    H220596   5.104   1.905   5.527
 6885TIP3   OH220597   6.623   0.907   5.884
 6885TIP3    H120598   6.610   0.888   5.791
 6885TIP3    H220599   6.584   0.993   5.897
 6886TIP3   OH220600   5.744   3.846   3.408
 6886TIP3    H120601   5.734   3.940   3.394
 6886TIP3    H220602   5.654   3.814   3.417
 6887TIP3   OH220603   3.636   6.519   5.152
 6887TIP3    H120604   3.610   6.429   5.170
 6887TIP3    H220605   3.731   6.515   5.140
 6888TIP3   OH220606   0.369   0.102   1.478
 6888TIP3    H120607   0.455   0.091   1.439
 6888TIP3    H220608   0.344   0.192   1.456
 6889TIP3   OH220609   2.406   2.676   2.746
 6889TIP3    H120610   2.497   2.655   2.765
 6889TIP3    H220611   2.370   2.596   2.708
 6890TIP3   OH220612   7.463   1.894   3.182
 6890TIP3    H120613   7.454   1.920   3.273
 6890TIP3    H220614   7.374   1.873   3.154
 6891TIP3   OH220615   0.418   5.850   5.945
 6891TIP3    H120616   0.459   5.873   5.861
 6891TIP3    H220617   0.490   5.849   6.007
 6892TIP3   OH220618   8.117   1.829   3.973
 6892TIP3    H120619   8.034   1.782   3.971
 6892TIP3    H220620   8.132   1.856   3.883
 6893TIP3   OH220621   7.942   3.766   0.926
 6893TIP3    H120622   7.857   3.806   0.908
 6893TIP3    H220623   7.995   3.784   0.849
 6894TIP3   OH220624   1.089   0.455   1.940
 6894TIP3    H120625   0.997   0.453   1.963
 6894TIP3    H220626   1.097   0.526   1.877
 6895TIP3   OH220627   4.462   2.552   3.912
 6895TIP3    H120628   4.546   2.565   3.955
 6895TIP3    H220629   4.485   2.516   3.826
 6896TIP3   OH220630   0.819   7.044   4.727
 6896TIP3    H120631   0.910   7.056   4.754
 6896TIP3    H220632   0.786   6.976   4.786
 6897TIP3   OH220633   1.907   0.389   1.039
 6897TIP3    H120634   1.950   0.416   1.120
 6897TIP3    H220635   1.822   0.432   1.041
 6898TIP3   OH220636   1.964   1.121   0.644
 6898TIP3    H120637   1.978   1.064   0.568
 6898TIP3    H220638   1.999   1.206   0.616
 6899TIP3   OH220639   0.099   2.634   1.439
 6899TIP3    H120640   0.134   2.698   1.377
 6899TIP3    H220641   0.118   2.549   1.399
 6900TIP3   OH220642   4.041   1.613   6.298
 6900TIP3    H120643   3.975   1.646   6.359
 6900TIP3    H220644   4.034   1.671   6.222
 6901TIP3   OH220645   3.165   0.499   5.991
 6901TIP3    H120646   3.141   0.426   5.934
 6901TIP3    H220647   3.188   0.570   5.931
 6902TIP3   OH220648   8.181   6.251   3.067
 6902TIP3    H120649   8.188   6.345   3.053
 6902TIP3    H220650   8.122   6.220   2.998
 6903TIP3   OH220651   3.493   7.689   2.152
 6903TIP3    H120652   3.492   7.642   2.236
 6903TIP3    H220653   3.586   7.702   2.132
 6904TIP3   OH220654   5.437   6.603   0.092
 6904TIP3    H120655   5.420   6.553   0.172
 6904TIP3    H220656   5.388   6.556   0.024
 6905TIP3   OH220657   3.328   1.729   1.536
 6905TIP3    H120658   3.360   1.778   1.461
 6905TIP3    H220659   3.407   1.693   1.577
 6906TIP3   OH220660   7.679   6.896   3.358
 6906TIP3    H120661   7.749   6.831   3.350
 6906TIP3    H220662   7.649   6.911   3.269
 6907TIP3   OH220663   5.778   3.742   2.270
 6907TIP3    H120664   5.716   3.815   2.273
 6907TIP3    H220665   5.774   3.711   2.180
 6908TIP3   OH220666   1.353   3.982   0.757
 6908TIP3    H120667   1.322   3.999   0.846
 6908TIP3    H220668   1.274   3.955   0.709
 6909TIP3   OH220669   6.984   4.919   0.838
 6909TIP3    H120670   7.074   4.892   0.822
 6909TIP3    H220671   6.942   4.914   0.752
 6910TIP3   OH220672   5.792   5.738   3.206
 6910TIP3    H120673   5.786   5.654   3.160
 6910TIP3    H220674   5.791   5.804   3.137
 6911TIP3   OH220675   2.044   4.414   0.466
 6911TIP3    H120676   2.058   4.491   0.410
 6911TIP3    H220677   1.981   4.360   0.417
 6912TIP3   OH220678   4.473   4.106   2.833
 6912TIP3    H120679   4.487   4.173   2.767
 6912TIP3    H220680   4.381   4.115   2.858
 6913TIP3   OH220681   2.838   2.124   0.028
 6913TIP3    H120682   2.899   2.075   0.084
 6913TIP3    H220683   2.894   2.184  -0.021
 6914TIP3   OH220684   7.234   7.211   6.300
 6914TIP3    H120685   7.321   7.219   6.261
 6914TIP3    H220686   7.225   7.290   6.354
 6915TIP3   OH220687   5.307   6.778   3.380
 6915TIP3    H120688   5.356   6.860   3.391
 6915TIP3    H220689   5.241   6.799   3.314
 6916TIP3   OH220690   6.554   3.011   1.105
 6916TIP3    H120691   6.473   2.964   1.127
 6916TIP3    H220692   6.621   2.943   1.101
 6917TIP3   OH220693   6.836   3.190   3.286
 6917TIP3    H120694   6.761   3.235   3.325
 6917TIP3    H220695   6.908   3.208   3.347
 6918TIP3   OH220696   2.036   0.986   4.813
 6918TIP3    H120697   2.104   0.919   4.825
 6918TIP3    H220698   2.057   1.053   4.877
 6919TIP3   OH220699   3.380   2.624   0.906
 6919TIP3    H120700   3.431   2.626   0.825
 6919TIP3    H220701   3.446   2.615   0.975
 6920TIP3   OH220702   1.964   5.570   1.567
 6920TIP3    H120703   1.939   5.662   1.565
 6920TIP3    H220704   1.891   5.524   1.525
 6921TIP3   OH220705   1.061   3.273   3.669
 6921TIP3    H120706   1.019   3.293   3.586
 6921TIP3    H220707   1.152   3.252   3.645
 6922TIP3   OH220708   2.224   0.499   4.389
 6922TIP3    H120709   2.252   0.457   4.307
 6922TIP3    H220710   2.139   0.537   4.369
 6923TIP3   OH220711   3.193   3.689   1.259
 6923TIP3    H120712   3.266   3.659   1.313
 6923TIP3    H220713   3.138   3.740   1.318
 6924TIP3   OH220714   7.286   7.864   0.672
 6924TIP3    H120715   7.306   7.773   0.696
 6924TIP3    H220716   7.367   7.897   0.634
 6925TIP3   OH220717   5.896   7.306   3.624
 6925TIP3    H120718   5.918   7.250   3.549
 6925TIP3    H220719   5.891   7.246   3.698
 6926TIP3   OH220720   0.707   6.227   0.058
 6926TIP3    H120721   0.722   6.160   0.125
 6926TIP3    H220722   0.727   6.183  -0.025
 6927TIP3   OH220723   6.753   1.085   5.605
 6927TIP3    H120724   6.802   1.062   5.684
 6927TIP3    H220725   6.666   1.110   5.638
 6928TIP3   OH220726   6.519   3.903   4.072
 6928TIP3    H120727   6.435   3.858   4.058
 6928TIP3    H220728   6.553   3.866   4.153
 6929TIP3   OH220729   5.229   4.066   1.965
 6929TIP3    H120730   5.147   4.086   1.919
 6929TIP3    H220731   5.295   4.121   1.923
 6930TIP3   OH220732   4.007   1.692   5.800
 6930TIP3    H120733   4.047   1.760   5.745
 6930TIP3    H220734   3.913   1.708   5.793
 6931TIP3   OH220735   0.891   5.539   3.566
 6931TIP3    H120736   0.820   5.597   3.596
 6931TIP3    H220737   0.900   5.474   3.635
 6932TIP3   OH220738   5.311   5.016   1.890
 6932TIP3    H120739   5.370   4.942   1.876
 6932TIP3    H220740   5.263   5.026   1.808
 6933TIP3   OH220741   8.031   1.988   4.637
 6933TIP3    H120742   8.088   2.038   4.579
 6933TIP3    H220743   7.951   2.041   4.645
 6934TIP3   OH220744   8.145   5.089   6.095
 6934TIP3    H120745   8.062   5.068   6.139
 6934TIP3    H220746   8.209   5.031   6.136
 6935TIP3   OH220747   4.149   6.447   2.970
 6935TIP3    H120748   4.205   6.506   3.019
 6935TIP3    H220749   4.180   6.453   2.880
 6936TIP3   OH220750   5.794   0.215   5.451
 6936TIP3    H120751   5.837   0.138   5.487
 6936TIP3    H220752   5.858   0.251   5.389
 6937TIP3   OH220753   7.137   1.064   1.392
 6937TIP3    H120754   7.104   1.054   1.303
 6937TIP3    H220755   7.062   1.097   1.442
 6938TIP3   OH220756   0.491   0.434   5.758
 6938TIP3    H120757   0.406   0.449   5.717
 6938TIP3    H220758   0.552   0.486   5.706
 6939TIP3   OH220759   6.520   7.442   0.529
 6939TIP3    H120760   6.606   7.478   0.506
 6939TIP3    H220761   6.473   7.516   0.569
 6940TIP3   OH220762   1.789   3.566   4.312
 6940TIP3    H120763   1.696   3.578   4.293
 6940TIP3    H220764   1.806   3.626   4.385
 6941TIP3   OH220765   6.360   7.196   4.017
 6941TIP3    H120766   6.332   7.214   3.928
 6941TIP3    H220767   6.456   7.190   4.012
 6942TIP3   OH220768   2.857   6.490   3.907
 6942TIP3    H120769   2.823   6.486   3.818
 6942TIP3    H220770   2.913   6.413   3.915
 6943TIP3   OH220771   1.524   6.726   0.869
 6943TIP3    H120772   1.600   6.723   0.810
 6943TIP3    H220773   1.454   6.684   0.821
 6944TIP3   OH220774   4.064   0.422   0.998
 6944TIP3    H120775   4.012   0.382   1.067
 6944TIP3    H220776   4.126   0.353   0.973
 6945TIP3   OH220777   4.729   5.797   2.567
 6945TIP3    H120778   4.745   5.714   2.522
 6945TIP3    H220779   4.633   5.804   2.569
 6946TIP3   OH220780   5.840   0.200   5.921
 6946TIP3    H120781   5.751   0.171   5.900
 6946TIP3    H220782   5.859   0.158   6.005
 6947TIP3   OH220783   5.032   7.384   6.403
 6947TIP3    H120784   5.069   7.348   6.323
 6947TIP3    H220785   5.010   7.307   6.456
 6948TIP3   OH220786   7.336   4.333   3.162
 6948TIP3    H120787   7.278   4.262   3.191
 6948TIP3    H220788   7.404   4.289   3.111
 6949TIP3   OH220789   1.730   4.016   1.759
 6949TIP3    H120790   1.661   3.971   1.710
 6949TIP3    H220791   1.687   4.041   1.841
 6950TIP3   OH220792   5.611   4.237   6.526
 6950TIP3    H120793   5.694   4.222   6.481
 6950TIP3    H220794   5.568   4.306   6.476
 6951TIP3   OH220795   1.860   6.111   1.709
 6951TIP3    H120796   1.903   6.119   1.793
 6951TIP3    H220797   1.925   6.071   1.651
 6952TIP3   OH220798   4.913   0.411   1.854
 6952TIP3    H120799   4.875   0.336   1.899
 6952TIP3    H220800   4.964   0.456   1.922
 6953TIP3   OH220801   0.205   2.998   6.085
 6953TIP3    H120802   0.248   2.920   6.121
 6953TIP3    H220803   0.126   2.964   6.043
 6954TIP3   OH220804   0.518   5.020   2.382
 6954TIP3    H120805   0.527   5.091   2.446
 6954TIP3    H220806   0.485   4.946   2.433
 6955TIP3   OH220807   3.708   4.748   1.325
 6955TIP3    H120808   3.784   4.804   1.342
 6955TIP3    H220809   3.677   4.721   1.411
 6956TIP3   OH220810   6.526   1.156   0.459
 6956TIP3    H120811   6.436   1.187   0.451
 6956TIP3    H220812   6.580   1.234   0.442
 6957TIP3   OH220813   1.212   0.139   3.284
 6957TIP3    H120814   1.287   0.180   3.328
 6957TIP3    H220815   1.228   0.155   3.191
 6958TIP3   OH220816   6.410   3.053   5.453
 6958TIP3    H120817   6.391   3.100   5.371
 6958TIP3    H220818   6.432   2.964   5.425
 6959TIP3   OH220819   7.709   5.217   5.282
 6959TIP3    H120820   7.643   5.274   5.241
 6959TIP3    H220821   7.662   5.136   5.301
 6960TIP3   OH220822   7.499   4.471   1.581
 6960TIP3    H120823   7.574   4.415   1.561
 6960TIP3    H220824   7.442   4.417   1.635
 6961TIP3   OH220825   6.825   1.815   2.702
 6961TIP3    H120826   6.768   1.882   2.738
 6961TIP3    H220827   6.899   1.812   2.763
 6962TIP3   OH220828   4.899   1.364   3.692
 6962TIP3    H120829   4.951   1.284   3.686
 6962TIP3    H220830   4.832   1.343   3.758
 6963TIP3   OH220831   4.371   1.762   1.823
 6963TIP3    H120832   4.412   1.676   1.829
 6963TIP3    H220833   4.295   1.748   1.767
 6964TIP3   OH220834   6.690   3.374   6.711
 6964TIP3    H120835   6.671   3.351   6.803
 6964TIP3    H220836   6.749   3.449   6.717
 6965TIP3   OH220837   5.567   6.278   2.442
 6965TIP3    H120838   5.566   6.253   2.350
 6965TIP3    H220839   5.626   6.353   2.446
 6966TIP3   OH220840   3.688   4.547   5.456
 6966TIP3    H120841   3.596   4.521   5.468
 6966TIP3    H220842   3.735   4.465   5.445
 6967TIP3   OH220843   2.059   0.789   6.118
 6967TIP3    H120844   2.069   0.745   6.202
 6967TIP3    H220845   2.054   0.882   6.140
 6968TIP3   OH220846   2.573   5.976   0.692
 6968TIP3    H120847   2.557   6.060   0.735
 6968TIP3    H220848   2.576   5.913   0.764
 6969TIP3   OH220849   3.902   3.700   5.359
 6969TIP3    H120850   3.905   3.769   5.425
 6969TIP3    H220851   3.945   3.626   5.399
 6970TIP3   OH220852   7.399   7.754   1.125
 6970TIP3    H120853   7.395   7.826   1.189
 6970TIP3    H220854   7.342   7.687   1.161
 6971TIP3   OH220855   0.445   6.156   5.252
 6971TIP3    H120856   0.359   6.171   5.212
 6971TIP3    H220857   0.499   6.120   5.181
 6972TIP3   OH220858   4.105   7.170   6.051
 6972TIP3    H120859   4.042   7.106   6.084
 6972TIP3    H220860   4.175   7.118   6.013
 6973TIP3   OH220861   1.634   2.255   5.240
 6973TIP3    H120862   1.627   2.211   5.155
 6973TIP3    H220863   1.568   2.325   5.236
 6974TIP3   OH220864   6.289   7.585   2.517
 6974TIP3    H120865   6.375   7.606   2.480
 6974TIP3    H220866   6.280   7.645   2.591
 6975TIP3   OH220867   7.939   5.282   3.850
 6975TIP3    H120868   7.994   5.261   3.774
 6975TIP3    H220869   7.998   5.328   3.910
 6976TIP3   OH220870   3.515   2.713   4.204
 6976TIP3    H120871   3.595   2.759   4.181
 6976TIP3    H220872   3.504   2.728   4.298
 6977TIP3   OH220873   1.822   2.804   0.475
 6977TIP3    H120874   1.895   2.858   0.504
 6977TIP3    H220875   1.847   2.715   0.496
 6978TIP3   OH220876   1.063   6.347   6.457
 6978TIP3    H120877   1.131   6.381   6.515
 6978TIP3    H220878   1.067   6.404   6.380
 6979TIP3   OH220879   4.552   1.969   6.259
 6979TIP3    H120880   4.518   1.966   6.349
 6979TIP3    H220881   4.475   1.951   6.205
 6980TIP3   OH220882   4.340   5.603   5.742
 6980TIP3    H120883   4.329   5.686   5.790
 6980TIP3    H220884   4.260   5.594   5.691
 6981TIP3   OH220885   3.842   5.395   3.772
 6981TIP3    H120886   3.895   5.443   3.709
 6981TIP3    H220887   3.849   5.445   3.853
 6982TIP3   OH220888   2.549   1.115   1.997
 6982TIP3    H120889   2.588   1.030   2.017
 6982TIP3    H220890   2.533   1.113   1.903
 6983TIP3   OH220891   6.924   4.356   1.856
 6983TIP3    H120892   6.987   4.388   1.791
 6983TIP3    H220893   6.881   4.281   1.813
 6984TIP3   OH220894   5.715   0.511   2.545
 6984TIP3    H120895   5.797   0.474   2.512
 6984TIP3    H220896   5.722   0.504   2.640
 6985TIP3   OH220897   7.004   1.142   2.476
 6985TIP3    H120898   7.020   1.184   2.392
 6985TIP3    H220899   6.930   1.190   2.513
 6986TIP3   OH220900   7.785   2.528   6.639
 6986TIP3    H120901   7.692   2.512   6.650
 6986TIP3    H220902   7.816   2.547   6.728
 6987TIP3   OH220903   2.027   3.411   1.952
 6987TIP3    H120904   1.954   3.409   2.014
 6987TIP3    H220905   1.987   3.393   1.867
 6988TIP3   OH220906   5.106   3.244   3.503
 6988TIP3    H120907   5.077   3.275   3.417
 6988TIP3    H220908   5.195   3.278   3.512
 6989TIP3   OH220909   3.452   5.860   4.310
 6989TIP3    H120910   3.464   5.788   4.247
 6989TIP3    H220911   3.360   5.885   4.300
 6990TIP3   OH220912   3.875  -0.029   5.431
 6990TIP3    H120913   3.836   0.052   5.466
 6990TIP3    H220914   3.928  -0.063   5.503
 6991TIP3   OH220915   4.995   1.356   1.674
 6991TIP3    H120916   4.974   1.443   1.639
 6991TIP3    H220917   5.073   1.329   1.624
 6992TIP3   OH220918   5.816   6.129   5.596
 6992TIP3    H120919   5.910   6.146   5.594
 6992TIP3    H220920   5.789   6.147   5.686
 6993TIP3   OH220921   3.146   4.373   5.422
 6993TIP3    H120922   3.063   4.324   5.426
 6993TIP3    H220923   3.119   4.464   5.413
 6994TIP3   OH220924   2.472   5.746   2.375
 6994TIP3    H120925   2.441   5.701   2.454
 6994TIP3    H220926   2.520   5.679   2.326
 6995TIP3   OH220927   4.642   7.550   4.260
 6995TIP3    H120928   4.607   7.623   4.209
 6995TIP3    H220929   4.737   7.555   4.246
 6996TIP3   OH220930   8.235   2.298   2.560
 6996TIP3    H120931   8.149   2.270   2.529
 6996TIP3    H220932   8.295   2.234   2.523
 6997TIP3   OH220933   7.599   1.311   4.590
 6997TIP3    H120934   7.587   1.240   4.527
 6997TIP3    H220935   7.668   1.279   4.648
 6998TIP3   OH220936   5.712   0.081   1.748
 6998TIP3    H120937   5.769   0.150   1.713
 6998TIP3    H220938   5.659   0.125   1.814
 6999TIP3   OH220939   0.527   7.650   5.671
 6999TIP3    H120940   0.517   7.621   5.580
 6999TIP3    H220941   0.488   7.580   5.723
 7000TIP3   OH220942   8.242   3.207   1.793
 7000TIP3    H120943   8.166   3.167   1.837
 7000TIP3    H220944   8.300   3.233   1.865
 7001TIP3   OH220945   3.187   0.782   3.347
 7001TIP3    H120946   3.140   0.807   3.267
 7001TIP3    H220947   3.231   0.700   3.325
 7002TIP3   OH220948   3.569   2.029   6.089
 7002TIP3    H120949   3.621   2.087   6.034
 7002TIP3    H220950   3.480   2.036   6.053
 7003TIP3   OH220951   2.476   6.501   6.643
 7003TIP3    H120952   2.489   6.574   6.583
 7003TIP3    H220953   2.546   6.509   6.707
 7004TIP3   OH220954   5.648   1.390   6.297
 7004TIP3    H120955   5.626   1.483   6.289
 7004TIP3    H220956   5.659   1.360   6.206
 7005TIP3   OH220957   0.134   4.826   6.233
 7005TIP3    H120958   0.064   4.780   6.186
 7005TIP3    H220959   0.187   4.866   6.163
 7006TIP3   OH220960   3.684   3.135   5.011
 7006TIP3    H120961   3.671   3.054   5.061
 7006TIP3    H220962   3.623   3.197   5.051
 7007TIP3   OH220963   5.780   4.794   3.290
 7007TIP3    H120964   5.837   4.747   3.350
 7007TIP3    H220965   5.729   4.725   3.247
 7008TIP3   OH220966   4.077   1.920   5.607
 7008TIP3    H120967   4.023   1.881   5.537
 7008TIP3    H220968   4.136   1.979   5.561
 7009TIP3   OH220969   4.992   7.293   6.067
 7009TIP3    H120970   4.906   7.252   6.067
 7009TIP3    H220971   5.053   7.220   6.063
 7010TIP3   OH220972   3.905   0.796   5.184
 7010TIP3    H120973   3.811   0.782   5.196
 7010TIP3    H220974   3.925   0.875   5.235
 7011TIP3   OH220975   7.565   0.271   2.686
 7011TIP3    H120976   7.578   0.309   2.772
 7011TIP3    H220977   7.507   0.332   2.641
 7012TIP3   OH220978   8.079   0.862   1.596
 7012TIP3    H120979   8.026   0.791   1.632
 7012TIP3    H220980   8.016   0.923   1.558
 7013TIP3   OH220981   7.989   5.149   2.492
 7013TIP3    H120982   7.949   5.062   2.484
 7013TIP3    H220983   8.082   5.131   2.509
 7014TIP3   OH220984   4.813   7.471   3.867
 7014TIP3    H120985   4.724   7.440   3.853
 7014TIP3    H220986   4.846   7.492   3.780
 7015TIP3   OH220987   2.269   5.804   0.704
 7015TIP3    H120988   2.355   5.832   0.671
 7015TIP3    H220989   2.275   5.812   0.799
 7016TIP3   OH220990   4.611   7.146   4.593
 7016TIP3    H120991   4.677   7.082   4.568
 7016TIP3    H220992   4.531   7.095   4.606
 7017TIP3   OH220993   0.130   6.872   3.640
 7017TIP3    H120994   0.217   6.835   3.650
 7017TIP3    H220995   0.120   6.931   3.714
 7018TIP3   OH220996   7.385   0.494   5.374
 7018TIP3    H120997   7.415   0.540   5.296
 7018TIP3    H220998   7.459   0.501   5.435
 7019TIP3   OH220999   1.724   6.498   1.879
 7019TIP3    H121000   1.679   6.414   1.867
 7019TIP3    H221001   1.659   6.554   1.922
 7020TIP3   OH221002   8.150   1.957   6.736
 7020TIP3    H121003   8.197   1.890   6.686
 7020TIP3    H221004   8.128   1.915   6.819
 7021TIP3   OH221005   1.635   0.278   5.757
 7021TIP3    H121006   1.721   0.309   5.787
 7021TIP3    H221007   1.644   0.183   5.752
 7022TIP3   OH221008   5.771   5.270   4.908
 7022TIP3    H121009   5.777   5.190   4.959
 7022TIP3    H221010   5.816   5.249   4.826
 7023TIP3   OH221011   3.435   6.867   0.895
 7023TIP3    H121012   3.502   6.873   0.964
 7023TIP3    H221013   3.371   6.804   0.929
 7024TIP3   OH221014   5.799   4.307   0.565
 7024TIP3    H121015   5.713   4.323   0.526
 7024TIP3    H221016   5.802   4.212   0.575
 7025TIP3   OH221017   1.421   7.536   3.957
 7025TIP3    H121018   1.331   7.515   3.984
 7025TIP3    H221019   1.452   7.455   3.915
 7026TIP3   OH221020   5.736   5.658   4.978
 7026TIP3    H121021   5.777   5.575   5.003
 7026TIP3    H221022   5.693   5.688   5.058
 7027TIP3   OH221023   6.402   4.122   1.124
 7027TIP3    H121024   6.337   4.186   1.153
 7027TIP3    H221025   6.479   4.175   1.100
 7028TIP3   OH221026   5.613   4.799   2.928
 7028TIP3    H121027   5.564   4.756   2.998
 7028TIP3    H221028   5.704   4.795   2.956
 7029TIP3   OH221029   0.752   3.806   6.283
 7029TIP3    H121030   0.814   3.856   6.230
 7029TIP3    H221031   0.684   3.868   6.307
 7030TIP3   OH221032   2.518   3.366   2.990
 7030TIP3    H121033   2.431   3.342   3.023
 7030TIP3    H221034   2.545   3.291   2.937
 7031TIP3   OH221035   3.387   5.120   4.701
 7031TIP3    H121036   3.402   5.207   4.663
 7031TIP3    H221037   3.451   5.064   4.658
 7032TIP3   OH221038   3.745   5.949   4.317
 7032TIP3    H121039   3.739   6.045   4.320
 7032TIP3    H221040   3.656   5.920   4.300
 7033TIP3   OH221041   5.548   0.899   6.399
 7033TIP3    H121042   5.582   0.988   6.400
 7033TIP3    H221043   5.566   0.867   6.310
 7034TIP3   OH221044   1.772   5.533   6.484
 7034TIP3    H121045   1.775   5.623   6.517
 7034TIP3    H221046   1.690   5.529   6.434
 7035TIP3   OH221047   0.690   7.481   0.528
 7035TIP3    H121048   0.715   7.533   0.452
 7035TIP3    H221049   0.620   7.531   0.569
 7036TIP3   OH221050   4.971   6.924   1.867
 7036TIP3    H121051   4.943   6.989   1.803
 7036TIP3    H221052   5.066   6.931   1.869
 7037TIP3   OH221053   2.665   5.887   2.836
 7037TIP3    H121054   2.680   5.796   2.810
 7037TIP3    H221055   2.692   5.891   2.928
 7038TIP3   OH221056   6.235   0.776   4.019
 7038TIP3    H121057   6.268   0.828   3.945
 7038TIP3    H221058   6.153   0.739   3.986
 7039TIP3   OH221059   3.904   2.038   0.520
 7039TIP3    H121060   3.884   2.052   0.612
 7039TIP3    H221061   3.993   2.001   0.520
 7040TIP3   OH221062   8.203   3.997   1.214
 7040TIP3    H121063   8.215   3.904   1.231
 7040TIP3    H221064   8.109   4.011   1.225
 7041TIP3   OH221065   1.440   0.624   0.072
 7041TIP3    H121066   1.419   0.717   0.069
 7041TIP3    H221067   1.423   0.593  -0.017
 7042TIP3   OH221068   0.326   5.406   0.074
 7042TIP3    H121069   0.326   5.379   0.165
 7042TIP3    H221070   0.253   5.467   0.067
 7043TIP3   OH221071   0.366   2.946   5.449
 7043TIP3    H121072   0.434   2.920   5.511
 7043TIP3    H221073   0.292   2.889   5.469
 7044TIP3   OH221074   5.012   2.762   4.502
 7044TIP3    H121075   5.077   2.832   4.502
 7044TIP3    H221076   5.060   2.685   4.534
 7045TIP3   OH221077   2.253   4.578   0.934
 7045TIP3    H121078   2.182   4.558   0.873
 7045TIP3    H221079   2.209   4.612   1.012
 7046TIP3   OH221080   3.196   3.390   4.106
 7046TIP3    H121081   3.270   3.418   4.160
 7046TIP3    H221082   3.150   3.472   4.085
 7047TIP3   OH221083   2.533   6.341   3.369
 7047TIP3    H121084   2.451   6.388   3.352
 7047TIP3    H221085   2.538   6.335   3.464
 7048TIP3   OH221086   3.925   2.195   5.406
 7048TIP3    H121087   3.892   2.276   5.444
 7048TIP3    H221088   4.014   2.186   5.441
 7049TIP3   OH221089   7.949   2.380   2.148
 7049TIP3    H121090   7.886   2.412   2.084
 7049TIP3    H221091   7.925   2.425   2.229
 7050TIP3   OH221092   0.001   2.552   5.605
 7050TIP3    H121093  -0.060   2.624   5.587
 7050TIP3    H221094   0.037   2.572   5.692
 7051TIP3   OH221095   6.307   2.721   4.874
 7051TIP3    H121096   6.264   2.637   4.888
 7051TIP3    H221097   6.401   2.701   4.885
 7052TIP3   OH221098   3.163   5.651   3.645
 7052TIP3    H121099   3.161   5.739   3.683
 7052TIP3    H221100   3.083   5.646   3.591
 7053TIP3   OH221101   5.917   0.448   3.885
 7053TIP3    H121102   5.970   0.521   3.917
 7053TIP3    H221103   5.846   0.490   3.836
 7054TIP3   OH221104   0.376   1.841   2.160
 7054TIP3    H121105   0.447   1.787   2.194
 7054TIP3    H221106   0.419   1.913   2.115
 7055TIP3   OH221107   4.613   7.440   6.544
 7055TIP3    H121108   4.518   7.434   6.533
 7055TIP3    H221109   4.631   7.395   6.627
 7056TIP3   OH221110   6.542   1.745   3.948
 7056TIP3    H121111   6.629   1.757   3.909
 7056TIP3    H221112   6.526   1.651   3.940
 7057TIP3   OH221113   2.341   2.664   4.913
 7057TIP3    H121114   2.429   2.643   4.943
 7057TIP3    H221115   2.350   2.675   4.818
 7058TIP3   OH221116   5.154   7.483   3.640
 7058TIP3    H121117   5.072   7.533   3.641
 7058TIP3    H221118   5.151   7.434   3.558
 7059TIP3   OH221119   5.758   1.137   5.444
 7059TIP3    H121120   5.721   1.050   5.428
 7059TIP3    H221121   5.813   1.125   5.521
 7060TIP3   OH221122   4.477   6.905   0.084
 7060TIP3    H121123   4.478   6.857   0.001
 7060TIP3    H221124   4.481   6.997   0.058
 7061TIP3   OH221125   1.883   2.197   5.363
 7061TIP3    H121126   1.850   2.139   5.432
 7061TIP3    H221127   1.805   2.227   5.318
 7062TIP3   OH221128   3.983   1.802   6.645
 7062TIP3    H121129   3.977   1.733   6.579
 7062TIP3    H221130   3.903   1.853   6.635
 7063TIP3   OH221131   2.903   6.576   2.719
 7063TIP3    H121132   2.863   6.506   2.771
 7063TIP3    H221133   2.855   6.655   2.746
 7064TIP3   OH221134   8.242   7.522   4.064
 7064TIP3    H121135   8.220   7.429   4.057
 7064TIP3    H221136   8.157   7.567   4.057
 7065TIP3   OH221137   2.592   6.805   0.390
 7065TIP3    H121138   2.515   6.834   0.341
 7065TIP3    H221139   2.557   6.744   0.455
 7066TIP3   OH221140   2.221   3.507   6.043
 7066TIP3    H121141   2.177   3.589   6.021
 7066TIP3    H221142   2.165   3.466   6.108
 7067TIP3   OH221143   5.442   1.227   5.110
 7067TIP3    H121144   5.460   1.288   5.181
 7067TIP3    H221145   5.524   1.220   5.062
 7068TIP3   OH221146   7.097   2.280   5.060
 7068TIP3    H121147   7.022   2.224   5.078
 7068TIP3    H221148   7.173   2.221   5.060
 7069TIP3   OH221149   0.153   5.166   5.814
 7069TIP3    H121150   0.245   5.148   5.837
 7069TIP3    H221151   0.155   5.254   5.777
 7070TIP3   OH221152   4.336   3.887   3.856
 7070TIP3    H121153   4.240   3.884   3.852
 7070TIP3    H221154   4.358   3.979   3.848
 7071TIP3   OH221155   4.048   5.174   6.604
 7071TIP3    H121156   4.074   5.174   6.512
 7071TIP3    H221157   3.990   5.250   6.613
 7072TIP3   OH221158   6.303   0.263   2.315
 7072TIP3    H121159   6.313   0.318   2.393
 7072TIP3    H221160   6.344   0.179   2.339
 7073TIP3   OH221161   0.055   3.371   5.261
 7073TIP3    H121162   0.088   3.281   5.269
 7073TIP3    H221163  -0.037   3.365   5.285
 7074TIP3   OH221164   1.377   1.838   6.478
 7074TIP3    H121165   1.408   1.762   6.527
 7074TIP3    H221166   1.354   1.902   6.545
 7075TIP3   OH221167   3.128   4.146   5.770
 7075TIP3    H121168   3.083   4.230   5.767
 7075TIP3    H221169   3.195   4.158   5.838
 7076TIP3   OH221170   2.323   1.020   5.602
 7076TIP3    H121171   2.349   1.097   5.552
 7076TIP3    H221172   2.401   0.999   5.654
 7077TIP3   OH221173   3.244   6.866   3.907
 7077TIP3    H121174   3.263   6.959   3.898
 7077TIP3    H221175   3.168   6.851   3.851
 7078TIP3   OH221176   7.088   7.105   4.877
 7078TIP3    H121177   7.096   7.130   4.785
 7078TIP3    H221178   7.129   7.178   4.924
 7079TIP3   OH221179   5.530   1.221   2.967
 7079TIP3    H121180   5.591   1.174   2.910
 7079TIP3    H221181   5.519   1.306   2.926
 7080TIP3   OH221182   6.958   0.906   2.328
 7080TIP3    H121183   6.986   0.984   2.375
 7080TIP3    H221184   7.032   0.845   2.336
 7081TIP3   OH221185   3.778   5.377   2.857
 7081TIP3    H121186   3.790   5.293   2.813
 7081TIP3    H221187   3.684   5.383   2.872
 7082TIP3   OH221188   6.749   7.542   2.995
 7082TIP3    H121189   6.723   7.612   3.055
 7082TIP3    H221190   6.779   7.588   2.916
 7083TIP3   OH221191   5.408   6.757   2.036
 7083TIP3    H121192   5.457   6.751   1.954
 7083TIP3    H221193   5.473   6.740   2.104
 7084TIP3   OH221194   0.907   7.796   3.829
 7084TIP3    H121195   0.928   7.858   3.759
 7084TIP3    H221196   0.811   7.799   3.835
 7085TIP3   OH221197   1.047   4.351   5.720
 7085TIP3    H121198   1.049   4.340   5.815
 7085TIP3    H221199   1.097   4.276   5.687
 7086TIP3   OH221200   6.799   1.997   3.440
 7086TIP3    H121201   6.837   2.081   3.466
 7086TIP3    H221202   6.740   2.018   3.368
 7087TIP3   OH221203   3.875   6.802   5.733
 7087TIP3    H121204   3.907   6.759   5.813
 7087TIP3    H221205   3.865   6.730   5.671
 7088TIP3   OH221206   7.311   0.801   4.686
 7088TIP3    H121207   7.235   0.849   4.719
 7088TIP3    H221208   7.302   0.805   4.591
 7089TIP3   OH221209   5.949   7.079   2.460
 7089TIP3    H121210   6.042   7.100   2.447
 7089TIP3    H221211   5.915   7.151   2.513
 7090TIP3   OH221212   0.079   3.168   1.434
 7090TIP3    H121213   0.027   3.230   1.383
 7090TIP3    H221214   0.166   3.172   1.395
 7091TIP3   OH221215   2.669   7.212   0.374
 7091TIP3    H121216   2.651   7.241   0.464
 7091TIP3    H221217   2.764   7.205   0.371
 7092TIP3   OH221218   7.237   0.757   5.618
 7092TIP3    H121219   7.182   0.708   5.557
 7092TIP3    H221220   7.297   0.692   5.654
 7093TIP3   OH221221   6.563   2.874   6.188
 7093TIP3    H121222   6.635   2.813   6.200
 7093TIP3    H221223   6.515   2.841   6.112
 7094TIP3   OH221224   6.267   1.669   0.396
 7094TIP3    H121225   6.263   1.762   0.374
 7094TIP3    H221226   6.192   1.630   0.352
 7095TIP3   OH221227   1.812   0.686   2.941
 7095TIP3    H121228   1.884   0.627   2.922
 7095TIP3    H221229   1.778   0.656   3.025
 7096TIP3   OH221230   6.254   0.079   0.496
 7096TIP3    H121231   6.317   0.090   0.567
 7096TIP3    H221232   6.241   0.167   0.462
 7097TIP3   OH221233   2.482   5.135   6.061
 7097TIP3    H121234   2.539   5.081   6.116
 7097TIP3    H221235   2.401   5.086   6.054
 7098TIP3   OH221236   7.842   1.052   1.515
 7098TIP3    H121237   7.854   1.144   1.537
 7098TIP3    H221238   7.814   1.053   1.423
 7099TIP3   OH221239   5.589   5.868   2.023
 7099TIP3    H121240   5.659   5.813   1.987
 7099TIP3    H221241   5.591   5.947   1.970
 7100TIP3   OH221242   4.103   7.708   3.034
 7100TIP3    H121243   4.105   7.658   2.953
 7100TIP3    H221244   4.176   7.769   3.027
 7101TIP3   OH221245   6.188   0.784   2.819
 7101TIP3    H121246   6.248   0.735   2.875
 7101TIP3    H221247   6.243   0.815   2.747
 7102TIP3   OH221248   3.421   4.230   0.316
 7102TIP3    H121249   3.335   4.219   0.277
 7102TIP3    H221250   3.412   4.194   0.405
 7103TIP3   OH221251   2.775   2.820   1.656
 7103TIP3    H121252   2.861   2.862   1.664
 7103TIP3    H221253   2.712   2.893   1.665
 7104TIP3   OH221254   3.642   0.024   0.183
 7104TIP3    H121255   3.656  -0.040   0.113
 7104TIP3    H221256   3.588   0.092   0.142
 7105TIP3   OH221257   2.387   0.601   5.597
 7105TIP3    H121258   2.456   0.668   5.594
 7105TIP3    H221259   2.313   0.642   5.551
 7106TIP3   OH221260   1.567   6.379   5.146
 7106TIP3    H121261   1.644   6.405   5.095
 7106TIP3    H221262   1.600   6.312   5.206
 7107TIP3   OH221263   7.269   0.037   0.868
 7107TIP3    H121264   7.182   0.021   0.905
 7107TIP3    H221265   7.291   0.126   0.896
 7108TIP3   OH221266   1.475   5.470   6.365
 7108TIP3    H121267   1.496   5.445   6.275
 7108TIP3    H221268   1.418   5.400   6.397
 7109TIP3   OH221269   2.167   4.737   3.560
 7109TIP3    H121270   2.239   4.677   3.578
 7109TIP3    H221271   2.153   4.729   3.466
 7110TIP3   OH221272   3.735   5.568   0.680
 7110TIP3    H121273   3.688   5.651   0.684
 7110TIP3    H221274   3.791   5.568   0.758
 7111TIP3   OH221275   2.769   2.588   3.346
 7111TIP3    H121276   2.819   2.628   3.274
 7111TIP3    H221277   2.713   2.523   3.303
 7112TIP3   OH221278   0.398   0.944   0.929
 7112TIP3    H121279   0.448   0.902   1.000
 7112TIP3    H221280   0.431   0.904   0.849
 7113TIP3   OH221281   2.186   1.586   4.896
 7113TIP3    H121282   2.205   1.509   4.842
 7113TIP3    H221283   2.271   1.609   4.934
 7114TIP3   OH221284   1.582   3.413   0.432
 7114TIP3    H121285   1.552   3.332   0.473
 7114TIP3    H221286   1.650   3.446   0.491
 7115TIP3   OH221287   4.689   0.157   4.433
 7115TIP3    H121288   4.626   0.229   4.440
 7115TIP3    H221289   4.724   0.164   4.344
 7116TIP3   OH221290   3.235   7.729   6.505
 7116TIP3    H121291   3.189   7.710   6.587
 7116TIP3    H221292   3.233   7.824   6.498
 7117TIP3   OH221293   1.578   4.346   6.612
 7117TIP3    H121294   1.492   4.330   6.573
 7117TIP3    H221295   1.587   4.441   6.615
 7118TIP3   OH221296   1.246   6.136   0.819
 7118TIP3    H121297   1.334   6.104   0.837
 7118TIP3    H221298   1.235   6.125   0.724
 7119TIP3   OH221299   1.853   4.947   0.977
 7119TIP3    H121300   1.788   4.878   0.994
 7119TIP3    H221301   1.926   4.926   1.036
 7120TIP3   OH221302   4.938   6.126   0.334
 7120TIP3    H121303   4.958   6.220   0.330
 7120TIP3    H221304   4.912   6.104   0.244
 7121TIP3   OH221305   6.371   3.555   1.407
 7121TIP3    H121306   6.358   3.530   1.316
 7121TIP3    H221307   6.292   3.525   1.452
 7122TIP3   OH221308   5.960   5.254   4.034
 7122TIP3    H121309   5.893   5.221   3.974
 7122TIP3    H221310   5.942   5.209   4.117
 7123TIP3   OH221311   7.554   0.285   1.722
 7123TIP3    H121312   7.467   0.261   1.755
 7123TIP3    H221313   7.536   0.327   1.637
 7124TIP3   OH221314   5.846   3.069   6.075
 7124TIP3    H121315   5.847   3.125   5.997
 7124TIP3    H221316   5.933   3.031   6.078
 7125TIP3   OH221317   1.717   3.428   6.381
 7125TIP3    H121318   1.742   3.500   6.440
 7125TIP3    H221319   1.669   3.471   6.311
 7126TIP3   OH221320   6.832   2.588   2.375
 7126TIP3    H121321   6.819   2.496   2.395
 7126TIP3    H221322   6.744   2.622   2.358
 7127TIP3   OH221323   4.328   5.205   4.307
 7127TIP3    H121324   4.247   5.246   4.336
 7127TIP3    H221325   4.312   5.183   4.215
 7128TIP3   OH221326   3.417   2.298   3.782
 7128TIP3    H121327   3.448   2.331   3.698
 7128TIP3    H221328   3.334   2.344   3.797
 7129TIP3   OH221329   5.682   6.238   3.229
 7129TIP3    H121330   5.700   6.186   3.308
 7129TIP3    H221331   5.740   6.314   3.236
 7130TIP3   OH221332   2.459   0.712   1.848
 7130TIP3    H121333   2.395   0.783   1.849
 7130TIP3    H221334   2.540   0.752   1.819
 7131TIP3   OH221335   4.360   1.001   3.137
 7131TIP3    H121336   4.455   0.992   3.147
 7131TIP3    H221337   4.324   0.944   3.206
 7132TIP3   OH221338   3.270   7.237   1.400
 7132TIP3    H121339   3.198   7.252   1.461
 7132TIP3    H221340   3.345   7.215   1.455
 7133TIP3   OH221341   3.466   2.002   2.286
 7133TIP3    H121342   3.509   1.931   2.335
 7133TIP3    H221343   3.391   2.026   2.340
 7134TIP3   OH221344   3.763   2.826   4.147
 7134TIP3    H121345   3.722   2.911   4.162
 7134TIP3    H221346   3.791   2.797   4.233
 7135TIP3   OH221347   2.640   2.251   1.898
 7135TIP3    H121348   2.548   2.261   1.876
 7135TIP3    H221349   2.666   2.168   1.858
 7136TIP3   OH221350   7.545   4.441   0.186
 7136TIP3    H121351   7.481   4.414   0.121
 7136TIP3    H221352   7.623   4.390   0.167
 7137TIP3   OH221353   2.078   4.361   2.159
 7137TIP3    H121354   2.073   4.444   2.112
 7137TIP3    H221355   2.170   4.334   2.150
 7138TIP3   OH221356   7.415   4.073   2.392
 7138TIP3    H121357   7.391   4.159   2.426
 7138TIP3    H221358   7.377   4.070   2.304
 7139TIP3   OH221359   2.795   5.775   1.576
 7139TIP3    H121360   2.876   5.818   1.606
 7139TIP3    H221361   2.734   5.847   1.563
 7140TIP3   OH221362   5.417   0.275   5.780
 7140TIP3    H121363   5.350   0.309   5.840
 7140TIP3    H221364   5.371   0.209   5.729
 7141TIP3   OH221365   0.839   6.247   1.080
 7141TIP3    H121366   0.867   6.208   0.997
 7141TIP3    H221367   0.898   6.322   1.092
 7142TIP3   OH221368   7.745   7.475   4.287
 7142TIP3    H121369   7.811   7.472   4.357
 7142TIP3    H221370   7.697   7.556   4.304
 7143TIP3   OH221371   5.589   2.796   0.079
 7143TIP3    H121372   5.580   2.703   0.057
 7143TIP3    H221373   5.531   2.841   0.018
 7144TIP3   OH221374   1.477   6.044   2.000
 7144TIP3    H121375   1.548   6.097   2.035
 7144TIP3    H221376   1.482   5.962   2.050
 7145TIP3   OH221377   3.690   3.332   4.269
 7145TIP3    H121378   3.682   3.395   4.340
 7145TIP3    H221379   3.755   3.269   4.299
 7146TIP3   OH221380   2.868   6.417   4.407
 7146TIP3    H121381   2.797   6.416   4.342
 7146TIP3    H221382   2.868   6.507   4.440
 7147TIP3   OH221383   2.778   2.571   0.476
 7147TIP3    H121384   2.767   2.662   0.503
 7147TIP3    H221385   2.851   2.539   0.529
 7148TIP3   OH221386   5.389   1.394   3.859
 7148TIP3    H121387   5.470   1.389   3.910
 7148TIP3    H221388   5.326   1.341   3.909
 7149TIP3   OH221389   1.053   5.909   6.719
 7149TIP3    H121390   1.132   5.959   6.741
 7149TIP3    H221391   1.008   5.963   6.654
 7150TIP3   OH221392  -0.048   5.104   2.577
 7150TIP3    H121393  -0.029   5.196   2.599
 7150TIP3    H221394   0.038   5.061   2.579
 7151TIP3   OH221395   0.160   0.805   3.244
 7151TIP3    H121396   0.077   0.764   3.267
 7151TIP3    H221397   0.226   0.756   3.292
 7152TIP3   OH221398   2.962   1.175   6.350
 7152TIP3    H121399   2.984   1.265   6.375
 7152TIP3    H221400   3.011   1.121   6.411
 7153TIP3   OH221401   2.861   2.864   1.361
 7153TIP3    H121402   2.949   2.848   1.327
 7153TIP3    H221403   2.826   2.776   1.379
 7154TIP3   OH221404   5.350   5.832   5.082
 7154TIP3    H121405   5.369   5.853   4.990
 7154TIP3    H221406   5.349   5.917   5.126
 7155TIP3   OH221407   4.911   0.765   5.263
 7155TIP3    H121408   4.855   0.764   5.186
 7155TIP3    H221409   4.942   0.675   5.272
 7156TIP3   OH221410   6.701   4.018   2.913
 7156TIP3    H121411   6.785   4.031   2.958
 7156TIP3    H221412   6.637   4.009   2.983
 7157TIP3   OH221413   2.878  -0.016   0.759
 7157TIP3    H121414   2.880  -0.057   0.673
 7157TIP3    H221415   2.846   0.072   0.744
 7158TIP3   OH221416   3.737   0.167   2.425
 7158TIP3    H121417   3.719   0.222   2.349
 7158TIP3    H221418   3.816   0.204   2.465
 7159TIP3   OH221419   0.563   6.008   0.355
 7159TIP3    H121420   0.577   6.007   0.450
 7159TIP3    H221421   0.649   5.989   0.318
 7160TIP3   OH221422   3.905   7.029   4.241
 7160TIP3    H121423   3.866   7.108   4.278
 7160TIP3    H221424   3.999   7.049   4.235
 7161TIP3   OH221425   5.546   1.073   3.856
 7161TIP3    H121426   5.571   1.149   3.908
 7161TIP3    H221427   5.620   1.013   3.864
 7162TIP3   OH221428   5.918   1.104   2.043
 7162TIP3    H121429   5.953   1.045   1.976
 7162TIP3    H221430   5.993   1.123   2.099
 7163TIP3   OH221431   4.711   5.194   1.245
 7163TIP3    H121432   4.667   5.275   1.274
 7163TIP3    H221433   4.758   5.219   1.166
 7164TIP3   OH221434   3.535   1.448   4.625
 7164TIP3    H121435   3.538   1.529   4.575
 7164TIP3    H221436   3.463   1.461   4.687
 7165TIP3   OH221437   2.604   7.739   1.587
 7165TIP3    H121438   2.574   7.652   1.614
 7165TIP3    H221439   2.632   7.780   1.669
 7166TIP3   OH221440   4.354   6.970   0.778
 7166TIP3    H121441   4.258   6.973   0.774
 7166TIP3    H221442   4.380   6.935   0.692
 7167TIP3   OH221443   5.816   6.941   4.280
 7167TIP3    H121444   5.755   6.998   4.327
 7167TIP3    H221445   5.808   6.969   4.188
 7168TIP3   OH221446   6.234   6.262   1.372
 7168TIP3    H121447   6.307   6.201   1.383
 7168TIP3    H221448   6.196   6.239   1.288
 7169TIP3   OH221449   4.582   4.699   6.586
 7169TIP3    H121450   4.554   4.607   6.591
 7169TIP3    H221451   4.677   4.695   6.592
 7170TIP3   OH221452   4.880   1.610   1.590
 7170TIP3    H121453   4.882   1.669   1.665
 7170TIP3    H221454   4.911   1.664   1.517
 7171TIP3   OH221455   0.143   0.411   2.391
 7171TIP3    H121456   0.163   0.423   2.298
 7171TIP3    H221457   0.049   0.423   2.398
 7172TIP3   OH221458   7.350   2.257   2.649
 7172TIP3    H121459   7.400   2.209   2.584
 7172TIP3    H221460   7.382   2.347   2.643
 7173TIP3   OH221461   3.619   5.828   0.682
 7173TIP3    H121462   3.529   5.797   0.691
 7173TIP3    H221463   3.616   5.919   0.712
 7174TIP3   OH221464   4.438   5.271   1.325
 7174TIP3    H121465   4.401   5.188   1.356
 7174TIP3    H221466   4.462   5.318   1.405
 7175TIP3   OH221467   7.030   5.955   1.666
 7175TIP3    H121468   7.044   5.870   1.625
 7175TIP3    H221469   7.031   6.017   1.593
 7176TIP3   OH221470   1.643   6.978   2.236
 7176TIP3    H121471   1.730   6.955   2.206
 7176TIP3    H221472   1.648   7.072   2.255
 7177TIP3   OH221473   2.429  -0.038   5.011
 7177TIP3    H121474   2.476  -0.092   5.075
 7177TIP3    H221475   2.476   0.045   5.010
 7178TIP3   OH221476   3.930   2.780   2.274
 7178TIP3    H121477   4.002   2.748   2.327
 7178TIP3    H221478   3.924   2.718   2.201
 7179TIP3   OH221479   1.823   7.429   2.364
 7179TIP3    H121480   1.803   7.452   2.273
 7179TIP3    H221481   1.913   7.460   2.378
 7180TIP3   OH221482   7.767   6.650   1.623
 7180TIP3    H121483   7.849   6.686   1.590
 7180TIP3    H221484   7.712   6.727   1.639
 7181TIP3   OH221485   0.281   5.123   1.862
 7181TIP3    H121486   0.189   5.142   1.881
 7181TIP3    H221487   0.330   5.164   1.933
 7182TIP3   OH221488   3.149   3.884   2.097
 7182TIP3    H121489   3.059   3.912   2.112
 7182TIP3    H221490   3.155   3.873   2.002
 7183TIP3   OH221491   7.352   1.685   1.068
 7183TIP3    H121492   7.278   1.725   1.023
 7183TIP3    H221493   7.419   1.754   1.068
 7184TIP3   OH221494   6.078   4.042   2.010
 7184TIP3    H121495   6.150   4.105   1.997
 7184TIP3    H221496   6.091   4.009   2.099
 7185TIP3   OH221497   1.175   7.409   1.500
 7185TIP3    H121498   1.128   7.386   1.420
 7185TIP3    H221499   1.198   7.325   1.539
 7186TIP3   OH221500   2.791   5.152   3.084
 7186TIP3    H121501   2.743   5.172   3.003
 7186TIP3    H221502   2.871   5.203   3.079
 7187TIP3   OH221503   6.384   0.051   4.278
 7187TIP3    H121504   6.327   0.065   4.203
 7187TIP3    H221505   6.424   0.136   4.295
 7188TIP3   OH221506   6.794   3.828   6.451
 7188TIP3    H121507   6.736   3.852   6.524
 7188TIP3    H221508   6.744   3.851   6.373
 7189TIP3   OH221509   5.361   1.604   2.975
 7189TIP3    H121510   5.401   1.688   2.998
 7189TIP3    H221511   5.435   1.549   2.948
 7190TIP3   OH221512   3.455   1.572   1.259
 7190TIP3    H121513   3.378   1.551   1.312
 7190TIP3    H221514   3.424   1.638   1.197
 7191TIP3   OH221515   4.284   1.109   3.867
 7191TIP3    H121516   4.208   1.166   3.857
 7191TIP3    H221517   4.285   1.086   3.960
 7192TIP3   OH221518   0.270   5.686   0.517
 7192TIP3    H121519   0.283   5.772   0.478
 7192TIP3    H221520   0.186   5.656   0.482
 7193TIP3   OH221521   4.497   2.624   2.550
 7193TIP3    H121522   4.457   2.553   2.601
 7193TIP3    H221523   4.591   2.607   2.555
 7194TIP3   OH221524   8.274   0.808   4.419
 7194TIP3    H121525   8.198   0.751   4.408
 7194TIP3    H221526   8.261   0.878   4.355
 7195TIP3   OH221527   7.353   7.374   4.549
 7195TIP3    H121528   7.378   7.459   4.585
 7195TIP3    H221529   7.354   7.387   4.454
 7196TIP3   OH221530   8.325   3.566   0.432
 7196TIP3    H121531   8.297   3.607   0.351
 7196TIP3    H221532   8.406   3.520   0.410
 7197TIP3   OH221533   8.135   3.406   0.903
 7197TIP3    H121534   8.160   3.398   0.811
 7197TIP3    H221535   8.202   3.463   0.941
 7198TIP3   OH221536   7.876   7.488   1.119
 7198TIP3    H121537   7.935   7.544   1.067
 7198TIP3    H221538   7.923   7.405   1.126
 7199TIP3   OH221539   5.519   5.482   5.935
 7199TIP3    H121540   5.430   5.498   5.968
 7199TIP3    H221541   5.575   5.535   5.991
 7200TIP3   OH221542   0.758   6.620   1.282
 7200TIP3    H121543   0.770   6.709   1.313
 7200TIP3    H221544   0.838   6.601   1.233
 7201TIP3   OH221545   3.864   6.651   4.875
 7201TIP3    H121546   3.861   6.747   4.880
 7201TIP3    H221547   3.909   6.633   4.793
 7202TIP3   OH221548   3.881   4.350   2.757
 7202TIP3    H121549   3.962   4.344   2.706
 7202TIP3    H221550   3.875   4.443   2.782
 7203TIP3   OH221551   8.230   2.085   0.621
 7203TIP3    H121552   8.262   2.065   0.709
 7203TIP3    H221553   8.245   2.005   0.570
 7204TIP3   OH221554   7.459   3.401   4.073
 7204TIP3    H121555   7.373   3.438   4.090
 7204TIP3    H221556   7.512   3.474   4.042
 7205TIP3   OH221557   6.780   4.555   4.062
 7205TIP3    H121558   6.768   4.609   4.140
 7205TIP3    H221559   6.759   4.466   4.090
 7206TIP3   OH221560   6.870   6.532   6.437
 7206TIP3    H121561   6.918   6.492   6.509
 7206TIP3    H221562   6.796   6.577   6.479
 7207TIP3   OH221563   6.742   0.428   0.110
 7207TIP3    H121564   6.815   0.372   0.137
 7207TIP3    H221565   6.783   0.513   0.093
 7208TIP3   OH221566   6.304   3.692   0.927
 7208TIP3    H121567   6.222   3.741   0.939
 7208TIP3    H221568   6.368   3.759   0.904
 7209TIP3   OH221569   0.048   2.270   1.560
 7209TIP3    H121570   0.033   2.224   1.643
 7209TIP3    H221571  -0.019   2.339   1.558
 7210TIP3   OH221572   1.480   3.661   4.964
 7210TIP3    H121573   1.574   3.649   4.974
 7210TIP3    H221574   1.447   3.576   4.937
 7211TIP3   OH221575   8.087   2.168   5.075
 7211TIP3    H121576   8.127   2.132   4.996
 7211TIP3    H221577   8.107   2.261   5.072
 7212TIP3   OH221578   8.275   7.677   1.190
 7212TIP3    H121579   8.235   7.630   1.264
 7212TIP3    H221580   8.208   7.675   1.122
 7213TIP3   OH221581   5.932   4.662   5.714
 7213TIP3    H121582   5.960   4.715   5.788
 7213TIP3    H221583   5.996   4.681   5.645
 7214TIP3   OH221584   3.171   5.761   4.022
 7214TIP3    H121585   3.147   5.669   4.036
 7214TIP3    H221586   3.132   5.807   4.097
 7215TIP3   OH221587   1.091   7.735   2.989
 7215TIP3    H121588   1.012   7.716   3.039
 7215TIP3    H221589   1.142   7.792   3.046
 7216TIP3   OH221590   5.399   0.308   1.078
 7216TIP3    H121591   5.352   0.225   1.071
 7216TIP3    H221592   5.475   0.298   1.021
 7217TIP3   OH221593   1.740   6.181   1.455
 7217TIP3    H121594   1.757   6.160   1.547
 7217TIP3    H221595   1.649   6.210   1.453
 7218TIP3   OH221596   0.780   6.352   2.747
 7218TIP3    H121597   0.703   6.348   2.690
 7218TIP3    H221598   0.771   6.276   2.804
 7219TIP3   OH221599   7.389   3.190   6.587
 7219TIP3    H121600   7.442   3.142   6.524
 7219TIP3    H221601   7.300   3.185   6.552
 7220TIP3   OH221602   5.907   1.386   3.278
 7220TIP3    H121603   5.867   1.473   3.283
 7220TIP3    H221604   5.999   1.402   3.300
 7221TIP3   OH221605   0.191   2.298   5.059
 7221TIP3    H121606   0.264   2.239   5.080
 7221TIP3    H221607   0.204   2.320   4.966
 7222TIP3   OH221608   4.775   5.893   6.636
 7222TIP3    H121609   4.692   5.937   6.618
 7222TIP3    H221610   4.754   5.831   6.706
 7223TIP3   OH221611   4.007   5.078   0.377
 7223TIP3    H121612   3.997   5.021   0.453
 7223TIP3    H221613   3.918   5.111   0.360
 7224TIP3   OH221614   5.162   6.596   3.588
 7224TIP3    H121615   5.122   6.646   3.659
 7224TIP3    H221616   5.193   6.661   3.526
 7225TIP3   OH221617   0.223   5.184   0.522
 7225TIP3    H121618   0.134   5.159   0.498
 7225TIP3    H221619   0.257   5.111   0.573
 7226TIP3   OH221620   1.080   3.885   6.319
 7226TIP3    H121621   1.022   3.874   6.243
 7226TIP3    H221622   1.154   3.827   6.300
 7227TIP3   OH221623   3.645   0.479   6.139
 7227TIP3    H121624   3.677   0.398   6.100
 7227TIP3    H221625   3.576   0.509   6.080
 7228TIP3   OH221626   2.002   2.281   2.234
 7228TIP3    H121627   1.960   2.195   2.236
 7228TIP3    H221628   1.943   2.335   2.181
 7229TIP3   OH221629   4.641   2.126   0.810
 7229TIP3    H121630   4.679   2.146   0.724
 7229TIP3    H221631   4.695   2.175   0.872
 7230TIP3   OH221632   8.118   3.092   2.029
 7230TIP3    H121633   8.024   3.072   2.031
 7230TIP3    H221634   8.159   3.011   1.999
 7231TIP3   OH221635   4.660   0.671   6.114
 7231TIP3    H121636   4.628   0.759   6.096
 7231TIP3    H221637   4.590   0.629   6.164
 7232TIP3   OH221638   5.324   0.670   2.122
 7232TIP3    H121639   5.269   0.633   2.192
 7232TIP3    H221640   5.302   0.618   2.045
 7233TIP3   OH221641   3.628   0.945   2.752
 7233TIP3    H121642   3.656   0.897   2.674
 7233TIP3    H221643   3.673   0.902   2.824
 7234TIP3   OH221644   2.500   2.442   1.337
 7234TIP3    H121645   2.483   2.371   1.275
 7234TIP3    H221646   2.441   2.512   1.311
 7235TIP3   OH221647   6.222   4.638   2.624
 7235TIP3    H121648   6.200   4.695   2.698
 7235TIP3    H221649   6.317   4.626   2.631
 7236TIP3   OH221650   6.064   0.609   3.536
 7236TIP3    H121651   6.096   0.688   3.579
 7236TIP3    H221652   6.135   0.581   3.478
 7237TIP3   OH221653   7.032   7.437   0.577
 7237TIP3    H121654   7.029   7.405   0.667
 7237TIP3    H221655   6.947   7.477   0.562
 7238TIP3   OH221656   5.241   2.629   4.982
 7238TIP3    H121657   5.207   2.665   5.063
 7238TIP3    H221658   5.332   2.659   4.978
 7239TIP3   OH221659   6.226   3.246   4.546
 7239TIP3    H121660   6.209   3.237   4.640
 7239TIP3    H221661   6.318   3.272   4.541
 7240TIP3   OH221662   1.614   5.564   3.293
 7240TIP3    H121663   1.523   5.586   3.270
 7240TIP3    H221664   1.626   5.474   3.262
 7241TIP3   OH221665   0.155   0.855   6.224
 7241TIP3    H121666   0.200   0.906   6.292
 7241TIP3    H221667   0.070   0.897   6.215
 7242TIP3   OH221668   8.252   4.945   0.516
 7242TIP3    H121669   8.238   5.038   0.496
 7242TIP3    H221670   8.323   4.919   0.458
 7243TIP3   OH221671   0.244   4.415   0.107
 7243TIP3    H121672   0.284   4.398   0.192
 7243TIP3    H221673   0.316   4.403   0.044
 7244TIP3   OH221674   0.190   6.969   1.687
 7244TIP3    H121675   0.226   7.042   1.636
 7244TIP3    H221676   0.119   6.934   1.632
 7245TIP3   OH221677   4.357   4.692   2.628
 7245TIP3    H121678   4.287   4.716   2.567
 7245TIP3    H221679   4.393   4.776   2.656
 7246TIP3   OH221680   8.123   5.810   1.585
 7246TIP3    H121681   8.134   5.903   1.564
 7246TIP3    H221682   8.093   5.810   1.677
 7247TIP3   OH221683   6.873   6.925   0.620
 7247TIP3    H121684   6.862   6.955   0.530
 7247TIP3    H221685   6.838   6.836   0.620
 7248TIP3   OH221686   0.114   4.900   3.915
 7248TIP3    H121687   0.141   4.928   4.002
 7248TIP3    H221688   0.160   4.959   3.856
 7249TIP3   OH221689   1.125   5.313   1.969
 7249TIP3    H121690   1.133   5.360   1.886
 7249TIP3    H221691   1.103   5.381   2.033
 7250TIP3   OH221692   0.221   6.983   2.383
 7250TIP3    H121693   0.180   7.046   2.442
 7250TIP3    H221694   0.241   7.033   2.304
 7251TIP3   OH221695   1.568   1.244   5.526
 7251TIP3    H121696   1.506   1.172   5.541
 7251TIP3    H221697   1.530   1.318   5.573
 7252TIP3   OH221698   5.458   0.869   1.604
 7252TIP3    H121699   5.522   0.925   1.559
 7252TIP3    H221700   5.495   0.857   1.691
 7253TIP3   OH221701   7.258   0.779   4.147
 7253TIP3    H121702   7.282   0.769   4.055
 7253TIP3    H221703   7.163   0.772   4.148
 7254TIP3   OH221704   2.871   2.002   5.755
 7254TIP3    H121705   2.857   1.992   5.661
 7254TIP3    H221706   2.870   1.912   5.789
 7255TIP3   OH221707   2.806   7.483   6.546
 7255TIP3    H121708   2.738   7.547   6.527
 7255TIP3    H221709   2.795   7.415   6.480
 7256TIP3   OH221710   8.153   2.828   2.632
 7256TIP3    H121711   8.163   2.739   2.664
 7256TIP3    H221712   8.138   2.881   2.711
 7257TIP3   OH221713   0.572   6.367   5.469
 7257TIP3    H121714   0.651   6.336   5.514
 7257TIP3    H221715   0.558   6.302   5.399
 7258TIP3   OH221716   5.530   5.144   1.583
 7258TIP3    H121717   5.559   5.059   1.552
 7258TIP3    H221718   5.571   5.207   1.524
 7259TIP3   OH221719   7.745   7.643   4.758
 7259TIP3    H121720   7.678   7.711   4.769
 7259TIP3    H221721   7.827   7.690   4.752
 7260TIP3   OH221722   2.121   0.830   5.672
 7260TIP3    H121723   2.037   0.871   5.651
 7260TIP3    H221724   2.186   0.899   5.657
 7261TIP3   OH221725   4.360   5.723   0.685
 7261TIP3    H121726   4.416   5.799   0.698
 7261TIP3    H221727   4.373   5.698   0.593
 7262TIP3   OH221728   0.213   0.084   0.421
 7262TIP3    H121729   0.195   0.003   0.468
 7262TIP3    H221730   0.303   0.106   0.446
 7263TIP3   OH221731   7.163   6.689   4.602
 7263TIP3    H121732   7.210   6.771   4.589
 7263TIP3    H221733   7.071   6.715   4.607
 7264TIP3   OH221734   4.988   1.215   5.470
 7264TIP3    H121735   5.032   1.150   5.524
 7264TIP3    H221736   5.004   1.298   5.514
 7265TIP3   OH221737   3.810   6.208   3.113
 7265TIP3    H121738   3.774   6.292   3.144
 7265TIP3    H221739   3.752   6.142   3.151
 7266TIP3   OH221740   4.360   0.508   2.597
 7266TIP3    H121741   4.336   0.473   2.683
 7266TIP3    H221742   4.434   0.566   2.615
 7267TIP3   OH221743   3.314   0.441   4.926
 7267TIP3    H121744   3.364   0.478   4.999
 7267TIP3    H221745   3.239   0.499   4.916
 7268TIP3   OH221746   2.329   0.910   2.449
 7268TIP3    H121747   2.374   0.979   2.401
 7268TIP3    H221748   2.322   0.944   2.538
 7269TIP3   OH221749   7.448   5.671   5.128
 7269TIP3    H121750   7.420   5.701   5.215
 7269TIP3    H221751   7.424   5.578   5.127
 7270TIP3   OH221752   1.471   7.208   1.013
 7270TIP3    H121753   1.438   7.234   0.927
 7270TIP3    H221754   1.515   7.124   0.997
 7271TIP3   OH221755   0.981   7.776   1.402
 7271TIP3    H121756   1.001   7.704   1.461
 7271TIP3    H221757   1.040   7.846   1.428
 7272TIP3   OH221758   0.151   2.070   4.840
 7272TIP3    H121759   0.200   2.100   4.763
 7272TIP3    H221760   0.218   2.037   4.899
 7273TIP3   OH221761   0.892   3.916   0.567
 7273TIP3    H121762   0.837   3.888   0.493
 7273TIP3    H221763   0.932   3.997   0.538
 7274TIP3   OH221764   1.966   2.196   3.804
 7274TIP3    H121765   2.019   2.261   3.759
 7274TIP3    H221766   1.973   2.118   3.750
 7275TIP3   OH221767   5.723   5.363   0.286
 7275TIP3    H121768   5.716   5.268   0.276
 7275TIP3    H221769   5.775   5.376   0.365
 7276TIP3   OH221770   6.496   7.406   2.117
 7276TIP3    H121771   6.455   7.334   2.165
 7276TIP3    H221772   6.561   7.363   2.061
 7277TIP3   OH221773   4.665   0.923   4.528
 7277TIP3    H121774   4.693   1.008   4.562
 7277TIP3    H221775   4.695   0.923   4.437
 7278TIP3   OH221776   4.685   2.848   1.385
 7278TIP3    H121777   4.636   2.874   1.463
 7278TIP3    H221778   4.619   2.811   1.327
 7279TIP3   OH221779   2.089   3.549   1.028
 7279TIP3    H121780   2.098   3.571   0.936
 7279TIP3    H221781   2.117   3.628   1.074
 7280TIP3   OH221782   3.153   2.772   4.327
 7280TIP3    H121783   3.176   2.777   4.234
 7280TIP3    H221784   3.167   2.860   4.360
 7281TIP3   OH221785   0.932   3.207   5.057
 7281TIP3    H121786   0.928   3.142   5.127
 7281TIP3    H221787   0.979   3.281   5.094
 7282TIP3   OH221788   4.748   1.660   3.105
 7282TIP3    H121789   4.655   1.641   3.095
 7282TIP3    H221790   4.775   1.610   3.182
 7283TIP3   OH221791   7.197   0.619   0.556
 7283TIP3    H121792   7.284   0.631   0.519
 7283TIP3    H221793   7.148   0.697   0.530
 7284TIP3   OH221794   0.412   0.474   0.163
 7284TIP3    H121795   0.494   0.475   0.212
 7284TIP3    H221796   0.343   0.479   0.229
 7285TIP3   OH221797   5.914   0.366   1.519
 7285TIP3    H121798   5.872   0.360   1.605
 7285TIP3    H221799   5.918   0.276   1.488
 7286TIP3   OH221800   5.403   5.114   1.231
 7286TIP3    H121801   5.328   5.168   1.209
 7286TIP3    H221802   5.475   5.148   1.177
 7287TIP3   OH221803   1.391   6.245   3.604
 7287TIP3    H121804   1.357   6.251   3.693
 7287TIP3    H221805   1.323   6.285   3.550
 7288TIP3   OH221806   0.914   1.382   2.872
 7288TIP3    H121807   1.004   1.366   2.903
 7288TIP3    H221808   0.886   1.298   2.837
 7289TIP3   OH221809   4.924   3.589   2.099
 7289TIP3    H121810   5.000   3.555   2.051
 7289TIP3    H221811   4.860   3.518   2.097
 7290TIP3   OH221812   4.341   1.024   4.105
 7290TIP3    H121813   4.386   1.045   4.187
 7290TIP3    H221814   4.294   0.943   4.123
 7291TIP3   OH221815   6.336   4.400   4.700
 7291TIP3    H121816   6.246   4.404   4.667
 7291TIP3    H221817   6.362   4.492   4.708
 7292TIP3   OH221818   2.296   4.360   5.243
 7292TIP3    H121819   2.324   4.390   5.330
 7292TIP3    H221820   2.377   4.360   5.191
 7293TIP3   OH221821   6.463   1.504   2.494
 7293TIP3    H121822   6.555   1.509   2.522
 7293TIP3    H221823   6.425   1.435   2.549
 7294TIP3   OH221824   5.121   5.202   1.004
 7294TIP3    H121825   5.107   5.268   0.935
 7294TIP3    H221826   5.093   5.120   0.964
 7295TIP3   OH221827   4.726   6.218   4.672
 7295TIP3    H121828   4.639   6.219   4.630
 7295TIP3    H221829   4.787   6.202   4.600
 7296TIP3   OH221830   0.862   1.304   3.179
 7296TIP3    H121831   0.866   1.265   3.266
 7296TIP3    H221832   0.770   1.298   3.154
 7297TIP3   OH221833   3.512   2.171   5.370
 7297TIP3    H121834   3.464   2.251   5.349
 7297TIP3    H221835   3.486   2.109   5.302
 7298TIP3   OH221836   4.543   0.614   5.496
 7298TIP3    H121837   4.582   0.698   5.474
 7298TIP3    H221838   4.609   0.570   5.551
 7299TIP3   OH221839   5.018   7.554   1.871
 7299TIP3    H121840   5.096   7.602   1.843
 7299TIP3    H221841   5.051   7.487   1.930
 7300TIP3   OH221842   5.464   7.733   3.528
 7300TIP3    H121843   5.458   7.793   3.602
 7300TIP3    H221844   5.508   7.656   3.563
 7301TIP3   OH221845   1.343   2.245   4.719
 7301TIP3    H121846   1.344   2.159   4.761
 7301TIP3    H221847   1.408   2.238   4.649
 7302TIP3   OH221848   0.463   5.612   1.904
 7302TIP3    H121849   0.371   5.610   1.933
 7302TIP3    H221850   0.465   5.680   1.837
 7303TIP3   OH221851   6.723   6.634   2.110
 7303TIP3    H121852   6.742   6.601   2.198
 7303TIP3    H221853   6.760   6.569   2.051
 7304TIP3   OH221854   6.041   5.713   3.030
 7304TIP3    H121855   6.112   5.753   2.979
 7304TIP3    H221856   5.965   5.769   3.015
 7305TIP3   OH221857   2.794   0.854   4.193
 7305TIP3    H121858   2.794   0.893   4.106
 7305TIP3    H221859   2.753   0.920   4.249
 7306TIP3   OH221860   5.965   4.683   6.233
 7306TIP3    H121861   5.910   4.709   6.307
 7306TIP3    H221862   6.053   4.674   6.270
 7307TIP3   OH221863   3.537   6.378   0.750
 7307TIP3    H121864   3.595   6.377   0.674
 7307TIP3    H221865   3.461   6.429   0.722
 7308TIP3   OH221866   5.049   1.716   0.849
 7308TIP3    H121867   5.102   1.778   0.799
 7308TIP3    H221868   4.965   1.761   0.862
 7309TIP3   OH221869   5.724   1.246   0.959
 7309TIP3    H121870   5.673   1.273   0.883
 7309TIP3    H221871   5.672   1.274   1.035
 7310TIP3   OH221872   5.234   0.503   2.316
 7310TIP3    H121873   5.197   0.522   2.402
 7310TIP3    H221874   5.329   0.502   2.330
 7311TIP3   OH221875   3.292   0.141   5.599
 7311TIP3    H121876   3.295   0.045   5.606
 7311TIP3    H221877   3.265   0.157   5.508
 7312TIP3   OH221878   4.097   5.100   0.106
 7312TIP3    H121879   4.180   5.147   0.117
 7312TIP3    H221880   4.064   5.089   0.195
 7313TIP3   OH221881   5.105   0.116   4.158
 7313TIP3    H121882   5.065   0.074   4.235
 7313TIP3    H221883   5.031   0.142   4.104
 7314TIP3   OH221884   7.626   6.697   2.762
 7314TIP3    H121885   7.605   6.716   2.670
 7314TIP3    H221886   7.720   6.679   2.761
 7315TIP3   OH221887   4.511   5.089   4.593
 7315TIP3    H121888   4.444   5.062   4.530
 7315TIP3    H221889   4.590   5.041   4.566
 7316TIP3   OH221890   6.707   6.419   0.172
 7316TIP3    H121891   6.676   6.356   0.237
 7316TIP3    H221892   6.802   6.422   0.185
 7317TIP3   OH221893   3.004   6.215   5.053
 7317TIP3    H121894   3.026   6.280   5.120
 7317TIP3    H221895   3.052   6.244   4.976
 7318TIP3   OH221896   4.375   2.102   5.143
 7318TIP3    H121897   4.383   2.114   5.238
 7318TIP3    H221898   4.413   2.015   5.127
 7319TIP3   OH221899   7.949   6.568   5.120
 7319TIP3    H121900   7.992   6.553   5.203
 7319TIP3    H221901   7.887   6.639   5.138
 7320TIP3   OH221902   7.538   5.383   0.565
 7320TIP3    H121903   7.569   5.370   0.654
 7320TIP3    H221904   7.523   5.295   0.530
 7321TIP3   OH221905   0.255   1.809   2.427
 7321TIP3    H121906   0.289   1.831   2.514
 7321TIP3    H221907   0.330   1.821   2.369
 7322TIP3   OH221908   1.529   4.381   2.758
 7322TIP3    H121909   1.612   4.425   2.739
 7322TIP3    H221910   1.546   4.333   2.839
 7323TIP3   OH221911   1.607   1.840   3.475
 7323TIP3    H121912   1.575   1.928   3.492
 7323TIP3    H221913   1.699   1.841   3.503
 7324TIP3   OH221914   7.644   1.416   2.517
 7324TIP3    H121915   7.550   1.399   2.518
 7324TIP3    H221916   7.677   1.361   2.445
 7325TIP3   OH221917   1.505   2.492   2.117
 7325TIP3    H121918   1.499   2.462   2.026
 7325TIP3    H221919   1.463   2.422   2.168
 7326TIP3   OH221920   3.341   3.948   1.215
 7326TIP3    H121921   3.398   3.890   1.166
 7326TIP3    H221922   3.282   3.890   1.263
 7327TIP3   OH221923   2.215   6.099   2.843
 7327TIP3    H121924   2.139   6.045   2.864
 7327TIP3    H221925   2.263   6.048   2.778
 7328TIP3   OH221926   3.664   3.059   2.905
 7328TIP3    H121927   3.759   3.053   2.913
 7328TIP3    H221928   3.641   3.137   2.956
 7329TIP3   OH221929   0.194   2.769   3.625
 7329TIP3    H121930   0.162   2.858   3.606
 7329TIP3    H221931   0.289   2.775   3.616
 7330TIP3   OH221932   3.963   1.346   4.025
 7330TIP3    H121933   3.975   1.258   3.989
 7330TIP3    H221934   3.888   1.338   4.084
 7331TIP3   OH221935   2.094   1.728   4.092
 7331TIP3    H121936   2.045   1.809   4.104
 7331TIP3    H221937   2.161   1.749   4.028
 7332TIP3   OH221938   3.198   0.923   2.168
 7332TIP3    H121939   3.247   0.870   2.104
 7332TIP3    H221940   3.143   0.980   2.115
 7333TIP3   OH221941   3.929   2.318   4.751
 7333TIP3    H121942   3.905   2.233   4.714
 7333TIP3    H221943   3.887   2.382   4.693
 7334TIP3   OH221944   6.065   2.575   1.609
 7334TIP3    H121945   6.109   2.524   1.541
 7334TIP3    H221946   6.136   2.602   1.667
 7335TIP3   OH221947   4.111   3.999   5.719
 7335TIP3    H121948   4.101   3.949   5.800
 7335TIP3    H221949   4.083   4.088   5.742
 7336TIP3   OH221950   6.307   6.118   0.755
 7336TIP3    H121951   6.221   6.084   0.782
 7336TIP3    H221952   6.298   6.133   0.661
 7337TIP3   OH221953   7.891   5.013   0.351
 7337TIP3    H121954   7.799   5.001   0.326
 7337TIP3    H221955   7.937   4.941   0.309
 7338TIP3   OH221956   3.239   5.912   2.882
 7338TIP3    H121957   3.288   5.901   2.800
 7338TIP3    H221958   3.150   5.887   2.860
 7339TIP3   OH221959   5.824   3.080   2.597
 7339TIP3    H121960   5.860   3.083   2.508
 7339TIP3    H221961   5.812   2.986   2.614
 7340TIP3   OH221962   7.511   3.721   0.294
 7340TIP3    H121963   7.446   3.731   0.364
 7340TIP3    H221964   7.513   3.627   0.276
 7341TIP3   OH221965   2.103   2.355   5.416
 7341TIP3    H121966   2.190   2.320   5.433
 7341TIP3    H221967   2.047   2.277   5.408
 7342TIP3   OH221968   1.100   6.009   0.999
 7342TIP3    H121969   1.141   6.046   0.921
 7342TIP3    H221970   1.008   5.996   0.973
 7343TIP3   OH221971   6.408   4.560   1.115
 7343TIP3    H121972   6.414   4.645   1.071
 7343TIP3    H221973   6.376   4.581   1.203
 7344TIP3   OH221974   6.973   2.941   0.264
 7344TIP3    H121975   7.053   2.922   0.312
 7344TIP3    H221976   6.984   3.031   0.233
 7345TIP3   OH221977   4.328   3.090   6.117
 7345TIP3    H121978   4.387   3.091   6.042
 7345TIP3    H221979   4.240   3.083   6.078
 7346TIP3   OH221980   2.267   3.276   6.680
 7346TIP3    H121981   2.304   3.197   6.719
 7346TIP3    H221982   2.173   3.269   6.697
 7347TIP3   OH221983   2.801   1.525   2.394
 7347TIP3    H121984   2.806   1.449   2.452
 7347TIP3    H221985   2.761   1.594   2.447
 7348TIP3   OH221986   8.071   5.148   0.199
 7348TIP3    H121987   8.041   5.087   0.267
 7348TIP3    H221988   7.997   5.206   0.185
 7349TIP3   OH221989   1.265   0.970   4.371
 7349TIP3    H121990   1.276   1.000   4.461
 7349TIP3    H221991   1.312   0.887   4.368
 7350TIP3   OH221992   6.957   6.373   6.622
 7350TIP3    H121993   6.899   6.305   6.656
 7350TIP3    H221994   7.020   6.325   6.568
 7351TIP3   OH221995   0.501   3.383   0.349
 7351TIP3    H121996   0.592   3.402   0.374
 7351TIP3    H221997   0.509   3.316   0.281
 7352TIP3   OH221998   6.305   2.143   2.779
 7352TIP3    H121999   6.314   2.137   2.874
 7352TIP3    H222000   6.263   2.228   2.765
 7353TIP3   OH222001   6.504   4.913   4.717
 7353TIP3    H122002   6.484   4.999   4.679
 7353TIP3    H222003   6.553   4.934   4.797
 7354TIP3   OH222004   2.260   5.316   5.213
 7354TIP3    H122005   2.302   5.291   5.296
 7354TIP3    H222006   2.288   5.248   5.151
 7355TIP3   OH222007   3.357   2.179   6.253
 7355TIP3    H122008   3.329   2.092   6.222
 7355TIP3    H222009   3.412   2.160   6.329
 7356TIP3   OH222010   3.156   0.953   3.982
 7356TIP3    H122011   3.175   0.867   3.944
 7356TIP3    H222012   3.227   0.968   4.044
 7357TIP3   OH222013   4.162   5.109   3.981
 7357TIP3    H122014   4.209   5.037   4.024
 7357TIP3    H222015   4.224   5.182   3.981
 7358TIP3   OH222016   6.561   0.722   0.200
 7358TIP3    H122017   6.598   0.811   0.202
 7358TIP3    H222018   6.620   0.673   0.142
 7359TIP3   OH222019   6.114   6.463   3.707
 7359TIP3    H122020   6.156   6.500   3.785
 7359TIP3    H222021   6.088   6.375   3.734
 7360TIP3   OH222022   8.175   7.399   5.541
 7360TIP3    H122023   8.213   7.312   5.553
 7360TIP3    H222024   8.081   7.382   5.532
 7361TIP3   OH222025   7.901   3.967   5.317
 7361TIP3    H122026   7.938   3.879   5.316
 7361TIP3    H222027   7.885   3.986   5.409
 7362TIP3   OH222028   5.641   0.302   6.725
 7362TIP3    H122029   5.679   0.363   6.788
 7362TIP3    H222030   5.651   0.345   6.640
 7363TIP3   OH222031   8.251   4.620   6.064
 7363TIP3    H122032   8.171   4.599   6.016
 7363TIP3    H222033   8.310   4.657   5.998
 7364TIP3   OH222034   3.072   4.260   3.587
 7364TIP3    H122035   3.091   4.307   3.506
 7364TIP3    H222036   2.991   4.212   3.569
 7365TIP3   OH222037   7.408   0.325   6.036
 7365TIP3    H122038   7.365   0.247   6.069
 7365TIP3    H222039   7.372   0.397   6.089
 7366TIP3   OH222040   6.837   3.949   1.535
 7366TIP3    H122041   6.871   3.932   1.447
 7366TIP3    H222042   6.770   3.881   1.549
 7367TIP3   OH222043   4.183   3.985   1.870
 7367TIP3    H122044   4.147   4.072   1.854
 7367TIP3    H222045   4.259   3.979   1.813
 7368TIP3   OH222046   2.656   2.886   4.286
 7368TIP3    H122047   2.641   2.851   4.374
 7368TIP3    H222048   2.636   2.812   4.228
 7369TIP3   OH222049   0.808   0.510   4.590
 7369TIP3    H122050   0.727   0.506   4.540
 7369TIP3    H222051   0.829   0.603   4.596
 7370TIP3   OH222052   2.232   7.496   5.626
 7370TIP3    H122053   2.137   7.507   5.638
 7370TIP3    H222054   2.271   7.571   5.670
 7371TIP3   OH222055   3.969   0.695   4.414
 7371TIP3    H122056   4.036   0.655   4.470
 7371TIP3    H222057   3.950   0.627   4.348
 7372TIP3   OH222058   3.781   3.930   1.638
 7372TIP3    H122059   3.720   3.900   1.706
 7372TIP3    H222060   3.865   3.937   1.683
 7373TIP3   OH222061   3.807   0.407   0.634
 7373TIP3    H122062   3.794   0.457   0.553
 7373TIP3    H222063   3.724   0.362   0.648
 7374TIP3   OH222064   0.543   5.013   1.751
 7374TIP3    H122065   0.510   4.954   1.819
 7374TIP3    H222066   0.473   5.077   1.739
 7375TIP3   OH222067   7.852   0.543   1.190
 7375TIP3    H122068   7.797   0.589   1.126
 7375TIP3    H222069   7.897   0.614   1.237
 7376TIP3   OH222070   6.232   7.331   6.694
 7376TIP3    H122071   6.303   7.358   6.751
 7376TIP3    H222072   6.161   7.307   6.754
 7377TIP3   OH222073   4.240   2.946   1.145
 7377TIP3    H122074   4.260   3.010   1.076
 7377TIP3    H222075   4.275   2.987   1.225
 7378TIP3   OH222076   6.548   6.709   6.068
 7378TIP3    H122077   6.499   6.790   6.084
 7378TIP3    H222078   6.617   6.710   6.135
 7379TIP3   OH222079   7.432   2.266   0.217
 7379TIP3    H122080   7.448   2.172   0.206
 7379TIP3    H222081   7.515   2.308   0.194
 7380TIP3   OH222082   6.408   1.233   5.536
 7380TIP3    H122083   6.407   1.328   5.524
 7380TIP3    H222084   6.441   1.199   5.454
 7381TIP3   OH222085   6.441   2.348   5.845
 7381TIP3    H122086   6.356   2.352   5.800
 7381TIP3    H222087   6.503   2.320   5.778
 7382TIP3   OH222088   1.271   3.783   3.084
 7382TIP3    H122089   1.186   3.801   3.044
 7382TIP3    H222090   1.252   3.769   3.176
 7383TIP3   OH222091   6.148   0.069   5.269
 7383TIP3    H122092   6.229   0.118   5.256
 7383TIP3    H222093   6.081   0.136   5.286
 7384TIP3   OH222094   4.941   7.119   2.077
 7384TIP3    H122095   4.929   7.042   2.022
 7384TIP3    H222096   4.881   7.107   2.150
 7385TIP3   OH222097   5.999   7.631   3.498
 7385TIP3    H122098   5.904   7.629   3.514
 7385TIP3    H222099   6.007   7.616   3.404
 7386TIP3   OH222100   5.931   1.009   6.762
 7386TIP3    H122101   5.950   0.921   6.793
 7386TIP3    H222102   5.845   1.002   6.721
 7387TIP3   OH222103   3.103   2.694   0.364
 7387TIP3    H122104   3.135   2.769   0.413
 7387TIP3    H222105   3.060   2.638   0.429
 7388TIP3   OH222106   6.600   2.468   6.739
 7388TIP3    H122107   6.619   2.375   6.754
 7388TIP3    H222108   6.539   2.468   6.665
 7389TIP3   OH222109   6.527   0.926   4.568
 7389TIP3    H122110   6.479   0.909   4.487
 7389TIP3    H222111   6.505   1.017   4.590
 7390TIP3   OH222112   5.440   0.349   0.322
 7390TIP3    H122113   5.486   0.308   0.249
 7390TIP3    H222114   5.396   0.278   0.367
 7391TIP3   OH222115   3.973   3.579   5.704
 7391TIP3    H122116   3.991   3.574   5.610
 7391TIP3    H222117   4.044   3.527   5.745
 7392TIP3   OH222118   6.148   4.478   4.496
 7392TIP3    H122119   6.130   4.394   4.453
 7392TIP3    H222120   6.077   4.536   4.465
 7393TIP3   OH222121   5.880   2.780   5.592
 7393TIP3    H122122   5.918   2.692   5.589
 7393TIP3    H222123   5.887   2.806   5.684
 7394TIP3   OH222124   0.722   1.236   6.253
 7394TIP3    H122125   0.795   1.180   6.279
 7394TIP3    H222126   0.762   1.323   6.242
 7395TIP3   OH222127   7.984   3.599   1.140
 7395TIP3    H122128   8.025   3.650   1.071
 7395TIP3    H222129   7.973   3.661   1.212
 7396TIP3   OH222130   3.245   2.320   6.541
 7396TIP3    H122131   3.208   2.245   6.495
 7396TIP3    H222132   3.240   2.392   6.478
 7397TIP3   OH222133   6.497   1.729   3.498
 7397TIP3    H122134   6.469   1.770   3.416
 7397TIP3    H222135   6.593   1.729   3.493
 7398TIP3   OH222136   3.124   5.483   4.036
 7398TIP3    H122137   3.200   5.448   4.083
 7398TIP3    H222138   3.116   5.428   3.958
 7399TIP3   OH222139   4.737   7.172   6.059
 7399TIP3    H122140   4.724   7.183   6.153
 7399TIP3    H222141   4.735   7.078   6.045
 7400TIP3   OH222142   4.699   0.325   5.087
 7400TIP3    H122143   4.616   0.328   5.133
 7400TIP3    H222144   4.675   0.319   4.995
 7401TIP3   OH222145   4.557   4.889   6.772
 7401TIP3    H122146   4.564   4.832   6.696
 7401TIP3    H222147   4.493   4.955   6.746
 7402TIP3   OH222148   3.842   1.525   0.024
 7402TIP3    H122149   3.894   1.598   0.056
 7402TIP3    H222150   3.878   1.505  -0.063
 7403TIP3   OH222151   6.455   0.878   4.154
 7403TIP3    H122152   6.391   0.879   4.083
 7403TIP3    H222153   6.442   0.961   4.199
 7404TIP3   OH222154   2.520   1.802   6.632
 7404TIP3    H122155   2.580   1.835   6.699
 7404TIP3    H222156   2.433   1.813   6.670
 7405TIP3   OH222157   3.458   7.168   5.296
 7405TIP3    H122158   3.539   7.123   5.321
 7405TIP3    H222159   3.484   7.260   5.289
 7406TIP3   OH222160   1.357   2.504   3.575
 7406TIP3    H122161   1.391   2.462   3.655
 7406TIP3    H222162   1.398   2.590   3.573
 7407TIP3   OH222163   2.400   7.741   0.822
 7407TIP3    H122164   2.495   7.742   0.811
 7407TIP3    H222165   2.367   7.788   0.745
 7408TIP3   OH222166   4.541   0.891   0.578
 7408TIP3    H122167   4.482   0.959   0.545
 7408TIP3    H222168   4.561   0.838   0.501
 7409TIP3   OH222169   5.517   4.923   0.726
 7409TIP3    H122170   5.454   4.970   0.781
 7409TIP3    H222171   5.553   4.855   0.783
 7410TIP3   OH222172   0.486   6.642   5.338
 7410TIP3    H122173   0.435   6.574   5.381
 7410TIP3    H222174   0.516   6.602   5.256
 7411TIP3   OH222175   2.491   6.972   6.408
 7411TIP3    H122176   2.439   6.892   6.402
 7411TIP3    H222177   2.572   6.952   6.361
 7412TIP3   OH222178   5.154   6.404   3.240
 7412TIP3    H122179   5.103   6.411   3.321
 7412TIP3    H222180   5.242   6.430   3.266
 7413TIP3   OH222181   0.859   2.254   0.075
 7413TIP3    H122182   0.949   2.253   0.042
 7413TIP3    H222183   0.867   2.282   0.166
 7414TIP3   OH222184   6.843   5.080   4.438
 7414TIP3    H122185   6.864   5.059   4.348
 7414TIP3    H222186   6.760   5.128   4.432
 7415TIP3   OH222187   0.719   5.663   0.957
 7415TIP3    H122188   0.806   5.631   0.983
 7415TIP3    H222189   0.663   5.642   1.032
 7416TIP3   OH222190   2.876   4.991   5.550
 7416TIP3    H122191   2.803   4.943   5.509
 7416TIP3    H222192   2.841   5.021   5.634
 7417TIP3   OH222193   5.160   4.772   0.646
 7417TIP3    H122194   5.205   4.854   0.665
 7417TIP3    H222195   5.079   4.799   0.603
 7418TIP3   OH222196   6.351   0.573   0.705
 7418TIP3    H122197   6.363   0.540   0.616
 7418TIP3    H222198   6.307   0.657   0.693
 7419TIP3   OH222199   2.507   5.356   6.471
 7419TIP3    H122200   2.493   5.449   6.491
 7419TIP3    H222201   2.579   5.330   6.529
 7420TIP3   OH222202   0.273   1.192   5.506
 7420TIP3    H122203   0.299   1.241   5.584
 7420TIP3    H222204   0.351   1.194   5.450
 7421TIP3   OH222205   0.063   5.265   4.262
 7421TIP3    H122206  -0.015   5.275   4.207
 7421TIP3    H222207   0.123   5.332   4.230
 7422TIP3   OH222208   5.695   2.653   2.262
 7422TIP3    H122209   5.625   2.590   2.279
 7422TIP3    H222210   5.656   2.718   2.204
 7423TIP3   OH222211   7.347   0.085   2.512
 7423TIP3    H122212   7.315   0.174   2.528
 7423TIP3    H222213   7.435   0.096   2.478
 7424TIP3   OH222214   5.431   1.978   5.860
 7424TIP3    H122215   5.365   1.953   5.926
 7424TIP3    H222216   5.451   1.896   5.815
 7425TIP3   OH222217   5.979   0.576   3.167
 7425TIP3    H122218   5.925   0.586   3.245
 7425TIP3    H222219   5.974   0.661   3.123
 7426TIP3   OH222220   6.124   7.299   6.277
 7426TIP3    H122221   6.106   7.356   6.352
 7426TIP3    H222222   6.094   7.213   6.306
 7427TIP3   OH222223   3.162   3.429   1.656
 7427TIP3    H122224   3.130   3.519   1.653
 7427TIP3    H222225   3.241   3.433   1.711
 7428TIP3   OH222226   7.622   6.451   3.663
 7428TIP3    H122227   7.678   6.373   3.665
 7428TIP3    H222228   7.593   6.461   3.754
 7429TIP3   OH222229   3.677   7.030   5.359
 7429TIP3    H122230   3.677   7.020   5.454
 7429TIP3    H222231   3.734   6.960   5.327
 7430TIP3   OH222232   7.890   4.373   3.088
 7430TIP3    H122233   7.904   4.340   3.177
 7430TIP3    H222234   7.842   4.455   3.099
 7431TIP3   OH222235   5.710   0.416   3.092
 7431TIP3    H122236   5.791   0.446   3.134
 7431TIP3    H222237   5.645   0.418   3.162
 7432TIP3   OH222238   7.305   0.668   2.723
 7432TIP3    H122239   7.265   0.582   2.732
 7432TIP3    H222240   7.399   0.650   2.719
 7433TIP3   OH222241   6.562   6.365   5.380
 7433TIP3    H122242   6.529   6.382   5.469
 7433TIP3    H222243   6.483   6.356   5.327
 7434TIP3   OH222244   0.053   7.730   1.968
 7434TIP3    H122245   0.126   7.783   1.935
 7434TIP3    H222246  -0.015   7.738   1.901
 7435TIP3   OH222247   6.475   3.172   3.904
 7435TIP3    H122248   6.429   3.187   3.986
 7435TIP3    H222249   6.413   3.124   3.849
 7436TIP3   OH222250   6.340   1.295   4.038
 7436TIP3    H122251   6.384   1.346   3.970
 7436TIP3    H222252   6.294   1.359   4.091
 7437TIP3   OH222253   1.988   7.291   4.766
 7437TIP3    H122254   1.955   7.204   4.787
 7437TIP3    H222255   1.922   7.351   4.800
 7438TIP3   OH222256   5.104   6.243   3.996
 7438TIP3    H122257   5.075   6.152   4.009
 7438TIP3    H222258   5.052   6.274   3.922
 7439TIP3   OH222259   4.965   6.014   3.989
 7439TIP3    H122260   4.911   5.952   4.038
 7439TIP3    H222261   4.904   6.056   3.928
 7440TIP3   OH222262   7.365   2.785   3.916
 7440TIP3    H122263   7.404   2.783   3.829
 7440TIP3    H222264   7.291   2.725   3.910
 7441TIP3   OH222265   1.073   1.981   1.482
 7441TIP3    H122266   1.085   1.899   1.435
 7441TIP3    H222267   1.029   2.038   1.419
 7442TIP3   OH222268   7.425   1.376   4.346
 7442TIP3    H122269   7.517   1.381   4.371
 7442TIP3    H222270   7.378   1.398   4.426
 7443TIP3   OH222271   6.014   6.967   1.507
 7443TIP3    H122272   6.060   6.885   1.490
 7443TIP3    H222273   6.018   7.015   1.425
 7444TIP3   OH222274   2.709   1.476   6.397
 7444TIP3    H122275   2.689   1.389   6.432
 7444TIP3    H222276   2.647   1.488   6.326
 7445TIP3   OH222277   5.424   3.255   1.863
 7445TIP3    H122278   5.475   3.238   1.943
 7445TIP3    H222279   5.470   3.206   1.795
 7446TIP3   OH222280   0.196   7.370   6.655
 7446TIP3    H122281   0.112   7.340   6.690
 7446TIP3    H222282   0.237   7.292   6.618
 7447TIP3   OH222283   6.872   0.811   1.249
 7447TIP3    H122284   6.873   0.750   1.176
 7447TIP3    H222285   6.962   0.845   1.253
 7448TIP3   OH222286   5.234   7.225   2.595
 7448TIP3    H122287   5.279   7.234   2.511
 7448TIP3    H222288   5.228   7.130   2.609
 7449TIP3   OH222289   0.792   6.389   2.141
 7449TIP3    H122290   0.746   6.404   2.058
 7449TIP3    H222291   0.779   6.470   2.190
 7450TIP3   OH222292   8.001   7.444   6.193
 7450TIP3    H122293   8.024   7.534   6.213
 7450TIP3    H222294   7.919   7.451   6.143
 7451TIP3   OH222295   5.727   2.305   1.363
 7451TIP3    H122296   5.773   2.359   1.428
 7451TIP3    H222297   5.738   2.353   1.281
 7452TIP3   OH222298   2.131   4.597   1.996
 7452TIP3    H122299   2.216   4.553   1.992
 7452TIP3    H222300   2.138   4.668   1.933
 7453TIP3   OH222301   1.394   5.473   0.652
 7453TIP3    H122302   1.361   5.506   0.569
 7453TIP3    H222303   1.449   5.544   0.686
 7454TIP3   OH222304   4.107   3.108   2.090
 7454TIP3    H122305   4.137   3.166   2.020
 7454TIP3    H222306   4.019   3.082   2.063
 7455TIP3   OH222307   5.101   7.539   6.125
 7455TIP3    H122308   5.023   7.593   6.118
 7455TIP3    H222309   5.070   7.450   6.113
 7456TIP3   OH222310   1.192   0.379   6.073
 7456TIP3    H122311   1.281   0.362   6.044
 7456TIP3    H222312   1.137   0.334   6.008
 7457TIP3   OH222313   2.292   2.310   5.989
 7457TIP3    H122314   2.329   2.390   6.027
 7457TIP3    H222315   2.368   2.254   5.974
 7458TIP3   OH222316   4.520   3.108   5.863
 7458TIP3    H122317   4.544   3.197   5.888
 7458TIP3    H222318   4.532   3.106   5.768
 7459TIP3   OH222319   5.321   7.445   0.160
 7459TIP3    H122320   5.279   7.422   0.077
 7459TIP3    H222321   5.262   7.410   0.227
 7460TIP3   OH222322   0.936   7.018   5.258
 7460TIP3    H122323   0.875   7.082   5.293
 7460TIP3    H222324   1.021   7.043   5.295
 7461TIP3   OH222325   2.805   6.203   0.666
 7461TIP3    H122326   2.841   6.116   0.681
 7461TIP3    H222327   2.842   6.257   0.736
 7462TIP3   OH222328   2.296   5.072   5.082
 7462TIP3    H122329   2.374   5.019   5.068
 7462TIP3    H222330   2.250   5.070   4.998
 7463TIP3   OH222331   1.459   3.839   2.047
 7463TIP3    H122332   1.450   3.789   1.965
 7463TIP3    H222333   1.369   3.854   2.076
 7464TIP3   OH222334   4.859   7.021   0.411
 7464TIP3    H122335   4.895   7.109   0.397
 7464TIP3    H222336   4.769   7.036   0.439
 7465TIP3   OH222337   7.122   2.691   3.728
 7465TIP3    H122338   7.158   2.777   3.707
 7465TIP3    H222339   7.038   2.710   3.771
 7466TIP3   OH222340   5.256   0.558   1.277
 7466TIP3    H122341   5.231   0.579   1.187
 7466TIP3    H222342   5.349   0.580   1.281
 7467TIP3   OH222343   6.540   4.051   2.443
 7467TIP3    H122344   6.612   4.115   2.441
 7467TIP3    H222345   6.469   4.097   2.487
 7468TIP3   OH222346   6.017   2.093   2.687
 7468TIP3    H122347   6.057   2.035   2.751
 7468TIP3    H222348   5.961   2.151   2.739
 7469TIP3   OH222349   2.553   2.337   2.927
 7469TIP3    H122350   2.602   2.273   2.875
 7469TIP3    H222351   2.462   2.315   2.911
 7470TIP3   OH222352   3.014   6.129   5.547
 7470TIP3    H122353   2.987   6.052   5.597
 7470TIP3    H222354   3.043   6.191   5.614
 7471TIP3   OH222355   1.064   4.531   0.871
 7471TIP3    H122356   1.064   4.625   0.852
 7471TIP3    H222357   0.972   4.509   0.886
 7472TIP3   OH222358   3.377   5.802   0.209
 7472TIP3    H122359   3.359   5.732   0.272
 7472TIP3    H222360   3.302   5.800   0.150
 7473TIP3   OH222361   0.421   7.406   3.559
 7473TIP3    H122362   0.357   7.339   3.584
 7473TIP3    H222363   0.451   7.379   3.472
 7474TIP3   OH222364   3.338   0.155   0.950
 7474TIP3    H122365   3.301   0.179   1.035
 7474TIP3    H222366   3.291   0.076   0.924
 7475TIP3   OH222367   6.846   7.294   3.471
 7475TIP3    H122368   6.895   7.262   3.396
 7475TIP3    H222369   6.755   7.295   3.442
 7476TIP3   OH222370   3.537   4.081   1.471
 7476TIP3    H122371   3.585   4.121   1.543
 7476TIP3    H222372   3.491   4.007   1.510
 7477TIP3   OH222373   5.472   3.754   3.408
 7477TIP3    H122374   5.420   3.829   3.437
 7477TIP3    H222375   5.446   3.683   3.465
 7478TIP3   OH222376   4.005   3.247   0.067
 7478TIP3    H122377   4.087   3.286   0.036
 7478TIP3    H222378   3.972   3.197  -0.007
 7479TIP3   OH222379   1.251   7.328   0.436
 7479TIP3    H122380   1.241   7.339   0.530
 7479TIP3    H222381   1.180   7.380   0.398
 7480TIP3   OH222382   5.628   2.152   5.807
 7480TIP3    H122383   5.662   2.210   5.875
 7480TIP3    H222384   5.553   2.108   5.847
 7481TIP3   OH222385   5.718   5.790   1.595
 7481TIP3    H122386   5.765   5.709   1.575
 7481TIP3    H222387   5.637   5.761   1.638
 7482TIP3   OH222388   5.474   5.112   6.113
 7482TIP3    H122389   5.442   5.176   6.177
 7482TIP3    H222390   5.521   5.165   6.048
 7483TIP3   OH222391   1.400   3.607   0.028
 7483TIP3    H122392   1.366   3.575   0.111
 7483TIP3    H222393   1.432   3.696   0.048
 7484TIP3   OH222394   3.616   6.112   0.248
 7484TIP3    H122395   3.522   6.093   0.253
 7484TIP3    H222396   3.654   6.065   0.321
 7485TIP3   OH222397   0.387   2.378   2.101
 7485TIP3    H122398   0.405   2.374   2.007
 7485TIP3    H222399   0.453   2.437   2.136
 7486TIP3   OH222400   7.981   1.497   0.304
 7486TIP3    H122401   8.034   1.436   0.355
 7486TIP3    H222402   7.933   1.548   0.369
 7487TIP3   OH222403   0.250   1.372   1.459
 7487TIP3    H122404   0.340   1.404   1.463
 7487TIP3    H222405   0.256   1.279   1.480
 7488TIP3   OH222406   6.424   4.358   6.159
 7488TIP3    H122407   6.335   4.379   6.186
 7488TIP3    H222408   6.413   4.295   6.087
 7489TIP3   OH222409   6.289   3.442   6.466
 7489TIP3    H122410   6.250   3.396   6.392
 7489TIP3    H222411   6.332   3.374   6.517
 7490TIP3   OH222412   0.466   5.315   3.037
 7490TIP3    H122413   0.549   5.268   3.027
 7490TIP3    H222414   0.436   5.328   2.947
 7491TIP3   OH222415   7.722   5.525   3.879
 7491TIP3    H122416   7.810   5.560   3.888
 7491TIP3    H222417   7.696   5.500   3.968
 7492TIP3   OH222418   4.141   0.027   1.655
 7492TIP3    H122419   4.211   0.034   1.589
 7492TIP3    H222420   4.067   0.074   1.616
 7493TIP3   OH222421   3.826   3.097   2.057
 7493TIP3    H122422   3.775   3.077   1.979
 7493TIP3    H222423   3.763   3.133   2.119
 7494TIP3   OH222424   6.133   4.723   0.331
 7494TIP3    H122425   6.081   4.668   0.273
 7494TIP3    H222426   6.070   4.783   0.370
 7495TIP3   OH222427   1.724   1.661   1.474
 7495TIP3    H122428   1.630   1.652   1.460
 7495TIP3    H222429   1.735   1.749   1.510
 7496TIP3   OH222430   1.367   5.246   4.524
 7496TIP3    H122431   1.421   5.323   4.540
 7496TIP3    H222432   1.350   5.247   4.429
 7497TIP3   OH222433   5.676   6.811   2.980
 7497TIP3    H122434   5.616   6.740   2.958
 7497TIP3    H222435   5.718   6.834   2.897
 7498TIP3   OH222436   0.705   6.018   4.678
 7498TIP3    H122437   0.778   6.057   4.629
 7498TIP3    H222438   0.735   5.930   4.699
 7499TIP3   OH222439   4.637   1.672   1.385
 7499TIP3    H122440   4.701   1.739   1.359
 7499TIP3    H222441   4.602   1.704   1.468
 7500TIP3   OH222442   8.089   6.871   0.095
 7500TIP3    H122443   8.077   6.869   0.000
 7500TIP3    H222444   8.140   6.792   0.115
 7501TIP3   OH222445   7.122   7.842   5.787
 7501TIP3    H122446   7.152   7.816   5.875
 7501TIP3    H222447   7.155   7.772   5.730
 7502TIP3   OH222448   3.385   4.771   0.021
 7502TIP3    H122449   3.455   4.798   0.081
 7502TIP3    H222450   3.304   4.802   0.063
 7503TIP3   OH222451   6.507   7.806   6.438
 7503TIP3    H122452   6.483   7.718   6.410
 7503TIP3    H222453   6.564   7.839   6.369
 7504TIP3   OH222454   8.012   1.593   1.265
 7504TIP3    H122455   8.093   1.643   1.256
 7504TIP3    H222456   8.016   1.528   1.194
 7505TIP3   OH222457   7.105   4.422   2.719
 7505TIP3    H122458   7.078   4.380   2.801
 7505TIP3    H222459   7.111   4.515   2.740
 7506TIP3   OH222460   4.214   5.573   3.365
 7506TIP3    H122461   4.215   5.477   3.367
 7506TIP3    H222462   4.220   5.594   3.272
 7507TIP3   OH222463   7.034   2.006   4.175
 7507TIP3    H122464   6.991   2.055   4.244
 7507TIP3    H222465   7.056   2.072   4.108
 7508TIP3   OH222466   4.775   2.465   5.510
 7508TIP3    H122467   4.805   2.406   5.441
 7508TIP3    H222468   4.847   2.469   5.573
 7509TIP3   OH222469   1.485   6.945   5.217
 7509TIP3    H122470   1.555   6.995   5.258
 7509TIP3    H222471   1.483   6.863   5.266
 7510TIP3   OH222472   7.861   5.534   5.301
 7510TIP3    H122473   7.862   5.464   5.367
 7510TIP3    H222474   7.932   5.513   5.242
 7511TIP3   OH222475   3.792   7.084   3.924
 7511TIP3    H122476   3.767   7.042   4.007
 7511TIP3    H222477   3.765   7.176   3.935
 7512TIP3   OH222478   1.727   5.809   5.000
 7512TIP3    H122479   1.665   5.847   4.938
 7512TIP3    H222480   1.679   5.805   5.083
 7513TIP3   OH222481   2.554   1.550   0.199
 7513TIP3    H122482   2.641   1.560   0.160
 7513TIP3    H222483   2.571   1.538   0.292
 7514TIP3   OH222484   2.319   3.450   1.510
 7514TIP3    H122485   2.228   3.479   1.506
 7514TIP3    H222486   2.363   3.516   1.564
 7515TIP3   OH222487   5.466   1.115   4.338
 7515TIP3    H122488   5.471   1.181   4.408
 7515TIP3    H222489   5.374   1.087   4.339
 7516TIP3   OH222490   7.737   2.368   4.989
 7516TIP3    H122491   7.812   2.420   5.020
 7516TIP3    H222492   7.753   2.280   5.024
 7517TIP3   OH222493   3.949   4.303   3.312
 7517TIP3    H122494   3.920   4.381   3.264
 7517TIP3    H222495   4.039   4.322   3.336
 7518TIP3   OH222496   7.502   6.305   0.533
 7518TIP3    H122497   7.536   6.217   0.549
 7518TIP3    H222498   7.408   6.298   0.547
 7519TIP3   OH222499   1.291   6.049   3.166
 7519TIP3    H122500   1.319   6.140   3.168
 7519TIP3    H222501   1.371   5.999   3.178
 7520TIP3   OH222502   6.629   2.623   4.622
 7520TIP3    H122503   6.690   2.620   4.548
 7520TIP3    H222504   6.581   2.705   4.610
 7521TIP3   OH222505   6.700   4.496   6.583
 7521TIP3    H122506   6.656   4.456   6.658
 7521TIP3    H222507   6.647   4.469   6.507
 7522TIP3   OH222508   0.709   2.397   2.118
 7522TIP3    H122509   0.636   2.428   2.171
 7522TIP3    H222510   0.777   2.373   2.182
 7523TIP3   OH222511   7.577   4.377   0.465
 7523TIP3    H122512   7.670   4.365   0.448
 7523TIP3    H222513   7.542   4.413   0.384
 7524TIP3   OH222514   3.592   0.730   2.306
 7524TIP3    H122515   3.607   0.720   2.213
 7524TIP3    H222516   3.528   0.802   2.313
 7525TIP3   OH222517   8.217   2.639   0.433
 7525TIP3    H122518   8.197   2.732   0.423
 7525TIP3    H222519   8.310   2.632   0.409
 7526TIP3   OH222520   3.010   2.327   2.233
 7526TIP3    H122521   3.062   2.351   2.156
 7526TIP3    H222522   2.994   2.233   2.223
 7527TIP3   OH222523   1.124   6.567   2.491
 7527TIP3    H122524   1.130   6.576   2.586
 7527TIP3    H222525   1.120   6.472   2.476
 7528TIP3   OH222526   0.105   4.880   5.361
 7528TIP3    H122527   0.145   4.959   5.396
 7528TIP3    H222528   0.076   4.905   5.273
 7529TIP3   OH222529   5.886   0.237   4.839
 7529TIP3    H122530   5.862   0.150   4.871
 7529TIP3    H222531   5.843   0.245   4.754
 7530TIP3   OH222532   1.008   0.596   6.053
 7530TIP3    H122533   1.070   0.667   6.069
 7530TIP3    H222534   1.062   0.517   6.048
 7531TIP3   OH222535   8.103   0.458   5.970
 7531TIP3    H122536   8.063   0.533   5.925
 7531TIP3    H222537   8.043   0.439   6.043
 7532TIP3   OH222538   4.136   0.165   0.239
 7532TIP3    H122539   4.069   0.230   0.218
 7532TIP3    H222540   4.201   0.173   0.169
 7533TIP3   OH222541   6.064   7.474   4.470
 7533TIP3    H122542   6.013   7.555   4.479
 7533TIP3    H222543   6.145   7.500   4.426
 7534TIP3   OH222544   7.436   3.048   2.018
 7534TIP3    H122545   7.403   3.110   1.953
 7534TIP3    H222546   7.468   2.974   1.967
 7535TIP3   OH222547   7.882   6.080   0.130
 7535TIP3    H122548   7.861   6.012   0.066
 7535TIP3    H222549   7.952   6.041   0.183
 7536TIP3   OH222550   4.563   3.526   3.711
 7536TIP3    H122551   4.486   3.477   3.740
 7536TIP3    H222552   4.565   3.603   3.768
 7537TIP3   OH222553   6.188   1.621   2.235
 7537TIP3    H122554   6.156   1.688   2.175
 7537TIP3    H222555   6.262   1.662   2.280
 7538TIP3   OH222556   8.072   3.885   6.422
 7538TIP3    H122557   8.107   3.960   6.374
 7538TIP3    H222558   7.982   3.878   6.393
 7539TIP3   OH222559   7.032   1.368   0.187
 7539TIP3    H122560   7.116   1.329   0.212
 7539TIP3    H222561   7.053   1.458   0.165
 7540TIP3   OH222562   4.669   4.853   4.512
 7540TIP3    H122563   4.717   4.777   4.546
 7540TIP3    H222564   4.694   4.859   4.420
 7541TIP3   OH222565   6.851   5.185   6.256
 7541TIP3    H122566   6.909   5.219   6.324
 7541TIP3    H222567   6.885   5.097   6.237
 7542TIP3   OH222568   0.900   5.873   2.620
 7542TIP3    H122569   0.925   5.853   2.711
 7542TIP3    H222570   0.807   5.892   2.625
 7543TIP3   OH222571   3.202   7.594   0.911
 7543TIP3    H122572   3.294   7.570   0.927
 7543TIP3    H222573   3.167   7.520   0.861
 7544TIP3   OH222574   0.370   6.054   6.481
 7544TIP3    H122575   0.455   6.092   6.459
 7544TIP3    H222576   0.370   5.969   6.436
 7545TIP3   OH222577   2.826   6.725   6.090
 7545TIP3    H122578   2.795   6.665   6.159
 7545TIP3    H222579   2.807   6.679   6.008
 7546TIP3   OH222580   7.365   7.404   0.501
 7546TIP3    H122581   7.295   7.411   0.566
 7546TIP3    H222582   7.409   7.489   0.504
 7547TIP3   OH222583   0.530   5.617   6.291
 7547TIP3    H122584   0.616   5.574   6.295
 7547TIP3    H222585   0.550   5.708   6.268
 7548TIP3   OH222586   1.540   6.484   4.527
 7548TIP3    H122587   1.575   6.414   4.582
 7548TIP3    H222588   1.540   6.562   4.583
 7549TIP3   OH222589   2.367   5.329   4.746
 7549TIP3    H122590   2.390   5.238   4.726
 7549TIP3    H222591   2.287   5.344   4.694
 7550TIP3   OH222592   7.367   6.717   4.182
 7550TIP3    H122593   7.273   6.710   4.198
 7550TIP3    H222594   7.407   6.679   4.259
 7551TIP3   OH222595   7.416   1.626   5.364
 7551TIP3    H122596   7.427   1.537   5.398
 7551TIP3    H222597   7.324   1.646   5.377
 7552TIP3   OH222598   2.074   6.833   0.858
 7552TIP3    H122599   2.021   6.908   0.829
 7552TIP3    H222600   2.129   6.869   0.927
 7553TIP3   OH222601   4.572   6.676   5.721
 7553TIP3    H122602   4.654   6.637   5.690
 7553TIP3    H222603   4.551   6.628   5.802
 7554TIP3   OH222604   3.368   2.061   3.387
 7554TIP3    H122605   3.417   2.090   3.464
 7554TIP3    H222606   3.299   2.005   3.421
 7555TIP3   OH222607   6.005   5.627   6.685
 7555TIP3    H122608   5.949   5.555   6.655
 7555TIP3    H222609   6.084   5.584   6.718
 7556TIP3   OH222610   7.325   0.504   6.209
 7556TIP3    H122611   7.394   0.562   6.243
 7556TIP3    H222612   7.254   0.512   6.272
 7557TIP3   OH222613   7.552   6.440   0.292
 7557TIP3    H122614   7.547   6.407   0.382
 7557TIP3    H222615   7.645   6.462   0.281
 7558TIP3   OH222616   1.918   1.094   6.144
 7558TIP3    H122617   1.857   1.168   6.155
 7558TIP3    H222618   1.977   1.122   6.074
 7559TIP3   OH222619   4.727   6.102   2.976
 7559TIP3    H122620   4.741   6.158   3.053
 7559TIP3    H222621   4.760   6.016   3.003
 7560TIP3   OH222622   0.605   1.669   1.522
 7560TIP3    H122623   0.545   1.702   1.588
 7560TIP3    H222624   0.680   1.727   1.526
 7561TIP3   OH222625   2.897   5.102   0.726
 7561TIP3    H122626   2.874   5.195   0.721
 7561TIP3    H222627   2.899   5.073   0.635
 7562TIP3   OH222628   6.298   6.212   4.533
 7562TIP3    H122629   6.367   6.189   4.470
 7562TIP3    H222630   6.280   6.304   4.516
 7563TIP3   OH222631   3.187   7.570   4.900
 7563TIP3    H122632   3.256   7.636   4.910
 7563TIP3    H222633   3.224   7.490   4.938
 7564TIP3   OH222634   2.275   5.583   4.570
 7564TIP3    H122635   2.351   5.562   4.624
 7564TIP3    H222636   2.215   5.509   4.584
 7565TIP3   OH222637   6.068   3.733   4.279
 7565TIP3    H122638   6.052   3.663   4.342
 7565TIP3    H222639   6.072   3.689   4.194
 7566TIP3   OH222640   8.183   6.200   6.425
 7566TIP3    H122641   8.250   6.242   6.372
 7566TIP3    H222642   8.221   6.193   6.513
 7567TIP3   OH222643   5.706   3.192  -0.018
 7567TIP3    H122644   5.678   3.182   0.073
 7567TIP3    H222645   5.801   3.207  -0.012
 7568TIP3   OH222646   5.678   1.424   0.255
 7568TIP3    H122647   5.706   1.516   0.259
 7568TIP3    H222648   5.759   1.374   0.267
 7569TIP3   OH222649   0.373   7.820   5.866
 7569TIP3    H122650   0.396   7.821   5.958
 7569TIP3    H222651   0.455   7.801   5.821
 7570TIP3   OH222652   4.481   6.204   4.480
 7570TIP3    H122653   4.479   6.108   4.484
 7570TIP3    H222654   4.406   6.228   4.427
 7571TIP3   OH222655   4.464   0.713   3.526
 7571TIP3    H122656   4.424   0.757   3.600
 7571TIP3    H222657   4.437   0.622   3.534
 7572TIP3   OH222658   2.895   2.302   3.907
 7572TIP3    H122659   2.843   2.361   3.853
 7572TIP3    H222660   2.830   2.250   3.956
 7573TIP3   OH222661   7.316   1.474   6.448
 7573TIP3    H122662   7.265   1.489   6.528
 7573TIP3    H222663   7.408   1.477   6.478
 7574TIP3   OH222664   5.707   6.133   6.264
 7574TIP3    H122665   5.787   6.084   6.245
 7574TIP3    H222666   5.704   6.202   6.198
 7575TIP3   OH222667   5.777   1.370   0.527
 7575TIP3    H122668   5.734   1.453   0.509
 7575TIP3    H222669   5.713   1.304   0.502
 7576TIP3   OH222670   5.929   2.339   6.249
 7576TIP3    H122671   5.928   2.258   6.299
 7576TIP3    H222672   5.875   2.400   6.301
 7577TIP3   OH222673   6.060   0.847   3.686
 7577TIP3    H122674   5.992   0.902   3.726
 7577TIP3    H222675   6.117   0.909   3.641
 7578TIP3   OH222676   3.976   3.910   0.910
 7578TIP3    H122677   4.042   3.889   0.976
 7578TIP3    H222678   3.945   3.997   0.933
 7579TIP3   OH222679   5.978   1.800   6.310
 7579TIP3    H122680   6.034   1.861   6.262
 7579TIP3    H222681   5.897   1.796   6.258
 7580TIP3   OH222682   3.897   2.042   0.862
 7580TIP3    H122683   3.908   1.967   0.920
 7580TIP3    H222684   3.804   2.064   0.870
 7581TIP3   OH222685   1.904   2.790   1.529
 7581TIP3    H122686   1.906   2.753   1.441
 7581TIP3    H222687   1.911   2.714   1.587
 7582TIP3   OH222688   7.577   1.407   0.581
 7582TIP3    H122689   7.648   1.422   0.643
 7582TIP3    H222690   7.505   1.373   0.634
 7583TIP3   OH222691   2.076   0.570   2.988
 7583TIP3    H122692   2.111   0.565   2.900
 7583TIP3    H222693   2.150   0.596   3.042
 7584TIP3   OH222694   6.598   4.940   2.197
 7584TIP3    H122695   6.537   4.996   2.149
 7584TIP3    H222696   6.604   4.861   2.144
 7585TIP3   OH222697   8.234   3.371   0.629
 7585TIP3    H122698   8.301   3.336   0.571
 7585TIP3    H222699   8.211   3.456   0.591
 7586TIP3   OH222700   3.812   6.773   0.427
 7586TIP3    H122701   3.862   6.795   0.506
 7586TIP3    H222702   3.875   6.730   0.369
 7587TIP3   OH222703   2.149   4.675   5.708
 7587TIP3    H122704   2.056   4.680   5.686
 7587TIP3    H222705   2.151   4.668   5.803
 7588TIP3   OH222706   4.959   0.727   1.203
 7588TIP3    H122707   4.944   0.757   1.114
 7588TIP3    H222708   4.897   0.777   1.256
 7589TIP3   OH222709   6.135   0.636   1.612
 7589TIP3    H122710   6.143   0.557   1.558
 7589TIP3    H222711   6.099   0.605   1.695
 7590TIP3   OH222712   7.697   0.346   2.917
 7590TIP3    H122713   7.619   0.338   2.972
 7590TIP3    H222714   7.761   0.392   2.972
 7591TIP3   OH222715   0.382   0.732   5.431
 7591TIP3    H122716   0.430   0.812   5.452
 7591TIP3    H222717   0.296   0.744   5.472
 7592TIP3   OH222718   3.399   3.557   1.026
 7592TIP3    H122719   3.338   3.486   1.042
 7592TIP3    H222720   3.482   3.526   1.062
 7593TIP3   OH222721   2.522   6.472   5.869
 7593TIP3    H122722   2.517   6.532   5.795
 7593TIP3    H222723   2.457   6.404   5.850
 7594TIP3   OH222724   1.522   0.512   5.655
 7594TIP3    H122725   1.495   0.467   5.575
 7594TIP3    H222726   1.550   0.441   5.713
 7595TIP3   OH222727   5.343   7.704   3.064
 7595TIP3    H122728   5.311   7.620   3.095
 7595TIP3    H222729   5.402   7.683   2.991
 7596TIP3   OH222730   5.611   7.264   5.751
 7596TIP3    H122731   5.548   7.194   5.768
 7596TIP3    H222732   5.558   7.340   5.728
 7597TIP3   OH222733   2.360   3.620   1.944
 7597TIP3    H122734   2.269   3.598   1.964
 7597TIP3    H222735   2.412   3.561   1.997
 7598TIP3   OH222736   3.561   7.688   1.439
 7598TIP3    H122737   3.640   7.653   1.397
 7598TIP3    H222738   3.555   7.778   1.409
 7599TIP3   OH222739   3.707   4.942   0.250
 7599TIP3    H122740   3.705   5.032   0.282
 7599TIP3    H222741   3.780   4.939   0.189
 7600TIP3   OH222742   5.630   7.058   0.256
 7600TIP3    H122743   5.548   7.051   0.304
 7600TIP3    H222744   5.636   6.975   0.208
 7601TIP3   OH222745   2.153   1.656   0.423
 7601TIP3    H122746   2.103   1.666   0.342
 7601TIP3    H222747   2.100   1.595   0.476
 7602TIP3   OH222748   6.123   3.413   2.357
 7602TIP3    H122749   6.105   3.416   2.263
 7602TIP3    H222750   6.215   3.386   2.364
 7603TIP3   OH222751   3.095   4.856   1.734
 7603TIP3    H122752   3.021   4.796   1.743
 7603TIP3    H222753   3.055   4.942   1.726
 7604TIP3   OH222754   5.228   0.916   1.412
 7604TIP3    H122755   5.244   0.948   1.324
 7604TIP3    H222756   5.307   0.868   1.435
 7605TIP3   OH222757   7.797   1.246   2.346
 7605TIP3    H122758   7.833   1.188   2.413
 7605TIP3    H222759   7.779   1.190   2.271
 7606TIP3   OH222760   8.044   0.440   3.683
 7606TIP3    H122761   8.132   0.417   3.652
 7606TIP3    H222762   8.031   0.530   3.653
 7607TIP3   OH222763   3.084   2.402   4.214
 7607TIP3    H122764   3.004   2.353   4.226
 7607TIP3    H222765   3.103   2.395   4.120
 7608TIP3   OH222766   3.425   3.965   3.168
 7608TIP3    H122767   3.348   3.915   3.195
 7608TIP3    H222768   3.463   3.913   3.097
 7609TIP3   OH222769   6.839   0.809   1.534
 7609TIP3    H122770   6.841   0.815   1.438
 7609TIP3    H222771   6.922   0.768   1.557
 7610TIP3   OH222772   5.323   0.121   5.585
 7610TIP3    H122773   5.397   0.140   5.528
 7610TIP3    H222774   5.302   0.029   5.568
 7611TIP3   OH222775   5.057   3.857   0.662
 7611TIP3    H122776   5.021   3.768   0.656
 7611TIP3    H222777   5.151   3.845   0.645
 7612TIP3   OH222778   7.000   7.405   1.093
 7612TIP3    H122779   6.996   7.325   1.040
 7612TIP3    H222780   6.976   7.376   1.181
 7613TIP3   OH222781   3.935   0.045   4.888
 7613TIP3    H122782   3.904   0.130   4.917
 7613TIP3    H222783   3.933  -0.010   4.966
 7614TIP3   OH222784   5.812   5.947   4.598
 7614TIP3    H122785   5.857   5.927   4.516
 7614TIP3    H222786   5.854   5.891   4.663
 7615TIP3   OH222787   8.190   4.628   6.322
 7615TIP3    H122788   8.237   4.561   6.372
 7615TIP3    H222789   8.211   4.610   6.231
 7616TIP3   OH222790   6.979   1.136   0.404
 7616TIP3    H122791   6.897   1.169   0.441
 7616TIP3    H222792   6.957   1.108   0.316
 7617TIP3   OH222793   4.728   3.713   5.237
 7617TIP3    H122794   4.669   3.780   5.204
 7617TIP3    H222795   4.802   3.762   5.273
 7618TIP3   OH222796   5.830   4.419   4.156
 7618TIP3    H122797   5.883   4.406   4.077
 7618TIP3    H222798   5.789   4.504   4.144
 7619TIP3   OH222799   8.269   2.018   6.236
 7619TIP3    H122800   8.184   2.062   6.232
 7619TIP3    H222801   8.275   1.988   6.327
 7620TIP3   OH222802   1.815   0.708   6.338
 7620TIP3    H122803   1.806   0.754   6.422
 7620TIP3    H222804   1.745   0.743   6.284
 7621TIP3   OH222805   5.935   7.157   4.494
 7621TIP3    H122806   5.987   7.098   4.439
 7621TIP3    H222807   5.947   7.243   4.455
 7622TIP3   OH222808   6.960   5.278   5.110
 7622TIP3    H122809   6.898   5.344   5.078
 7622TIP3    H222810   6.908   5.199   5.123
 7623TIP3   OH222811   2.589   1.869   3.051
 7623TIP3    H122812   2.503   1.906   3.032
 7623TIP3    H222813   2.582   1.839   3.142
 7624TIP3   OH222814   7.708   3.761   1.485
 7624TIP3    H122815   7.766   3.688   1.504
 7624TIP3    H222816   7.754   3.813   1.420
 7625TIP3   OH222817   0.355   4.472   1.975
 7625TIP3    H122818   0.333   4.490   2.066
 7625TIP3    H222819   0.277   4.431   1.939
 7626TIP3   OH222820   4.896   3.862   4.529
 7626TIP3    H122821   4.828   3.888   4.591
 7626TIP3    H222822   4.888   3.925   4.457
 7627TIP3   OH222823   0.276   1.385   1.844
 7627TIP3    H122824   0.208   1.333   1.800
 7627TIP3    H222825   0.357   1.358   1.801
 7628TIP3   OH222826   6.613   7.333   3.708
 7628TIP3    H122827   6.625   7.421   3.673
 7628TIP3    H222828   6.671   7.278   3.654
 7629TIP3   OH222829   2.909   2.718   6.644
 7629TIP3    H122830   2.832   2.715   6.700
 7629TIP3    H222831   2.920   2.628   6.613
 7630TIP3   OH222832   0.623   1.887   4.946
 7630TIP3    H122833   0.550   1.854   4.893
 7630TIP3    H222834   0.700   1.840   4.914
 7631TIP3   OH222835   0.701   7.602   5.906
 7631TIP3    H122836   0.610   7.576   5.891
 7631TIP3    H222837   0.734   7.623   5.818
 7632TIP3   OH222838   3.164   6.623   1.937
 7632TIP3    H122839   3.115   6.541   1.934
 7632TIP3    H222840   3.119   6.677   2.002
 7633TIP3   OH222841   2.573   2.713   2.052
 7633TIP3    H122842   2.629   2.789   2.041
 7633TIP3    H222843   2.633   2.638   2.050
 7634TIP3   OH222844   2.450   5.782   1.632
 7634TIP3    H122845   2.476   5.690   1.627
 7634TIP3    H222846   2.355   5.780   1.641
 7635TIP3   OH222847   0.774   2.023   6.202
 7635TIP3    H122848   0.716   2.059   6.269
 7635TIP3    H222849   0.862   2.052   6.228
 7636TIP3   OH222850   7.494   3.696   4.270
 7636TIP3    H122851   7.411   3.733   4.240
 7636TIP3    H222852   7.546   3.771   4.296
 7637TIP3   OH222853   2.625   6.505   4.661
 7637TIP3    H122854   2.640   6.595   4.690
 7637TIP3    H222855   2.705   6.458   4.686
 7638TIP3   OH222856   3.824   5.506   6.530
 7638TIP3    H122857   3.907   5.534   6.489
 7638TIP3    H222858   3.759   5.518   6.461
 7639TIP3   OH222859   5.874   1.816   4.808
 7639TIP3    H122860   5.864   1.838   4.716
 7639TIP3    H222861   5.860   1.721   4.811
 7640TIP3   OH222862   5.425   3.008   3.614
 7640TIP3    H122863   5.389   2.992   3.702
 7640TIP3    H222864   5.402   2.929   3.564
 7641TIP3   OH222865   7.466   6.686   5.159
 7641TIP3    H122866   7.496   6.773   5.133
 7641TIP3    H222867   7.371   6.689   5.146
 7642TIP3   OH222868   8.243   7.172   2.256
 7642TIP3    H122869   8.304   7.183   2.183
 7642TIP3    H222870   8.275   7.232   2.323
 7643TIP3   OH222871   0.220   5.809   0.971
 7643TIP3    H122872   0.310   5.843   0.972
 7643TIP3    H222873   0.192   5.810   1.062
 7644TIP3   OH222874   2.775   6.883  -0.033
 7644TIP3    H122875   2.745   6.817   0.030
 7644TIP3    H222876   2.695   6.911  -0.077
 7645TIP3   OH222877   0.608   3.129   0.657
 7645TIP3    H122878   0.655   3.212   0.644
 7645TIP3    H222879   0.628   3.078   0.579
 7646TIP3   OH222880   2.659   4.764   4.099
 7646TIP3    H122881   2.608   4.804   4.029
 7646TIP3    H222882   2.605   4.690   4.128
 7647TIP3   OH222883   6.126   1.370   1.479
 7647TIP3    H122884   6.181   1.307   1.433
 7647TIP3    H222885   6.171   1.454   1.469
 7648TIP3   OH222886   8.069   7.401   2.280
 7648TIP3    H122887   8.067   7.441   2.193
 7648TIP3    H222888   8.136   7.333   2.273
 7649TIP3   OH222889   5.771   0.236   4.596
 7649TIP3    H122890   5.723   0.312   4.564
 7649TIP3    H222891   5.817   0.202   4.520
 7650TIP3   OH222892   4.515   1.327   4.480
 7650TIP3    H122893   4.464   1.391   4.529
 7650TIP3    H222894   4.589   1.376   4.446
 7651TIP3   OH222895   0.091   6.286   6.245
 7651TIP3    H122896   0.179   6.313   6.220
 7651TIP3    H222897   0.033   6.340   6.192
 7652TIP3   OH222898   3.555   6.053   2.294
 7652TIP3    H122899   3.464   6.081   2.296
 7652TIP3    H222900   3.557   5.974   2.347
 7653TIP3   OH222901   7.549   4.783   3.423
 7653TIP3    H122902   7.523   4.835   3.347
 7653TIP3    H222903   7.470   4.778   3.477
 7654TIP3   OH222904   7.471   2.388   0.476
 7654TIP3    H122905   7.448   2.361   0.387
 7654TIP3    H222906   7.565   2.370   0.483
 7655TIP3   OH222907   1.878   1.243   1.113
 7655TIP3    H122908   1.847   1.324   1.155
 7655TIP3    H222909   1.843   1.173   1.168
 7656TIP3   OH222910   6.357   2.506   5.447
 7656TIP3    H122911   6.357   2.534   5.356
 7656TIP3    H222912   6.275   2.539   5.483
 7657TIP3   OH222913   0.960   1.416   5.157
 7657TIP3    H122914   0.952   1.506   5.188
 7657TIP3    H222915   0.950   1.362   5.236
 7658TIP3   OH222916   7.715   2.320   4.093
 7658TIP3    H122917   7.731   2.413   4.077
 7658TIP3    H222918   7.777   2.275   4.036
 7659TIP3   OH222919   5.079   6.472   0.086
 7659TIP3    H122920   5.095   6.392   0.036
 7659TIP3    H222921   5.076   6.443   0.178
 7660TIP3   OH222922   4.977   4.457   6.089
 7660TIP3    H122923   5.023   4.373   6.092
 7660TIP3    H222924   4.965   4.474   5.996
 7661TIP3   OH222925   2.379   4.287   0.916
 7661TIP3    H122926   2.336   4.267   0.999
 7661TIP3    H222927   2.335   4.366   0.884
 7662TIP3   OH222928   0.904   4.592   3.594
 7662TIP3    H122929   0.993   4.558   3.584
 7662TIP3    H222930   0.898   4.613   3.687
 7663TIP3   OH222931   2.418   5.564   1.320
 7663TIP3    H122932   2.339   5.554   1.373
 7663TIP3    H222933   2.490   5.543   1.379
 7664TIP3   OH222934   3.738   2.205   3.814
 7664TIP3    H122935   3.676   2.192   3.743
 7664TIP3    H222936   3.753   2.118   3.851
 7665TIP3   OH222937   0.139   1.756   5.942
 7665TIP3    H122938   0.120   1.682   5.885
 7665TIP3    H222939   0.196   1.720   6.010
 7666TIP3   OH222940   7.215   4.045   5.484
 7666TIP3    H122941   7.172   3.969   5.522
 7666TIP3    H222942   7.275   4.009   5.419
 7667TIP3   OH222943   1.767   7.268   1.036
 7667TIP3    H122944   1.686   7.224   1.012
 7667TIP3    H222945   1.836   7.214   0.996
 7668TIP3   OH222946   1.527   1.987   1.835
 7668TIP3    H122947   1.522   2.042   1.913
 7668TIP3    H222948   1.517   1.898   1.868
 7669TIP3   OH222949   6.800   1.305   1.004
 7669TIP3    H122950   6.710   1.290   1.035
 7669TIP3    H222951   6.807   1.254   0.924
 7670TIP3   OH222952   6.256   6.551   4.520
 7670TIP3    H122953   6.339   6.584   4.484
 7670TIP3    H222954   6.197   6.549   4.445
 7671TIP3   OH222955   3.534   0.288   3.084
 7671TIP3    H122956   3.458   0.229   3.084
 7671TIP3    H222957   3.597   0.245   3.026
 7672TIP3   OH222958   3.679   7.527   3.139
 7672TIP3    H122959   3.761   7.573   3.159
 7672TIP3    H222960   3.610   7.586   3.169
 7673TIP3   OH222961   3.900   1.436   5.811
 7673TIP3    H122962   3.948   1.514   5.783
 7673TIP3    H222963   3.895   1.381   5.733
 7674TIP3   OH222964   7.624   5.405   1.034
 7674TIP3    H122965   7.591   5.494   1.048
 7674TIP3    H222966   7.570   5.350   1.090
 7675TIP3   OH222967   6.655   3.422   5.406
 7675TIP3    H122968   6.685   3.371   5.331
 7675TIP3    H222969   6.695   3.380   5.481
 7676TIP3   OH222970   1.322   0.385   2.164
 7676TIP3    H122971   1.413   0.390   2.196
 7676TIP3    H222972   1.330   0.397   2.069
 7677TIP3   OH222973   2.887   6.530   1.563
 7677TIP3    H122974   2.812   6.552   1.507
 7677TIP3    H222975   2.882   6.435   1.575
 7678TIP3   OH222976   8.282   4.681   4.122
 7678TIP3    H122977   8.215   4.629   4.166
 7678TIP3    H222978   8.317   4.623   4.055
 7679TIP3   OH222979   2.316   2.314   6.702
 7679TIP3    H122980   2.401   2.273   6.721
 7679TIP3    H222981   2.311   2.315   6.607
 7680TIP3   OH222982   0.133   5.940   3.035
 7680TIP3    H122983   0.046   5.916   3.004
 7680TIP3    H222984   0.169   5.858   3.071
 7681TIP3   OH222985   8.089   3.104   6.008
 7681TIP3    H122986   8.073   3.171   6.074
 7681TIP3    H222987   8.013   3.046   6.014
 7682TIP3   OH222988   8.124   5.286   4.129
 7682TIP3    H122989   8.117   5.359   4.068
 7682TIP3    H222990   8.055   5.302   4.194
 7683TIP3   OH222991   1.913   1.949   4.125
 7683TIP3    H122992   1.914   2.039   4.092
 7683TIP3    H222993   1.912   1.959   4.220
 7684TIP3   OH222994   3.314   5.177   6.123
 7684TIP3    H122995   3.316   5.088   6.159
 7684TIP3    H222996   3.224   5.207   6.136
 7685TIP3   OH222997   4.837   3.660   2.750
 7685TIP3    H122998   4.775   3.726   2.778
 7685TIP3    H222999   4.903   3.708   2.699
 7686TIP3   OH223000   4.991   3.542   2.443
 7686TIP3    H123001   5.016   3.479   2.510
 7686TIP3    H223002   5.074   3.573   2.407
 7687TIP3   OH223003   4.617   6.597   5.144
 7687TIP3    H123004   4.571   6.631   5.221
 7687TIP3    H223005   4.551   6.599   5.075
 7688TIP3   OH223006   3.369   6.689   3.252
 7688TIP3    H123007   3.368   6.694   3.347
 7688TIP3    H223008   3.456   6.719   3.226
 7689TIP3   OH223009   0.625   3.747   1.278
 7689TIP3    H123010   0.530   3.757   1.264
 7689TIP3    H223011   0.663   3.761   1.191
 7690TIP3   OH223012   5.349   5.883   3.839
 7690TIP3    H123013   5.322   5.870   3.748
 7690TIP3    H223014   5.365   5.977   3.846
 7691TIP3   OH223015   6.402   4.560   4.144
 7691TIP3    H123016   6.402   4.559   4.240
 7691TIP3    H223017   6.320   4.516   4.120
 7692TIP3   OH223018   3.090   6.972   5.745
 7692TIP3    H123019   3.159   6.905   5.747
 7692TIP3    H223020   3.040   6.956   5.825
 7693TIP3   OH223021   4.722   2.877   1.953
 7693TIP3    H123022   4.663   2.923   2.012
 7693TIP3    H223023   4.778   2.945   1.917
 7694TIP3   OH223024   4.274   4.038   1.601
 7694TIP3    H123025   4.353   4.074   1.641
 7694TIP3    H223026   4.217   4.113   1.588
 7695TIP3   OH223027   5.108   6.290   4.347
 7695TIP3    H123028   5.042   6.324   4.287
 7695TIP3    H223029   5.192   6.311   4.305
 7696TIP3   OH223030   7.292   7.363   2.225
 7696TIP3    H123031   7.375   7.382   2.267
 7696TIP3    H223032   7.227   7.371   2.295
 7697TIP3   OH223033   1.356   6.680   1.799
 7697TIP3    H123034   1.308   6.744   1.852
 7697TIP3    H223035   1.419   6.732   1.749
 7698TIP3   OH223036   3.292   7.545   4.080
 7698TIP3    H123037   3.322   7.609   4.015
 7698TIP3    H223038   3.268   7.598   4.156
 7699TIP3   OH223039   7.958   6.744   6.428
 7699TIP3    H123040   8.005   6.662   6.417
 7699TIP3    H223041   7.988   6.799   6.356
 7700TIP3   OH223042   1.126   2.722   4.019
 7700TIP3    H123043   1.126   2.713   3.924
 7700TIP3    H223044   1.063   2.792   4.037
 7701TIP3   OH223045   4.335   2.811   0.871
 7701TIP3    H123046   4.353   2.904   0.857
 7701TIP3    H223047   4.241   2.802   0.854
 7702TIP3   OH223048   0.919   5.656   3.933
 7702TIP3    H123049   0.944   5.733   3.882
 7702TIP3    H223050   0.974   5.660   4.011
 7703TIP3   OH223051   8.271   1.745   0.396
 7703TIP3    H123052   8.358   1.784   0.400
 7703TIP3    H223053   8.247   1.750   0.304
 7704TIP3   OH223054   5.346   2.593   0.326
 7704TIP3    H123055   5.291   2.599   0.403
 7704TIP3    H223056   5.416   2.656   0.341
 7705TIP3   OH223057   7.101   2.799   4.475
 7705TIP3    H123058   7.148   2.780   4.394
 7705TIP3    H223059   7.011   2.818   4.447
 7706TIP3   OH223060   0.215   5.454   3.559
 7706TIP3    H123061   0.138   5.424   3.510
 7706TIP3    H223062   0.182   5.524   3.615
 7707TIP3   OH223063   3.090   5.646   2.140
 7707TIP3    H123064   3.054   5.574   2.089
 7707TIP3    H223065   3.182   5.623   2.152
 7708TIP3   OH223066   0.196   4.121   0.560
 7708TIP3    H123067   0.288   4.125   0.585
 7708TIP3    H223068   0.170   4.212   0.549
 7709TIP3   OH223069   3.800   6.767   4.250
 7709TIP3    H123070   3.846   6.851   4.249
 7709TIP3    H223071   3.707   6.790   4.251
 7710TIP3   OH223072   3.513   1.805   5.456
 7710TIP3    H123073   3.446   1.807   5.388
 7710TIP3    H223074   3.465   1.789   5.537
 7711TIP3   OH223075   8.324   7.179   3.071
 7711TIP3    H123076   8.242   7.227   3.077
 7711TIP3    H223077   8.340   7.147   3.159
 7712TIP3   OH223078   3.282   6.427   2.683
 7712TIP3    H123079   3.230   6.428   2.603
 7712TIP3    H223080   3.350   6.493   2.669
 7713TIP3   OH223081   3.504   6.740   3.899
 7713TIP3    H123082   3.540   6.786   3.975
 7713TIP3    H223083   3.418   6.780   3.885
 7714TIP3   OH223084   3.630   6.922   1.098
 7714TIP3    H123085   3.580   7.003   1.088
 7714TIP3    H223086   3.682   6.935   1.177
 7715TIP3   OH223087   6.858   6.763   3.470
 7715TIP3    H123088   6.791   6.820   3.508
 7715TIP3    H223089   6.811   6.684   3.444
 7716TIP3   OH223090   2.268   7.130   5.234
 7716TIP3    H123091   2.284   7.216   5.195
 7716TIP3    H223092   2.298   7.068   5.168
 7717TIP3   OH223093   6.854   0.634   3.689
 7717TIP3    H123094   6.808   0.662   3.769
 7717TIP3    H223095   6.877   0.542   3.706
 7718TIP3   OH223096   1.896   7.314   5.208
 7718TIP3    H123097   1.883   7.405   5.184
 7718TIP3    H223098   1.903   7.315   5.304
 7719TIP3   OH223099   2.859   7.675   1.079
 7719TIP3    H123100   2.880   7.584   1.100
 7719TIP3    H223101   2.889   7.687   0.989
 7720TIP3   OH223102   3.071   6.588   6.581
 7720TIP3    H123103   3.090   6.631   6.498
 7720TIP3    H223104   3.056   6.497   6.558
 7721TIP3   OH223105   7.664   2.092   5.827
 7721TIP3    H123106   7.671   2.164   5.763
 7721TIP3    H223107   7.735   2.033   5.804
 7722TIP3   OH223108   0.694   0.482   1.412
 7722TIP3    H123109   0.697   0.449   1.323
 7722TIP3    H223110   0.647   0.565   1.406
 7723TIP3   OH223111   2.783   2.536   2.021
 7723TIP3    H123112   2.806   2.524   1.928
 7723TIP3    H223113   2.845   2.601   2.053
 7724TIP3   OH223114   2.427   2.694   3.659
 7724TIP3    H123115   2.497   2.731   3.607
 7724TIP3    H223116   2.364   2.765   3.668
 7725TIP3   OH223117   0.858   6.672   0.060
 7725TIP3    H123118   0.828   6.592   0.104
 7725TIP3    H223119   0.792   6.689  -0.006
 7726TIP3   OH223120   0.362   3.749   3.473
 7726TIP3    H123121   0.297   3.688   3.508
 7726TIP3    H223122   0.363   3.730   3.379
 7727TIP3   OH223123   5.499   1.413   3.602
 7727TIP3    H123124   5.478   1.322   3.580
 7727TIP3    H223125   5.458   1.426   3.688
 7728TIP3   OH223126   6.360   7.443   1.639
 7728TIP3    H123127   6.267   7.453   1.619
 7728TIP3    H223128   6.362   7.387   1.717
 7729TIP3   OH223129   7.613   7.673   0.944
 7729TIP3    H123130   7.608   7.580   0.965
 7729TIP3    H223131   7.533   7.711   0.980
 7730TIP3   OH223132   7.857   1.770   1.384
 7730TIP3    H123133   7.897   1.684   1.377
 7730TIP3    H223134   7.931   1.830   1.392
 7731TIP3   OH223135   0.950   6.472   3.376
 7731TIP3    H123136   0.950   6.458   3.470
 7731TIP3    H223137   0.858   6.487   3.354
 7732TIP3   OH223138   0.898   5.201   2.829
 7732TIP3    H123139   0.832   5.251   2.781
 7732TIP3    H223140   0.859   5.188   2.916
 7733TIP3   OH223141   2.648   2.757   3.528
 7733TIP3    H123142   2.691   2.688   3.477
 7733TIP3    H223143   2.692   2.838   3.501
 7734TIP3   OH223144   7.643   3.972   3.708
 7734TIP3    H123145   7.727   3.965   3.754
 7734TIP3    H223146   7.618   4.064   3.717
 7735TIP3   OH223147   7.193   0.251   0.180
 7735TIP3    H123148   7.232   0.208   0.104
 7735TIP3    H223149   7.264   0.303   0.218
 7736TIP3   OH223150   5.273   7.608   1.815
 7736TIP3    H123151   5.309   7.653   1.738
 7736TIP3    H223152   5.327   7.639   1.887
 7737TIP3   OH223153   4.800   1.686   6.559
 7737TIP3    H123154   4.887   1.696   6.522
 7737TIP3    H223155   4.741   1.699   6.484
 7738TIP3   OH223156   7.129   7.234   4.654
 7738TIP3    H123157   7.190   7.289   4.606
 7738TIP3    H223158   7.044   7.252   4.613
 7739TIP3   OH223159   7.592   0.274   5.661
 7739TIP3    H123160   7.512   0.290   5.613
 7739TIP3    H223161   7.625   0.190   5.627
 7740TIP3   OH223162   2.637   4.493   1.528
 7740TIP3    H123163   2.545   4.479   1.553
 7740TIP3    H223164   2.634   4.510   1.434
 7741TIP3   OH223165   6.202   3.138   2.441
 7741TIP3    H123166   6.162   3.201   2.501
 7741TIP3    H223167   6.236   3.069   2.498
 7742TIP3   OH223168   0.636   2.786   1.928
 7742TIP3    H123169   0.579   2.752   1.860
 7742TIP3    H223170   0.676   2.708   1.966
 7743TIP3   OH223171   6.443   0.083   3.502
 7743TIP3    H123172   6.423   0.137   3.578
 7743TIP3    H223173   6.537   0.062   3.512
 7744TIP3   OH223174   7.602   1.455   6.500
 7744TIP3    H123175   7.657   1.477   6.425
 7744TIP3    H223176   7.600   1.359   6.501
 7745TIP3   OH223177   5.550   1.080   2.219
 7745TIP3    H123178   5.535   0.997   2.265
 7745TIP3    H223179   5.468   1.128   2.230
 7746TIP3   OH223180   1.109   6.637   2.790
 7746TIP3    H123181   1.120   6.544   2.808
 7746TIP3    H223182   1.056   6.670   2.863
 7747TIP3   OH223183   0.625   7.052   3.433
 7747TIP3    H123184   0.532   7.040   3.417
 7747TIP3    H223185   0.666   7.040   3.348
 7748TIP3   OH223186   1.891   1.039   6.579
 7748TIP3    H123187   1.799   1.066   6.577
 7748TIP3    H223188   1.892   0.964   6.639
 7749TIP3   OH223189   2.703   5.858   3.673
 7749TIP3    H123190   2.712   5.780   3.617
 7749TIP3    H223191   2.766   5.845   3.744
 7750TIP3   OH223192   6.635   3.803   0.136
 7750TIP3    H123193   6.723   3.769   0.152
 7750TIP3    H223194   6.647   3.871   0.070
 7751TIP3   OH223195   6.558   0.639   1.857
 7751TIP3    H123196   6.571   0.674   1.769
 7751TIP3    H223197   6.469   0.664   1.881
 7752TIP3   OH223198   4.336   3.968   0.349
 7752TIP3    H123199   4.367   3.938   0.434
 7752TIP3    H223200   4.242   3.949   0.349
 7753TIP3   OH223201   6.182   4.118   2.777
 7753TIP3    H123202   6.217   4.188   2.832
 7753TIP3    H223203   6.219   4.038   2.813
 7754TIP3   OH223204   2.835   2.032   5.447
 7754TIP3    H123205   2.801   2.117   5.421
 7754TIP3    H223206   2.918   2.023   5.399
 7755TIP3   OH223207   5.215   5.418   3.588
 7755TIP3    H123208   5.250   5.333   3.615
 7755TIP3    H223209   5.183   5.457   3.669
 7756TIP3   OH223210   2.779   6.672   1.961
 7756TIP3    H123211   2.748   6.720   2.038
 7756TIP3    H223212   2.725   6.706   1.889
 7757TIP3   OH223213   4.545   2.804   4.096
 7757TIP3    H123214   4.545   2.894   4.062
 7757TIP3    H223215   4.636   2.777   4.095
 7758TIP3   OH223216   3.586   1.034   3.166
 7758TIP3    H123217   3.520   0.994   3.111
 7758TIP3    H223218   3.621   0.962   3.218
 7759TIP3   OH223219   0.225   1.083   6.686
 7759TIP3    H123220   0.167   1.125   6.621
 7759TIP3    H223221   0.301   1.141   6.690
 7760TIP3   OH223222   3.547   6.428   1.297
 7760TIP3    H123223   3.451   6.423   1.304
 7760TIP3    H223224   3.569   6.365   1.228
 7761TIP3   OH223225   5.840   6.363   5.179
 7761TIP3    H123226   5.850   6.373   5.085
 7761TIP3    H223227   5.915   6.409   5.217
 7762TIP3   OH223228   3.738   5.779   4.767
 7762TIP3    H123229   3.820   5.816   4.800
 7762TIP3    H223230   3.746   5.784   4.671
 7763TIP3   OH223231   3.782   2.119   3.336
 7763TIP3    H123232   3.755   2.042   3.387
 7763TIP3    H223233   3.707   2.138   3.280
 7764TIP3   OH223234   0.376   1.554   5.817
 7764TIP3    H123235   0.365   1.635   5.766
 7764TIP3    H223236   0.448   1.508   5.774
 7765TIP3   OH223237   4.186   7.687   5.305
 7765TIP3    H123238   4.148   7.679   5.217
 7765TIP3    H223239   4.120   7.734   5.355
 7766TIP3   OH223240   6.754   2.902   0.406
 7766TIP3    H123241   6.661   2.895   0.385
 7766TIP3    H223242   6.796   2.925   0.323
 7767TIP3   OH223243   4.425   5.586   4.122
 7767TIP3    H123244   4.514   5.560   4.145
 7767TIP3    H223245   4.434   5.635   4.040
 7768TIP3   OH223246   6.039   3.146   0.732
 7768TIP3    H123247   6.124   3.138   0.775
 7768TIP3    H223248   6.002   3.057   0.734
 7769TIP3   OH223249   1.948   2.251   2.505
 7769TIP3    H123250   1.902   2.177   2.465
 7769TIP3    H223251   1.970   2.308   2.431
 7770TIP3   OH223252   5.702   0.521   0.883
 7770TIP3    H123253   5.652   0.473   0.817
 7770TIP3    H223254   5.635   0.566   0.935
 7771TIP3   OH223255   5.579   0.877   4.109
 7771TIP3    H123256   5.491   0.853   4.080
 7771TIP3    H223257   5.587   0.836   4.196
 7772TIP3   OH223258   2.222   4.438   2.533
 7772TIP3    H123259   2.184   4.488   2.606
 7772TIP3    H223260   2.301   4.487   2.509
 7773TIP3   OH223261   7.126   1.943   5.709
 7773TIP3    H123262   7.116   1.855   5.747
 7773TIP3    H223263   7.175   1.928   5.628
 7774TIP3   OH223264   4.014   5.510   3.568
 7774TIP3    H123265   3.957   5.587   3.564
 7774TIP3    H223266   4.085   5.529   3.508
 7775TIP3   OH223267   5.588   1.942   3.961
 7775TIP3    H123268   5.571   1.881   3.889
 7775TIP3    H223269   5.552   1.898   4.038
 7776TIP3   OH223270   2.423   6.446   6.313
 7776TIP3    H123271   2.413   6.541   6.319
 7776TIP3    H223272   2.333   6.413   6.309
 7777TIP3   OH223273   5.845   4.535   4.933
 7777TIP3    H123274   5.795   4.491   4.864
 7777TIP3    H223275   5.813   4.625   4.932
 7778TIP3   OH223276   0.942   6.139   5.627
 7778TIP3    H123277   0.965   6.048   5.649
 7778TIP3    H223278   0.981   6.191   5.697
 7779TIP3   OH223279   5.904   1.798   2.269
 7779TIP3    H123280   5.896   1.885   2.307
 7779TIP3    H223281   5.956   1.811   2.190
 7780TIP3   OH223282   1.671   2.827   1.799
 7780TIP3    H123283   1.680   2.912   1.757
 7780TIP3    H223284   1.760   2.803   1.826
 7781TIP3   OH223285   0.720   4.362   3.488
 7781TIP3    H123286   0.639   4.369   3.438
 7781TIP3    H223287   0.749   4.452   3.500
 7782TIP3   OH223288   0.610   6.076   1.253
 7782TIP3    H123289   0.698   6.038   1.249
 7782TIP3    H223290   0.571   6.056   1.169
 7783TIP3   OH223291   7.393   1.300   2.531
 7783TIP3    H123292   7.341   1.254   2.597
 7783TIP3    H223293   7.329   1.354   2.483
 7784TIP3   OH223294   7.500   0.902   6.834
 7784TIP3    H123295   7.408   0.920   6.814
 7784TIP3    H223296   7.547   0.927   6.754
 7785TIP3   OH223297   7.681   2.466   1.498
 7785TIP3    H123298   7.765   2.489   1.457
 7785TIP3    H223299   7.685   2.371   1.509
 7786TIP3   OH223300   5.103   1.883   3.676
 7786TIP3    H123301   5.054   1.911   3.599
 7786TIP3    H223302   5.084   1.789   3.683
 7787TIP3   OH223303   8.146   2.640   1.005
 7787TIP3    H123304   8.118   2.556   0.969
 7787TIP3    H223305   8.187   2.685   0.931
 7788TIP3   OH223306   4.534   1.934   3.250
 7788TIP3    H123307   4.579   1.931   3.166
 7788TIP3    H223308   4.587   1.992   3.304
 7789TIP3   OH223309   3.496   2.383   6.053
 7789TIP3    H123310   3.455   2.349   5.973
 7789TIP3    H223311   3.459   2.330   6.123
 7790TIP3   OH223312   7.968   4.612   3.790
 7790TIP3    H123313   7.911   4.679   3.827
 7790TIP3    H223314   8.054   4.653   3.786
 7791TIP3   OH223315   4.628   5.514   3.470
 7791TIP3    H123316   4.587   5.431   3.447
 7791TIP3    H223317   4.664   5.547   3.388
 7792TIP3   OH223318   3.311   2.862   2.228
 7792TIP3    H123319   3.405   2.843   2.225
 7792TIP3    H223320   3.275   2.794   2.284
 7793TIP3   OH223321   8.047   3.434   6.070
 7793TIP3    H123322   8.059   3.432   6.165
 7793TIP3    H223323   8.114   3.495   6.039
 7794TIP3   OH223324   6.253   6.141   0.486
 7794TIP3    H123325   6.270   6.225   0.444
 7794TIP3    H223326   6.181   6.103   0.435
 7795TIP3   OH223327   0.346   2.675   6.532
 7795TIP3    H123328   0.301   2.695   6.450
 7795TIP3    H223329   0.414   2.612   6.506
 7796TIP3   OH223330   5.753   3.494   0.869
 7796TIP3    H123331   5.776   3.406   0.899
 7796TIP3    H223332   5.836   3.542   0.870
 7797TIP3   OH223333   4.732   4.014   2.473
 7797TIP3    H123334   4.734   3.922   2.500
 7797TIP3    H223335   4.824   4.039   2.464
 7798TIP3   OH223336   6.961   7.334   1.376
 7798TIP3    H123337   6.950   7.264   1.440
 7798TIP3    H223338   7.055   7.348   1.370
 7799TIP3   OH223339   0.957   2.720   5.180
 7799TIP3    H123340   0.863   2.728   5.195
 7799TIP3    H223341   0.978   2.790   5.119
 7800TIP3   OH223342   4.229   2.268   5.988
 7800TIP3    H123343   4.147   2.238   6.026
 7800TIP3    H223344   4.213   2.271   5.894
 7801TIP3   OH223345   4.585   7.223   2.970
 7801TIP3    H123346   4.630   7.181   2.897
 7801TIP3    H223347   4.567   7.152   3.031
 7802TIP3   OH223348   1.227   5.484   4.017
 7802TIP3    H123349   1.243   5.572   4.049
 7802TIP3    H223350   1.141   5.461   4.051
 7803TIP3   OH223351   0.422   7.709   1.885
 7803TIP3    H123352   0.372   7.788   1.904
 7803TIP3    H223353   0.411   7.695   1.791
 7804TIP3   OH223354   0.504   4.320   4.651
 7804TIP3    H123355   0.460   4.239   4.677
 7804TIP3    H223356   0.587   4.318   4.699
 7805TIP3   OH223357   3.017   2.402   5.610
 7805TIP3    H123358   2.951   2.366   5.551
 7805TIP3    H223359   2.984   2.384   5.698
 7806TIP3   OH223360   6.544   2.014   0.278
 7806TIP3    H123361   6.522   2.074   0.206
 7806TIP3    H223362   6.460   1.979   0.307
 7807TIP3   OH223363   3.147   6.910   5.355
 7807TIP3    H123364   3.053   6.892   5.344
 7807TIP3    H223365   3.150   6.976   5.425
 7808TIP3   OH223366   3.866   4.381   1.089
 7808TIP3    H123367   3.846   4.425   1.007
 7808TIP3    H223368   3.801   4.416   1.151
 7809TIP3   OH223369   5.968   4.772   5.970
 7809TIP3    H123370   6.012   4.857   5.975
 7809TIP3    H223371   5.956   4.745   6.061
 7810TIP3   OH223372   0.541   3.547   0.769
 7810TIP3    H123373   0.519   3.595   0.689
 7810TIP3    H223374   0.637   3.548   0.771
 7811TIP3   OH223375   6.321   1.646   4.567
 7811TIP3    H123376   6.367   1.723   4.599
 7811TIP3    H223377   6.283   1.606   4.645
 7812TIP3   OH223378   3.898   6.443   2.824
 7812TIP3    H123379   3.855   6.528   2.837
 7812TIP3    H223380   3.979   6.450   2.874
 7813TIP3   OH223381   0.740   6.895   4.936
 7813TIP3    H123382   0.698   6.812   4.911
 7813TIP3    H223383   0.728   6.900   5.031
 7814TIP3   OH223384   1.542   3.304   2.300
 7814TIP3    H123385   1.623   3.323   2.348
 7814TIP3    H223386   1.536   3.374   2.236
 7815TIP3   OH223387   7.995   7.181   4.322
 7815TIP3    H123388   7.957   7.243   4.259
 7815TIP3    H223389   8.084   7.168   4.291
 7816TIP3   OH223390   1.441   5.348   2.199
 7816TIP3    H123391   1.451   5.388   2.113
 7816TIP3    H223392   1.369   5.395   2.240
 7817TIP3   OH223393   6.675   0.678   4.447
 7817TIP3    H123394   6.595   0.654   4.493
 7817TIP3    H223395   6.736   0.607   4.467
 7818TIP3   OH223396   7.903   4.128   0.903
 7818TIP3    H123397   7.885   4.053   0.846
 7818TIP3    H223398   7.883   4.204   0.849
 7819TIP3   OH223399   3.624   1.981   0.700
 7819TIP3    H123400   3.569   1.960   0.776
 7819TIP3    H223401   3.670   1.900   0.680
 7820TIP3   OH223402   1.854   0.834   4.428
 7820TIP3    H123403   1.918   0.900   4.403
 7820TIP3    H223404   1.828   0.858   4.517
 7821TIP3   OH223405   6.705   0.148   2.543
 7821TIP3    H123406   6.785   0.165   2.494
 7821TIP3    H223407   6.636   0.145   2.476
 7822TIP3   OH223408   6.636   2.947   3.958
 7822TIP3    H123409   6.552   2.945   3.912
 7822TIP3    H223410   6.662   3.039   3.955
 7823TIP3   OH223411   4.971   6.405   1.497
 7823TIP3    H123412   4.935   6.362   1.419
 7823TIP3    H223413   4.901   6.400   1.562
 7824TIP3   OH223414   7.993   5.050   6.525
 7824TIP3    H123415   8.015   4.957   6.522
 7824TIP3    H223416   8.076   5.094   6.544
 7825TIP3   OH223417   3.882   2.300   4.336
 7825TIP3    H123418   3.967   2.330   4.303
 7825TIP3    H223419   3.840   2.380   4.367
 7826TIP3   OH223420   6.874   3.345   5.900
 7826TIP3    H123421   6.790   3.330   5.858
 7826TIP3    H223422   6.865   3.429   5.945
 7827TIP3   OH223423   0.557   4.572   1.135
 7827TIP3    H123424   0.496   4.634   1.174
 7827TIP3    H223425   0.644   4.610   1.149
 7828TIP3   OH223426   5.874   6.908   4.853
 7828TIP3    H123427   5.844   6.826   4.891
 7828TIP3    H223428   5.964   6.917   4.884
 7829TIP3   OH223429   2.443   1.303   6.702
 7829TIP3    H123430   2.408   1.214   6.703
 7829TIP3    H223431   2.533   1.294   6.733
 7830TIP3   OH223432   6.007   4.748   2.505
 7830TIP3    H123433   6.079   4.703   2.549
 7830TIP3    H223434   6.049   4.804   2.441
 7831TIP3   OH223435   5.160   4.524   2.078
 7831TIP3    H123436   5.237   4.479   2.042
 7831TIP3    H223437   5.188   4.615   2.084
 7832TIP3   OH223438   5.185   5.517   3.846
 7832TIP3    H123439   5.254   5.556   3.900
 7832TIP3    H223440   5.137   5.460   3.906
 7833TIP3   OH223441   6.798   0.290   4.308
 7833TIP3    H123442   6.709   0.321   4.290
 7833TIP3    H223443   6.786   0.203   4.347
 7834TIP3   OH223444   4.537   6.995   1.001
 7834TIP3    H123445   4.463   6.985   0.941
 7834TIP3    H223446   4.519   6.933   1.072
 7835TIP3   OH223447   1.193   0.224   2.651
 7835TIP3    H123448   1.234   0.149   2.607
 7835TIP3    H223449   1.252   0.297   2.633
 7836TIP3   OH223450   3.758   2.693   1.120
 7836TIP3    H123451   3.839   2.742   1.108
 7836TIP3    H223452   3.757   2.631   1.046
 7837TIP3   OH223453   6.415   0.385   1.712
 7837TIP3    H123454   6.503   0.360   1.742
 7837TIP3    H223455   6.431   0.455   1.648
 7838TIP3   OH223456   3.163   3.450   5.809
 7838TIP3    H123457   3.082   3.461   5.760
 7838TIP3    H223458   3.229   3.494   5.756
 7839TIP3   OH223459   3.396   5.090   2.288
 7839TIP3    H123460   3.342   5.058   2.216
 7839TIP3    H223461   3.419   5.011   2.338
 7840TIP3   OH223462   3.980   7.478   4.613
 7840TIP3    H123463   4.024   7.483   4.697
 7840TIP3    H223464   3.888   7.492   4.633
 7841TIP3   OH223465   2.017   2.570   5.660
 7841TIP3    H123466   1.974   2.490   5.688
 7841TIP3    H223467   2.111   2.549   5.664
 7842TIP3   OH223468   6.869   6.949   3.030
 7842TIP3    H123469   6.777   6.937   3.052
 7842TIP3    H223470   6.916   6.921   3.109
 7843TIP3   OH223471   7.197   3.538   3.489
 7843TIP3    H123472   7.260   3.553   3.418
 7843TIP3    H223473   7.226   3.596   3.560
 7844TIP3   OH223474   0.686   7.024   3.174
 7844TIP3    H123475   0.768   7.008   3.128
 7844TIP3    H223476   0.620   6.974   3.124
 7845TIP3   OH223477   4.104   7.772   6.204
 7845TIP3    H123478   4.186   7.766   6.253
 7845TIP3    H223479   4.096   7.686   6.162
 7846TIP3   OH223480   3.564   5.285   0.917
 7846TIP3    H123481   3.537   5.289   0.825
 7846TIP3    H223482   3.653   5.249   0.914
 7847TIP3   OH223483   4.840   7.861   5.877
 7847TIP3    H123484   4.857   7.770   5.900
 7847TIP3    H223485   4.772   7.857   5.810
 7848TIP3   OH223486   3.300   6.397   0.985
 7848TIP3    H123487   3.224   6.454   0.995
 7848TIP3    H223488   3.337   6.391   1.074
 7849TIP3   OH223489   0.947   4.803   3.422
 7849TIP3    H123490   0.906   4.750   3.490
 7849TIP3    H223491   0.879   4.866   3.396
 7850TIP3   OH223492   4.082   2.639   2.516
 7850TIP3    H123493   4.165   2.617   2.473
 7850TIP3    H223494   4.063   2.563   2.570
 7851TIP3   OH223495   6.072   2.699   4.224
 7851TIP3    H123496   6.030   2.672   4.143
 7851TIP3    H223497   6.031   2.645   4.292
 7852TIP3   OH223498   3.489   6.217   3.638
 7852TIP3    H123499   3.532   6.302   3.632
 7852TIP3    H223500   3.421   6.229   3.704
 7853TIP3   OH223501   0.069   0.931   1.596
 7853TIP3    H123502   0.071   0.899   1.506
 7853TIP3    H223503  -0.019   0.907   1.627
 7854TIP3   OH223504   6.791   4.515   2.608
 7854TIP3    H123505   6.873   4.466   2.616
 7854TIP3    H223506   6.815   4.595   2.562
 7855TIP3   OH223507   2.863   7.884   5.680
 7855TIP3    H123508   2.835   7.976   5.688
 7855TIP3    H223509   2.795   7.835   5.726
 7856TIP3   OH223510   2.705   6.018   6.584
 7856TIP3    H123511   2.680   6.103   6.620
 7856TIP3    H223512   2.768   5.983   6.647
 7857TIP3   OH223513   2.185   4.518   5.033
 7857TIP3    H123514   2.176   4.451   5.100
 7857TIP3    H223515   2.279   4.534   5.027
 7858TIP3   OH223516   3.496   0.684   4.907
 7858TIP3    H123517   3.483   0.645   4.993
 7858TIP3    H223518   3.567   0.633   4.868
 7859TIP3   OH223519   3.550   3.993   0.850
 7859TIP3    H123520   3.488   3.947   0.793
 7859TIP3    H223521   3.564   3.932   0.923
 7860TIP3   OH223522   4.486   3.601   6.336
 7860TIP3    H123523   4.423   3.657   6.380
 7860TIP3    H223524   4.460   3.604   6.243
 7861TIP3   OH223525   2.808   0.666   2.781
 7861TIP3    H123526   2.831   0.594   2.841
 7861TIP3    H223527   2.757   0.624   2.712
 7862TIP3   OH223528   6.987   3.673   6.241
 7862TIP3    H123529   6.924   3.601   6.249
 7862TIP3    H223530   6.946   3.735   6.181
 7863TIP3   OH223531   8.223   1.685   6.286
 7863TIP3    H123532   8.210   1.594   6.257
 7863TIP3    H223533   8.252   1.730   6.206
 7864TIP3   OH223534   6.988   5.624   1.852
 7864TIP3    H123535   6.960   5.715   1.842
 7864TIP3    H223536   6.940   5.594   1.929
 7865TIP3   OH223537   6.556   3.584   0.718
 7865TIP3    H123538   6.499   3.507   0.717
 7865TIP3    H223539   6.588   3.589   0.808
 7866TIP3   OH223540   4.991   6.242   5.269
 7866TIP3    H123541   5.049   6.198   5.332
 7866TIP3    H223542   4.940   6.302   5.322
 7867TIP3   OH223543   4.068   1.495   2.474
 7867TIP3    H123544   4.053   1.489   2.569
 7867TIP3    H223545   3.994   1.450   2.435
 7868TIP3   OH223546   4.525   4.929   6.377
 7868TIP3    H123547   4.529   4.867   6.450
 7868TIP3    H223548   4.617   4.946   6.356
 7869TIP3   OH223549   0.758   3.085   1.874
 7869TIP3    H123550   0.747   3.110   1.783
 7869TIP3    H223551   0.826   3.144   1.908
 7870TIP3   OH223552   1.406   6.877   3.556
 7870TIP3    H123553   1.429   6.861   3.464
 7870TIP3    H223554   1.407   6.790   3.596
 7871TIP3   OH223555   7.193   2.605   6.023
 7871TIP3    H123556   7.269   2.596   6.080
 7871TIP3    H223557   7.218   2.672   5.960
 7872TIP3   OH223558   6.700   1.782   1.681
 7872TIP3    H123559   6.631   1.809   1.742
 7872TIP3    H223560   6.781   1.789   1.731
 7873TIP3   OH223561   6.590   5.383   3.293
 7873TIP3    H123562   6.575   5.301   3.246
 7873TIP3    H223563   6.665   5.422   3.249
 7874TIP3   OH223564   3.486   0.961   5.276
 7874TIP3    H123565   3.433   1.010   5.339
 7874TIP3    H223566   3.475   1.007   5.193
 7875TIP3   OH223567   0.537   7.441   1.429
 7875TIP3    H123568   0.456   7.398   1.402
 7875TIP3    H223569   0.564   7.492   1.352
 7876TIP3   OH223570   3.187   6.919   4.713
 7876TIP3    H123571   3.197   6.824   4.713
 7876TIP3    H223572   3.123   6.937   4.782
 7877TIP3   OH223573   4.298   6.437   1.436
 7877TIP3    H123574   4.326   6.490   1.511
 7877TIP3    H223575   4.377   6.389   1.411
 7878TIP3   OH223576   8.256   7.223   4.624
 7878TIP3    H123577   8.301   7.287   4.568
 7878TIP3    H223578   8.280   7.249   4.713
 7879TIP3   OH223579   3.497   4.718   2.130
 7879TIP3    H123580   3.425   4.725   2.192
 7879TIP3    H223581   3.493   4.628   2.099
 7880TIP3   OH223582   4.188   7.318   3.822
 7880TIP3    H123583   4.120   7.367   3.775
 7880TIP3    H223584   4.154   7.228   3.826
 7881TIP3   OH223585   4.081   2.514   3.811
 7881TIP3    H123586   3.989   2.491   3.823
 7881TIP3    H223587   4.127   2.470   3.882
 7882TIP3   OH223588   6.908   2.378   2.669
 7882TIP3    H123589   6.945   2.350   2.753
 7882TIP3    H223590   6.982   2.419   2.623
 7883TIP3   OH223591   5.758   4.928   4.017
 7883TIP3    H123592   5.696   4.862   3.985
 7883TIP3    H223593   5.752   4.999   3.952
 7884TIP3   OH223594   0.991   4.167   0.414
 7884TIP3    H123595   1.009   4.127   0.329
 7884TIP3    H223596   1.073   4.210   0.438
 7885TIP3   OH223597   6.493   4.858   4.306
 7885TIP3    H123598   6.452   4.773   4.326
 7885TIP3    H223599   6.457   4.918   4.372
 7886TIP3   OH223600   4.385   1.939   4.379
 7886TIP3    H123601   4.354   2.009   4.437
 7886TIP3    H223602   4.477   1.928   4.402
 7887TIP3   OH223603   5.131   7.099   3.025
 7887TIP3    H123604   5.044   7.067   3.049
 7887TIP3    H223605   5.183   7.020   3.011
 7888TIP3   OH223606   7.116  -0.004   6.311
 7888TIP3    H123607   7.175  -0.077   6.296
 7888TIP3    H223608   7.173   0.067   6.340
 7889TIP3   OH223609   3.476   6.617   5.877
 7889TIP3    H123610   3.460   6.538   5.825
 7889TIP3    H223611   3.514   6.584   5.959
 7890TIP3   OH223612   5.522   6.767   3.698
 7890TIP3    H123613   5.586   6.828   3.660
 7890TIP3    H223614   5.503   6.803   3.784
 7891TIP3   OH223615   3.080   4.432   4.554
 7891TIP3    H123616   3.070   4.446   4.648
 7891TIP3    H223617   3.151   4.370   4.545
 7892TIP3   OH223618   4.502   3.654   3.295
 7892TIP3    H123619   4.467   3.668   3.382
 7892TIP3    H223620   4.514   3.742   3.259
 7893TIP3   OH223621   2.008   5.132   5.484
 7893TIP3    H123622   2.060   5.188   5.541
 7893TIP3    H223623   2.072   5.073   5.444
 7894TIP3   OH223624   2.335   7.462   2.657
 7894TIP3    H123625   2.292   7.526   2.601
 7894TIP3    H223626   2.270   7.441   2.724
 7895TIP3   OH223627   6.906   0.281   1.608
 7895TIP3    H123628   6.870   0.205   1.564
 7895TIP3    H223629   6.986   0.248   1.650
 7896TIP3   OH223630   2.429   5.624   6.499
 7896TIP3    H123631   2.474   5.679   6.434
 7896TIP3    H223632   2.390   5.687   6.560
 7897TIP3   OH223633   5.041   1.294   1.317
 7897TIP3    H123634   5.025   1.202   1.338
 7897TIP3    H223635   4.957   1.337   1.332
 7898TIP3   OH223636   3.627   5.127   3.438
 7898TIP3    H123637   3.688   5.200   3.436
 7898TIP3    H223638   3.541   5.168   3.451
 7899TIP3   OH223639   1.651   4.210   1.460
 7899TIP3    H123640   1.605   4.253   1.388
 7899TIP3    H223641   1.627   4.118   1.452
 7900TIP3   OH223642   1.178   5.077   0.472
 7900TIP3    H123643   1.208   5.164   0.447
 7900TIP3    H223644   1.093   5.092   0.514
 7901TIP3   OH223645   1.115   7.046   4.770
 7901TIP3    H123646   1.160   7.033   4.854
 7901TIP3    H223647   1.162   6.989   4.709
 7902TIP3   OH223648   5.406   2.323   6.597
 7902TIP3    H123649   5.398   2.393   6.533
 7902TIP3    H223650   5.425   2.245   6.544
 7903TIP3   OH223651   0.594   1.776   4.506
 7903TIP3    H123652   0.499   1.787   4.504
 7903TIP3    H223653   0.625   1.848   4.561
 7904TIP3   OH223654  -0.019   6.056   1.203
 7904TIP3    H123655   0.041   6.011   1.262
 7904TIP3    H223656  -0.028   5.998   1.127
 7905TIP3   OH223657   3.245   3.186   6.239
 7905TIP3    H123658   3.161   3.222   6.268
 7905TIP3    H223659   3.224   3.100   6.205
 7906TIP3   OH223660   3.879   6.072   0.884
 7906TIP3    H123661   3.936   5.995   0.880
 7906TIP3    H223662   3.933   6.144   0.851
 7907TIP3   OH223663   4.529   0.059   1.652
 7907TIP3    H123664   4.474  -0.015   1.678
 7907TIP3    H223665   4.520   0.063   1.557
 7908TIP3   OH223666   0.832   0.571   6.283
 7908TIP3    H123667   0.892   0.523   6.340
 7908TIP3    H223668   0.885   0.598   6.208
 7909TIP3   OH223669   0.633   0.119   5.993
 7909TIP3    H123670   0.708   0.082   6.040
 7909TIP3    H223671   0.577   0.156   6.061
 7910TIP3   OH223672   2.939   3.602   3.599
 7910TIP3    H123673   2.960   3.523   3.649
 7910TIP3    H223674   2.887   3.570   3.525
 7911TIP3   OH223675   1.700   3.322   3.977
 7911TIP3    H123676   1.748   3.262   4.034
 7911TIP3    H223677   1.625   3.351   4.029
 7912TIP3   OH223678   1.131   5.295   4.644
 7912TIP3    H123679   1.162   5.317   4.732
 7912TIP3    H223680   1.211   5.276   4.594
 7913TIP3   OH223681   2.638   7.719   0.728
 7913TIP3    H123682   2.715   7.682   0.771
 7913TIP3    H223683   2.659   7.715   0.634
 7914TIP3   OH223684   4.357   4.149   5.077
 7914TIP3    H123685   4.368   4.220   5.014
 7914TIP3    H223686   4.277   4.104   5.050
 7915TIP3   OH223687   6.468   5.175   3.452
 7915TIP3    H123688   6.562   5.173   3.472
 7915TIP3    H223689   6.456   5.107   3.385
 7916TIP3   OH223690   3.966   5.856   4.884
 7916TIP3    H123691   3.991   5.936   4.929
 7916TIP3    H223692   3.983   5.786   4.947
 7917TIP3   OH223693   7.586   1.274   0.324
 7917TIP3    H123694   7.572   1.319   0.407
 7917TIP3    H223695   7.675   1.239   0.330
 7918TIP3   OH223696   0.424   4.994   2.779
 7918TIP3    H123697   0.378   5.030   2.855
 7918TIP3    H223698   0.467   5.069   2.739
 7919TIP3   OH223699   6.140   1.018   0.323
 7919TIP3    H123700   6.061   0.968   0.347
 7919TIP3    H223701   6.194   0.956   0.275
 7920TIP3   OH223702   1.817   3.869   1.407
 7920TIP3    H123703   1.903   3.834   1.382
 7920TIP3    H223704   1.810   3.951   1.359
 7921TIP3   OH223705   0.076   6.616   1.546
 7921TIP3    H123706   0.045   6.680   1.610
 7921TIP3    H223707   0.107   6.543   1.598
 7922TIP3   OH223708   7.467   6.851   6.297
 7922TIP3    H123709   7.490   6.908   6.223
 7922TIP3    H223710   7.546   6.799   6.312
 7923TIP3   OH223711   2.474   7.705   6.740
 7923TIP3    H123712   2.492   7.669   6.654
 7923TIP3    H223713   2.553   7.755   6.762
 7924TIP3   OH223714   3.292   6.054   2.182
 7924TIP3    H123715   3.292   6.147   2.159
 7924TIP3    H223716   3.218   6.017   2.135
 7925TIP3   OH223717   5.083   3.336   1.244
 7925TIP3    H123718   5.036   3.415   1.217
 7925TIP3    H223719   5.046   3.315   1.330
 7926TIP3   OH223720   5.672   1.956   3.351
 7926TIP3    H123721   5.726   1.920   3.280
 7926TIP3    H223722   5.732   1.964   3.425
 7927TIP3   OH223723   0.640   1.412   0.766
 7927TIP3    H123724   0.565   1.471   0.760
 7927TIP3    H223725   0.618   1.351   0.836
 7928TIP3   OH223726   5.539   6.333   4.424
 7928TIP3    H123727   5.523   6.249   4.466
 7928TIP3    H223728   5.462   6.348   4.369
 7929TIP3   OH223729   7.110   6.053   0.951
 7929TIP3    H123730   7.137   6.050   0.859
 7929TIP3    H223731   7.136   5.969   0.987
 7930TIP3   OH223732   4.572   6.387   3.710
 7930TIP3    H123733   4.479   6.401   3.696
 7930TIP3    H223734   4.590   6.424   3.796
 7931TIP3   OH223735   0.641   0.309   2.167
 7931TIP3    H123736   0.677   0.318   2.255
 7931TIP3    H223737   0.701   0.249   2.122
 7932TIP3   OH223738   7.857   3.435   1.990
 7932TIP3    H123739   7.867   3.340   1.996
 7932TIP3    H223740   7.895   3.468   2.071
 7933TIP3   OH223741   2.153   5.746   0.255
 7933TIP3    H123742   2.226   5.738   0.193
 7933TIP3    H223743   2.112   5.659   0.255
 7934TIP3   OH223744   2.226   1.242   3.924
 7934TIP3    H123745   2.201   1.315   3.866
 7934TIP3    H223746   2.304   1.274   3.970
 7935TIP3   OH223747   4.517   0.299   2.994
 7935TIP3    H123748   4.488   0.209   2.978
 7935TIP3    H223749   4.482   0.319   3.082
 7936TIP3   OH223750   7.984   2.031   0.508
 7936TIP3    H123751   8.038   2.095   0.553
 7936TIP3    H223752   7.930   1.992   0.576
 7937TIP3   OH223753   6.280   3.015   0.389
 7937TIP3    H123754   6.216   2.955   0.352
 7937TIP3    H223755   6.250   3.102   0.363
 7938TIP3   OH223756   2.260   2.908   4.360
 7938TIP3    H123757   2.274   2.916   4.455
 7938TIP3    H223758   2.340   2.869   4.327
 7939TIP3   OH223759   1.899   4.312   5.068
 7939TIP3    H123760   1.806   4.334   5.067
 7939TIP3    H223761   1.932   4.349   5.150
 7940TIP3   OH223762   4.299   1.281   6.521
 7940TIP3    H123763   4.375   1.266   6.464
 7940TIP3    H223764   4.225   1.243   6.473
 7941TIP3   OH223765   6.618   4.689   4.991
 7941TIP3    H123766   6.528   4.703   4.963
 7941TIP3    H223767   6.655   4.629   4.926
 7942TIP3   OH223768   6.920   6.876   1.161
 7942TIP3    H123769   6.976   6.881   1.239
 7942TIP3    H223770   6.840   6.833   1.192
 7943TIP3   OH223771   0.033   3.323   6.612
 7943TIP3    H123772   0.054   3.334   6.519
 7943TIP3    H223773   0.016   3.412   6.643
 7944TIP3   OH223774   6.144   3.252   1.923
 7944TIP3    H123775   6.187   3.167   1.924
 7944TIP3    H223776   6.161   3.287   1.836
 7945TIP3   OH223777   5.356   1.275   1.029
 7945TIP3    H123778   5.362   1.185   0.996
 7945TIP3    H223779   5.434   1.319   0.992
 7946TIP3   OH223780   6.544   5.476   2.885
 7946TIP3    H123781   6.623   5.485   2.938
 7946TIP3    H223782   6.472   5.482   2.949
 7947TIP3   OH223783   3.121   1.336   4.882
 7947TIP3    H123784   3.108   1.255   4.834
 7947TIP3    H223785   3.080   1.321   4.967
 7948TIP3   OH223786   7.810   2.040   2.282
 7948TIP3    H123787   7.758   2.070   2.207
 7948TIP3    H223788   7.782   1.950   2.297
 7949TIP3   OH223789   0.459   7.428   0.043
 7949TIP3    H123790   0.426   7.506   0.088
 7949TIP3    H223791   0.480   7.367   0.113
 7950TIP3   OH223792   6.800   7.634   1.490
 7950TIP3    H123793   6.890   7.656   1.469
 7950TIP3    H223794   6.807   7.551   1.538
 7951TIP3   OH223795   2.245   4.468   1.316
 7951TIP3    H123796   2.188   4.423   1.378
 7951TIP3    H223797   2.192   4.542   1.284
 7952TIP3   OH223798   7.298   5.165   3.268
 7952TIP3    H123799   7.346   5.083   3.267
 7952TIP3    H223800   7.215   5.146   3.223
 7953TIP3   OH223801   8.318   4.888   4.401
 7953TIP3    H123802   8.343   4.800   4.373
 7953TIP3    H223803   8.223   4.882   4.415
 7954TIP3   OH223804   1.688   5.604   2.981
 7954TIP3    H123805   1.723   5.660   3.050
 7954TIP3    H223806   1.672   5.520   3.025
 7955TIP3   OH223807   3.004   6.571   1.251
 7955TIP3    H123808   2.914   6.579   1.283
 7955TIP3    H223809   3.024   6.656   1.214
 7956TIP3   OH223810   7.748   7.740   3.727
 7956TIP3    H123811   7.785   7.811   3.780
 7956TIP3    H223812   7.823   7.684   3.706
 7957TIP3   OH223813   4.503   2.537   3.159
 7957TIP3    H123814   4.444   2.559   3.230
 7957TIP3    H223815   4.556   2.465   3.192
 7958TIP3   OH223816   6.552   6.930   5.278
 7958TIP3    H123817   6.571   6.837   5.291
 7958TIP3    H223818   6.547   6.940   5.183
 7959TIP3   OH223819   2.134   4.706   2.952
 7959TIP3    H123820   2.204   4.735   2.894
 7959TIP3    H223821   2.079   4.784   2.965
 7960TIP3   OH223822   4.108   4.028   1.265
 7960TIP3    H123823   4.109   3.950   1.209
 7960TIP3    H223824   4.124   3.993   1.353
 7961TIP3   OH223825   5.214   1.507   0.150
 7961TIP3    H123826   5.158   1.430   0.166
 7961TIP3    H223827   5.187   1.538   0.064
 7962TIP3   OH223828   8.219   4.512   1.954
 7962TIP3    H123829   8.259   4.586   1.999
 7962TIP3    H223830   8.157   4.475   2.018
 7963TIP3   OH223831   7.473   2.777   3.660
 7963TIP3    H123832   7.537   2.806   3.596
 7963TIP3    H223833   7.476   2.682   3.657
 7964TIP3   OH223834   1.411   2.273   0.762
 7964TIP3    H123835   1.432   2.308   0.676
 7964TIP3    H223836   1.427   2.345   0.822
 7965TIP3   OH223837   2.749   2.226   6.046
 7965TIP3    H123838   2.657   2.248   6.030
 7965TIP3    H223839   2.753   2.131   6.037
 7966TIP3   OH223840   7.308   0.024   5.297
 7966TIP3    H123841   7.351  -0.061   5.307
 7966TIP3    H223842   7.379   0.088   5.308
 7967TIP3   OH223843   3.930   0.099   1.893
 7967TIP3    H123844   4.025   0.107   1.896
 7967TIP3    H223845   3.907   0.042   1.966
 7968TIP3   OH223846   1.759   1.458   1.241
 7968TIP3    H123847   1.685   1.484   1.296
 7968TIP3    H223848   1.791   1.539   1.203
 7969TIP3   OH223849   3.548   2.238   0.670
 7969TIP3    H123850   3.588   2.151   0.676
 7969TIP3    H223851   3.532   2.263   0.761
 7970TIP3   OH223852   0.729   4.209   2.110
 7970TIP3    H123853   0.682   4.290   2.091
 7970TIP3    H223854   0.803   4.237   2.164
 7971TIP3   OH223855   4.940   4.578   0.319
 7971TIP3    H123856   5.022   4.580   0.369
 7971TIP3    H223857   4.966   4.546   0.232
 7972TIP3   OH223858   1.860   5.347   2.489
 7972TIP3    H123859   1.775   5.328   2.450
 7972TIP3    H223860   1.918   5.280   2.453
 7973TIP3   OH223861   5.122   3.984   3.965
 7973TIP3    H123862   5.123   3.984   4.061
 7973TIP3    H223863   5.084   3.900   3.941
 7974TIP3   OH223864   6.240   2.690   2.571
 7974TIP3    H123865   6.148   2.684   2.545
 7974TIP3    H223866   6.288   2.675   2.490
 7975TIP3   OH223867   3.876   2.050   2.829
 7975TIP3    H123868   3.929   1.971   2.830
 7975TIP3    H223869   3.905   2.099   2.906
 7976TIP3   OH223870   1.457   5.110   0.766
 7976TIP3    H123871   1.378   5.150   0.732
 7976TIP3    H223872   1.434   5.018   0.779
 7977TIP3   OH223873   3.474   4.091   5.087
 7977TIP3    H123874   3.558   4.079   5.044
 7977TIP3    H223875   3.496   4.118   5.176
 7978TIP3   OH223876   0.686   6.564   3.329
 7978TIP3    H123877   0.650   6.540   3.415
 7978TIP3    H223878   0.614   6.550   3.268
 7979TIP3   OH223879   2.760   5.674   0.928
 7979TIP3    H123880   2.684   5.729   0.911
 7979TIP3    H223881   2.726   5.584   0.927
 7980TIP3   OH223882   1.596   3.876   0.655
 7980TIP3    H123883   1.517   3.895   0.704
 7980TIP3    H223884   1.667   3.880   0.720
 7981TIP3   OH223885   3.130   2.946   6.182
 7981TIP3    H123886   3.048   2.918   6.223
 7981TIP3    H223887   3.118   2.927   6.089
 7982TIP3   OH223888   6.589   2.730   0.130
 7982TIP3    H123889   6.538   2.779   0.195
 7982TIP3    H223890   6.660   2.790   0.106
 7983TIP3   OH223891   2.036   1.156   4.593
 7983TIP3    H123892   2.099   1.099   4.636
 7983TIP3    H223893   2.042   1.134   4.500
 7984TIP3   OH223894   7.169   1.573   0.023
 7984TIP3    H123895   7.157   1.665   0.000
 7984TIP3    H223896   7.262   1.557   0.011
 7985TIP3   OH223897   0.708   4.784   3.601
 7985TIP3    H123898   0.725   4.765   3.694
 7985TIP3    H223899   0.714   4.699   3.558
 7986TIP3   OH223900   6.717   5.873   1.574
 7986TIP3    H123901   6.661   5.864   1.497
 7986TIP3    H223902   6.769   5.792   1.575
 7987TIP3   OH223903   7.471   5.007   6.699
 7987TIP3    H123904   7.478   5.056   6.781
 7987TIP3    H223905   7.548   5.035   6.648
 7988TIP3   OH223906   0.760   3.675   2.497
 7988TIP3    H123907   0.748   3.588   2.535
 7988TIP3    H223908   0.671   3.703   2.476
 7989TIP3   OH223909   2.416   0.579   4.793
 7989TIP3    H123910   2.431   0.484   4.788
 7989TIP3    H223911   2.430   0.610   4.704
 7990TIP3   OH223912   6.188   0.291   3.602
 7990TIP3    H123913   6.148   0.229   3.541
 7990TIP3    H223914   6.215   0.364   3.547
 7991TIP3   OH223915   1.321   1.810   3.295
 7991TIP3    H123916   1.347   1.741   3.234
 7991TIP3    H223917   1.322   1.890   3.242
 7992TIP3   OH223918   1.764   3.176   4.410
 7992TIP3    H123919   1.679   3.189   4.367
 7992TIP3    H223920   1.809   3.260   4.401
 7993TIP3   OH223921   0.294   5.839   6.257
 7993TIP3    H123922   0.234   5.867   6.188
 7993TIP3    H223923   0.237   5.818   6.331
 7994TIP3   OH223924   7.574   4.322   5.067
 7994TIP3    H123925   7.558   4.343   4.975
 7994TIP3    H223926   7.619   4.399   5.102
 7995TIP3   OH223927   0.696   2.176   2.848
 7995TIP3    H123928   0.683   2.249   2.787
 7995TIP3    H223929   0.607   2.155   2.878
 7996TIP3   OH223930   5.894   2.882   3.400
 7996TIP3    H123931   5.844   2.926   3.470
 7996TIP3    H223932   5.962   2.945   3.377
 7997TIP3   OH223933   0.421   1.990   5.336
 7997TIP3    H123934   0.414   2.082   5.312
 7997TIP3    H223935   0.383   1.985   5.423
 7998TIP3   OH223936   6.357   0.994   0.828
 7998TIP3    H123937   6.415   0.937   0.879
 7998TIP3    H223938   6.314   0.934   0.767
 7999TIP3   OH223939   7.780   3.490   1.546
 7999TIP3    H123940   7.856   3.460   1.496
 7999TIP3    H223941   7.708   3.434   1.516
 8000TIP3   OH223942   1.315   1.958   5.342
 8000TIP3    H123943   1.279   1.997   5.421
 8000TIP3    H223944   1.410   1.964   5.353
 8001TIP3   OH223945   5.859   4.556   2.380
 8001TIP3    H123946   5.855   4.651   2.385
 8001TIP3    H223947   5.952   4.535   2.385
 8002TIP3   OH223948   0.879   6.627   1.611
 8002TIP3    H123949   0.793   6.593   1.587
 8002TIP3    H223950   0.915   6.663   1.530
 8003TIP3   OH223951   1.198   3.771   1.031
 8003TIP3    H123952   1.162   3.772   1.119
 8003TIP3    H223953   1.266   3.839   1.032
 8004TIP3   OH223954   4.196   4.586   0.144
 8004TIP3    H123955   4.170   4.507   0.095
 8004TIP3    H223956   4.113   4.630   0.163
 8005TIP3   OH223957   5.757   0.701   4.660
 8005TIP3    H123958   5.725   0.666   4.743
 8005TIP3    H223959   5.747   0.629   4.598
 8006TIP3   OH223960   2.857   7.670   5.477
 8006TIP3    H123961   2.858   7.744   5.538
 8006TIP3    H223962   2.947   7.663   5.447
 8007TIP3   OH223963   0.225   1.940   6.522
 8007TIP3    H123964   0.220   1.857   6.570
 8007TIP3    H223965   0.289   1.992   6.570
 8008TIP3   OH223966   0.878   4.695   0.553
 8008TIP3    H123967   0.787   4.698   0.523
 8008TIP3    H223968   0.872   4.691   0.648
 8009TIP3   OH223969   7.287   1.655   6.055
 8009TIP3    H123970   7.353   1.721   6.076
 8009TIP3    H223971   7.322   1.574   6.093
 8010TIP3   OH223972   7.103   3.444   2.671
 8010TIP3    H123973   7.144   3.386   2.736
 8010TIP3    H223974   7.033   3.489   2.719
 8011TIP3   OH223975   3.587   2.180   4.314
 8011TIP3    H123976   3.551   2.196   4.226
 8011TIP3    H223977   3.682   2.189   4.303
 8012TIP3   OH223978   3.682   0.718   5.935
 8012TIP3    H123979   3.604   0.752   5.980
 8012TIP3    H223980   3.756   0.760   5.981
 8013TIP3   OH223981   3.037   7.606   6.667
 8013TIP3    H123982   2.965   7.575   6.612
 8013TIP3    H223983   3.029   7.554   6.747
 8014TIP3   OH223984   2.374   3.744   2.467
 8014TIP3    H123985   2.436   3.800   2.515
 8014TIP3    H223986   2.422   3.715   2.390
 8015TIP3   OH223987   2.755   2.468   4.745
 8015TIP3    H123988   2.817   2.532   4.709
 8015TIP3    H223989   2.735   2.500   4.833
 8016TIP3   OH223990   3.638   4.130   2.502
 8016TIP3    H123991   3.590   4.063   2.452
 8016TIP3    H223992   3.608   4.118   2.592
 8017TIP3   OH223993   7.304   6.267   1.089
 8017TIP3    H123994   7.226   6.219   1.062
 8017TIP3    H223995   7.353   6.281   1.008
 8018TIP3   OH223996   7.177   6.908   2.570
 8018TIP3    H123997   7.212   6.920   2.659
 8018TIP3    H223998   7.208   6.820   2.545
 8019TIP3   OH223999   7.352   4.460   5.492
 8019TIP3    H124000   7.438   4.420   5.479
 8019TIP3    H224001   7.366   4.523   5.563
 8020TIP3   OH224002   1.259   3.864   5.269
 8020TIP3    H124003   1.230   3.949   5.236
 8020TIP3    H224004   1.346   3.852   5.230
 8021TIP3   OH224005   6.172   1.776   3.897
 8021TIP3    H124006   6.186   1.860   3.941
 8021TIP3    H224007   6.230   1.779   3.821
 8022TIP3   OH224008   6.519   5.635   4.822
 8022TIP3    H124009   6.442   5.615   4.874
 8022TIP3    H224010   6.566   5.701   4.873
 8023TIP3   OH224011   0.427   4.479   0.325
 8023TIP3    H124012   0.414   4.534   0.402
 8023TIP3    H224013   0.411   4.390   0.355
 8024TIP3   OH224014   8.164   5.644   6.666
 8024TIP3    H124015   8.193   5.663   6.577
 8024TIP3    H224016   8.089   5.585   6.654
 8025TIP3   OH224017   3.689   1.607   6.710
 8025TIP3    H124018   3.675   1.687   6.762
 8025TIP3    H224019   3.708   1.539   6.775
 8026TIP3   OH224020   1.609   2.701   4.601
 8026TIP3    H124021   1.653   2.623   4.567
 8026TIP3    H224022   1.516   2.681   4.594
 8027TIP3   OH224023   6.121   1.960   5.473
 8027TIP3    H124024   6.179   1.928   5.404
 8027TIP3    H224025   6.045   1.994   5.427
 8028TIP3   OH224026   5.284   4.569   5.709
 8028TIP3    H124027   5.193   4.586   5.734
 8028TIP3    H224028   5.283   4.565   5.613
 8029TIP3   OH224029   0.921   2.464   3.964
 8029TIP3    H124030   0.861   2.527   3.925
 8029TIP3    H224031   1.008   2.491   3.932
 8030TIP3   OH224032   0.393   7.815   1.390
 8030TIP3    H124033   0.362   7.853   1.472
 8030TIP3    H224034   0.330   7.746   1.369
 8031TIP3   OH224035   6.308   6.324   0.270
 8031TIP3    H124036   6.374   6.297   0.205
 8031TIP3    H224037   6.224   6.306   0.227
 8032TIP3   OH224038   0.579   6.242   4.943
 8032TIP3    H124039   0.530   6.166   4.912
 8032TIP3    H224040   0.562   6.309   4.877
 8033TIP3   OH224041   2.406   0.403   2.259
 8033TIP3    H124042   2.412   0.322   2.208
 8033TIP3    H224043   2.491   0.445   2.248
 8034TIP3   OH224044   4.663   4.594   5.907
 8034TIP3    H124045   4.698   4.656   5.971
 8034TIP3    H224046   4.649   4.646   5.828
 8035TIP3   OH224047   8.183   3.600   5.026
 8035TIP3    H124048   8.183   3.628   4.934
 8035TIP3    H224049   8.159   3.508   5.023
 8036TIP3   OH224050   5.493   5.343   4.976
 8036TIP3    H124051   5.587   5.333   4.961
 8036TIP3    H224052   5.487   5.395   5.056
 8037TIP3   OH224053   1.251   5.774   2.226
 8037TIP3    H124054   1.241   5.856   2.178
 8037TIP3    H224055   1.266   5.802   2.317
 8038TIP3   OH224056   5.396   3.281   4.727
 8038TIP3    H124057   5.421   3.315   4.642
 8038TIP3    H224058   5.334   3.210   4.708
 8039TIP3   OH224059   7.670   0.611   5.023
 8039TIP3    H124060   7.758   0.609   5.060
 8039TIP3    H224061   7.680   0.656   4.939
 8040TIP3   OH224062   0.392   4.064   4.763
 8040TIP3    H124063   0.325   4.075   4.831
 8040TIP3    H224064   0.420   3.973   4.771
 8041TIP3   OH224065   8.176   6.884   3.523
 8041TIP3    H124066   8.267   6.903   3.548
 8041TIP3    H224067   8.127   6.892   3.605
 8042TIP3   OH224068   5.630   6.930   1.247
 8042TIP3    H124069   5.708   6.920   1.194
 8042TIP3    H224070   5.660   6.920   1.337
 8043TIP3   OH224071   2.787   6.178   3.643
 8043TIP3    H124072   2.762   6.267   3.616
 8043TIP3    H224073   2.733   6.161   3.721
 8044TIP3   OH224074   2.218   3.284   2.139
 8044TIP3    H124075   2.142   3.329   2.101
 8044TIP3    H224076   2.293   3.335   2.111
 8045TIP3   OH224077   8.195   0.542   0.514
 8045TIP3    H124078   8.252   0.484   0.565
 8045TIP3    H224079   8.120   0.486   0.492
 8046TIP3   OH224080   4.083   3.450   0.653
 8046TIP3    H124081   4.141   3.509   0.701
 8046TIP3    H224082   4.010   3.434   0.712
 8047TIP3   OH224083   6.723   6.689   5.082
 8047TIP3    H124084   6.664   6.672   5.155
 8047TIP3    H224085   6.667   6.727   5.015
 8048TIP3   OH224086   1.317   3.355   4.616
 8048TIP3    H124087   1.284   3.445   4.615
 8048TIP3    H224088   1.248   3.304   4.573
 8049TIP3   OH224089   2.540   1.871   0.423
 8049TIP3    H124090   2.454   1.897   0.392
 8049TIP3    H224091   2.598   1.882   0.347
 8050TIP3   OH224092   1.455   2.079   0.482
 8050TIP3    H124093   1.512   2.003   0.492
 8050TIP3    H224094   1.488   2.123   0.403
 8051TIP3   OH224095   3.437   6.888   5.502
 8051TIP3    H124096   3.381   6.878   5.425
 8051TIP3    H224097   3.523   6.911   5.467
 8052TIP3   OH224098   6.903   5.085   6.625
 8052TIP3    H124099   6.930   5.123   6.709
 8052TIP3    H224100   6.983   5.047   6.589
 8053TIP3   OH224101   0.497   3.977   0.562
 8053TIP3    H124102   0.531   3.915   0.627
 8053TIP3    H224103   0.419   3.933   0.526
 8054TIP3   OH224104   7.906   4.714   2.611
 8054TIP3    H124105   7.987   4.684   2.651
 8054TIP3    H224106   7.838   4.662   2.655
 8055TIP3   OH224107   5.355   1.909   6.526
 8055TIP3    H124108   5.421   1.914   6.595
 8055TIP3    H224109   5.344   1.815   6.511
 8056TIP3   OH224110   5.880   4.153   4.220
 8056TIP3    H124111   5.854   4.238   4.184
 8056TIP3    H224112   5.926   4.110   4.148
 8057TIP3   OH224113   4.235   3.554   3.912
 8057TIP3    H124114   4.269   3.554   4.001
 8057TIP3    H224115   4.204   3.644   3.898
 8058TIP3   OH224116   5.347   4.519   3.703
 8058TIP3    H124117   5.410   4.573   3.657
 8058TIP3    H224118   5.279   4.500   3.637
 8059TIP3   OH224119   2.383   1.661   1.521
 8059TIP3    H124120   2.384   1.608   1.442
 8059TIP3    H224121   2.435   1.738   1.499
 8060TIP3   OH224122   1.702   5.942   0.388
 8060TIP3    H124123   1.610   5.933   0.361
 8060TIP3    H224124   1.701   5.920   0.481
 8061TIP3   OH224125   6.187   0.473   2.949
 8061TIP3    H124126   6.133   0.396   2.962
 8061TIP3    H224127   6.136   0.545   2.986
 8062TIP3   OH224128   6.015   6.566   3.439
 8062TIP3    H124129   6.086   6.629   3.425
 8062TIP3    H224130   6.016   6.550   3.533
 8063TIP3   OH224131   2.445   0.736   5.304
 8063TIP3    H124132   2.353   0.735   5.330
 8063TIP3    H224133   2.493   0.709   5.384
 8064TIP3   OH224134   3.690   4.802   1.607
 8064TIP3    H124135   3.755   4.863   1.571
 8064TIP3    H224136   3.713   4.794   1.699
 8065TIP3   OH224137   5.120   4.560   3.516
 8065TIP3    H124138   5.150   4.489   3.458
 8065TIP3    H224139   5.029   4.574   3.490
 8066TIP3   OH224140   4.269   3.176   4.745
 8066TIP3    H124141   4.242   3.195   4.656
 8066TIP3    H224142   4.365   3.175   4.741
 8067TIP3   OH224143   6.590   1.222   1.126
 8067TIP3    H124144   6.558   1.255   1.210
 8067TIP3    H224145   6.622   1.134   1.145
 8068TIP3   OH224146   7.081   0.132   2.685
 8068TIP3    H124147   7.106   0.222   2.707
 8068TIP3    H224148   7.148   0.077   2.727
 8069TIP3   OH224149   5.661   2.030   5.571
 8069TIP3    H124150   5.584   1.986   5.534
 8069TIP3    H224151   5.630   2.070   5.652
 8070TIP3   OH224152   7.745   3.886   2.793
 8070TIP3    H124153   7.723   3.852   2.880
 8070TIP3    H224154   7.680   3.954   2.777
 8071TIP3   OH224155   0.302   2.604   5.403
 8071TIP3    H124156   0.215   2.572   5.428
 8071TIP3    H224157   0.304   2.598   5.308
 8072TIP3   OH224158   0.745   3.235   6.324
 8072TIP3    H124159   0.758   3.262   6.415
 8072TIP3    H224160   0.670   3.287   6.295
 8073TIP3   OH224161   1.721   3.635   1.665
 8073TIP3    H124162   1.721   3.731   1.661
 8073TIP3    H224163   1.629   3.612   1.678
 8074TIP3   OH224164   4.077   1.047   0.317
 8074TIP3    H124165   4.024   1.020   0.242
 8074TIP3    H224166   4.069   0.976   0.380
 8075TIP3   OH224167   5.265   6.975   2.711
 8075TIP3    H124168   5.292   6.932   2.630
 8075TIP3    H224169   5.191   6.923   2.742
 8076TIP3   OH224170   0.376   6.952   2.806
 8076TIP3    H124171   0.389   6.859   2.786
 8076TIP3    H224172   0.444   6.997   2.756
 8077TIP3   OH224173   6.338   4.112   0.143
 8077TIP3    H124174   6.309   4.024   0.164
 8077TIP3    H224175   6.340   4.115   0.047
 8078TIP3   OH224176   3.818   1.170   1.875
 8078TIP3    H124177   3.823   1.218   1.958
 8078TIP3    H224178   3.747   1.107   1.889
 8079TIP3   OH224179   7.851   4.422   0.864
 8079TIP3    H124180   7.767   4.387   0.833
 8079TIP3    H224181   7.843   4.419   0.959
 8080TIP3   OH224182   4.557   3.543   1.793
 8080TIP3    H124183   4.609   3.608   1.840
 8080TIP3    H224184   4.512   3.493   1.861
 8081TIP3   OH224185   5.350   2.871   0.663
 8081TIP3    H124186   5.261   2.859   0.696
 8081TIP3    H224187   5.364   2.966   0.666
 8082TIP3   OH224188   7.686   2.636   0.888
 8082TIP3    H124189   7.630   2.617   0.813
 8082TIP3    H224190   7.774   2.639   0.852
 8083TIP3   OH224191   6.301  -0.038   6.086
 8083TIP3    H124192   6.340  -0.002   6.165
 8083TIP3    H224193   6.335   0.016   6.015
 8084TIP3   OH224194   3.652   6.509   6.739
 8084TIP3    H124195   3.613   6.428   6.705
 8084TIP3    H224196   3.700   6.546   6.665
 8085TIP3   OH224197   8.014   6.868   6.180
 8085TIP3    H124198   7.944   6.929   6.202
 8085TIP3    H224199   8.091   6.924   6.168
 8086TIP3   OH224200   5.609   7.457   4.921
 8086TIP3    H124201   5.604   7.371   4.964
 8086TIP3    H224202   5.518   7.483   4.911
 8087TIP3   OH224203   7.568   5.408   5.472
 8087TIP3    H124204   7.574   5.407   5.568
 8087TIP3    H224205   7.602   5.322   5.445
 8088TIP3   OH224206   8.285   6.965   6.168
 8088TIP3    H124207   8.312   6.953   6.077
 8088TIP3    H224208   8.352   7.021   6.206
 8089TIP3   OH224209   7.181   5.553   6.604
 8089TIP3    H124210   7.265   5.586   6.573
 8089TIP3    H224211   7.118   5.621   6.581
 8090TIP3   OH224212   1.888   5.028   4.181
 8090TIP3    H124213   1.890   5.123   4.181
 8090TIP3    H224214   1.852   5.004   4.267
 8091TIP3   OH224215   8.148   5.368   2.041
 8091TIP3    H124216   8.052   5.370   2.042
 8091TIP3    H224217   8.173   5.381   2.132
 8092TIP3   OH224218   7.422   3.205   5.658
 8092TIP3    H124219   7.493   3.260   5.691
 8092TIP3    H224220   7.424   3.217   5.563
 8093TIP3   OH224221   2.928   7.224   0.335
 8093TIP3    H124222   2.939   7.313   0.367
 8093TIP3    H224223   2.961   7.226   0.246
 8094TIP3   OH224224   4.100   0.125   5.959
 8094TIP3    H124225   4.158   0.156   6.028
 8094TIP3    H224226   4.071   0.205   5.915
 8095TIP3   OH224227   3.392   6.791   4.533
 8095TIP3    H124228   3.325   6.855   4.509
 8095TIP3    H224229   3.345   6.708   4.536
 8096TIP3   OH224230   6.918   0.909   2.650
 8096TIP3    H124231   6.992   0.944   2.600
 8096TIP3    H224232   6.851   0.977   2.646
 8097TIP3   OH224233   3.725   7.286   0.167
 8097TIP3    H124234   3.757   7.214   0.222
 8097TIP3    H224235   3.782   7.284   0.090
 8098TIP3   OH224236   5.308   6.217   5.886
 8098TIP3    H124237   5.376   6.285   5.882
 8098TIP3    H224238   5.342   6.146   5.831
 8099TIP3   OH224239   0.694   4.811   2.725
 8099TIP3    H124240   0.645   4.855   2.656
 8099TIP3    H224241   0.666   4.719   2.719
 8100TIP3   OH224242   2.645   1.671   1.320
 8100TIP3    H124243   2.604   1.590   1.350
 8100TIP3    H224244   2.700   1.644   1.246
 8101TIP3   OH224245   8.081   3.828   0.698
 8101TIP3    H124246   8.169   3.792   0.691
 8101TIP3    H224247   8.094   3.923   0.692
 8102TIP3   OH224248   2.930   4.751   4.909
 8102TIP3    H124249   2.900   4.822   4.853
 8102TIP3    H224250   2.925   4.673   4.853
 8103TIP3   OH224251   7.589   3.041   6.076
 8103TIP3    H124252   7.650   2.990   6.024
 8103TIP3    H224253   7.515   3.058   6.018
 8104TIP3   OH224254   6.764   5.725   5.269
 8104TIP3    H124255   6.816   5.666   5.323
 8104TIP3    H224256   6.810   5.809   5.272
 8105TIP3   OH224257   3.507   5.838   3.832
 8105TIP3    H124258   3.598   5.812   3.851
 8105TIP3    H224259   3.492   5.914   3.887
 8106TIP3   OH224260   1.213   6.850   5.782
 8106TIP3    H124261   1.196   6.943   5.792
 8106TIP3    H224262   1.140   6.807   5.826
 8107TIP3   OH224263   8.209   2.848   1.929
 8107TIP3    H124264   8.172   2.781   1.986
 8107TIP3    H224265   8.298   2.861   1.961
 8108TIP3   OH224266   5.442   2.612   5.657
 8108TIP3    H124267   5.489   2.529   5.643
 8108TIP3    H224268   5.492   2.676   5.606
 8109TIP3   OH224269   6.489   7.147   5.875
 8109TIP3    H124270   6.423   7.160   5.808
 8109TIP3    H224271   6.441   7.149   5.957
 8110TIP3   OH224272   4.819   1.496   1.293
 8110TIP3    H124273   4.868   1.578   1.284
 8110TIP3    H224274   4.739   1.521   1.340
 8111TIP3   OH224275   6.845   3.687   0.271
 8111TIP3    H124276   6.890   3.603   0.260
 8111TIP3    H224277   6.825   3.691   0.365
 8112TIP3   OH224278   0.621   3.228   2.979
 8112TIP3    H124279   0.547   3.284   3.003
 8112TIP3    H224280   0.659   3.272   2.902
 8113TIP3   OH224281   6.804   0.058   4.472
 8113TIP3    H124282   6.725   0.013   4.501
 8113TIP3    H224283   6.820   0.125   4.538
 8114TIP3   OH224284   6.138   1.383   1.920
 8114TIP3    H124285   6.177   1.323   1.983
 8114TIP3    H224286   6.212   1.425   1.877
 8115TIP3   OH224287   7.933   5.450   4.301
 8115TIP3    H124288   7.857   5.391   4.297
 8115TIP3    H224289   7.895   5.537   4.291
 8116TIP3   OH224290   5.711   6.553   4.422
 8116TIP3    H124291   5.777   6.566   4.490
 8116TIP3    H224292   5.679   6.464   4.437
 8117TIP3   OH224293   3.247   4.365   6.524
 8117TIP3    H124294   3.291   4.299   6.471
 8117TIP3    H224295   3.165   4.382   6.478
 8118TIP3   OH224296   0.838   1.533   1.659
 8118TIP3    H124297   0.747   1.561   1.673
 8118TIP3    H224298   0.851   1.538   1.565
 8119TIP3   OH224299   5.215   7.025   1.629
 8119TIP3    H124300   5.210   6.969   1.706
 8119TIP3    H224301   5.229   7.113   1.664
 8120TIP3   OH224302   4.652   3.710   0.276
 8120TIP3    H124303   4.678   3.776   0.212
 8120TIP3    H224304   4.644   3.757   0.359
 8121TIP3   OH224305   3.892   3.591   3.683
 8121TIP3    H124306   3.815   3.641   3.712
 8121TIP3    H224307   3.910   3.531   3.755
 8122TIP3   OH224308   5.556   1.965   4.716
 8122TIP3    H124309   5.471   1.958   4.672
 8122TIP3    H224310   5.618   1.983   4.645
 8123TIP3   OH224311   6.963   6.802   2.074
 8123TIP3    H124312   6.911   6.838   2.146
 8123TIP3    H224313   6.964   6.708   2.089
 8124TIP3   OH224314   3.384   5.014   6.468
 8124TIP3    H124315   3.477   5.035   6.463
 8124TIP3    H224316   3.355   5.008   6.377
 8125TIP3   OH224317   3.949   7.409   2.070
 8125TIP3    H124318   3.913   7.362   1.995
 8125TIP3    H224319   4.013   7.349   2.108
 8126TIP3   OH224320   6.012   1.578   1.704
 8126TIP3    H124321   5.935   1.634   1.702
 8126TIP3    H224322   6.048   1.584   1.615
 8127TIP3   OH224323   6.876   3.314   5.544
 8127TIP3    H124324   6.948   3.341   5.600
 8127TIP3    H224325   6.909   3.238   5.496
 8128TIP3   OH224326   6.147   6.774   3.194
 8128TIP3    H124327   6.064   6.818   3.177
 8128TIP3    H224328   6.150   6.764   3.289
 8129TIP3   OH224329   6.901   6.492   5.794
 8129TIP3    H124330   6.820   6.441   5.792
 8129TIP3    H224331   6.962   6.439   5.846
 8130TIP3   OH224332   1.857   5.479   2.751
 8130TIP3    H124333   1.832   5.402   2.700
 8130TIP3    H224334   1.789   5.486   2.818
 8131TIP3   OH224335   4.206   0.597   1.726
 8131TIP3    H124336   4.187   0.629   1.638
 8131TIP3    H224337   4.134   0.538   1.746
 8132TIP3   OH224338   4.358   3.356   1.012
 8132TIP3    H124339   4.379   3.449   0.998
 8132TIP3    H224340   4.444   3.313   1.020
 8133TIP3   OH224341   2.337   4.128   0.414
 8133TIP3    H124342   2.315   4.161   0.327
 8133TIP3    H224343   2.361   4.207   0.463
 8134TIP3   OH224344   2.902   7.308   1.440
 8134TIP3    H124345   2.889   7.216   1.460
 8134TIP3    H224346   2.959   7.308   1.363
 8135TIP3   OH224347  -0.040   2.855   4.702
 8135TIP3    H124348  -0.022   2.821   4.614
 8135TIP3    H224349  -0.011   2.946   4.699
 8136TIP3   OH224350   6.808   2.061   1.219
 8136TIP3    H124351   6.766   2.147   1.220
 8136TIP3    H224352   6.755   2.010   1.158
 8137TIP3   OH224353   0.613   3.480   4.567
 8137TIP3    H124354   0.613   3.394   4.609
 8137TIP3    H224355   0.660   3.537   4.628
 8138TIP3   OH224356   2.371   5.615   1.054
 8138TIP3    H124357   2.311   5.547   1.022
 8138TIP3    H224358   2.397   5.584   1.141
 8139TIP3   OH224359   1.531   5.856   5.543
 8139TIP3    H124360   1.436   5.839   5.544
 8139TIP3    H224361   1.562   5.823   5.628
 8140TIP3   OH224362   3.539   0.783   0.106
 8140TIP3    H124363   3.604   0.714   0.097
 8140TIP3    H224364   3.455   0.739   0.093
 8141TIP3   OH224365   0.690   4.122   6.653
 8141TIP3    H124366   0.708   4.092   6.742
 8141TIP3    H224367   0.773   4.159   6.623
 8142TIP3   OH224368   1.631   6.255   5.381
 8142TIP3    H124369   1.705   6.293   5.428
 8142TIP3    H224370   1.558   6.259   5.443
 8143TIP3   OH224371   6.192   3.596   0.033
 8143TIP3    H124372   6.214   3.629   0.120
 8143TIP3    H224373   6.097   3.592   0.032
 8144TIP3   OH224374   2.231   1.511   0.071
 8144TIP3    H124375   2.311   1.475   0.033
 8144TIP3    H224376   2.179   1.540  -0.004
 8145TIP3   OH224377   6.901   7.413   1.718
 8145TIP3    H124378   6.852   7.336   1.690
 8145TIP3    H224379   6.970   7.378   1.775
 8146TIP3   OH224380   2.971   1.715   0.317
 8146TIP3    H124381   3.056   1.721   0.272
 8146TIP3    H224382   2.992   1.730   0.409
 8147TIP3   OH224383   8.254   6.234   3.694
 8147TIP3    H124384   8.184   6.224   3.759
 8147TIP3    H224385   8.216   6.199   3.613
 8148TIP3   OH224386   3.371   2.571   1.943
 8148TIP3    H124387   3.391   2.478   1.952
 8148TIP3    H224388   3.420   2.614   2.013
 8149TIP3   OH224389   6.399   3.101   0.912
 8149TIP3    H124390   6.457   3.084   0.987
 8149TIP3    H224391   6.346   3.022   0.904
 8150TIP3   OH224392   2.182   3.226   0.708
 8150TIP3    H124393   2.171   3.160   0.776
 8150TIP3    H224394   2.269   3.264   0.724
 8151TIP3   OH224395   2.397   6.047   4.774
 8151TIP3    H124396   2.388   6.140   4.797
 8151TIP3    H224397   2.374   6.001   4.854
 8152TIP3   OH224398   6.901   5.737   4.127
 8152TIP3    H124399   6.816   5.735   4.170
 8152TIP3    H224400   6.934   5.825   4.141
 8153TIP3   OH224401   7.654   1.169   0.022
 8153TIP3    H124402   7.681   1.244  -0.031
 8153TIP3    H224403   7.673   1.194   0.112
 8154TIP3   OH224404   1.285   6.330   4.572
 8154TIP3    H124405   1.274   6.329   4.477
 8154TIP3    H224406   1.269   6.420   4.597
 8155TIP3   OH224407   7.128   4.735   2.502
 8155TIP3    H124408   7.035   4.715   2.488
 8155TIP3    H224409   7.129   4.790   2.580
 8156TIP3   OH224410   4.936   0.452   1.170
 8156TIP3    H124411   4.926   0.540   1.206
 8156TIP3    H224412   4.969   0.400   1.243
 8157TIP3   OH224413   2.058   5.857   3.044
 8157TIP3    H124414   1.989   5.848   2.978
 8157TIP3    H224415   2.077   5.768   3.071
 8158TIP3   OH224416   5.364   6.207   0.432
 8158TIP3    H124417   5.352   6.194   0.526
 8158TIP3    H224418   5.424   6.137   0.405
 8159TIP3   OH224419   2.635   6.982   0.584
 8159TIP3    H124420   2.612   6.934   0.504
 8159TIP3    H224421   2.559   7.037   0.601
 8160TIP3   OH224422   4.418   0.997   5.756
 8160TIP3    H124423   4.380   0.961   5.836
 8160TIP3    H224424   4.390   0.937   5.687
 8161TIP3   OH224425   2.694   2.867   4.877
 8161TIP3    H124426   2.619   2.905   4.833
 8161TIP3    H224427   2.661   2.788   4.918
 8162TIP3   OH224428   2.614   5.372   4.480
 8162TIP3    H124429   2.593   5.454   4.525
 8162TIP3    H224430   2.594   5.304   4.544
 8163TIP3   OH224431   4.190   6.165   0.194
 8163TIP3    H124432   4.263   6.217   0.228
 8163TIP3    H224433   4.145   6.134   0.272
 8164TIP3   OH224434   1.976   7.120   4.995
 8164TIP3    H124435   1.963   7.205   5.037
 8164TIP3    H224436   1.964   7.057   5.066
 8165TIP3   OH224437   0.163   7.442   3.169
 8165TIP3    H124438   0.225   7.372   3.152
 8165TIP3    H224439   0.094   7.401   3.222
 8166TIP3   OH224440   0.426   2.237   3.645
 8166TIP3    H124441   0.413   2.159   3.590
 8166TIP3    H224442   0.504   2.218   3.696
 8167TIP3   OH224443   2.957   3.004   4.875
 8167TIP3    H124444   3.034   2.948   4.873
 8167TIP3    H224445   2.891   2.952   4.920
 8168TIP3   OH224446   5.544   4.359   2.253
 8168TIP3    H124447   5.492   4.281   2.272
 8168TIP3    H224448   5.486   4.415   2.202
 8169TIP3   OH224449   1.941   4.128   0.553
 8169TIP3    H124450   1.885   4.193   0.510
 8169TIP3    H224451   1.906   4.122   0.642
 8170TIP3   OH224452   3.862   6.575   1.380
 8170TIP3    H124453   3.866   6.512   1.308
 8170TIP3    H224454   3.779   6.620   1.368
 8171TIP3   OH224455   2.785   3.172   6.559
 8171TIP3    H124456   2.744   3.258   6.562
 8171TIP3    H224457   2.763   3.138   6.472
 8172TIP3   OH224458   5.928   0.873   6.440
 8172TIP3    H124459   5.870   0.940   6.476
 8172TIP3    H224460   5.876   0.793   6.442
 8173TIP3   OH224461   5.454   0.869   0.036
 8173TIP3    H124462   5.393   0.939   0.057
 8173TIP3    H224463   5.499   0.899  -0.043
 8174TIP3   OH224464   6.927   2.340   4.601
 8174TIP3    H124465   7.009   2.381   4.626
 8174TIP3    H224466   6.861   2.380   4.658
 8175TIP3   OH224467   0.384   0.438   3.745
 8175TIP3    H124468   0.480   0.444   3.743
 8175TIP3    H224469   0.365   0.403   3.832
 8176TIP3   OH224470   5.164   7.735   4.696
 8176TIP3    H124471   5.240   7.739   4.754
 8176TIP3    H224472   5.105   7.803   4.728
 8177TIP3   OH224473   4.978   3.377   5.528
 8177TIP3    H124474   4.907   3.316   5.551
 8177TIP3    H224475   5.032   3.328   5.466
 8178TIP3   OH224476   5.435   7.357   5.162
 8178TIP3    H124477   5.439   7.452   5.152
 8178TIP3    H224478   5.430   7.342   5.257
 8179TIP3   OH224479   2.970   5.756   2.868
 8179TIP3    H124480   2.959   5.665   2.842
 8179TIP3    H224481   2.918   5.766   2.947
 8180TIP3   OH224482   0.882   4.944   5.610
 8180TIP3    H124483   0.974   4.917   5.616
 8180TIP3    H224484   0.881   5.014   5.545
 8181TIP3   OH224485   2.502   6.017   3.581
 8181TIP3    H124486   2.459   5.955   3.522
 8181TIP3    H224487   2.574   5.968   3.620
 8182TIP3   OH224488   3.479   1.318   0.809
 8182TIP3    H124489   3.442   1.289   0.893
 8182TIP3    H224490   3.494   1.237   0.760
 8183TIP3   OH224491   5.936   0.498   0.751
 8183TIP3    H124492   5.854   0.494   0.802
 8183TIP3    H224493   5.989   0.426   0.786
 8184TIP3   OH224494   0.526   0.961   5.527
 8184TIP3    H124495   0.608   0.912   5.526
 8184TIP3    H224496   0.535   1.021   5.601
 8185TIP3   OH224497   4.200   5.051   6.811
 8185TIP3    H124498   4.292   5.075   6.800
 8185TIP3    H224499   4.153   5.109   6.751
 8186TIP3   OH224500   7.102   4.933   2.687
 8186TIP3    H124501   7.140   5.005   2.738
 8186TIP3    H224502   7.063   4.875   2.753
 8187TIP3   OH224503   7.613   1.518   0.930
 8187TIP3    H124504   7.668   1.577   0.982
 8187TIP3    H224505   7.673   1.476   0.869
 8188TIP3   OH224506   3.967   6.883   6.780
 8188TIP3    H124507   3.945   6.791   6.795
 8188TIP3    H224508   3.946   6.897   6.687
 8189TIP3   OH224509   5.496   2.922   2.498
 8189TIP3    H124510   5.470   3.014   2.498
 8189TIP3    H224511   5.462   2.887   2.580
 8190TIP3   OH224512   3.485   7.649   5.180
 8190TIP3    H124513   3.432   7.721   5.213
 8190TIP3    H224514   3.574   7.684   5.178
 8191TIP3   OH224515   0.316   4.698   4.974
 8191TIP3    H124516   0.274   4.716   4.890
 8191TIP3    H224517   0.244   4.673   5.032
 8192TIP3   OH224518   4.771   6.068   6.356
 8192TIP3    H124519   4.692   6.016   6.343
 8192TIP3    H224520   4.833   6.008   6.396
 8193TIP3   OH224521   2.605   0.812   0.652
 8193TIP3    H124522   2.594   0.840   0.742
 8193TIP3    H224523   2.524   0.838   0.608
 8194TIP3   OH224524   7.905   4.825   5.109
 8194TIP3    H124525   7.818   4.836   5.070
 8194TIP3    H224526   7.936   4.741   5.075
 8195TIP3   OH224527   4.986   4.485   3.763
 8195TIP3    H124528   5.027   4.399   3.763
 8195TIP3    H224529   5.049   4.542   3.718
 8196TIP3   OH224530   1.033   1.397   0.293
 8196TIP3    H124531   0.982   1.347   0.356
 8196TIP3    H224532   1.124   1.376   0.313
 8197TIP3   OH224533   3.862   0.720   3.397
 8197TIP3    H124534   3.788   0.766   3.437
 8197TIP3    H224535   3.928   0.718   3.467
 8198TIP3   OH224536   2.564   4.617   4.761
 8198TIP3    H124537   2.650   4.577   4.749
 8198TIP3    H224538   2.508   4.574   4.696
 8199TIP3   OH224539   0.657   5.886   3.923
 8199TIP3    H124540   0.739   5.871   3.877
 8199TIP3    H224541   0.641   5.980   3.913
 8200TIP3   OH224542   4.815   3.505   0.240
 8200TIP3    H124543   4.764   3.582   0.264
 8200TIP3    H224544   4.885   3.538   0.185
 8201TIP3   OH224545   1.181   6.880   1.588
 8201TIP3    H124546   1.264   6.835   1.603
 8201TIP3    H224547   1.159   6.862   1.497
 8202TIP3   OH224548   6.227   2.041   4.229
 8202TIP3    H124549   6.188   2.101   4.165
 8202TIP3    H224550   6.309   2.013   4.187
 8203TIP3   OH224551   5.536   0.623   1.242
 8203TIP3    H124552   5.619   0.593   1.278
 8203TIP3    H224553   5.551   0.630   1.148
 8204TIP3   OH224554   4.782   3.140   3.902
 8204TIP3    H124555   4.826   3.058   3.878
 8204TIP3    H224556   4.688   3.119   3.896
 8205TIP3   OH224557   4.987   7.533   6.704
 8205TIP3    H124558   4.962   7.460   6.647
 8205TIP3    H224559   4.915   7.541   6.767
 8206TIP3   OH224560   5.101   7.035   0.264
 8206TIP3    H124561   5.104   6.979   0.187
 8206TIP3    H224562   5.026   7.004   0.314
 8207TIP3   OH224563   5.892   4.742   2.954
 8207TIP3    H124564   5.955   4.777   3.017
 8207TIP3    H224565   5.906   4.794   2.875
 8208TIP3   OH224566   4.342   3.359   3.756
 8208TIP3    H124567   4.337   3.289   3.822
 8208TIP3    H224568   4.285   3.428   3.791
 8209TIP3   OH224569   5.417   6.794   5.699
 8209TIP3    H124570   5.403   6.884   5.671
 8209TIP3    H224571   5.509   6.790   5.725
 8210TIP3   OH224572   1.626   2.339   2.425
 8210TIP3    H124573   1.601   2.248   2.409
 8210TIP3    H224574   1.602   2.354   2.517
 8211TIP3   OH224575   4.636   0.613   2.708
 8211TIP3    H124576   4.647   0.703   2.738
 8211TIP3    H224577   4.671   0.613   2.619
 8212TIP3   OH224578   4.426   0.248   5.886
 8212TIP3    H124579   4.476   0.328   5.903
 8212TIP3    H224580   4.358   0.247   5.953
 8213TIP3   OH224581   5.657   0.898   0.737
 8213TIP3    H124582   5.631   0.869   0.649
 8213TIP3    H224583   5.751   0.880   0.741
 8214TIP3   OH224584   3.350   2.699   3.064
 8214TIP3    H124585   3.429   2.666   3.107
 8214TIP3    H224586   3.344   2.648   2.983
 8215TIP3   OH224587   7.420   1.290   2.876
 8215TIP3    H124588   7.355   1.255   2.815
 8215TIP3    H224589   7.496   1.312   2.822
 8216TIP3   OH224590   1.775   2.973   3.867
 8216TIP3    H124591   1.761   3.004   3.956
 8216TIP3    H224592   1.690   2.985   3.823
 8217TIP3   OH224593   4.412   7.250   0.398
 8217TIP3    H124594   4.501   7.285   0.396
 8217TIP3    H224595   4.394   7.236   0.491
 8218TIP3   OH224596   2.420   1.997   1.917
 8218TIP3    H124597   2.384   1.950   1.842
 8218TIP3    H224598   2.513   2.006   1.897
 8219TIP3   OH224599   8.191   7.291   6.394
 8219TIP3    H124600   8.114   7.303   6.338
 8219TIP3    H224601   8.168   7.335   6.476
 8220TIP3   OH224602   3.587   6.535   4.883
 8220TIP3    H124603   3.580   6.532   4.978
 8220TIP3    H224604   3.680   6.551   4.866
 8221TIP3   OH224605   6.708   4.004   4.235
 8221TIP3    H124606   6.641   4.054   4.282
 8221TIP3    H224607   6.687   4.016   4.142
 8222TIP3   OH224608   0.322   1.592   5.094
 8222TIP3    H124609   0.414   1.583   5.120
 8222TIP3    H224610   0.289   1.664   5.147
 8223TIP3   OH224611   5.499   4.996   5.582
 8223TIP3    H124612   5.498   4.972   5.489
 8223TIP3    H224613   5.460   5.083   5.584
 8224TIP3   OH224614   8.032   3.748   5.202
 8224TIP3    H124615   7.949   3.733   5.157
 8224TIP3    H224616   8.097   3.758   5.132
 8225TIP3   OH224617   4.886   4.663   2.428
 8225TIP3    H124618   4.853   4.698   2.510
 8225TIP3    H224619   4.819   4.602   2.399
 8226TIP3   OH224620   1.644   2.375   1.448
 8226TIP3    H124621   1.585   2.369   1.372
 8226TIP3    H224622   1.605   2.443   1.503
 8227TIP3   OH224623   2.901   6.597   4.154
 8227TIP3    H124624   2.996   6.588   4.150
 8227TIP3    H224625   2.870   6.565   4.069
 8228TIP3   OH224626   4.752   2.698   4.526
 8228TIP3    H124627   4.776   2.606   4.528
 8228TIP3    H224628   4.835   2.744   4.512
 8229TIP3   OH224629   7.118   2.893   1.791
 8229TIP3    H124630   7.045   2.956   1.788
 8229TIP3    H224631   7.130   2.874   1.884
 8230TIP3   OH224632   3.131   3.826   1.836
 8230TIP3    H124633   3.207   3.775   1.810
 8230TIP3    H224634   3.131   3.902   1.777
 8231TIP3   OH224635   6.204   3.999   0.728
 8231TIP3    H124636   6.116   4.004   0.764
 8231TIP3    H224637   6.234   4.090   0.724
 8232TIP3   OH224638   4.728   0.661   2.454
 8232TIP3    H124639   4.691   0.651   2.366
 8232TIP3    H224640   4.801   0.721   2.443
 8233TIP3   OH224641   3.350   7.155   4.786
 8233TIP3    H124642   3.301   7.215   4.729
 8233TIP3    H224643   3.298   7.075   4.787
 8234TIP3   OH224644   3.845   2.765   4.742
 8234TIP3    H124645   3.762   2.808   4.766
 8234TIP3    H224646   3.883   2.739   4.826
 8235TIP3   OH224647   5.503   4.571   0.381
 8235TIP3    H124648   5.497   4.497   0.441
 8235TIP3    H224649   5.539   4.534   0.300
 8236TIP3   OH224650   3.178   2.324   4.466
 8236TIP3    H124651   3.145   2.365   4.386
 8236TIP3    H224652   3.132   2.240   4.470
 8237TIP3   OH224653   7.934   3.333   5.069
 8237TIP3    H124654   7.908   3.356   5.158
 8237TIP3    H224655   8.009   3.274   5.081
 8238TIP3   OH224656   3.902   7.085   6.304
 8238TIP3    H124657   3.814   7.077   6.341
 8238TIP3    H224658   3.893   7.055   6.214
 8239TIP3   OH224659   1.825   6.406   5.460
 8239TIP3    H124660   1.747   6.454   5.487
 8239TIP3    H224661   1.898   6.465   5.481
 8240TIP3   OH224662   2.467   3.312   6.467
 8240TIP3    H124663   2.409   3.277   6.535
 8240TIP3    H224664   2.426   3.394   6.440
 8241TIP3   OH224665   2.193   3.026   1.468
 8241TIP3    H124666   2.199   3.066   1.554
 8241TIP3    H224667   2.231   3.091   1.408
 8242TIP3   OH224668   6.641   1.629   0.366
 8242TIP3    H124669   6.687   1.682   0.430
 8242TIP3    H224670   6.641   1.682   0.286
 8243TIP3   OH224671   3.295   6.400   5.094
 8243TIP3    H124672   3.311   6.346   5.171
 8243TIP3    H224673   3.328   6.348   5.021
 8244TIP3   OH224674   1.344   1.534   6.169
 8244TIP3    H124675   1.286   1.553   6.243
 8244TIP3    H224676   1.376   1.445   6.186
 8245TIP3   OH224677   3.329   2.384   5.381
 8245TIP3    H124678   3.319   2.460   5.325
 8245TIP3    H224679   3.243   2.342   5.381
 8246TIP3   OH224680   4.420   3.429   1.989
 8246TIP3    H124681   4.356   3.368   1.952
 8246TIP3    H224682   4.368   3.487   2.045
 8247TIP3   OH224683   4.667   0.367   1.189
 8247TIP3    H124684   4.761   0.385   1.196
 8247TIP3    H224685   4.646   0.312   1.264
 8248TIP3   OH224686   0.617   0.720   0.081
 8248TIP3    H124687   0.605   0.629   0.108
 8248TIP3    H224688   0.551   0.733   0.013
 8249TIP3   OH224689   2.167   6.525   6.600
 8249TIP3    H124690   2.259   6.504   6.586
 8249TIP3    H224691   2.158   6.616   6.572
 8250TIP3   OH224692   7.029   6.572   2.642
 8250TIP3    H124693   7.115   6.547   2.611
 8250TIP3    H224694   7.041   6.659   2.681
 8251TIP3   OH224695   4.706   1.523   1.863
 8251TIP3    H124696   4.749   1.608   1.859
 8251TIP3    H224697   4.733   1.487   1.947
 8252TIP3   OH224698   3.780   6.642   4.008
 8252TIP3    H124699   3.788   6.698   4.085
 8252TIP3    H224700   3.700   6.672   3.964
 8253TIP3   OH224701   0.238   4.861   1.997
 8253TIP3    H124702   0.262   4.911   2.075
 8253TIP3    H224703   0.321   4.838   1.957
 8254TIP3   OH224704   5.323   2.110   0.823
 8254TIP3    H124705   5.287   2.150   0.902
 8254TIP3    H224706   5.328   2.181   0.760
 8255TIP3   OH224707   7.935   4.064   1.599
 8255TIP3    H124708   7.954   3.976   1.633
 8255TIP3    H224709   7.930   4.119   1.677
 8256TIP3   OH224710   7.497   2.597   1.086
 8256TIP3    H124711   7.535   2.665   1.142
 8256TIP3    H224712   7.558   2.589   1.013
 8257TIP3   OH224713   0.066   0.475   2.998
 8257TIP3    H124714  -0.020   0.516   2.991
 8257TIP3    H224715   0.053   0.385   2.968
 8258TIP3   OH224716   7.928   6.000   3.708
 8258TIP3    H124717   7.967   6.036   3.787
 8258TIP3    H224718   7.907   5.909   3.730
 8259TIP3   OH224719   2.732   0.988   5.444
 8259TIP3    H124720   2.719   1.034   5.361
 8259TIP3    H224721   2.822   1.010   5.469
 8260TIP3   OH224722   1.374   4.771   5.348
 8260TIP3    H124723   1.420   4.715   5.286
 8260TIP3    H224724   1.341   4.844   5.296
 8261TIP3   OH224725   6.304   6.430   5.273
 8261TIP3    H124726   6.312   6.391   5.186
 8261TIP3    H224727   6.219   6.474   5.272
 8262TIP3   OH224728   6.613   2.078   2.798
 8262TIP3    H124729   6.539   2.131   2.829
 8262TIP3    H224730   6.688   2.139   2.800
 8263TIP3   OH224731   1.525   4.308   1.723
 8263TIP3    H124732   1.593   4.267   1.669
 8263TIP3    H224733   1.477   4.363   1.661
 8264TIP3   OH224734   4.945   4.873   6.454
 8264TIP3    H124735   4.918   4.921   6.375
 8264TIP3    H224736   4.907   4.924   6.526
 8265TIP3   OH224737   7.743   0.667   5.947
 8265TIP3    H124738   7.656   0.640   5.921
 8265TIP3    H224739   7.800   0.640   5.874
 8266TIP3   OH224740   0.640   6.434   4.719
 8266TIP3    H124741   0.733   6.425   4.740
 8266TIP3    H224742   0.635   6.416   4.625
 8267TIP3   OH224743   1.776   1.188   2.975
 8267TIP3    H124744   1.786   1.257   3.040
 8267TIP3    H224745   1.784   1.232   2.891
 8268TIP3   OH224746   5.346   3.856   0.946
 8268TIP3    H124747   5.284   3.905   1.000
 8268TIP3    H224748   5.415   3.830   1.006
 8269TIP3   OH224749   4.723   7.540   4.977
 8269TIP3    H124750   4.676   7.518   4.896
 8269TIP3    H224751   4.766   7.458   5.003
 8270TIP3   OH224752   7.286   2.110   0.628
 8270TIP3    H124753   7.365   2.135   0.579
 8270TIP3    H224754   7.259   2.027   0.589
 8271TIP3   OH224755   7.040   2.108   3.077
 8271TIP3    H124756   6.994   2.044   3.131
 8271TIP3    H224757   7.031   2.191   3.124
 8272TIP3   OH224758   0.191   4.708   0.094
 8272TIP3    H124759   0.126   4.712   0.024
 8272TIP3    H224760   0.210   4.614   0.103
 8273TIP3   OH224761   4.526   2.481   6.470
 8273TIP3    H124762   4.448   2.537   6.471
 8273TIP3    H224763   4.579   2.516   6.398
 8274TIP3   OH224764   6.219   0.144   4.088
 8274TIP3    H124765   6.219   0.060   4.042
 8274TIP3    H224766   6.163   0.200   4.034
 8275TIP3   OH224767   1.663   7.716   0.168
 8275TIP3    H124768   1.724   7.781   0.133
 8275TIP3    H224769   1.639   7.750   0.254
 8276TIP3   OH224770   3.619   6.885   5.903
 8276TIP3    H124771   3.587   6.874   5.992
 8276TIP3    H224772   3.598   6.803   5.859
 8277TIP3   OH224773   0.405   3.985   6.356
 8277TIP3    H124774   0.437   3.956   6.271
 8277TIP3    H224775   0.479   3.976   6.415
 8278TIP3   OH224776   3.736   6.500   3.629
 8278TIP3    H124777   3.772   6.483   3.715
 8278TIP3    H224778   3.752   6.594   3.615
 8279TIP3   OH224779   4.271   4.294   4.520
 8279TIP3    H124780   4.244   4.224   4.460
 8279TIP3    H224781   4.195   4.351   4.526
 8280TIP3   OH224782   7.413   4.533   3.327
 8280TIP3    H124783   7.350   4.604   3.318
 8280TIP3    H224784   7.401   4.479   3.249
 8281TIP3   OH224785   0.652   5.364   3.373
 8281TIP3    H124786   0.632   5.373   3.467
 8281TIP3    H224787   0.567   5.353   3.331
 8282TIP3   OH224788   2.539   0.282   5.400
 8282TIP3    H124789   2.617   0.333   5.379
 8282TIP3    H224790   2.571   0.207   5.449
 8283TIP3   OH224791   4.673   6.374   0.018
 8283TIP3    H124792   4.630   6.446   0.063
 8283TIP3    H224793   4.765   6.399   0.015
 8284TIP3   OH224794   4.296   0.491   6.489
 8284TIP3    H124795   4.230   0.447   6.435
 8284TIP3    H224796   4.250   0.566   6.526
 8285TIP3   OH224797   1.129   7.212   5.066
 8285TIP3    H124798   1.181   7.282   5.025
 8285TIP3    H224799   1.039   7.231   5.040
 8286TIP3   OH224800   3.700   2.770   0.020
 8286TIP3    H124801   3.663   2.717   0.091
 8286TIP3    H224802   3.730   2.851   0.063
 8287TIP3   OH224803  -0.062   6.524   4.099
 8287TIP3    H124804   0.020   6.504   4.053
 8287TIP3    H224805  -0.048   6.612   4.135
 8288TIP3   OH224806   6.831   0.215   6.704
 8288TIP3    H124807   6.749   0.260   6.683
 8288TIP3    H224808   6.843   0.231   6.798
 8289TIP3   OH224809   0.930   1.880   5.435
 8289TIP3    H124810   0.836   1.874   5.454
 8289TIP3    H224811   0.958   1.961   5.478
 8290TIP3   OH224812   0.553   3.194   5.166
 8290TIP3    H124813   0.556   3.181   5.260
 8290TIP3    H224814   0.609   3.270   5.150
 8291TIP3   OH224815   2.262   5.178   2.534
 8291TIP3    H124816   2.235   5.260   2.492
 8291TIP3    H224817   2.296   5.204   2.619
 8292TIP3   OH224818   1.450   0.088   4.883
 8292TIP3    H124819   1.535   0.067   4.845
 8292TIP3    H224820   1.436   0.180   4.861
 8293TIP3   OH224821   5.209   7.094   3.586
 8293TIP3    H124822   5.180   7.150   3.515
 8293TIP3    H224823   5.281   7.043   3.549
 8294TIP3   OH224824   1.656   4.331   1.989
 8294TIP3    H124825   1.659   4.415   1.942
 8294TIP3    H224826   1.584   4.283   1.948
 8295TIP3   OH224827   0.239   6.971   0.237
 8295TIP3    H124828   0.252   7.051   0.187
 8295TIP3    H224829   0.322   6.925   0.231
 8296TIP3   OH224830   7.698   1.419   3.099
 8296TIP3    H124831   7.677   1.512   3.112
 8296TIP3    H224832   7.624   1.385   3.048
 8297TIP3   OH224833   7.908   4.151   3.660
 8297TIP3    H124834   8.001   4.168   3.642
 8297TIP3    H224835   7.909   4.072   3.715
 8298TIP3   OH224836   3.521   7.377   5.133
 8298TIP3    H124837   3.455   7.348   5.071
 8298TIP3    H224838   3.503   7.470   5.147
 8299TIP3   OH224839   8.056   7.475   2.018
 8299TIP3    H124840   7.960   7.475   2.017
 8299TIP3    H224841   8.079   7.564   2.047
 8300TIP3   OH224842   5.327   3.104   1.454
 8300TIP3    H124843   5.238   3.138   1.462
 8300TIP3    H224844   5.323   3.017   1.493
 8301TIP3   OH224845   3.322   6.130   6.180
 8301TIP3    H124846   3.321   6.188   6.103
 8301TIP3    H224847   3.378   6.176   6.243
 8302TIP3   OH224848   4.643   6.158   3.876
 8302TIP3    H124849   4.686   6.139   3.959
 8302TIP3    H224850   4.673   6.245   3.852
 8303TIP3   OH224851   5.811   3.879   6.664
 8303TIP3    H124852   5.723   3.916   6.657
 8303TIP3    H224853   5.835   3.857   6.574
 8304TIP3   OH224854   7.474   3.565   6.050
 8304TIP3    H124855   7.508   3.479   6.074
 8304TIP3    H224856   7.455   3.608   6.133
 8305TIP3   OH224857   5.116   0.425   3.870
 8305TIP3    H124858   5.135   0.445   3.962
 8305TIP3    H224859   5.145   0.335   3.859
 8306TIP3   OH224860   0.182   4.647   1.419
 8306TIP3    H124861   0.101   4.692   1.397
 8306TIP3    H224862   0.162   4.554   1.406
 8307TIP3   OH224863   5.074   3.334   2.204
 8307TIP3    H124864   5.055   3.387   2.281
 8307TIP3    H224865   5.146   3.380   2.161
 8308TIP3   OH224866   5.776   3.772   3.028
 8308TIP3    H124867   5.796   3.798   3.118
 8308TIP3    H224868   5.829   3.831   2.974
 8309TIP3   OH224869   6.148   5.313   1.683
 8309TIP3    H124870   6.102   5.232   1.661
 8309TIP3    H224871   6.132   5.370   1.608
 8310TIP3   OH224872   4.359   4.991   0.907
 8310TIP3    H124873   4.410   5.040   0.843
 8310TIP3    H224874   4.369   5.040   0.989
 8311TIP3   OH224875   0.843   7.760   1.148
 8311TIP3    H124876   0.932   7.739   1.178
 8311TIP3    H224877   0.788   7.741   1.223
 8312TIP3   OH224878   0.162   7.342   1.009
 8312TIP3    H124879   0.075   7.323   0.974
 8312TIP3    H224880   0.161   7.306   1.098
 8313TIP3   OH224881   1.155   1.982   1.791
 8313TIP3    H124882   1.151   1.946   1.702
 8313TIP3    H224883   1.195   2.068   1.781
 8314TIP3   OH224884   1.427   6.267   2.746
 8314TIP3    H124885   1.345   6.241   2.790
 8314TIP3    H224886   1.451   6.189   2.695
 8315TIP3   OH224887   5.553   4.151   2.825
 8315TIP3    H124888   5.481   4.102   2.866
 8315TIP3    H224889   5.518   4.240   2.816
 8316TIP3   OH224890   0.933   6.846   5.587
 8316TIP3    H124891   0.900   6.797   5.511
 8316TIP3    H224892   1.023   6.869   5.563
 8317TIP3   OH224893   3.314   7.042   6.374
 8317TIP3    H124894   3.370   7.011   6.446
 8317TIP3    H224895   3.324   7.137   6.376
 8318TIP3   OH224896   5.998   1.890   1.363
 8318TIP3    H124897   5.911   1.918   1.334
 8318TIP3    H224898   6.033   1.966   1.410
 8319TIP3   OH224899   6.607   5.946   1.804
 8319TIP3    H124900   6.696   5.934   1.770
 8319TIP3    H224901   6.553   5.887   1.752
 8320TIP3   OH224902   0.465   0.982   1.726
 8320TIP3    H124903   0.547   1.028   1.712
 8320TIP3    H224904   0.458   0.973   1.821
 8321TIP3   OH224905   5.944   4.037   0.814
 8321TIP3    H124906   5.941   4.021   0.719
 8321TIP3    H224907   5.900   3.961   0.852
 8322TIP3   OH224908   6.750   2.506   5.349
 8322TIP3    H124909   6.696   2.513   5.427
 8322TIP3    H224910   6.834   2.473   5.380
 8323TIP3   OH224911   3.323   4.515   1.803
 8323TIP3    H124912   3.314   4.420   1.807
 8323TIP3    H224913   3.275   4.541   1.724
 8324TIP3   OH224914   3.729   3.342   5.769
 8324TIP3    H124915   3.759   3.324   5.680
 8324TIP3    H224916   3.683   3.426   5.763
 8325TIP3   OH224917   2.687   4.864   5.369
 8325TIP3    H124918   2.741   4.804   5.317
 8325TIP3    H224919   2.669   4.937   5.310
 8326TIP3   OH224920   1.140   0.641   5.380
 8326TIP3    H124921   1.052   0.626   5.416
 8326TIP3    H224922   1.125   0.692   5.300
 8327TIP3   OH224923   6.204   5.027   3.357
 8327TIP3    H124924   6.255   5.082   3.416
 8327TIP3    H224925   6.161   4.963   3.413
 8328TIP3   OH224926   1.258   5.651   6.465
 8328TIP3    H124927   1.338   5.614   6.430
 8328TIP3    H224928   1.260   5.629   6.558
 8329TIP3   OH224929   3.215   3.518   2.556
 8329TIP3    H124930   3.202   3.489   2.466
 8329TIP3    H224931   3.277   3.455   2.593
 8330TIP3   OH224932   2.670   2.704   0.207
 8330TIP3    H124933   2.728   2.689   0.132
 8330TIP3    H224934   2.715   2.661   0.281
 8331TIP3   OH224935   6.373   6.024   2.748
 8331TIP3    H124936   6.390   6.015   2.842
 8331TIP3    H224937   6.448   6.073   2.715
 8332TIP3   OH224938   0.105   4.377   1.438
 8332TIP3    H124939   0.141   4.293   1.412
 8332TIP3    H224940   0.021   4.356   1.479
 8333TIP3   OH224941   2.814   0.515   0.961
 8333TIP3    H124942   2.737   0.561   0.995
 8333TIP3    H224943   2.866   0.494   1.039
 8334TIP3   OH224944   3.319   3.361   3.738
 8334TIP3    H124945   3.283   3.433   3.790
 8334TIP3    H224946   3.414   3.374   3.742
 8335TIP3   OH224947   5.897   5.337   5.468
 8335TIP3    H124948   5.923   5.417   5.513
 8335TIP3    H224949   5.974   5.281   5.472
 8336TIP3   OH224950   5.712   4.659   4.169
 8336TIP3    H124951   5.686   4.696   4.084
 8336TIP3    H224952   5.706   4.732   4.230
 8337TIP3   OH224953   5.139   1.075   5.932
 8337TIP3    H124954   5.179   0.988   5.932
 8337TIP3    H224955   5.198   1.128   5.986
 8338TIP3   OH224956   0.903   7.588   5.687
 8338TIP3    H124957   0.817   7.553   5.665
 8338TIP3    H224958   0.946   7.602   5.603
 8339TIP3   OH224959   7.945   2.917   1.375
 8339TIP3    H124960   7.999   2.884   1.446
 8339TIP3    H224961   7.994   2.896   1.295
 8340TIP3   OH224962   7.634   0.463   1.928
 8340TIP3    H124963   7.556   0.509   1.897
 8340TIP3    H224964   7.678   0.434   1.849
 8341TIP3   OH224965   0.705   1.829   2.382
 8341TIP3    H124966   0.729   1.886   2.310
 8341TIP3    H224967   0.684   1.745   2.340
 8342TIP3   OH224968   8.245   0.096   2.227
 8342TIP3    H124969   8.253   0.149   2.148
 8342TIP3    H224970   8.318   0.123   2.282
 8343TIP3   OH224971   2.566   3.573   3.699
 8343TIP3    H124972   2.566   3.579   3.604
 8343TIP3    H224973   2.517   3.649   3.728
 8344TIP3   OH224974   5.631   2.859   4.180
 8344TIP3    H124975   5.683   2.874   4.259
 8344TIP3    H224976   5.600   2.769   4.189
 8345TIP3   OH224977   3.112   1.142   2.866
 8345TIP3    H124978   3.169   1.146   2.790
 8345TIP3    H224979   3.060   1.063   2.854
 8346TIP3   OH224980   7.482   4.462   3.646
 8346TIP3    H124981   7.498   4.481   3.553
 8346TIP3    H224982   7.528   4.379   3.662
 8347TIP3   OH224983   5.826   4.262   4.564
 8347TIP3    H124984   5.776   4.296   4.638
 8347TIP3    H224985   5.762   4.256   4.493
 8348TIP3   OH224986   6.206   3.032   4.002
 8348TIP3    H124987   6.194   3.123   3.974
 8348TIP3    H224988   6.121   3.007   4.039
 8349TIP3   OH224989   6.097   5.943   5.246
 8349TIP3    H124990   6.054   5.974   5.167
 8349TIP3    H224991   6.036   5.877   5.282
 8350TIP3   OH224992   1.685   1.744   5.722
 8350TIP3    H124993   1.642   1.748   5.636
 8350TIP3    H224994   1.770   1.788   5.708
 8351TIP3   OH224995   3.361   4.291   0.836
 8351TIP3    H124996   3.345   4.368   0.783
 8351TIP3    H224997   3.412   4.233   0.780
 8352TIP3   OH224998   5.743   7.270   0.643
 8352TIP3    H124999   5.757   7.244   0.552
 8352TIP3    H225000   5.651   7.295   0.648
 8353TIP3   OH225001   8.189   3.872   4.293
 8353TIP3    H125002   8.107   3.825   4.275
 8353TIP3    H225003   8.247   3.849   4.221
 8354TIP3   OH225004   3.737   1.891   3.478
 8354TIP3    H125005   3.649   1.855   3.472
 8354TIP3    H225006   3.782   1.837   3.543
 8355TIP3   OH225007   0.201   6.908   3.020
 8355TIP3    H125008   0.282   6.916   2.969
 8355TIP3    H225009   0.134   6.950   2.965
 8356TIP3   OH225010   3.099   7.354   4.024
 8356TIP3    H125011   3.148   7.436   4.031
 8356TIP3    H225012   3.066   7.354   3.934
 8357TIP3   OH225013   2.308   2.293   5.157
 8357TIP3    H125014   2.220   2.257   5.173
 8357TIP3    H225015   2.297   2.388   5.166
 8358TIP3   OH225016   4.568   4.406   1.566
 8358TIP3    H125017   4.476   4.417   1.541
 8358TIP3    H225018   4.602   4.495   1.573
 8359TIP3   OH225019   8.119   2.838   0.800
 8359TIP3    H125020   8.057   2.904   0.829
 8359TIP3    H225021   8.176   2.883   0.737
 8360TIP3   OH225022   6.306   2.975   4.779
 8360TIP3    H125023   6.401   2.984   4.775
 8360TIP3    H225024   6.291   2.906   4.844
 8361TIP3   OH225025   4.341   2.462   2.019
 8361TIP3    H125026   4.363   2.464   2.113
 8361TIP3    H225027   4.346   2.370   1.995
 8362TIP3   OH225028   0.933   7.201   3.255
 8362TIP3    H125029   1.004   7.264   3.240
 8362TIP3    H225030   0.921   7.157   3.171
 8363TIP3   OH225031   7.906   3.517   2.276
 8363TIP3    H125032   7.949   3.442   2.318
 8363TIP3    H225033   7.813   3.506   2.296
 8364TIP3   OH225034   3.931   5.058   5.484
 8364TIP3    H125035   3.979   5.049   5.566
 8364TIP3    H225036   3.847   5.095   5.509
 8365TIP3   OH225037   6.472   2.653   3.709
 8365TIP3    H125038   6.384   2.667   3.675
 8365TIP3    H225039   6.476   2.702   3.790
 8366TIP3   OH225040   7.014   2.398   4.312
 8366TIP3    H125041   6.995   2.369   4.401
 8366TIP3    H225042   7.103   2.368   4.295
 8367TIP3   OH225043   2.943   0.177   2.479
 8367TIP3    H125044   2.986   0.189   2.394
 8367TIP3    H225045   2.978   0.094   2.512
 8368TIP3   OH225046   0.783   0.762   3.968
 8368TIP3    H125047   0.817   0.731   4.052
 8368TIP3    H225048   0.855   0.746   3.906
 8369TIP3   OH225049   3.910   6.587   5.162
 8369TIP3    H125050   3.914   6.616   5.071
 8369TIP3    H225051   3.981   6.524   5.170
 8370TIP3   OH225052   6.538   5.153   5.397
 8370TIP3    H125053   6.613   5.212   5.395
 8370TIP3    H225054   6.571   5.074   5.441
 8371TIP3   OH225055   7.276   2.208   4.080
 8371TIP3    H125056   7.309   2.146   4.016
 8371TIP3    H225057   7.296   2.168   4.165
 8372TIP3   OH225058   5.187   1.669   2.740
 8372TIP3    H125059   5.222   1.613   2.809
 8372TIP3    H225060   5.092   1.662   2.749
 8373TIP3   OH225061   2.890   0.754   6.180
 8373TIP3    H125062   2.864   0.834   6.133
 8373TIP3    H225063   2.917   0.694   6.110
 8374TIP3   OH225064   7.264   3.087   0.592
 8374TIP3    H125065   7.304   3.123   0.670
 8374TIP3    H225066   7.174   3.120   0.594
 8375TIP3   OH225067   4.207   0.574   4.461
 8375TIP3    H125068   4.229   0.516   4.534
 8375TIP3    H225069   4.275   0.642   4.464
 8376TIP3   OH225070   2.251   3.330   0.154
 8376TIP3    H125071   2.234   3.389   0.228
 8376TIP3    H225072   2.193   3.255   0.170
 8377TIP3   OH225073   6.263   0.502   5.371
 8377TIP3    H125074   6.286   0.539   5.456
 8377TIP3    H225075   6.204   0.566   5.331
 8378TIP3   OH225076   2.184   1.481   3.786
 8378TIP3    H125077   2.221   1.459   3.700
 8378TIP3    H225078   2.159   1.573   3.778
 8379TIP3   OH225079   6.471   0.104   0.646
 8379TIP3    H125080   6.531   0.110   0.720
 8379TIP3    H225081   6.484   0.016   0.611
 8380TIP3   OH225082   2.863   6.332   4.788
 8380TIP3    H125083   2.952   6.338   4.753
 8380TIP3    H225084   2.823   6.259   4.741
 8381TIP3   OH225085   2.892   2.933   5.925
 8381TIP3    H125086   2.940   3.005   5.884
 8381TIP3    H225087   2.849   2.889   5.852
 8382TIP3   OH225088   1.130   4.094   4.174
 8382TIP3    H125089   1.213   4.053   4.201
 8382TIP3    H225090   1.149   4.131   4.088
 8383TIP3   OH225091   7.547   3.077   6.406
 8383TIP3    H125092   7.639   3.055   6.419
 8383TIP3    H225093   7.526   3.044   6.318
 8384TIP3   OH225094   5.425   7.608   3.917
 8384TIP3    H125095   5.490   7.661   3.871
 8384TIP3    H225096   5.442   7.624   4.010
 8385TIP3   OH225097   6.785   2.169   1.974
 8385TIP3    H125098   6.706   2.153   2.025
 8385TIP3    H225099   6.792   2.093   1.915
 8386TIP3   OH225100   3.038   7.674   0.270
 8386TIP3    H125101   2.990   7.662   0.352
 8386TIP3    H225102   3.130   7.672   0.296
 8387TIP3   OH225103   1.889   6.005   5.222
 8387TIP3    H125104   1.903   6.038   5.133
 8387TIP3    H225105   1.799   5.974   5.222
 8388TIP3   OH225106   7.918   1.050   5.431
 8388TIP3    H125107   7.877   1.123   5.477
 8388TIP3    H225108   7.848   1.012   5.378
 8389TIP3   OH225109   1.268   2.941   6.212
 8389TIP3    H125110   1.227   2.995   6.145
 8389TIP3    H225111   1.248   2.986   6.294
 8390TIP3   OH225112   6.565   4.962   3.265
 8390TIP3    H125113   6.524   4.913   3.336
 8390TIP3    H225114   6.659   4.955   3.280
 8391TIP3   OH225115   7.472   3.390   1.014
 8391TIP3    H125116   7.528   3.409   1.090
 8391TIP3    H225117   7.384   3.416   1.042
 8392TIP3   OH225118   5.378   0.779   2.895
 8392TIP3    H125119   5.466   0.755   2.864
 8392TIP3    H225120   5.340   0.696   2.924
 8393TIP3   OH225121   3.862   4.862   5.265
 8393TIP3    H125122   3.919   4.914   5.321
 8393TIP3    H225123   3.777   4.905   5.271
 8394TIP3   OH225124   5.846   5.691   3.650
 8394TIP3    H125125   5.827   5.602   3.679
 8394TIP3    H225126   5.776   5.711   3.588
 8395TIP3   OH225127   2.440   5.155   3.556
 8395TIP3    H125128   2.457   5.098   3.481
 8395TIP3    H225129   2.527   5.186   3.582
 8396TIP3   OH225130   4.460   3.368   5.562
 8396TIP3    H125131   4.529   3.409   5.509
 8396TIP3    H225132   4.379   3.409   5.532
 8397TIP3   OH225133   7.612   3.655   5.283
 8397TIP3    H125134   7.690   3.666   5.338
 8397TIP3    H225135   7.647   3.630   5.197
 8398TIP3   OH225136   0.649   0.388   2.872
 8398TIP3    H125137   0.649   0.340   2.955
 8398TIP3    H225138   0.595   0.335   2.814
 8399TIP3   OH225139   4.019   7.579   0.979
 8399TIP3    H125140   4.039   7.664   0.939
 8399TIP3    H225141   4.094   7.561   1.034
 8400TIP3   OH225142   3.236   5.191   3.025
 8400TIP3    H125143   3.144   5.165   3.033
 8400TIP3    H225144   3.247   5.261   3.089
 8401TIP3   OH225145   1.477   3.045   1.781
 8401TIP3    H125146   1.420   3.029   1.706
 8401TIP3    H225147   1.561   3.069   1.742
 8402TIP3   OH225148   7.353   6.082   2.677
 8402TIP3    H125149   7.302   6.121   2.606
 8402TIP3    H225150   7.444   6.086   2.646
 8403TIP3   OH225151   3.136   2.377   1.988
 8403TIP3    H125152   3.080   2.306   1.958
 8403TIP3    H225153   3.120   2.448   1.926
 8404TIP3   OH225154   4.758   1.836   5.246
 8404TIP3    H125155   4.676   1.842   5.197
 8404TIP3    H225156   4.814   1.904   5.208
 8405TIP3   OH225157   4.511   5.201   6.183
 8405TIP3    H125158   4.584   5.139   6.180
 8405TIP3    H225159   4.463   5.186   6.101
 8406TIP3   OH225160   6.056   6.967   2.744
 8406TIP3    H125161   6.098   7.013   2.672
 8406TIP3    H225162   6.065   6.874   2.722
 8407TIP3   OH225163   4.509   4.772   0.777
 8407TIP3    H125164   4.467   4.836   0.835
 8407TIP3    H225165   4.446   4.758   0.706
 8408TIP3   OH225166   6.151   7.148   2.913
 8408TIP3    H125167   6.126   7.085   2.845
 8408TIP3    H225168   6.192   7.220   2.865
 8409TIP3   OH225169   7.334   7.412   4.273
 8409TIP3    H125170   7.239   7.419   4.267
 8409TIP3    H225171   7.367   7.477   4.211
 8410TIP3   OH225172   0.588   2.440   2.928
 8410TIP3    H125173   0.613   2.500   2.999
 8410TIP3    H225174   0.506   2.476   2.895
 8411TIP3   OH225175   2.016   7.666   6.084
 8411TIP3    H125176   2.041   7.686   6.174
 8411TIP3    H225177   2.072   7.722   6.031
 8412TIP3   OH225178   4.472   3.345   6.057
 8412TIP3    H125179   4.412   3.305   6.120
 8412TIP3    H225180   4.447   3.437   6.054
 8413TIP3   OH225181   6.000   2.250   3.197
 8413TIP3    H125182   6.095   2.238   3.208
 8413TIP3    H225183   5.961   2.180   3.249
 8414TIP3   OH225184   1.078   7.352   3.862
 8414TIP3    H125185   1.153   7.338   3.805
 8414TIP3    H225186   1.070   7.447   3.869
 8415TIP3   OH225187   2.379   6.826   3.655
 8415TIP3    H125188   2.412   6.915   3.667
 8415TIP3    H225189   2.283   6.835   3.656
 8416TIP3   OH225190   5.370   1.010   6.739
 8416TIP3    H125191   5.419   1.092   6.735
 8416TIP3    H225192   5.283   1.033   6.705
 8417TIP3   OH225193   1.823   5.230   4.837
 8417TIP3    H125194   1.841   5.323   4.851
 8417TIP3    H225195   1.749   5.211   4.894
 8418TIP3   OH225196   6.860   7.654   2.766
 8418TIP3    H125197   6.946   7.616   2.751
 8418TIP3    H225198   6.857   7.731   2.709
 8419TIP3   OH225199   2.235   7.052   6.507
 8419TIP3    H125200   2.329   7.069   6.510
 8419TIP3    H225201   2.205   7.062   6.598
 8420TIP3   OH225202   2.849   4.115   3.493
 8420TIP3    H125203   2.787   4.179   3.459
 8420TIP3    H225204   2.795   4.049   3.537
 8421TIP3   OH225205   6.818   4.813   1.528
 8421TIP3    H125206   6.740   4.793   1.475
 8421TIP3    H225207   6.783   4.849   1.609
 8422TIP3   OH225208   0.409   7.524   6.739
 8422TIP3    H125209   0.375   7.612   6.756
 8422TIP3    H225210   0.339   7.481   6.690
 8423TIP3   OH225211   2.961   3.180   6.745
 8423TIP3    H125212   3.015   3.101   6.746
 8423TIP3    H225213   2.912   3.173   6.663
 8424TIP3   OH225214   4.992   5.229   5.441
 8424TIP3    H125215   4.951   5.245   5.355
 8424TIP3    H225216   4.932   5.169   5.485
 8425TIP3   OH225217   2.561   4.458   1.849
 8425TIP3    H125218   2.521   4.469   1.935
 8425TIP3    H225219   2.488   4.442   1.790
 8426TIP3   OH225220   7.082   2.549   4.962
 8426TIP3    H125221   7.149   2.495   5.005
 8426TIP3    H225222   7.029   2.486   4.913
 8427TIP3   OH225223   1.798   6.889   5.563
 8427TIP3    H125224   1.861   6.929   5.502
 8427TIP3    H225225   1.838   6.899   5.649
 8428TIP3   OH225226   5.584   3.045   6.498
 8428TIP3    H125227   5.667   2.999   6.491
 8428TIP3    H225228   5.593   3.119   6.437
 8429TIP3   OH225229   0.426   1.507   3.625
 8429TIP3    H125230   0.441   1.602   3.626
 8429TIP3    H225231   0.394   1.489   3.537
 8430TIP3   OH225232   2.351   5.030   2.183
 8430TIP3    H125233   2.289   4.995   2.118
 8430TIP3    H225234   2.320   4.995   2.267
 8431TIP3   OH225235   6.630   1.946   3.126
 8431TIP3    H125236   6.724   1.931   3.133
 8431TIP3    H225237   6.616   2.031   3.168
 8432TIP3   OH225238   2.933   6.681   4.501
 8432TIP3    H125239   2.909   6.724   4.583
 8432TIP3    H225240   2.859   6.696   4.443
 8433TIP3   OH225241   4.380   5.708   4.624
 8433TIP3    H125242   4.439   5.663   4.684
 8433TIP3    H225243   4.293   5.698   4.663
 8434TIP3   OH225244   6.916   5.897   0.614
 8434TIP3    H125245   6.842   5.843   0.643
 8434TIP3    H225246   6.984   5.833   0.592
 8435TIP3   OH225247   3.755   7.350   2.358
 8435TIP3    H125248   3.847   7.324   2.359
 8435TIP3    H225249   3.714   7.298   2.427
 8436TIP3   OH225250   7.260   3.528   1.485
 8436TIP3    H125251   7.319   3.497   1.554
 8436TIP3    H225252   7.318   3.562   1.417
 8437TIP3   OH225253   0.800   7.738   0.676
 8437TIP3    H125254   0.848   7.699   0.603
 8437TIP3    H225255   0.714   7.696   0.673
 8438TIP3   OH225256   6.897   5.456   2.972
 8438TIP3    H125257   6.935   5.501   2.896
 8438TIP3    H225258   6.911   5.363   2.955
 8439TIP3   OH225259   2.870   3.602   1.134
 8439TIP3    H125260   2.831   3.515   1.131
 8439TIP3    H225261   2.805   3.659   1.095
 8440TIP3   OH225262   2.914   5.337   5.529
 8440TIP3    H125263   2.977   5.277   5.489
 8440TIP3    H225264   2.966   5.392   5.587
 8441TIP3   OH225265   5.272   5.209   5.816
 8441TIP3    H125266   5.209   5.251   5.874
 8441TIP3    H225267   5.342   5.273   5.806
 8442TIP3   OH225268   5.006   3.841   3.249
 8442TIP3    H125269   4.966   3.760   3.280
 8442TIP3    H225270   4.967   3.855   3.162
 8443TIP3   OH225271   6.678   2.813   6.697
 8443TIP3    H125272   6.632   2.758   6.634
 8443TIP3    H225273   6.610   2.867   6.737
 8444TIP3   OH225274   3.291   4.057   2.433
 8444TIP3    H125275   3.368   4.001   2.434
 8444TIP3    H225276   3.220   4.001   2.462
 8445TIP3   OH225277   6.252   1.116   1.321
 8445TIP3    H125278   6.247   1.022   1.340
 8445TIP3    H225279   6.246   1.121   1.226
 8446TIP3   OH225280   4.935   4.158   5.810
 8446TIP3    H125281   4.925   4.148   5.904
 8446TIP3    H225282   4.869   4.222   5.785
 8447TIP3   OH225283   4.147   6.180   3.094
 8447TIP3    H125284   4.136   6.274   3.079
 8447TIP3    H225285   4.062   6.150   3.125
 8448TIP3   OH225286   0.625   2.775   1.512
 8448TIP3    H125287   0.581   2.745   1.591
 8448TIP3    H225288   0.713   2.737   1.517
 8449TIP3   OH225289   4.317   6.692   1.766
 8449TIP3    H125290   4.274   6.607   1.761
 8449TIP3    H225291   4.255   6.753   1.726
 8450TIP3   OH225292   7.028   4.822   1.373
 8450TIP3    H125293   7.098   4.853   1.430
 8450TIP3    H225294   6.948   4.829   1.425
 8451TIP3   OH225295   1.113   0.376   4.174
 8451TIP3    H125296   1.190   0.419   4.210
 8451TIP3    H225297   1.094   0.305   4.235
 8452TIP3   OH225298   6.466   4.763   3.976
 8452TIP3    H125299   6.460   4.710   4.055
 8452TIP3    H225300   6.520   4.711   3.916
 8453TIP3   OH225301   0.333   2.809   6.220
 8453TIP3    H125302   0.268   2.744   6.248
 8453TIP3    H225303   0.417   2.770   6.243
 8454TIP3   OH225304   0.402   5.366   5.642
 8454TIP3    H125305   0.326   5.415   5.611
 8454TIP3    H225306   0.442   5.332   5.562
 8455TIP3   OH225307   3.269   6.009   1.691
 8455TIP3    H125308   3.277   6.045   1.780
 8455TIP3    H225309   3.315   6.072   1.635
 8456TIP3   OH225310   3.160   5.932   5.421
 8456TIP3    H125311   3.103   5.998   5.462
 8456TIP3    H225312   3.153   5.949   5.327
 8457TIP3   OH225313   6.406   7.883   2.396
 8457TIP3    H125314   6.402   7.792   2.366
 8457TIP3    H225315   6.482   7.920   2.351
 8458TIP3   OH225316   1.768   5.533   2.041
 8458TIP3    H125317   1.743   5.615   2.000
 8458TIP3    H225318   1.803   5.480   1.970
 8459TIP3   OH225319   3.537   5.699   1.916
 8459TIP3    H125320   3.562   5.783   1.878
 8459TIP3    H225321   3.612   5.642   1.900
 8460TIP3   OH225322   7.659   6.616   1.990
 8460TIP3    H125323   7.690   6.700   1.956
 8460TIP3    H225324   7.738   6.566   2.007
 8461TIP3   OH225325   5.132   2.810   3.354
 8461TIP3    H125326   5.113   2.731   3.303
 8461TIP3    H225327   5.209   2.786   3.407
 8462TIP3   OH225328   4.749   3.246   3.370
 8462TIP3    H125329   4.795   3.212   3.447
 8462TIP3    H225330   4.672   3.291   3.405
 8463TIP3   OH225331   8.043   3.254   6.315
 8463TIP3    H125332   7.951   3.261   6.338
 8463TIP3    H225333   8.086   3.322   6.367
 8464TIP3   OH225334   6.333   0.956   3.813
 8464TIP3    H125335   6.329   1.004   3.730
 8464TIP3    H225336   6.424   0.929   3.820
 8465TIP3   OH225337   1.832   2.894   5.399
 8465TIP3    H125338   1.895   2.868   5.332
 8465TIP3    H225339   1.776   2.817   5.409
 8466TIP3   OH225340   1.121   0.202   2.035
 8466TIP3    H125341   1.131   0.191   1.940
 8466TIP3    H225342   1.124   0.297   2.048
 8467TIP3   OH225343   1.833   6.629   4.064
 8467TIP3    H125344   1.831   6.568   3.990
 8467TIP3    H225345   1.905   6.599   4.118
 8468TIP3   OH225346   1.596   5.937   1.516
 8468TIP3    H125347   1.617   6.016   1.466
 8468TIP3    H225348   1.517   5.902   1.475
 8469TIP3   OH225349   6.684   3.556   0.964
 8469TIP3    H125350   6.778   3.561   0.948
 8469TIP3    H225351   6.674   3.487   1.030
 8470TIP3   OH225352   6.746   7.217   6.506
 8470TIP3    H125353   6.841   7.208   6.499
 8470TIP3    H225354   6.733   7.305   6.542
 8471TIP3   OH225355   2.752   6.487   3.664
 8471TIP3    H125356   2.813   6.501   3.592
 8471TIP3    H225357   2.701   6.567   3.668
 8472TIP3   OH225358   2.358   4.262   0.170
 8472TIP3    H125359   2.353   4.344   0.219
 8472TIP3    H225360   2.327   4.285   0.082
 8473TIP3   OH225361   3.830   0.448   3.251
 8473TIP3    H125362   3.891   0.508   3.208
 8473TIP3    H225363   3.757   0.502   3.278
 8474TIP3   OH225364   5.324   1.708   4.310
 8474TIP3    H125365   5.292   1.623   4.280
 8474TIP3    H225366   5.375   1.688   4.388
 8475TIP3   OH225367   5.154   4.463   0.941
 8475TIP3    H125368   5.221   4.513   0.895
 8475TIP3    H225369   5.098   4.529   0.983
 8476TIP3   OH225370   6.901   2.592   1.829
 8476TIP3    H125371   6.842   2.649   1.779
 8476TIP3    H225372   6.984   2.595   1.781
 8477TIP3   OH225373   8.054   0.816   2.825
 8477TIP3    H125374   8.052   0.902   2.783
 8477TIP3    H225375   8.107   0.762   2.766
 8478TIP3   OH225376   6.789   5.646   2.612
 8478TIP3    H125377   6.773   5.584   2.541
 8478TIP3    H225378   6.869   5.614   2.654
 8479TIP3   OH225379   7.692   6.626   1.213
 8479TIP3    H125380   7.711   6.546   1.263
 8479TIP3    H225381   7.725   6.607   1.125
 8480TIP3   OH225382   6.666   1.110   3.046
 8480TIP3    H125383   6.637   1.161   3.121
 8480TIP3    H225384   6.632   1.157   2.970
 8481TIP3   OH225385   4.393   6.973   1.479
 8481TIP3    H125386   4.346   7.015   1.551
 8481TIP3    H225387   4.486   6.987   1.499
 8482TIP3   OH225388   3.206   5.417   5.867
 8482TIP3    H125389   3.282   5.431   5.811
 8482TIP3    H225390   3.236   5.438   5.955
 8483TIP3   OH225391   7.299   6.857   5.815
 8483TIP3    H125392   7.359   6.870   5.888
 8483TIP3    H225393   7.356   6.849   5.738
 8484TIP3   OH225394   5.314   6.907   4.771
 8484TIP3    H125395   5.219   6.897   4.763
 8484TIP3    H225396   5.347   6.818   4.782
 8485TIP3   OH225397   1.197   3.869   2.045
 8485TIP3    H125398   1.107   3.837   2.045
 8485TIP3    H225399   1.188   3.964   2.054
 8486TIP3   OH225400   4.526   5.441   1.983
 8486TIP3    H125401   4.603   5.408   2.031
 8486TIP3    H225402   4.562   5.479   1.903
 8487TIP3   OH225403   1.337   5.605   5.279
 8487TIP3    H125404   1.312   5.691   5.312
 8487TIP3    H225405   1.377   5.622   5.194
 8488TIP3   OH225406   5.210   5.308   4.098
 8488TIP3    H125407   5.190   5.314   4.191
 8488TIP3    H225408   5.228   5.216   4.083
 8489TIP3   OH225409   6.743   1.619   4.616
 8489TIP3    H125410   6.716   1.640   4.706
 8489TIP3    H225411   6.718   1.527   4.604
 8490TIP3   OH225412   7.878   5.731   1.377
 8490TIP3    H125413   7.933   5.800   1.339
 8490TIP3    H225414   7.790   5.749   1.344
 8491TIP3   OH225415   2.703   3.547   0.392
 8491TIP3    H125416   2.717   3.559   0.486
 8491TIP3    H225417   2.779   3.589   0.351
 8492TIP3   OH225418   5.969   6.055   5.013
 8492TIP3    H125419   5.874   6.049   5.025
 8492TIP3    H225420   5.980   6.083   4.922
 8493TIP3   OH225421   5.273   2.857   1.595
 8493TIP3    H125422   5.253   2.764   1.595
 8493TIP3    H225423   5.243   2.888   1.681
 8494TIP3   OH225424   7.711   3.467   1.170
 8494TIP3    H125425   7.682   3.535   1.109
 8494TIP3    H225426   7.807   3.468   1.162
 8495TIP3   OH225427   5.620   6.049   0.371
 8495TIP3    H125428   5.668   5.972   0.344
 8495TIP3    H225429   5.593   6.091   0.289
 8496TIP3   OH225430   4.421   2.364   2.961
 8496TIP3    H125431   4.483   2.417   3.011
 8496TIP3    H225432   4.351   2.342   3.023
 8497TIP3   OH225433   7.445   0.698   2.327
 8497TIP3    H125434   7.439   0.628   2.262
 8497TIP3    H225435   7.359   0.700   2.369
 8498TIP3   OH225436   3.256   3.950   6.410
 8498TIP3    H125437   3.325   3.925   6.470
 8498TIP3    H225438   3.263   3.887   6.338
 8499TIP3   OH225439   1.639   1.362   0.908
 8499TIP3    H125440   1.569   1.323   0.961
 8499TIP3    H225441   1.657   1.297   0.841
 8500TIP3   OH225442   1.095   3.697   1.270
 8500TIP3    H125443   1.012   3.730   1.304
 8500TIP3    H225444   1.094   3.603   1.291
 8501TIP3   OH225445   6.088   2.784   5.070
 8501TIP3    H125446   6.000   2.752   5.049
 8501TIP3    H225447   6.147   2.733   5.015
 8502TIP3   OH225448   4.866   2.879   2.452
 8502TIP3    H125449   4.787   2.878   2.506
 8502TIP3    H225450   4.872   2.969   2.420
 8503TIP3   OH225451   1.255   1.338   1.351
 8503TIP3    H125452   1.240   1.269   1.287
 8503TIP3    H225453   1.194   1.408   1.327
 8504TIP3   OH225454   7.622   7.423   1.089
 8504TIP3    H125455   7.713   7.449   1.107
 8504TIP3    H225456   7.621   7.403   0.996
 8505TIP3   OH225457   7.971   4.724   1.562
 8505TIP3    H125458   7.993   4.665   1.490
 8505TIP3    H225459   7.876   4.721   1.568
 8506TIP3   OH225460   6.896   6.639   4.027
 8506TIP3    H125461   6.801   6.629   4.033
 8506TIP3    H225462   6.923   6.576   3.961
 8507TIP3   OH225463   4.101   3.287   4.090
 8507TIP3    H125464   4.016   3.261   4.054
 8507TIP3    H225465   4.085   3.372   4.131
 8508TIP3   OH225466   2.170   5.256   0.777
 8508TIP3    H125467   2.075   5.245   0.782
 8508TIP3    H225468   2.193   5.304   0.857
 8509TIP3   OH225469   4.075   4.911   4.798
 8509TIP3    H125470   4.106   4.834   4.751
 8509TIP3    H225471   4.127   4.912   4.879
 8510TIP3   OH225472   7.747   4.277   0.103
 8510TIP3    H125473   7.756   4.193   0.058
 8510TIP3    H225474   7.811   4.272   0.174
 8511TIP3   OH225475   4.868   6.908   2.413
 8511TIP3    H125476   4.823   6.830   2.446
 8511TIP3    H225477   4.937   6.873   2.357
 8512TIP3   OH225478   5.523   5.908   1.185
 8512TIP3    H125479   5.505   5.965   1.111
 8512TIP3    H225480   5.455   5.931   1.249
 8513TIP3   OH225481   7.012   1.262   4.111
 8513TIP3    H125482   6.935   1.237   4.162
 8513TIP3    H225483   6.978   1.323   4.045
 8514TIP3   OH225484   3.016   1.570   0.658
 8514TIP3    H125485   3.093   1.545   0.709
 8514TIP3    H225486   3.020   1.665   0.653
 8515TIP3   OH225487   2.278   6.586   1.005
 8515TIP3    H125488   2.254   6.676   0.985
 8515TIP3    H225489   2.217   6.560   1.074
 8516TIP3   OH225490   6.238   4.649   3.193
 8516TIP3    H125491   6.186   4.669   3.116
 8516TIP3    H225492   6.327   4.675   3.170
 8517TIP3   OH225493   2.614   2.324   3.283
 8517TIP3    H125494   2.566   2.286   3.210
 8517TIP3    H225495   2.706   2.306   3.264
 8518TIP3   OH225496   6.435   2.968   3.678
 8518TIP3    H125497   6.430   2.900   3.745
 8518TIP3    H225498   6.359   2.953   3.622
 8519TIP3   OH225499   3.674   2.445   2.028
 8519TIP3    H125500   3.682   2.536   2.001
 8519TIP3    H225501   3.626   2.449   2.111
 8520TIP3   OH225502   7.684   5.248   6.328
 8520TIP3    H125503   7.605   5.289   6.292
 8520TIP3    H225504   7.748   5.319   6.332
 8521TIP3   OH225505   7.308   6.362   6.213
 8521TIP3    H125506   7.362   6.430   6.253
 8521TIP3    H225507   7.312   6.381   6.119
 8522TIP3   OH225508   6.369   0.775   2.418
 8522TIP3    H125509   6.386   0.681   2.419
 8522TIP3    H225510   6.275   0.783   2.401
 8523TIP3   OH225511   4.764   0.101   5.251
 8523TIP3    H125512   4.853   0.130   5.271
 8523TIP3    H225513   4.726   0.174   5.202
 8524TIP3   OH225514   2.900   2.606   3.581
 8524TIP3    H125515   2.827   2.567   3.628
 8524TIP3    H225516   2.866   2.621   3.492
 8525TIP3   OH225517   0.879   3.485   5.388
 8525TIP3    H125518   0.855   3.555   5.328
 8525TIP3    H225519   0.969   3.504   5.413
 8526TIP3   OH225520   2.685   2.378   0.301
 8526TIP3    H125521   2.759   2.366   0.241
 8526TIP3    H225522   2.718   2.436   0.369
 8527TIP3   OH225523   6.992   6.524   0.732
 8527TIP3    H125524   7.030   6.579   0.663
 8527TIP3    H225525   6.904   6.560   0.745
 8528TIP3   OH225526   3.631   6.223   4.307
 8528TIP3    H125527   3.543   6.230   4.344
 8528TIP3    H225528   3.664   6.312   4.306
 8529TIP3   OH225529   6.666   2.504   2.694
 8529TIP3    H125530   6.755   2.469   2.687
 8529TIP3    H225531   6.612   2.445   2.643
 8530TIP3   OH225532   2.108   2.631   2.332
 8530TIP3    H125533   2.180   2.569   2.340
 8530TIP3    H225534   2.063   2.627   2.416
 8531TIP3   OH225535   7.638   1.727   0.599
 8531TIP3    H125536   7.667   1.681   0.520
 8531TIP3    H225537   7.703   1.797   0.612
 8532TIP3   OH225538   7.805   4.651   0.019
 8532TIP3    H125539   7.845   4.736  -0.001
 8532TIP3    H225540   7.859   4.615   0.089
 8533TIP3   OH225541   2.634   6.929   6.137
 8533TIP3    H125542   2.703   6.863   6.138
 8533TIP3    H225543   2.632   6.961   6.047
 8534TIP3   OH225544   0.647   6.895   1.911
 8534TIP3    H125545   0.729   6.847   1.899
 8534TIP3    H225546   0.588   6.832   1.952
 8535TIP3   OH225547   5.662   3.994   2.265
 8535TIP3    H125548   5.574   4.016   2.294
 8535TIP3    H225549   5.706   4.079   2.255
 8536TIP3   OH225550   1.734   7.410   1.945
 8536TIP3    H125551   1.762   7.402   1.854
 8536TIP3    H225552   1.788   7.481   1.980
 8537TIP3   OH225553   3.358   3.690   1.761
 8537TIP3    H125554   3.450   3.676   1.784
 8537TIP3    H225555   3.361   3.721   1.671
 8538TIP3   OH225556   1.500   2.810   2.959
 8538TIP3    H125557   1.573   2.776   2.906
 8538TIP3    H225558   1.427   2.818   2.897
 8539TIP3   OH225559   4.100   0.569   5.131
 8539TIP3    H125560   4.038   0.638   5.153
 8539TIP3    H225561   4.062   0.490   5.169
 8540TIP3   OH225562   3.060   4.993   4.032
 8540TIP3    H125563   3.048   4.915   4.086
 8540TIP3    H225564   2.972   5.012   3.999
 8541TIP3   OH225565   8.187   0.509   6.643
 8541TIP3    H125566   8.188   0.589   6.696
 8541TIP3    H225567   8.250   0.451   6.686
 8542TIP3   OH225568   7.118   2.379   3.971
 8542TIP3    H125569   7.174   2.338   4.037
 8542TIP3    H225570   7.112   2.470   3.999
 8543TIP3   OH225571   2.710   5.617   2.773
 8543TIP3    H125572   2.797   5.577   2.773
 8543TIP3    H225573   2.671   5.589   2.690
 8544TIP3   OH225574   7.492   4.331   4.101
 8544TIP3    H125575   7.560   4.338   4.168
 8544TIP3    H225576   7.438   4.409   4.113
 8545TIP3   OH225577   4.217   2.456   2.306
 8545TIP3    H125578   4.131   2.457   2.263
 8545TIP3    H225579   4.208   2.391   2.376
 8546TIP3   OH225580   2.053   0.893   2.297
 8546TIP3    H125581   2.061   0.801   2.270
 8546TIP3    H225582   2.136   0.913   2.340
 8547TIP3   OH225583   7.814   5.150   1.982
 8547TIP3    H125584   7.829   5.059   2.010
 8547TIP3    H225585   7.881   5.165   1.915
 8548TIP3   OH225586   2.455   4.584   4.181
 8548TIP3    H125587   2.377   4.538   4.151
 8548TIP3    H225588   2.486   4.533   4.255
 8549TIP3   OH225589   4.711   3.274   3.087
 8549TIP3    H125590   4.734   3.266   3.179
 8549TIP3    H225591   4.794   3.291   3.042
 8550TIP3   OH225592   5.339   0.314   6.609
 8550TIP3    H125593   5.277   0.387   6.612
 8550TIP3    H225594   5.412   0.343   6.664
 8551TIP3   OH225595   3.924   2.458   1.241
 8551TIP3    H125596   4.003   2.424   1.200
 8551TIP3    H225597   3.904   2.538   1.193
 8552TIP3   OH225598   3.774   5.798   3.919
 8552TIP3    H125599   3.793   5.704   3.917
 8552TIP3    H225600   3.859   5.840   3.906
 8553TIP3   OH225601   5.512   5.168   0.938
 8553TIP3    H125602   5.464   5.250   0.946
 8553TIP3    H225603   5.603   5.195   0.924
 8554TIP3   OH225604   7.518   3.453   5.441
 8554TIP3    H125605   7.552   3.524   5.386
 8554TIP3    H225606   7.457   3.497   5.500
 8555TIP3   OH225607   0.523   7.125   2.595
 8555TIP3    H125608   0.607   7.140   2.551
 8555TIP3    H225609   0.483   7.053   2.548
 8556TIP3   OH225610   2.405   3.796   6.656
 8556TIP3    H125611   2.327   3.761   6.700
 8556TIP3    H225612   2.478   3.746   6.692
 8557TIP3   OH225613   5.634   3.133   4.091
 8557TIP3    H125614   5.690   3.175   4.157
 8557TIP3    H225615   5.626   3.042   4.122
 8558TIP3   OH225616   7.236   4.058   6.448
 8558TIP3    H125617   7.182   4.095   6.378
 8558TIP3    H225618   7.264   4.134   6.499
 8559TIP3   OH225619   5.003   2.742   4.921
 8559TIP3    H125620   5.091   2.703   4.930
 8559TIP3    H225621   4.944   2.667   4.918
 8560TIP3   OH225622   8.012   7.729   2.179
 8560TIP3    H125623   8.087   7.762   2.229
 8560TIP3    H225624   7.936   7.763   2.226
 8561TIP3   OH225625   4.527   1.870   5.078
 8561TIP3    H125626   4.471   1.842   5.005
 8561TIP3    H225627   4.590   1.930   5.038
 8562TIP3   OH225628   3.071   7.410   1.618
 8562TIP3    H125629   3.024   7.368   1.546
 8562TIP3    H225630   3.033   7.498   1.624
 8563TIP3   OH225631   6.661   5.284   5.790
 8563TIP3    H125632   6.594   5.222   5.818
 8563TIP3    H225633   6.612   5.357   5.753
 8564TIP3   OH225634   1.055   4.767   6.329
 8564TIP3    H125635   1.000   4.703   6.285
 8564TIP3    H225636   1.070   4.835   6.264
 8565TIP3   OH225637   5.525   2.886   1.807
 8565TIP3    H125638   5.510   2.962   1.752
 8565TIP3    H225639   5.437   2.855   1.829
 8566TIP3   OH225640   4.185   6.448   1.828
 8566TIP3    H125641   4.167   6.516   1.893
 8566TIP3    H225642   4.141   6.370   1.863
 8567TIP3   OH225643   6.098   6.815   5.353
 8567TIP3    H125644   6.039   6.886   5.325
 8567TIP3    H225645   6.089   6.812   5.448
 8568TIP3   OH225646   0.296   0.431   4.254
 8568TIP3    H125647   0.215   0.382   4.242
 8568TIP3    H225648   0.334   0.394   4.334
 8569TIP3   OH225649   8.030   3.236   3.969
 8569TIP3    H125650   8.083   3.312   3.993
 8569TIP3    H225651   7.946   3.274   3.941
 8570TIP3   OH225652   5.187   3.980   0.238
 8570TIP3    H125653   5.230   3.895   0.235
 8570TIP3    H225654   5.157   3.995   0.148
 8571TIP3   OH225655   3.162   6.384   0.540
 8571TIP3    H125656   3.241   6.434   0.522
 8571TIP3    H225657   3.092   6.450   0.543
 8572TIP3   OH225658   3.797   4.372   5.865
 8572TIP3    H125659   3.706   4.376   5.892
 8572TIP3    H225660   3.830   4.461   5.878
 8573TIP3   OH225661   8.197   2.361   6.688
 8573TIP3    H125662   8.164   2.323   6.769
 8573TIP3    H225663   8.158   2.448   6.685
 8574TIP3   OH225664   2.331   2.610   3.925
 8574TIP3    H125665   2.268   2.672   3.964
 8574TIP3    H225666   2.363   2.655   3.847
 8575TIP3   OH225667   5.957   4.284   3.632
 8575TIP3    H125668   5.886   4.223   3.654
 8575TIP3    H225669   5.916   4.351   3.578
 8576TIP3   OH225670   4.257   3.106   0.904
 8576TIP3    H125671   4.243   3.128   0.812
 8576TIP3    H225672   4.277   3.189   0.947
 8577TIP3   OH225673   3.295   6.598   3.683
 8577TIP3    H125674   3.244   6.668   3.722
 8577TIP3    H225675   3.230   6.533   3.655
 8578TIP3   OH225676   1.641   1.329   5.265
 8578TIP3    H125677   1.569   1.390   5.248
 8578TIP3    H225678   1.685   1.321   5.181
 8579TIP3   OH225679   4.467   5.650   0.456
 8579TIP3    H125680   4.527   5.713   0.416
 8579TIP3    H225681   4.436   5.597   0.383
 8580TIP3   OH225682   3.772   7.061   0.369
 8580TIP3    H125683   3.865   7.085   0.377
 8580TIP3    H225684   3.768   6.971   0.402
 8581TIP3   OH225685   5.386   5.596   2.513
 8581TIP3    H125686   5.390   5.685   2.550
 8581TIP3    H225687   5.475   5.562   2.524
 8582TIP3   OH225688   0.018   5.214   1.884
 8582TIP3    H125689  -0.023   5.129   1.900
 8582TIP3    H225690  -0.035   5.276   1.933
 8583TIP3   OH225691   2.433   7.588   2.021
 8583TIP3    H125692   2.524   7.568   2.040
 8583TIP3    H225693   2.407   7.523   1.955
 8584TIP3   OH225694   2.816   2.978   3.014
 8584TIP3    H125695   2.867   2.926   2.952
 8584TIP3    H225696   2.727   2.944   3.006
 8585TIP3   OH225697   0.489   2.077   2.044
 8585TIP3    H125698   0.494   2.168   2.075
 8585TIP3    H225699   0.442   2.083   1.961
 8586TIP3   OH225700   7.476   5.860   6.222
 8586TIP3    H125701   7.571   5.860   6.235
 8586TIP3    H225702   7.455   5.948   6.193
 8587TIP3   OH225703   5.718   5.819   6.256
 8587TIP3    H125704   5.782   5.772   6.310
 8587TIP3    H225705   5.637   5.815   6.306
 8588TIP3   OH225706   1.843   4.047   5.424
 8588TIP3    H125707   1.937   4.060   5.438
 8588TIP3    H225708   1.833   4.050   5.329
 8589TIP3   OH225709   3.758   0.814   5.580
 8589TIP3    H125710   3.840   0.855   5.552
 8589TIP3    H225711   3.715   0.787   5.499
 8590TIP3   OH225712   7.695   2.182   1.516
 8590TIP3    H125713   7.625   2.142   1.568
 8590TIP3    H225714   7.712   2.119   1.446
 8591TIP3   OH225715   6.437   0.050   2.440
 8591TIP3    H125716   6.370   0.032   2.505
 8591TIP3    H225717   6.462  -0.036   2.406
 8592TIP3   OH225718   7.940   5.556   3.420
 8592TIP3    H125719   7.845   5.546   3.412
 8592TIP3    H225720   7.956   5.649   3.399
 8593TIP3   OH225721   2.830   2.162   0.468
 8593TIP3    H125722   2.795   2.245   0.436
 8593TIP3    H225723   2.925   2.173   0.464
 8594TIP3   OH225724   1.543   6.480   3.741
 8594TIP3    H125725   1.546   6.387   3.716
 8594TIP3    H225726   1.544   6.479   3.836
 8595TIP3   OH225727   5.540   4.477   5.401
 8595TIP3    H125728   5.459   4.510   5.362
 8595TIP3    H225729   5.610   4.520   5.352
 8596TIP3   OH225730   4.283   7.021   5.920
 8596TIP3    H125731   4.228   6.990   5.848
 8596TIP3    H225732   4.333   7.094   5.882
 8597TIP3   OH225733   1.998   5.771   1.366
 8597TIP3    H125734   2.035   5.715   1.298
 8597TIP3    H225735   1.918   5.806   1.327
 8598TIP3   OH225736   1.340   3.779   1.460
 8598TIP3    H125737   1.307   3.704   1.410
 8598TIP3    H225738   1.303   3.767   1.548
 8599TIP3   OH225739   3.425   3.232   3.040
 8599TIP3    H125740   3.437   3.163   3.105
 8599TIP3    H225741   3.512   3.272   3.032
 8600TIP3   OH225742   5.298   3.689   6.763
 8600TIP3    H125743   5.296   3.595   6.779
 8600TIP3    H225744   5.282   3.698   6.669
 8601TIP3   OH225745   2.758   5.834   4.597
 8601TIP3    H125746   2.834   5.777   4.611
 8601TIP3    H225747   2.793   5.923   4.607
 8602TIP3   OH225748   2.729   7.192   4.071
 8602TIP3    H125749   2.801   7.217   4.129
 8602TIP3    H225750   2.767   7.128   4.011
 8603TIP3   OH225751   2.371   1.064   3.321
 8603TIP3    H125752   2.357   1.158   3.321
 8603TIP3    H225753   2.460   1.053   3.289
 8604TIP3   OH225754   2.700   7.262   1.048
 8604TIP3    H125755   2.677   7.172   1.071
 8604TIP3    H225756   2.774   7.283   1.104
 8605TIP3   OH225757   5.271   3.590   1.434
 8605TIP3    H125758   5.230   3.656   1.489
 8605TIP3    H225759   5.279   3.513   1.491
 8606TIP3   OH225760   5.128   1.486   3.060
 8606TIP3    H125761   5.218   1.517   3.071
 8606TIP3    H225762   5.098   1.467   3.149
 8607TIP3   OH225763   3.857   1.343   1.497
 8607TIP3    H125764   3.786   1.407   1.485
 8607TIP3    H225765   3.910   1.353   1.418
 8608TIP3   OH225766   4.351   0.328   3.740
 8608TIP3    H125767   4.421   0.391   3.755
 8608TIP3    H225768   4.339   0.286   3.825
 8609TIP3   OH225769   7.890   7.593   1.617
 8609TIP3    H125770   7.852   7.506   1.613
 8609TIP3    H225771   7.931   7.597   1.703
 8610TIP3   OH225772   6.483   2.905   1.398
 8610TIP3    H125773   6.474   3.001   1.401
 8610TIP3    H225774   6.543   2.890   1.325
 8611TIP3   OH225775   3.998   2.232   2.999
 8611TIP3    H125776   3.986   2.290   3.074
 8611TIP3    H225777   4.044   2.286   2.934
 8612TIP3   OH225778   2.610   5.093   5.241
 8612TIP3    H125779   2.522   5.118   5.267
 8612TIP3    H225780   2.652   5.175   5.216
 8613TIP3   OH225781   8.071   2.092   2.157
 8613TIP3    H125782   8.133   2.041   2.210
 8613TIP3    H225783   7.986   2.078   2.199
 8614TIP3   OH225784   3.392   4.573   1.400
 8614TIP3    H125785   3.310   4.595   1.444
 8614TIP3    H225786   3.418   4.489   1.439
 8615TIP3   OH225787   7.408   0.396   0.255
 8615TIP3    H125788   7.481   0.376   0.313
 8615TIP3    H225789   7.436   0.473   0.206
 8616TIP3   OH225790   4.105   6.907   4.744
 8616TIP3    H125791   4.168   6.862   4.801
 8616TIP3    H225792   4.055   6.836   4.703
 8617TIP3   OH225793   0.908   6.091   4.939
 8617TIP3    H125794   0.924   6.112   5.031
 8617TIP3    H225795   0.825   6.132   4.919
 8618TIP3   OH225796   2.982   1.155   5.467
 8618TIP3    H125797   2.992   1.157   5.562
 8618TIP3    H225798   2.915   1.219   5.449
 8619TIP3   OH225799   0.545   7.322   0.322
 8619TIP3    H125800   0.565   7.245   0.374
 8619TIP3    H225801   0.578   7.395   0.374
 8620TIP3   OH225802   3.144   6.116   1.927
 8620TIP3    H125803   3.087   6.191   1.909
 8620TIP3    H225804   3.083   6.044   1.945
 8621TIP3   OH225805   5.338   0.426   0.090
 8621TIP3    H125806   5.348   0.498   0.028
 8621TIP3    H225807   5.394   0.451   0.164
 8622TIP3   OH225808   8.128   1.432   3.335
 8622TIP3    H125809   8.097   1.348   3.367
 8622TIP3    H225810   8.220   1.417   3.312
 8623TIP3   OH225811   0.255   1.307   5.117
 8623TIP3    H125812   0.308   1.386   5.102
 8623TIP3    H225813   0.311   1.252   5.172
 8624TIP3   OH225814   1.172   1.383   0.579
 8624TIP3    H125815   1.081   1.353   0.587
 8624TIP3    H225816   1.172   1.470   0.618
 8625TIP3   OH225817   0.801   0.782   1.744
 8625TIP3    H125818   0.887   0.740   1.743
 8625TIP3    H225819   0.738   0.710   1.735
 8626TIP3   OH225820   0.626   2.644   1.235
 8626TIP3    H125821   0.615   2.711   1.168
 8626TIP3    H225822   0.624   2.691   1.318
 8627TIP3   OH225823   3.239   4.649   2.627
 8627TIP3    H125824   3.181   4.607   2.691
 8627TIP3    H225825   3.308   4.585   2.611
 8628TIP3   OH225826   8.017   5.447   5.058
 8628TIP3    H125827   8.077   5.513   5.021
 8628TIP3    H225828   8.056   5.363   5.034
 8629TIP3   OH225829   0.603   0.224   1.099
 8629TIP3    H125830   0.662   0.178   1.159
 8629TIP3    H225831   0.635   0.314   1.099
 8630TIP3   OH225832   7.458   2.506   2.481
 8630TIP3    H125833   7.400   2.493   2.406
 8630TIP3    H225834   7.431   2.590   2.518
 8631TIP3   OH225835   6.920   1.652   5.094
 8631TIP3    H125836   6.918   1.630   5.187
 8631TIP3    H225837   7.001   1.613   5.062
 8632TIP3   OH225838   2.774   6.799   3.611
 8632TIP3    H125839   2.771   6.886   3.571
 8632TIP3    H225840   2.784   6.739   3.537
 8633TIP3   OH225841   5.687   7.622   0.389
 8633TIP3    H125842   5.771   7.605   0.347
 8633TIP3    H225843   5.624   7.572   0.338
 8634TIP3   OH225844   3.437   2.385   1.310
 8634TIP3    H125845   3.364   2.400   1.250
 8634TIP3    H225846   3.478   2.471   1.321
 8635TIP3   OH225847   3.075   5.390   1.499
 8635TIP3    H125848   3.076   5.462   1.436
 8635TIP3    H225849   3.159   5.398   1.545
 8636TIP3   OH225850   1.252   1.601   5.386
 8636TIP3    H125851   1.277   1.651   5.308
 8636TIP3    H225852   1.157   1.605   5.388
 8637TIP3   OH225853   7.334   5.950   1.417
 8637TIP3    H125854   7.335   6.034   1.463
 8637TIP3    H225855   7.265   5.960   1.352
 8638TIP3   OH225856   8.090   7.713   5.287
 8638TIP3    H125857   8.169   7.681   5.244
 8638TIP3    H225858   8.051   7.635   5.326
 8639TIP3   OH225859   2.494   3.945   0.568
 8639TIP3    H125860   2.428   3.975   0.506
 8639TIP3    H225861   2.566   3.914   0.513
 8640TIP3   OH225862   7.345   0.198   1.935
 8640TIP3    H125863   7.330   0.293   1.937
 8640TIP3    H225864   7.278   0.162   1.993
 8641TIP3   OH225865   1.184   4.608   6.758
 8641TIP3    H125866   1.180   4.683   6.700
 8641TIP3    H225867   1.276   4.580   6.755
 8642TIP3   OH225868   6.856   7.753   0.247
 8642TIP3    H125869   6.927   7.688   0.249
 8642TIP3    H225870   6.888   7.821   0.188
 8643TIP3   OH225871   3.266   4.767   2.323
 8643TIP3    H125872   3.285   4.758   2.416
 8643TIP3    H225873   3.171   4.757   2.317
 8644TIP3   OH225874   0.053   1.580   5.004
 8644TIP3    H125875  -0.010   1.510   5.014
 8644TIP3    H225876   0.138   1.538   5.018
 8645TIP3   OH225877   1.954   4.540   0.167
 8645TIP3    H125878   1.923   4.541   0.077
 8645TIP3    H225879   2.034   4.593   0.165
 8646TIP3   OH225880   7.877   5.366   0.466
 8646TIP3    H125881   7.865   5.459   0.483
 8646TIP3    H225882   7.882   5.326   0.553
 8647TIP3   OH225883   3.640   5.524   1.436
 8647TIP3    H125884   3.562   5.565   1.472
 8647TIP3    H225885   3.609   5.475   1.360
 8648TIP3   OH225886   6.971   6.470   0.212
 8648TIP3    H125887   6.971   6.554   0.259
 8648TIP3    H225888   7.050   6.426   0.242
 8649TIP3   OH225889   4.149   1.192   4.326
 8649TIP3    H125890   4.202   1.218   4.402
 8649TIP3    H225891   4.212   1.182   4.255
 8650TIP3   OH225892   1.524   1.933   0.183
 8650TIP3    H125893   1.444   1.904   0.140
 8650TIP3    H225894   1.504   1.932   0.276
 8651TIP3   OH225895   1.235   4.570   6.278
 8651TIP3    H125896   1.181   4.551   6.201
 8651TIP3    H225897   1.182   4.632   6.329
 8652TIP3   OH225898   6.525   6.089   4.941
 8652TIP3    H125899   6.579   6.117   5.015
 8652TIP3    H225900   6.581   6.101   4.864
 8653TIP3   OH225901   4.902   7.302   3.347
 8653TIP3    H125902   4.922   7.395   3.333
 8653TIP3    H225903   4.808   7.295   3.332
 8654TIP3   OH225904   7.156   6.980   1.894
 8654TIP3    H125905   7.143   6.925   1.971
 8654TIP3    H225906   7.251   6.981   1.880
 8655TIP3   OH225907   1.541   3.188   0.587
 8655TIP3    H125908   1.576   3.119   0.531
 8655TIP3    H225909   1.519   3.143   0.669
 8656TIP3   OH225910   7.490   5.874   2.937
 8656TIP3    H125911   7.437   5.891   2.858
 8656TIP3    H225912   7.546   5.801   2.912
 8657TIP3   OH225913   3.277   7.769   2.016
 8657TIP3    H125914   3.315   7.851   1.986
 8657TIP3    H225915   3.347   7.727   2.066
 8658TIP3   OH225916   5.712   5.608   6.083
 8658TIP3    H125917   5.793   5.611   6.031
 8658TIP3    H225918   5.708   5.694   6.126
 8659TIP3   OH225919   0.140   4.767   0.800
 8659TIP3    H125920   0.135   4.676   0.829
 8659TIP3    H225921   0.122   4.819   0.878
 8660TIP3   OH225922   4.690   1.251   2.512
 8660TIP3    H125923   4.748   1.234   2.586
 8660TIP3    H225924   4.619   1.187   2.521
 8661TIP3   OH225925   8.003   2.914   0.101
 8661TIP3    H125926   8.052   2.878   0.176
 8661TIP3    H225927   7.917   2.872   0.106
 8662TIP3   OH225928   4.135   7.335   4.299
 8662TIP3    H125929   4.137   7.429   4.317
 8662TIP3    H225930   4.076   7.326   4.224
 8663TIP3   OH225931   7.062   2.679   0.104
 8663TIP3    H125932   7.122   2.718   0.040
 8663TIP3    H225933   7.111   2.605   0.141
 8664TIP3   OH225934   5.412   6.135   1.317
 8664TIP3    H125935   5.461   6.139   1.235
 8664TIP3    H225936   5.345   6.203   1.308
 8665TIP3   OH225937   6.271   5.519   0.841
 8665TIP3    H125938   6.342   5.481   0.893
 8665TIP3    H225939   6.195   5.517   0.898
 8666TIP3   OH225940   2.532   3.278   0.984
 8666TIP3    H125941   2.470   3.344   1.015
 8666TIP3    H225942   2.593   3.326   0.928
 8667TIP3   OH225943   6.249   4.783   2.267
 8667TIP3    H125944   6.156   4.781   2.244
 8667TIP3    H225945   6.255   4.846   2.338
 8668TIP3   OH225946   7.054   3.019   4.096
 8668TIP3    H125947   7.147   3.006   4.077
 8668TIP3    H225948   7.010   2.981   4.020
 8669TIP3   OH225949   4.633   6.005   4.889
 8669TIP3    H125950   4.632   6.094   4.853
 8669TIP3    H225951   4.608   6.017   4.981
 8670TIP3   OH225952   4.182   4.456   3.391
 8670TIP3    H125953   4.247   4.520   3.362
 8670TIP3    H225954   4.167   4.477   3.483
 8671TIP3   OH225955   4.124   6.856   1.640
 8671TIP3    H125956   4.148   6.948   1.626
 8671TIP3    H225957   4.106   6.822   1.553
 8672TIP3   OH225958   2.336   3.694   6.385
 8672TIP3    H125959   2.378   3.738   6.459
 8672TIP3    H225960   2.394   3.711   6.311
 8673TIP3   OH225961   0.277   3.110   0.978
 8673TIP3    H125962   0.224   3.179   0.937
 8673TIP3    H225963   0.213   3.044   1.005
 8674TIP3   OH225964   6.256   7.735   3.511
 8674TIP3    H125965   6.271   7.829   3.501
 8674TIP3    H225966   6.165   7.723   3.484
 8675TIP3   OH225967   5.415   0.259   1.359
 8675TIP3    H125968   5.399   0.287   1.269
 8675TIP3    H225969   5.488   0.199   1.353
 8676TIP3   OH225970   5.952   4.208   6.716
 8676TIP3    H125971   5.867   4.191   6.757
 8676TIP3    H225972   5.989   4.120   6.702
 8677TIP3   OH225973   6.105   0.226   2.619
 8677TIP3    H125974   6.076   0.223   2.710
 8677TIP3    H225975   6.129   0.136   2.599
 8678TIP3   OH225976   3.052   1.089   1.993
 8678TIP3    H125977   3.068   1.039   1.913
 8678TIP3    H225978   3.010   1.169   1.963
 8679TIP3   OH225979   7.529   5.344   6.569
 8679TIP3    H125980   7.571   5.428   6.551
 8679TIP3    H225981   7.493   5.317   6.484
 8680TIP3   OH225982   0.091   4.564   5.803
 8680TIP3    H125983   0.012   4.526   5.764
 8680TIP3    H225984   0.116   4.634   5.744
 8681TIP3   OH225985   1.344   4.645   5.574
 8681TIP3    H125986   1.357   4.683   5.488
 8681TIP3    H225987   1.426   4.599   5.594
 8682TIP3   OH225988   3.135   3.781   3.712
 8682TIP3    H125989   3.075   3.725   3.664
 8682TIP3    H225990   3.111   3.768   3.804
 8683TIP3   OH225991   2.070   1.949   5.286
 8683TIP3    H125992   2.164   1.939   5.303
 8683TIP3    H225993   2.062   2.036   5.245
 8684TIP3   OH225994   1.553   4.217   0.951
 8684TIP3    H125995   1.484   4.155   0.974
 8684TIP3    H225996   1.524   4.255   0.868
 8685TIP3   OH225997   4.789   0.546   5.756
 8685TIP3    H125998   4.834   0.498   5.685
 8685TIP3    H225999   4.858   0.562   5.821
 8686TIP3   OH226000   0.719   4.120   3.636
 8686TIP3    H126001   0.737   4.214   3.632
 8686TIP3    H226002   0.638   4.110   3.586
 8687TIP3   OH226003   7.273   1.220   3.353
 8687TIP3    H126004   7.222   1.287   3.399
 8687TIP3    H226005   7.353   1.265   3.326
 8688TIP3   OH226006   7.847   4.279   5.750
 8688TIP3    H126007   7.845   4.367   5.711
 8688TIP3    H226008   7.878   4.293   5.839
 8689TIP3   OH226009   6.198   1.172   1.745
 8689TIP3    H126010   6.178   1.254   1.790
 8689TIP3    H226011   6.294   1.166   1.749
 8690TIP3   OH226012   3.387   1.735   0.499
 8690TIP3    H126013   3.461   1.674   0.502
 8690TIP3    H226014   3.312   1.681   0.477
 8691TIP3   OH226015   3.144   5.163   0.943
 8691TIP3    H126016   3.177   5.219   0.872
 8691TIP3    H226017   3.181   5.077   0.924
 8692TIP3   OH226018   7.658   0.834   3.983
 8692TIP3    H126019   7.607   0.780   3.923
 8692TIP3    H226020   7.727   0.872   3.929
 8693TIP3   OH226021   1.856   1.797   1.785
 8693TIP3    H126022   1.766   1.764   1.784
 8693TIP3    H226023   1.901   1.748   1.717
 8694TIP3   OH226024   1.875   6.332   0.874
 8694TIP3    H126025   1.855   6.378   0.955
 8694TIP3    H226026   1.908   6.246   0.901
 8695TIP3   OH226027   5.128   7.176   0.641
 8695TIP3    H126028   5.034   7.187   0.659
 8695TIP3    H226029   5.163   7.265   0.644
 8696TIP3   OH226030   7.202   7.158   5.932
 8696TIP3    H126031   7.267   7.197   5.991
 8696TIP3    H226032   7.235   7.177   5.844
 8697TIP3   OH226033   5.539   2.754   3.432
 8697TIP3    H126034   5.545   2.679   3.491
 8697TIP3    H226035   5.594   2.821   3.472
 8698TIP3   OH226036   0.087   5.233   3.235
 8698TIP3    H126037   0.105   5.302   3.171
 8698TIP3    H226038   0.172   5.214   3.274
 8699TIP3   OH226039   3.821   3.076   6.767
 8699TIP3    H126040   3.761   3.004   6.784
 8699TIP3    H226041   3.855   3.059   6.679
 8700TIP3   OH226042   5.962   3.638   1.834
 8700TIP3    H126043   5.890   3.664   1.777
 8700TIP3    H226044   5.949   3.545   1.849
 8701TIP3   OH226045   3.798   7.551   1.450
 8701TIP3    H126046   3.826   7.468   1.411
 8701TIP3    H226047   3.764   7.528   1.536
 8702TIP3   OH226048   1.178   3.580   2.348
 8702TIP3    H126049   1.243   3.555   2.283
 8702TIP3    H226050   1.219   3.557   2.432
 8703TIP3   OH226051   6.737   2.444   1.997
 8703TIP3    H126052   6.762   2.352   1.989
 8703TIP3    H226053   6.808   2.492   1.954
 8704TIP3   OH226054   4.283   6.398   3.692
 8704TIP3    H126055   4.210   6.397   3.755
 8704TIP3    H226056   4.274   6.316   3.644
 8705TIP3   OH226057   2.041   5.121   0.485
 8705TIP3    H126058   2.053   5.031   0.453
 8705TIP3    H226059   2.069   5.118   0.576
 8706TIP3   OH226060   2.125   4.704   1.737
 8706TIP3    H126061   2.173   4.775   1.696
 8706TIP3    H226062   2.088   4.654   1.663
 8707TIP3   OH226063   3.122   3.193   3.334
 8707TIP3    H126064   3.158   3.111   3.366
 8707TIP3    H226065   3.097   3.240   3.414
 8708TIP3   OH226066   3.036   0.946   3.187
 8708TIP3    H126067   2.956   0.982   3.148
 8708TIP3    H226068   3.089   0.919   3.113
 8709TIP3   OH226069   2.303   4.955   6.113
 8709TIP3    H126070   2.331   4.925   6.200
 8709TIP3    H226071   2.209   4.938   6.111
 8710TIP3   OH226072   6.836   4.583   3.552
 8710TIP3    H126073   6.786   4.553   3.475
 8710TIP3    H226074   6.855   4.504   3.601
 8711TIP3   OH226075   5.918   5.112   0.630
 8711TIP3    H126076   5.837   5.110   0.579
 8711TIP3    H226077   5.943   5.205   0.632
 8712TIP3   OH226078   3.706   1.914   4.535
 8712TIP3    H126079   3.613   1.892   4.539
 8712TIP3    H226080   3.750   1.841   4.579
 8713TIP3   OH226081   7.690   4.582   4.999
 8713TIP3    H126082   7.656   4.671   5.001
 8713TIP3    H226083   7.634   4.537   4.935
 8714TIP3   OH226084   7.962   7.767   2.653
 8714TIP3    H126085   8.020   7.843   2.647
 8714TIP3    H226086   8.016   7.693   2.627
 8715TIP3   OH226087   4.579   4.036   0.794
 8715TIP3    H126088   4.639   4.097   0.752
 8715TIP3    H226089   4.524   4.091   0.850
 8716TIP3   OH226090   2.956   1.770   3.444
 8716TIP3    H126091   2.988   1.773   3.534
 8716TIP3    H226092   3.022   1.818   3.394
 8717TIP3   OH226093   4.976   4.080   6.688
 8717TIP3    H126094   4.960   4.000   6.637
 8717TIP3    H226095   5.071   4.090   6.689
 8718TIP3   OH226096   3.616   3.131   2.632
 8718TIP3    H126097   3.621   3.079   2.713
 8718TIP3    H226098   3.607   3.066   2.563
 8719TIP3   OH226099   5.188   2.610   5.789
 8719TIP3    H126100   5.165   2.526   5.829
 8719TIP3    H226101   5.269   2.593   5.742
 8720TIP3   OH226102   7.958   2.684   5.265
 8720TIP3    H126103   7.987   2.774   5.257
 8720TIP3    H226104   7.911   2.666   5.184
 8721TIP3   OH226105   2.560   2.982   1.740
 8721TIP3    H126106   2.518   2.899   1.763
 8721TIP3    H226107   2.488   3.045   1.739
 8722TIP3   OH226108   7.424   0.618   5.116
 8722TIP3    H126109   7.516   0.617   5.090
 8722TIP3    H226110   7.375   0.602   5.035
 8723TIP3   OH226111   8.149   1.394   4.958
 8723TIP3    H126112   8.207   1.318   4.955
 8723TIP3    H226113   8.061   1.357   4.954
 8724TIP3   OH226114   3.553   4.517   6.401
 8724TIP3    H126115   3.531   4.426   6.420
 8724TIP3    H226116   3.616   4.511   6.329
 8725TIP3   OH226117   1.242   3.594   4.646
 8725TIP3    H126118   1.158   3.636   4.667
 8725TIP3    H226119   1.307   3.663   4.659
 8726TIP3   OH226120   4.831   7.028   4.237
 8726TIP3    H126121   4.860   6.966   4.170
 8726TIP3    H226122   4.831   7.113   4.193
 8727TIP3   OH226123   3.545   5.266   2.672
 8727TIP3    H126124   3.450   5.265   2.660
 8727TIP3    H226125   3.578   5.310   2.593
 8728TIP3   OH226126   7.873   7.272   5.241
 8728TIP3    H126127   7.908   7.354   5.209
 8728TIP3    H226128   7.781   7.290   5.259
 8729TIP3   OH226129   2.968   4.119   3.177
 8729TIP3    H126130   2.911   4.050   3.210
 8729TIP3    H226131   3.043   4.120   3.237
 8730TIP3   OH226132   3.308   2.331   0.152
 8730TIP3    H126133   3.357   2.260   0.194
 8730TIP3    H226134   3.331   2.324   0.059
 8731TIP3   OH226135   5.382   6.144   3.753
 8731TIP3    H126136   5.417   6.229   3.778
 8731TIP3    H226137   5.364   6.152   3.659
 8732TIP3   OH226138   7.478   1.117   2.331
 8732TIP3    H126139   7.572   1.131   2.322
 8732TIP3    H226140   7.447   1.195   2.378
 8733TIP3   OH226141   6.763   2.614   0.695
 8733TIP3    H126142   6.780   2.630   0.602
 8733TIP3    H226143   6.699   2.681   0.720
 8734TIP3   OH226144   3.435   2.262   0.966
 8734TIP3    H126145   3.392   2.337   1.007
 8734TIP3    H226146   3.373   2.190   0.976
 8735TIP3   OH226147   3.228   7.607   2.483
 8735TIP3    H126148   3.244   7.667   2.411
 8735TIP3    H226149   3.221   7.521   2.441
 8736TIP3   OH226150   4.556   3.931   5.098
 8736TIP3    H126151   4.504   4.011   5.088
 8736TIP3    H226152   4.503   3.863   5.056
 8737TIP3   OH226153   6.282   3.627   6.193
 8737TIP3    H126154   6.313   3.543   6.158
 8737TIP3    H226155   6.277   3.613   6.288
 8738TIP3   OH226156   4.705   1.215   3.091
 8738TIP3    H126157   4.786   1.261   3.070
 8738TIP3    H226158   4.647   1.283   3.126
 8739TIP3   OH226159   6.287   3.146   3.078
 8739TIP3    H126160   6.314   3.079   3.015
 8739TIP3    H226161   6.361   3.153   3.139
 8740TIP3   OH226162   3.277   5.631   1.829
 8740TIP3    H126163   3.224   5.586   1.896
 8740TIP3    H226164   3.359   5.652   1.874
 8741TIP3   OH226165   6.867   1.956   1.494
 8741TIP3    H126166   6.946   1.906   1.511
 8741TIP3    H226167   6.849   1.940   1.401
 8742TIP3   OH226168   4.979   2.365   4.230
 8742TIP3    H126169   4.902   2.335   4.183
 8742TIP3    H226170   5.052   2.317   4.191
 8743TIP3   OH226171   4.160   4.981   5.993
 8743TIP3    H126172   4.169   4.887   5.973
 8743TIP3    H226173   4.122   4.982   6.081
 8744TIP3   OH226174   5.040   4.750   1.375
 8744TIP3    H126175   5.089   4.827   1.347
 8744TIP3    H226176   4.962   4.749   1.318
 8745TIP3   OH226177   2.167   2.375   6.356
 8745TIP3    H126178   2.097   2.316   6.328
 8745TIP3    H226179   2.241   2.317   6.373
 8746TIP3   OH226180   5.437   2.579   6.352
 8746TIP3    H126181   5.431   2.658   6.298
 8746TIP3    H226182   5.346   2.561   6.377
 8747TIP3   OH226183   2.133   4.989   3.650
 8747TIP3    H126184   2.220   5.001   3.687
 8747TIP3    H226185   2.130   4.896   3.626
 8748TIP3   OH226186   5.772   7.377   6.613
 8748TIP3    H126187   5.847   7.321   6.637
 8748TIP3    H226188   5.710   7.364   6.684
 8749TIP3   OH226189   4.630   2.296   3.215
 8749TIP3    H126190   4.695   2.259   3.155
 8749TIP3    H226191   4.635   2.241   3.293
 8750TIP3   OH226192   3.720   3.722   1.857
 8750TIP3    H126193   3.812   3.746   1.840
 8750TIP3    H226194   3.724   3.632   1.888
 8751TIP3   OH226195   2.905   5.959   0.988
 8751TIP3    H126196   2.931   6.046   1.018
 8751TIP3    H226197   2.970   5.899   1.027
 8752TIP3   OH226198   2.738   0.030   5.861
 8752TIP3    H126199   2.714  -0.038   5.798
 8752TIP3    H226200   2.815  -0.006   5.906
 8753TIP3   OH226201   4.637   5.904   4.588
 8753TIP3    H126202   4.542   5.909   4.598
 8753TIP3    H226203   4.671   5.899   4.678
 8754TIP3   OH226204   0.204   5.696   4.031
 8754TIP3    H126205   0.261   5.758   3.986
 8754TIP3    H226206   0.167   5.746   4.103
 8755TIP3   OH226207   6.971   3.652   3.732
 8755TIP3    H126208   7.043   3.593   3.755
 8755TIP3    H226209   6.895   3.615   3.777
 8756TIP3   OH226210   4.469   4.189   4.683
 8756TIP3    H126211   4.400   4.243   4.645
 8756TIP3    H226212   4.423   4.113   4.717
 8757TIP3   OH226213   0.977   0.859   3.798
 8757TIP3    H126214   0.932   0.887   3.719
 8757TIP3    H226215   0.974   0.935   3.856
 8758TIP3   OH226216   7.446   1.442   3.638
 8758TIP3    H126217   7.480   1.392   3.712
 8758TIP3    H226218   7.436   1.531   3.671
 8759TIP3   OH226219   4.942   4.085   1.300
 8759TIP3    H126220   5.024   4.135   1.302
 8759TIP3    H226221   4.885   4.131   1.362
 8760TIP3   OH226222   7.851   1.894   5.703
 8760TIP3    H126223   7.866   1.803   5.680
 8760TIP3    H226224   7.908   1.944   5.643
 8761TIP3   OH226225   5.246   2.066   0.411
 8761TIP3    H126226   5.251   2.105   0.498
 8761TIP3    H226227   5.331   2.086   0.371
 8762TIP3   OH226228   7.844   1.731   4.065
 8762TIP3    H126229   7.910   1.743   4.134
 8762TIP3    H226230   7.824   1.638   4.067
 8763TIP3   OH226231   5.496   1.944   1.656
 8763TIP3    H126232   5.537   2.023   1.691
 8763TIP3    H226233   5.402   1.962   1.657
 8764TIP3   OH226234   7.435   4.585   1.121
 8764TIP3    H126235   7.396   4.669   1.144
 8764TIP3    H226236   7.368   4.520   1.142
 8765TIP3   OH226237   2.704   1.771   4.974
 8765TIP3    H126238   2.771   1.751   5.039
 8765TIP3    H226239   2.750   1.769   4.890
 8766TIP3   OH226240   7.322   1.792   6.401
 8766TIP3    H126241   7.335   1.697   6.406
 8766TIP3    H226242   7.380   1.828   6.468
 8767TIP3   OH226243   4.446   4.439   5.987
 8767TIP3    H126244   4.515   4.505   5.979
 8767TIP3    H226245   4.440   4.399   5.900
 8768TIP3   OH226246   3.452   5.236   0.088
 8768TIP3    H126247   3.478   5.273   0.173
 8768TIP3    H226248   3.525   5.254   0.030
 8769TIP3   OH226249   6.382   0.358   5.666
 8769TIP3    H126250   6.304   0.362   5.611
 8769TIP3    H226251   6.438   0.429   5.633
 8770TIP3   OH226252   3.281   1.022   5.726
 8770TIP3    H126253   3.345   0.951   5.728
 8770TIP3    H226254   3.300   1.074   5.804
 8771TIP3   OH226255   3.166   0.452   5.254
 8771TIP3    H126256   3.180   0.546   5.245
 8771TIP3    H226257   3.194   0.416   5.170
 8772TIP3   OH226258   7.283   5.964   5.949
 8772TIP3    H126259   7.249   5.992   6.034
 8772TIP3    H226260   7.286   6.044   5.897
 8773TIP3   OH226261   3.411   3.577   1.377
 8773TIP3    H126262   3.444   3.530   1.301
 8773TIP3    H226263   3.440   3.526   1.452
 8774TIP3   OH226264   4.677   5.007   2.317
 8774TIP3    H126265   4.735   4.952   2.264
 8774TIP3    H226266   4.650   5.078   2.259
 8775TIP3   OH226267   4.003   0.672   5.414
 8775TIP3    H126268   4.009   0.635   5.326
 8775TIP3    H226269   4.001   0.766   5.400
 8776TIP3   OH226270   3.175   1.890   2.082
 8776TIP3    H126271   3.224   1.918   2.005
 8776TIP3    H226272   3.196   1.797   2.091
 8777TIP3   OH226273   0.806   2.751   3.808
 8777TIP3    H126274   0.819   2.831   3.757
 8777TIP3    H226275   0.745   2.776   3.877
 8778TIP3   OH226276   5.296   4.210   4.028
 8778TIP3    H126277   5.220   4.162   3.995
 8778TIP3    H226278   5.344   4.146   4.081
 8779TIP3   OH226279   7.034   7.252   0.839
 8779TIP3    H126280   7.110   7.204   0.874
 8779TIP3    H226281   6.958   7.211   0.880
 8780TIP3   OH226282   0.658   3.138   4.338
 8780TIP3    H126283   0.636   3.183   4.256
 8780TIP3    H226284   0.680   3.049   4.311
 8781TIP3   OH226285   2.470   6.229   3.765
 8781TIP3    H126286   2.393   6.187   3.804
 8781TIP3    H226287   2.504   6.163   3.705
 8782TIP3   OH226288   0.101   6.672   5.753
 8782TIP3    H126289   0.169   6.679   5.820
 8782TIP3    H226290   0.040   6.606   5.787
 8783TIP3   OH226291   5.087   0.036   6.503
 8783TIP3    H126292   5.160   0.074   6.552
 8783TIP3    H226293   5.017   0.028   6.567
 8784TIP3   OH226294   7.943   2.331   3.849
 8784TIP3    H126295   7.920   2.424   3.850
 8784TIP3    H226296   8.037   2.329   3.867
 8785TIP3   OH226297   7.443   5.102   0.762
 8785TIP3    H126298   7.439   5.008   0.778
 8785TIP3    H226299   7.472   5.139   0.845
 8786TIP3   OH226300   0.609   0.430   6.412
 8786TIP3    H126301   0.537   0.481   6.450
 8786TIP3    H226302   0.673   0.496   6.386
 8787TIP3   OH226303   1.523   0.005   3.072
 8787TIP3    H126304   1.435   0.009   3.034
 8787TIP3    H226305   1.557   0.093   3.062
 8788TIP3   OH226306   0.536   2.802   6.736
 8788TIP3    H126307   0.604   2.856   6.695
 8788TIP3    H226308   0.551   2.814   6.830
 8789TIP3   OH226309   2.422   0.225   1.400
 8789TIP3    H126310   2.363   0.150   1.398
 8789TIP3    H226311   2.377   0.293   1.351
 8790TIP3   OH226312   4.950   4.619   5.506
 8790TIP3    H126313   4.908   4.700   5.477
 8790TIP3    H226314   5.042   4.631   5.485
 8791TIP3   OH226315   6.711   3.276   4.765
 8791TIP3    H126316   6.776   3.307   4.701
 8791TIP3    H226317   6.711   3.343   4.833
 8792TIP3   OH226318   3.093   5.510   2.384
 8792TIP3    H126319   3.189   5.511   2.383
 8792TIP3    H226320   3.067   5.556   2.304
 8793TIP3   OH226321   6.161   7.827   4.639
 8793TIP3    H126322   6.247   7.793   4.614
 8793TIP3    H226323   6.179   7.890   4.709
 8794TIP3   OH226324   5.137   2.155   6.215
 8794TIP3    H126325   5.089   2.237   6.204
 8794TIP3    H226326   5.227   2.176   6.193
 8795TIP3   OH226327   1.355   7.735   0.581
 8795TIP3    H126328   1.383   7.826   0.591
 8795TIP3    H226329   1.335   7.726   0.488
 8796TIP3   OH226330   3.045   4.616   5.330
 8796TIP3    H126331   2.953   4.598   5.311
 8796TIP3    H226332   3.046   4.706   5.361
 8797TIP3   OH226333   6.054   6.659   0.521
 8797TIP3    H126334   6.037   6.565   0.516
 8797TIP3    H226335   6.049   6.679   0.615
 8798TIP3   OH226336   7.473   3.712   0.806
 8798TIP3    H126337   7.498   3.691   0.896
 8798TIP3    H226338   7.541   3.670   0.752
 8799TIP3   OH226339   3.800   4.042   2.024
 8799TIP3    H126340   3.810   3.948   2.039
 8799TIP3    H226341   3.876   4.081   2.068
 8800TIP3   OH226342   3.479   4.583   5.714
 8800TIP3    H126343   3.515   4.661   5.756
 8800TIP3    H226344   3.405   4.616   5.663
 8801TIP3   OH226345   2.890   0.343   5.216
 8801TIP3    H126346   2.976   0.378   5.239
 8801TIP3    H226347   2.906   0.250   5.199
 8802TIP3   OH226348   0.049   6.606   5.428
 8802TIP3    H126349   0.084   6.517   5.437
 8802TIP3    H226350   0.069   6.648   5.512
 8803TIP3   OH226351   6.102   1.236   2.908
 8803TIP3    H126352   6.115   1.168   2.841
 8803TIP3    H226353   6.152   1.205   2.983
 8804TIP3   OH226354   5.503   6.219   4.899
 8804TIP3    H126355   5.426   6.268   4.868
 8804TIP3    H226356   5.537   6.176   4.820
 8805TIP3   OH226357   4.594   4.117   6.707
 8805TIP3    H126358   4.624   4.188   6.650
 8805TIP3    H226359   4.502   4.135   6.723
 8806TIP3   OH226360   3.635   2.481   4.265
 8806TIP3    H126361   3.600   2.463   4.353
 8806TIP3    H226362   3.584   2.555   4.234
 8807TIP3   OH226363   5.407   2.924   5.548
 8807TIP3    H126364   5.490   2.880   5.566
 8807TIP3    H226365   5.406   3.000   5.607
 8808TIP3   OH226366   4.140   2.104   6.240
 8808TIP3    H126367   4.142   2.041   6.312
 8808TIP3    H226368   4.162   2.188   6.281
 8809TIP3   OH226369   8.197   0.386   3.267
 8809TIP3    H126370   8.238   0.401   3.181
 8809TIP3    H226371   8.105   0.367   3.246
 8810TIP3   OH226372   4.591   0.102   6.184
 8810TIP3    H126373   4.568   0.171   6.246
 8810TIP3    H226374   4.673   0.131   6.144
 8811TIP3   OH226375   3.587   7.089   2.004
 8811TIP3    H126376   3.540   7.127   1.930
 8811TIP3    H226377   3.530   7.020   2.037
 8812TIP3   OH226378   4.879   0.854   5.710
 8812TIP3    H126379   4.794   0.896   5.725
 8812TIP3    H226380   4.858   0.760   5.704
 8813TIP3   OH226381   4.069   1.455   4.740
 8813TIP3    H126382   4.027   1.385   4.690
 8813TIP3    H226383   4.007   1.527   4.736
 8814TIP3   OH226384   7.897   4.010   5.644
 8814TIP3    H126385   7.828   4.070   5.675
 8814TIP3    H226386   7.968   4.023   5.707
 8815TIP3   OH226387   4.917   4.414   2.130
 8815TIP3    H126388   5.003   4.440   2.098
 8815TIP3    H226389   4.875   4.496   2.157
 8816TIP3   OH226390   7.126   1.242   0.953
 8816TIP3    H126391   7.060   1.311   0.947
 8816TIP3    H226392   7.207   1.289   0.972
 8817TIP3   OH226393   8.137   0.366   4.344
 8817TIP3    H126394   8.109   0.437   4.401
 8817TIP3    H226395   8.056   0.336   4.301
 8818TIP3   OH226396   6.245   1.750   1.832
 8818TIP3    H126397   6.307   1.766   1.761
 8818TIP3    H226398   6.233   1.655   1.832
 8819TIP3   OH226399   6.054   4.192   1.494
 8819TIP3    H126400   6.015   4.108   1.521
 8819TIP3    H226401   5.979   4.250   1.482
 8820TIP3   OH226402   4.691   4.237   2.172
 8820TIP3    H126403   4.771   4.287   2.157
 8820TIP3    H226404   4.717   4.146   2.162
 8821TIP3   OH226405   7.140   3.391   5.685
 8821TIP3    H126406   7.232   3.377   5.664
 8821TIP3    H226407   7.139   3.417   5.777
 8822TIP3   OH226408   7.067   3.852   1.691
 8822TIP3    H126409   7.057   3.779   1.630
 8822TIP3    H226410   6.982   3.897   1.689
 8823TIP3   OH226411   1.765   2.100   2.797
 8823TIP3    H126412   1.726   2.038   2.859
 8823TIP3    H226413   1.840   2.054   2.761
 8824TIP3   OH226414   5.144   3.350   6.708
 8824TIP3    H126415   5.225   3.379   6.666
 8824TIP3    H226416   5.110   3.283   6.650
 8825TIP3   OH226417   8.131   2.351   0.931
 8825TIP3    H126418   8.188   2.321   1.002
 8825TIP3    H226419   8.049   2.375   0.973
 8826TIP3   OH226420   1.215   5.541   1.471
 8826TIP3    H126421   1.275   5.565   1.401
 8826TIP3    H226422   1.133   5.521   1.426
 8827TIP3   OH226423   1.962   7.151   3.128
 8827TIP3    H126424   1.910   7.173   3.051
 8827TIP3    H226425   2.015   7.076   3.101
 8828TIP3   OH226426   4.409   0.815   2.510
 8828TIP3    H126427   4.487   0.828   2.563
 8828TIP3    H226428   4.437   0.828   2.420
 8829TIP3   OH226429   6.557   2.264   3.440
 8829TIP3    H126430   6.489   2.198   3.428
 8829TIP3    H226431   6.509   2.346   3.451
 8830TIP3   OH226432   1.690   3.040   4.124
 8830TIP3    H126433   1.727   3.029   4.212
 8830TIP3    H226434   1.621   3.105   4.136
 8831TIP3   OH226435   5.460   5.196   0.002
 8831TIP3    H126436   5.494   5.285  -0.009
 8831TIP3    H226437   5.504   5.163   0.080
 8832TIP3   OH226438   7.375   6.533   1.128
 8832TIP3    H126439   7.326   6.454   1.149
 8832TIP3    H226440   7.454   6.502   1.084
 8833TIP3   OH226441   5.231   0.227   6.265
 8833TIP3    H126442   5.214   0.160   6.332
 8833TIP3    H226443   5.145   0.243   6.225
 8834TIP3   OH226444   0.907   0.156   4.185
 8834TIP3    H126445   0.846   0.145   4.257
 8834TIP3    H226446   0.859   0.207   4.120
 8835TIP3   OH226447   0.945   3.230   1.632
 8835TIP3    H126448   0.905   3.314   1.609
 8835TIP3    H226449   0.878   3.165   1.611
 8836TIP3   OH226450   1.317   5.941   3.816
 8836TIP3    H126451   1.372   6.016   3.837
 8836TIP3    H226452   1.245   5.977   3.764
 8837TIP3   OH226453   2.346   4.478   4.670
 8837TIP3    H126454   2.375   4.388   4.684
 8837TIP3    H226455   2.265   4.470   4.619
 8838TIP3   OH226456   4.416   7.356   1.593
 8838TIP3    H126457   4.502   7.394   1.607
 8838TIP3    H226458   4.402   7.361   1.498
 8839TIP3   OH226459   4.903   4.723   3.451
 8839TIP3    H126460   4.897   4.817   3.461
 8839TIP3    H226461   4.852   4.687   3.523
 8840TIP3   OH226462   7.277   4.380   1.981
 8840TIP3    H126463   7.293   4.287   2.000
 8840TIP3    H226464   7.302   4.390   1.889
 8841TIP3   OH226465   5.620   0.889   4.409
 8841TIP3    H126466   5.615   0.885   4.505
 8841TIP3    H226467   5.559   0.958   4.385
 8842TIP3   OH226468   4.101   4.514   0.417
 8842TIP3    H126469   4.190   4.521   0.382
 8842TIP3    H226470   4.058   4.449   0.360
 8843TIP3   OH226471   2.419   6.994   1.233
 8843TIP3    H126472   2.429   7.064   1.168
 8843TIP3    H226473   2.365   7.034   1.302
 8844TIP3   OH226474   1.905   5.033   6.648
 8844TIP3    H126475   1.940   5.010   6.562
 8844TIP3    H226476   1.982   5.057   6.699
 8845TIP3   OH226477   2.963   7.401   0.131
 8845TIP3    H126478   2.979   7.468   0.197
 8845TIP3    H226479   2.871   7.413   0.107
 8846TIP3   OH226480   2.994   0.513   4.314
 8846TIP3    H126481   2.996   0.418   4.301
 8846TIP3    H226482   3.079   0.543   4.282
 8847TIP3   OH226483   7.945   4.187   2.181
 8847TIP3    H126484   7.893   4.147   2.112
 8847TIP3    H226485   7.899   4.165   2.262
 8848TIP3   OH226486   3.412   3.853   4.183
 8848TIP3    H126487   3.319   3.871   4.199
 8848TIP3    H226488   3.418   3.842   4.088
 8849TIP3   OH226489   7.083   4.415   5.819
 8849TIP3    H126490   7.145   4.374   5.758
 8849TIP3    H226491   7.127   4.496   5.846
 8850TIP3   OH226492   0.508   2.865   0.298
 8850TIP3    H126493   0.570   2.796   0.320
 8850TIP3    H226494   0.483   2.847   0.207
 8851TIP3   OH226495   1.296   0.102   6.528
 8851TIP3    H126496   1.264   0.184   6.566
 8851TIP3    H226497   1.240   0.089   6.451
 8852TIP3   OH226498   1.807   3.750   3.270
 8852TIP3    H126499   1.810   3.672   3.325
 8852TIP3    H226500   1.818   3.823   3.332
 8853TIP3   OH226501   4.972   3.492   3.608
 8853TIP3    H126502   4.985   3.397   3.601
 8853TIP3    H226503   4.930   3.504   3.694
 8854TIP3   OH226504   5.308   1.014   3.027
 8854TIP3    H126505   5.346   1.101   3.014
 8854TIP3    H226506   5.375   0.954   2.996
 8855TIP3   OH226507   0.198   1.945   0.402
 8855TIP3    H126508   0.176   2.033   0.371
 8855TIP3    H226509   0.267   1.915   0.342
 8856TIP3   OH226510   4.960   6.803   6.153
 8856TIP3    H126511   4.912   6.752   6.218
 8856TIP3    H226512   4.990   6.737   6.089
 8857TIP3   OH226513   0.075   2.093   1.351
 8857TIP3    H126514   0.153   2.049   1.384
 8857TIP3    H226515   0.054   2.157   1.419
 8858TIP3   OH226516   6.872   3.282   4.525
 8858TIP3    H126517   6.937   3.220   4.489
 8858TIP3    H226518   6.880   3.359   4.468
 8859TIP3   OH226519   3.079   6.340   4.590
 8859TIP3    H126520   3.020   6.380   4.526
 8859TIP3    H226521   3.118   6.266   4.544
 8860TIP3   OH226522   5.821   3.069   3.839
 8860TIP3    H126523   5.821   3.063   3.934
 8860TIP3    H226524   5.780   3.154   3.821
 8861TIP3   OH226525   7.965   6.132   6.258
 8861TIP3    H126526   7.940   6.216   6.219
 8861TIP3    H226527   8.041   6.153   6.313
 8862TIP3   OH226528   0.902   6.285   4.715
 8862TIP3    H126529   0.928   6.211   4.769
 8862TIP3    H226530   0.890   6.247   4.627
 8863TIP3   OH226531   0.831   3.426   3.963
 8863TIP3    H126532   0.888   3.413   4.040
 8863TIP3    H226533   0.834   3.520   3.947
 8864TIP3   OH226534   7.895   4.716   3.445
 8864TIP3    H126535   7.966   4.695   3.384
 8864TIP3    H226536   7.879   4.634   3.492
 8865TIP3   OH226537   4.204   1.932   0.150
 8865TIP3    H126538   4.264   1.858   0.149
 8865TIP3    H226539   4.248   2.000   0.099
 8866TIP3   OH226540   0.388   2.446   0.470
 8866TIP3    H126541   0.464   2.474   0.521
 8866TIP3    H226542   0.424   2.426   0.383
 8867TIP3   OH226543   3.194   4.376   2.731
 8867TIP3    H126544   3.137   4.353   2.804
 8867TIP3    H226545   3.153   4.336   2.654
 8868TIP3   OH226546   5.892   0.579   5.016
 8868TIP3    H126547   5.907   0.491   5.049
 8868TIP3    H226548   5.819   0.570   4.955
 8869TIP3   OH226549   2.263   4.731   0.193
 8869TIP3    H126550   2.345   4.766   0.230
 8869TIP3    H226551   2.288   4.700   0.106
 8870TIP3   OH226552   0.791   5.435   6.710
 8870TIP3    H126553   0.873   5.408   6.669
 8870TIP3    H226554   0.725   5.377   6.671
 8871TIP3   OH226555   6.996   3.107   5.419
 8871TIP3    H126556   6.982   3.024   5.466
 8871TIP3    H226557   6.960   3.091   5.332
 8872TIP3   OH226558   3.417   5.174   4.409
 8872TIP3    H126559   3.428   5.103   4.346
 8872TIP3    H226560   3.502   5.217   4.414
 8873TIP3   OH226561   2.238   5.119   2.932
 8873TIP3    H126562   2.268   5.034   2.900
 8873TIP3    H226563   2.240   5.112   3.027
 8874TIP3   OH226564   4.870   2.369   2.789
 8874TIP3    H126565   4.864   2.294   2.847
 8874TIP3    H226566   4.843   2.444   2.843
 8875TIP3   OH226567   7.578   4.599   2.408
 8875TIP3    H126568   7.541   4.606   2.320
 8875TIP3    H226569   7.503   4.599   2.467
 8876TIP3   OH226570   0.116   1.687   1.488
 8876TIP3    H126571   0.028   1.667   1.457
 8876TIP3    H226572   0.165   1.606   1.474
 8877TIP3   OH226573   4.988   2.002   1.413
 8877TIP3    H126574   4.932   1.981   1.487
 8877TIP3    H226575   5.054   2.062   1.448
 8878TIP3   OH226576   1.549   2.420   6.477
 8878TIP3    H126577   1.526   2.353   6.413
 8878TIP3    H226578   1.629   2.386   6.518
 8879TIP3   OH226579   5.119   7.493   2.636
 8879TIP3    H126580   5.087   7.522   2.550
 8879TIP3    H226581   5.107   7.398   2.635
 8880TIP3   OH226582   1.482   6.464   0.022
 8880TIP3    H126583   1.513   6.423  -0.058
 8880TIP3    H226584   1.497   6.398   0.090
 8881TIP3   OH226585   3.282   4.082   3.766
 8881TIP3    H126586   3.307   3.999   3.726
 8881TIP3    H226587   3.186   4.080   3.766
 8882TIP3   OH226588   5.300   4.416   1.453
 8882TIP3    H126589   5.287   4.451   1.541
 8882TIP3    H226590   5.238   4.463   1.399
 8883TIP3   OH226591   3.861   7.779   3.152
 8883TIP3    H126592   3.802   7.780   3.077
 8883TIP3    H226593   3.949   7.783   3.114
 8884TIP3   OH226594   5.807   1.162   3.170
 8884TIP3    H126595   5.839   1.240   3.215
 8884TIP3    H226596   5.794   1.190   3.080
 8885TIP3   OH226597   7.359   6.187   1.566
 8885TIP3    H126598   7.436   6.214   1.516
 8885TIP3    H226599   7.301   6.263   1.562
 8886TIP3   OH226600   7.542   3.418   3.712
 8886TIP3    H126601   7.582   3.505   3.719
 8886TIP3    H226602   7.454   3.430   3.748
 8887TIP3   OH226603   4.545   6.314   1.355
 8887TIP3    H126604   4.517   6.285   1.268
 8887TIP3    H226605   4.640   6.320   1.349
 8888TIP3   OH226606   6.525   1.378   4.801
 8888TIP3    H126607   6.585   1.340   4.866
 8888TIP3    H226608   6.581   1.403   4.728
 8889TIP3   OH226609   7.203   3.499   4.391
 8889TIP3    H126610   7.252   3.539   4.463
 8889TIP3    H226611   7.267   3.494   4.319
 8890TIP3   OH226612   2.811   7.184   5.002
 8890TIP3    H126613   2.855   7.252   5.052
 8890TIP3    H226614   2.723   7.220   4.985
 8891TIP3   OH226615   5.186   5.128   0.491
 8891TIP3    H126616   5.210   5.206   0.540
 8891TIP3    H226617   5.182   5.157   0.400
 8892TIP3   OH226618   0.083   3.109   4.670
 8892TIP3    H126619   0.048   3.112   4.582
 8892TIP3    H226620   0.157   3.170   4.668
 8893TIP3   OH226621   4.818   4.433   4.764
 8893TIP3    H126622   4.841   4.496   4.696
 8893TIP3    H226623   4.902   4.397   4.793
 8894TIP3   OH226624   3.709   7.512   0.815
 8894TIP3    H126625   3.647   7.585   0.816
 8894TIP3    H226626   3.659   7.440   0.775
 8895TIP3   OH226627   4.084   3.745   2.823
 8895TIP3    H126628   4.021   3.731   2.752
 8895TIP3    H226629   4.052   3.824   2.867
 8896TIP3   OH226630   7.363   6.017   3.343
 8896TIP3    H126631   7.427   6.018   3.271
 8896TIP3    H226632   7.299   5.951   3.316
 8897TIP3   OH226633   1.895   1.825   3.597
 8897TIP3    H126634   1.920   1.900   3.543
 8897TIP3    H226635   1.853   1.864   3.674
 8898TIP3   OH226636   7.569   6.457   0.944
 8898TIP3    H126637   7.526   6.384   0.900
 8898TIP3    H226638   7.663   6.440   0.933
 8899TIP3   OH226639   3.074   6.379   3.134
 8899TIP3    H126640   3.069   6.321   3.057
 8899TIP3    H226641   2.994   6.361   3.183
 8900TIP3   OH226642   7.486   5.507   1.851
 8900TIP3    H126643   7.516   5.416   1.857
 8900TIP3    H226644   7.534   5.552   1.921
 8901TIP3   OH226645   6.383   6.066   3.350
 8901TIP3    H126646   6.413   6.156   3.343
 8901TIP3    H226647   6.289   6.071   3.336
 8902TIP3   OH226648   5.076   3.585   4.537
 8902TIP3    H126649   5.081   3.565   4.631
 8902TIP3    H226650   5.002   3.646   4.530
 8903TIP3   OH226651   0.977   1.772   0.144
 8903TIP3    H126652   1.037   1.834   0.101
 8903TIP3    H226653   0.941   1.721   0.071
 8904TIP3   OH226654   2.515   3.714   0.699
 8904TIP3    H126655   2.505   3.643   0.636
 8904TIP3    H226656   2.492   3.793   0.650
 8905TIP3   OH226657   0.247   3.860   3.729
 8905TIP3    H126658   0.310   3.804   3.774
 8905TIP3    H226659   0.250   3.830   3.638
 8906TIP3   OH226660   2.110   7.423   6.204
 8906TIP3    H126661   2.088   7.502   6.155
 8906TIP3    H226662   2.193   7.392   6.166
 8907TIP3   OH226663   1.653   1.877   4.043
 8907TIP3    H126664   1.723   1.861   4.105
 8907TIP3    H226665   1.584   1.920   4.094
 8908TIP3   OH226666   8.091   2.617   6.704
 8908TIP3    H126667   8.019   2.645   6.761
 8908TIP3    H226668   8.122   2.699   6.664
 8909TIP3   OH226669   0.288   2.164   0.810
 8909TIP3    H126670   0.229   2.090   0.822
 8909TIP3    H226671   0.232   2.242   0.817
 8910TIP3   OH226672   0.810   7.512   6.562
 8910TIP3    H126673   0.885   7.503   6.621
 8910TIP3    H226674   0.733   7.511   6.619
 8911TIP3   OH226675   3.318   3.050   0.235
 8911TIP3    H126676   3.272   3.018   0.313
 8911TIP3    H226677   3.328   3.144   0.250
 8912TIP3   OH226678   6.014   7.674   6.724
 8912TIP3    H126679   5.999   7.768   6.732
 8912TIP3    H226680   5.930   7.634   6.747
 8913TIP3   OH226681   5.906   5.167   6.195
 8913TIP3    H126682   5.859   5.084   6.188
 8913TIP3    H226683   5.844   5.226   6.237
 8914TIP3   OH226684   2.788   5.283   2.172
 8914TIP3    H126685   2.834   5.273   2.089
 8914TIP3    H226686   2.718   5.217   2.170
 8915TIP3   OH226687   0.820   3.957   5.519
 8915TIP3    H126688   0.798   4.050   5.524
 8915TIP3    H226689   0.774   3.926   5.441
 8916TIP3   OH226690   5.875   2.601   2.974
 8916TIP3    H126691   5.913   2.531   3.027
 8916TIP3    H226692   5.834   2.660   3.037
 8917TIP3   OH226693   7.602   7.036   6.133
 8917TIP3    H126694   7.695   7.059   6.140
 8917TIP3    H226695   7.560   7.086   6.202
 8918TIP3   OH226696   5.626   2.926   2.782
 8918TIP3    H126697   5.656   2.881   2.703
 8918TIP3    H226698   5.547   2.877   2.808
 8919TIP3   OH226699   4.465   5.245   5.393
 8919TIP3    H126700   4.436   5.214   5.307
 8919TIP3    H226701   4.425   5.332   5.402
 8920TIP3   OH226702   0.884   2.020   0.294
 8920TIP3    H126703   0.802   1.972   0.287
 8920TIP3    H226704   0.950   1.959   0.259
 8921TIP3   OH226705   1.443   5.207   5.025
 8921TIP3    H126706   1.528   5.164   5.018
 8921TIP3    H226707   1.461   5.287   5.074
 8922TIP3   OH226708   7.405   6.556   1.888
 8922TIP3    H126709   7.480   6.566   1.947
 8922TIP3    H226710   7.330   6.585   1.940
 8923TIP3   OH226711   2.148   1.263   2.918
 8923TIP3    H126712   2.192   1.346   2.899
 8923TIP3    H226713   2.107   1.277   3.003
 8924TIP3   OH226714   0.278   6.151   0.110
 8924TIP3    H126715   0.346   6.215   0.092
 8924TIP3    H226716   0.197   6.192   0.080
 8925TIP3   OH226717   2.636   2.872   6.528
 8925TIP3    H126718   2.726   2.869   6.493
 8925TIP3    H226719   2.644   2.919   6.610
 8926TIP3   OH226720   6.459   1.179   4.609
 8926TIP3    H126721   6.388   1.224   4.565
 8926TIP3    H226722   6.513   1.248   4.646
 8927TIP3   OH226723   1.934   2.055   3.445
 8927TIP3    H126724   2.007   2.116   3.450
 8927TIP3    H226725   1.856   2.110   3.446
 8928TIP3   OH226726   5.807   3.814   0.964
 8928TIP3    H126727   5.783   3.830   1.056
 8928TIP3    H226728   5.734   3.761   0.930
 8929TIP3   OH226729   6.367   3.553   4.427
 8929TIP3    H126730   6.342   3.579   4.338
 8929TIP3    H226731   6.366   3.635   4.477
 8930TIP3   OH226732   7.692   1.118   5.189
 8930TIP3    H126733   7.662   1.128   5.098
 8930TIP3    H226734   7.630   1.172   5.240
 8931TIP3   OH226735   3.022   6.264   2.265
 8931TIP3    H126736   3.074   6.213   2.327
 8931TIP3    H226737   3.035   6.220   2.181
 8932TIP3   OH226738   6.816   3.323   1.999
 8932TIP3    H126739   6.730   3.322   1.955
 8932TIP3    H226740   6.864   3.250   1.958
 8933TIP3   OH226741   2.291   4.538   5.507
 8933TIP3    H126742   2.212   4.565   5.552
 8933TIP3    H226743   2.324   4.618   5.466
 8934TIP3   OH226744   3.055   4.817   6.444
 8934TIP3    H126745   3.089   4.862   6.521
 8934TIP3    H226746   2.990   4.756   6.478
 8935TIP3   OH226747   7.650   4.171   6.584
 8935TIP3    H126748   7.731   4.120   6.576
 8935TIP3    H226749   7.653   4.233   6.512
 8936TIP3   OH226750   3.345   2.365   6.803
 8936TIP3    H126751   3.401   2.288   6.795
 8936TIP3    H226752   3.299   2.370   6.719
 8937TIP3   OH226753   1.539   5.334   2.759
 8937TIP3    H126754   1.564   5.270   2.826
 8937TIP3    H226755   1.555   5.290   2.676
 8938TIP3   OH226756   1.585   3.361   0.128
 8938TIP3    H126757   1.511   3.330   0.181
 8938TIP3    H226758   1.638   3.283   0.113
 8939TIP3   OH226759   4.904   2.230   4.807
 8939TIP3    H126760   4.959   2.208   4.731
 8939TIP3    H226761   4.967   2.251   4.876
 8940TIP3   OH226762   0.264   0.451   2.139
 8940TIP3    H126763   0.266   0.384   2.071
 8940TIP3    H226764   0.356   0.471   2.156
 8941TIP3   OH226765   1.307   3.847   2.566
 8941TIP3    H126766   1.328   3.765   2.610
 8941TIP3    H226767   1.377   3.859   2.502
 8942TIP3   OH226768   6.107   7.469   6.501
 8942TIP3    H126769   6.080   7.543   6.555
 8942TIP3    H226770   6.151   7.410   6.561
 8943TIP3   OH226771   3.883   4.853   0.812
 8943TIP3    H126772   3.856   4.816   0.896
 8943TIP3    H226773   3.963   4.902   0.832
 8944TIP3   OH226774   0.141   3.309   0.832
 8944TIP3    H126775   0.213   3.356   0.790
 8944TIP3    H226776   0.065   3.328   0.777
 8945TIP3   OH226777   2.414   3.291   1.742
 8945TIP3    H126778   2.376   3.356   1.683
 8945TIP3    H226779   2.486   3.337   1.785
 8946TIP3   OH226780   1.348   0.043   5.707
 8946TIP3    H126781   1.434   0.029   5.748
 8946TIP3    H226782   1.303  -0.041   5.718
 8947TIP3   OH226783   1.395   2.930   2.682
 8947TIP3    H126784   1.424   2.898   2.596
 8947TIP3    H226785   1.328   2.867   2.710
 8948TIP3   OH226786   6.875   6.102   6.617
 8948TIP3    H126787   6.802   6.040   6.611
 8948TIP3    H226788   6.876   6.146   6.532
 8949TIP3   OH226789   3.621   7.363   4.301
 8949TIP3    H126790   3.676   7.439   4.283
 8949TIP3    H226791   3.679   7.303   4.348
 8950TIP3   OH226792   3.716   2.025   1.381
 8950TIP3    H126793   3.715   2.026   1.477
 8950TIP3    H226794   3.712   2.117   1.356
 8951TIP3   OH226795   7.432   1.646   2.913
 8951TIP3    H126796   7.518   1.612   2.886
 8951TIP3    H226797   7.451   1.733   2.950
 8952TIP3   OH226798   6.364   5.085   4.452
 8952TIP3    H126799   6.396   5.135   4.377
 8952TIP3    H226800   6.275   5.117   4.467
 8953TIP3   OH226801   2.042   7.054   0.553
 8953TIP3    H126802   2.038   7.064   0.458
 8953TIP3    H226803   1.988   7.125   0.587
 8954TIP3   OH226804   0.542   6.385   3.072
 8954TIP3    H126805   0.482   6.310   3.064
 8954TIP3    H226806   0.492   6.449   3.123
 8955TIP3   OH226807   0.449   6.031   4.536
 8955TIP3    H126808   0.526   6.019   4.591
 8955TIP3    H226809   0.395   6.095   4.582
 8956TIP3   OH226810   3.829   7.820   3.739
 8956TIP3    H126811   3.825   7.848   3.831
 8956TIP3    H226812   3.748   7.771   3.725
 8957TIP3   OH226813   3.953   6.083   1.338
 8957TIP3    H126814   3.919   6.097   1.250
 8957TIP3    H226815   3.956   6.170   1.377
 8958TIP3   OH226816   0.666   1.787   0.293
 8958TIP3    H126817   0.754   1.751   0.298
 8958TIP3    H226818   0.611   1.723   0.337
 8959TIP3   OH226819   2.443   1.782   0.650
 8959TIP3    H126820   2.499   1.826   0.586
 8959TIP3    H226821   2.355   1.813   0.631
 8960TIP3   OH226822   2.223   1.907   0.514
 8960TIP3    H126823   2.211   1.829   0.460
 8960TIP3    H226824   2.150   1.964   0.489
 8961TIP3   OH226825   3.660   5.029   4.346
 8961TIP3    H126826   3.714   5.097   4.386
 8961TIP3    H226827   3.722   4.972   4.301
 8962TIP3   OH226828   7.153   5.445   2.501
 8962TIP3    H126829   7.214   5.483   2.438
 8962TIP3    H226830   7.081   5.411   2.447
 8963TIP3   OH226831   5.162   2.326   5.826
 8963TIP3    H126832   5.226   2.255   5.815
 8963TIP3    H226833   5.098   2.290   5.887
 8964TIP3   OH226834   5.629   4.237   4.369
 8964TIP3    H126835   5.568   4.163   4.361
 8964TIP3    H226836   5.698   4.219   4.305
 8965TIP3   OH226837   7.589   0.920   0.188
 8965TIP3    H126838   7.681   0.943   0.206
 8965TIP3    H226839   7.568   0.965   0.107
 8966TIP3   OH226840   0.676   4.835   4.111
 8966TIP3    H126841   0.622   4.864   4.185
 8966TIP3    H226842   0.750   4.791   4.153
 8967TIP3   OH226843   0.512   0.800   0.487
 8967TIP3    H126844   0.496   0.891   0.464
 8967TIP3    H226845   0.600   0.782   0.454
 8968TIP3   OH226846   0.154   6.426   4.567
 8968TIP3    H126847   0.222   6.485   4.533
 8968TIP3    H226848   0.115   6.387   4.488
 8969TIP3   OH226849   5.235   7.604   4.325
 8969TIP3    H126850   5.302   7.558   4.375
 8969TIP3    H226851   5.271   7.692   4.313
 8970TIP3   OH226852   0.136   4.633   5.162
 8970TIP3    H126853   0.043   4.644   5.182
 8970TIP3    H226854   0.159   4.547   5.198
 8971TIP3   OH226855   1.641   3.343   3.083
 8971TIP3    H126856   1.716   3.372   3.031
 8971TIP3    H226857   1.601   3.423   3.116
 8972TIP3   OH226858   3.530   3.580   6.210
 8972TIP3    H126859   3.480   3.554   6.287
 8972TIP3    H226860   3.617   3.541   6.224
 8973TIP3   OH226861   6.384   0.215   5.273
 8973TIP3    H126862   6.417   0.215   5.183
 8973TIP3    H226863   6.347   0.302   5.285
 8974TIP3   OH226864   1.070   0.394   6.322
 8974TIP3    H126865   1.120   0.398   6.240
 8974TIP3    H226866   1.030   0.307   6.321
 8975TIP3   OH226867   4.484   1.225   6.076
 8975TIP3    H126868   4.547   1.272   6.130
 8975TIP3    H226869   4.496   1.261   5.988
 8976TIP3   OH226870   6.453   0.910   3.284
 8976TIP3    H126871   6.488   0.857   3.212
 8976TIP3    H226872   6.526   0.965   3.312
 8977TIP3   OH226873   6.674   2.956   2.948
 8977TIP3    H126874   6.663   2.885   2.883
 8977TIP3    H226875   6.585   2.989   2.961
 8978TIP3   OH226876   6.481   4.373   6.408
 8978TIP3    H126877   6.468   4.368   6.313
 8978TIP3    H226878   6.470   4.283   6.439
 8979TIP3   OH226879   5.561   5.542   5.620
 8979TIP3    H126880   5.624   5.600   5.662
 8979TIP3    H226881   5.476   5.567   5.657
 8980TIP3   OH226882   0.830   2.154   4.462
 8980TIP3    H126883   0.901   2.189   4.409
 8980TIP3    H226884   0.797   2.229   4.511
 8981TIP3   OH226885   6.248   3.872   0.326
 8981TIP3    H126886   6.323   3.826   0.289
 8981TIP3    H226887   6.249   3.850   0.419
 8982TIP3   OH226888   2.306   4.519   6.700
 8982TIP3    H126889   2.235   4.491   6.643
 8982TIP3    H226890   2.268   4.517   6.788
 8983TIP3   OH226891   2.429   2.058   3.435
 8983TIP3    H126892   2.341   2.097   3.435
 8983TIP3    H226893   2.480   2.115   3.376
 8984TIP3   OH226894   6.793   2.558   6.499
 8984TIP3    H126895   6.773   2.477   6.451
 8984TIP3    H226896   6.771   2.538   6.590
 8985TIP3   OH226897   0.663   1.764   1.048
 8985TIP3    H126898   0.653   1.835   1.111
 8985TIP3    H226899   0.580   1.762   1.001
 8986TIP3   OH226900   4.650   6.791   6.484
 8986TIP3    H126901   4.712   6.743   6.430
 8986TIP3    H226902   4.577   6.811   6.425
 8987TIP3   OH226903   1.859   3.112   5.684
 8987TIP3    H126904   1.895   3.025   5.667
 8987TIP3    H226905   1.879   3.130   5.775
 8988TIP3   OH226906   5.399   2.875   3.933
 8988TIP3    H126907   5.469   2.839   3.878
 8988TIP3    H226908   5.445   2.924   4.001
 8989TIP3   OH226909   1.123   3.456   5.094
 8989TIP3    H126910   1.200   3.448   5.149
 8989TIP3    H226911   1.151   3.423   5.008
 8990TIP3   OH226912   2.096   4.014   0.029
 8990TIP3    H126913   2.179   3.997   0.073
 8990TIP3    H226914   2.038   4.046   0.099
 8991TIP3   OH226915   1.405   3.629   1.876
 8991TIP3    H126916   1.453   3.568   1.820
 8991TIP3    H226917   1.315   3.595   1.878
 8992TIP3   OH226918   6.941   4.373   3.241
 8992TIP3    H126919   6.855   4.409   3.263
 8992TIP3    H226920   6.994   4.388   3.319
 8993TIP3   OH226921   2.264   7.138   5.831
 8993TIP3    H126922   2.307   7.053   5.840
 8993TIP3    H226923   2.184   7.130   5.884
 8994TIP3   OH226924   2.293   2.428   3.651
 8994TIP3    H126925   2.197   2.431   3.643
 8994TIP3    H226926   2.320   2.519   3.648
 8995TIP3   OH226927   2.014   5.862   0.592
 8995TIP3    H126928   2.089   5.856   0.652
 8995TIP3    H226929   2.005   5.773   0.557
 8996TIP3   OH226930   3.337   1.255   1.086
 8996TIP3    H126931   3.261   1.244   1.144
 8996TIP3    H226932   3.336   1.348   1.063
 8997TIP3   OH226933   6.362   0.907   2.664
 8997TIP3    H126934   6.382   0.868   2.578
 8997TIP3    H226935   6.441   0.891   2.716
 8998TIP3   OH226936   3.006   0.832   4.383
 8998TIP3    H126937   2.932   0.798   4.333
 8998TIP3    H226938   3.021   0.767   4.452
 8999TIP3   OH226939   5.195   3.703   3.985
 8999TIP3    H126940   5.182   3.613   3.952
 8999TIP3    H226941   5.265   3.737   3.930
 9000TIP3   OH226942   3.922   3.879   4.851
 9000TIP3    H126943   3.832   3.903   4.830
 9000TIP3    H226944   3.917   3.834   4.935
 9001TIP3   OH226945   5.982   1.171   6.261
 9001TIP3    H126946   6.032   1.106   6.311
 9001TIP3    H226947   6.006   1.154   6.170
 9002TIP3   OH226948   0.393   7.608   6.180
 9002TIP3    H126949   0.305   7.630   6.210
 9002TIP3    H226950   0.452   7.648   6.244
 9003TIP3   OH226951   1.042   7.620   1.614
 9003TIP3    H126952   0.984   7.561   1.664
 9003TIP3    H226953   1.112   7.563   1.584
 9004TIP3   OH226954   0.360   6.218   3.344
 9004TIP3    H126955   0.441   6.232   3.294
 9004TIP3    H226956   0.290   6.231   3.280
 9005TIP3   OH226957   6.259   6.949   0.161
 9005TIP3    H126958   6.244   6.941   0.256
 9005TIP3    H226959   6.320   6.878   0.141
 9006TIP3   OH226960   5.538   5.389   2.245
 9006TIP3    H126961   5.577   5.438   2.173
 9006TIP3    H226962   5.492   5.316   2.203
 9007TIP3   OH226963   0.053   3.223   5.626
 9007TIP3    H126964  -0.014   3.156   5.610
 9007TIP3    H226965   0.097   3.234   5.542
 9008TIP3   OH226966   4.626   5.778   5.856
 9008TIP3    H126967   4.572   5.750   5.930
 9008TIP3    H226968   4.709   5.733   5.867
 9009TIP3   OH226969   6.519   2.808   5.325
 9009TIP3    H126970   6.517   2.867   5.251
 9009TIP3    H226971   6.544   2.723   5.287
 9010TIP3   OH226972   2.442   6.804   5.266
 9010TIP3    H126973   2.472   6.740   5.331
 9010TIP3    H226974   2.468   6.766   5.182
 9011TIP3   OH226975   2.990   2.577   3.908
 9011TIP3    H126976   2.927   2.539   3.969
 9011TIP3    H226977   2.942   2.647   3.864
 9012TIP3   OH226978   6.847   2.463   3.436
 9012TIP3    H126979   6.915   2.530   3.426
 9012TIP3    H226980   6.818   2.472   3.526
 9013TIP3   OH226981   6.332   4.708   6.585
 9013TIP3    H126982   6.240   4.724   6.608
 9013TIP3    H226983   6.358   4.635   6.641
 9014TIP3   OH226984   3.897   3.763   2.148
 9014TIP3    H126985   3.985   3.781   2.181
 9014TIP3    H226986   3.906   3.680   2.100
 9015TIP3   OH226987   3.503   5.371   0.315
 9015TIP3    H126988   3.535   5.455   0.347
 9015TIP3    H226989   3.413   5.365   0.349
 9016TIP3   OH226990   3.736   3.780   2.389
 9016TIP3    H126991   3.787   3.760   2.310
 9016TIP3    H226992   3.685   3.700   2.405
 9017TIP3   OH226993   3.393   4.567   5.447
 9017TIP3    H126994   3.309   4.588   5.490
 9017TIP3    H226995   3.398   4.629   5.375
 9018TIP3   OH226996   7.488   0.062   0.663
 9018TIP3    H126997   7.425   0.044   0.733
 9018TIP3    H226998   7.437   0.056   0.582
 9019TIP3   OH226999   2.613   3.409   5.754
 9019TIP3    H127000   2.675   3.348   5.715
 9019TIP3    H227001   2.603   3.380   5.845
 9020TIP3   OH227002   4.856   1.720   3.788
 9020TIP3    H127003   4.883   1.811   3.795
 9020TIP3    H227004   4.935   1.673   3.762
 9021TIP3   OH227005   6.920   0.805   2.063
 9021TIP3    H127006   7.013   0.804   2.040
 9021TIP3    H227007   6.913   0.874   2.128
 9022TIP3   OH227008   7.394   2.819  -0.049
 9022TIP3    H127009   7.464   2.855   0.005
 9022TIP3    H227010   7.317   2.872  -0.027
 9023TIP3   OH227011   2.058   6.126   4.166
 9023TIP3    H127012   2.149   6.108   4.192
 9023TIP3    H227013   2.021   6.040   4.147
 9024TIP3   OH227014   2.759   1.019   1.291
 9024TIP3    H127015   2.712   1.094   1.255
 9024TIP3    H227016   2.850   1.034   1.265
 9025TIP3   OH227017   2.008   7.726   4.361
 9025TIP3    H127018   2.080   7.697   4.417
 9025TIP3    H227019   1.970   7.801   4.408
 9026TIP3   OH227020   4.387   7.433   4.062
 9026TIP3    H127021   4.387   7.513   4.114
 9026TIP3    H227022   4.296   7.424   4.032
 9027TIP3   OH227023   4.660   2.823   0.950
 9027TIP3    H127024   4.702   2.909   0.945
 9027TIP3    H227025   4.733   2.761   0.957
 9028TIP3   OH227026   2.628   4.983   3.425
 9028TIP3    H127027   2.720   5.008   3.433
 9028TIP3    H227028   2.596   5.032   3.349
 9029TIP3   OH227029   5.672   5.562   2.535
 9029TIP3    H127030   5.700   5.593   2.621
 9029TIP3    H227031   5.750   5.521   2.497
 9030TIP3   OH227032   0.911   1.668   1.023
 9030TIP3    H127033   0.824   1.706   1.038
 9030TIP3    H227034   0.921   1.669   0.928
 9031TIP3   OH227035   3.863   6.023   3.672
 9031TIP3    H127036   3.933   6.076   3.634
 9031TIP3    H227037   3.819   6.083   3.732
 9032TIP3   OH227038   0.321   7.357   4.325
 9032TIP3    H127039   0.330   7.416   4.400
 9032TIP3    H227040   0.391   7.292   4.338
 9033TIP3   OH227041   3.946   2.813   1.839
 9033TIP3    H127042   3.990   2.791   1.757
 9033TIP3    H227043   4.000   2.770   1.906
 9034TIP3   OH227044   0.979   4.350   3.359
 9034TIP3    H127045   0.920   4.328   3.431
 9034TIP3    H227046   1.026   4.427   3.390
 9035TIP3   OH227047   1.212   3.464   5.983
 9035TIP3    H127048   1.184   3.475   6.074
 9035TIP3    H227049   1.285   3.524   5.972
 9036TIP3   OH227050   4.366   5.513   5.450
 9036TIP3    H127051   4.405   5.555   5.373
 9036TIP3    H227052   4.352   5.584   5.512
 9037TIP3   OH227053   5.464   6.691   4.403
 9037TIP3    H127054   5.431   6.667   4.316
 9037TIP3    H227055   5.544   6.640   4.413
 9038TIP3   OH227056   0.632   7.243   0.700
 9038TIP3    H127057   0.699   7.175   0.704
 9038TIP3    H227058   0.663   7.304   0.633
 9039TIP3   OH227059   4.112   6.196   0.771
 9039TIP3    H127060   4.120   6.221   0.678
 9039TIP3    H227061   4.176   6.126   0.782
 9040TIP3   OH227062   1.030   0.542   1.214
 9040TIP3    H127063   0.951   0.568   1.167
 9040TIP3    H227064   1.064   0.468   1.163
 9041TIP3   OH227065   2.948   7.008   1.784
 9041TIP3    H127066   2.907   7.035   1.867
 9041TIP3    H227067   2.914   6.919   1.769
 9042TIP3   OH227068   4.171   3.526   2.969
 9042TIP3    H127069   4.189   3.550   3.060
 9042TIP3    H227070   4.146   3.609   2.927
 9043TIP3   OH227071   6.902   3.118   3.017
 9043TIP3    H127072   6.908   3.132   3.112
 9043TIP3    H227073   6.813   3.088   3.003
 9044TIP3   OH227074   2.054   5.685   1.064
 9044TIP3    H127075   2.049   5.608   1.006
 9044TIP3    H227076   2.131   5.733   1.033
 9045TIP3   OH227077   1.174   7.707   3.339
 9045TIP3    H127078   1.257   7.698   3.386
 9045TIP3    H227079   1.185   7.786   3.285
 9046TIP3   OH227080   1.588   7.764   2.299
 9046TIP3    H127081   1.587   7.859   2.310
 9046TIP3    H227082   1.675   7.745   2.264
 9047TIP3   OH227083   2.399   4.922   0.819
 9047TIP3    H127084   2.363   4.925   0.730
 9047TIP3    H227085   2.443   4.837   0.823
 9048TIP3   OH227086   3.822   0.161   4.601
 9048TIP3    H127087   3.743   0.113   4.625
 9048TIP3    H227088   3.889   0.093   4.592
 9049TIP3   OH227089   7.464   3.861   2.591
 9049TIP3    H127090   7.437   3.882   2.502
 9049TIP3    H227091   7.520   3.934   2.617
 9050TIP3   OH227092   3.212   4.359   0.459
 9050TIP3    H127093   3.293   4.377   0.411
 9050TIP3    H227094   3.229   4.393   0.547
 9051TIP3   OH227095   2.471   4.953   1.800
 9051TIP3    H127096   2.465   4.994   1.714
 9051TIP3    H227097   2.518   4.871   1.785
 9052TIP3   OH227098   2.115   4.791   4.457
 9052TIP3    H127099   2.037   4.775   4.405
 9052TIP3    H227100   2.163   4.707   4.455
 9053TIP3   OH227101   1.785   6.854   1.939
 9053TIP3    H127102   1.762   6.793   1.868
 9053TIP3    H227103   1.789   6.799   2.017
 9054TIP3   OH227104   2.952   4.297   2.582
 9054TIP3    H127105   2.883   4.285   2.648
 9054TIP3    H227106   2.961   4.211   2.540
 9055TIP3   OH227107   6.730   0.423   5.284
 9055TIP3    H127108   6.798   0.487   5.267
 9055TIP3    H227109   6.652   0.459   5.240
 9056TIP3   OH227110   0.431   3.410   1.647
 9056TIP3    H127111   0.486   3.484   1.625
 9056TIP3    H227112   0.370   3.402   1.573
 9057TIP3   OH227113   0.844   2.735   1.025
 9057TIP3    H127114   0.757   2.764   0.999
 9057TIP3    H227115   0.896   2.815   1.034
 9058TIP3   OH227116   4.061   1.875   3.713
 9058TIP3    H127117   4.008   1.806   3.672
 9058TIP3    H227118   4.116   1.908   3.642
 9059TIP3   OH227119   1.062   5.842   0.621
 9059TIP3    H127120   0.978   5.867   0.660
 9059TIP3    H227121   1.039   5.777   0.555
 9060TIP3   OH227122   4.341   4.547   3.040
 9060TIP3    H127123   4.263   4.595   3.067
 9060TIP3    H227124   4.331   4.536   2.945
 9061TIP3   OH227125   0.099   5.393   5.478
 9061TIP3    H127126   0.012   5.422   5.505
 9061TIP3    H227127   0.149   5.475   5.469
 9062TIP3   OH227128   5.603   0.790   3.225
 9062TIP3    H127129   5.599   0.866   3.167
 9062TIP3    H227130   5.696   0.776   3.238
 9063TIP3   OH227131   5.090   2.823   0.743
 9063TIP3    H127132   5.087   2.914   0.774
 9063TIP3    H227133   5.015   2.816   0.684
 9064TIP3   OH227134   4.889   3.156   2.351
 9064TIP3    H127135   4.931   3.215   2.288
 9064TIP3    H227136   4.903   3.198   2.436
 9065TIP3   OH227137   2.000   6.607   5.542
 9065TIP3    H127138   1.979   6.662   5.617
 9065TIP3    H227139   2.062   6.659   5.491
 9066TIP3   OH227140   4.861   7.739   4.220
 9066TIP3    H127141   4.941   7.792   4.218
 9066TIP3    H227142   4.806   7.782   4.285
 9067TIP3   OH227143   4.966   5.551   4.962
 9067TIP3    H127144   4.920   5.633   4.945
 9067TIP3    H227145   5.045   5.577   5.009
 9068TIP3   OH227146   8.093   7.309   3.169
 9068TIP3    H127147   8.095   7.384   3.229
 9068TIP3    H227148   8.018   7.257   3.198
 9069TIP3   OH227149   2.105   4.401   1.739
 9069TIP3    H127150   2.020   4.374   1.706
 9069TIP3    H227151   2.087   4.479   1.792
 9070TIP3   OH227152   1.301   4.530   3.997
 9070TIP3    H127153   1.361   4.593   3.956
 9070TIP3    H227154   1.318   4.537   4.091
 9071TIP3   OH227155   3.649   6.618   2.080
 9071TIP3    H127156   3.677   6.532   2.111
 9071TIP3    H227157   3.574   6.640   2.135
 9072TIP3   OH227158   8.140   3.698   3.089
 9072TIP3    H127159   8.171   3.683   3.178
 9072TIP3    H227160   8.088   3.778   3.094
 9073TIP3   OH227161   7.231   5.514   3.006
 9073TIP3    H127162   7.195   5.425   2.997
 9073TIP3    H227163   7.274   5.530   2.922
 9074TIP3   OH227164   0.155   2.710   2.209
 9074TIP3    H127165   0.162   2.663   2.126
 9074TIP3    H227166   0.116   2.646   2.269
 9075TIP3   OH227167   2.907   7.033   0.657
 9075TIP3    H127168   2.828   6.994   0.620
 9075TIP3    H227169   2.882   7.123   0.677
 9076TIP3   OH227170   2.114   3.187   4.736
 9076TIP3    H127171   2.198   3.168   4.693
 9076TIP3    H227172   2.048   3.155   4.674
 9077TIP3   OH227173   0.248   0.766   6.660
 9077TIP3    H127174   0.160   0.798   6.641
 9077TIP3    H227175   0.285   0.832   6.720
 9078TIP3   OH227176   7.936   6.785   2.842
 9078TIP3    H127177   7.975   6.769   2.756
 9078TIP3    H227178   7.972   6.869   2.870
 9079TIP3   OH227179   6.009   2.082   5.933
 9079TIP3    H127180   6.066   2.045   6.002
 9079TIP3    H227181   6.067   2.090   5.857
 9080TIP3   OH227182   7.199   7.482   6.408
 9080TIP3    H127183   7.256   7.538   6.355
 9080TIP3    H227184   7.120   7.535   6.422
 9081TIP3   OH227185   1.605   2.043   4.525
 9081TIP3    H127186   1.531   2.094   4.493
 9081TIP3    H227187   1.571   1.953   4.533
 9082TIP3   OH227188   6.016   3.484   6.544
 9082TIP3    H127189   6.103   3.447   6.525
 9082TIP3    H227190   6.023   3.514   6.635
 9083TIP3   OH227191   1.447   3.120   2.996
 9083TIP3    H127192   1.525   3.175   3.000
 9083TIP3    H227193   1.465   3.058   2.925
 9084TIP3   OH227194   0.095   0.830   3.832
 9084TIP3    H127195   0.119   0.801   3.920
 9084TIP3    H227196   0.106   0.751   3.778
 9085TIP3   OH227197   6.471   4.763   1.781
 9085TIP3    H127198   6.440   4.693   1.723
 9085TIP3    H227199   6.422   4.751   1.862
 9086TIP3   OH227200   3.618   0.281   4.999
 9086TIP3    H127201   3.571   0.269   4.916
 9086TIP3    H227202   3.710   0.266   4.976
 9087TIP3   OH227203   1.167   7.605   0.154
 9087TIP3    H127204   1.082   7.598   0.109
 9087TIP3    H227205   1.169   7.529   0.213
 9088TIP3   OH227206   6.485   0.355   3.665
 9088TIP3    H127207   6.553   0.409   3.624
 9088TIP3    H227208   6.427   0.331   3.593
 9089TIP3   OH227209   7.720   0.388   3.940
 9089TIP3    H127210   7.678   0.309   3.907
 9089TIP3    H227211   7.649   0.438   3.981
 9090TIP3   OH227212   5.753   6.987   5.800
 9090TIP3    H127213   5.743   6.896   5.771
 9090TIP3    H227214   5.668   7.009   5.837
 9091TIP3   OH227215   3.948   2.088   1.216
 9091TIP3    H127216   3.866   2.077   1.263
 9091TIP3    H227217   3.996   2.006   1.232
 9092TIP3   OH227218   6.724   1.152   2.082
 9092TIP3    H127219   6.650   1.156   2.022
 9092TIP3    H227220   6.698   1.208   2.156
 9093TIP3   OH227221   7.523   6.276   1.304
 9093TIP3    H127222   7.490   6.256   1.217
 9093TIP3    H227223   7.615   6.247   1.302
 9094TIP3   OH227224   3.009   1.731   5.712
 9094TIP3    H127225   3.100   1.707   5.690
 9094TIP3    H227226   2.956   1.683   5.648
 9095TIP3   OH227227   3.968   0.880   1.119
 9095TIP3    H127228   4.015   0.800   1.099
 9095TIP3    H227229   4.036   0.945   1.134
 9096TIP3   OH227230   0.569   0.788   1.456
 9096TIP3    H127231   0.550   0.808   1.365
 9096TIP3    H227232   0.603   0.870   1.492
 9097TIP3   OH227233   7.448   1.638   0.766
 9097TIP3    H127234   7.517   1.661   0.704
 9097TIP3    H227235   7.493   1.593   0.837
 9098TIP3   OH227236   6.175   4.151   6.517
 9098TIP3    H127237   6.265   4.119   6.506
 9098TIP3    H227238   6.184   4.237   6.558
 9099TIP3   OH227239   1.806   1.943   3.833
 9099TIP3    H127240   1.753   1.911   3.906
 9099TIP3    H227241   1.870   2.002   3.873
 9100TIP3   OH227242   3.700   1.807   0.041
 9100TIP3    H127243   3.653   1.857   0.108
 9100TIP3    H227244   3.792   1.818   0.063
 9101TIP3   OH227245   0.816   3.606   0.792
 9101TIP3    H127246   0.878   3.567   0.729
 9101TIP3    H227247   0.853   3.586   0.878
 9102TIP3   OH227248   4.318   7.220   0.933
 9102TIP3    H127249   4.361   7.304   0.918
 9102TIP3    H227250   4.350   7.163   0.863
 9103TIP3   OH227251   1.946   3.230   4.109
 9103TIP3    H127252   1.953   3.138   4.135
 9103TIP3    H227253   2.010   3.275   4.164
 9104TIP3   OH227254   1.404   5.663   5.926
 9104TIP3    H127255   1.393   5.753   5.959
 9104TIP3    H227256   1.380   5.608   6.001
 9105TIP3   OH227257   3.576   2.511   1.642
 9105TIP3    H127258   3.517   2.539   1.712
 9105TIP3    H227259   3.566   2.416   1.639
 9106TIP3   OH227260   2.650   4.505   2.718
 9106TIP3    H127261   2.583   4.536   2.658
 9106TIP3    H227262   2.733   4.532   2.679
 9107TIP3   OH227263   6.047   4.360   3.115
 9107TIP3    H127264   6.110   4.432   3.107
 9107TIP3    H227265   5.988   4.371   3.041
 9108TIP3   OH227266   0.571   2.843   5.629
 9108TIP3    H127267   0.652   2.892   5.640
 9108TIP3    H227268   0.531   2.842   5.716
 9109TIP3   OH227269   4.532   3.525   5.782
 9109TIP3    H127270   4.513   3.479   5.699
 9109TIP3    H227271   4.605   3.476   5.819
 9110TIP3   OH227272   4.070   3.457   0.259
 9110TIP3    H127273   4.029   3.376   0.229
 9110TIP3    H227274   4.028   3.526   0.207
 9111TIP3   OH227275   0.324   0.233   1.932
 9111TIP3    H127276   0.385   0.184   1.987
 9111TIP3    H227277   0.324   0.186   1.849
 9112TIP3   OH227278   5.258   4.164   0.709
 9112TIP3    H127279   5.328   4.211   0.755
 9112TIP3    H227280   5.286   4.162   0.617
 9113TIP3   OH227281   4.416   3.758   6.771
 9113TIP3    H127282   4.431   3.852   6.783
 9113TIP3    H227283   4.359   3.752   6.694
 9114TIP3   OH227284   3.760   3.758   4.485
 9114TIP3    H127285   3.781   3.847   4.512
 9114TIP3    H227286   3.824   3.738   4.417
 9115TIP3   OH227287   1.217   7.563   2.561
 9115TIP3    H127288   1.184   7.531   2.477
 9115TIP3    H227289   1.310   7.581   2.545
 9116TIP3   OH227290   5.902   5.441   0.477
 9116TIP3    H127291   5.985   5.423   0.521
 9116TIP3    H227292   5.847   5.480   0.545
 9117TIP3   OH227293   2.417   7.158   2.841
 9117TIP3    H127294   2.495   7.209   2.816
 9117TIP3    H227295   2.431   7.138   2.933
 9118TIP3   OH227296   4.606   4.537   4.501
 9118TIP3    H127297   4.697   4.568   4.507
 9118TIP3    H227298   4.613   4.447   4.469
 9119TIP3   OH227299   5.765   4.202   2.979
 9119TIP3    H127300   5.785   4.280   2.927
 9119TIP3    H227301   5.686   4.167   2.939
 9120TIP3   OH227302   4.220   4.711   4.250
 9120TIP3    H127303   4.270   4.674   4.322
 9120TIP3    H227304   4.135   4.668   4.255
 9121TIP3   OH227305   2.421   5.237   5.417
 9121TIP3    H127306   2.388   5.162   5.466
 9121TIP3    H227307   2.478   5.283   5.478
 9122TIP3   OH227308   4.177   1.418   0.014
 9122TIP3    H127309   4.144   1.410   0.104
 9122TIP3    H227310   4.271   1.406   0.022
 9123TIP3   OH227311   0.710   0.260   4.433
 9123TIP3    H127312   0.783   0.201   4.454
 9123TIP3    H227313   0.638   0.201   4.408
 9124TIP3   OH227314   5.217   1.171   4.429
 9124TIP3    H127315   5.188   1.246   4.481
 9124TIP3    H227316   5.147   1.106   4.441
 9125TIP3   OH227317   2.897   6.825   5.354
 9125TIP3    H127318   2.860   6.754   5.302
 9125TIP3    H227319   2.850   6.903   5.324
 9126TIP3   OH227320   3.401   5.769   3.379
 9126TIP3    H127321   3.314   5.796   3.350
 9126TIP3    H227322   3.423   5.830   3.449
 9127TIP3   OH227323   1.354   5.573   1.234
 9127TIP3    H127324   1.349   5.520   1.154
 9127TIP3    H227325   1.300   5.650   1.214
 9128TIP3   OH227326   0.582   2.930   2.996
 9128TIP3    H127327   0.621   2.882   2.923
 9128TIP3    H227328   0.602   3.022   2.977
 9129TIP3   OH227329   5.940   7.721   6.217
 9129TIP3    H127330   5.894   7.658   6.272
 9129TIP3    H227331   5.890   7.802   6.227
 9130TIP3   OH227332   3.720   0.801   2.550
 9130TIP3    H127333   3.725   0.713   2.588
 9130TIP3    H227334   3.701   0.786   2.457
 9131TIP3   OH227335   5.769   5.813   1.113
 9131TIP3    H127336   5.756   5.815   1.018
 9131TIP3    H227337   5.688   5.848   1.149
 9132TIP3   OH227338   4.752   1.708   2.478
 9132TIP3    H127339   4.657   1.714   2.485
 9132TIP3    H227340   4.782   1.692   2.567
 9133TIP3   OH227341   4.573   5.065   4.032
 9133TIP3    H127342   4.497   5.052   4.089
 9133TIP3    H227343   4.537   5.061   3.943
 9134TIP3   OH227344   8.004   0.123   0.910
 9134TIP3    H127345   7.953   0.169   0.977
 9134TIP3    H227346   8.065   0.069   0.960
 9135TIP3   OH227347   6.253   7.269   3.787
 9135TIP3    H127348   6.295   7.259   3.701
 9135TIP3    H227349   6.186   7.335   3.773
 9136TIP3   OH227350   3.868   3.257   4.866
 9136TIP3    H127351   3.805   3.208   4.917
 9136TIP3    H227352   3.907   3.193   4.807
 9137TIP3   OH227353   3.382   4.913   2.834
 9137TIP3    H127354   3.477   4.903   2.827
 9137TIP3    H227355   3.355   4.845   2.896
 9138TIP3   OH227356   7.651   4.242   3.660
 9138TIP3    H127357   7.626   4.228   3.569
 9138TIP3    H227358   7.747   4.248   3.657
 9139TIP3   OH227359   5.258   6.329   4.839
 9139TIP3    H127360   5.205   6.346   4.916
 9139TIP3    H227361   5.200   6.348   4.765
 9140TIP3   OH227362   4.534   6.782   2.511
 9140TIP3    H127363   4.476   6.755   2.439
 9140TIP3    H227364   4.613   6.729   2.499
 9141TIP3   OH227365   3.446   4.081   0.565
 9141TIP3    H127366   3.497   4.054   0.489
 9141TIP3    H227367   3.420   3.998   0.606
 9142TIP3   OH227368   2.436   7.520   3.649
 9142TIP3    H127369   2.510   7.491   3.703
 9142TIP3    H227370   2.476   7.571   3.579
 9143TIP3   OH227371   3.988   4.737   6.356
 9143TIP3    H127372   3.977   4.658   6.304
 9143TIP3    H227373   3.991   4.707   6.446
 9144TIP3   OH227374   0.900   3.267   3.423
 9144TIP3    H127375   0.828   3.265   3.361
 9144TIP3    H227376   0.975   3.300   3.373
 9145TIP3   OH227377   3.814   6.676   6.554
 9145TIP3    H127378   3.868   6.608   6.594
 9145TIP3    H227379   3.871   6.719   6.491
 9146TIP3   OH227380   4.408   1.096   2.852
 9146TIP3    H127381   4.316   1.075   2.867
 9146TIP3    H227382   4.455   1.047   2.919
 9147TIP3   OH227383   8.055   6.794   0.868
 9147TIP3    H127384   8.095   6.881   0.878
 9147TIP3    H227385   8.056   6.778   0.773
 9148TIP3   OH227386   0.845   5.566   5.270
 9148TIP3    H127387   0.930   5.532   5.298
 9148TIP3    H227388   0.784   5.494   5.285
 9149TIP3   OH227389   6.079   5.101   5.409
 9149TIP3    H127390   6.075   5.081   5.316
 9149TIP3    H227391   6.171   5.087   5.433
 9150TIP3   OH227392   1.049   3.246   4.752
 9150TIP3    H127393   0.954   3.255   4.744
 9150TIP3    H227394   1.060   3.186   4.826
 9151TIP3   OH227395   3.353   4.389   5.169
 9151TIP3    H127396   3.338   4.442   5.248
 9151TIP3    H227397   3.419   4.325   5.196
 9152TIP3   OH227398   3.554   3.290   4.705
 9152TIP3    H127399   3.461   3.270   4.716
 9152TIP3    H227400   3.597   3.243   4.776
 9153TIP3   OH227401   1.656   5.154   1.020
 9153TIP3    H127402   1.600   5.174   0.946
 9153TIP3    H227403   1.723   5.096   0.985
 9154TIP3   OH227404   1.214   6.530   6.595
 9154TIP3    H127405   1.248   6.509   6.683
 9154TIP3    H227406   1.251   6.616   6.575
 9155TIP3   OH227407   2.049   2.168   5.121
 9155TIP3    H127408   1.993   2.219   5.180
 9155TIP3    H227409   1.990   2.107   5.078
 9156TIP3   OH227410   0.540   1.448   0.358
 9156TIP3    H127411   0.459   1.475   0.315
 9156TIP3    H227412   0.608   1.460   0.291
 9157TIP3   OH227413   1.262   2.544   4.759
 9157TIP3    H127414   1.335   2.587   4.803
 9157TIP3    H227415   1.269   2.452   4.784
 9158TIP3   OH227416   8.123   5.567   1.437
 9158TIP3    H127417   8.124   5.640   1.499
 9158TIP3    H227418   8.045   5.583   1.383
 9159TIP3   OH227419   8.242   4.518   1.681
 9159TIP3    H127420   8.231   4.526   1.776
 9159TIP3    H227421   8.198   4.436   1.659
 9160TIP3   OH227422   5.944   0.159   6.177
 9160TIP3    H127423   5.972   0.094   6.242
 9160TIP3    H227424   6.025   0.184   6.132
 9161TIP3   OH227425   3.163   5.641   4.830
 9161TIP3    H127426   3.148   5.615   4.739
 9161TIP3    H227427   3.085   5.611   4.877
 9162TIP3   OH227428   1.373   0.295   5.538
 9162TIP3    H127429   1.279   0.296   5.519
 9162TIP3    H227430   1.386   0.213   5.586
 9163TIP3   OH227431   1.934   2.453   4.990
 9163TIP3    H127432   2.014   2.497   5.019
 9163TIP3    H227433   1.964   2.367   4.962
 9164TIP3   OH227434   7.455   4.740   5.546
 9164TIP3    H127435   7.456   4.811   5.610
 9164TIP3    H227436   7.544   4.705   5.546
 9165TIP3   OH227437   5.509   1.869   2.041
 9165TIP3    H127438   5.424   1.905   2.065
 9165TIP3    H227439   5.549   1.844   2.125
 9166TIP3   OH227440   0.081   0.338   5.993
 9166TIP3    H127441   0.039   0.288   6.063
 9166TIP3    H227442   0.008   0.374   5.943
 9167TIP3   OH227443   6.354   6.068   2.418
 9167TIP3    H127444   6.347   6.057   2.323
 9167TIP3    H227445   6.443   6.102   2.432
 9168TIP3   OH227446   3.940   7.770   1.334
 9168TIP3    H127447   3.902   7.693   1.377
 9168TIP3    H227448   3.983   7.819   1.403
 9169TIP3   OH227449   3.753   7.675   2.103
 9169TIP3    H127450   3.826   7.647   2.157
 9169TIP3    H227451   3.779   7.761   2.070
 9170TIP3   OH227452   8.215   4.840   3.449
 9170TIP3    H127453   8.266   4.901   3.502
 9170TIP3    H227454   8.143   4.893   3.414
 9171TIP3   OH227455   5.350   2.798   4.439
 9171TIP3    H127456   5.288   2.785   4.367
 9171TIP3    H227457   5.349   2.892   4.455
 9172TIP3   OH227458   2.955   5.141   1.287
 9172TIP3    H127459   2.966   5.057   1.243
 9172TIP3    H227460   2.933   5.202   1.216
 9173TIP3   OH227461   4.000   6.848   0.634
 9173TIP3    H127462   3.974   6.839   0.726
 9173TIP3    H227463   4.063   6.920   0.634
 9174TIP3   OH227464   8.069   5.254   5.900
 9174TIP3    H127465   8.114   5.196   5.961
 9174TIP3    H227466   8.055   5.201   5.822
 9175TIP3   OH227467   1.184   2.390   4.519
 9175TIP3    H127468   1.203   2.331   4.591
 9175TIP3    H227469   1.209   2.476   4.552
 9176TIP3   OH227470   4.756   5.648   0.698
 9176TIP3    H127471   4.835   5.631   0.750
 9176TIP3    H227472   4.783   5.634   0.607
 9177TIP3   OH227473   4.076   7.423   5.310
 9177TIP3    H127474   4.116   7.439   5.224
 9177TIP3    H227475   4.100   7.500   5.362
 9178TIP3   OH227476   5.718   5.986   6.509
 9178TIP3    H127477   5.694   6.041   6.435
 9178TIP3    H227478   5.738   6.048   6.580
 9179TIP3   OH227479   7.435   5.579   0.390
 9179TIP3    H127480   7.481   5.527   0.455
 9179TIP3    H227481   7.485   5.565   0.309
 9180TIP3   OH227482   6.478   6.152   1.433
 9180TIP3    H127483   6.522   6.112   1.358
 9180TIP3    H227484   6.539   6.218   1.465
 9181TIP3   OH227485   4.948   3.723   6.332
 9181TIP3    H127486   4.890   3.653   6.304
 9181TIP3    H227487   4.941   3.724   6.428
 9182TIP3   OH227488   3.595   7.360   5.517
 9182TIP3    H127489   3.619   7.400   5.601
 9182TIP3    H227490   3.657   7.397   5.455
 9183TIP3   OH227491   0.300   2.332   4.279
 9183TIP3    H127492   0.383   2.297   4.247
 9183TIP3    H227493   0.305   2.321   4.374
 9184TIP3   OH227494   1.084   6.481   4.836
 9184TIP3    H127495   1.006   6.485   4.891
 9184TIP3    H227496   1.073   6.401   4.785
 9185TIP3   OH227497   6.611   2.134   4.045
 9185TIP3    H127498   6.688   2.151   4.100
 9185TIP3    H227499   6.637   2.166   3.959
 9186TIP3   OH227500   4.246   0.425   1.970
 9186TIP3    H127501   4.250   0.391   1.881
 9186TIP3    H227502   4.279   0.514   1.963
 9187TIP3   OH227503   0.641   1.471   3.338
 9187TIP3    H127504   0.613   1.394   3.289
 9187TIP3    H227505   0.566   1.531   3.334
 9188TIP3   OH227506   2.545   3.067   2.206
 9188TIP3    H127507   2.578   3.115   2.130
 9188TIP3    H227508   2.461   3.032   2.177
 9189TIP3   OH227509   2.389   4.492   2.053
 9189TIP3    H127510   2.364   4.417   2.107
 9189TIP3    H227511   2.414   4.560   2.116
 9190TIP3   OH227512   3.717   6.929   1.404
 9190TIP3    H127513   3.700   6.834   1.400
 9190TIP3    H227514   3.738   6.946   1.495
 9191TIP3   OH227515   4.160   5.466   6.439
 9191TIP3    H127516   4.132   5.557   6.432
 9191TIP3    H227517   4.202   5.460   6.525
 9192TIP3   OH227518   6.909   4.253   3.960
 9192TIP3    H127519   6.819   4.276   3.985
 9192TIP3    H227520   6.961   4.272   4.038
 9193TIP3   OH227521   0.971   6.580   1.094
 9193TIP3    H127522   0.962   6.639   1.019
 9193TIP3    H227523   1.040   6.519   1.068
 9194TIP3   OH227524   1.699   7.442   0.168
 9194TIP3    H127525   1.705   7.434   0.263
 9194TIP3    H227526   1.696   7.536   0.152
 9195TIP3   OH227527   3.797   1.213   0.579
 9195TIP3    H127528   3.737   1.285   0.597
 9195TIP3    H227529   3.801   1.164   0.661
 9196TIP3   OH227530   7.139   4.688   6.436
 9196TIP3    H127531   7.207   4.637   6.480
 9196TIP3    H227532   7.096   4.737   6.506
 9197TIP3   OH227533   2.212   2.397   0.958
 9197TIP3    H127534   2.256   2.482   0.963
 9197TIP3    H227535   2.234   2.364   0.871
 9198TIP3   OH227536   8.178   2.730   6.282
 9198TIP3    H127537   8.158   2.818   6.313
 9198TIP3    H227538   8.137   2.671   6.345
 9199TIP3   OH227539   7.073   4.635   6.173
 9199TIP3    H127540   7.097   4.646   6.265
 9199TIP3    H227541   7.123   4.559   6.144
 9200TIP3   OH227542   7.076   5.254   1.389
 9200TIP3    H127543   7.027   5.228   1.467
 9200TIP3    H227544   7.050   5.191   1.322
 9201TIP3   OH227545   0.385   0.017   5.701
 9201TIP3    H127546   0.443   0.060   5.639
 9201TIP3    H227547   0.341  -0.051   5.650
 9202TIP3   OH227548   5.771   4.122   0.267
 9202TIP3    H127549   5.701   4.184   0.248
 9202TIP3    H227550   5.734   4.065   0.335
 9203TIP3   OH227551   3.956   3.077   0.380
 9203TIP3    H127552   3.911   2.997   0.407
 9203TIP3    H227553   3.886   3.140   0.364
 9204TIP3   OH227554   0.716   4.976   0.609
 9204TIP3    H127555   0.665   4.900   0.579
 9204TIP3    H227556   0.728   4.961   0.703
 9205TIP3   OH227557   6.493   4.975   1.511
 9205TIP3    H127558   6.471   4.891   1.469
 9205TIP3    H227559   6.523   4.950   1.599
 9206TIP3   OH227560   2.174   0.096   0.350
 9206TIP3    H127561   2.112   0.056   0.412
 9206TIP3    H227562   2.119   0.146   0.290
 9207TIP3   OH227563   3.063   4.147   0.484
 9207TIP3    H127564   3.138   4.089   0.470
 9207TIP3    H227565   3.102   4.235   0.487
 9208TIP3   OH227566   2.437   7.098   3.105
 9208TIP3    H127567   2.386   7.021   3.130
 9208TIP3    H227568   2.408   7.167   3.165
 9209TIP3   OH227569   2.040   5.405   6.516
 9209TIP3    H127570   2.115   5.452   6.554
 9209TIP3    H227571   1.978   5.475   6.493
 9210TIP3   OH227572   6.102   2.226   2.476
 9210TIP3    H127573   6.187   2.194   2.447
 9210TIP3    H227574   6.085   2.179   2.558
 9211TIP3   OH227575   6.490   2.300   2.527
 9211TIP3    H127576   6.422   2.307   2.594
 9211TIP3    H227577   6.445   2.263   2.451
 9212TIP3   OH227578   8.200   3.893   2.459
 9212TIP3    H127579   8.216   3.983   2.431
 9212TIP3    H227580   8.128   3.900   2.523
 9213TIP3   OH227581   5.025   5.375   4.623
 9213TIP3    H127582   5.095   5.379   4.688
 9213TIP3    H227583   4.956   5.431   4.658
 9214TIP3   OH227584   7.109   0.024   4.407
 9214TIP3    H127585   7.136  -0.013   4.323
 9214TIP3    H227586   7.015   0.038   4.397
 9215TIP3   OH227587   2.714   3.299   2.786
 9215TIP3    H127588   2.736   3.225   2.730
 9215TIP3    H227589   2.798   3.331   2.819
 9216TIP3   OH227590   6.856   0.262   4.645
 9216TIP3    H127591   6.813   0.345   4.664
 9216TIP3    H227592   6.921   0.251   4.714
 9217TIP3   OH227593   3.981   5.299   5.893
 9217TIP3    H127594   3.903   5.298   5.948
 9217TIP3    H227595   3.976   5.217   5.843
 9218TIP3   OH227596   4.070   0.600   5.686
 9218TIP3    H127597   4.142   0.538   5.675
 9218TIP3    H227598   4.045   0.624   5.596
 9219TIP3   OH227599   2.256   5.849   0.984
 9219TIP3    H127600   2.313   5.778   1.012
 9219TIP3    H227601   2.295   5.928   1.024
 9220TIP3   OH227602   2.807   3.327   0.947
 9220TIP3    H127603   2.793   3.296   1.036
 9220TIP3    H227604   2.899   3.307   0.928
 9221TIP3   OH227605   8.231   4.656   0.475
 9221TIP3    H127606   8.197   4.625   0.559
 9221TIP3    H227607   8.189   4.741   0.463
 9222TIP3   OH227608   3.027   1.696   3.738
 9222TIP3    H127609   3.037   1.779   3.783
 9222TIP3    H227610   3.090   1.638   3.781
 9223TIP3   OH227611   8.003   2.788   2.975
 9223TIP3    H127612   7.943   2.783   2.901
 9223TIP3    H227613   7.959   2.845   3.038
 9224TIP3   OH227614   8.057   7.724   3.999
 9224TIP3    H127615   8.124   7.788   4.025
 9224TIP3    H227616   8.041   7.743   3.907
 9225TIP3   OH227617   3.695   7.562   4.614
 9225TIP3    H127618   3.610   7.570   4.570
 9225TIP3    H227619   3.678   7.508   4.691
 9226TIP3   OH227620   3.962   4.581   5.269
 9226TIP3    H127621   3.982   4.573   5.362
 9226TIP3    H227622   3.922   4.667   5.260
 9227TIP3   OH227623   3.930   0.346   1.773
 9227TIP3    H127624   3.908   0.264   1.818
 9227TIP3    H227625   3.968   0.319   1.690
 9228TIP3   OH227626   3.812   2.447   4.033
 9228TIP3    H127627   3.730   2.447   4.083
 9228TIP3    H227628   3.869   2.386   4.079
 9229TIP3   OH227629   3.518   5.800   6.503
 9229TIP3    H127630   3.455   5.867   6.478
 9229TIP3    H227631   3.500   5.726   6.445
 9230TIP3   OH227632   3.892   4.182   1.430
 9230TIP3    H127633   3.845   4.124   1.489
 9230TIP3    H227634   3.875   4.148   1.343
 9231TIP3   OH227635   0.831   4.376   3.132
 9231TIP3    H127636   0.896   4.366   3.202
 9231TIP3    H227637   0.747   4.355   3.174
 9232TIP3   OH227638   4.527   4.083   0.108
 9232TIP3    H127639   4.611   4.109   0.145
 9232TIP3    H227640   4.469   4.157   0.126
 9233TIP3   OH227641   7.909   1.659   0.514
 9233TIP3    H127642   7.905   1.728   0.447
 9233TIP3    H227643   7.931   1.706   0.595
 9234TIP3   OH227644   1.960   2.248   0.784
 9234TIP3    H127645   2.034   2.289   0.739
 9234TIP3    H227646   1.924   2.318   0.838
 9235TIP3   OH227647   3.567   3.549   3.716
 9235TIP3    H127648   3.561   3.604   3.638
 9235TIP3    H227649   3.497   3.582   3.773
 9236TIP3   OH227650   5.405   4.408   6.714
 9236TIP3    H127651   5.493   4.441   6.696
 9236TIP3    H227652   5.380   4.451   6.796
 9237TIP3   OH227653   6.129   5.298   6.492
 9237TIP3    H127654   6.138   5.209   6.456
 9237TIP3    H227655   6.213   5.340   6.476
 9238TIP3   OH227656   4.652   3.269   6.646
 9238TIP3    H127657   4.563   3.259   6.679
 9238TIP3    H227658   4.704   3.297   6.722
 9239TIP3   OH227659   4.280   6.428   0.234
 9239TIP3    H127660   4.344   6.481   0.187
 9239TIP3    H227661   4.197   6.444   0.188
 9240TIP3   OH227662   6.446   5.727   2.751
 9240TIP3    H127663   6.473   5.664   2.818
 9240TIP3    H227664   6.369   5.770   2.788
 9241TIP3   OH227665   4.252   3.745   1.555
 9241TIP3    H127666   4.234   3.839   1.553
 9241TIP3    H227667   4.342   3.739   1.586
 9242TIP3   OH227668   6.756   0.075   2.817
 9242TIP3    H127669   6.736   0.083   2.724
 9242TIP3    H227670   6.847   0.046   2.819
 9243TIP3   OH227671   0.781   4.864   1.131
 9243TIP3    H127672   0.778   4.945   1.182
 9243TIP3    H227673   0.803   4.796   1.194
 9244TIP3   OH227674   6.481   0.731   3.784
 9244TIP3    H127675   6.434   0.676   3.847
 9244TIP3    H227676   6.570   0.736   3.819
 9245TIP3   OH227677   8.122   0.696   6.212
 9245TIP3    H127678   8.172   0.710   6.132
 9245TIP3    H227679   8.160   0.617   6.250
 9246TIP3   OH227680   7.586   0.817   1.236
 9246TIP3    H127681   7.508   0.870   1.220
 9246TIP3    H227682   7.553   0.728   1.247
 9247TIP3   OH227683   3.961   3.796   2.554
 9247TIP3    H127684   3.954   3.891   2.540
 9247TIP3    H227685   3.881   3.760   2.515
 9248TIP3   OH227686   4.294   5.519   3.092
 9248TIP3    H127687   4.383   5.550   3.107
 9248TIP3    H227688   4.283   5.521   2.997
 9249TIP3   OH227689   0.324   3.432   5.296
 9249TIP3    H127690   0.251   3.370   5.288
 9249TIP3    H227691   0.335   3.467   5.208
 9250TIP3   OH227692   0.721   3.400   6.544
 9250TIP3    H127693   0.771   3.481   6.536
 9250TIP3    H227694   0.735   3.372   6.634
 9251TIP3   OH227695   7.634   5.806   3.159
 9251TIP3    H127696   7.566   5.836   3.099
 9251TIP3    H227697   7.700   5.875   3.158
 9252TIP3   OH227698   0.773   5.634   5.860
 9252TIP3    H127699   0.717   5.558   5.874
 9252TIP3    H227700   0.787   5.636   5.765
 9253TIP3   OH227701   3.024   4.156   1.915
 9253TIP3    H127702   3.087   4.227   1.925
 9253TIP3    H227703   2.980   4.151   2.000
 9254TIP3   OH227704   5.339   7.089   5.329
 9254TIP3    H127705   5.363   7.145   5.255
 9254TIP3    H227706   5.353   7.000   5.298
 9255TIP3   OH227707   3.782   6.149   1.133
 9255TIP3    H127708   3.825   6.113   1.055
 9255TIP3    H227709   3.714   6.206   1.097
 9256TIP3   OH227710   0.859   3.636   6.520
 9256TIP3    H127711   0.848   3.688   6.600
 9256TIP3    H227712   0.815   3.688   6.452
 9257TIP3   OH227713   6.772   2.265   6.463
 9257TIP3    H127714   6.860   2.227   6.463
 9257TIP3    H227715   6.734   2.236   6.546
 9258TIP3   OH227716   6.590   0.298   3.158
 9258TIP3    H127717   6.665   0.257   3.202
 9258TIP3    H227718   6.585   0.386   3.196
 9259TIP3   OH227719   4.816   7.657   4.609
 9259TIP3    H127720   4.865   7.685   4.531
 9259TIP3    H227721   4.866   7.583   4.643
 9260TIP3   OH227722   0.991   2.603   5.435
 9260TIP3    H127723   0.998   2.650   5.352
 9260TIP3    H227724   0.953   2.667   5.495
 9261TIP3   OH227725   1.507   2.240   4.172
 9261TIP3    H127726   1.520   2.214   4.081
 9261TIP3    H227727   1.504   2.336   4.169
 9262TIP3   OH227728   3.152   1.375   2.980
 9262TIP3    H127729   3.144   1.291   2.937
 9262TIP3    H227730   3.063   1.395   3.010
 9263TIP3   OH227731   6.021   0.749   5.705
 9263TIP3    H127732   6.100   0.723   5.753
 9263TIP3    H227733   5.949   0.717   5.759
 9264TIP3   OH227734   6.830   1.485   3.017
 9264TIP3    H127735   6.750   1.526   2.983
 9264TIP3    H227736   6.806   1.455   3.104
 9265TIP3   OH227737   2.559   5.689   0.210
 9265TIP3    H127738   2.483   5.637   0.185
 9265TIP3    H227739   2.531   5.735   0.289
 9266TIP3   OH227740   5.683   6.158   2.985
 9266TIP3    H127741   5.703   6.238   2.937
 9266TIP3    H227742   5.700   6.180   3.077
 9267TIP3   OH227743   5.865   7.282   2.613
 9267TIP3    H127744   5.850   7.239   2.697
 9267TIP3    H227745   5.778   7.283   2.571
 9268TIP3   OH227746   0.208   6.610   2.984
 9268TIP3    H127747   0.204   6.699   3.019
 9268TIP3    H227748   0.293   6.605   2.941
 9269TIP3   OH227749   0.961   4.925   3.141
 9269TIP3    H127750   1.039   4.898   3.190
 9269TIP3    H227751   0.933   5.006   3.182
 9270TIP3   OH227752   6.384   2.622   6.506
 9270TIP3    H127753   6.336   2.700   6.479
 9270TIP3    H227754   6.336   2.549   6.465
 9271TIP3   OH227755   3.168   7.025   0.575
 9271TIP3    H127756   3.205   7.095   0.520
 9271TIP3    H227757   3.074   7.032   0.563
 9272TIP3   OH227758   5.625   7.744   6.591
 9272TIP3    H127759   5.611   7.836   6.572
 9272TIP3    H227760   5.551   7.718   6.645
 9273TIP3   OH227761   6.655   4.255   1.452
 9273TIP3    H127762   6.702   4.259   1.369
 9273TIP3    H227763   6.620   4.166   1.455
 9274TIP3   OH227764   7.253   1.860   1.634
 9274TIP3    H127765   7.279   1.768   1.639
 9274TIP3    H227766   7.223   1.872   1.544
 9275TIP3   OH227767   1.705   0.597   4.467
 9275TIP3    H127768   1.679   0.580   4.376
 9275TIP3    H227769   1.759   0.676   4.462
 9276TIP3   OH227770   0.578   7.020   5.296
 9276TIP3    H127771   0.513   6.987   5.358
 9276TIP3    H227772   0.528   7.077   5.237
 9277TIP3   OH227773   3.120   2.072   6.447
 9277TIP3    H127774   3.137   1.982   6.474
 9277TIP3    H227775   3.059   2.064   6.373
 9278TIP3   OH227776   7.971   7.166   6.518
 9278TIP3    H127777   7.900   7.154   6.455
 9278TIP3    H227778   8.046   7.192   6.466
 9279TIP3   OH227779   8.357   2.901   4.087
 9279TIP3    H127780   8.338   2.836   4.155
 9279TIP3    H227781   8.272   2.920   4.047
 9280TIP3   OH227782   0.787   7.180   2.523
 9280TIP3    H127783   0.836   7.253   2.561
 9280TIP3    H227784   0.850   7.136   2.466
 9281TIP3   OH227785   2.740   0.242   1.823
 9281TIP3    H127786   2.701   0.164   1.784
 9281TIP3    H227787   2.744   0.305   1.750
 9282TIP3   OH227788   1.742   4.902   2.723
 9282TIP3    H127789   1.693   4.884   2.642
 9282TIP3    H227790   1.832   4.876   2.702
 9283TIP3   OH227791   1.839   0.884   1.416
 9283TIP3    H127792   1.808   0.826   1.346
 9283TIP3    H227793   1.841   0.829   1.494
 9284TIP3   OH227794   4.314   4.049   6.573
 9284TIP3    H127795   4.228   4.071   6.536
 9284TIP3    H227796   4.377   4.078   6.507
 9285TIP3   OH227797   2.592   7.397   3.291
 9285TIP3    H127798   2.644   7.358   3.361
 9285TIP3    H227799   2.651   7.458   3.247
 9286TIP3   OH227800   8.195   0.478   6.365
 9286TIP3    H127801   8.234   0.392   6.356
 9286TIP3    H227802   8.159   0.480   6.454
 9287TIP3   OH227803   4.175   0.482   6.247
 9287TIP3    H127804   4.249   0.533   6.213
 9287TIP3    H227805   4.098   0.534   6.227
 9288TIP3   OH227806   6.072   0.878   6.040
 9288TIP3    H127807   6.138   0.823   5.998
 9288TIP3    H227808   6.071   0.958   5.988
 9289TIP3   OH227809   2.697   3.311   4.469
 9289TIP3    H127810   2.730   3.364   4.542
 9289TIP3    H227811   2.775   3.271   4.431
 9290TIP3   OH227812   7.020   7.498   4.683
 9290TIP3    H127813   6.985   7.414   4.653
 9290TIP3    H227814   7.101   7.508   4.634
 9291TIP3   OH227815   2.248   7.068   1.444
 9291TIP3    H127816   2.256   7.114   1.528
 9291TIP3    H227817   2.154   7.061   1.429
 9292TIP3   OH227818   7.582   2.897   4.175
 9292TIP3    H127819   7.677   2.883   4.176
 9292TIP3    H227820   7.545   2.809   4.167
 9293TIP3   OH227821   1.433   2.801   6.036
 9293TIP3    H127822   1.440   2.708   6.058
 9293TIP3    H227823   1.402   2.842   6.117
 9294TIP3   OH227824   1.070   2.350   6.772
 9294TIP3    H127825   1.044   2.435   6.738
 9294TIP3    H227826   1.153   2.330   6.728
 9295TIP3   OH227827   2.119   3.786   4.424
 9295TIP3    H127828   2.125   3.756   4.514
 9295TIP3    H227829   2.025   3.797   4.408
 9296TIP3   OH227830   1.804   0.324   6.504
 9296TIP3    H127831   1.719   0.287   6.480
 9296TIP3    H227832   1.840   0.355   6.421
 9297TIP3   OH227833   4.187   0.848   1.864
 9297TIP3    H127834   4.147   0.770   1.827
 9297TIP3    H227835   4.281   0.832   1.859
 9298TIP3   OH227836   5.767   6.118   3.566
 9298TIP3    H127837   5.748   6.211   3.576
 9298TIP3    H227838   5.735   6.077   3.646
 9299TIP3   OH227839   7.309   4.495   6.796
 9299TIP3    H127840   7.369   4.504   6.870
 9299TIP3    H227841   7.357   4.531   6.722
 9300TIP3   OH227842   1.458   4.349   1.299
 9300TIP3    H127843   1.398   4.296   1.352
 9300TIP3    H227844   1.407   4.427   1.276
 9301TIP3   OH227845   0.383   0.669   5.136
 9301TIP3    H127846   0.447   0.599   5.120
 9301TIP3    H227847   0.375   0.673   5.231
 9302TIP3   OH227848   5.821   7.678   0.601
 9302TIP3    H127849   5.759   7.676   0.674
 9302TIP3    H227850   5.771   7.644   0.527
 9303TIP3   OH227851   7.384   7.139   5.052
 9303TIP3    H127852   7.435   7.219   5.051
 9303TIP3    H227853   7.313   7.155   5.115
 9304TIP3   OH227854   6.466   0.128   1.588
 9304TIP3    H127855   6.485   0.194   1.655
 9304TIP3    H227856   6.457   0.046   1.637
 9305TIP3   OH227857   6.577   2.889   4.594
 9305TIP3    H127858   6.545   2.950   4.527
 9305TIP3    H227859   6.568   2.936   4.676
 9306TIP3   OH227860   7.811   4.600   5.242
 9306TIP3    H127861   7.799   4.695   5.246
 9306TIP3    H227862   7.775   4.574   5.158
 9307TIP3   OH227863   1.043   7.473   3.288
 9307TIP3    H127864   1.106   7.540   3.262
 9307TIP3    H227865   1.024   7.491   3.380
 9308TIP3   OH227866   3.255   5.098   1.431
 9308TIP3    H127867   3.279   5.054   1.513
 9308TIP3    H227868   3.316   5.063   1.366
 9309TIP3   OH227869   1.683   4.776   6.414
 9309TIP3    H127870   1.715   4.790   6.325
 9309TIP3    H227871   1.758   4.740   6.461
 9310TIP3   OH227872   0.561   3.656   1.528
 9310TIP3    H127873   0.562   3.712   1.605
 9310TIP3    H227874   0.573   3.715   1.454
 9311TIP3   OH227875   6.165   6.875   4.855
 9311TIP3    H127876   6.153   6.881   4.761
 9311TIP3    H227877   6.158   6.965   4.887
 9312TIP3   OH227878   7.251   1.336   5.273
 9312TIP3    H127879   7.209   1.339   5.359
 9312TIP3    H227880   7.344   1.325   5.292
 9313TIP3   OH227881   2.438   1.556   0.461
 9313TIP3    H127882   2.360   1.590   0.416
 9313TIP3    H227883   2.483   1.633   0.493
 9314TIP3   OH227884   7.533   6.158   3.504
 9314TIP3    H127885   7.488   6.110   3.434
 9314TIP3    H227886   7.541   6.095   3.575
 9315TIP3   OH227887   3.249   4.909   6.247
 9315TIP3    H127888   3.187   4.876   6.312
 9315TIP3    H227889   3.216   4.875   6.163
 9316TIP3   OH227890   3.986   0.524   2.340
 9316TIP3    H127891   4.034   0.598   2.376
 9316TIP3    H227892   3.910   0.514   2.398
 9317TIP3   OH227893   2.232   2.584  -0.018
 9317TIP3    H127894   2.327   2.595  -0.009
 9317TIP3    H227895   2.210   2.518   0.049
 9318TIP3   OH227896   2.074   1.726   3.783
 9318TIP3    H127897   1.993   1.715   3.734
 9318TIP3    H227898   2.079   1.820   3.801
 9319TIP3   OH227899   7.726   7.292   3.907
 9319TIP3    H127900   7.708   7.296   3.813
 9319TIP3    H227901   7.649   7.249   3.945
 9320TIP3   OH227902   1.075   1.809   6.601
 9320TIP3    H127903   1.120   1.887   6.633
 9320TIP3    H227904   1.029   1.774   6.677
 9321TIP3   OH227905   7.522   7.736   2.161
 9321TIP3    H127906   7.489   7.665   2.216
 9321TIP3    H227907   7.544   7.806   2.222
 9322TIP3   OH227908   4.170   7.705   2.594
 9322TIP3    H127909   4.229   7.632   2.581
 9322TIP3    H227910   4.227   7.781   2.603
 9323TIP3   OH227911   6.205   1.091   5.704
 9323TIP3    H127912   6.266   1.127   5.639
 9323TIP3    H227913   6.256   1.025   5.751
 9324TIP3   OH227914   3.900   4.016   5.295
 9324TIP3    H127915   3.835   3.970   5.242
 9324TIP3    H227916   3.898   3.970   5.379
 9325TIP3   OH227917   5.346   2.756   5.348
 9325TIP3    H127918   5.402   2.680   5.333
 9325TIP3    H227919   5.391   2.805   5.417
 9326TIP3   OH227920   0.508   5.275   5.414
 9326TIP3    H127921   0.599   5.247   5.427
 9326TIP3    H227922   0.515   5.353   5.360
 9327TIP3   OH227923   1.772   2.473   3.562
 9327TIP3    H127924   1.799   2.554   3.518
 9327TIP3    H227925   1.730   2.502   3.643
 9328TIP3   OH227926   0.867   3.685   3.858
 9328TIP3    H127927   0.772   3.697   3.856
 9328TIP3    H227928   0.900   3.746   3.792
 9329TIP3   OH227929   6.151   0.854   3.121
 9329TIP3    H127930   6.233   0.843   3.170
 9329TIP3    H227931   6.178   0.894   3.038
 9330TIP3   OH227932   5.117   1.032   6.621
 9330TIP3    H127933   5.071   1.106   6.660
 9330TIP3    H227934   5.055   0.996   6.558
 9331TIP3   OH227935   7.328   6.362   5.015
 9331TIP3    H127936   7.274   6.294   5.057
 9331TIP3    H227937   7.362   6.320   4.936
 9332TIP3   OH227938   3.746   7.465   5.318
 9332TIP3    H127939   3.833   7.440   5.286
 9332TIP3    H227940   3.688   7.452   5.243
 9333TIP3   OH227941   5.501   4.320   0.533
 9333TIP3    H127942   5.458   4.240   0.502
 9333TIP3    H227943   5.478   4.324   0.626
 9334TIP3   OH227944   5.729   1.121   6.358
 9334TIP3    H127945   5.823   1.134   6.346
 9334TIP3    H227946   5.688   1.182   6.296
 9335TIP3   OH227947   0.563   2.440   3.953
 9335TIP3    H127948   0.471   2.428   3.930
 9335TIP3    H227949   0.591   2.354   3.984
 9336TIP3   OH227950   4.391   2.712   5.837
 9336TIP3    H127951   4.460   2.762   5.881
 9336TIP3    H227952   4.325   2.777   5.814
 9337TIP3   OH227953   2.458   4.225   3.078
 9337TIP3    H127954   2.536   4.231   3.023
 9337TIP3    H227955   2.397   4.289   3.042
 9338TIP3   OH227956   3.570   0.038   5.368
 9338TIP3    H127957   3.663   0.044   5.348
 9338TIP3    H227958   3.565   0.050   5.463
 9339TIP3   OH227959   6.998   7.666   3.305
 9339TIP3    H127960   7.030   7.719   3.232
 9339TIP3    H227961   6.905   7.655   3.287
 9340TIP3   OH227962   7.323   2.341   0.848
 9340TIP3    H127963   7.347   2.285   0.775
 9340TIP3    H227964   7.334   2.287   0.926
 9341TIP3   OH227965   4.926   2.399   0.702
 9341TIP3    H127966   4.920   2.417   0.796
 9341TIP3    H227967   4.996   2.334   0.695
 9342TIP3   OH227968   7.614   5.271   4.873
 9342TIP3    H127969   7.689   5.244   4.926
 9342TIP3    H227970   7.577   5.189   4.841
 9343TIP3   OH227971   8.209   1.054   4.784
 9343TIP3    H127972   8.123   1.065   4.825
 9343TIP3    H227973   8.264   1.122   4.823
 9344TIP3   OH227974   3.554   1.926   5.157
 9344TIP3    H127975   3.633   1.978   5.144
 9344TIP3    H227976   3.584   1.847   5.202
 9345TIP3   OH227977   3.649   3.243   5.458
 9345TIP3    H127978   3.653   3.335   5.432
 9345TIP3    H227979   3.561   3.214   5.434
 9346TIP3   OH227980   4.857   1.495   0.249
 9346TIP3    H127981   4.891   1.406   0.239
 9346TIP3    H227982   4.773   1.483   0.294
 9347TIP3   OH227983   1.056   1.657   4.835
 9347TIP3    H127984   1.048   1.649   4.740
 9347TIP3    H227985   1.099   1.576   4.862
 9348TIP3   OH227986   0.452   3.657   0.529
 9348TIP3    H127987   0.382   3.719   0.511
 9348TIP3    H227988   0.499   3.648   0.446
 9349TIP3   OH227989   7.229   3.401   4.691
 9349TIP3    H127990   7.270   3.315   4.696
 9349TIP3    H227991   7.299   3.460   4.661
 9350TIP3   OH227992   2.110   1.039   4.047
 9350TIP3    H127993   2.125   1.121   4.000
 9350TIP3    H227994   2.109   0.972   3.979
 9351TIP3   OH227995  -0.022   1.042   4.233
 9351TIP3    H127996   0.073   1.030   4.233
 9351TIP3    H227997  -0.038   1.115   4.174
 9352TIP3   OH227998   3.882   4.651   4.763
 9352TIP3    H127999   3.859   4.581   4.824
 9352TIP3    H228000   3.951   4.700   4.808
 9353TIP3   OH228001   1.865   6.043   3.936
 9353TIP3    H128002   1.812   6.083   4.005
 9353TIP3    H228003   1.848   5.949   3.944
 9354TIP3   OH228004   4.479   7.592   6.220
 9354TIP3    H128005   4.573   7.575   6.210
 9354TIP3    H228006   4.437   7.537   6.154
 9355TIP3   OH228007   6.289   2.566   2.014
 9355TIP3    H128008   6.281   2.560   2.110
 9355TIP3    H228009   6.383   2.559   1.998
 9356TIP3   OH228010   4.483   2.335   6.181
 9356TIP3    H128011   4.394   2.335   6.145
 9356TIP3    H228012   4.523   2.414   6.146
 9357TIP3   OH228013   0.041   3.379   6.102
 9357TIP3    H128014  -0.015   3.357   6.027
 9357TIP3    H228015   0.024   3.472   6.117
 9358TIP3   OH228016   1.391   4.101   5.866
 9358TIP3    H128017   1.364   4.075   5.954
 9358TIP3    H228018   1.485   4.119   5.873
 9359TIP3   OH228019   7.890   0.030   4.144
 9359TIP3    H128020   7.892   0.118   4.105
 9359TIP3    H228021   7.947  -0.022   4.086
 9360TIP3   OH228022   6.529   7.551   2.344
 9360TIP3    H128023   6.499   7.511   2.262
 9360TIP3    H228024   6.548   7.477   2.401
 9361TIP3   OH228025   4.939   2.252   5.991
 9361TIP3    H128026   4.947   2.158   6.009
 9361TIP3    H228027   4.846   2.266   5.978
 9362TIP3   OH228028   4.690   1.254   0.529
 9362TIP3    H128029   4.730   1.186   0.584
 9362TIP3    H228030   4.722   1.236   0.441
 9363TIP3   OH228031   5.053   3.757   3.641
 9363TIP3    H128032   5.025   3.740   3.731
 9363TIP3    H228033   5.029   3.678   3.593
 9364TIP3   OH228034   3.737   4.235   4.252
 9364TIP3    H128035   3.758   4.302   4.317
 9364TIP3    H228036   3.679   4.278   4.189
 9365TIP3   OH228037   0.308   1.498   0.241
 9365TIP3    H128038   0.225   1.520   0.283
 9365TIP3    H228039   0.322   1.568   0.177
 9366TIP3   OH228040   6.747   6.675   0.536
 9366TIP3    H128041   6.654   6.687   0.519
 9366TIP3    H228042   6.768   6.589   0.497
 9367TIP3   OH228043   2.624   7.101   1.791
 9367TIP3    H128044   2.603   7.143   1.708
 9367TIP3    H228045   2.693   7.155   1.828
 9368TIP3   OH228046   3.713   3.942   5.113
 9368TIP3    H128047   3.632   3.893   5.130
 9368TIP3    H228048   3.778   3.875   5.091
 9369TIP3   OH228049   3.952   4.640   2.215
 9369TIP3    H128050   3.876   4.687   2.180
 9369TIP3    H228051   4.027   4.677   2.168
 9370TIP3   OH228052   7.096   0.568   5.960
 9370TIP3    H128053   7.030   0.559   5.891
 9370TIP3    H228054   7.170   0.516   5.929
 9371TIP3   OH228055   4.750   7.154   6.358
 9371TIP3    H128056   4.802   7.228   6.391
 9371TIP3    H228057   4.726   7.105   6.437
 9372TIP3   OH228058   3.032   4.282   3.861
 9372TIP3    H128059   3.061   4.279   3.770
 9372TIP3    H228060   3.015   4.191   3.884
 9373TIP3   OH228061   5.279   6.639   5.888
 9373TIP3    H128062   5.320   6.681   5.812
 9373TIP3    H228063   5.349   6.592   5.932
 9374TIP3   OH228064   3.212   0.459   3.985
 9374TIP3    H128065   3.174   0.423   3.905
 9374TIP3    H228066   3.275   0.393   4.014
 9375TIP3   OH228067   4.676   5.774   3.312
 9375TIP3    H128068   4.736   5.763   3.385
 9375TIP3    H228069   4.720   5.732   3.238
 9376TIP3   OH228070   5.785   3.452   4.415
 9376TIP3    H128071   5.861   3.495   4.453
 9376TIP3    H228072   5.717   3.459   4.482
 9377TIP3   OH228073   2.664   5.131   4.202
 9377TIP3    H128074   2.653   5.129   4.297
 9377TIP3    H228075   2.583   5.094   4.168
 9378TIP3   OH228076   7.073   6.612   6.241
 9378TIP3    H128077   6.997   6.583   6.292
 9378TIP3    H228078   7.148   6.598   6.299
 9379TIP3   OH228079   4.842   0.094   4.050
 9379TIP3    H128080   4.778   0.156   4.014
 9379TIP3    H228081   4.794   0.012   4.057
 9380TIP3   OH228082   2.065   5.115   3.413
 9380TIP3    H128083   2.102   5.075   3.491
 9380TIP3    H228084   2.014   5.189   3.446
 9381TIP3   OH228085   7.911   2.156   4.287
 9381TIP3    H128086   7.872   2.222   4.344
 9381TIP3    H228087   7.850   2.082   4.291
 9382TIP3   OH228088   7.338  -0.006   3.533
 9382TIP3    H128089   7.382   0.071   3.499
 9382TIP3    H228090   7.347   0.001   3.628
 9383TIP3   OH228091   4.661   5.548   6.496
 9383TIP3    H128092   4.642   5.472   6.551
 9383TIP3    H228093   4.651   5.516   6.406
 9384TIP3   OH228094   1.212   7.598   1.186
 9384TIP3    H128095   1.171   7.550   1.258
 9384TIP3    H228096   1.179   7.555   1.107
 9385TIP3   OH228097   1.732   7.013   0.746
 9385TIP3    H128098   1.817   6.971   0.763
 9385TIP3    H228099   1.683   7.000   0.827
 9386TIP3   OH228100   3.731   5.980   0.455
 9386TIP3    H128101   3.810   5.935   0.426
 9386TIP3    H228102   3.697   5.926   0.526
 9387TIP3   OH228103   6.108   4.660   4.760
 9387TIP3    H128104   6.163   4.630   4.832
 9387TIP3    H228105   6.084   4.580   4.713
 9388TIP3   OH228106   0.582   1.932   6.622
 9388TIP3    H128107   0.586   1.942   6.527
 9388TIP3    H228108   0.513   1.993   6.649
 9389TIP3   OH228109   1.637   0.568   4.209
 9389TIP3    H128110   1.643   0.496   4.146
 9389TIP3    H228111   1.562   0.545   4.264
 9390TIP3   OH228112   5.504   0.712   0.875
 9390TIP3    H128113   5.591   0.752   0.864
 9390TIP3    H228114   5.443   0.785   0.867
 9391TIP3   OH228115   6.057   6.913   6.726
 9391TIP3    H128116   6.084   6.822   6.715
 9391TIP3    H228117   6.064   6.928   6.821
 9392TIP3   OH228118   7.785   1.524   4.273
 9392TIP3    H128119   7.858   1.480   4.317
 9392TIP3    H228120   7.735   1.563   4.345
 9393TIP3   OH228121   4.571   2.321   2.192
 9393TIP3    H128122   4.526   2.400   2.221
 9393TIP3    H228123   4.650   2.353   2.148
 9394TIP3   OH228124   7.168   6.162   5.162
 9394TIP3    H128125   7.238   6.166   5.227
 9394TIP3    H228126   7.106   6.098   5.196
 9395TIP3   OH228127   0.902   2.340   2.287
 9395TIP3    H128128   0.959   2.396   2.340
 9395TIP3    H228129   0.840   2.302   2.349
 9396TIP3   OH228130   2.381   7.699   0.376
 9396TIP3    H128131   2.453   7.726   0.319
 9396TIP3    H228132   2.409   7.615   0.411
 9397TIP3   OH228133   0.585   3.952   6.099
 9397TIP3    H128134   0.524   3.931   6.028
 9397TIP3    H228135   0.657   3.998   6.056
 9398TIP3   OH228136   7.888   4.451   3.577
 9398TIP3    H128137   7.960   4.391   3.561
 9398TIP3    H228138   7.920   4.510   3.645
 9399TIP3   OH228139   1.785   0.477   1.979
 9399TIP3    H128140   1.868   0.472   2.025
 9399TIP3    H228141   1.805   0.452   1.889
 9400TIP3   OH228142   3.042   7.112   3.733
 9400TIP3    H128143   2.980   7.070   3.673
 9400TIP3    H228144   3.128   7.083   3.702
 9401TIP3   OH228145   5.576   0.580   6.293
 9401TIP3    H128146   5.574   0.660   6.242
 9401TIP3    H228147   5.609   0.513   6.232
 9402TIP3   OH228148   0.365   3.740   1.173
 9402TIP3    H128149   0.278   3.766   1.204
 9402TIP3    H228150   0.390   3.808   1.111
 9403TIP3   OH228151   4.256   1.916   3.518
 9403TIP3    H128152   4.194   1.971   3.470
 9403TIP3    H228153   4.265   1.838   3.463
 9404TIP3   OH228154   7.148   0.296   4.497
 9404TIP3    H128155   7.125   0.205   4.479
 9404TIP3    H228156   7.209   0.292   4.571
 9405TIP3   OH228157   0.923   7.398   2.607
 9405TIP3    H128158   0.926   7.416   2.701
 9405TIP3    H228159   1.006   7.354   2.588
 9406TIP3   OH228160   1.591   3.889   1.556
 9406TIP3    H128161   1.656   3.877   1.487
 9406TIP3    H228162   1.510   3.851   1.520
 9407TIP3   OH228163   8.010   6.584   1.330
 9407TIP3    H128164   7.984   6.634   1.407
 9407TIP3    H228165   8.044   6.650   1.269
 9408TIP3   OH228166   1.745   2.042   3.081
 9408TIP3    H128167   1.660   2.072   3.114
 9408TIP3    H228168   1.808   2.101   3.122
 9409TIP3   OH228169   2.959   7.079   0.047
 9409TIP3    H128170   2.937   7.142  -0.022
 9409TIP3    H228171   2.885   7.019   0.049
 9410TIP3   OH228172   0.758   1.549   6.007
 9410TIP3    H128173   0.781   1.640   5.989
 9410TIP3    H228174   0.841   1.503   6.013
 9411TIP3   OH228175   3.557   1.808   2.466
 9411TIP3    H128176   3.636   1.863   2.463
 9411TIP3    H228177   3.583   1.725   2.427
 9412TIP3   OH228178   3.783   6.309   5.064
 9412TIP3    H128179   3.853   6.254   5.100
 9412TIP3    H228180   3.818   6.340   4.981
 9413TIP3   OH228181   4.332   6.877   0.523
 9413TIP3    H128182   4.306   6.877   0.431
 9413TIP3    H228183   4.336   6.784   0.546
 9414TIP3   OH228184   7.960   7.008   5.278
 9414TIP3    H128185   7.933   7.099   5.262
 9414TIP3    H228186   8.009   7.012   5.360
 9415TIP3   OH228187   4.709   0.185   3.303
 9415TIP3    H128188   4.644   0.135   3.255
 9415TIP3    H228189   4.783   0.194   3.243
 9416TIP3   OH228190   1.808   4.662   1.662
 9416TIP3    H128191   1.798   4.756   1.651
 9416TIP3    H228192   1.736   4.638   1.721
 9417TIP3   OH228193   3.923   7.214   5.160
 9417TIP3    H128194   3.941   7.128   5.197
 9417TIP3    H228195   3.996   7.269   5.188
 9418TIP3   OH228196   1.784   7.817   3.170
 9418TIP3    H128197   1.787   7.763   3.092
 9418TIP3    H228198   1.810   7.759   3.241
 9419TIP3   OH228199   2.676   3.695   0.072
 9419TIP3    H128200   2.665   3.616   0.017
 9419TIP3    H228201   2.602   3.692   0.133
 9420TIP3   OH228202   0.121   2.965   2.589
 9420TIP3    H128203   0.084   3.053   2.573
 9420TIP3    H228204   0.047   2.913   2.619
 9421TIP3   OH228205   7.894   4.885   5.460
 9421TIP3    H128206   7.989   4.894   5.474
 9421TIP3    H228207   7.883   4.897   5.366
 9422TIP3   OH228208   7.110   1.584   3.266
 9422TIP3    H128209   7.123   1.627   3.350
 9422TIP3    H228210   7.196   1.549   3.243
 9423TIP3   OH228211   5.229   5.088   6.442
 9423TIP3    H128212   5.297   5.135   6.394
 9423TIP3    H228213   5.205   5.014   6.386
 9424TIP3   OH228214   4.462   1.777   3.658
 9424TIP3    H128215   4.426   1.834   3.726
 9424TIP3    H228216   4.411   1.797   3.580
 9425TIP3   OH228217   4.380   6.058   5.424
 9425TIP3    H128218   4.453   6.087   5.479
 9425TIP3    H228219   4.326   6.136   5.413
 9426TIP3   OH228220   6.905   4.345   3.660
 9426TIP3    H128221   6.896   4.333   3.755
 9426TIP3    H228222   6.999   4.345   3.645
 9427TIP3   OH228223   7.663   0.383   5.190
 9427TIP3    H128224   7.755   0.372   5.168
 9427TIP3    H228225   7.641   0.471   5.158
 9428TIP3   OH228226   5.517   1.581   1.359
 9428TIP3    H128227   5.559   1.662   1.390
 9428TIP3    H228228   5.443   1.569   1.419
 9429TIP3   OH228229   2.854   1.769   6.585
 9429TIP3    H128230   2.793   1.695   6.578
 9429TIP3    H228231   2.855   1.790   6.678
 9430TIP3   OH228232   0.369   4.987   4.766
 9430TIP3    H128233   0.445   4.949   4.811
 9430TIP3    H228234   0.314   4.911   4.745
 9431TIP3   OH228235   2.544   4.528   6.570
 9431TIP3    H128236   2.460   4.531   6.616
 9431TIP3    H228237   2.592   4.456   6.612
 9432TIP3   OH228238   2.775   2.053   5.101
 9432TIP3    H128239   2.757   1.961   5.086
 9432TIP3    H228240   2.693   2.087   5.139
 9433TIP3   OH228241   2.006   3.327   2.773
 9433TIP3    H128242   1.998   3.231   2.766
 9433TIP3    H228243   2.019   3.356   2.683
 9434TIP3   OH228244   5.698   1.144   1.848
 9434TIP3    H128245   5.626   1.196   1.883
 9434TIP3    H228246   5.703   1.068   1.905
 9435TIP3   OH228247   3.374   6.321   2.162
 9435TIP3    H128248   3.441   6.294   2.098
 9435TIP3    H228249   3.424   6.364   2.231
 9436TIP3   OH228250   3.740   7.073   2.859
 9436TIP3    H128251   3.794   7.024   2.921
 9436TIP3    H228252   3.750   7.164   2.886
 9437TIP3   OH228253   8.112   5.506   0.074
 9437TIP3    H128254   8.025   5.465   0.071
 9437TIP3    H228255   8.096   5.592   0.112
 9438TIP3   OH228256   5.186   3.876   4.964
 9438TIP3    H128257   5.263   3.872   5.020
 9438TIP3    H228258   5.116   3.837   5.016
 9439TIP3   OH228259   6.082   6.353   1.586
 9439TIP3    H128260   6.040   6.269   1.599
 9439TIP3    H228261   6.149   6.337   1.519
 9440TIP3   OH228262   0.473   4.388   2.947
 9440TIP3    H128263   0.505   4.320   2.888
 9440TIP3    H228264   0.478   4.349   3.034
 9441TIP3   OH228265   7.041   0.842   0.520
 9441TIP3    H128266   7.073   0.929   0.497
 9441TIP3    H228267   6.946   0.847   0.507
 9442TIP3   OH228268   6.019   4.625   0.029
 9442TIP3    H128269   5.960   4.575  -0.027
 9442TIP3    H228270   6.105   4.612  -0.010
 9443TIP3   OH228271   6.670   2.186   1.507
 9443TIP3    H128272   6.589   2.149   1.542
 9443TIP3    H228273   6.727   2.110   1.492
 9444TIP3   OH228274   5.516   0.508   2.316
 9444TIP3    H128275   5.581   0.487   2.382
 9444TIP3    H228276   5.497   0.425   2.273
 9445TIP3   OH228277   2.707   4.839   1.460
 9445TIP3    H128278   2.699   4.789   1.379
 9445TIP3    H228279   2.617   4.849   1.491
 9446TIP3   OH228280   5.108   3.163   5.302
 9446TIP3    H128281   5.153   3.129   5.379
 9446TIP3    H228282   5.158   3.129   5.228
 9447TIP3   OH228283   3.937   2.232   6.474
 9447TIP3    H128284   3.874   2.169   6.438
 9447TIP3    H228285   3.982   2.267   6.397
 9448TIP3   OH228286   0.325   0.638   4.728
 9448TIP3    H128287   0.395   0.573   4.725
 9448TIP3    H228288   0.279   0.629   4.645
 9449TIP3   OH228289   7.266   1.153   1.684
 9449TIP3    H128290   7.273   1.152   1.589
 9449TIP3    H228291   7.338   1.209   1.714
 9450TIP3   OH228292   0.319   3.414   0.657
 9450TIP3    H128293   0.353   3.420   0.568
 9450TIP3    H228294   0.389   3.450   0.712
 9451TIP3   OH228295   4.710   2.076   5.004
 9451TIP3    H128296   4.724   2.166   4.976
 9451TIP3    H228297   4.798   2.038   5.007
 9452TIP3   OH228298   0.788   6.447   0.192
 9452TIP3    H128299   0.815   6.404   0.273
 9452TIP3    H228300   0.784   6.377   0.127
 9453TIP3   OH228301   3.049   7.808   4.964
 9453TIP3    H128302   3.097   7.728   4.944
 9453TIP3    H228303   3.007   7.792   5.048
 9454TIP3   OH228304   2.143   5.746   5.105
 9454TIP3    H128305   2.168   5.657   5.082
 9454TIP3    H228306   2.074   5.769   5.042
 9455TIP3   OH228307   6.074   1.142   5.944
 9455TIP3    H128308   6.098   1.230   5.973
 9455TIP3    H228309   6.136   1.122   5.875
 9456TIP3   OH228310   4.272   7.578   2.247
 9456TIP3    H128311   4.262   7.561   2.341
 9456TIP3    H228312   4.290   7.492   2.209
 9457TIP3   OH228313   7.419   2.317   5.143
 9457TIP3    H128314   7.381   2.231   5.126
 9457TIP3    H228315   7.385   2.373   5.074
 9458TIP3   OH228316   1.366   3.529   2.151
 9458TIP3    H128317   1.344   3.453   2.097
 9458TIP3    H228318   1.348   3.604   2.094
 9459TIP3   OH228319   0.600   6.791   3.047
 9459TIP3    H128320   0.617   6.733   2.973
 9459TIP3    H228321   0.672   6.775   3.108
 9460TIP3   OH228322   4.529   3.971   2.311
 9460TIP3    H128323   4.590   4.030   2.353
 9460TIP3    H228324   4.520   3.898   2.373
 9461TIP3   OH228325   2.000   5.227   0.131
 9461TIP3    H128326   1.962   5.158   0.185
 9461TIP3    H228327   2.070   5.183   0.082
 9462TIP3   OH228328   1.500   3.650   0.971
 9462TIP3    H128329   1.561   3.599   1.023
 9462TIP3    H228330   1.496   3.605   0.887
 9463TIP3   OH228331   7.760   3.382   0.359
 9463TIP3    H128332   7.850   3.413   0.366
 9463TIP3    H228333   7.739   3.349   0.447
 9464TIP3   OH228334   0.870   7.671   6.326
 9464TIP3    H128335   0.801   7.641   6.267
 9464TIP3    H228336   0.846   7.636   6.411
 9465TIP3   OH228337   6.572   7.825   3.000
 9465TIP3    H128338   6.563   7.732   3.020
 9465TIP3    H228339   6.503   7.842   2.936
 9466TIP3   OH228340   7.492   7.269   0.131
 9466TIP3    H128341   7.471   7.362   0.133
 9466TIP3    H228342   7.444   7.232   0.206
 9467TIP3   OH228343   3.501   4.754   5.951
 9467TIP3    H128344   3.431   4.699   5.987
 9467TIP3    H228345   3.456   4.834   5.925
 9468TIP3   OH228346   1.795   6.075   3.208
 9468TIP3    H128347   1.850   6.112   3.277
 9468TIP3    H228348   1.857   6.044   3.142
 9469TIP3   OH228349   7.979   7.230   4.598
 9469TIP3    H128350   8.065   7.200   4.627
 9469TIP3    H228351   7.974   7.203   4.507
 9470TIP3   OH228352   2.778   2.809   0.614
 9470TIP3    H128353   2.786   2.855   0.698
 9470TIP3    H228354   2.757   2.878   0.551
 9471TIP3   OH228355   3.731   1.373   2.934
 9471TIP3    H128356   3.814   1.399   2.894
 9471TIP3    H228357   3.682   1.332   2.864
 9472TIP3   OH228358   1.856   6.309   4.211
 9472TIP3    H128359   1.912   6.386   4.212
 9472TIP3    H228360   1.916   6.235   4.201
 9473TIP3   OH228361   4.484   2.857   3.276
 9473TIP3    H128362   4.519   2.829   3.191
 9473TIP3    H228363   4.434   2.781   3.307
 9474TIP3   OH228364   0.387   1.683   4.797
 9474TIP3    H128365   0.473   1.639   4.795
 9474TIP3    H228366   0.363   1.683   4.890
 9475TIP3   OH228367   0.227   5.076   6.071
 9475TIP3    H128368   0.185   5.083   5.985
 9475TIP3    H228369   0.318   5.055   6.051
 9476TIP3   OH228370   2.754   3.335   1.269
 9476TIP3    H128371   2.756   3.271   1.340
 9476TIP3    H228372   2.670   3.381   1.280
 9477TIP3   OH228373   4.981   2.257   3.592
 9477TIP3    H128374   5.045   2.220   3.653
 9477TIP3    H228375   4.971   2.348   3.620
 9478TIP3   OH228376   4.326   5.197   6.385
 9478TIP3    H128377   4.320   5.293   6.383
 9478TIP3    H228378   4.388   5.176   6.314
 9479TIP3   OH228379   3.975   5.191   5.225
 9479TIP3    H128380   3.959   5.153   5.312
 9479TIP3    H228381   3.930   5.132   5.165
 9480TIP3   OH228382   1.204   5.449   3.740
 9480TIP3    H128383   1.252   5.521   3.782
 9480TIP3    H228384   1.113   5.465   3.762
 9481TIP3   OH228385   1.869   3.641   6.500
 9481TIP3    H128386   1.885   3.690   6.419
 9481TIP3    H228387   1.952   3.645   6.547
 9482TIP3   OH228388   6.734   0.406   2.240
 9482TIP3    H128389   6.705   0.444   2.157
 9482TIP3    H228390   6.824   0.438   2.251
 9483TIP3   OH228391   4.385   1.870   2.935
 9483TIP3    H128392   4.328   1.947   2.931
 9483TIP3    H228393   4.458   1.891   2.877
 9484TIP3   OH228394   4.130   4.729   5.905
 9484TIP3    H128395   4.157   4.639   5.927
 9484TIP3    H228396   4.038   4.733   5.928
 9485TIP3   OH228397   0.110   3.446   4.466
 9485TIP3    H128398   0.198   3.415   4.441
 9485TIP3    H228399   0.113   3.450   4.562
 9486TIP3   OH228400   6.874   0.412   3.869
 9486TIP3    H128401   6.860   0.338   3.810
 9486TIP3    H228402   6.886   0.372   3.955
 9487TIP3   OH228403   6.964   6.258   2.224
 9487TIP3    H128404   7.027   6.264   2.295
 9487TIP3    H228405   7.008   6.206   2.157
 9488TIP3   OH228406   7.186   4.716   2.221
 9488TIP3    H128407   7.123   4.786   2.200
 9488TIP3    H228408   7.183   4.708   2.316
 9489TIP3   OH228409   4.164   5.000   0.611
 9489TIP3    H128410   4.225   4.927   0.613
 9489TIP3    H228411   4.194   5.055   0.539
 9490TIP3   OH228412   7.805   3.845   4.104
 9490TIP3    H128413   7.716   3.869   4.077
 9490TIP3    H228414   7.795   3.815   4.194
 9491TIP3   OH228415   0.174   5.833   4.586
 9491TIP3    H128416   0.125   5.810   4.664
 9491TIP3    H228417   0.150   5.766   4.522
 9492TIP3   OH228418   5.071   6.655   4.564
 9492TIP3    H128419   5.115   6.650   4.648
 9492TIP3    H228420   5.133   6.699   4.506
 9493TIP3   OH228421   6.966   0.704   4.139
 9493TIP3    H128422   6.874   0.728   4.151
 9493TIP3    H228423   6.977   0.623   4.189
 9494TIP3   OH228424   0.909   1.431   6.313
 9494TIP3    H128425   0.882   1.523   6.324
 9494TIP3    H228426   0.997   1.428   6.350
 9495TIP3   OH228427   5.285   0.481   1.901
 9495TIP3    H128428   5.233   0.452   1.827
 9495TIP3    H228429   5.267   0.417   1.970
 9496TIP3   OH228430   2.529   2.331   4.960
 9496TIP3    H128431   2.463   2.319   5.028
 9496TIP3    H228432   2.577   2.410   4.987
 9497TIP3   OH228433   3.489   7.840   0.897
 9497TIP3    H128434   3.493   7.773   0.829
 9497TIP3    H228435   3.575   7.835   0.940
 9498TIP3   OH228436   2.730   0.916   6.404
 9498TIP3    H128437   2.796   0.976   6.368
 9498TIP3    H228438   2.646   0.957   6.382
 9499TIP3   OH228439   5.328   4.912   1.408
 9499TIP3    H128440   5.352   4.983   1.349
 9499TIP3    H228441   5.282   4.954   1.480
 9500TIP3   OH228442   6.912   2.906   3.901
 9500TIP3    H128443   6.932   2.880   3.811
 9500TIP3    H228444   6.837   2.852   3.926
 9501TIP3   OH228445   1.396   7.022   4.716
 9501TIP3    H128446   1.478   7.072   4.710
 9501TIP3    H228447   1.369   7.032   4.807
 9502TIP3   OH228448   7.084   6.676   4.230
 9502TIP3    H128449   7.016   6.683   4.163
 9502TIP3    H228450   7.101   6.582   4.236
 9503TIP3   OH228451   0.137   1.917   3.559
 9503TIP3    H128452   0.125   1.858   3.484
 9503TIP3    H228453   0.219   1.888   3.599
 9504TIP3   OH228454   6.015   2.131   4.548
 9504TIP3    H128455   6.008   2.169   4.461
 9504TIP3    H228456   6.107   2.145   4.573
 9505TIP3   OH228457   2.662   0.859   4.586
 9505TIP3    H128458   2.643   0.885   4.495
 9505TIP3    H228459   2.704   0.773   4.578
 9506TIP3   OH228460   0.430   0.740   3.285
 9506TIP3    H128461   0.464   0.750   3.373
 9506TIP3    H228462   0.496   0.688   3.239
 9507TIP3   OH228463   5.727   2.399   1.082
 9507TIP3    H128464   5.818   2.367   1.088
 9507TIP3    H228465   5.733   2.475   1.024
 9508TIP3   OH228466   4.827   6.663   0.511
 9508TIP3    H128467   4.772   6.674   0.434
 9508TIP3    H228468   4.917   6.669   0.477
 9509TIP3   OH228469   0.912   6.924   3.418
 9509TIP3    H128470   1.000   6.945   3.448
 9509TIP3    H228471   0.893   6.989   3.350
 9510TIP3   OH228472   7.546   2.095   0.605
 9510TIP3    H128473   7.608   2.159   0.641
 9510TIP3    H228474   7.524   2.039   0.679
 9511TIP3   OH228475   1.191   0.420   6.568
 9511TIP3    H128476   1.179   0.381   6.481
 9511TIP3    H228477   1.106   0.460   6.588
 9512TIP3   OH228478   6.081   1.967   4.944
 9512TIP3    H128479   6.083   1.934   5.034
 9512TIP3    H228480   6.022   1.907   4.898
 9513TIP3   OH228481   2.784   6.760   3.326
 9513TIP3    H128482   2.749   6.682   3.283
 9513TIP3    H228483   2.707   6.814   3.344
 9514TIP3   OH228484   6.904   0.251   6.356
 9514TIP3    H128485   6.928   0.307   6.282
 9514TIP3    H228486   6.936   0.164   6.331
 9515TIP3   OH228487   5.080   5.034   6.123
 9515TIP3    H128488   5.000   5.078   6.149
 9515TIP3    H228489   5.058   4.941   6.122
 9516TIP3   OH228490   7.207   1.130   6.445
 9516TIP3    H128491   7.270   1.201   6.442
 9516TIP3    H228492   7.126   1.170   6.476
 9517TIP3   OH228493   0.969   3.235   0.852
 9517TIP3    H128494   0.923   3.173   0.796
 9517TIP3    H228495   0.909   3.252   0.924
 9518TIP3   OH228496   1.421   0.284   3.320
 9518TIP3    H128497   1.512   0.261   3.302
 9518TIP3    H228498   1.416   0.378   3.305
 9519TIP3   OH228499   0.256   1.563   2.607
 9519TIP3    H128500   0.253   1.583   2.514
 9519TIP3    H228501   0.319   1.492   2.616
 9520TIP3   OH228502   2.159   4.963   5.305
 9520TIP3    H128503   2.208   5.023   5.249
 9520TIP3    H228504   2.095   4.923   5.246
 9521TIP3   OH228505   6.284   6.598   3.039
 9521TIP3    H128506   6.233   6.650   3.101
 9521TIP3    H228507   6.253   6.626   2.953
 9522TIP3   OH228508   4.579   7.274   1.173
 9522TIP3    H128509   4.561   7.189   1.131
 9522TIP3    H228510   4.493   7.312   1.188
 9523TIP3   OH228511   1.177   1.638   6.376
 9523TIP3    H128512   1.089   1.667   6.355
 9523TIP3    H228513   1.223   1.717   6.403
 9524TIP3   OH228514   5.190   2.733   4.138
 9524TIP3    H128515   5.161   2.825   4.139
 9524TIP3    H228516   5.126   2.688   4.194
 9525TIP3   OH228517   0.579   6.639   4.866
 9525TIP3    H128518   0.582   6.589   4.947
 9525TIP3    H228519   0.601   6.575   4.798
 9526TIP3   OH228520   3.941   5.364   4.679
 9526TIP3    H128521   3.927   5.424   4.606
 9526TIP3    H228522   4.030   5.330   4.665
 9527TIP3   OH228523  -0.004   0.266   0.370
 9527TIP3    H128524   0.061   0.205   0.404
 9527TIP3    H228525   0.048   0.341   0.340
 9528TIP3   OH228526   6.108   5.856   2.051
 9528TIP3    H128527   6.173   5.915   2.012
 9528TIP3    H228528   6.025   5.882   2.010
 9529TIP3   OH228529   5.336   5.257   2.430
 9529TIP3    H128530   5.300   5.181   2.385
 9529TIP3    H228531   5.417   5.277   2.383
 9530TIP3   OH228532   0.585   2.008   4.683
 9530TIP3    H128533   0.592   2.025   4.777
 9530TIP3    H228534   0.509   2.058   4.655
 9531TIP3   OH228535   7.679   6.927   1.150
 9531TIP3    H128536   7.594   6.899   1.186
 9531TIP3    H228537   7.717   6.846   1.115
 9532TIP3   OH228538   6.071   1.516   0.253
 9532TIP3    H128539   6.044   1.475   0.335
 9532TIP3    H228540   6.073   1.444   0.190
 9533TIP3   OH228541   1.715   3.674   3.028
 9533TIP3    H128542   1.752   3.717   3.105
 9533TIP3    H228543   1.765   3.593   3.019
 9534TIP3   OH228544   4.195   4.741   5.644
 9534TIP3    H128545   4.196   4.827   5.603
 9534TIP3    H228546   4.152   4.754   5.728
 9535TIP3   OH228547   5.278   7.176   3.849
 9535TIP3    H128548   5.325   7.259   3.845
 9535TIP3    H228549   5.281   7.143   3.759
 9536TIP3   OH228550   6.100   7.109   0.590
 9536TIP3    H128551   6.050   7.103   0.671
 9536TIP3    H228552   6.041   7.153   0.529
 9537TIP3   OH228553   2.903   1.322   4.075
 9537TIP3    H128554   2.886   1.412   4.050
 9537TIP3    H228555   2.982   1.327   4.130
 9538TIP3   OH228556   6.155   0.338   0.117
 9538TIP3    H128557   6.065   0.325   0.147
 9538TIP3    H228558   6.149   0.344   0.022
 9539TIP3   OH228559   8.160   5.877   2.952
 9539TIP3    H128560   8.167   5.785   2.925
 9539TIP3    H228561   8.071   5.902   2.930
 9540TIP3   OH228562   2.627   5.073   2.166
 9540TIP3    H128563   2.538   5.054   2.137
 9540TIP3    H228564   2.627   5.052   2.260
 9541TIP3   OH228565   2.924   7.659   1.638
 9541TIP3    H128566   2.838   7.624   1.662
 9541TIP3    H228567   2.929   7.742   1.685
 9542TIP3   OH228568   6.413   2.565   1.188
 9542TIP3    H128569   6.352   2.639   1.178
 9542TIP3    H228570   6.487   2.602   1.236
 9543TIP3   OH228571   4.894   7.294   0.391
 9543TIP3    H128572   4.915   7.328   0.304
 9543TIP3    H228573   4.808   7.329   0.411
 9544TIP3   OH228574   2.707   0.526   5.670
 9544TIP3    H128575   2.740   0.502   5.583
 9544TIP3    H228576   2.751   0.608   5.691
 9545TIP3   OH228577   5.663   1.716   1.090
 9545TIP3    H128578   5.757   1.701   1.101
 9545TIP3    H228579   5.622   1.633   1.117
 9546TIP3   OH228580   7.822   3.135   4.926
 9546TIP3    H128581   7.870   3.205   4.971
 9546TIP3    H228582   7.862   3.131   4.839
 9547TIP3   OH228583   2.783   3.218   1.762
 9547TIP3    H128584   2.733   3.163   1.702
 9547TIP3    H228585   2.771   3.307   1.728
 9548TIP3   OH228586   6.263   6.592   2.766
 9548TIP3    H128587   6.285   6.646   2.690
 9548TIP3    H228588   6.187   6.541   2.739
 9549TIP3   OH228589   4.714   2.080   3.720
 9549TIP3    H128590   4.777   2.145   3.751
 9549TIP3    H228591   4.680   2.040   3.799
 9550TIP3   OH228592   5.883   4.468   1.800
 9550TIP3    H128593   5.910   4.440   1.888
 9550TIP3    H228594   5.822   4.541   1.815
 9551TIP3   OH228595   3.833   4.534   3.500
 9551TIP3    H128596   3.738   4.538   3.501
 9551TIP3    H228597   3.857   4.546   3.408
 9552TIP3   OH228598   6.413   5.427   4.423
 9552TIP3    H128599   6.320   5.443   4.404
 9552TIP3    H228600   6.445   5.511   4.456
 9553TIP3   OH228601   3.946   6.946   2.709
 9553TIP3    H128602   3.971   6.873   2.766
 9553TIP3    H228603   3.877   6.992   2.758
 9554TIP3   OH228604   5.711   4.850   5.449
 9554TIP3    H128605   5.637   4.860   5.389
 9554TIP3    H228606   5.784   4.822   5.392
 9555TIP3   OH228607   2.419   4.809   5.887
 9555TIP3    H128608   2.381   4.849   5.965
 9555TIP3    H228609   2.401   4.871   5.817
 9556TIP3   OH228610   2.928   6.454   2.041
 9556TIP3    H128611   2.930   6.436   2.135
 9556TIP3    H228612   2.887   6.540   2.035
 9557TIP3   OH228613   1.525   4.644   4.869
 9557TIP3    H128614   1.447   4.604   4.832
 9557TIP3    H228615   1.533   4.728   4.824
 9558TIP3   OH228616   3.312   7.662   2.990
 9558TIP3    H128617   3.377   7.715   2.945
 9558TIP3    H228618   3.279   7.602   2.923
 9559TIP3   OH228619   3.779   1.493   4.807
 9559TIP3    H128620   3.696   1.504   4.853
 9559TIP3    H228621   3.768   1.413   4.756
 9560TIP3   OH228622   4.869   0.799   3.223
 9560TIP3    H128623   4.915   0.715   3.220
 9560TIP3    H228624   4.924   0.858   3.170
 9561TIP3   OH228625   8.026   5.704   0.812
 9561TIP3    H128626   8.009   5.610   0.819
 9561TIP3    H228627   7.982   5.743   0.887
 9562TIP3   OH228628   4.157   6.732   6.154
 9562TIP3    H128629   4.248   6.754   6.135
 9562TIP3    H228630   4.161   6.644   6.192
 9563TIP3   OH228631   6.478   1.559   1.325
 9563TIP3    H128632   6.480   1.576   1.231
 9563TIP3    H228633   6.456   1.466   1.332
 9564TIP3   OH228634   6.471   6.136   4.290
 9564TIP3    H128635   6.413   6.062   4.310
 9564TIP3    H228636   6.526   6.105   4.219
 9565TIP3   OH228637   5.067   4.391   1.626
 9565TIP3    H128638   5.015   4.449   1.682
 9565TIP3    H228639   5.030   4.402   1.539
 9566TIP3   OH228640   5.050   6.324   5.854
 9566TIP3    H128641   5.128   6.270   5.849
 9566TIP3    H228642   5.048   6.355   5.945
 9567TIP3   OH228643   2.334   7.395   3.173
 9567TIP3    H128644   2.280   7.391   3.252
 9567TIP3    H228645   2.423   7.404   3.205
 9568TIP3   OH228646   1.998   6.862   2.527
 9568TIP3    H128647   1.968   6.911   2.450
 9568TIP3    H228648   2.084   6.829   2.503
 9569TIP3   OH228649   5.360   3.878   5.440
 9569TIP3    H128650   5.270   3.910   5.447
 9569TIP3    H228651   5.380   3.882   5.347
 9570TIP3   OH228652   0.702   4.703   3.856
 9570TIP3    H128653   0.619   4.658   3.871
 9570TIP3    H228654   0.725   4.739   3.942
 9571TIP3   OH228655   2.220   0.969   5.317
 9571TIP3    H128656   2.279   0.974   5.392
 9571TIP3    H228657   2.155   0.903   5.341
 9572TIP3   OH228658   2.441   4.761   1.566
 9572TIP3    H128659   2.360   4.811   1.555
 9572TIP3    H228660   2.442   4.700   1.493
 9573TIP3   OH228661   2.994   6.636   0.573
 9573TIP3    H128662   2.907   6.675   0.580
 9573TIP3    H228663   3.023   6.624   0.664
 9574TIP3   OH228664   2.623   7.534   4.947
 9574TIP3    H128665   2.719   7.532   4.940
 9574TIP3    H228666   2.597   7.443   4.933
 9575TIP3   OH228667   3.888   4.610   0.110
 9575TIP3    H128668   3.837   4.651   0.040
 9575TIP3    H228669   3.911   4.683   0.168
 9576TIP3   OH228670   5.927   0.182   6.720
 9576TIP3    H128671   5.966   0.180   6.632
 9576TIP3    H228672   5.909   0.275   6.736
 9577TIP3   OH228673   6.682   5.397   5.369
 9577TIP3    H128674   6.616   5.463   5.388
 9577TIP3    H228675   6.703   5.410   5.277
 9578TIP3   OH228676   4.814   2.030   1.865
 9578TIP3    H128677   4.759   1.989   1.931
 9578TIP3    H228678   4.902   2.027   1.901
 9579TIP3   OH228679   6.656   6.123   2.021
 9579TIP3    H128680   6.655   6.038   1.978
 9579TIP3    H228681   6.730   6.169   1.980
 9580TIP3   OH228682   1.132   3.331   6.694
 9580TIP3    H128683   1.220   3.365   6.709
 9580TIP3    H228684   1.098   3.382   6.620
 9581TIP3   OH228685   3.070   5.166   1.942
 9581TIP3    H128686   2.994   5.111   1.959
 9581TIP3    H228687   3.136   5.136   2.005
 9582TIP3   OH228688   4.555   3.180   6.395
 9582TIP3    H128689   4.590   3.242   6.458
 9582TIP3    H228690   4.461   3.199   6.392
 9583TIP3   OH228691   3.461   5.460   2.943
 9583TIP3    H128692   3.483   5.390   3.003
 9583TIP3    H228693   3.427   5.530   2.999
 9584TIP3   OH228694   7.299   5.821   4.075
 9584TIP3    H128695   7.312   5.741   4.024
 9584TIP3    H228696   7.226   5.800   4.134
 9585TIP3   OH228697   5.849   2.984   1.529
 9585TIP3    H128698   5.865   2.993   1.622
 9585TIP3    H228699   5.796   2.904   1.521
 9586TIP3   OH228700   0.623   1.922   3.375
 9586TIP3    H128701   0.647   1.882   3.291
 9586TIP3    H228702   0.534   1.955   3.362
 9587TIP3   OH228703   5.955   4.791   2.114
 9587TIP3    H128704   5.918   4.878   2.126
 9587TIP3    H228705   5.996   4.794   2.028
 9588TIP3   OH228706   1.234   1.136   5.420
 9588TIP3    H128707   1.278   1.148   5.336
 9588TIP3    H228708   1.233   1.041   5.435
 9589TIP3   OH228709   4.655   7.791   5.682
 9589TIP3    H128710   4.609   7.731   5.740
 9589TIP3    H228711   4.692   7.734   5.614
 9590TIP3   OH228712   7.851   3.831   2.320
 9590TIP3    H128713   7.906   3.756   2.297
 9590TIP3    H228714   7.908   3.889   2.370
 9591TIP3   OH228715   7.741   2.752   6.244
 9591TIP3    H128716   7.685   2.817   6.202
 9591TIP3    H228717   7.702   2.667   6.221
 9592TIP3   OH228718   5.136   1.011   2.796
 9592TIP3    H128719   5.136   1.106   2.807
 9592TIP3    H228720   5.166   0.977   2.880
 9593TIP3   OH228721   2.646   0.311   2.997
 9593TIP3    H128722   2.597   0.383   2.959
 9593TIP3    H228723   2.587   0.236   2.992
 9594TIP3   OH228724   7.413   2.763   1.446
 9594TIP3    H128725   7.377   2.828   1.506
 9594TIP3    H228726   7.497   2.800   1.418
 9595TIP3   OH228727   1.713   4.108   6.666
 9595TIP3    H128728   1.664   4.041   6.619
 9595TIP3    H228729   1.651   4.181   6.676
 9596TIP3   OH228730   1.878   2.597   3.276
 9596TIP3    H128731   1.955   2.540   3.274
 9596TIP3    H228732   1.889   2.649   3.355
 9597TIP3   OH228733   5.998   5.200   2.463
 9597TIP3    H128734   5.905   5.175   2.467
 9597TIP3    H228735   6.001   5.288   2.501
 9598TIP3   OH228736   7.595   5.577   0.153
 9598TIP3    H128737   7.531   5.584   0.082
 9598TIP3    H228738   7.638   5.493   0.139
 9599TIP3   OH228739   5.042   0.910   3.918
 9599TIP3    H128740   4.947   0.905   3.931
 9599TIP3    H228741   5.079   0.904   4.006
 9600TIP3   OH228742   4.988   5.595   0.066
 9600TIP3    H128743   4.909   5.564   0.110
 9600TIP3    H228744   5.033   5.649   0.131
 9601TIP3   OH228745   5.211   6.551   2.062
 9601TIP3    H128746   5.236   6.497   1.987
 9601TIP3    H228747   5.260   6.633   2.051
 9602TIP3   OH228748   7.507   4.484   5.749
 9602TIP3    H128749   7.524   4.423   5.821
 9602TIP3    H228750   7.560   4.451   5.676
 9603TIP3   OH228751   7.950   5.486   6.619
 9603TIP3    H128752   7.912   5.399   6.603
 9603TIP3    H228753   7.895   5.545   6.568
 9604TIP3   OH228754   3.187   6.943   3.172
 9604TIP3    H128755   3.181   6.870   3.111
 9604TIP3    H228756   3.135   7.012   3.131
 9605TIP3   OH228757   1.695   3.117   1.663
 9605TIP3    H128758   1.769   3.105   1.603
 9605TIP3    H228759   1.706   3.204   1.699
 9606TIP3   OH228760   5.477   6.888   0.818
 9606TIP3    H128761   5.570   6.890   0.841
 9606TIP3    H228762   5.476   6.891   0.722
 9607TIP3   OH228763   1.340   2.776   4.226
 9607TIP3    H128764   1.274   2.785   4.158
 9607TIP3    H228765   1.422   2.801   4.183
 9608TIP3   OH228766   6.782   4.058   5.580
 9608TIP3    H128767   6.856   4.117   5.564
 9608TIP3    H228768   6.774   4.054   5.675
 9609TIP3   OH228769   7.842   2.907   5.967
 9609TIP3    H128770   7.893   2.845   6.019
 9609TIP3    H228771   7.833   2.864   5.882
 9610TIP3   OH228772   2.456   5.626   3.557
 9610TIP3    H128773   2.440   5.563   3.486
 9610TIP3    H228774   2.470   5.709   3.513
 9611TIP3   OH228775   1.661   4.873   1.958
 9611TIP3    H128776   1.716   4.799   1.985
 9611TIP3    H228777   1.682   4.885   1.865
 9612TIP3   OH228778   0.227   0.748   0.835
 9612TIP3    H128779   0.133   0.728   0.834
 9612TIP3    H228780   0.232   0.837   0.872
 9613TIP3   OH228781   3.636   3.754   3.564
 9613TIP3    H128782   3.718   3.793   3.534
 9613TIP3    H228783   3.571   3.783   3.500
 9614TIP3   OH228784   4.744   6.698   2.925
 9614TIP3    H128785   4.713   6.750   2.851
 9614TIP3    H228786   4.768   6.613   2.886
 9615TIP3   OH228787   5.263   0.828   5.880
 9615TIP3    H128788   5.244   0.795   5.793
 9615TIP3    H228789   5.304   0.755   5.925
 9616TIP3   OH228790   3.508   1.438   0.447
 9616TIP3    H128791   3.540   1.465   0.361
 9616TIP3    H228792   3.417   1.413   0.432
 9617TIP3   OH228793   0.039   3.530   3.329
 9617TIP3    H128794  -0.049   3.500   3.355
 9617TIP3    H228795   0.058   3.481   3.249
 9618TIP3   OH228796   6.470   5.370   1.380
 9618TIP3    H128797   6.553   5.418   1.384
 9618TIP3    H228798   6.445   5.358   1.472
 9619TIP3   OH228799   0.425   2.463   1.837
 9619TIP3    H128800   0.426   2.558   1.829
 9619TIP3    H228801   0.471   2.432   1.759
 9620TIP3   OH228802   5.917   4.963   1.004
 9620TIP3    H128803   5.879   5.048   1.023
 9620TIP3    H228804   5.867   4.931   0.929
 9621TIP3   OH228805   0.417   5.847   2.663
 9621TIP3    H128806   0.326   5.837   2.693
 9621TIP3    H228807   0.444   5.932   2.696
 9622TIP3   OH228808   1.195   2.643   1.571
 9622TIP3    H128809   1.203   2.649   1.666
 9622TIP3    H228810   1.216   2.551   1.551
 9623TIP3   OH228811   7.472   2.586   3.234
 9623TIP3    H128812   7.449   2.615   3.146
 9623TIP3    H228813   7.563   2.559   3.228
 9624TIP3   OH228814   0.961   2.057   1.979
 9624TIP3    H128815   0.936   2.144   1.947
 9624TIP3    H228816   0.993   2.012   1.901
 9625TIP3   OH228817   2.689   2.513   5.737
 9625TIP3    H128818   2.606   2.484   5.699
 9625TIP3    H228819   2.741   2.434   5.745
 9626TIP3   OH228820   5.674   4.413   2.491
 9626TIP3    H128821   5.596   4.425   2.437
 9626TIP3    H228822   5.739   4.470   2.452
 9627TIP3   OH228823   5.810  -0.009   4.369
 9627TIP3    H128824   5.728  -0.049   4.398
 9627TIP3    H228825   5.794   0.014   4.277
 9628TIP3   OH228826   1.366   1.283   4.858
 9628TIP3    H128827   1.282   1.330   4.855
 9628TIP3    H228828   1.429   1.344   4.818
 9629TIP3   OH228829   0.153   3.247   0.523
 9629TIP3    H128830   0.203   3.258   0.604
 9629TIP3    H228831   0.216   3.207   0.462
 9630TIP3   OH228832   5.497   3.177   0.985
 9630TIP3    H128833   5.444   3.145   1.058
 9630TIP3    H228834   5.571   3.116   0.981
 9631TIP3   OH228835   4.829   6.715   0.999
 9631TIP3    H128836   4.753   6.662   0.974
 9631TIP3    H228837   4.871   6.737   0.916
 9632TIP3   OH228838   1.070   2.108   2.980
 9632TIP3    H128839   1.010   2.043   2.943
 9632TIP3    H228840   1.034   2.192   2.951
 9633TIP3   OH228841   1.739   4.184   5.738
 9633TIP3    H128842   1.814   4.241   5.720
 9633TIP3    H228843   1.728   4.133   5.658
 9634TIP3   OH228844   5.865   6.952   1.092
 9634TIP3    H128845   5.945   6.907   1.116
 9634TIP3    H228846   5.878   7.043   1.121
 9635TIP3   OH228847   4.655   6.571   3.180
 9635TIP3    H128848   4.618   6.657   3.200
 9635TIP3    H228849   4.716   6.587   3.108
 9636TIP3   OH228850   1.311   7.489   1.859
 9636TIP3    H128851   1.328   7.546   1.785
 9636TIP3    H228852   1.377   7.420   1.853
 9637TIP3   OH228853   8.241   3.147   4.432
 9637TIP3    H128854   8.183   3.220   4.454
 9637TIP3    H228855   8.185   3.070   4.434
 9638TIP3   OH228856   2.484   1.066   6.307
 9638TIP3    H128857   2.419   1.114   6.255
 9638TIP3    H228858   2.503   0.988   6.254
 9639TIP3   OH228859   2.576   6.214   0.186
 9639TIP3    H128860   2.508   6.264   0.230
 9639TIP3    H228861   2.598   6.143   0.247
 9640TIP3   OH228862   3.606   4.066   3.480
 9640TIP3    H128863   3.523   4.113   3.486
 9640TIP3    H228864   3.636   4.081   3.391
 9641TIP3   OH228865   1.105   7.308   1.256
 9641TIP3    H128866   1.021   7.352   1.240
 9641TIP3    H228867   1.087   7.215   1.243
 9642TIP3   OH228868   6.071   6.765   1.180
 9642TIP3    H128869   6.130   6.715   1.126
 9642TIP3    H228870   6.018   6.699   1.226
 9643TIP3   OH228871   0.254   1.763   6.277
 9643TIP3    H128872   0.346   1.777   6.300
 9643TIP3    H228873   0.205   1.810   6.345
 9644TIP3   OH228874   0.468   2.935   3.825
 9644TIP3    H128875   0.478   2.847   3.788
 9644TIP3    H228876   0.432   2.920   3.912
 9645TIP3   OH228877   1.902   3.482   5.878
 9645TIP3    H128878   1.856   3.559   5.844
 9645TIP3    H228879   1.835   3.413   5.879
 9646TIP3   OH228880   7.179   7.620   4.474
 9646TIP3    H128881   7.166   7.702   4.427
 9646TIP3    H228882   7.139   7.554   4.418
 9647TIP3   OH228883   2.899   1.902   3.869
 9647TIP3    H128884   2.819   1.890   3.920
 9647TIP3    H228885   2.869   1.935   3.784
 9648TIP3   OH228886   1.405   2.211   4.421
 9648TIP3    H128887   1.344   2.284   4.435
 9648TIP3    H228888   1.433   2.221   4.330
 9649TIP3   OH228889   6.913   3.374   3.761
 9649TIP3    H128890   6.885   3.414   3.679
 9649TIP3    H228891   6.995   3.330   3.740
 9650TIP3   OH228892   1.997   2.121   6.612
 9650TIP3    H128893   2.010   2.102   6.519
 9650TIP3    H228894   1.972   2.036   6.650
 9651TIP3   OH228895   3.175   6.233   2.857
 9651TIP3    H128896   3.243   6.182   2.900
 9651TIP3    H228897   3.220   6.310   2.823
 9652TIP3   OH228898   3.183   5.940   1.403
 9652TIP3    H128899   3.208   5.973   1.489
 9652TIP3    H228900   3.153   5.850   1.420
 9653TIP3   OH228901   6.487   1.282   5.227
 9653TIP3    H128902   6.575   1.244   5.224
 9653TIP3    H228903   6.498   1.372   5.195
 9654TIP3   OH228904   2.566   2.193   2.272
 9654TIP3    H128905   2.473   2.201   2.249
 9654TIP3    H228906   2.605   2.146   2.198
 9655TIP3   OH228907   5.237   3.662   2.344
 9655TIP3    H128908   5.182   3.729   2.302
 9655TIP3    H228909   5.326   3.684   2.315
 9656TIP3   OH228910   2.673   4.658   0.020
 9656TIP3    H128911   2.724   4.711  -0.042
 9656TIP3    H228912   2.655   4.718   0.093
 9657TIP3   OH228913   3.596   1.032   1.923
 9657TIP3    H128914   3.548   1.012   1.843
 9657TIP3    H228915   3.536   1.086   1.974
 9658TIP3   OH228916   5.816   5.840   1.845
 9658TIP3    H128917   5.800   5.827   1.752
 9658TIP3    H228918   5.874   5.768   1.870
 9659TIP3   OH228919   4.473   1.308   5.792
 9659TIP3    H128920   4.511   1.395   5.782
 9659TIP3    H228921   4.506   1.258   5.717
 9660TIP3   OH228922   5.853   2.032   3.938
 9660TIP3    H128923   5.792   2.102   3.915
 9660TIP3    H228924   5.797   1.956   3.955
 9661TIP3   OH228925   5.237   6.948   2.415
 9661TIP3    H128926   5.231   7.007   2.340
 9661TIP3    H228927   5.186   6.871   2.389
 9662TIP3   OH228928   0.945   4.294   1.478
 9662TIP3    H128929   0.977   4.204   1.466
 9662TIP3    H228930   0.960   4.313   1.570
 9663TIP3   OH228931   4.945   6.880   3.987
 9663TIP3    H128932   4.913   6.929   3.911
 9663TIP3    H228933   5.031   6.918   4.006
 9664TIP3   OH228934   4.491   5.135   0.708
 9664TIP3    H128935   4.502   5.080   0.630
 9664TIP3    H228936   4.488   5.224   0.675
 9665TIP3   OH228937   6.780   1.570   1.881
 9665TIP3    H128938   6.839   1.531   1.946
 9665TIP3    H228939   6.824   1.650   1.854
 9666TIP3   OH228940   2.897   5.917   5.678
 9666TIP3    H128941   2.871   5.833   5.639
 9666TIP3    H228942   2.814   5.958   5.701
 9667TIP3   OH228943   8.049   2.871   3.419
 9667TIP3    H128944   7.994   2.796   3.396
 9667TIP3    H228945   8.014   2.901   3.503
 9668TIP3   OH228946   6.592   6.349   3.845
 9668TIP3    H128947   6.612   6.257   3.865
 9668TIP3    H228948   6.503   6.347   3.810
 9669TIP3   OH228949   3.474   0.938   1.690
 9669TIP3    H128950   3.490   0.845   1.674
 9669TIP3    H228951   3.474   0.978   1.603
 9670TIP3   OH228952   1.943   6.849   4.544
 9670TIP3    H128953   1.943   6.909   4.470
 9670TIP3    H228954   1.876   6.883   4.603
 9671TIP3   OH228955   7.882   5.324   0.198
 9671TIP3    H128956   7.882   5.328   0.294
 9671TIP3    H228957   7.791   5.308   0.175
 9672TIP3   OH228958   1.792   4.940   4.424
 9672TIP3    H128959   1.797   4.852   4.387
 9672TIP3    H228960   1.838   4.933   4.508
 9673TIP3   OH228961   0.796   5.326   5.954
 9673TIP3    H128962   0.715   5.357   5.913
 9673TIP3    H228963   0.774   5.318   6.047
 9674TIP3   OH228964   3.736   7.633   4.265
 9674TIP3    H128965   3.690   7.714   4.287
 9674TIP3    H228966   3.828   7.651   4.284
 9675TIP3   OH228967   6.646   0.222   1.812
 9675TIP3    H128968   6.666   0.136   1.775
 9675TIP3    H228969   6.725   0.274   1.797
 9676TIP3   OH228970   4.442   1.351   0.667
 9676TIP3    H128971   4.413   1.414   0.602
 9676TIP3    H228972   4.535   1.338   0.649
 9677TIP3   OH228973   0.332   7.801   2.637
 9677TIP3    H128974   0.326   7.706   2.652
 9677TIP3    H228975   0.406   7.812   2.579
 9678TIP3   OH228976   1.812   4.825   1.285
 9678TIP3    H128977   1.770   4.816   1.199
 9678TIP3    H228978   1.903   4.846   1.265
 9679TIP3   OH228979   5.944   7.265   4.010
 9679TIP3    H128980   5.962   7.192   3.950
 9679TIP3    H228981   5.911   7.335   3.953
 9680TIP3   OH228982   7.489   1.422   2.256
 9680TIP3    H128983   7.418   1.466   2.303
 9680TIP3    H228984   7.567   1.442   2.307
 9681TIP3   OH228985   1.720   1.287   6.223
 9681TIP3    H128986   1.753   1.323   6.306
 9681TIP3    H228987   1.698   1.363   6.171
 9682TIP3   OH228988   4.766   2.858   3.534
 9682TIP3    H128989   4.846   2.910   3.524
 9682TIP3    H228990   4.709   2.888   3.463
 9683TIP3   OH228991   6.975   3.855   0.798
 9683TIP3    H128992   6.991   3.837   0.891
 9683TIP3    H228993   6.916   3.930   0.797
 9684TIP3   OH228994   7.821   7.040   2.623
 9684TIP3    H128995   7.808   7.067   2.532
 9684TIP3    H228996   7.911   7.008   2.626
 9685TIP3   OH228997   1.864   6.444   3.874
 9685TIP3    H128998   1.867   6.426   3.780
 9685TIP3    H228999   1.913   6.372   3.913
 9686TIP3   OH229000   2.490   2.914   5.476
 9686TIP3    H129001   2.505   2.944   5.386
 9686TIP3    H229002   2.560   2.954   5.527
 9687TIP3   OH229003   3.708   5.814   0.956
 9687TIP3    H129004   3.754   5.856   0.883
 9687TIP3    H229005   3.640   5.877   0.980
 9688TIP3   OH229006   6.518   6.404   4.235
 9688TIP3    H129007   6.438   6.381   4.187
 9688TIP3    H229008   6.525   6.337   4.303
 9689TIP3   OH229009   2.945   6.314   1.141
 9689TIP3    H129010   2.946   6.405   1.168
 9689TIP3    H229011   2.979   6.266   1.217
 9690TIP3   OH229012   0.359   5.021   3.038
 9690TIP3    H129013   0.425   4.953   3.025
 9690TIP3    H229014   0.384   5.062   3.121
 9691TIP3   OH229015   7.522   0.709   1.793
 9691TIP3    H129016   7.481   0.756   1.720
 9691TIP3    H229017   7.601   0.670   1.755
 9692TIP3   OH229018   7.702   5.333   3.691
 9692TIP3    H129019   7.703   5.417   3.738
 9692TIP3    H229020   7.773   5.283   3.730
 9693TIP3   OH229021   4.064   6.788   6.423
 9693TIP3    H129022   4.089   6.878   6.444
 9693TIP3    H229023   4.088   6.777   6.331
 9694TIP3   OH229024   2.112   1.976   2.468
 9694TIP3    H129025   2.063   2.050   2.432
 9694TIP3    H229026   2.049   1.904   2.467
 9695TIP3   OH229027   8.164   3.868   6.706
 9695TIP3    H129028   8.220   3.934   6.666
 9695TIP3    H229029   8.097   3.850   6.639
 9696TIP3   OH229030   1.273   1.454   2.605
 9696TIP3    H129031   1.211   1.394   2.646
 9696TIP3    H229032   1.356   1.437   2.649
 9697TIP3   OH229033   6.056   6.368   0.751
 9697TIP3    H129034   6.137   6.418   0.740
 9697TIP3    H229035   6.013   6.372   0.665
 9698TIP3   OH229036   0.699   3.956   0.373
 9698TIP3    H129037   0.646   3.962   0.294
 9698TIP3    H229038   0.641   3.982   0.444
 9699TIP3   OH229039   0.129   4.742   5.610
 9699TIP3    H129040   0.137   4.753   5.515
 9699TIP3    H229041   0.211   4.776   5.645
 9700TIP3   OH229042   8.006   2.023   1.703
 9700TIP3    H129043   7.969   2.092   1.758
 9700TIP3    H229044   8.001   1.944   1.757
 9701TIP3   OH229045   7.902   6.365   0.518
 9701TIP3    H129046   7.866   6.451   0.499
 9701TIP3    H229047   7.939   6.374   0.606
 9702TIP3   OH229048   8.178   7.345   0.941
 9702TIP3    H129049   8.106   7.341   0.877
 9702TIP3    H229050   8.135   7.328   1.026
 9703TIP3   OH229051   7.757   1.446   3.458
 9703TIP3    H129052   7.795   1.464   3.544
 9703TIP3    H229053   7.809   1.372   3.425
 9704TIP3   OH229054   0.638   1.635   2.582
 9704TIP3    H129055   0.653   1.679   2.499
 9704TIP3    H229056   0.726   1.621   2.618
 9705TIP3   OH229057   5.486   6.060   2.648
 9705TIP3    H129058   5.430   6.098   2.715
 9705TIP3    H229059   5.495   6.129   2.582
 9706TIP3   OH229060   3.978   2.485   2.162
 9706TIP3    H129061   4.017   2.511   2.078
 9706TIP3    H229062   3.951   2.394   2.150
 9707TIP3   OH229063   4.939   3.560   1.149
 9707TIP3    H129064   5.013   3.603   1.107
 9707TIP3    H229065   4.890   3.630   1.191
 9708TIP3   OH229066   1.612   6.821   0.528
 9708TIP3    H129067   1.640   6.905   0.565
 9708TIP3    H229068   1.663   6.756   0.576
 9709TIP3   OH229069   1.027   1.311   0.023
 9709TIP3    H129070   0.962   1.375  -0.006
 9709TIP3    H229071   1.036   1.327   0.117
 9710TIP3   OH229072   3.349   7.397   4.389
 9710TIP3    H129073   3.434   7.382   4.346
 9710TIP3    H229074   3.350   7.490   4.411
 9711TIP3   OH229075   0.245   1.175   1.008
 9711TIP3    H129076   0.278   1.091   0.975
 9711TIP3    H229077   0.295   1.190   1.088
 9712TIP3   OH229078   7.367   2.107   2.861
 9712TIP3    H129079   7.369   2.166   2.785
 9712TIP3    H229080   7.324   2.028   2.829
 9713TIP3   OH229081   4.594   7.093   3.968
 9713TIP3    H129082   4.585   7.094   4.063
 9713TIP3    H229083   4.597   7.186   3.944
 9714TIP3   OH229084   0.611   7.226   6.464
 9714TIP3    H129085   0.586   7.155   6.406
 9714TIP3    H229086   0.680   7.273   6.417
 9715TIP3   OH229087   6.877   0.512   3.288
 9715TIP3    H129088   6.899   0.482   3.200
 9715TIP3    H229089   6.867   0.607   3.280
 9716TIP3   OH229090   6.480   3.216   2.121
 9716TIP3    H129091   6.488   3.270   2.043
 9716TIP3    H229092   6.467   3.279   2.192
 9717TIP3   OH229093   8.193   6.117   0.216
 9717TIP3    H129094   8.254   6.154   0.281
 9717TIP3    H229095   8.132   6.065   0.268
 9718TIP3   OH229096   3.076   1.957   5.134
 9718TIP3    H129097   3.139   1.917   5.073
 9718TIP3    H229098   3.039   2.030   5.084
 9719TIP3   OH229099   3.144   6.602   4.933
 9719TIP3    H129100   3.189   6.519   4.947
 9719TIP3    H229101   3.208   6.669   4.955
 9720TIP3   OH229102   0.740   2.005   2.153
 9720TIP3    H129103   0.674   2.042   2.095
 9720TIP3    H229104   0.819   1.999   2.100
 9721TIP3   OH229105   4.805   2.332   3.834
 9721TIP3    H129106   4.895   2.360   3.850
 9721TIP3    H229107   4.757   2.358   3.912
 9722TIP3   OH229108   2.511   0.519   2.857
 9722TIP3    H129109   2.508   0.501   2.763
 9722TIP3    H229110   2.429   0.482   2.891
 9723TIP3   OH229111   5.817   5.521   1.595
 9723TIP3    H129112   5.779   5.436   1.573
 9723TIP3    H229113   5.911   5.508   1.585
 9724TIP3   OH229114   8.041   2.137   0.257
 9724TIP3    H129115   8.090   2.109   0.334
 9724TIP3    H229116   7.949   2.131   0.284
 9725TIP3   OH229117   0.337   1.608   4.199
 9725TIP3    H129118   0.422   1.616   4.156
 9725TIP3    H229119   0.282   1.561   4.136
 9726TIP3   OH229120   1.991   0.987   1.672
 9726TIP3    H129121   1.956   0.929   1.740
 9726TIP3    H229122   2.076   0.949   1.650
 9727TIP3   OH229123   3.313   6.874   6.736
 9727TIP3    H129124   3.260   6.795   6.743
 9727TIP3    H229125   3.253   6.941   6.704
 9728TIP3   OH229126   1.275   3.589   0.758
 9728TIP3    H129127   1.277   3.637   0.841
 9728TIP3    H229128   1.341   3.521   0.767
 9729TIP3   OH229129   4.650   4.757   0.016
 9729TIP3    H129130   4.617   4.787   0.100
 9729TIP3    H229131   4.573   4.720  -0.028
 9730TIP3   OH229132   4.453   2.376   0.411
 9730TIP3    H129133   4.448   2.337   0.498
 9730TIP3    H229134   4.544   2.362   0.384
 9731TIP3   OH229135   4.213   1.524   2.067
 9731TIP3    H129136   4.283   1.518   2.001
 9731TIP3    H229137   4.209   1.436   2.105
 9732TIP3   OH229138   0.354   3.370   3.501
 9732TIP3    H129139   0.328   3.294   3.552
 9732TIP3    H229140   0.441   3.392   3.533
 9733TIP3   OH229141   1.526   5.727   6.743
 9733TIP3    H129142   1.477   5.807   6.764
 9733TIP3    H229143   1.594   5.756   6.682
 9734TIP3   OH229144   4.996   4.832   4.688
 9734TIP3    H129145   4.999   4.819   4.783
 9734TIP3    H229146   4.961   4.920   4.678
 9735TIP3   OH229147   7.659   4.341   6.333
 9735TIP3    H129148   7.733   4.395   6.304
 9735TIP3    H229149   7.637   4.287   6.257
 9736TIP3   OH229150   4.123   4.726   0.961
 9736TIP3    H129151   4.172   4.645   0.948
 9736TIP3    H229152   4.090   4.747   0.873
 9737TIP3   OH229153   3.125   3.415   6.526
 9737TIP3    H129154   3.051   3.389   6.581
 9737TIP3    H229155   3.086   3.432   6.440
 9738TIP3   OH229156   2.131   4.366   5.845
 9738TIP3    H129157   2.105   4.436   5.905
 9738TIP3    H229158   2.185   4.307   5.897
 9739TIP3   OH229159   1.545   7.511   4.685
 9739TIP3    H129160   1.501   7.595   4.671
 9739TIP3    H229161   1.476   7.446   4.677
 9740TIP3   OH229162   2.185   3.126   1.740
 9740TIP3    H129163   2.254   3.191   1.753
 9740TIP3    H229164   2.108   3.177   1.713
 9741TIP3   OH229165   1.103   3.250   1.845
 9741TIP3    H129166   1.150   3.168   1.857
 9741TIP3    H229167   1.047   3.235   1.769
 9742TIP3   OH229168   5.657   3.603   3.249
 9742TIP3    H129169   5.625   3.519   3.283
 9742TIP3    H229170   5.624   3.668   3.310
 9743TIP3   OH229171   1.115   7.468   6.653
 9743TIP3    H129172   1.187   7.531   6.657
 9743TIP3    H229173   1.121   7.420   6.736
 9744TIP3   OH229174   2.354   4.531   3.569
 9744TIP3    H129175   2.353   4.518   3.663
 9744TIP3    H229176   2.442   4.502   3.542
 9745TIP3   OH229177   8.215   6.067   3.460
 9745TIP3    H129178   8.165   5.998   3.504
 9745TIP3    H229179   8.292   6.023   3.425
 9746TIP3   OH229180   0.325   4.657   3.944
 9746TIP3    H129181   0.327   4.752   3.960
 9746TIP3    H229182   0.378   4.645   3.865
 9747TIP3   OH229183   0.074   0.323   4.977
 9747TIP3    H129184   0.086   0.403   5.028
 9747TIP3    H229185   0.066   0.354   4.887
 9748TIP3   OH229186   7.476   5.359   1.606
 9748TIP3    H129187   7.538   5.414   1.560
 9748TIP3    H229188   7.442   5.415   1.676
 9749TIP3   OH229189   0.501   6.024   5.721
 9749TIP3    H129190   0.574   6.021   5.782
 9749TIP3    H229191   0.542   6.033   5.635
 9750TIP3   OH229192   6.437   7.712   0.621
 9750TIP3    H129193   6.403   7.690   0.708
 9750TIP3    H229194   6.470   7.801   0.629
 9751TIP3   OH229195   4.795   0.927   4.011
 9751TIP3    H129196   4.774   1.011   4.053
 9751TIP3    H229197   4.713   0.898   3.972
 9752TIP3   OH229198   6.995   6.531   2.185
 9752TIP3    H129199   7.091   6.535   2.184
 9752TIP3    H229200   6.975   6.439   2.168
 9753TIP3   OH229201   5.105   5.878   2.881
 9753TIP3    H129202   5.139   5.867   2.970
 9753TIP3    H229203   5.066   5.966   2.881
 9754TIP3   OH229204   6.103   5.483   3.166
 9754TIP3    H129205   6.194   5.479   3.137
 9754TIP3    H229206   6.065   5.556   3.118
 9755TIP3   OH229207   7.614   2.268   0.985
 9755TIP3    H129208   7.585   2.348   0.942
 9755TIP3    H229209   7.533   2.225   1.012
 9756TIP3   OH229210   1.569   4.127   0.508
 9756TIP3    H129211   1.587   4.049   0.560
 9756TIP3    H229212   1.526   4.095   0.429
 9757TIP3   OH229213   4.014   0.293   2.972
 9757TIP3    H129214   4.009   0.261   2.882
 9757TIP3    H229215   3.931   0.338   2.987
 9758TIP3   OH229216   5.664   6.437   4.859
 9758TIP3    H129217   5.754   6.406   4.855
 9758TIP3    H229218   5.616   6.367   4.903
 9759TIP3   OH229219   6.932   1.117   5.826
 9759TIP3    H129220   6.945   1.073   5.910
 9759TIP3    H229221   7.010   1.170   5.813
 9760TIP3   OH229222   4.529   1.372   3.238
 9760TIP3    H129223   4.518   1.456   3.192
 9760TIP3    H229224   4.447   1.360   3.285
 9761TIP3   OH229225   3.716   7.395   0.484
 9761TIP3    H129226   3.786   7.330   0.473
 9761TIP3    H229227   3.637   7.349   0.457
 9762TIP3   OH229228   6.037   1.832   5.711
 9762TIP3    H129229   6.062   1.896   5.645
 9762TIP3    H229230   5.965   1.872   5.758
 9763TIP3   OH229231   8.013   1.793   0.975
 9763TIP3    H129232   8.018   1.856   1.047
 9763TIP3    H229233   8.096   1.745   0.979
 9764TIP3   OH229234   6.859   2.461   5.784
 9764TIP3    H129235   6.846   2.374   5.748
 9764TIP3    H229236   6.911   2.448   5.863
 9765TIP3   OH229237   2.284   5.248   1.536
 9765TIP3    H129238   2.261   5.290   1.619
 9765TIP3    H229239   2.264   5.315   1.469
 9766TIP3   OH229240   1.101   3.248   4.486
 9766TIP3    H129241   1.067   3.236   4.575
 9766TIP3    H229242   1.024   3.241   4.430
 9767TIP3   OH229243   1.241   7.196   0.199
 9767TIP3    H129244   1.267   7.255   0.270
 9767TIP3    H229245   1.322   7.179   0.150
 9768TIP3   OH229246   3.861   4.167   0.842
 9768TIP3    H129247   3.768   4.146   0.847
 9768TIP3    H229248   3.864   4.261   0.825
 9769TIP3   OH229249   5.394   7.220   2.336
 9769TIP3    H129250   5.304   7.243   2.315
 9769TIP3    H229251   5.447   7.274   2.278
 9770TIP3   OH229252   4.603   3.512   2.351
 9770TIP3    H129253   4.546   3.577   2.394
 9770TIP3    H229254   4.628   3.452   2.422
 9771TIP3   OH229255   0.773   0.838   5.551
 9771TIP3    H129256   0.836   0.899   5.589
 9771TIP3    H229257   0.818   0.753   5.550
 9772TIP3   OH229258   7.280   4.059   0.656
 9772TIP3    H129259   7.220   4.011   0.600
 9772TIP3    H229260   7.291   4.144   0.613
 9773TIP3   OH229261   4.804   7.718   2.218
 9773TIP3    H129262   4.754   7.655   2.167
 9773TIP3    H229263   4.788   7.802   2.176
 9774TIP3   OH229264   6.946   4.901   4.646
 9774TIP3    H129265   7.032   4.940   4.664
 9774TIP3    H229266   6.914   4.949   4.569
 9775TIP3   OH229267   4.725   4.247   2.875
 9775TIP3    H129268   4.723   4.218   2.966
 9775TIP3    H229269   4.662   4.190   2.830
 9776TIP3   OH229270   2.399   6.750   1.635
 9776TIP3    H129271   2.397   6.845   1.646
 9776TIP3    H229272   2.357   6.736   1.550
 9777TIP3   OH229273   1.453   5.819   1.018
 9777TIP3    H129274   1.517   5.874   1.063
 9777TIP3    H229275   1.375   5.823   1.073
 9778TIP3   OH229276   3.365   7.611   1.263
 9778TIP3    H129277   3.307   7.687   1.255
 9778TIP3    H229278   3.407   7.622   1.348
 9779TIP3   OH229279   6.385   6.633   4.128
 9779TIP3    H129280   6.426   6.558   4.170
 9779TIP3    H229281   6.430   6.709   4.166
 9780TIP3   OH229282   7.489  -0.005   0.260
 9780TIP3    H129283   7.412   0.040   0.296
 9780TIP3    H229284   7.508   0.042   0.178
 9781TIP3   OH229285   3.231   3.002   3.577
 9781TIP3    H129286   3.177   2.926   3.553
 9781TIP3    H229287   3.319   2.979   3.547
 9782TIP3   OH229288   5.120   6.600   5.597
 9782TIP3    H129289   5.027   6.607   5.574
 9782TIP3    H229290   5.120   6.546   5.676
 9783TIP3   OH229291   0.307   0.667   1.369
 9783TIP3    H129292   0.359   0.600   1.412
 9783TIP3    H229293   0.286   0.730   1.438
 9784TIP3   OH229294   6.974   4.496   5.223
 9784TIP3    H129295   7.066   4.471   5.229
 9784TIP3    H229296   6.973   4.568   5.160
 9785TIP3   OH229297   2.543   1.202   1.222
 9785TIP3    H129298   2.557   1.271   1.157
 9785TIP3    H229299   2.488   1.138   1.178
 9786TIP3   OH229300   6.972   6.908   4.006
 9786TIP3    H129301   6.897   6.962   4.033
 9786TIP3    H229302   6.941   6.818   4.014
 9787TIP3   OH229303   3.853   7.097   1.982
 9787TIP3    H129304   3.764   7.101   2.016
 9787TIP3    H229305   3.908   7.123   2.056
 9788TIP3   OH229306   0.670   1.712   5.607
 9788TIP3    H129307   0.758   1.681   5.631
 9788TIP3    H229308   0.615   1.634   5.611
 9789TIP3   OH229309   7.596   6.870   1.560
 9789TIP3    H129310   7.576   6.963   1.571
 9789TIP3    H229311   7.619   6.862   1.467
 9790TIP3   OH229312   8.052   0.982   4.544
 9790TIP3    H129313   8.092   0.899   4.519
 9790TIP3    H229314   8.108   1.016   4.613
 9791TIP3   OH229315   2.091   3.992   4.827
 9791TIP3    H129316   2.014   3.997   4.770
 9791TIP3    H229317   2.078   3.911   4.878
 9792TIP3   OH229318   7.212   1.543   2.776
 9792TIP3    H129319   7.230   1.459   2.735
 9792TIP3    H229320   7.286   1.557   2.834
 9793TIP3   OH229321   4.782   3.331   1.366
 9793TIP3    H129322   4.779   3.426   1.354
 9793TIP3    H229323   4.690   3.306   1.379
 9794TIP3   OH229324   5.819   1.349   4.600
 9794TIP3    H129325   5.889   1.326   4.539
 9794TIP3    H229326   5.769   1.268   4.611
 9795TIP3   OH229327   6.846   4.930   3.273
 9795TIP3    H129328   6.874   4.839   3.262
 9795TIP3    H229329   6.927   4.981   3.266
 9796TIP3   OH229330   4.828   6.180   1.334
 9796TIP3    H129331   4.828   6.093   1.293
 9796TIP3    H229332   4.821   6.163   1.428
 9797TIP3   OH229333   3.889   3.298   1.233
 9797TIP3    H129334   3.966   3.354   1.226
 9797TIP3    H229335   3.891   3.245   1.153
 9798TIP3   OH229336   6.217   0.641   5.870
 9798TIP3    H129337   6.242   0.564   5.818
 9798TIP3    H229338   6.196   0.606   5.956
 9799TIP3   OH229339   7.065   7.681   2.296
 9799TIP3    H129340   7.114   7.657   2.375
 9799TIP3    H229341   6.973   7.681   2.325
 9800TIP3   OH229342   3.989   4.279   0.313
 9800TIP3    H129343   3.949   4.234   0.238
 9800TIP3    H229344   3.923   4.273   0.383
 9801TIP3   OH229345   4.948   0.302   4.650
 9801TIP3    H129346   5.001   0.379   4.666
 9801TIP3    H229347   4.864   0.336   4.619
 9802TIP3   OH229348   4.779   1.869   4.646
 9802TIP3    H129349   4.719   1.795   4.646
 9802TIP3    H229350   4.866   1.828   4.645
 9803TIP3   OH229351   4.517   4.708   4.006
 9803TIP3    H129352   4.599   4.665   3.981
 9803TIP3    H229353   4.448   4.656   3.965
 9804TIP3   OH229354   3.519   2.366   4.504
 9804TIP3    H129355   3.442   2.348   4.558
 9804TIP3    H229356   3.517   2.299   4.436
 9805TIP3   OH229357   3.367   0.745   5.420
 9805TIP3    H129358   3.276   0.768   5.404
 9805TIP3    H229359   3.417   0.801   5.361
 9806TIP3   OH229360   1.988   4.497   3.931
 9806TIP3    H129361   1.993   4.518   3.838
 9806TIP3    H229362   1.979   4.402   3.934
 9807TIP3   OH229363   3.492   0.787   5.754
 9807TIP3    H129364   3.524   0.744   5.675
 9807TIP3    H229365   3.566   0.783   5.815
 9808TIP3   OH229366   7.731   2.671   2.516
 9808TIP3    H129367   7.720   2.766   2.514
 9808TIP3    H229368   7.645   2.636   2.539
 9809TIP3   OH229369   1.432   2.366   0.497
 9809TIP3    H129370   1.359   2.306   0.483
 9809TIP3    H229371   1.396   2.453   0.477
 9810TIP3   OH229372   7.005   7.473   5.202
 9810TIP3    H129373   7.095   7.453   5.229
 9810TIP3    H229374   7.011   7.561   5.164
 9811TIP3   OH229375   2.229   4.151   1.850
 9811TIP3    H129376   2.186   4.233   1.875
 9811TIP3    H229377   2.164   4.083   1.871
 9812TIP3   OH229378   5.138   7.636   5.634
 9812TIP3    H129379   5.149   7.629   5.729
 9812TIP3    H229380   5.089   7.558   5.610
 9813TIP3   OH229381   4.961   1.457   4.688
 9813TIP3    H129382   5.053   1.466   4.664
 9813TIP3    H229383   4.935   1.544   4.718
 9814TIP3   OH229384   5.340   0.072   2.787
 9814TIP3    H129385   5.360   0.009   2.856
 9814TIP3    H229386   5.378   0.034   2.708
 9815TIP3   OH229387   4.630   1.581   0.390
 9815TIP3    H129388   4.575   1.656   0.365
 9815TIP3    H229389   4.691   1.616   0.454
 9816TIP3   OH229390   2.410   7.499   0.688
 9816TIP3    H129391   2.386   7.580   0.731
 9816TIP3    H229392   2.470   7.456   0.749
 9817TIP3   OH229393   2.281   6.249   4.911
 9817TIP3    H129394   2.197   6.291   4.890
 9817TIP3    H229395   2.275   6.229   5.004
 9818TIP3   OH229396   2.810   1.998   4.567
 9818TIP3    H129397   2.771   2.058   4.630
 9818TIP3    H229398   2.743   1.989   4.498
 9819TIP3   OH229399   5.736   5.812   0.393
 9819TIP3    H129400   5.691   5.734   0.424
 9819TIP3    H229401   5.823   5.809   0.434
 9820TIP3   OH229402   3.862   1.684   4.481
 9820TIP3    H129403   3.865   1.591   4.506
 9820TIP3    H229404   3.819   1.685   4.396
 9821TIP3   OH229405   6.187   4.771   0.721
 9821TIP3    H129406   6.094   4.789   0.734
 9821TIP3    H229407   6.220   4.848   0.676
 9822TIP3   OH229408   3.920   0.234   6.317
 9822TIP3    H129409   3.899   0.325   6.339
 9822TIP3    H229410   4.005   0.219   6.359
 9823TIP3   OH229411   5.569   3.207   2.985
 9823TIP3    H129412   5.536   3.186   3.072
 9823TIP3    H229413   5.521   3.148   2.926
 9824TIP3   OH229414   7.255   6.861   0.937
 9824TIP3    H129415   7.214   6.940   0.904
 9824TIP3    H229416   7.229   6.856   1.029
 9825TIP3   OH229417   2.257   0.370   3.716
 9825TIP3    H129418   2.231   0.444   3.661
 9825TIP3    H229419   2.346   0.349   3.688
 9826TIP3   OH229420   4.784   2.550   2.986
 9826TIP3    H129421   4.869   2.594   2.978
 9826TIP3    H229422   4.748   2.583   3.068
 9827TIP3   OH229423   7.835   5.925   4.582
 9827TIP3    H129424   7.845   5.928   4.677
 9827TIP3    H229425   7.740   5.933   4.567
 9828TIP3   OH229426   1.842   1.525   0.817
 9828TIP3    H129427   1.768   1.465   0.803
 9828TIP3    H229428   1.836   1.550   0.909
 9829TIP3   OH229429   2.999   5.024   2.510
 9829TIP3    H129430   3.004   5.098   2.450
 9829TIP3    H229431   3.091   5.000   2.526
 9830TIP3   OH229432   4.046   7.142   2.175
 9830TIP3    H129433   4.118   7.142   2.112
 9830TIP3    H229434   4.084   7.103   2.254
 9831TIP3   OH229435   1.774   0.397   1.346
 9831TIP3    H129436   1.869   0.405   1.353
 9831TIP3    H229437   1.760   0.315   1.299
 9832TIP3   OH229438   1.237   7.156   1.655
 9832TIP3    H129439   1.212   7.069   1.623
 9832TIP3    H229440   1.169   7.178   1.719
 9833TIP3   OH229441   4.322   3.810   0.092
 9833TIP3    H129442   4.371   3.835   0.014
 9833TIP3    H229443   4.362   3.860   0.163
 9834TIP3   OH229444   5.011   1.727   0.287
 9834TIP3    H129445   5.038   1.694   0.202
 9834TIP3    H229446   4.968   1.653   0.330
 9835TIP3   OH229447   4.849   7.376   1.722
 9835TIP3    H129448   4.883   7.445   1.778
 9835TIP3    H229449   4.896   7.387   1.639
 9836TIP3   OH229450   1.877   4.505   5.740
 9836TIP3    H129451   1.927   4.446   5.683
 9836TIP3    H229452   1.895   4.474   5.829
 9837TIP3   OH229453   7.332   5.294   2.835
 9837TIP3    H129454   7.350   5.386   2.816
 9837TIP3    H229455   7.416   5.260   2.867
 9838TIP3   OH229456   1.359   3.975   6.626
 9838TIP3    H129457   1.433   3.960   6.566
 9838TIP3    H229458   1.330   3.887   6.651
 9839TIP3   OH229459   5.066   4.451   4.483
 9839TIP3    H129460   5.117   4.415   4.411
 9839TIP3    H229461   5.095   4.401   4.560
 9840TIP3   OH229462   5.030   5.733   3.751
 9840TIP3    H129463   4.964   5.730   3.820
 9840TIP3    H229464   5.065   5.644   3.747
 9841TIP3   OH229465   6.773   7.728   0.961
 9841TIP3    H129466   6.811   7.761   1.042
 9841TIP3    H229467   6.682   7.707   0.984
 9842TIP3   OH229468   3.047   3.332   1.400
 9842TIP3    H129469   3.084   3.373   1.479
 9842TIP3    H229470   2.956   3.361   1.399
 9843TIP3   OH229471   2.784   4.171   2.311
 9843TIP3    H129472   2.847   4.139   2.376
 9843TIP3    H229473   2.730   4.094   2.291
 9844TIP3   OH229474   3.172   4.860   0.182
 9844TIP3    H129475   3.218   4.927   0.231
 9844TIP3    H229476   3.168   4.785   0.242
 9845TIP3   OH229477   1.907   2.748   3.551
 9845TIP3    H129478   1.913   2.758   3.646
 9845TIP3    H229479   1.968   2.813   3.516
 9846TIP3   OH229480   4.275   0.425   5.662
 9846TIP3    H129481   4.259   0.357   5.597
 9846TIP3    H229482   4.348   0.391   5.715
 9847TIP3   OH229483   6.529   6.888   4.998
 9847TIP3    H129484   6.477   6.828   4.944
 9847TIP3    H229485   6.560   6.955   4.938
 9848TIP3   OH229486   7.031   5.852   0.092
 9848TIP3    H129487   6.970   5.906   0.042
 9848TIP3    H229488   7.117   5.886   0.069
 9849TIP3   OH229489   5.883   7.203   6.133
 9849TIP3    H129490   5.881   7.276   6.195
 9849TIP3    H229491   5.799   7.207   6.088
 9850TIP3   OH229492   3.093   3.857   4.458
 9850TIP3    H129493   3.112   3.887   4.370
 9850TIP3    H229494   2.997   3.858   4.465
 9851TIP3   OH229495   1.597   0.314   0.740
 9851TIP3    H129496   1.613   0.389   0.683
 9851TIP3    H229497   1.561   0.353   0.820
 9852TIP3   OH229498   3.996   2.585   0.237
 9852TIP3    H129499   4.068   2.594   0.174
 9852TIP3    H229500   3.917   2.600   0.185
 9853TIP3   OH229501   3.670   1.580   3.142
 9853TIP3    H129502   3.587   1.532   3.140
 9853TIP3    H229503   3.723   1.539   3.075
 9854TIP3   OH229504   1.281   5.833   4.491
 9854TIP3    H129505   1.286   5.781   4.571
 9854TIP3    H229506   1.284   5.769   4.420
 9855TIP3   OH229507   2.163   0.541   5.148
 9855TIP3    H129508   2.232   0.486   5.110
 9855TIP3    H229509   2.083   0.491   5.133
 9856TIP3   OH229510   3.898   2.660   5.023
 9856TIP3    H129511   3.994   2.659   5.033
 9856TIP3    H229512   3.869   2.577   5.060
 9857TIP3   OH229513   7.131   3.247   0.365
 9857TIP3    H129514   7.195   3.176   0.371
 9857TIP3    H229515   7.083   3.242   0.448
 9858TIP3   OH229516   6.550   4.335   1.078
 9858TIP3    H129517   6.535   4.328   0.984
 9858TIP3    H229518   6.519   4.423   1.101
 9859TIP3   OH229519   1.836   3.807   4.472
 9859TIP3    H129520   1.800   3.852   4.549
 9859TIP3    H229521   1.833   3.873   4.403
 9860TIP3   OH229522   3.350   6.502   6.366
 9860TIP3    H129523   3.275   6.459   6.324
 9860TIP3    H229524   3.418   6.501   6.298
 9861TIP3   OH229525   5.873   1.809   3.488
 9861TIP3    H129526   5.901   1.771   3.571
 9861TIP3    H229527   5.914   1.896   3.487
 9862TIP3   OH229528   0.231   2.870   5.120
 9862TIP3    H129529   0.225   2.775   5.106
 9862TIP3    H229530   0.324   2.886   5.132
 9863TIP3   OH229531   0.924   2.914  -0.026
 9863TIP3    H129532   0.919   2.940  -0.118
 9863TIP3    H229533   0.924   2.818  -0.029
 9864TIP3   OH229534   0.866   4.322   4.736
 9864TIP3    H129535   0.836   4.309   4.646
 9864TIP3    H229536   0.790   4.303   4.790
 9865TIP3   OH229537   7.870   4.410   4.776
 9865TIP3    H129538   7.808   4.440   4.842
 9865TIP3    H229539   7.815   4.385   4.702
 9866TIP3   OH229540   5.252   7.311   4.689
 9866TIP3    H129541   5.211   7.239   4.737
 9866TIP3    H229542   5.233   7.292   4.597
 9867TIP3   OH229543   2.384   2.621   1.845
 9867TIP3    H129544   2.412   2.669   1.922
 9867TIP3    H229545   2.443   2.649   1.776
 9868TIP3   OH229546   3.018   7.196   5.939
 9868TIP3    H129547   2.982   7.108   5.950
 9868TIP3    H229548   3.111   7.188   5.961
 9869TIP3   OH229549   4.820   5.681   3.968
 9869TIP3    H129550   4.816   5.600   4.019
 9869TIP3    H229551   4.858   5.745   4.028
 9870TIP3   OH229552   6.598   7.603   1.166
 9870TIP3    H129553   6.609   7.539   1.095
 9870TIP3    H229554   6.552   7.555   1.234
 9871TIP3   OH229555   5.651   1.293   6.044
 9871TIP3    H129556   5.685   1.230   5.980
 9871TIP3    H229557   5.557   1.294   6.029
 9872TIP3   OH229558   4.671   5.439   5.350
 9872TIP3    H129559   4.690   5.353   5.388
 9872TIP3    H229560   4.596   5.424   5.292
 9873TIP3   OH229561   1.022   4.553   4.691
 9873TIP3    H129562   0.975   4.611   4.631
 9873TIP3    H229563   0.982   4.467   4.678
 9874TIP3   OH229564   4.541   3.185   1.394
 9874TIP3    H129565   4.450   3.162   1.373
 9874TIP3    H229566   4.553   3.155   1.484
 9875TIP3   OH229567   1.612   5.348   1.819
 9875TIP3    H129568   1.566   5.275   1.778
 9875TIP3    H229569   1.545   5.415   1.831
 9876TIP3   OH229570   2.526   3.365  -0.020
 9876TIP3    H129571   2.594   3.308   0.016
 9876TIP3    H229572   2.465   3.378   0.052
 9877TIP3   OH229573   7.825   1.932   5.289
 9877TIP3    H129574   7.759   1.883   5.339
 9877TIP3    H229575   7.878   1.865   5.246
 9878TIP3   OH229576   2.623   3.850   0.355
 9878TIP3    H129577   2.563   3.776   0.341
 9878TIP3    H229578   2.709   3.809   0.366
 9879TIP3   OH229579   1.002   2.516   0.965
 9879TIP3    H129580   0.938   2.583   0.989
 9879TIP3    H229581   0.981   2.492   0.875
 9880TIP3   OH229582   3.250   5.584   4.551
 9880TIP3    H129583   3.234   5.493   4.527
 9880TIP3    H229584   3.340   5.601   4.523
 9881TIP3   OH229585   0.505   5.715   4.842
 9881TIP3    H129586   0.564   5.695   4.770
 9881TIP3    H229587   0.531   5.655   4.912
 9882TIP3   OH229588   3.681   7.403   1.748
 9882TIP3    H129589   3.667   7.389   1.841
 9882TIP3    H229590   3.603   7.450   1.719
 9883TIP3   OH229591   5.049   1.009   6.333
 9883TIP3    H129592   5.125   1.045   6.288
 9883TIP3    H229593   4.975   1.025   6.274
 9884TIP3   OH229594   3.848   6.165   5.702
 9884TIP3    H129595   3.755   6.172   5.723
 9884TIP3    H229596   3.855   6.194   5.611
 9885TIP3   OH229597   0.765   3.006   1.278
 9885TIP3    H129598   0.813   2.951   1.340
 9885TIP3    H229599   0.821   3.009   1.200
 9886TIP3   OH229600   5.139   6.039   2.603
 9886TIP3    H129601   5.201   6.111   2.603
 9886TIP3    H229602   5.073   6.063   2.668
 9887TIP3   OH229603   8.269   4.121   6.630
 9887TIP3    H129604   8.358   4.139   6.598
 9887TIP3    H229605   8.216   4.190   6.591
 9888TIP3   OH229606   2.483   7.334   4.381
 9888TIP3    H129607   2.509   7.332   4.474
 9888TIP3    H229608   2.399   7.379   4.381
 9889TIP3   OH229609   1.775   3.942   3.644
 9889TIP3    H129610   1.778   4.027   3.601
 9889TIP3    H229611   1.860   3.902   3.627
 9890TIP3   OH229612   3.836   5.615   1.615
 9890TIP3    H129613   3.809   5.611   1.707
 9890TIP3    H229614   3.757   5.595   1.566
 9891TIP3   OH229615   0.029   6.894   5.894
 9891TIP3    H129616   0.124   6.893   5.881
 9891TIP3    H229617  -0.001   6.811   5.858
 9892TIP3   OH229618   8.127   5.016   1.016
 9892TIP3    H129619   8.125   4.971   0.932
 9892TIP3    H229620   8.051   4.982   1.063
 9893TIP3   OH229621   2.942   2.871   3.318
 9893TIP3    H129622   2.888   2.844   3.244
 9893TIP3    H229623   3.032   2.853   3.290
 9894TIP3   OH229624   5.219   1.008   2.461
 9894TIP3    H129625   5.223   0.959   2.379
 9894TIP3    H229626   5.297   0.981   2.509
 9895TIP3   OH229627   4.021   5.943   0.205
 9895TIP3    H129628   3.951   5.973   0.147
 9895TIP3    H229629   4.102   5.970   0.162
 9896TIP3   OH229630   6.322   1.499   5.473
 9896TIP3    H129631   6.289   1.562   5.409
 9896TIP3    H229632   6.391   1.547   5.519
 9897TIP3   OH229633   6.957   5.907   4.729
 9897TIP3    H129634   6.914   5.834   4.686
 9897TIP3    H229635   6.919   5.910   4.816
 9898TIP3   OH229636   5.907   1.182   1.385
 9898TIP3    H129637   5.972   1.154   1.320
 9898TIP3    H229638   5.823   1.175   1.340
 9899TIP3   OH229639   1.832   1.683   4.962
 9899TIP3    H129640   1.803   1.592   4.961
 9899TIP3    H229641   1.912   1.682   5.015
 9900TIP3   OH229642   0.888   2.990   3.509
 9900TIP3    H129643   0.838   2.978   3.589
 9900TIP3    H229644   0.884   3.084   3.490
 9901TIP3   OH229645   0.293   1.064   5.931
 9901TIP3    H129646   0.314   1.081   6.023
 9901TIP3    H229647   0.333   0.979   5.912
 9902TIP3   OH229648   7.976   1.081   6.364
 9902TIP3    H129649   7.969   1.162   6.313
 9902TIP3    H229650   7.990   1.112   6.454
 9903TIP3   OH229651   7.753   6.360   4.249
 9903TIP3    H129652   7.743   6.291   4.315
 9903TIP3    H229653   7.848   6.377   4.246
 9904TIP3   OH229654   6.659   6.897   1.471
 9904TIP3    H129655   6.749   6.930   1.463
 9904TIP3    H229656   6.605   6.976   1.470
 9905TIP3   OH229657   8.093   4.051   3.965
 9905TIP3    H129658   8.164   4.031   3.904
 9905TIP3    H229659   8.116   4.136   4.002
 9906TIP3   OH229660   8.015   2.005   5.497
 9906TIP3    H129661   8.089   2.013   5.437
 9906TIP3    H229662   7.946   1.963   5.446
 9907TIP3   OH229663   2.820   5.197   1.782
 9907TIP3    H129664   2.813   5.112   1.826
 9907TIP3    H229665   2.734   5.238   1.795
 9908TIP3   OH229666   3.899   4.931   2.664
 9908TIP3    H129667   3.812   4.953   2.698
 9908TIP3    H229668   3.881   4.869   2.593
 9909TIP3   OH229669   7.741   5.701   5.962
 9909TIP3    H129670   7.751   5.650   6.043
 9909TIP3    H229671   7.807   5.665   5.903
 9910TIP3   OH229672   2.250   1.581   2.900
 9910TIP3    H129673   2.162   1.580   2.861
 9910TIP3    H229674   2.304   1.628   2.836
 9911TIP3   OH229675   4.729   5.285   4.105
 9911TIP3    H129676   4.655   5.226   4.091
 9911TIP3    H229677   4.712   5.326   4.189
 9912TIP3   OH229678   0.706   1.835   1.802
 9912TIP3    H129679   0.794   1.797   1.812
 9912TIP3    H229680   0.703   1.862   1.710
 9913TIP3   OH229681   2.349   1.577   2.101
 9913TIP3    H129682   2.421   1.525   2.066
 9913TIP3    H229683   2.390   1.660   2.128
 9914TIP3   OH229684   5.539   4.773   4.558
 9914TIP3    H129685   5.548   4.682   4.530
 9914TIP3    H229686   5.447   4.780   4.584
 9915TIP3   OH229687   4.452   2.203   3.919
 9915TIP3    H129688   4.529   2.184   3.974
 9915TIP3    H229689   4.451   2.133   3.854
 9916TIP3   OH229690   2.045   5.953   1.588
 9916TIP3    H129691   2.039   5.896   1.512
 9916TIP3    H229692   2.099   5.905   1.650
 9917TIP3   OH229693   3.208   3.796   3.242
 9917TIP3    H129694   3.262   3.741   3.298
 9917TIP3    H229695   3.148   3.734   3.199
 9918TIP3   OH229696   3.790   3.998   0.489
 9918TIP3    H129697   3.791   4.092   0.507
 9918TIP3    H229698   3.716   3.986   0.430
 9919TIP3   OH229699   6.996   6.367   4.589
 9919TIP3    H129700   6.985   6.272   4.591
 9919TIP3    H229701   7.053   6.385   4.664
 9920TIP3   OH229702   3.740   2.643   6.286
 9920TIP3    H129703   3.652   2.681   6.279
 9920TIP3    H229704   3.760   2.612   6.198
 9921TIP3   OH229705   7.775   6.585   0.410
 9921TIP3    H129706   7.813   6.630   0.335
 9921TIP3    H229707   7.707   6.644   0.443
 9922TIP3   OH229708   4.362   2.717   6.462
 9922TIP3    H129709   4.267   2.720   6.449
 9922TIP3    H229710   4.395   2.793   6.414
 9923TIP3   OH229711   6.784   0.798   3.493
 9923TIP3    H129712   6.750   0.875   3.539
 9923TIP3    H229713   6.825   0.745   3.561
 9924TIP3   OH229714   6.652   7.020   3.286
 9924TIP3    H129715   6.675   7.081   3.355
 9924TIP3    H229716   6.607   6.949   3.331
 9925TIP3   OH229717   3.120   6.498   6.221
 9925TIP3    H129718   3.091   6.410   6.244
 9925TIP3    H229719   3.116   6.501   6.125
 9926TIP3   OH229720   2.982   2.057   6.135
 9926TIP3    H129721   3.010   2.012   6.055
 9926TIP3    H229722   2.927   1.994   6.180
 9927TIP3   OH229723   3.554   2.347   6.364
 9927TIP3    H129724   3.604   2.385   6.292
 9927TIP3    H229725   3.476   2.401   6.371
 9928TIP3   OH229726   0.920   0.819   0.042
 9928TIP3    H129727   0.910   0.742  -0.013
 9928TIP3    H229728   0.842   0.872   0.025
 9929TIP3   OH229729   1.645   1.055   1.277
 9929TIP3    H129730   1.641   0.967   1.312
 9929TIP3    H229731   1.629   1.112   1.352
 9930TIP3   OH229732   7.030   3.100   2.774
 9930TIP3    H129733   6.984   3.115   2.857
 9930TIP3    H229734   7.112   3.057   2.800
 9931TIP3   OH229735   0.419   4.015   3.035
 9931TIP3    H129736   0.489   3.957   3.007
 9931TIP3    H229737   0.348   4.000   2.973
 9932TIP3   OH229738   6.442   1.481   0.225
 9932TIP3    H129739   6.387   1.496   0.149
 9932TIP3    H229740   6.502   1.556   0.227
 9933TIP3   OH229741   2.533   5.043   6.705
 9933TIP3    H129742   2.580   4.963   6.727
 9933TIP3    H229743   2.588   5.085   6.639
 9934TIP3   OH229744   4.681   7.797   6.519
 9934TIP3    H129745   4.628   7.733   6.566
 9934TIP3    H229746   4.753   7.746   6.482
 9935TIP3   OH229747   7.015   2.652   2.176
 9935TIP3    H129748   6.958   2.635   2.251
 9935TIP3    H229749   6.970   2.610   2.103
 9936TIP3   OH229750   8.180   7.028   0.947
 9936TIP3    H129751   8.180   7.093   0.877
 9936TIP3    H229752   8.270   7.028   0.980
 9937TIP3   OH229753   1.098   2.509   5.976
 9937TIP3    H129754   1.152   2.563   5.918
 9937TIP3    H229755   1.119   2.539   6.064
 9938TIP3   OH229756   3.815   3.448   6.495
 9938TIP3    H129757   3.765   3.490   6.565
 9938TIP3    H229758   3.902   3.433   6.533
 9939TIP3   OH229759   5.899   6.442   2.969
 9939TIP3    H129760   5.907   6.523   3.019
 9939TIP3    H229761   5.916   6.372   3.033
 9940TIP3   OH229762   5.367   5.865   4.808
 9940TIP3    H129763   5.391   5.903   4.723
 9940TIP3    H229764   5.349   5.773   4.789
 9941TIP3   OH229765   2.308   6.851   5.860
 9941TIP3    H129766   2.268   6.806   5.785
 9941TIP3    H229767   2.391   6.806   5.874
 9942TIP3   OH229768   2.597   0.678   3.672
 9942TIP3    H129769   2.607   0.621   3.596
 9942TIP3    H229770   2.534   0.744   3.645
 9943TIP3   OH229771   4.252   7.276   6.380
 9943TIP3    H129772   4.299   7.316   6.453
 9943TIP3    H229773   4.313   7.283   6.306
 9944TIP3   OH229774   3.522   3.535   5.739
 9944TIP3    H129775   3.589   3.600   5.757
 9944TIP3    H229776   3.456   3.582   5.687
 9945TIP3   OH229777   2.961   4.385   6.455
 9945TIP3    H129778   2.962   4.390   6.551
 9945TIP3    H229779   2.946   4.293   6.436
 9946TIP3   OH229780   2.108   1.788   3.416
 9946TIP3    H129781   2.093   1.816   3.326
 9946TIP3    H229782   2.020   1.779   3.453
 9947TIP3   OH229783   5.631   5.695   3.416
 9947TIP3    H129784   5.695   5.733   3.355
 9947TIP3    H229785   5.592   5.771   3.460
 9948TIP3   OH229786   7.184   1.995   0.878
 9948TIP3    H129787   7.179   1.911   0.833
 9948TIP3    H229788   7.187   2.060   0.807
 9949TIP3   OH229789   2.231   5.513   4.993
 9949TIP3    H129790   2.265   5.459   4.922
 9949TIP3    H229791   2.237   5.456   5.071
 9950TIP3   OH229792   7.365   7.705   2.865
 9950TIP3    H129793   7.332   7.649   2.935
 9950TIP3    H229794   7.349   7.794   2.896
 9951TIP3   OH229795   7.356   6.540   4.463
 9951TIP3    H129796   7.428   6.536   4.526
 9951TIP3    H229797   7.285   6.581   4.511
 9952TIP3   OH229798   1.126   0.694   2.151
 9952TIP3    H129799   1.171   0.641   2.086
 9952TIP3    H229800   1.043   0.717   2.110
 9953TIP3   OH229801   6.380   3.894   3.558
 9953TIP3    H129802   6.352   3.906   3.649
 9953TIP3    H229803   6.304   3.857   3.513
 9954TIP3   OH229804   6.572   4.833   2.707
 9954TIP3    H129805   6.637   4.779   2.753
 9954TIP3    H229806   6.523   4.770   2.654
 9955TIP3   OH229807   7.289   1.833   4.230
 9955TIP3    H129808   7.223   1.863   4.168
 9955TIP3    H229809   7.259   1.747   4.258
 9956TIP3   OH229810   7.527   2.081   4.845
 9956TIP3    H129811   7.518   2.115   4.756
 9956TIP3    H229812   7.619   2.097   4.868
 9957TIP3   OH229813   2.682   2.533   1.020
 9957TIP3    H129814   2.715   2.616   0.984
 9957TIP3    H229815   2.703   2.537   1.113
 9958TIP3   OH229816   4.700   5.156   5.511
 9958TIP3    H129817   4.618   5.168   5.464
 9958TIP3    H229818   4.676   5.107   5.590
 9959TIP3   OH229819   1.610   0.035   2.096
 9959TIP3    H129820   1.564   0.022   2.179
 9959TIP3    H229821   1.677  -0.033   2.095
 9960TIP3   OH229822   2.762   4.201   1.382
 9960TIP3    H129823   2.799   4.255   1.312
 9960TIP3    H229824   2.668   4.212   1.374
 9961TIP3   OH229825   0.354   6.578   4.492
 9961TIP3    H129826   0.447   6.560   4.504
 9961TIP3    H229827   0.349   6.672   4.474
 9962TIP3   OH229828   2.236   4.668   3.912
 9962TIP3    H129829   2.150   4.628   3.926
 9962TIP3    H229830   2.292   4.596   3.884
 9963TIP3   OH229831   1.756   6.116   1.998
 9963TIP3    H129832   1.784   6.040   2.049
 9963TIP3    H229833   1.782   6.191   2.051
 9964TIP3   OH229834   1.268   2.689   2.443
 9964TIP3    H129835   1.346   2.741   2.464
 9964TIP3    H229836   1.209   2.751   2.401
 9965TIP3   OH229837   1.066   3.368   4.120
 9965TIP3    H129838   1.144   3.385   4.174
 9965TIP3    H229839   1.101   3.330   4.039
 9966TIP3   OH229840   7.342   3.194   0.146
 9966TIP3    H129841   7.345   3.099   0.148
 9966TIP3    H229842   7.327   3.216   0.054
 9967TIP3   OH229843   5.448   7.456   6.594
 9967TIP3    H129844   5.536   7.445   6.560
 9967TIP3    H229845   5.435   7.381   6.652
 9968TIP3   OH229846   5.176   1.778   1.104
 9968TIP3    H129847   5.123   1.745   1.032
 9968TIP3    H229848   5.266   1.760   1.077
 9969TIP3   OH229849   7.290   0.817   3.881
 9969TIP3    H129850   7.305   0.724   3.863
 9969TIP3    H229851   7.313   0.861   3.800
 9970TIP3   OH229852   5.256   2.961   5.171
 9970TIP3    H129853   5.315   2.923   5.235
 9970TIP3    H229854   5.192   2.891   5.153
 9971TIP3   OH229855   0.261   6.857   4.632
 9971TIP3    H129856   0.202   6.932   4.638
 9971TIP3    H229857   0.348   6.895   4.625
 9972TIP3   OH229858   6.041   1.259   0.159
 9972TIP3    H129859   5.970   1.208   0.121
 9972TIP3    H229860   6.101   1.194   0.195
 9973TIP3   OH229861   6.546   5.250   4.982
 9973TIP3    H129862   6.536   5.271   4.889
 9973TIP3    H229863   6.639   5.259   4.999
 9974TIP3   OH229864   7.072   2.631   0.908
 9974TIP3    H129865   6.990   2.663   0.947
 9974TIP3    H229866   7.056   2.632   0.814
 9975TIP3   OH229867   0.934   0.811   1.978
 9975TIP3    H129868   1.016   0.854   1.954
 9975TIP3    H229869   0.881   0.814   1.898
 9976TIP3   OH229870   1.919   0.202   1.862
 9976TIP3    H129871   1.987   0.220   1.928
 9976TIP3    H229872   1.907   0.108   1.866
 9977TIP3   OH229873   8.077   2.086   4.091
 9977TIP3    H129874   8.068   2.001   4.047
 9977TIP3    H229875   7.989   2.108   4.119
 9978TIP3   OH229876   3.272   6.219   3.295
 9978TIP3    H129877   3.209   6.277   3.252
 9978TIP3    H229878   3.265   6.136   3.248
 9979TIP3   OH229879   3.320   0.715   2.029
 9979TIP3    H129880   3.279   0.666   2.100
 9979TIP3    H229881   3.382   0.653   1.990
 9980TIP3   OH229882   1.629   2.089   1.126
 9980TIP3    H129883   1.629   2.054   1.037
 9980TIP3    H229884   1.714   2.133   1.135
 9981TIP3   OH229885   2.009   3.317   1.672
 9981TIP3    H129886   1.914   3.330   1.682
 9981TIP3    H229887   2.033   3.374   1.600
 9982TIP3   OH229888   8.201   6.184   4.115
 9982TIP3    H129889   8.183   6.168   4.208
 9982TIP3    H229890   8.207   6.280   4.108
 9983TIP3   OH229891   6.734   7.134   5.718
 9983TIP3    H129892   6.658   7.135   5.777
 9983TIP3    H229893   6.807   7.161   5.773
 9984TIP3   OH229894   0.362   3.685   2.830
 9984TIP3    H129895   0.334   3.727   2.749
 9984TIP3    H229896   0.432   3.742   2.864
 9985TIP3   OH229897   3.655   6.224   5.890
 9985TIP3    H129898   3.667   6.198   5.981
 9985TIP3    H229899   3.578   6.280   5.890
 9986TIP3   OH229900   3.929   3.023   2.934
 9986TIP3    H129901   3.943   2.945   2.880
 9986TIP3    H229902   3.977   3.092   2.889
 9987TIP3   OH229903   0.915   6.908   1.006
 9987TIP3    H129904   0.916   6.823   0.962
 9987TIP3    H229905   0.956   6.967   0.943
 9988TIP3   OH229906   4.511   1.746   6.002
 9988TIP3    H129907   4.422   1.781   6.004
 9988TIP3    H229908   4.521   1.703   6.087
 9989TIP3   OH229909   7.852   4.631   0.627
 9989TIP3    H129910   7.782   4.595   0.682
 9989TIP3    H229911   7.841   4.586   0.543
 9990TIP3   OH229912   1.687   3.715   6.707
 9990TIP3    H129913   1.731   3.673   6.781
 9990TIP3    H229914   1.747   3.701   6.633
 9991TIP3   OH229915   7.580   7.292   2.610
 9991TIP3    H129916   7.622   7.287   2.696
 9991TIP3    H229917   7.530   7.373   2.612
 9992TIP3   OH229918   7.589   1.369   5.702
 9992TIP3    H129919   7.630   1.429   5.764
 9992TIP3    H229920   7.530   1.315   5.756
 9993TIP3   OH229921   4.902   0.931   4.841
 9993TIP3    H129922   4.817   0.953   4.879
 9993TIP3    H229923   4.954   0.899   4.915
 9994TIP3   OH229924   6.772   4.042   3.710
 9994TIP3    H129925   6.723   3.973   3.667
 9994TIP3    H229926   6.715   4.072   3.781
 9995TIP3   OH229927   4.468   1.439   6.327
 9995TIP3    H129928   4.500   1.510   6.271
 9995TIP3    H229929   4.373   1.442   6.317
 9996TIP3   OH229930   6.962   3.315   2.500
 9996TIP3    H129931   7.030   3.368   2.541
 9996TIP3    H229932   6.975   3.329   2.406
 9997TIP3   OH229933   6.627   4.728   1.339
 9997TIP3    H129934   6.538   4.742   1.306
 9997TIP3    H229935   6.683   4.735   1.261
 9998TIP3   OH229936   1.233   5.770   4.038
 9998TIP3    H129937   1.185   5.826   4.099
 9998TIP3    H229938   1.259   5.828   3.967
 9999TIP3   OH229939   4.792   4.385   5.756
 9999TIP3    H129940   4.736   4.436   5.814
 9999TIP3    H229941   4.856   4.448   5.722
10000TIP3   OH229942   2.276   5.060   3.193
10000TIP3    H129943   2.214   5.082   3.263
10000TIP3    H229944   2.360   5.093   3.224
10001TIP3   OH229945   5.055   6.782   2.737
10001TIP3    H129946   5.058   6.749   2.827
10001TIP3    H229947   4.989   6.852   2.740
10002TIP3   OH229948   4.180   0.368   4.678
10002TIP3    H129949   4.273   0.378   4.700
10002TIP3    H229950   4.178   0.294   4.618
10003TIP3   OH229951   0.622   0.790   4.703
10003TIP3    H129952   0.577   0.865   4.741
10003TIP3    H229953   0.622   0.724   4.771
10004TIP3   OH229954   4.116   6.765   2.843
10004TIP3    H129955   4.198   6.813   2.849
10004TIP3    H229956   4.133   6.694   2.782
10005TIP3   OH229957   3.144   2.759   3.563
10005TIP3    H129958   3.172   2.739   3.474
10005TIP3    H229959   3.077   2.694   3.582
10006TIP3   OH229960   7.624   5.009   6.447
10006TIP3    H129961   7.547   4.959   6.420
10006TIP3    H229962   7.625   5.085   6.389
10007TIP3   OH229963   2.860   4.215   0.728
10007TIP3    H129964   2.877   4.220   0.634
10007TIP3    H229965   2.769   4.186   0.735
10008TIP3   OH229966   4.660   6.142   3.379
10008TIP3    H129967   4.590   6.146   3.313
10008TIP3    H229968   4.629   6.076   3.442
10009TIP3   OH229969   1.868   3.664   0.394
10009TIP3    H129970   1.813   3.660   0.316
10009TIP3    H229971   1.815   3.624   0.463
10010TIP3   OH229972   1.450   2.476   1.865
10010TIP3    H129973   1.498   2.408   1.817
10010TIP3    H229974   1.447   2.550   1.805
10011TIP3   OH229975   4.138   0.730   2.473
10011TIP3    H129976   4.112   0.821   2.487
10011TIP3    H229977   4.233   0.732   2.479
10012TIP3   OH229978   2.701   2.501   3.753
10012TIP3    H129979   2.637   2.508   3.683
10012TIP3    H229980   2.700   2.587   3.796
10013TIP3   OH229981   2.877   2.967   4.063
10013TIP3    H129982   2.803   2.950   4.121
10013TIP3    H229983   2.874   3.061   4.048
10014TIP3   OH229984   4.786   3.389   5.215
10014TIP3    H129985   4.730   3.466   5.208
10014TIP3    H229986   4.872   3.420   5.186
10015TIP3   OH229987   7.729   5.342   4.634
10015TIP3    H129988   7.690   5.428   4.616
10015TIP3    H229989   7.702   5.323   4.724
10016TIP3   OH229990   0.132   0.573   1.109
10016TIP3    H129991   0.173   0.488   1.093
10016TIP3    H229992   0.179   0.608   1.185
10017TIP3   OH229993   3.336   1.300   3.578
10017TIP3    H129994   3.338   1.294   3.483
10017TIP3    H229995   3.327   1.209   3.608
10018TIP3   OH229996   1.020   6.503   3.065
10018TIP3    H129997   1.046   6.557   3.141
10018TIP3    H229998   1.014   6.414   3.100
10019TIP3   OH229999   4.435   7.440   5.978
10019TIP3    H130000   4.359   7.446   6.036
10019TIP3    H230001   4.411   7.373   5.914
10020TIP3   OH230002   6.053   3.546   4.473
10020TIP3    H130003   6.061   3.625   4.526
10020TIP3    H230004   6.142   3.509   4.471
10021TIP3   OH230005   1.861   2.898   2.571
10021TIP3    H130006   1.805   2.947   2.631
10021TIP3    H230007   1.894   2.964   2.509
10022TIP3   OH230008   1.713   0.429   5.309
10022TIP3    H130009   1.758   0.408   5.390
10022TIP3    H230010   1.650   0.358   5.297
10023TIP3   OH230011   2.066   0.502   1.359
10023TIP3    H130012   2.028   0.585   1.327
10023TIP3    H230013   2.074   0.514   1.453
10024TIP3   OH230014   3.581   5.800   2.385
10024TIP3    H130015   3.672   5.771   2.389
10024TIP3    H230016   3.545   5.757   2.307
10025TIP3   OH230017   5.021   1.943   5.691
10025TIP3    H130018   4.931   1.972   5.706
10025TIP3    H230019   5.029   1.863   5.745
10026TIP3   OH230020   5.388   5.999   5.462
10026TIP3    H130021   5.481   5.983   5.449
10026TIP3    H230022   5.375   5.991   5.556
10027TIP3   OH230023   1.966   2.644   2.576
10027TIP3    H130024   1.936   2.735   2.569
10027TIP3    H230025   2.004   2.638   2.663
10028TIP3   OH230026   0.630   5.624   4.609
10028TIP3    H130027   0.570   5.673   4.553
10028TIP3    H230028   0.593   5.536   4.612
10029TIP3   OH230029   5.747   2.697   1.146
10029TIP3    H130030   5.695   2.730   1.219
10029TIP3    H230031   5.713   2.743   1.069
10030TIP3   OH230032   1.245   5.040   3.693
10030TIP3    H130033   1.275   5.085   3.771
10030TIP3    H230034   1.219   4.953   3.724
10031TIP3   OH230035   3.195   2.768   1.796
10031TIP3    H130036   3.232   2.730   1.876
10031TIP3    H230037   3.173   2.692   1.741
10032TIP3   OH230038   1.905   3.061   1.475
10032TIP3    H130039   1.892   2.975   1.517
10032TIP3    H230040   1.997   3.060   1.447
10033TIP3   OH230041   5.566   3.441   1.533
10033TIP3    H130042   5.485   3.452   1.583
10033TIP3    H230043   5.547   3.369   1.472
10034TIP3   OH230044   8.249   2.224   5.977
10034TIP3    H130045   8.184   2.257   6.039
10034TIP3    H230046   8.211   2.242   5.891
10035TIP3   OH230047   4.485   6.621   0.795
10035TIP3    H130048   4.430   6.675   0.852
10035TIP3    H230049   4.550   6.583   0.854
10036TIP3   OH230050   6.708   0.646   3.940
10036TIP3    H130051   6.717   0.679   4.029
10036TIP3    H230052   6.769   0.571   3.936
10037TIP3   OH230053   5.794   2.546   5.824
10037TIP3    H130054   5.715   2.591   5.796
10037TIP3    H230055   5.765   2.489   5.895
10038TIP3   OH230056   5.843   5.907   2.951
10038TIP3    H130057   5.813   5.995   2.977
10038TIP3    H230058   5.829   5.905   2.856
10039TIP3   OH230059   7.589   1.137   1.315
10039TIP3    H130060   7.530   1.173   1.382
10039TIP3    H230061   7.531   1.092   1.254
10040TIP3   OH230062   5.123   1.843   4.842
10040TIP3    H130063   5.031   1.818   4.842
10040TIP3    H230064   5.136   1.888   4.925
10041TIP3   OH230065   3.877   6.371   5.458
10041TIP3    H130066   3.875   6.461   5.427
10041TIP3    H230067   3.926   6.374   5.540
10042TIP3   OH230068   5.781   0.847   5.962
10042TIP3    H130069   5.807   0.927   5.916
10042TIP3    H230070   5.729   0.799   5.898
10043TIP3   OH230071   6.615   6.757   3.888
10043TIP3    H130072   6.561   6.732   3.813
10043TIP3    H230073   6.605   6.686   3.951
10044TIP3   OH230074   3.783   0.837   3.832
10044TIP3    H130075   3.859   0.814   3.885
10044TIP3    H230076   3.715   0.777   3.859
10045TIP3   OH230077   1.329   1.822   0.012
10045TIP3    H130078   1.334   1.810  -0.082
10045TIP3    H230079   1.282   1.745   0.044
10046TIP3   OH230080   7.144   5.247   4.425
10046TIP3    H130081   7.137   5.254   4.330
10046TIP3    H230082   7.072   5.301   4.458
10047TIP3   OH230083   4.692   7.409   2.603
10047TIP3    H130084   4.715   7.465   2.677
10047TIP3    H230085   4.664   7.469   2.534
10048TIP3   OH230086   1.382   5.203   5.733
10048TIP3    H130087   1.345   5.129   5.686
10048TIP3    H230088   1.477   5.193   5.721
10049TIP3   OH230089   4.980   0.801   2.424
10049TIP3    H130090   5.027   0.864   2.478
10049TIP3    H230091   5.002   0.824   2.334
10050TIP3   OH230092   2.180   6.762   4.066
10050TIP3    H130093   2.218   6.712   4.138
10050TIP3    H230094   2.187   6.853   4.094
10051TIP3   OH230095   0.634   1.954   3.927
10051TIP3    H130096   0.600   1.899   3.998
10051TIP3    H230097   0.701   1.900   3.885
10052TIP3   OH230098   3.545   6.466   1.711
10052TIP3    H130099   3.473   6.481   1.772
10052TIP3    H230100   3.534   6.533   1.643
10053TIP3   OH230101   0.393   4.900   5.581
10053TIP3    H130102   0.449   4.969   5.615
10053TIP3    H230103   0.453   4.838   5.539
10054TIP3   OH230104   5.942   3.409   5.250
10054TIP3    H130105   5.950   3.348   5.323
10054TIP3    H230106   5.984   3.489   5.281
10055TIP3   OH230107   6.055   3.707   4.702
10055TIP3    H130108   6.019   3.795   4.716
10055TIP3    H230109   6.148   3.716   4.721
10056TIP3   OH230110   5.427   6.304   5.408
10056TIP3    H130111   5.405   6.275   5.496
10056TIP3    H230112   5.492   6.241   5.377
10057TIP3   OH230113   2.077   6.872   1.269
10057TIP3    H130114   2.060   6.960   1.300
10057TIP3    H230115   2.093   6.821   1.348
10058TIP3   OH230116   8.263   7.023   0.245
10058TIP3    H130117   8.350   6.985   0.252
10058TIP3    H230118   8.204   6.948   0.244
10059TIP3   OH230119   0.552   5.298   0.506
10059TIP3    H130120   0.484   5.349   0.550
10059TIP3    H230121   0.601   5.257   0.577
10060TIP3   OH230122   5.075   6.965   4.379
10060TIP3    H130123   5.103   6.876   4.356
10060TIP3    H230124   5.011   6.988   4.312
10061TIP3   OH230125   6.133   5.254   1.198
10061TIP3    H130126   6.161   5.174   1.242
10061TIP3    H230127   6.210   5.311   1.198
10062TIP3   OH230128   5.484   5.275   3.932
10062TIP3    H130129   5.419   5.209   3.956
10062TIP3    H230130   5.433   5.353   3.913
10063TIP3   OH230131   2.601   2.690   4.056
10063TIP3    H130132   2.519   2.688   4.007
10063TIP3    H230133   2.666   2.720   3.993
10064TIP3   OH230134   3.013   0.922   5.081
10064TIP3    H130135   3.016   1.004   5.131
10064TIP3    H230136   2.924   0.919   5.045
10065TIP3   OH230137   1.680   7.212   2.478
10065TIP3    H130138   1.724   7.285   2.436
10065TIP3    H230139   1.617   7.252   2.538
10066TIP3   OH230140   5.519   5.748   4.512
10066TIP3    H130141   5.493   5.838   4.534
10066TIP3    H230142   5.447   5.715   4.459
10067TIP3   OH230143   1.697   3.069   2.703
10067TIP3    H130144   1.605   3.043   2.702
10067TIP3    H230145   1.717   3.080   2.796
10068TIP3   OH230146   3.877   6.426   6.047
10068TIP3    H130147   3.859   6.391   5.960
10068TIP3    H230148   3.791   6.442   6.085
10069TIP3   OH230149   3.713   0.555   1.133
10069TIP3    H130150   3.759   0.474   1.156
10069TIP3    H230151   3.749   0.621   1.193
10070TIP3   OH230152   1.228   2.679   5.824
10070TIP3    H130153   1.236   2.703   5.732
10070TIP3    H230154   1.284   2.742   5.870
10071TIP3   OH230155   2.710   6.341   2.665
10071TIP3    H130156   2.753   6.321   2.582
10071TIP3    H230157   2.674   6.429   2.653
10072TIP3   OH230158   7.862   4.673   2.063
10072TIP3    H130159   7.897   4.612   2.128
10072TIP3    H230160   7.871   4.627   1.979
10073TIP3   OH230161   2.278   4.822   4.773
10073TIP3    H130162   2.203   4.764   4.779
10073TIP3    H230163   2.338   4.778   4.712
10074TIP3   OH230164   2.912   5.844   6.653
10074TIP3    H130165   2.921   5.881   6.566
10074TIP3    H230166   2.999   5.855   6.693
10075TIP3   OH230167   2.317   1.911   5.539
10075TIP3    H130168   2.222   1.922   5.543
10075TIP3    H230169   2.329   1.816   5.534
10076TIP3   OH230170   1.027   3.915   4.990
10076TIP3    H130171   1.119   3.889   4.989
10076TIP3    H230172   1.026   4.002   4.949
10077TIP3   OH230173   6.395   1.166   3.638
10077TIP3    H130174   6.432   1.227   3.701
10077TIP3    H230175   6.342   1.220   3.580
10078TIP3   OH230176   7.357   4.593   2.578
10078TIP3    H130177   7.332   4.622   2.665
10078TIP3    H230178   7.281   4.612   2.523
10079TIP3   OH230179   1.559   6.283   5.961
10079TIP3    H130180   1.546   6.196   6.000
10079TIP3    H230181   1.618   6.267   5.887
10080TIP3   OH230182   2.705   5.403   4.239
10080TIP3    H130183   2.654   5.412   4.320
10080TIP3    H230184   2.699   5.310   4.217
10081TIP3   OH230185   4.492   4.176   1.717
10081TIP3    H130186   4.482   4.249   1.656
10081TIP3    H230187   4.516   4.217   1.800
10082TIP3   OH230188   2.299   7.776   2.745
10082TIP3    H130189   2.385   7.817   2.752
10082TIP3    H230190   2.295   7.716   2.820
10083TIP3   OH230191   2.092   3.858   5.251
10083TIP3    H130192   2.140   3.807   5.186
10083TIP3    H230193   2.039   3.919   5.200
10084TIP3   OH230194   5.219   3.598   0.993
10084TIP3    H130195   5.302   3.560   1.022
10084TIP3    H230196   5.241   3.688   0.968
10085TIP3   OH230197   4.718   5.830   1.059
10085TIP3    H130198   4.759   5.840   1.144
10085TIP3    H230199   4.781   5.780   1.008
10086TIP3   OH230200   7.331   1.058   5.284
10086TIP3    H130201   7.304   1.012   5.205
10086TIP3    H230202   7.306   1.149   5.269
10087TIP3   OH230203   5.690   4.508   0.102
10087TIP3    H130204   5.664   4.435   0.046
10087TIP3    H230205   5.653   4.585   0.060
10088TIP3   OH230206   3.273   2.594   4.532
10088TIP3    H130207   3.273   2.499   4.528
10088TIP3    H230208   3.269   2.622   4.440
10089TIP3   OH230209   3.361   3.336   5.502
10089TIP3    H130210   3.358   3.274   5.574
10089TIP3    H230211   3.392   3.418   5.541
10090TIP3   OH230212   7.570   1.054   2.675
10090TIP3    H130213   7.605   0.971   2.642
10090TIP3    H230214   7.579   1.115   2.602
10091TIP3   OH230215   4.854   5.767   3.547
10091TIP3    H130216   4.917   5.727   3.606
10091TIP3    H230217   4.812   5.835   3.599
10092TIP3   OH230218   6.281   4.165   3.211
10092TIP3    H130219   6.212   4.099   3.220
10092TIP3    H230220   6.235   4.244   3.186
10093TIP3   OH230221   7.562   7.389   5.563
10093TIP3    H130222   7.484   7.435   5.533
10093TIP3    H230223   7.606   7.362   5.482
10094TIP3   OH230224   2.247   5.040   1.020
10094TIP3    H130225   2.242   5.135   1.006
10094TIP3    H230226   2.285   5.006   0.939
10095TIP3   OH230227   0.775   3.548   5.636
10095TIP3    H130228   0.754   3.501   5.555
10095TIP3    H230229   0.848   3.605   5.612
10096TIP3   OH230230   5.164   1.292   3.935
10096TIP3    H130231   5.074   1.280   3.904
10096TIP3    H230232   5.169   1.242   4.016
10097TIP3   OH230233   6.647   1.027   3.600
10097TIP3    H130234   6.715   1.091   3.579
10097TIP3    H230235   6.565   1.077   3.594
10098TIP3   OH230236   2.303   7.278   1.621
10098TIP3    H130237   2.244   7.346   1.588
10098TIP3    H230238   2.378   7.281   1.562
10099TIP3   OH230239   3.472   2.842   0.445
10099TIP3    H130240   3.500   2.824   0.534
10099TIP3    H230241   3.526   2.784   0.391
10100TIP3   OH230242   6.132   1.609   2.565
10100TIP3    H130243   6.169   1.600   2.477
10100TIP3    H230244   6.040   1.630   2.550
10101TIP3   OH230245   0.563   1.422   1.761
10101TIP3    H130246   0.597   1.354   1.820
10101TIP3    H230247   0.554   1.378   1.677
10102TIP3   OH230248   6.142   5.783   0.514
10102TIP3    H130249   6.206   5.759   0.581
10102TIP3    H230250   6.058   5.757   0.551
10103TIP3   OH230251   6.574   3.309   3.676
10103TIP3    H130252   6.523   3.298   3.757
10103TIP3    H230253   6.531   3.252   3.613
10104TIP3   OH230254   6.363   1.371   6.424
10104TIP3    H130255   6.407   1.424   6.357
10104TIP3    H230256   6.272   1.401   6.423
10105TIP3   OH230257   1.837   1.279   4.771
10105TIP3    H130258   1.768   1.215   4.784
10105TIP3    H230259   1.893   1.241   4.703
10106TIP3   OH230260   4.082   3.221   6.685
10106TIP3    H130261   4.027   3.190   6.757
10106TIP3    H230262   4.110   3.142   6.640
10107TIP3   OH230263   3.347   4.708   6.440
10107TIP3    H130264   3.370   4.791   6.397
10107TIP3    H230265   3.430   4.660   6.442
10108TIP3   OH230266   8.092   5.787   4.972
10108TIP3    H130267   8.021   5.799   5.036
10108TIP3    H230268   8.055   5.727   4.907
10109TIP3   OH230269   3.676   6.547   4.540
10109TIP3    H130270   3.702   6.457   4.558
10109TIP3    H230271   3.580   6.545   4.543
10110TIP3   OH230272   4.307   0.623   0.358
10110TIP3    H130273   4.287   0.626   0.451
10110TIP3    H230274   4.385   0.678   0.348
10111TIP3   OH230275   1.073   0.605   3.222
10111TIP3    H130276   1.012   0.570   3.287
10111TIP3    H230277   1.017   0.639   3.152
10112TIP3   OH230278   7.513   4.776   2.707
10112TIP3    H130279   7.531   4.840   2.638
10112TIP3    H230280   7.563   4.699   2.681
10113TIP3   OH230281   6.246   3.584   2.606
10113TIP3    H130282   6.191   3.655   2.641
10113TIP3    H230283   6.212   3.569   2.518
10114TIP3   OH230284   7.538   7.475   2.329
10114TIP3    H130285   7.522   7.485   2.423
10114TIP3    H230286   7.632   7.485   2.319
10115TIP3   OH230287   2.531   1.012   2.687
10115TIP3    H130288   2.558   1.080   2.748
10115TIP3    H230289   2.506   0.938   2.743
10116TIP3   OH230290   3.096   2.658   1.254
10116TIP3    H130291   3.124   2.574   1.217
10116TIP3    H230292   3.127   2.656   1.345
10117TIP3   OH230293   0.333   1.114   2.364
10117TIP3    H130294   0.310   1.091   2.454
10117TIP3    H230295   0.344   1.030   2.320
10118TIP3   OH230296   7.857   0.346   0.524
10118TIP3    H130297   7.839   0.421   0.467
10118TIP3    H230298   7.952   0.347   0.536
10119TIP3   OH230299   2.301   1.982   6.482
10119TIP3    H130300   2.312   1.977   6.577
10119TIP3    H230301   2.242   1.909   6.462
10120TIP3   OH230302   5.708   5.890   2.360
10120TIP3    H130303   5.724   5.872   2.452
10120TIP3    H230304   5.782   5.945   2.333
10121TIP3   OH230305   7.891   5.820   5.169
10121TIP3    H130306   7.813   5.875   5.173
10121TIP3    H230307   7.869   5.743   5.221
10122TIP3   OH230308   0.708   5.027   2.136
10122TIP3    H130309   0.713   5.116   2.171
10122TIP3    H230310   0.616   5.002   2.147
10123TIP3   OH230311   4.934   6.312   4.837
10123TIP3    H130312   4.863   6.265   4.793
10123TIP3    H230313   4.990   6.342   4.766
10124TIP3   OH230314   7.160   0.456   3.275
10124TIP3    H130315   7.139   0.538   3.231
10124TIP3    H230316   7.144   0.474   3.368
10125TIP3   OH230317   0.471   1.200   6.387
10125TIP3    H130318   0.530   1.270   6.415
10125TIP3    H230319   0.529   1.125   6.370
10126TIP3   OH230320   5.234   6.858   3.940
10126TIP3    H130321   5.196   6.897   3.861
10126TIP3    H230322   5.329   6.870   3.929
10127TIP3   OH230323   4.933   0.226   3.690
10127TIP3    H130324   4.882   0.162   3.641
10127TIP3    H230325   5.000   0.173   3.734
10128TIP3   OH230326   5.486   6.862   0.545
10128TIP3    H130327   5.470   6.916   0.467
10128TIP3    H230328   5.579   6.841   0.540
10129TIP3   OH230329   7.654   6.592   4.990
10129TIP3    H130330   7.579   6.605   5.049
10129TIP3    H230331   7.722   6.649   5.025
10130TIP3   OH230332   8.302   3.378   1.248
10130TIP3    H130333   8.272   3.403   1.161
10130TIP3    H230334   8.323   3.460   1.292
10131TIP3   OH230335   2.084   6.471   5.206
10131TIP3    H130336   2.141   6.513   5.270
10131TIP3    H230337   2.086   6.378   5.229
10132TIP3   OH230338   7.525   2.925   6.677
10132TIP3    H130339   7.608   2.894   6.641
10132TIP3    H230340   7.502   3.001   6.623
10133TIP3   OH230341   7.233   2.916   3.616
10133TIP3    H130342   7.231   2.981   3.546
10133TIP3    H230343   7.316   2.869   3.603
10134TIP3   OH230344   2.882   6.943   0.336
10134TIP3    H130345   2.786   6.947   0.329
10134TIP3    H230346   2.908   7.033   0.356
10135TIP3   OH230347   6.880   4.252   4.519
10135TIP3    H130348   6.790   4.225   4.500
10135TIP3    H230349   6.881   4.346   4.501
10136TIP3   OH230350   0.614   5.086   5.666
10136TIP3    H130351   0.655   5.147   5.604
10136TIP3    H230352   0.676   5.081   5.739
10137TIP3   OH230353   0.642   3.430   3.581
10137TIP3    H130354   0.660   3.383   3.663
10137TIP3    H230355   0.618   3.518   3.609
10138TIP3   OH230356   2.999   5.013   5.042
10138TIP3    H130357   2.931   5.057   4.991
10138TIP3    H230358   3.006   4.926   5.002
10139TIP3   OH230359   0.955   4.113   3.175
10139TIP3    H130360   0.951   4.021   3.201
10139TIP3    H230361   0.963   4.161   3.257
10140TIP3   OH230362   7.338   3.015   3.379
10140TIP3    H130363   7.305   3.080   3.317
10140TIP3    H230364   7.406   2.969   3.331
10141TIP3   OH230365   4.353   6.214   2.853
10141TIP3    H130366   4.316   6.219   2.941
10141TIP3    H230367   4.403   6.295   2.843
10142TIP3   OH230368   4.753   1.376   1.063
10142TIP3    H130369   4.755   1.445   0.997
10142TIP3    H230370   4.779   1.419   1.145
10143TIP3   OH230371   0.380   0.255   3.943
10143TIP3    H130372   0.367   0.231   4.035
10143TIP3    H230373   0.465   0.217   3.920
10144TIP3   OH230374   0.450   1.681   3.323
10144TIP3    H130375   0.409   1.748   3.378
10144TIP3    H230376   0.436   1.712   3.234
10145TIP3   OH230377   0.766   4.248   0.262
10145TIP3    H130378   0.676   4.247   0.296
10145TIP3    H230379   0.821   4.239   0.341
10146TIP3   OH230380   8.063   6.618   2.035
10146TIP3    H130381   8.003   6.549   2.063
10146TIP3    H230382   8.023   6.699   2.067
10147TIP3   OH230383   3.338   2.926   2.603
10147TIP3    H130384   3.329   2.945   2.697
10147TIP3    H230385   3.416   2.871   2.597
10148TIP3   OH230386   2.738   2.925   2.026
10148TIP3    H130387   2.814   2.901   1.972
10148TIP3    H230388   2.710   3.009   1.992
10149TIP3   OH230389   5.261   3.494   0.607
10149TIP3    H130390   5.237   3.575   0.562
10149TIP3    H230391   5.342   3.515   0.654
10150TIP3   OH230392   1.672   7.735   6.597
10150TIP3    H130393   1.767   7.720   6.601
10150TIP3    H230394   1.647   7.704   6.510
10151TIP3   OH230395   6.972   1.658   1.342
10151TIP3    H130396   6.893   1.629   1.387
10151TIP3    H230397   6.966   1.618   1.255
10152TIP3   OH230398   3.392   5.282   3.247
10152TIP3    H130399   3.377   5.296   3.341
10152TIP3    H230400   3.474   5.328   3.229
10153TIP3   OH230401   7.337   6.626   6.371
10153TIP3    H130402   7.374   6.707   6.335
10153TIP3    H230403   7.401   6.598   6.436
10154TIP3   OH230404   4.236   1.632   5.162
10154TIP3    H130405   4.255   1.703   5.101
10154TIP3    H230406   4.153   1.595   5.132
10155TIP3   OH230407   6.005   4.718   4.112
10155TIP3    H130408   6.073   4.761   4.060
10155TIP3    H230409   5.956   4.790   4.151
10156TIP3   OH230410   5.837   5.027   3.424
10156TIP3    H130411   5.828   4.993   3.513
10156TIP3    H230412   5.831   4.949   3.368
10157TIP3   OH230413   4.970   6.492   2.758
10157TIP3    H130414   5.017   6.558   2.707
10157TIP3    H230415   5.037   6.427   2.781
10158TIP3   OH230416   1.591   0.382   2.189
10158TIP3    H130417   1.654   0.399   2.259
10158TIP3    H230418   1.644   0.384   2.109
10159TIP3   OH230419   3.349   7.325   2.052
10159TIP3    H130420   3.337   7.364   1.965
10159TIP3    H230421   3.443   7.312   2.060
10160TIP3   OH230422   3.797   6.925   4.928
10160TIP3    H130423   3.721   6.926   4.870
10160TIP3    H230424   3.807   7.017   4.955
10161TIP3   OH230425   4.747   0.257   6.032
10161TIP3    H130426   4.696   0.336   6.013
10161TIP3    H230427   4.784   0.232   5.947
10162TIP3   OH230428   4.667   7.810   4.758
10162TIP3    H130429   4.578   7.803   4.724
10162TIP3    H230430   4.716   7.743   4.709
10163TIP3   OH230431   2.945   5.206   6.182
10163TIP3    H130432   2.869   5.261   6.164
10163TIP3    H230433   2.928   5.126   6.132
10164TIP3   OH230434   3.372   5.248   3.540
10164TIP3    H130435   3.349   5.341   3.535
10164TIP3    H230436   3.290   5.205   3.566
10165TIP3   OH230437   5.721   3.453   2.996
10165TIP3    H130438   5.811   3.434   2.969
10165TIP3    H230439   5.676   3.369   2.990
10166TIP3   OH230440   3.766   4.104   2.781
10166TIP3    H130441   3.690   4.150   2.816
10166TIP3    H230442   3.824   4.173   2.749
10167TIP3   OH230443   8.156   5.636   3.219
10167TIP3    H130444   8.233   5.649   3.164
10167TIP3    H230445   8.084   5.627   3.156
10168TIP3   OH230446   1.138   1.377   6.444
10168TIP3    H130447   1.203   1.337   6.502
10168TIP3    H230448   1.160   1.471   6.446
10169TIP3   OH230449   7.645   7.139   0.671
10169TIP3    H130450   7.557   7.101   0.666
10169TIP3    H230451   7.659   7.179   0.586
10170TIP3   OH230452   3.249   0.569   4.225
10170TIP3    H130453   3.244   0.558   4.130
10170TIP3    H230454   3.291   0.488   4.256
10171TIP3   OH230455   4.075   0.912   1.523
10171TIP3    H130456   3.990   0.921   1.566
10171TIP3    H230457   4.073   0.825   1.483
10172TIP3   OH230458   7.506   6.826   6.002
10172TIP3    H130459   7.537   6.911   6.032
10172TIP3    H230460   7.584   6.781   5.972
10173TIP3   OH230461   7.585   1.013   1.619
10173TIP3    H130462   7.675   1.024   1.591
10173TIP3    H230463   7.571   1.081   1.685
10174TIP3   OH230464   7.077   7.415   3.614
10174TIP3    H130465   7.060   7.465   3.693
10174TIP3    H230466   6.990   7.391   3.581
10175TIP3   OH230467   1.071   1.753   0.401
10175TIP3    H130468   1.031   1.748   0.314
10175TIP3    H230469   1.014   1.700   0.457
10176TIP3   OH230470   4.314   5.825   0.127
10176TIP3    H130471   4.385   5.769   0.096
10176TIP3    H230472   4.335   5.912   0.092
10177TIP3   OH230473   1.831   1.536   4.028
10177TIP3    H130474   1.912   1.585   4.045
10177TIP3    H230475   1.771   1.565   4.096
10178TIP3   OH230476   1.538   0.954   4.053
10178TIP3    H130477   1.582   0.998   4.126
10178TIP3    H230478   1.531   1.021   3.985
10179TIP3   OH230479   7.531   0.151   5.232
10179TIP3    H130480   7.588   0.222   5.202
10179TIP3    H230481   7.504   0.107   5.152
10180TIP3   OH230482   6.582   7.266   3.421
10180TIP3    H130483   6.580   7.355   3.456
10180TIP3    H230484   6.575   7.278   3.327
10181TIP3   OH230485   5.175   7.318   1.723
10181TIP3    H130486   5.136   7.289   1.806
10181TIP3    H230487   5.197   7.410   1.737
10182TIP3   OH230488   8.261   5.904   0.956
10182TIP3    H130489   8.219   5.844   0.895
10182TIP3    H230490   8.355   5.889   0.944
10183TIP3   OH230491   2.822   3.718   6.408
10183TIP3    H130492   2.898   3.694   6.357
10183TIP3    H230493   2.752   3.730   6.344
10184TIP3   OH230494   7.901   6.464   1.046
10184TIP3    H130495   7.976   6.473   1.105
10184TIP3    H230496   7.888   6.552   1.011
10185TIP3   OH230497   4.269   0.198   4.259
10185TIP3    H130498   4.288   0.186   4.166
10185TIP3    H230499   4.343   0.158   4.304
10186TIP3   OH230500  -0.046   5.336   1.331
10186TIP3    H130501  -0.030   5.294   1.416
10186TIP3    H230502  -0.085   5.421   1.353
10187TIP3   OH230503   7.591   4.493   4.334
10187TIP3    H130504   7.545   4.567   4.373
10187TIP3    H230505   7.628   4.527   4.253
10188TIP3   OH230506   7.025   0.291   5.675
10188TIP3    H130507   7.064   0.242   5.603
10188TIP3    H230508   7.085   0.280   5.748
10189TIP3   OH230509   8.030   3.301   2.783
10189TIP3    H130510   8.073   3.229   2.736
10189TIP3    H230511   7.971   3.257   2.844
10190TIP3   OH230512   1.646   4.783   3.307
10190TIP3    H130513   1.577   4.747   3.364
10190TIP3    H230514   1.684   4.855   3.357
10191TIP3   OH230515   7.387   0.950   6.146
10191TIP3    H130516   7.294   0.960   6.164
10191TIP3    H230517   7.396   0.973   6.053
10192TIP3   OH230518   1.520   6.182   3.351
10192TIP3    H130519   1.531   6.087   3.346
10192TIP3    H230520   1.489   6.198   3.440
10193TIP3   OH230521   7.506   3.009   0.461
10193TIP3    H130522   7.498   2.950   0.536
10193TIP3    H230523   7.433   3.070   0.469
10194TIP3   OH230524   4.950   2.447   3.291
10194TIP3    H130525   4.918   2.529   3.253
10194TIP3    H230526   4.872   2.404   3.325
10195TIP3   OH230527   0.014   6.827   4.878
10195TIP3    H130528   0.096   6.786   4.850
10195TIP3    H230529  -0.015   6.773   4.952
10196TIP3   OH230530   2.561   6.896   3.352
10196TIP3    H130531   2.570   6.991   3.350
10196TIP3    H230532   2.481   6.880   3.402
10197TIP3   OH230533   1.338   3.520   0.351
10197TIP3    H130534   1.432   3.506   0.355
10197TIP3    H230535   1.327   3.615   0.357
10198TIP3   OH230536   2.476   2.055   0.953
10198TIP3    H130537   2.541   2.118   0.923
10198TIP3    H230538   2.408   2.055   0.886
10199TIP3   OH230539   2.834   4.134   5.176
10199TIP3    H130540   2.922   4.162   5.151
10199TIP3    H230541   2.785   4.215   5.188
10200TIP3   OH230542   3.151   6.958   1.594
10200TIP3    H130543   3.138   6.870   1.558
10200TIP3    H230544   3.070   6.976   1.641
10201TIP3   OH230545   5.273   3.175   1.158
10201TIP3    H130546   5.286   3.162   1.252
10201TIP3    H230547   5.200   3.236   1.152
10202TIP3   OH230548   3.013   4.912   1.474
10202TIP3    H130549   3.066   4.855   1.529
10202TIP3    H230550   2.929   4.867   1.467
10203TIP3   OH230551   7.265   4.108   3.490
10203TIP3    H130552   7.341   4.050   3.492
10203TIP3    H230553   7.254   4.129   3.397
10204TIP3   OH230554   6.216   3.128   5.802
10204TIP3    H130555   6.174   3.104   5.884
10204TIP3    H230556   6.145   3.124   5.737
10205TIP3   OH230557   6.158   7.587   4.811
10205TIP3    H130558   6.153   7.659   4.748
10205TIP3    H230559   6.104   7.616   4.885
10206TIP3   OH230560   3.050   3.260   4.884
10206TIP3    H130561   3.066   3.279   4.977
10206TIP3    H230562   3.004   3.176   4.884
10207TIP3   OH230563   1.676   3.121   5.341
10207TIP3    H130564   1.634   3.160   5.418
10207TIP3    H230565   1.711   3.038   5.373
10208TIP3   OH230566   4.300   0.240   6.122
10208TIP3    H130567   4.266   0.323   6.157
10208TIP3    H230568   4.331   0.193   6.199
10209TIP3   OH230569   0.422   6.557   1.758
10209TIP3    H130570   0.382   6.473   1.781
10209TIP3    H230571   0.363   6.622   1.796
10210TIP3   OH230572   7.176   3.802   2.510
10210TIP3    H130573   7.251   3.861   2.503
10210TIP3    H230574   7.127   3.815   2.428
10211TIP3   OH230575   1.569   1.878   1.314
10211TIP3    H130576   1.654   1.882   1.358
10211TIP3    H230577   1.565   1.957   1.260
10212TIP3   OH230578   2.927   1.598   1.778
10212TIP3    H130579   2.994   1.620   1.713
10212TIP3    H230580   2.926   1.674   1.836
10213TIP3   OH230581   2.768   0.136   1.499
10213TIP3    H130582   2.733   0.169   1.416
10213TIP3    H230583   2.735   0.047   1.505
10214TIP3   OH230584   2.951   1.875   2.982
10214TIP3    H130585   2.978   1.806   3.042
10214TIP3    H230586   3.025   1.885   2.922
10215TIP3   OH230587   6.087   2.587   5.443
10215TIP3    H130588   6.021   2.535   5.397
10215TIP3    H230589   6.099   2.664   5.388
10216TIP3   OH230590   3.967   5.447   6.780
10216TIP3    H130591   3.940   5.473   6.692
10216TIP3    H230592   3.886   5.428   6.826
10217TIP3   OH230593   0.106   7.391   5.329
10217TIP3    H130594   0.030   7.405   5.386
10217TIP3    H230595   0.169   7.345   5.384
10218TIP3   OH230596   7.306   2.355   3.275
10218TIP3    H130597   7.363   2.431   3.263
10218TIP3    H230598   7.276   2.333   3.187
10219TIP3   OH230599   3.521   0.289   3.471
10219TIP3    H130600   3.450   0.256   3.525
10219TIP3    H230601   3.576   0.340   3.532
10220TIP3   OH230602   2.487   5.613   0.562
10220TIP3    H130603   2.544   5.624   0.638
10220TIP3    H230604   2.497   5.694   0.512
10221TIP3   OH230605   1.363   0.265   4.580
10221TIP3    H130606   1.271   0.241   4.591
10221TIP3    H230607   1.409   0.181   4.575
10222TIP3   OH230608   2.462   2.563   5.319
10222TIP3    H130609   2.388   2.624   5.316
10222TIP3    H230610   2.508   2.578   5.237
10223TIP3   OH230611  -0.016   5.783   5.344
10223TIP3    H130612   0.076   5.796   5.369
10223TIP3    H230613  -0.052   5.730   5.415
10224TIP3   OH230614   8.096   6.214   4.812
10224TIP3    H130615   8.036   6.271   4.765
10224TIP3    H230616   8.155   6.181   4.744
10225TIP3   OH230617   3.779   3.407   6.230
10225TIP3    H130618   3.802   3.417   6.322
10225TIP3    H230619   3.704   3.348   6.230
10226TIP3   OH230620   3.591   5.410   3.943
10226TIP3    H130621   3.522   5.473   3.925
10226TIP3    H230622   3.611   5.371   3.858
10227TIP3   OH230623   0.024   5.842   1.948
10227TIP3    H130624   0.056   5.757   1.919
10227TIP3    H230625  -0.060   5.853   1.903
10228TIP3   OH230626   1.475   0.585   6.302
10228TIP3    H130627   1.482   0.574   6.397
10228TIP3    H230628   1.383   0.607   6.288
10229TIP3   OH230629   6.389   2.246   4.492
10229TIP3    H130630   6.473   2.217   4.455
10229TIP3    H230631   6.413   2.289   4.574
10230TIP3   OH230632   3.785   1.938   3.971
10230TIP3    H130633   3.793   1.964   4.063
10230TIP3    H230634   3.770   1.844   3.973
10231TIP3   OH230635   8.097   5.486   3.960
10231TIP3    H130636   8.090   5.569   4.007
10231TIP3    H230637   8.130   5.510   3.874
10232TIP3   OH230638   0.546   7.209   4.388
10232TIP3    H130639   0.532   7.182   4.297
10232TIP3    H230640   0.618   7.273   4.383
10233TIP3   OH230641   1.610   1.236   1.488
10233TIP3    H130642   1.701   1.238   1.520
10233TIP3    H230643   1.585   1.328   1.482
10234TIP3   OH230644   7.657   6.316   4.988
10234TIP3    H130645   7.614   6.392   5.027
10234TIP3    H230646   7.751   6.336   4.995
10235TIP3   OH230647   4.112   6.171   2.177
10235TIP3    H130648   4.101   6.099   2.239
10235TIP3    H230649   4.081   6.248   2.224
10236TIP3   OH230650   1.245   2.942   1.122
10236TIP3    H130651   1.232   2.900   1.207
10236TIP3    H230652   1.158   2.972   1.097
10237TIP3   OH230653   4.050   4.362   2.296
10237TIP3    H130654   4.061   4.295   2.229
10237TIP3    H230655   4.016   4.438   2.249
10238TIP3   OH230656   5.112   0.968   2.195
10238TIP3    H130657   5.048   0.933   2.133
10238TIP3    H230658   5.139   1.052   2.157
10239TIP3   OH230659   2.629   7.421   3.853
10239TIP3    H130660   2.601   7.498   3.903
10239TIP3    H230661   2.695   7.379   3.909
10240TIP3   OH230662   7.366   6.660   6.644
10240TIP3    H130663   7.296   6.683   6.583
10240TIP3    H230664   7.339   6.575   6.680
10241TIP3   OH230665   4.432   3.776   3.553
10241TIP3    H130666   4.364   3.767   3.620
10241TIP3    H230667   4.417   3.863   3.516
10242TIP3   OH230668   7.682   4.695   1.530
10242TIP3    H130669   7.682   4.698   1.434
10242TIP3    H230670   7.615   4.630   1.551
10243TIP3   OH230671   7.961   6.091   0.894
10243TIP3    H130672   8.017   6.113   0.819
10243TIP3    H230673   8.022   6.074   0.965
10244TIP3   OH230674   1.444   6.008   4.634
10244TIP3    H130675   1.391   5.950   4.580
10244TIP3    H230676   1.434   6.095   4.594
10245TIP3   OH230677   4.775   5.420   2.087
10245TIP3    H130678   4.829   5.399   2.163
10245TIP3    H230679   4.810   5.503   2.055
10246TIP3   OH230680   3.683   7.747   1.849
10246TIP3    H130681   3.617   7.682   1.824
10246TIP3    H230682   3.661   7.771   1.939
10247TIP3   OH230683   3.550   2.240   3.533
10247TIP3    H130684   3.492   2.305   3.494
10247TIP3    H230685   3.637   2.263   3.500
10248TIP3   OH230686   3.953   6.824   2.120
10248TIP3    H130687   3.875   6.807   2.067
10248TIP3    H230688   3.922   6.874   2.195
10249TIP3   OH230689   5.069   0.556   2.510
10249TIP3    H130690   5.025   0.633   2.473
10249TIP3    H230691   5.027   0.544   2.595
10250TIP3   OH230692   3.201   2.356   1.453
10250TIP3    H130693   3.161   2.344   1.539
10250TIP3    H230694   3.290   2.322   1.462
10251TIP3   OH230695   3.493   3.770   5.151
10251TIP3    H130696   3.423   3.742   5.091
10251TIP3    H230697   3.451   3.773   5.237
10252TIP3   OH230698   1.939   7.133   2.061
10252TIP3    H130699   1.932   7.122   1.966
10252TIP3    H230700   2.028   7.164   2.075
10253TIP3   OH230701   3.638   6.116   0.778
10253TIP3    H130702   3.608   6.206   0.764
10253TIP3    H230703   3.733   6.124   0.787
10254TIP3   OH230704   6.846   7.467   6.617
10254TIP3    H130705   6.922   7.424   6.657
10254TIP3    H230706   6.884   7.537   6.564
10255TIP3   OH230707   4.797   6.487   2.290
10255TIP3    H130708   4.837   6.569   2.319
10255TIP3    H230709   4.761   6.448   2.369
10256TIP3   OH230710   0.538   0.547   2.124
10256TIP3    H130711   0.600   0.618   2.140
10256TIP3    H230712   0.589   0.467   2.138
10257TIP3   OH230713   1.668   7.232   2.147
10257TIP3    H130714   1.752   7.192   2.124
10257TIP3    H230715   1.659   7.307   2.089
10258TIP3   OH230716   1.157   4.953   6.159
10258TIP3    H130717   1.138   4.909   6.076
10258TIP3    H230718   1.245   4.988   6.149
10259TIP3   OH230719   0.729   0.135   4.960
10259TIP3    H130720   0.809   0.086   4.978
10259TIP3    H230721   0.745   0.177   4.875
10260TIP3   OH230722   3.521   3.026   3.207
10260TIP3    H130723   3.617   3.025   3.203
10260TIP3    H230724   3.500   2.981   3.288
10261TIP3   OH230725   6.123   2.063   6.218
10261TIP3    H130726   6.212   2.034   6.198
10261TIP3    H230727   6.130   2.106   6.303
10262TIP3   OH230728   7.391   6.874   2.159
10262TIP3    H130729   7.357   6.953   2.116
10262TIP3    H230730   7.322   6.848   2.220
10263TIP3   OH230731   3.087   1.281   1.296
10263TIP3    H130732   3.048   1.288   1.208
10263TIP3    H230733   3.079   1.188   1.317
10264TIP3   OH230734   0.775   2.621   2.740
10264TIP3    H130735   0.705   2.562   2.766
10264TIP3    H230736   0.730   2.703   2.719
10265TIP3   OH230737   2.249   2.561   1.550
10265TIP3    H130738   2.340   2.530   1.554
10265TIP3    H230739   2.221   2.567   1.641
10266TIP3   OH230740   5.765   3.770   0.316
10266TIP3    H130741   5.792   3.681   0.335
10266TIP3    H230742   5.713   3.796   0.392
10267TIP3   OH230743   5.966   5.703   6.338
10267TIP3    H130744   6.032   5.770   6.321
10267TIP3    H230745   6.012   5.636   6.389
10268TIP3   OH230746   7.046   0.656   4.834
10268TIP3    H130747   6.992   0.731   4.859
10268TIP3    H230748   7.046   0.658   4.738
10269TIP3   OH230749   4.943   7.476   4.267
10269TIP3    H130750   5.012   7.544   4.267
10269TIP3    H230751   4.908   7.478   4.355
10270TIP3   OH230752   4.307   7.608   4.847
10270TIP3    H130753   4.345   7.681   4.896
10270TIP3    H230754   4.345   7.616   4.759
10271TIP3   OH230755   7.498   6.793   2.503
10271TIP3    H130756   7.490   6.889   2.507
10271TIP3    H230757   7.556   6.777   2.429
10272TIP3   OH230758   3.063   5.772   5.130
10272TIP3    H130759   2.981   5.777   5.080
10272TIP3    H230760   3.088   5.680   5.124
10273TIP3   OH230761   5.224   4.181   1.597
10273TIP3    H130762   5.133   4.210   1.598
10273TIP3    H230763   5.265   4.232   1.527
10274TIP3   OH230764   2.453   3.891   5.388
10274TIP3    H130765   2.390   3.946   5.341
10274TIP3    H230766   2.414   3.879   5.475
10275TIP3   OH230767   8.155   5.427   6.286
10275TIP3    H130768   8.230   5.396   6.234
10275TIP3    H230769   8.095   5.353   6.290
10276TIP3   OH230770   4.274   7.288   0.641
10276TIP3    H130771   4.356   7.333   0.663
10276TIP3    H230772   4.206   7.341   0.681
10277TIP3   OH230773   2.854   4.652   4.445
10277TIP3    H130774   2.929   4.600   4.475
10277TIP3    H230775   2.809   4.595   4.382
10278TIP3   OH230776   6.393   6.375   0.927
10278TIP3    H130777   6.388   6.301   0.865
10278TIP3    H230778   6.480   6.412   0.913
10279TIP3   OH230779   2.157   7.428   2.160
10279TIP3    H130780   2.160   7.346   2.208
10279TIP3    H230781   2.092   7.413   2.091
10280TIP3   OH230782   4.760   2.044   5.447
10280TIP3    H130783   4.765   2.052   5.542
10280TIP3    H230784   4.737   1.952   5.432
10281TIP3   OH230785   2.628   1.359   3.458
10281TIP3    H130786   2.645   1.432   3.399
10281TIP3    H230787   2.702   1.358   3.518
10282TIP3   OH230788   3.236   1.473   4.501
10282TIP3    H130789   3.323   1.493   4.464
10282TIP3    H230790   3.222   1.381   4.481
10283TIP3   OH230791   0.171   2.730   1.674
10283TIP3    H130792   0.141   2.820   1.682
10283TIP3    H230793   0.142   2.702   1.587
10284TIP3   OH230794   6.172   4.092   6.104
10284TIP3    H130795   6.202   4.182   6.109
10284TIP3    H230796   6.232   4.049   6.043
10285TIP3   OH230797   4.871   6.010   1.982
10285TIP3    H130798   4.802   6.058   2.027
10285TIP3    H230799   4.927   5.977   2.053
10286TIP3   OH230800   7.382   2.749   6.503
10286TIP3    H130801   7.292   2.775   6.524
10286TIP3    H230802   7.432   2.774   6.580
10287TIP3   OH230803   1.941   2.693   0.069
10287TIP3    H130804   2.027   2.674   0.031
10287TIP3    H230805   1.930   2.788   0.056
10288TIP3   OH230806   7.000   4.415   6.571
10288TIP3    H130807   7.010   4.388   6.480
10288TIP3    H230808   6.917   4.464   6.572
10289TIP3   OH230809   2.462   2.892   0.235
10289TIP3    H130810   2.518   2.815   0.240
10289TIP3    H230811   2.522   2.965   0.217
10290TIP3   OH230812   3.861   2.683   6.729
10290TIP3    H130813   3.848   2.610   6.668
10290TIP3    H230814   3.885   2.641   6.811
10291TIP3   OH230815   4.503   5.319   2.368
10291TIP3    H130816   4.551   5.304   2.449
10291TIP3    H230817   4.521   5.410   2.345
10292TIP3   OH230818   8.074   2.934   4.423
10292TIP3    H130819   8.006   2.973   4.369
10292TIP3    H230820   8.031   2.916   4.507
10293TIP3   OH230821   6.099   3.271   3.996
10293TIP3    H130822   6.043   3.310   4.063
10293TIP3    H230823   6.106   3.338   3.928
10294TIP3   OH230824   2.001   7.061   4.346
10294TIP3    H130825   1.994   7.155   4.362
10294TIP3    H230826   2.091   7.049   4.314
10295TIP3   OH230827   5.075   1.978   1.944
10295TIP3    H130828   5.117   2.063   1.937
10295TIP3    H230829   5.116   1.937   2.020
10296TIP3   OH230830   0.214   1.929   1.532
10296TIP3    H130831   0.178   1.842   1.514
10296TIP3    H230832   0.164   1.961   1.607
10297TIP3   OH230833   1.786   0.160   0.946
10297TIP3    H130834   1.794   0.120   1.033
10297TIP3    H230835   1.846   0.234   0.948
10298TIP3   OH230836   1.067   5.592   0.414
10298TIP3    H130837   0.983   5.572   0.372
10298TIP3    H230838   1.064   5.544   0.497
10299TIP3   OH230839   0.999   2.483   1.817
10299TIP3    H130840   0.943   2.407   1.827
10299TIP3    H230841   1.056   2.482   1.893
10300TIP3   OH230842   4.267   2.643   3.625
10300TIP3    H130843   4.233   2.579   3.688
10300TIP3    H230844   4.286   2.721   3.677
10301TIP3   OH230845   6.117   1.653   1.450
10301TIP3    H130846   6.056   1.724   1.429
10301TIP3    H230847   6.203   1.693   1.445
10302TIP3   OH230848   5.345   3.579   3.563
10302TIP3    H130849   5.263   3.593   3.610
10302TIP3    H230850   5.356   3.484   3.563
10303TIP3   OH230851   7.808   0.492   5.679
10303TIP3    H130852   7.903   0.501   5.691
10303TIP3    H230853   7.793   0.397   5.682
10304TIP3   OH230854   2.596   2.469   2.220
10304TIP3    H130855   2.663   2.457   2.152
10304TIP3    H230856   2.575   2.380   2.249
10305TIP3   OH230857   5.196   0.709   5.648
10305TIP3    H130858   5.140   0.757   5.588
10305TIP3    H230859   5.269   0.679   5.594
10306TIP3   OH230860   2.287   4.927   2.421
10306TIP3    H130861   2.349   4.892   2.485
10306TIP3    H230862   2.252   5.006   2.462
10307TIP3   OH230863   7.381   2.135   1.018
10307TIP3    H130864   7.366   2.098   1.105
10307TIP3    H230865   7.332   2.077   0.959
10308TIP3   OH230866   1.149   0.820   1.046
10308TIP3    H130867   1.059   0.794   1.066
10308TIP3    H230868   1.189   0.838   1.132
10309TIP3   OH230869   2.825   3.256   5.639
10309TIP3    H130870   2.795   3.222   5.555
10309TIP3    H230871   2.903   3.204   5.659
10310TIP3   OH230872   7.924   4.869   6.010
10310TIP3    H130873   7.831   4.873   5.988
10310TIP3    H230874   7.925   4.876   6.106
10311TIP3   OH230875   7.954   2.078   2.800
10311TIP3    H130876   8.036   2.127   2.807
10311TIP3    H230877   7.910   2.093   2.884
10312TIP3   OH230878   6.227   4.637   6.341
10312TIP3    H130879   6.298   4.654   6.279
10312TIP3    H230880   6.268   4.643   6.427
10313TIP3   OH230881   5.286   4.365   3.350
10313TIP3    H130882   5.288   4.396   3.259
10313TIP3    H230883   5.295   4.270   3.342
10314TIP3   OH230884   4.454   0.591   1.413
10314TIP3    H130885   4.469   0.565   1.504
10314TIP3    H230886   4.450   0.508   1.365
10315TIP3   OH230887   1.270   4.860   4.887
10315TIP3    H130888   1.316   4.856   4.803
10315TIP3    H230889   1.268   4.769   4.918
10316TIP3   OH230890   2.536   1.823   1.075
10316TIP3    H130891   2.493   1.898   1.034
10316TIP3    H230892   2.465   1.768   1.107
10317TIP3   OH230893   2.563   3.126   4.196
10317TIP3    H130894   2.585   3.035   4.220
10317TIP3    H230895   2.574   3.175   4.278
10318TIP3   OH230896   4.695   7.705   3.217
10318TIP3    H130897   4.700   7.756   3.298
10318TIP3    H230898   4.636   7.632   3.239
10319TIP3   OH230899   6.264   6.930   5.562
10319TIP3    H130900   6.328   6.943   5.632
10319TIP3    H230901   6.191   6.988   5.584
10320TIP3   OH230902   7.264   1.704   4.688
10320TIP3    H130903   7.338   1.748   4.645
10320TIP3    H230904   7.187   1.752   4.658
10321TIP3   OH230905   1.068   6.764   4.370
10321TIP3    H130906   1.137   6.825   4.398
10321TIP3    H230907   0.988   6.803   4.404
10322TIP3   OH230908   3.556   4.455   5.940
10322TIP3    H130909   3.501   4.472   6.016
10322TIP3    H230910   3.539   4.527   5.880
10323TIP3   OH230911   2.133   6.013   0.357
10323TIP3    H130912   2.146   5.926   0.319
10323TIP3    H230913   2.109   5.996   0.448
10324TIP3   OH230914   0.574   1.248   5.036
10324TIP3    H130915   0.512   1.191   4.992
10324TIP3    H230916   0.548   1.244   5.128
10325TIP3   OH230917   2.594   0.211   2.602
10325TIP3    H130918   2.674   0.256   2.628
10325TIP3    H230919   2.534   0.281   2.576
10326TIP3   OH230920   4.404   2.624   0.280
10326TIP3    H130921   4.338   2.612   0.212
10326TIP3    H230922   4.412   2.538   0.321
10327TIP3   OH230923   6.270   4.040   5.739
10327TIP3    H130924   6.181   4.015   5.765
10327TIP3    H230925   6.320   3.959   5.742
10328TIP3   OH230926   4.216   0.518   3.612
10328TIP3    H130927   4.161   0.515   3.690
10328TIP3    H230928   4.280   0.448   3.624
10329TIP3   OH230929   2.586   0.793   5.620
10329TIP3    H130930   2.634   0.865   5.578
10329TIP3    H230931   2.653   0.745   5.669
10330TIP3   OH230932   1.209   1.530   5.919
10330TIP3    H130933   1.247   1.560   6.001
10330TIP3    H230934   1.283   1.497   5.868
10331TIP3   OH230935   2.738   6.138   6.241
10331TIP3    H130936   2.694   6.196   6.178
10331TIP3    H230937   2.722   6.179   6.326
10332TIP3   OH230938   1.342   0.819   0.854
10332TIP3    H130939   1.268   0.860   0.899
10332TIP3    H230940   1.301   0.765   0.786
10333TIP3   OH230941   6.172   0.804   6.574
10333TIP3    H130942   6.082   0.821   6.548
10333TIP3    H230943   6.203   0.887   6.611
10334TIP3   OH230944   6.431   7.704   4.748
10334TIP3    H130945   6.526   7.692   4.750
10334TIP3    H230946   6.397   7.627   4.794
10335TIP3   OH230947   0.796   4.987   1.596
10335TIP3    H130948   0.707   4.979   1.632
10335TIP3    H230949   0.850   4.934   1.655
10336TIP3   OH230950   0.857   1.860   3.789
10336TIP3    H130951   0.877   1.767   3.795
10336TIP3    H230952   0.932   1.898   3.743
10337TIP3   OH230953   2.990   2.844   1.945
10337TIP3    H130954   3.057   2.815   1.884
10337TIP3    H230955   3.007   2.793   2.025
10338TIP3   OH230956   7.635   7.182   6.765
10338TIP3    H130957   7.557   7.229   6.795
10338TIP3    H230958   7.676   7.243   6.703
10339TIP3   OH230959   5.423   6.247   6.758
10339TIP3    H130960   5.476   6.240   6.837
10339TIP3    H230961   5.439   6.165   6.711
10340TIP3   OH230962   1.274   0.221   0.727
10340TIP3    H130963   1.309   0.254   0.644
10340TIP3    H230964   1.338   0.247   0.793
10341TIP3   OH230965   3.632   3.563   4.799
10341TIP3    H130966   3.590   3.494   4.850
10341TIP3    H230967   3.722   3.532   4.785
10342TIP3   OH230968   2.589   0.560   4.268
10342TIP3    H130969   2.557   0.548   4.179
10342TIP3    H230970   2.552   0.644   4.296
10343TIP3   OH230971   3.763   4.576   2.960
10343TIP3    H130972   3.698   4.646   2.971
10343TIP3    H230973   3.714   4.495   2.974
10344TIP3   OH230974   4.282   0.151   6.426
10344TIP3    H130975   4.248   0.176   6.512
10344TIP3    H230976   4.335   0.074   6.443
10345TIP3   OH230977   2.533   0.346   3.857
10345TIP3    H130978   2.620   0.317   3.829
10345TIP3    H230979   2.547   0.434   3.891
10346TIP3   OH230980   2.277   6.546   3.891
10346TIP3    H130981   2.245   6.466   3.932
10346TIP3    H230982   2.269   6.613   3.959
10347TIP3   OH230983   4.325   7.343   2.147
10347TIP3    H130984   4.389   7.281   2.181
10347TIP3    H230985   4.329   7.334   2.052
10348TIP3   OH230986   6.296   5.455   2.433
10348TIP3    H130987   6.345   5.411   2.502
10348TIP3    H230988   6.238   5.515   2.479
10349TIP3   OH230989   7.111   0.146   5.455
10349TIP3    H130990   7.161   0.069   5.431
10349TIP3    H230991   7.037   0.147   5.394
10350TIP3   OH230992   3.112   5.822   0.108
10350TIP3    H130993   3.029   5.844   0.149
10350TIP3    H230994   3.136   5.900   0.058
10351TIP3   OH230995   0.580   3.684   3.663
10351TIP3    H130996   0.512   3.676   3.731
10351TIP3    H230997   0.537   3.733   3.593
10352TIP3   OH230998   6.827   1.903   5.006
10352TIP3    H130999   6.844   1.819   5.050
10352TIP3    H231000   6.735   1.898   4.980
10353TIP3   OH231001   3.536   2.254   1.554
10353TIP3    H131002   3.515   2.297   1.470
10353TIP3    H231003   3.488   2.172   1.551
10354TIP3   OH231004   3.575   3.980   0.316
10354TIP3    H131005   3.647   4.017   0.266
10354TIP3    H231006   3.501   3.979   0.254
10355TIP3   OH231007   4.815   2.843   6.147
10355TIP3    H131008   4.883   2.843   6.214
10355TIP3    H231009   4.767   2.762   6.161
10356TIP3   OH231010   1.966   4.892   4.650
10356TIP3    H131011   2.014   4.911   4.730
10356TIP3    H231012   2.029   4.848   4.593
10357TIP3   OH231013   3.094   1.682   6.262
10357TIP3    H131014   3.031   1.754   6.261
10357TIP3    H231015   3.053   1.615   6.316
10358TIP3   OH231016   6.851   2.189   0.775
10358TIP3    H131017   6.767   2.228   0.749
10358TIP3    H231018   6.916   2.254   0.748
10359TIP3   OH231019   1.197   4.596   1.775
10359TIP3    H131020   1.231   4.656   1.841
10359TIP3    H231021   1.217   4.638   1.691
10360TIP3   OH231022   1.559   7.696   1.784
10360TIP3    H131023   1.578   7.728   1.872
10360TIP3    H231024   1.472   7.728   1.764
10361TIP3   OH231025   7.938   0.871   4.949
10361TIP3    H131026   7.955   0.781   4.922
10361TIP3    H231027   7.880   0.863   5.025
10362TIP3   OH231028   5.428   1.718   0.958
10362TIP3    H131029   5.427   1.807   0.926
10362TIP3    H231030   5.515   1.708   0.998
10363TIP3   OH231031   3.851   5.781   6.247
10363TIP3    H131032   3.899   5.711   6.292
10363TIP3    H231033   3.915   5.852   6.238
10364TIP3   OH231034   6.358   5.988   0.219
10364TIP3    H131035   6.372   5.954   0.308
10364TIP3    H231036   6.360   5.910   0.163
10365TIP3   OH231037   7.646   5.007   1.279
10365TIP3    H131038   7.630   5.052   1.362
10365TIP3    H231039   7.581   5.044   1.219
10366TIP3   OH231040   1.056   1.824   3.167
10366TIP3    H131041   1.084   1.806   3.256
10366TIP3    H231042   1.034   1.738   3.130
10367TIP3   OH231043   3.057   2.064   4.460
10367TIP3    H131044   3.033   2.025   4.375
10367TIP3    H231045   2.985   2.041   4.518
10368TIP3   OH231046   5.368   4.825   4.983
10368TIP3    H131047   5.408   4.907   4.954
10368TIP3    H231048   5.301   4.852   5.047
10369TIP3   OH231049   5.045   5.575   4.176
10369TIP3    H131050   5.116   5.527   4.133
10369TIP3    H231051   5.019   5.519   4.249
10370TIP3   OH231052   6.194   7.428   0.750
10370TIP3    H131053   6.259   7.497   0.762
10370TIP3    H231054   6.214   7.391   0.664
10371TIP3   OH231055   3.982   6.663   4.635
10371TIP3    H131056   3.904   6.698   4.594
10371TIP3    H231057   4.051   6.672   4.569
10372TIP3   OH231058   4.027   5.208   2.670
10372TIP3    H131059   3.990   5.120   2.657
10372TIP3    H231060   4.097   5.195   2.734
10373TIP3   OH231061   0.805   0.838   3.339
10373TIP3    H131062   0.814   0.745   3.318
10373TIP3    H231063   0.789   0.840   3.433
10374TIP3   OH231064   7.736   2.877   6.506
10374TIP3    H131065   7.725   2.790   6.468
10374TIP3    H231066   7.830   2.894   6.498
10375TIP3   OH231067   0.250   1.119   4.437
10375TIP3    H131068   0.219   1.066   4.511
10375TIP3    H231069   0.289   1.195   4.478
10376TIP3   OH231070   6.535   3.792   2.790
10376TIP3    H131071   6.509   3.792   2.698
10376TIP3    H231072   6.590   3.870   2.800
10377TIP3   OH231073   8.014   0.144   6.642
10377TIP3    H131074   7.940   0.093   6.607
10377TIP3    H231075   7.997   0.149   6.736
10378TIP3   OH231076   7.291   4.412   3.827
10378TIP3    H131077   7.251   4.327   3.809
10378TIP3    H231078   7.345   4.431   3.750
10379TIP3   OH231079   4.728   4.210   5.166
10379TIP3    H131080   4.740   4.240   5.076
10379TIP3    H231081   4.720   4.291   5.217
10380TIP3   OH231082   5.392   2.779   2.278
10380TIP3    H131083   5.427   2.834   2.347
10380TIP3    H231084   5.393   2.690   2.315
10381TIP3   OH231085   5.086   6.915   0.520
10381TIP3    H131086   5.131   6.991   0.559
10381TIP3    H231087   4.993   6.935   0.528
10382TIP3   OH231088   0.405   6.264   0.391
10382TIP3    H131089   0.391   6.286   0.299
10382TIP3    H231090   0.488   6.217   0.392
10383TIP3   OH231091   3.217   4.163   4.559
10383TIP3    H131092   3.189   4.072   4.549
10383TIP3    H231093   3.270   4.164   4.639
10384TIP3   OH231094   4.866   5.625   5.910
10384TIP3    H131095   4.866   5.642   6.004
10384TIP3    H231096   4.878   5.530   5.902
10385TIP3   OH231097   5.784   7.453   4.605
10385TIP3    H131098   5.811   7.401   4.680
10385TIP3    H231099   5.777   7.542   4.639
10386TIP3   OH231100   8.108   7.010   2.687
10386TIP3    H131101   8.142   6.955   2.758
10386TIP3    H231102   8.164   7.088   2.689
10387TIP3   OH231103   6.727   7.431   4.252
10387TIP3    H131104   6.716   7.349   4.301
10387TIP3    H231105   6.811   7.466   4.283
10388TIP3   OH231106   6.159   0.308   1.838
10388TIP3    H131107   6.250   0.327   1.818
10388TIP3    H231108   6.160   0.275   1.928
10389TIP3   OH231109   1.658   1.095   4.826
10389TIP3    H131110   1.580   1.097   4.881
10389TIP3    H231111   1.623   1.081   4.737
10390TIP3   OH231112   0.709   2.031  -0.011
10390TIP3    H131113   0.763   2.091   0.041
10390TIP3    H231114   0.729   2.052  -0.102
10391TIP3   OH231115   2.284   6.736   3.396
10391TIP3    H131116   2.308   6.761   3.485
10391TIP3    H231117   2.201   6.689   3.405
10392TIP3   OH231118   7.472   5.981   0.952
10392TIP3    H131119   7.401   5.922   0.980
10392TIP3    H231120   7.428   6.063   0.931
10393TIP3   OH231121   7.403   5.914   4.317
10393TIP3    H131122   7.350   5.914   4.237
10393TIP3    H231123   7.493   5.917   4.286
10394TIP3   OH231124   0.790   4.183   5.077
10394TIP3    H131125   0.740   4.157   4.999
10394TIP3    H231126   0.755   4.268   5.101
10395TIP3   OH231127   4.579   3.741   3.894
10395TIP3    H131128   4.568   3.720   3.986
10395TIP3    H231129   4.503   3.796   3.872
10396TIP3   OH231130   4.410   3.014   5.165
10396TIP3    H131131   4.436   3.106   5.161
10396TIP3    H231132   4.333   3.008   5.109
10397TIP3   OH231133   1.459   7.700   3.423
10397TIP3    H131134   1.509   7.723   3.501
10397TIP3    H231135   1.476   7.607   3.410
10398TIP3   OH231136   8.161   3.074   0.954
10398TIP3    H131137   8.083   3.028   0.984
10398TIP3    H231138   8.128   3.158   0.922
10399TIP3   OH231139   4.081   3.249   2.922
10399TIP3    H131140   4.112   3.242   3.013
10399TIP3    H231141   4.071   3.343   2.908
10400TIP3   OH231142   1.700   2.141   0.114
10400TIP3    H131143   1.643   2.065   0.124
10400TIP3    H231144   1.681   2.195   0.191
10401TIP3   OH231145   2.401   3.178   3.737
10401TIP3    H131146   2.496   3.185   3.720
10401TIP3    H231147   2.388   3.225   3.819
10402TIP3   OH231148   1.104   1.080   2.179
10402TIP3    H131149   1.074   1.054   2.092
10402TIP3    H231150   1.187   1.123   2.163
10403TIP3   OH231151   1.793   0.074   1.526
10403TIP3    H131152   1.784   0.011   1.598
10403TIP3    H231153   1.857   0.138   1.558
10404TIP3   OH231154   2.053   7.534   1.059
10404TIP3    H131155   2.149   7.532   1.050
10404TIP3    H231156   2.021   7.504   0.974
10405TIP3   OH231157   3.661   5.017   2.752
10405TIP3    H131158   3.618   5.101   2.739
10405TIP3    H231159   3.675   5.012   2.847
10406TIP3   OH231160   0.728   3.076   1.589
10406TIP3    H131161   0.637   3.050   1.575
10406TIP3    H231162   0.779   2.999   1.563
10407TIP3   OH231163   8.000   7.503   5.836
10407TIP3    H131164   7.926   7.512   5.895
10407TIP3    H231165   7.993   7.579   5.778
10408TIP3   OH231166   5.919   5.578   1.885
10408TIP3    H131167   6.006   5.608   1.859
10408TIP3    H231168   5.889   5.526   1.810
10409TIP3   OH231169   8.131   0.404   5.544
10409TIP3    H131170   8.123   0.473   5.478
10409TIP3    H231171   8.060   0.343   5.525
10410TIP3   OH231172   6.349   7.492   3.540
10410TIP3    H131173   6.324   7.584   3.546
10410TIP3    H231174   6.314   7.462   3.456
10411TIP3   OH231175   3.651   1.481   0.676
10411TIP3    H131176   3.649   1.470   0.581
10411TIP3    H231177   3.569   1.441   0.707
10412TIP3   OH231178   1.214   5.849   5.121
10412TIP3    H131179   1.229   5.940   5.097
10412TIP3    H231180   1.181   5.809   5.041
10413TIP3   OH231181   4.314   4.192   5.478
10413TIP3    H131182   4.269   4.271   5.449
10413TIP3    H231183   4.267   4.120   5.436
10414TIP3   OH231184   7.047   4.013   4.415
10414TIP3    H131185   7.008   4.100   4.412
10414TIP3    H231186   7.105   4.015   4.491
10415TIP3   OH231187   7.924   5.489   1.112
10415TIP3    H131188   7.860   5.559   1.125
10415TIP3    H231189   7.935   5.485   1.017
10416TIP3   OH231190   1.028   3.939   2.916
10416TIP3    H131191   0.970   3.998   2.964
10416TIP3    H231192   1.044   3.983   2.832
10417TIP3   OH231193   1.269   4.700   0.157
10417TIP3    H131194   1.227   4.768   0.210
10417TIP3    H231195   1.201   4.672   0.095
10418TIP3   OH231196   5.683   2.835   2.016
10418TIP3    H131197   5.729   2.906   2.060
10418TIP3    H231198   5.627   2.878   1.952
10419TIP3   OH231199   5.761   1.660   1.653
10419TIP3    H131200   5.793   1.602   1.584
10419TIP3    H231201   5.686   1.704   1.614
10420TIP3   OH231202   7.299   3.189   2.557
10420TIP3    H131203   7.284   3.188   2.652
10420TIP3    H231204   7.301   3.282   2.534
10421TIP3   OH231205   4.720   2.977   6.752
10421TIP3    H131206   4.795   3.011   6.800
10421TIP3    H231207   4.703   3.041   6.683
10422TIP3   OH231208   5.715   0.371   2.079
10422TIP3    H131209   5.700   0.462   2.053
10422TIP3    H231210   5.632   0.327   2.059
10423TIP3   OH231211   5.014   3.491   5.097
10423TIP3    H131212   5.098   3.529   5.123
10423TIP3    H231213   4.979   3.553   5.033
10424TIP3   OH231214   1.830   4.482   0.679
10424TIP3    H131215   1.855   4.441   0.597
10424TIP3    H231216   1.768   4.550   0.655
10425TIP3   OH231217   4.240   5.004   5.571
10425TIP3    H131218   4.202   5.092   5.578
10425TIP3    H231219   4.289   5.006   5.489
10426TIP3   OH231220   2.733   5.144   0.081
10426TIP3    H131221   2.787   5.130   0.003
10426TIP3    H231222   2.761   5.229   0.114
10427TIP3   OH231223   6.381   3.781   4.859
10427TIP3    H131224   6.438   3.835   4.915
10427TIP3    H231225   6.399   3.691   4.886
10428TIP3   OH231226   7.596   0.668   3.744
10428TIP3    H131227   7.630   0.611   3.674
10428TIP3    H231228   7.507   0.636   3.759
10429TIP3   OH231229   8.055   1.057   1.262
10429TIP3    H131230   8.116   1.062   1.189
10429TIP3    H231231   8.075   1.133   1.317
10430TIP3   OH231232   3.183   5.499   3.166
10430TIP3    H131233   3.194   5.593   3.155
10430TIP3    H231234   3.254   5.474   3.225
10431TIP3   OH231235   0.487   5.569   1.483
10431TIP3    H131236   0.475   5.567   1.388
10431TIP3    H231237   0.538   5.490   1.502
10432TIP3   OH231238   5.475   1.537   2.343
10432TIP3    H131239   5.418   1.508   2.271
10432TIP3    H231240   5.425   1.606   2.386
10433TIP3   OH231241   4.084   7.019   5.302
10433TIP3    H131242   4.173   7.038   5.273
10433TIP3    H231243   4.088   6.931   5.338
10434TIP3   OH231244   6.412   1.845   3.259
10434TIP3    H131245   6.481   1.900   3.223
10434TIP3    H231246   6.332   1.876   3.216
10435TIP3   OH231247   0.190   1.710   6.665
10435TIP3    H131248   0.106   1.720   6.620
10435TIP3    H231249   0.202   1.615   6.673
10436TIP3   OH231250   6.089   5.937   6.228
10436TIP3    H131251   6.168   5.950   6.280
10436TIP3    H231252   6.071   6.023   6.190
10437TIP3   OH231253   0.968   0.433   4.927
10437TIP3    H131254   1.004   0.353   4.889
10437TIP3    H231255   0.932   0.406   5.011
10438TIP3   OH231256   6.183   3.229   4.809
10438TIP3    H131257   6.227   3.145   4.820
10438TIP3    H231258   6.115   3.230   4.876
10439TIP3   OH231259   0.292   5.604   5.472
10439TIP3    H131260   0.383   5.591   5.497
10439TIP3    H231261   0.281   5.699   5.471
10440TIP3   OH231262   3.990   3.281   1.631
10440TIP3    H131263   4.048   3.349   1.595
10440TIP3    H231264   4.002   3.207   1.572
10441TIP3   OH231265   0.974   4.389   6.753
10441TIP3    H131266   1.008   4.473   6.721
10441TIP3    H231267   1.050   4.347   6.793
10442TIP3   OH231268   0.475   1.824   3.066
10442TIP3    H131269   0.484   1.803   2.973
10442TIP3    H231270   0.564   1.844   3.095
10443TIP3   OH231271   1.240   1.528   3.859
10443TIP3    H131272   1.210   1.469   3.928
10443TIP3    H231273   1.159   1.555   3.814
10444TIP3   OH231274   6.772   0.816   0.786
10444TIP3    H131275   6.690   0.826   0.835
10444TIP3    H231276   6.779   0.722   0.771
10445TIP3   OH231277   4.135   3.485   3.280
10445TIP3    H131278   4.143   3.577   3.256
10445TIP3    H231279   4.200   3.473   3.350
10446TIP3   OH231280   1.014   6.122   3.418
10446TIP3    H131281   0.943   6.089   3.473
10446TIP3    H231282   1.082   6.055   3.423
10447TIP3   OH231283   7.726   3.282   0.621
10447TIP3    H131284   7.741   3.294   0.715
10447TIP3    H231285   7.758   3.194   0.603
10448TIP3   OH231286   7.857   6.927   1.373
10448TIP3    H131287   7.945   6.936   1.336
10448TIP3    H231288   7.799   6.936   1.297
10449TIP3   OH231289   4.834   5.574   4.687
10449TIP3    H131290   4.739   5.562   4.686
10449TIP3    H231291   4.847   5.657   4.734
10450TIP3   OH231292   1.741   2.639   6.423
10450TIP3    H131293   1.722   2.548   6.445
10450TIP3    H231294   1.818   2.635   6.366
10451TIP3   OH231295   7.149   7.481   2.759
10451TIP3    H131296   7.185   7.480   2.847
10451TIP3    H231297   7.143   7.574   2.737
10452TIP3   OH231298   1.044   3.519   0.645
10452TIP3    H131299   1.079   3.477   0.566
10452TIP3    H231300   1.121   3.545   0.694
10453TIP3   OH231301   2.128   7.639   3.216
10453TIP3    H131302   2.138   7.586   3.295
10453TIP3    H231303   2.085   7.580   3.154
10454TIP3   OH231304   3.691   6.467   6.423
10454TIP3    H131305   3.654   6.481   6.336
10454TIP3    H231306   3.753   6.538   6.434
10455TIP3   OH231307   4.256   6.705   0.941
10455TIP3    H131308   4.227   6.794   0.962
10455TIP3    H231309   4.180   6.650   0.960
10456TIP3   OH231310   4.340   4.920   4.103
10456TIP3    H131311   4.294   4.865   4.165
10456TIP3    H231312   4.394   4.859   4.052
10457TIP3   OH231313   2.779   1.586   4.425
10457TIP3    H131314   2.701   1.613   4.376
10457TIP3    H231315   2.850   1.589   4.361
10458TIP3   OH231316   0.914   2.318   2.929
10458TIP3    H131317   0.903   2.411   2.948
10458TIP3    H231318   0.825   2.284   2.916
10459TIP3   OH231319   4.331   7.655   3.539
10459TIP3    H131320   4.420   7.689   3.530
10459TIP3    H231321   4.310   7.667   3.632
10460TIP3   OH231322   6.841   7.627   1.983
10460TIP3    H131323   6.874   7.568   2.050
10460TIP3    H231324   6.752   7.597   1.965
10461TIP3   OH231325   5.022   3.639   2.995
10461TIP3    H131326   4.948   3.690   3.029
10461TIP3    H231327   5.013   3.645   2.899
10462TIP3   OH231328   0.478   0.160   4.271
10462TIP3    H131329   0.422   0.174   4.347
10462TIP3    H231330   0.459   0.070   4.243
10463TIP3   OH231331   0.992   0.075   5.417
10463TIP3    H131332   0.995   0.116   5.504
10463TIP3    H231333   1.082   0.048   5.400
10464TIP3   OH231334   5.089   3.260   1.542
10464TIP3    H131335   5.025   3.315   1.588
10464TIP3    H231336   5.171   3.277   1.588
10465TIP3   OH231337   0.332   3.151   1.317
10465TIP3    H131338   0.381   3.071   1.299
10465TIP3    H231339   0.341   3.203   1.237
10466TIP3   OH231340   2.941   4.411   2.235
10466TIP3    H131341   3.017   4.416   2.293
10466TIP3    H231342   2.895   4.332   2.264
10467TIP3   OH231343   4.057   4.270   5.801
10467TIP3    H131344   3.976   4.301   5.842
10467TIP3    H231345   4.109   4.350   5.788
10468TIP3   OH231346   4.805   2.574   2.594
10468TIP3    H131347   4.868   2.644   2.608
10468TIP3    H231348   4.823   2.511   2.664
10469TIP3   OH231349   5.105   5.461   6.576
10469TIP3    H131350   5.074   5.395   6.515
10469TIP3    H231351   5.037   5.528   6.577
10470TIP3   OH231352   1.248   2.051   5.583
10470TIP3    H131353   1.179   2.005   5.630
10470TIP3    H231354   1.315   2.067   5.650
10471TIP3   OH231355   4.077   3.719   1.262
10471TIP3    H131356   4.125   3.750   1.186
10471TIP3    H231357   3.996   3.770   1.261
10472TIP3   OH231358   7.700   0.970   6.322
10472TIP3    H131359   7.792   0.994   6.332
10472TIP3    H231360   7.701   0.890   6.269
10473TIP3   OH231361   8.011   3.286   4.495
10473TIP3    H131362   7.955   3.245   4.429
10473TIP3    H231363   7.972   3.259   4.579
10474TIP3   OH231364   7.754   4.784   6.394
10474TIP3    H131365   7.717   4.866   6.427
10474TIP3    H231366   7.678   4.726   6.382
10475TIP3   OH231367   2.277   0.498   0.784
10475TIP3    H131368   2.300   0.440   0.712
10475TIP3    H231369   2.271   0.585   0.745
10476TIP3   OH231370   7.926   4.324   1.190
10476TIP3    H131371   7.965   4.282   1.113
10476TIP3    H231372   7.834   4.333   1.168
10477TIP3   OH231373   3.147   2.900   1.407
10477TIP3    H131374   3.224   2.893   1.462
10477TIP3    H231375   3.163   2.837   1.336
10478TIP3   OH231376   7.005   2.222   3.470
10478TIP3    H131377   6.943   2.293   3.451
10478TIP3    H231378   7.076   2.265   3.518
10479TIP3   OH231379   5.948   1.017   5.648
10479TIP3    H131380   6.033   1.061   5.653
10479TIP3    H231381   5.969   0.925   5.659
10480TIP3   OH231382   3.552   6.446   2.336
10480TIP3    H131383   3.644   6.437   2.360
10480TIP3    H231384   3.536   6.541   2.336
10481TIP3   OH231385   1.087   5.545   2.159
10481TIP3    H131386   1.104   5.513   2.248
10481TIP3    H231387   1.139   5.625   2.152
10482TIP3   OH231388   1.577   7.772   5.688
10482TIP3    H131389   1.648   7.756   5.626
10482TIP3    H231390   1.613   7.838   5.748
10483TIP3   OH231391   5.593   2.798   1.342
10483TIP3    H131392   5.614   2.779   1.434
10483TIP3    H231393   5.500   2.819   1.343
10484TIP3   OH231394   0.796   1.865   1.516
10484TIP3    H131395   0.887   1.876   1.542
10484TIP3    H231396   0.786   1.921   1.438
10485TIP3   OH231397   2.700   7.331   0.634
10485TIP3    H131398   2.780   7.376   0.610
10485TIP3    H231399   2.693   7.341   0.729
10486TIP3   OH231400   3.940   1.794   0.136
10486TIP3    H131401   4.032   1.808   0.157
10486TIP3    H231402   3.897   1.786   0.221
10487TIP3   OH231403   6.728   0.531   6.394
10487TIP3    H131404   6.761   0.447   6.362
10487TIP3    H231405   6.806   0.584   6.406
10488TIP3   OH231406   4.758   6.342   6.318
10488TIP3    H131407   4.756   6.253   6.355
10488TIP3    H231408   4.743   6.399   6.394
10489TIP3   OH231409   0.912   0.884   5.938
10489TIP3    H131410   0.977   0.875   6.007
10489TIP3    H231411   0.943   0.826   5.868
10490TIP3   OH231412   4.931   3.034   1.886
10490TIP3    H131413   5.022   3.050   1.863
10490TIP3    H231414   4.886   3.117   1.866
10491TIP3   OH231415   0.260   3.495   0.314
10491TIP3    H131416   0.339   3.445   0.334
10491TIP3    H231417   0.272   3.523   0.223
10492TIP3   OH231418   2.322   2.179   2.126
10492TIP3    H131419   2.351   2.111   2.065
10492TIP3    H231420   2.260   2.232   2.076
10493TIP3   OH231421   1.163   7.033   0.433
10493TIP3    H131422   1.202   7.106   0.482
10493TIP3    H231423   1.213   6.956   0.461
10494TIP3   OH231424   0.801   7.523   3.859
10494TIP3    H131425   0.780   7.523   3.766
10494TIP3    H231426   0.769   7.608   3.891
10495TIP3   OH231427   7.595   6.246   5.434
10495TIP3    H131428   7.543   6.300   5.374
10495TIP3    H231429   7.685   6.255   5.403
10496TIP3   OH231430   2.030   6.165   5.899
10496TIP3    H131431   1.983   6.220   5.962
10496TIP3    H231432   2.021   6.211   5.816
10497TIP3   OH231433   5.328   2.827   1.289
10497TIP3    H131434   5.250   2.867   1.327
10497TIP3    H231435   5.302   2.802   1.200
10498TIP3   OH231436   6.218   4.955   5.647
10498TIP3    H131437   6.207   5.050   5.656
10498TIP3    H231438   6.249   4.925   5.732
10499TIP3   OH231439   0.387   2.530   6.048
10499TIP3    H131440   0.455   2.542   5.982
10499TIP3    H231441   0.415   2.585   6.121
10500TIP3   OH231442   8.077   5.293   3.362
10500TIP3    H131443   8.076   5.249   3.277
10500TIP3    H231444   8.006   5.357   3.357
10501TIP3   OH231445   5.415   2.139   2.754
10501TIP3    H131446   5.377   2.217   2.796
10501TIP3    H231447   5.389   2.067   2.811
10502TIP3   OH231448   6.762   1.197   5.228
10502TIP3    H131449   6.822   1.193   5.303
10502TIP3    H231450   6.801   1.261   5.169
10503TIP3   OH231451   5.098   6.281   6.404
10503TIP3    H131452   5.118   6.232   6.484
10503TIP3    H231453   5.130   6.226   6.333
10504TIP3   OH231454   7.467   7.659   5.061
10504TIP3    H131455   7.436   7.722   5.125
10504TIP3    H231456   7.541   7.702   5.019
10505TIP3   OH231457   7.367   7.033   3.411
10505TIP3    H131458   7.378   6.967   3.342
10505TIP3    H231459   7.282   7.012   3.450
10506TIP3   OH231460   6.506   4.262   4.858
10506TIP3    H131461   6.445   4.205   4.905
10506TIP3    H231462   6.451   4.313   4.798
10507TIP3   OH231463   2.676   7.501   1.720
10507TIP3    H131464   2.740   7.432   1.737
10507TIP3    H231465   2.602   7.480   1.777
10508TIP3   OH231466   6.367   5.624   1.576
10508TIP3    H131467   6.306   5.618   1.502
10508TIP3    H231468   6.398   5.714   1.575
10509TIP3   OH231469   1.196   6.325   3.445
10509TIP3    H131470   1.115   6.277   3.436
10509TIP3    H231471   1.227   6.337   3.355
10510TIP3   OH231472   0.910   7.144   3.926
10510TIP3    H131473   0.906   7.078   3.856
10510TIP3    H231474   0.953   7.220   3.885
10511TIP3   OH231475   1.869   1.807   6.329
10511TIP3    H131476   1.820   1.802   6.410
10511TIP3    H231477   1.884   1.901   6.315
10512TIP3   OH231478   7.351   0.253   3.216
10512TIP3    H131479   7.377   0.299   3.136
10512TIP3    H231480   7.292   0.313   3.261
10513TIP3   OH231481   4.727   2.718   5.388
10513TIP3    H131482   4.732   2.639   5.442
10513TIP3    H231483   4.762   2.690   5.303
10514TIP3   OH231484   5.523   1.843   4.187
10514TIP3    H131485   5.599   1.808   4.233
10514TIP3    H231486   5.447   1.804   4.232
10515TIP3   OH231487   6.275   7.250   4.281
10515TIP3    H131488   6.183   7.268   4.300
10515TIP3    H231489   6.280   7.248   4.186
10516TIP3   OH231490   2.316   6.541   4.221
10516TIP3    H131491   2.355   6.478   4.160
10516TIP3    H231492   2.368   6.531   4.301
10517TIP3   OH231493   6.192   6.275   6.235
10517TIP3    H131494   6.217   6.361   6.202
10517TIP3    H231495   6.196   6.283   6.330
10518TIP3   OH231496   1.890   4.702   2.126
10518TIP3    H131497   1.977   4.683   2.092
10518TIP3    H231498   1.905   4.730   2.216
10519TIP3   OH231499   0.440   6.592   2.860
10519TIP3    H131500   0.486   6.655   2.805
10519TIP3    H231501   0.509   6.546   2.908
10520TIP3   OH231502   7.815   0.849   3.205
10520TIP3    H131503   7.742   0.828   3.148
10520TIP3    H231504   7.878   0.894   3.148
10521TIP3   OH231505   7.505   5.983   3.765
10521TIP3    H131506   7.561   5.963   3.840
10521TIP3    H231507   7.481   5.897   3.730
10522TIP3   OH231508   7.468   6.984   4.435
10522TIP3    H131509   7.465   6.969   4.530
10522TIP3    H231510   7.383   7.023   4.414
10523TIP3   OH231511   1.615   1.251   3.931
10523TIP3    H131512   1.678   1.313   3.967
10523TIP3    H231513   1.530   1.295   3.941
10524TIP3   OH231514   1.992   4.921   5.064
10524TIP3    H131515   2.027   4.868   4.992
10524TIP3    H231516   1.913   4.875   5.093
10525TIP3   OH231517   7.834   3.345   5.346
10525TIP3    H131518   7.762   3.293   5.310
10525TIP3    H231519   7.808   3.363   5.436
10526TIP3   OH231520   6.128   6.111   6.684
10526TIP3    H131521   6.098   6.173   6.617
10526TIP3    H231522   6.086   6.029   6.660
10527TIP3   OH231523   1.067   0.403   0.096
10527TIP3    H131524   1.002   0.333   0.099
10527TIP3    H231525   1.016   0.482   0.079
10528TIP3   OH231526   4.954   0.306   0.403
10528TIP3    H131527   4.970   0.279   0.312
10528TIP3    H231528   4.861   0.290   0.417
10529TIP3   OH231529   6.963   1.311   2.820
10529TIP3    H131530   7.008   1.276   2.897
10529TIP3    H231531   6.908   1.381   2.855
10530TIP3   OH231532   2.062   5.149   3.851
10530TIP3    H131533   2.112   5.105   3.919
10530TIP3    H231534   2.061   5.087   3.778
10531TIP3   OH231535   0.172   2.608   6.316
10531TIP3    H131536   0.083   2.641   6.332
10531TIP3    H231537   0.169   2.517   6.345
10532TIP3   OH231538   6.929   7.645   6.213
10532TIP3    H131539   7.016   7.673   6.184
10532TIP3    H231540   6.869   7.679   6.147
10533TIP3   OH231541   0.132   0.012   2.671
10533TIP3    H131542   0.161   0.099   2.699
10533TIP3    H231543   0.050  -0.003   2.719
10534TIP3   OH231544   0.146   6.212   3.149
10534TIP3    H131545   0.074   6.253   3.101
10534TIP3    H231546   0.131   6.118   3.141
10535TIP3   OH231547   5.485   1.688   6.056
10535TIP3    H131548   5.419   1.619   6.062
10535TIP3    H231549   5.503   1.697   5.962
10536TIP3   OH231550   0.212   4.097   0.275
10536TIP3    H131551   0.151   4.162   0.241
10536TIP3    H231552   0.177   4.075   0.362
10537TIP3   OH231553   4.289   3.727   6.489
10537TIP3    H131554   4.217   3.673   6.522
10537TIP3    H231555   4.250   3.813   6.473
10538TIP3   OH231556   5.349   0.686   2.544
10538TIP3    H131557   5.254   0.682   2.553
10538TIP3    H231558   5.382   0.611   2.593
10539TIP3   OH231559   0.196   4.025   1.182
10539TIP3    H131560   0.111   3.988   1.160
10539TIP3    H231561   0.193   4.038   1.277
10540TIP3   OH231562   8.124   7.370   1.766
10540TIP3    H131563   8.120   7.382   1.861
10540TIP3    H231564   8.032   7.362   1.739
10541TIP3   OH231565   7.542   1.042   4.152
10541TIP3    H131566   7.586   0.969   4.110
10541TIP3    H231567   7.451   1.035   4.123
10542TIP3   OH231568   7.571   0.075   6.191
10542TIP3    H131569   7.591   0.122   6.110
10542TIP3    H231570   7.656   0.064   6.233
10543TIP3   OH231571   4.108   7.069   0.697
10543TIP3    H131572   4.141   7.147   0.652
10543TIP3    H231573   4.019   7.093   0.724
10544TIP3   OH231574   4.704   3.890   4.735
10544TIP3    H131575   4.640   3.932   4.793
10544TIP3    H231576   4.721   3.805   4.776
10545TIP3   OH231577   0.791   6.889   2.749
10545TIP3    H131578   0.847   6.933   2.685
10545TIP3    H231579   0.836   6.901   2.833
10546TIP3   OH231580   5.069   7.784   6.320
10546TIP3    H131581   5.132   7.723   6.357
10546TIP3    H231582   5.015   7.810   6.394
10547TIP3   OH231583   5.412   1.067   0.870
10547TIP3    H131584   5.327   1.022   0.860
10547TIP3    H231585   5.474   0.996   0.883
10548TIP3   OH231586   2.231   5.077   1.870
10548TIP3    H131587   2.300   5.016   1.845
10548TIP3    H231588   2.170   5.076   1.797
10549TIP3   OH231589   4.465   0.001   5.965
10549TIP3    H131590   4.516   0.005   6.046
10549TIP3    H231591   4.472   0.089   5.928
10550TIP3   OH231592   0.416   7.538   3.812
10550TIP3    H131593   0.423   7.501   3.724
10550TIP3    H231594   0.444   7.467   3.870
10551TIP3   OH231595   0.178   7.385   5.067
10551TIP3    H131596   0.255   7.442   5.064
10551TIP3    H231597   0.154   7.381   5.159
10552TIP3   OH231598   4.463   3.896   3.214
10552TIP3    H131599   4.500   3.968   3.163
10552TIP3    H231600   4.439   3.936   3.298
10553TIP3   OH231601   3.040   4.274   0.958
10553TIP3    H131602   3.128   4.246   0.934
10553TIP3    H231603   2.985   4.245   0.885
10554TIP3   OH231604   6.378   5.620   6.565
10554TIP3    H131605   6.309   5.556   6.583
10554TIP3    H231606   6.402   5.654   6.651
10555TIP3   OH231607   7.148   6.198   6.486
10555TIP3    H131608   7.147   6.170   6.395
10555TIP3    H231609   7.239   6.186   6.514
10556TIP3   OH231610   7.685   5.608   3.339
10556TIP3    H131611   7.615   5.543   3.349
10556TIP3    H231612   7.658   5.661   3.264
10557TIP3   OH231613   7.654   5.815   3.919
10557TIP3    H131614   7.595   5.761   3.866
10557TIP3    H231615   7.739   5.810   3.875
10558TIP3   OH231616   6.193   5.041   6.677
10558TIP3    H131617   6.098   5.049   6.689
10558TIP3    H231618   6.204   4.960   6.628
10559TIP3   OH231619   7.641   4.926   3.820
10559TIP3    H131620   7.628   4.832   3.837
10559TIP3    H231621   7.729   4.932   3.785
10560TIP3   OH231622   5.666   6.102   0.644
10560TIP3    H131623   5.688   6.085   0.553
10560TIP3    H231624   5.570   6.096   0.647
10561TIP3   OH231625   5.003   4.873   4.973
10561TIP3    H131626   4.969   4.786   4.996
10561TIP3    H231627   5.060   4.896   5.046
10562TIP3   OH231628   0.489   0.010   5.444
10562TIP3    H131629   0.519  -0.067   5.492
10562TIP3    H231630   0.565   0.037   5.393
10563TIP3   OH231631   5.708   7.462   5.258
10563TIP3    H131632   5.750   7.540   5.296
10563TIP3    H231633   5.653   7.497   5.187
10564TIP3   OH231634   6.904   4.317   5.607
10564TIP3    H131635   6.958   4.330   5.685
10564TIP3    H231636   6.914   4.398   5.557
10565TIP3   OH231637   7.521   3.126   4.957
10565TIP3    H131638   7.503   3.032   4.950
10565TIP3    H231639   7.571   3.147   4.878
10566TIP3   OH231640   7.864   5.968   3.189
10566TIP3    H131641   7.872   5.970   3.284
10566TIP3    H231642   7.944   6.009   3.157
10567TIP3   OH231643   2.223   3.921   6.237
10567TIP3    H131644   2.138   3.878   6.236
10567TIP3    H231645   2.254   3.914   6.147
10568TIP3   OH231646   6.133   6.813   4.598
10568TIP3    H131647   6.146   6.724   4.565
10568TIP3    H231648   6.116   6.866   4.520
10569TIP3   OH231649   2.337   5.936   5.003
10569TIP3    H131650   2.337   6.002   5.072
10569TIP3    H231651   2.260   5.881   5.022
10570TIP3   OH231652   7.717   3.178   3.182
10570TIP3    H131653   7.719   3.155   3.275
10570TIP3    H231654   7.627   3.207   3.166
10571TIP3   OH231655   4.282   6.993   4.528
10571TIP3    H131656   4.222   6.964   4.596
10571TIP3    H231657   4.349   6.925   4.524
10572TIP3   OH231658   0.192   6.162   5.149
10572TIP3    H131659   0.214   6.212   5.071
10572TIP3    H231660   0.124   6.101   5.120
10573TIP3   OH231661   0.871   0.028   4.487
10573TIP3    H131662   0.872  -0.056   4.440
10573TIP3    H231663   0.912   0.009   4.571
10574TIP3   OH231664   3.532   1.960   1.652
10574TIP3    H131665   3.600   2.000   1.706
10574TIP3    H231666   3.559   1.869   1.643
10575TIP3   OH231667   2.849   3.216   3.133
10575TIP3    H131668   2.834   3.134   3.086
10575TIP3    H231669   2.922   3.197   3.192
10576TIP3   OH231670   6.315   6.853   1.939
10576TIP3    H131671   6.374   6.926   1.924
10576TIP3    H231672   6.362   6.796   2.001
10577TIP3   OH231673   4.622   0.988   4.903
10577TIP3    H131674   4.564   0.999   4.828
10577TIP3    H231675   4.569   0.940   4.967
10578TIP3   OH231676   6.066   4.975   2.332
10578TIP3    H131677   6.000   4.996   2.266
10578TIP3    H231678   6.053   5.041   2.400
10579TIP3   OH231679   2.095   5.806   1.932
10579TIP3    H131680   2.008   5.799   1.971
10579TIP3    H231681   2.152   5.757   1.992
10580TIP3   OH231682   5.130   3.585   4.806
10580TIP3    H131683   5.095   3.659   4.855
10580TIP3    H231684   5.224   3.586   4.825
10581TIP3   OH231685   1.291   1.579   4.640
10581TIP3    H131686   1.208   1.617   4.610
10581TIP3    H231687   1.331   1.544   4.561
10582TIP3   OH231688   2.962   7.445   2.017
10582TIP3    H131689   3.014   7.498   1.957
10582TIP3    H231690   3.022   7.424   2.089
10583TIP3   OH231691   1.227   3.107   2.612
10583TIP3    H131692   1.265   3.134   2.529
10583TIP3    H231693   1.297   3.058   2.656
10584TIP3   OH231694   6.352   6.930   3.710
10584TIP3    H131695   6.399   6.931   3.793
10584TIP3    H231696   6.284   6.864   3.722
10585TIP3   OH231697   6.349   5.778   3.732
10585TIP3    H131698   6.401   5.782   3.652
10585TIP3    H231699   6.295   5.857   3.730
10586TIP3   OH231700   4.155   5.691   0.296
10586TIP3    H131701   4.204   5.725   0.221
10586TIP3    H231702   4.108   5.767   0.331
10587TIP3   OH231703   2.943   5.374   1.133
10587TIP3    H131704   2.925   5.453   1.185
10587TIP3    H231705   2.870   5.368   1.071
10588TIP3   OH231706   1.125   1.500   1.614
10588TIP3    H131707   1.032   1.486   1.597
10588TIP3    H231708   1.150   1.430   1.674
10589TIP3   OH231709   4.240   7.571   5.716
10589TIP3    H131710   4.268   7.481   5.698
10589TIP3    H231711   4.317   7.625   5.700
10590TIP3   OH231712   3.142   3.426   6.077
10590TIP3    H131713   3.144   3.398   5.986
10590TIP3    H231714   3.222   3.388   6.115
10591TIP3   OH231715   1.052   5.389   2.593
10591TIP3    H131716   0.988   5.344   2.538
10591TIP3    H231717   1.021   5.480   2.595
10592TIP3   OH231718   2.746   2.783   5.698
10592TIP3    H131719   2.765   2.813   5.610
10592TIP3    H231720   2.737   2.688   5.690
10593TIP3   OH231721   3.960   0.101   3.160
10593TIP3    H131722   3.994   0.177   3.113
10593TIP3    H231723   3.886   0.135   3.211
10594TIP3   OH231724   1.932   6.692   6.238
10594TIP3    H131725   1.885   6.773   6.222
10594TIP3    H231726   1.868   6.623   6.220
10595TIP3   OH231727   8.180   2.283   4.248
10595TIP3    H131728   8.137   2.206   4.210
10595TIP3    H231729   8.254   2.300   4.190
10596TIP3   OH231730   3.017   3.203   0.138
10596TIP3    H131731   2.985   3.113   0.140
10596TIP3    H231732   3.069   3.212   0.218
10597TIP3   OH231733   3.171   6.390   3.515
10597TIP3    H131734   3.107   6.444   3.468
10597TIP3    H231735   3.199   6.325   3.451
10598TIP3   OH231736   5.062   0.566   3.639
10598TIP3    H131737   5.067   0.524   3.725
10598TIP3    H231738   5.073   0.494   3.576
10599TIP3   OH231739   3.134   2.481   3.199
10599TIP3    H131740   3.137   2.477   3.104
10599TIP3    H231741   3.161   2.571   3.220
10600TIP3   OH231742   5.611   2.009   2.562
10600TIP3    H131743   5.594   2.103   2.558
10600TIP3    H231744   5.554   1.978   2.632
10601TIP3   OH231745   2.579   0.606   3.945
10601TIP3    H131746   2.586   0.635   3.854
10601TIP3    H231747   2.635   0.668   3.994
10602TIP3   OH231748   6.290   0.851   0.173
10602TIP3    H131749   6.378   0.843   0.136
10602TIP3    H231750   6.263   0.761   0.191
10603TIP3   OH231751   6.897   1.859   3.169
10603TIP3    H131752   6.920   1.774   3.132
10603TIP3    H231753   6.913   1.850   3.263
10604TIP3   OH231754   6.839   4.321   5.957
10604TIP3    H131755   6.896   4.366   5.894
10604TIP3    H231756   6.765   4.290   5.904
10605TIP3   OH231757   8.087   4.788   6.542
10605TIP3    H131758   8.114   4.744   6.461
10605TIP3    H231759   8.052   4.717   6.597
10606TIP3   OH231760   3.894   4.311   3.943
10606TIP3    H131761   3.823   4.373   3.961
10606TIP3    H231762   3.918   4.329   3.852
10607TIP3   OH231763   2.433   7.167   0.623
10607TIP3    H131764   2.347   7.192   0.658
10607TIP3    H231765   2.489   7.244   0.640
10608TIP3   OH231766   2.229   4.240   1.155
10608TIP3    H131767   2.236   4.312   1.218
10608TIP3    H231768   2.136   4.237   1.132
10609TIP3   OH231769   5.125   2.899   5.474
10609TIP3    H131770   5.130   2.964   5.544
10609TIP3    H231771   5.211   2.857   5.474
10610TIP3   OH231772   1.019   3.690   2.574
10610TIP3    H131773   1.080   3.661   2.506
10610TIP3    H231774   0.933   3.679   2.535
10611TIP3   OH231775   0.462   2.267   6.176
10611TIP3    H131776   0.446   2.210   6.101
10611TIP3    H231777   0.382   2.319   6.184
10612TIP3   OH231778   1.900   7.369   3.500
10612TIP3    H131779   1.831   7.346   3.562
10612TIP3    H231780   1.882   7.460   3.478
10613TIP3   OH231781   5.137   6.914   1.202
10613TIP3    H131782   5.183   6.830   1.195
10613TIP3    H231783   5.123   6.941   1.112
10614TIP3   OH231784   4.174   5.593   3.859
10614TIP3    H131785   4.189   5.667   3.800
10614TIP3    H231786   4.254   5.541   3.852
10615TIP3   OH231787   4.074   6.671   3.986
10615TIP3    H131788   3.979   6.677   3.996
10615TIP3    H231789   4.090   6.698   3.896
10616TIP3   OH231790   5.021   4.044   4.703
10616TIP3    H131791   5.018   3.987   4.781
10616TIP3    H231792   4.988   3.989   4.632
10617TIP3   OH231793   8.238   6.427   6.087
10617TIP3    H131794   8.184   6.504   6.069
10617TIP3    H231795   8.225   6.370   6.012
10618TIP3   OH231796   2.374   4.149   1.628
10618TIP3    H131797   2.397   4.056   1.622
10618TIP3    H231798   2.317   4.155   1.705
10619TIP3   OH231799   1.922   2.940   3.144
10619TIP3    H131800   2.013   2.917   3.164
10619TIP3    H231801   1.870   2.894   3.210
10620TIP3   OH231802   0.366   5.113   4.474
10620TIP3    H131803   0.271   5.112   4.478
10620TIP3    H231804   0.394   5.056   4.546
10621TIP3   OH231805   2.035   2.556   1.363
10621TIP3    H131806   2.121   2.589   1.389
10621TIP3    H231807   2.053   2.487   1.300
10622TIP3   OH231808   7.366   1.419   6.187
10622TIP3    H131809   7.356   1.430   6.282
10622TIP3    H231810   7.425   1.345   6.177
10623TIP3   OH231811   5.306   5.280   2.735
10623TIP3    H131812   5.368   5.218   2.774
10623TIP3    H231813   5.305   5.258   2.642
10624TIP3   OH231814   6.842   1.663   4.366
10624TIP3    H131815   6.801   1.598   4.309
10624TIP3    H231816   6.804   1.647   4.452
10625TIP3   OH231817   3.177   0.739   1.197
10625TIP3    H131818   3.270   0.750   1.179
10625TIP3    H231819   3.165   0.644   1.203
10626TIP3   OH231820   7.965   1.432   3.061
10626TIP3    H131821   7.877   1.436   3.098
10626TIP3    H231822   8.006   1.357   3.104
10627TIP3   OH231823   4.102   4.291   1.803
10627TIP3    H131824   4.025   4.296   1.859
10627TIP3    H231825   4.100   4.372   1.752
10628TIP3   OH231826   6.959   1.207   5.425
10628TIP3    H131827   6.918   1.136   5.475
10628TIP3    H231828   7.052   1.199   5.445
10629TIP3   OH231829   7.934   5.839   2.672
10629TIP3    H131830   7.908   5.882   2.754
10629TIP3    H231831   7.929   5.908   2.606
10630TIP3   OH231832   3.210   1.517   1.046
10630TIP3    H131833   3.179   1.577   1.115
10630TIP3    H231834   3.175   1.554   0.965
10631TIP3   OH231835   7.851   6.354   0.216
10631TIP3    H131836   7.892   6.376   0.300
10631TIP3    H231837   7.850   6.258   0.215
10632TIP3   OH231838   4.249   6.522   2.716
10632TIP3    H131839   4.252   6.554   2.626
10632TIP3    H231840   4.339   6.495   2.735
10633TIP3   OH231841   3.317   4.443   4.884
10633TIP3    H131842   3.328   4.433   4.978
10633TIP3    H231843   3.223   4.453   4.871
10634TIP3   OH231844   0.853   5.841   6.419
10634TIP3    H131845   0.798   5.884   6.485
10634TIP3    H231846   0.893   5.767   6.464
10635TIP3   OH231847   6.307   7.560   5.578
10635TIP3    H131848   6.214   7.550   5.596
10635TIP3    H231849   6.335   7.632   5.634
10636TIP3   OH231850   1.656   7.846   0.409
10636TIP3    H131851   1.600   7.891   0.472
10636TIP3    H231852   1.673   7.761   0.449
10637TIP3   OH231853   2.711   7.710   2.622
10637TIP3    H131854   2.805   7.699   2.631
10637TIP3    H231855   2.674   7.653   2.690
10638TIP3   OH231856   1.343   2.903   6.812
10638TIP3    H131857   1.345   2.885   6.718
10638TIP3    H231858   1.261   2.949   6.826
10639TIP3   OH231859   2.025   2.467   3.726
10639TIP3    H131860   1.948   2.455   3.671
10639TIP3    H231861   2.016   2.556   3.761
10640TIP3   OH231862   7.657   0.350   5.927
10640TIP3    H131863   7.574   0.329   5.971
10640TIP3    H231864   7.646   0.315   5.838
10641TIP3   OH231865   1.144   3.766   5.885
10641TIP3    H131866   1.054   3.765   5.852
10641TIP3    H231867   1.197   3.794   5.811
10642TIP3   OH231868   6.221   5.598   6.196
10642TIP3    H131869   6.164   5.524   6.174
10642TIP3    H231870   6.267   5.570   6.275
10643TIP3   OH231871   7.724   3.336   2.417
10643TIP3    H131872   7.804   3.385   2.441
10643TIP3    H231873   7.658   3.366   2.479
10644TIP3   OH231874   2.639   2.298   1.555
10644TIP3    H131875   2.574   2.336   1.496
10644TIP3    H231876   2.604   2.314   1.643
10645TIP3   OH231877   2.759   4.131   0.428
10645TIP3    H131878   2.728   4.058   0.374
10645TIP3    H231879   2.851   4.141   0.404
10646TIP3   OH231880   3.948   4.879   2.924
10646TIP3    H131881   4.003   4.955   2.940
10646TIP3    H231882   3.942   4.873   2.829
10647TIP3   OH231883   3.991   1.119   3.188
10647TIP3    H131884   3.909   1.164   3.211
10647TIP3    H231885   4.059   1.184   3.204
10648TIP3   OH231886   5.405   2.517   3.321
10648TIP3    H131887   5.419   2.611   3.328
10648TIP3    H231888   5.431   2.482   3.406
10649TIP3   OH231889   1.582   4.481   3.989
10649TIP3    H131890   1.496   4.441   3.977
10649TIP3    H231891   1.641   4.425   3.939
10650TIP3   OH231892   2.623   2.819   1.096
10650TIP3    H131893   2.609   2.893   1.155
10650TIP3    H231894   2.716   2.796   1.108
10651TIP3   OH231895   1.922   2.091   1.945
10651TIP3    H131896   1.965   2.050   1.870
10651TIP3    H231897   1.874   2.019   1.987
10652TIP3   OH231898   4.736   0.456   2.910
10652TIP3    H131899   4.667   0.401   2.946
10652TIP3    H231900   4.689   0.530   2.870
10653TIP3   OH231901   1.706   1.687   2.334
10653TIP3    H131902   1.639   1.734   2.385
10653TIP3    H231903   1.669   1.683   2.245
10654TIP3   OH231904   4.295   3.052   1.404
10654TIP3    H131905   4.222   3.095   1.448
10654TIP3    H231906   4.337   3.000   1.473
10655TIP3   OH231907   6.950   7.446   5.515
10655TIP3    H131908   6.936   7.463   5.422
10655TIP3    H231909   6.946   7.351   5.523
10656TIP3   OH231910   6.795   4.823   3.682
10656TIP3    H131911   6.866   4.883   3.660
10656TIP3    H231912   6.807   4.749   3.623
10657TIP3   OH231913   0.152   5.754   5.844
10657TIP3    H131914   0.235   5.795   5.871
10657TIP3    H231915   0.152   5.669   5.888
10658TIP3   OH231916   0.950   4.568   5.604
10658TIP3    H131917   0.996   4.546   5.524
10658TIP3    H231918   0.981   4.504   5.668
10659TIP3   OH231919   7.987   2.215   2.427
10659TIP3    H131920   8.030   2.243   2.347
10659TIP3    H231921   7.915   2.159   2.397
10660TIP3   OH231922   2.811   2.477   5.264
10660TIP3    H131923   2.754   2.514   5.197
10660TIP3    H231924   2.891   2.454   5.216
10661TIP3   OH231925   6.181   3.844   2.485
10661TIP3    H131926   6.101   3.872   2.530
10661TIP3    H231927   6.157   3.845   2.392
10662TIP3   OH231928   3.641   3.050   3.918
10662TIP3    H131929   3.582   3.100   3.974
10662TIP3    H231930   3.677   3.114   3.857
10663TIP3   OH231931   6.311   1.071   4.831
10663TIP3    H131932   6.312   1.102   4.740
10663TIP3    H231933   6.232   1.019   4.838
10664TIP3   OH231934   2.587   6.970   5.593
10664TIP3    H131935   2.501   6.960   5.553
10664TIP3    H231936   2.641   7.010   5.525
10665TIP3   OH231937   6.677   5.677   5.629
10665TIP3    H131938   6.737   5.710   5.696
10665TIP3    H231939   6.658   5.754   5.575
10666TIP3   OH231940   0.906   1.199   5.336
10666TIP3    H131941   0.927   1.160   5.421
10666TIP3    H231942   0.815   1.226   5.344
10667TIP3   OH231943   2.636   0.710   0.996
10667TIP3    H131944   2.644   0.796   0.954
10667TIP3    H231945   2.632   0.730   1.090
10668TIP3   OH231946   5.036   0.540   2.067
10668TIP3    H131947   5.099   0.531   2.138
10668TIP3    H231948   4.953   0.557   2.111
10669TIP3   OH231949   7.092   0.275   3.519
10669TIP3    H131950   7.099   0.210   3.449
10669TIP3    H231951   7.029   0.238   3.580
10670TIP3   OH231952   3.122   4.885   5.310
10670TIP3    H131953   3.078   4.921   5.233
10670TIP3    H231954   3.215   4.884   5.286
10671TIP3   OH231955   5.861   6.183   0.819
10671TIP3    H131956   5.795   6.170   0.751
10671TIP3    H231957   5.922   6.247   0.782
10672TIP3   OH231958   6.991   5.008   3.619
10672TIP3    H131959   7.045   4.967   3.551
10672TIP3    H231960   7.054   5.051   3.677
10673TIP3   OH231961   1.652   0.532   0.582
10673TIP3    H131962   1.627   0.617   0.619
10673TIP3    H231963   1.628   0.538   0.490
10674TIP3   OH231964   2.937   7.756   5.960
10674TIP3    H131965   2.972   7.708   5.885
10674TIP3    H231966   2.987   7.724   6.035
10675TIP3   OH231967   0.571   4.333   3.230
10675TIP3    H131968   0.523   4.252   3.218
10675TIP3    H231969   0.505   4.402   3.224
10676TIP3   OH231970   5.506   2.770   3.164
10676TIP3    H131971   5.511   2.791   3.258
10676TIP3    H231972   5.596   2.748   3.139
10677TIP3   OH231973   0.154   2.311   0.543
10677TIP3    H131974   0.246   2.338   0.552
10677TIP3    H231975   0.116   2.327   0.629
10678TIP3   OH231976   0.994   6.843   2.980
10678TIP3    H131977   1.082   6.833   3.017
10678TIP3    H231978   0.935   6.818   3.051
10679TIP3   OH231979   6.711   6.712   0.898
10679TIP3    H131980   6.801   6.743   0.909
10679TIP3    H231981   6.669   6.779   0.844
10680TIP3   OH231982   5.976   3.905   3.619
10680TIP3    H131983   5.910   3.974   3.628
10680TIP3    H231984   5.928   3.830   3.584
10681TIP3   OH231985   1.694   7.620   0.549
10681TIP3    H131986   1.618   7.567   0.527
10681TIP3    H231987   1.767   7.558   0.553
10682TIP3   OH231988   5.899   3.957   2.870
10682TIP3    H131989   5.938   4.042   2.887
10682TIP3    H231990   5.821   3.976   2.818
10683TIP3   OH231991   6.974   3.388   4.761
10683TIP3    H131992   7.065   3.415   4.752
10683TIP3    H231993   6.949   3.355   4.675
10684TIP3   OH231994   7.483   5.137   0.476
10684TIP3    H131995   7.518   5.056   0.440
10684TIP3    H231996   7.475   5.121   0.570
10685TIP3   OH231997   7.307   2.789   0.846
10685TIP3    H131998   7.258   2.726   0.898
10685TIP3    H231999   7.293   2.873   0.890
10686TIP3   OH232000   2.451   1.535   0.839
10686TIP3    H132001   2.398   1.585   0.901
10686TIP3    H232002   2.441   1.582   0.756
10687TIP3   OH232003   1.463   1.304   3.103
10687TIP3    H132004   1.531   1.356   3.146
10687TIP3    H232005   1.414   1.265   3.176
10688TIP3   OH232006   4.065   0.904   3.659
10688TIP3    H132007   3.976   0.918   3.627
10688TIP3    H232008   4.120   0.957   3.602
10689TIP3   OH232009   8.096   0.477   2.977
10689TIP3    H132010   8.033   0.541   2.943
10689TIP3    H232011   8.043   0.413   3.024
10690TIP3   OH232012   3.165   4.835   5.962
10690TIP3    H132013   3.092   4.895   5.977
10690TIP3    H232014   3.178   4.837   5.867
10691TIP3   OH232015   0.755   4.746   5.029
10691TIP3    H132016   0.738   4.781   5.116
10691TIP3    H232017   0.850   4.749   5.020
10692TIP3   OH232018   3.947   1.870   3.281
10692TIP3    H132019   4.030   1.917   3.272
10692TIP3    H232020   3.898   1.921   3.346
10693TIP3   OH232021   8.082   3.483   6.448
10693TIP3    H132022   8.015   3.533   6.495
10693TIP3    H232023   8.159   3.540   6.448
10694TIP3   OH232024   7.603   4.034   5.369
10694TIP3    H132025   7.665   4.102   5.341
10694TIP3    H232026   7.587   3.983   5.289
10695TIP3   OH232027   3.827   1.368   6.469
10695TIP3    H132028   3.909   1.404   6.501
10695TIP3    H232029   3.767   1.375   6.544
10696TIP3   OH232030   4.594   5.310   4.342
10696TIP3    H132031   4.538   5.351   4.408
10696TIP3    H232032   4.569   5.218   4.344
10697TIP3   OH232033   8.005   7.000   3.305
10697TIP3    H132034   7.953   6.920   3.309
10697TIP3    H232035   8.071   6.989   3.374
10698TIP3   OH232036   8.006   0.614   0.863
10698TIP3    H132037   7.996   0.611   0.768
10698TIP3    H232038   7.917   0.602   0.896
10699TIP3   OH232039   6.314   6.029   5.698
10699TIP3    H132040   6.318   6.057   5.789
10699TIP3    H232041   6.394   6.064   5.659
10700TIP3   OH232042   6.995   2.202   1.587
10700TIP3    H132043   6.916   2.149   1.576
10700TIP3    H232044   7.019   2.228   1.498
10701TIP3   OH232045   3.267   7.134   3.964
10701TIP3    H132046   3.356   7.168   3.964
10701TIP3    H232047   3.212   7.212   3.958
10702TIP3   OH232048   1.928   6.025   0.084
10702TIP3    H132049   1.872   6.038   0.008
10702TIP3    H232050   1.909   6.100   0.141
10703TIP3   OH232051   7.133   4.953   1.597
10703TIP3    H132052   7.136   4.953   1.692
10703TIP3    H232053   7.072   5.024   1.575
10704TIP3   OH232054   2.784   5.713   3.411
10704TIP3    H132055   2.699   5.722   3.368
10704TIP3    H232056   2.820   5.802   3.410
10705TIP3   OH232057   6.755   5.829   3.773
10705TIP3    H132058   6.808   5.842   3.694
10705TIP3    H232059   6.670   5.799   3.740
10706TIP3   OH232060   7.042   3.408   1.101
10706TIP3    H132061   7.052   3.364   1.185
10706TIP3    H232062   7.130   3.439   1.079
10707TIP3   OH232063   2.151   5.796   5.806
10707TIP3    H132064   2.131   5.721   5.861
10707TIP3    H232065   2.231   5.833   5.844
10708TIP3   OH232066   6.825   3.114   3.627
10708TIP3    H132067   6.818   3.177   3.699
10708TIP3    H232068   6.848   3.031   3.670
10709TIP3   OH232069   1.909   3.945   4.191
10709TIP3    H132070   1.921   3.941   4.097
10709TIP3    H232071   1.974   4.009   4.221
10710TIP3   OH232072   4.576   4.765   3.468
10710TIP3    H132073   4.638   4.838   3.461
10710TIP3    H232074   4.612   4.709   3.537
10711TIP3   OH232075   3.071   2.163   3.500
10711TIP3    H132076   3.078   2.257   3.479
10711TIP3    H232077   3.132   2.151   3.572
10712TIP3   OH232078   2.584   7.553   2.794
10712TIP3    H132079   2.603   7.596   2.877
10712TIP3    H232080   2.488   7.544   2.793
10713TIP3   OH232081   3.609   0.860   0.856
10713TIP3    H132082   3.534   0.847   0.798
10713TIP3    H232083   3.674   0.796   0.827
10714TIP3   OH232084   0.744   0.955   1.371
10714TIP3    H132085   0.822   0.931   1.421
10714TIP3    H232086   0.768   0.940   1.280
10715TIP3   OH232087   2.408   3.051   6.748
10715TIP3    H132088   2.502   3.036   6.740
10715TIP3    H232089   2.372   2.966   6.774
10716TIP3   OH232090   2.768   0.746   5.271
10716TIP3    H132091   2.693   0.729   5.214
10716TIP3    H232092   2.743   0.824   5.321
10717TIP3   OH232093   0.454   6.349   3.787
10717TIP3    H132094   0.437   6.353   3.881
10717TIP3    H232095   0.367   6.357   3.747
10718TIP3   OH232096   0.570   1.170   0.562
10718TIP3    H132097   0.487   1.158   0.608
10718TIP3    H232098   0.588   1.264   0.567
10719TIP3   OH232099   0.656   5.693   4.172
10719TIP3    H132100   0.682   5.785   4.173
10719TIP3    H232101   0.564   5.694   4.200
10720TIP3   OH232102   3.941   7.281   1.775
10720TIP3    H132103   3.911   7.207   1.828
10720TIP3    H232104   3.862   7.312   1.731
10721TIP3   OH232105   6.952   0.474   1.400
10721TIP3    H132106   6.944   0.395   1.454
10721TIP3    H232107   6.866   0.486   1.361
10722TIP3   OH232108   5.888   5.459   5.057
10722TIP3    H132109   5.971   5.416   5.079
10722TIP3    H232110   5.844   5.398   4.998
10723TIP3   OH232111   0.310   2.677   2.612
10723TIP3    H132112   0.224   2.637   2.596
10723TIP3    H232113   0.321   2.739   2.540
10724TIP3   OH232114   5.091   2.240   1.023
10724TIP3    H132115   5.126   2.178   1.087
10724TIP3    H232116   5.126   2.324   1.050
10725TIP3   OH232117   6.688   5.175   1.552
10725TIP3    H132118   6.675   5.195   1.645
10725TIP3    H232119   6.630   5.100   1.536
10726TIP3   OH232120   1.653   4.140   5.235
10726TIP3    H132121   1.654   4.159   5.329
10726TIP3    H232122   1.589   4.202   5.199
10727TIP3   OH232123   5.826   2.477   3.217
10727TIP3    H132124   5.755   2.423   3.251
10727TIP3    H232125   5.905   2.425   3.233
10728TIP3   OH232126   6.563   3.295   0.321
10728TIP3    H132127   6.474   3.271   0.295
10728TIP3    H232128   6.552   3.366   0.385
10729TIP3   OH232129   2.903   2.720   6.078
10729TIP3    H132130   2.895   2.806   6.037
10729TIP3    H232131   2.851   2.662   6.022
10730TIP3   OH232132   7.318   0.591   4.863
10730TIP3    H132133   7.332   0.643   4.784
10730TIP3    H232134   7.227   0.608   4.888
10731TIP3   OH232135   8.198   1.793   3.251
10731TIP3    H132136   8.138   1.762   3.318
10731TIP3    H232137   8.185   1.732   3.178
10732TIP3   OH232138   0.077   4.002   1.706
10732TIP3    H132139   0.054   3.914   1.736
10732TIP3    H232140   0.057   4.059   1.780
10733TIP3   OH232141   6.816   2.280   6.147
10733TIP3    H132142   6.883   2.299   6.081
10733TIP3    H232143   6.837   2.192   6.178
10734TIP3   OH232144   3.680   5.379   4.755
10734TIP3    H132145   3.708   5.370   4.846
10734TIP3    H232146   3.756   5.416   4.710
10735TIP3   OH232147   6.913   3.419   2.249
10735TIP3    H132148   6.939   3.509   2.233
10735TIP3    H232149   6.875   3.389   2.166
10736TIP3   OH232150   4.371   7.824   5.072
10736TIP3    H132151   4.442   7.835   5.134
10736TIP3    H232152   4.292   7.822   5.126
10737TIP3   OH232153   4.011   7.192   1.003
10737TIP3    H132154   3.954   7.187   0.926
10737TIP3    H232155   4.073   7.261   0.982
10738TIP3   OH232156   0.604   0.317   1.658
10738TIP3    H132157   0.606   0.329   1.753
10738TIP3    H232158   0.625   0.404   1.623
10739TIP3   OH232159   7.192   4.669   2.846
10739TIP3    H132160   7.183   4.612   2.922
10739TIP3    H232161   7.186   4.758   2.881
10740TIP3   OH232162   0.633   7.742   3.431
10740TIP3    H132163   0.574   7.757   3.505
10740TIP3    H232164   0.720   7.741   3.471
10741TIP3   OH232165   5.725   5.787   5.767
10741TIP3    H132166   5.807   5.741   5.785
10741TIP3    H232167   5.702   5.828   5.850
10742TIP3   OH232168   4.394   6.596   0.545
10742TIP3    H132169   4.430   6.610   0.632
10742TIP3    H232170   4.411   6.503   0.526
10743TIP3   OH232171   3.071   7.392   3.759
10743TIP3    H132172   3.067   7.455   3.687
10743TIP3    H232173   3.072   7.306   3.716
10744TIP3   OH232174   2.829   3.872   4.357
10744TIP3    H132175   2.758   3.847   4.417
10744TIP3    H232176   2.852   3.791   4.311
10745TIP3   OH232177   4.981   3.052   3.039
10745TIP3    H132178   4.978   3.148   3.035
10745TIP3    H232179   5.074   3.031   3.044
10746TIP3   OH232180   6.413   6.400   3.227
10746TIP3    H132181   6.403   6.381   3.134
10746TIP3    H232182   6.332   6.370   3.267
10747TIP3   OH232183   6.820   1.895   5.697
10747TIP3    H132184   6.869   1.953   5.755
10747TIP3    H232185   6.774   1.954   5.637
10748TIP3   OH232186   0.037   2.049   2.411
10748TIP3    H132187   0.100   1.985   2.444
10748TIP3    H232188   0.071   2.072   2.324
10749TIP3   OH232189   0.622   4.886   4.826
10749TIP3    H132190   0.675   4.822   4.873
10749TIP3    H232191   0.619   4.854   4.736
10750TIP3   OH232192   0.858   6.844   1.420
10750TIP3    H132193   0.909   6.861   1.498
10750TIP3    H232194   0.810   6.926   1.404
10751TIP3   OH232195   1.388   6.743   1.157
10751TIP3    H132196   1.465   6.792   1.185
10751TIP3    H232197   1.376   6.767   1.066
10752TIP3   OH232198   4.109   7.599   1.936
10752TIP3    H132199   4.064   7.517   1.958
10752TIP3    H232200   4.188   7.571   1.890
10753TIP3   OH232201   7.865   5.512   5.792
10753TIP3    H132202   7.829   5.478   5.874
10753TIP3    H232203   7.789   5.520   5.734
10754TIP3   OH232204   4.298   2.997   3.087
10754TIP3    H132205   4.230   3.054   3.123
10754TIP3    H232206   4.253   2.914   3.071
10755TIP3   OH232207   3.366   6.753   4.889
10755TIP3    H132208   3.406   6.816   4.949
10755TIP3    H232209   3.438   6.726   4.831
10756TIP3   OH232210   6.129   5.967   5.525
10756TIP3    H132211   6.207   5.984   5.579
10756TIP3    H232212   6.136   6.030   5.453
10757TIP3   OH232213   5.240   0.759   3.783
10757TIP3    H132214   5.294   0.827   3.823
10757TIP3    H232215   5.150   0.785   3.803
10758TIP3   OH232216   3.104   7.436   0.713
10758TIP3    H132217   3.182   7.406   0.667
10758TIP3    H232218   3.047   7.470   0.644
10759TIP3   OH232219   5.712   0.937   2.067
10759TIP3    H132220   5.656   0.970   2.137
10759TIP3    H232221   5.796   0.980   2.082
10760TIP3   OH232222   6.977   5.039   2.463
10760TIP3    H132223   6.886   5.010   2.451
10760TIP3    H232224   7.007   4.990   2.540
10761TIP3   OH232225   2.680   2.145   2.744
10761TIP3    H132226   2.701   2.102   2.827
10761TIP3    H232227   2.765   2.161   2.703
10762TIP3   OH232228   3.078   0.822   0.648
10762TIP3    H132229   2.995   0.778   0.668
10762TIP3    H232230   3.126   0.760   0.593
10763TIP3   OH232231   3.396   1.803   5.704
10763TIP3    H132232   3.355   1.720   5.727
10763TIP3    H232233   3.332   1.870   5.730
10764TIP3   OH232234   0.169   4.623   4.321
10764TIP3    H132235   0.190   4.530   4.327
10764TIP3    H232236   0.120   4.631   4.239
10765TIP3   OH232237   6.597   2.276   0.341
10765TIP3    H132238   6.673   2.333   0.347
10765TIP3    H232239   6.632   2.194   0.305
10766TIP3   OH232240   1.767   5.268   1.290
10766TIP3    H132241   1.785   5.322   1.214
10766TIP3    H232242   1.711   5.198   1.256
10767TIP3   OH232243   5.497   1.052   5.354
10767TIP3    H132244   5.529   1.142   5.363
10767TIP3    H232245   5.459   1.049   5.266
10768TIP3   OH232246   3.918   7.732   6.792
10768TIP3    H132247   3.920   7.674   6.868
10768TIP3    H232248   3.929   7.674   6.717
10769TIP3   OH232249   2.123   5.344   4.613
10769TIP3    H132250   2.046   5.295   4.642
10769TIP3    H232251   2.134   5.319   4.521
10770TIP3   OH232252   1.904   6.114   0.515
10770TIP3    H132253   1.898   6.103   0.420
10770TIP3    H232254   1.953   6.038   0.545
10771TIP3   OH232255   2.500   3.575   1.702
10771TIP3    H132256   2.594   3.583   1.721
10771TIP3    H232257   2.457   3.596   1.784
10772TIP3   OH232258   2.980   4.898   1.166
10772TIP3    H132259   2.939   4.893   1.080
10772TIP3    H232260   3.069   4.865   1.152
10773TIP3   OH232261   0.749   6.577   2.918
10773TIP3    H132262   0.834   6.598   2.957
10773TIP3    H232263   0.753   6.483   2.903
10774TIP3   OH232264   0.669   4.152   4.817
10774TIP3    H132265   0.703   4.070   4.782
10774TIP3    H232266   0.578   4.133   4.841
10775TIP3   OH232267   0.819   3.259   1.091
10775TIP3    H132268   0.734   3.276   1.051
10775TIP3    H232269   0.806   3.278   1.184
10776TIP3   OH232270   1.270   3.439   2.571
10776TIP3    H132271   1.250   3.357   2.616
10776TIP3    H232272   1.324   3.488   2.632
10777TIP3   OH232273   3.017   5.346   6.656
10777TIP3    H132274   3.044   5.294   6.580
10777TIP3    H232275   2.922   5.354   6.648
10778TIP3   OH232276   2.160   3.376   3.707
10778TIP3    H132277   2.173   3.325   3.627
10778TIP3    H232278   2.103   3.321   3.762
10779TIP3   OH232279   6.671   2.899   5.542
10779TIP3    H132280   6.629   2.843   5.477
10779TIP3    H232281   6.676   2.845   5.621
10780TIP3   OH232282   7.962   0.437   5.103
10780TIP3    H132283   8.022   0.501   5.141
10780TIP3    H232284   7.941   0.472   5.017
10781TIP3   OH232285   2.842   4.375   6.049
10781TIP3    H132286   2.796   4.369   6.132
10781TIP3    H232287   2.847   4.469   6.031
10782TIP3   OH232288   0.089   3.583   2.205
10782TIP3    H132289   0.004   3.628   2.198
10782TIP3    H232290   0.101   3.541   2.120
10783TIP3   OH232291   0.146   5.475   2.265
10783TIP3    H132292   0.115   5.563   2.285
10783TIP3    H232293   0.070   5.419   2.282
10784TIP3   OH232294   3.989   7.219   5.440
10784TIP3    H132295   4.029   7.292   5.394
10784TIP3    H232296   4.023   7.141   5.395
10785TIP3   OH232297   7.026   1.613   6.147
10785TIP3    H132298   6.988   1.537   6.105
10785TIP3    H232299   7.120   1.608   6.126
10786TIP3   OH232300   0.607   0.516   4.397
10786TIP3    H132301   0.659   0.442   4.368
10786TIP3    H232302   0.522   0.478   4.422
10787TIP3   OH232303   7.184   0.611   2.384
10787TIP3    H132304   7.139   0.569   2.310
10787TIP3    H232305   7.116   0.621   2.451
10788TIP3   OH232306   3.907   4.549   3.201
10788TIP3    H132307   3.847   4.549   3.126
10788TIP3    H232308   3.982   4.601   3.172
10789TIP3   OH232309   0.419   3.090   1.730
10789TIP3    H132310   0.330   3.056   1.724
10789TIP3    H232311   0.421   3.165   1.670
10790TIP3   OH232312   7.150   1.471   4.835
10790TIP3    H132313   7.158   1.550   4.782
10790TIP3    H232314   7.232   1.425   4.822
10791TIP3   OH232315   5.547   7.496   3.317
10791TIP3    H132316   5.601   7.476   3.240
10791TIP3    H232317   5.458   7.501   3.284
10792TIP3   OH232318   7.384   4.324   2.515
10792TIP3    H132319   7.394   4.289   2.604
10792TIP3    H232320   7.400   4.418   2.525
10793TIP3   OH232321   7.541   1.336   5.235
10793TIP3    H132322   7.538   1.420   5.189
10793TIP3    H232323   7.572   1.357   5.323
10794TIP3   OH232324   6.941   3.079   4.330
10794TIP3    H132325   6.978   3.066   4.243
10794TIP3    H232326   6.866   3.020   4.334
10795TIP3   OH232327   7.040   5.114   3.177
10795TIP3    H132328   6.989   5.190   3.205
10795TIP3    H232329   7.069   5.136   3.088
10796TIP3   OH232330   4.539   5.919   5.247
10796TIP3    H132331   4.618   5.948   5.293
10796TIP3    H232332   4.468   5.970   5.286
10797TIP3   OH232333   3.208   2.757   3.294
10797TIP3    H132334   3.233   2.749   3.202
10797TIP3    H232335   3.279   2.808   3.334
10798TIP3   OH232336   4.318   2.285   4.431
10798TIP3    H132337   4.413   2.293   4.434
10798TIP3    H232338   4.297   2.218   4.496
10799TIP3   OH232339   0.050   2.427   3.135
10799TIP3    H132340   0.014   2.512   3.110
10799TIP3    H232341   0.085   2.440   3.223
10800TIP3   OH232342   1.911   1.013   5.651
10800TIP3    H132343   1.850   1.047   5.716
10800TIP3    H232344   1.882   1.051   5.568
10801TIP3   OH232345   2.030   0.424   2.080
10801TIP3    H132346   2.061   0.424   2.171
10801TIP3    H232347   2.104   0.388   2.030
10802TIP3   OH232348   0.901   6.570   3.630
10802TIP3    H132349   0.890   6.662   3.605
10802TIP3    H232350   0.820   6.547   3.674
10803TIP3   OH232351   5.396   5.790   0.355
10803TIP3    H132352   5.399   5.836   0.439
10803TIP3    H232353   5.449   5.712   0.368
10804TIP3   OH232354   7.678   4.342   2.475
10804TIP3    H132355   7.651   4.420   2.427
10804TIP3    H232356   7.600   4.287   2.478
10805TIP3   OH232357   4.336   3.901   5.615
10805TIP3    H132358   4.384   3.938   5.540
10805TIP3    H232359   4.263   3.961   5.628
10806TIP3   OH232360   8.017   0.630   4.830
10806TIP3    H132361   8.101   0.674   4.816
10806TIP3    H232362   7.983   0.616   4.741
10807TIP3   OH232363   3.112   2.719   0.804
10807TIP3    H132364   3.196   2.698   0.846
10807TIP3    H232365   3.137   2.756   0.719
10808TIP3   OH232366   6.566   2.095   2.175
10808TIP3    H132367   6.562   2.016   2.122
10808TIP3    H232368   6.613   2.068   2.255
10809TIP3   OH232369   7.316   6.954   3.040
10809TIP3    H132370   7.328   6.879   3.098
10809TIP3    H232371   7.351   6.925   2.955
10810TIP3   OH232372   4.267   4.986   2.231
10810TIP3    H132373   4.175   4.973   2.207
10810TIP3    H232374   4.270   5.077   2.261
10811TIP3   OH232375   6.970   0.949   6.735
10811TIP3    H132376   6.941   0.872   6.687
10811TIP3    H232377   6.940   0.934   6.825
10812TIP3   OH232378   7.213   3.861   4.585
10812TIP3    H132379   7.139   3.804   4.604
10812TIP3    H232380   7.266   3.859   4.665
10813TIP3   OH232381   4.837   2.669   2.137
10813TIP3    H132382   4.822   2.744   2.079
10813TIP3    H232383   4.775   2.681   2.209
10814TIP3   OH232384   4.716   4.464   2.340
10814TIP3    H132385   4.632   4.509   2.337
10814TIP3    H232386   4.698   4.377   2.303
10815TIP3   OH232387   1.245   1.425   3.484
10815TIP3    H132388   1.294   1.373   3.421
10815TIP3    H232389   1.163   1.377   3.496
10816TIP3   OH232390   7.825   7.501   2.361
10816TIP3    H132391   7.831   7.595   2.375
10816TIP3    H232392   7.911   7.475   2.328
10817TIP3   OH232393   4.705   6.857   4.760
10817TIP3    H132394   4.777   6.811   4.803
10817TIP3    H232395   4.738   6.876   4.672
10818TIP3   OH232396   3.760   5.643   4.223
10818TIP3    H132397   3.765   5.738   4.216
10818TIP3    H232398   3.817   5.611   4.154
10819TIP3   OH232399   6.137   5.799   4.190
10819TIP3    H132400   6.181   5.718   4.214
10819TIP3    H232401   6.109   5.787   4.099
10820TIP3   OH232402   3.310   5.541   0.911
10820TIP3    H132403   3.308   5.487   0.990
10820TIP3    H232404   3.392   5.590   0.917
10821TIP3   OH232405   7.756   4.255   2.882
10821TIP3    H132406   7.697   4.210   2.943
10821TIP3    H232407   7.813   4.307   2.939
10822TIP3   OH232408   1.826   4.272   2.517
10822TIP3    H132409   1.764   4.204   2.489
10822TIP3    H232410   1.913   4.232   2.502
10823TIP3   OH232411   0.219   1.426   4.809
10823TIP3    H132412   0.254   1.504   4.766
10823TIP3    H232413   0.293   1.365   4.810
10824TIP3   OH232414   0.842   5.607   2.503
10824TIP3    H132415   0.870   5.695   2.526
10824TIP3    H232416   0.778   5.619   2.433
10825TIP3   OH232417   7.753   0.354   1.427
10825TIP3    H132418   7.658   0.362   1.421
10825TIP3    H232419   7.787   0.430   1.380
10826TIP3   OH232420   6.608   3.087   0.522
10826TIP3    H132421   6.679   3.028   0.495
10826TIP3    H232422   6.609   3.157   0.457
10827TIP3   OH232423   4.858   4.058   6.059
10827TIP3    H132424   4.840   4.080   6.151
10827TIP3    H232425   4.779   4.013   6.030
10828TIP3   OH232426   7.524   7.386   5.059
10828TIP3    H132427   7.604   7.412   5.014
10828TIP3    H232428   7.484   7.468   5.088
10829TIP3   OH232429   1.207   4.626   2.487
10829TIP3    H132430   1.207   4.720   2.473
10829TIP3    H232431   1.288   4.609   2.535
10830TIP3   OH232432   1.232   6.132   1.209
10830TIP3    H132433   1.180   6.212   1.210
10830TIP3    H232434   1.210   6.091   1.125
10831TIP3   OH232435   5.912   2.528   2.123
10831TIP3    H132436   5.834   2.560   2.169
10831TIP3    H232437   5.883   2.514   2.033
10832TIP3   OH232438   5.756   7.249   1.460
10832TIP3    H132439   5.673   7.297   1.457
10832TIP3    H232440   5.731   7.157   1.468
10833TIP3   OH232441   3.653   5.455   6.737
10833TIP3    H132442   3.695   5.460   6.652
10833TIP3    H232443   3.574   5.509   6.728
10834TIP3   OH232444   3.595   1.046   0.129
10834TIP3    H132445   3.526   1.071   0.068
10834TIP3    H232446   3.593   0.951   0.130
10835TIP3   OH232447   0.033   4.809   2.762
10835TIP3    H132448   0.024   4.791   2.668
10835TIP3    H232449   0.065   4.727   2.799
10836TIP3   OH232450   3.990   7.533   3.802
10836TIP3    H132451   3.918   7.596   3.793
10836TIP3    H232452   4.008   7.529   3.896
10837TIP3   OH232453   0.644   7.221   6.770
10837TIP3    H132454   0.657   7.313   6.747
10837TIP3    H232455   0.655   7.174   6.687
10838TIP3   OH232456   2.258   4.030   4.432
10838TIP3    H132457   2.226   3.943   4.457
10838TIP3    H232458   2.347   4.033   4.467
10839TIP3   OH232459   1.288   2.529   0.901
10839TIP3    H132460   1.275   2.596   0.834
10839TIP3    H232461   1.210   2.536   0.957
10840TIP3   OH232462   0.308   6.612   0.203
10840TIP3    H132463   0.248   6.590   0.275
10840TIP3    H232464   0.253   6.610   0.125
10841TIP3   OH232465   3.729   6.963   1.669
10841TIP3    H132466   3.642   6.938   1.701
10841TIP3    H232467   3.762   7.024   1.735
10842TIP3   OH232468   1.130   3.237   1.204
10842TIP3    H132469   1.198   3.288   1.161
10842TIP3    H232470   1.067   3.302   1.234
10843TIP3   OH232471   8.142   7.402   3.463
10843TIP3    H132472   8.182   7.489   3.458
10843TIP3    H232473   8.217   7.342   3.461
10844TIP3   OH232474   8.010   0.659   5.778
10844TIP3    H132475   8.089   0.694   5.819
10844TIP3    H232476   8.002   0.708   5.696
10845TIP3   OH232477   1.799   2.740   5.957
10845TIP3    H132478   1.873   2.733   6.017
10845TIP3    H232479   1.806   2.827   5.919
10846TIP3   OH232480   5.742   1.246   3.477
10846TIP3    H132481   5.768   1.300   3.403
10846TIP3    H232482   5.656   1.210   3.451
10847TIP3   OH232483   2.987   3.018   0.453
10847TIP3    H132484   2.942   3.079   0.511
10847TIP3    H232485   3.073   3.006   0.493
10848TIP3   OH232486   8.029   3.434   0.300
10848TIP3    H132487   7.978   3.481   0.234
10848TIP3    H232488   8.096   3.388   0.250
10849TIP3   OH232489   5.267   7.447   1.507
10849TIP3    H132490   5.199   7.397   1.552
10849TIP3    H232491   5.219   7.498   1.441
10850TIP3   OH232492   2.819   5.580   3.142
10850TIP3    H132493   2.869   5.530   3.078
10850TIP3    H232494   2.765   5.515   3.187
10851TIP3   OH232495   6.143   1.660   0.676
10851TIP3    H132496   6.127   1.617   0.592
10851TIP3    H232497   6.205   1.603   0.721
10852TIP3   OH232498   6.430   1.639   1.630
10852TIP3    H132499   6.385   1.669   1.551
10852TIP3    H232500   6.511   1.689   1.631
10853TIP3   OH232501   2.074   2.353   3.129
10853TIP3    H132502   2.055   2.259   3.128
10853TIP3    H232503   2.000   2.393   3.083
10854TIP3   OH232504   7.017   2.198   5.677
10854TIP3    H132505   7.077   2.268   5.699
10854TIP3    H232506   7.070   2.118   5.683
10855TIP3   OH232507   3.667   4.059   3.772
10855TIP3    H132508   3.738   4.122   3.776
10855TIP3    H232509   3.642   4.056   3.679
10856TIP3   OH232510   4.242   6.606   1.210
10856TIP3    H132511   4.277   6.599   1.122
10856TIP3    H232512   4.249   6.517   1.246
10857TIP3   OH232513   1.316   5.526   6.711
10857TIP3    H132514   1.353   5.437   6.712
10857TIP3    H232515   1.391   5.584   6.718
10858TIP3   OH232516   3.250   4.920   2.591
10858TIP3    H132517   3.317   4.948   2.653
10858TIP3    H232518   3.250   4.824   2.598
10859TIP3   OH232519   1.305   0.448   3.094
10859TIP3    H132520   1.265   0.367   3.062
10859TIP3    H232521   1.231   0.502   3.120
10860TIP3   OH232522   1.473   0.823   4.509
10860TIP3    H132523   1.525   0.751   4.475
10860TIP3    H232524   1.505   0.836   4.598
10861TIP3   OH232525   0.917   1.151   3.701
10861TIP3    H132526   0.854   1.081   3.680
10861TIP3    H232527   0.879   1.195   3.777
10862TIP3   OH232528   6.521   0.600   2.822
10862TIP3    H132529   6.534   0.519   2.773
10862TIP3    H232530   6.571   0.665   2.773
10863TIP3   OH232531   7.251   1.994   2.520
10863TIP3    H132532   7.345   1.973   2.524
10863TIP3    H232533   7.249   2.089   2.508
10864TIP3   OH232534   5.358   0.318   4.785
10864TIP3    H132535   5.440   0.274   4.809
10864TIP3    H232536   5.318   0.342   4.868
10865TIP3   OH232537   5.549   4.241   1.169
10865TIP3    H132538   5.482   4.305   1.146
10865TIP3    H232539   5.501   4.159   1.181
10866TIP3   OH232540   1.222   1.058   1.227
10866TIP3    H132541   1.199   0.974   1.267
10866TIP3    H232542   1.294   1.038   1.168
10867TIP3   OH232543   6.874   6.446   5.013
10867TIP3    H132544   6.842   6.529   5.047
10867TIP3    H232545   6.964   6.464   4.985
10868TIP3   OH232546   2.225   5.507   6.683
10868TIP3    H132547   2.199   5.486   6.773
10868TIP3    H232548   2.269   5.591   6.690
10869TIP3   OH232549   0.783   7.536   2.021
10869TIP3    H132550   0.747   7.624   2.004
10869TIP3    H232551   0.734   7.505   2.097
10870TIP3   OH232552   5.787   4.964   3.708
10870TIP3    H132553   5.830   5.022   3.771
10870TIP3    H232554   5.836   4.882   3.711
10871TIP3   OH232555   0.578   6.847   3.635
10871TIP3    H132556   0.641   6.834   3.706
10871TIP3    H232557   0.621   6.909   3.575
10872TIP3   OH232558   6.042   0.986   4.209
10872TIP3    H132559   6.028   0.894   4.230
10872TIP3    H232560   6.079   0.984   4.120
10873TIP3   OH232561   1.911   3.277   3.232
10873TIP3    H132562   1.910   3.356   3.286
10873TIP3    H232563   1.971   3.218   3.278
10874TIP3   OH232564   6.964   5.160   5.554
10874TIP3    H132565   6.956   5.245   5.513
10874TIP3    H232566   6.898   5.105   5.511
10875TIP3   OH232567   6.769   4.951   4.869
10875TIP3    H132568   6.770   4.856   4.857
10875TIP3    H232569   6.843   4.983   4.819
10876TIP3   OH232570   3.182   6.022   5.154
10876TIP3    H132571   3.137   5.940   5.135
10876TIP3    H232572   3.138   6.087   5.100
10877TIP3   OH232573   4.668   7.154   5.218
10877TIP3    H132574   4.748   7.193   5.182
10877TIP3    H232575   4.627   7.110   5.143
10878TIP3   OH232576   2.249   0.894   1.851
10878TIP3    H132577   2.238   0.981   1.889
10878TIP3    H232578   2.192   0.838   1.904
10879TIP3   OH232579   7.478   2.374   3.972
10879TIP3    H132580   7.397   2.333   4.001
10879TIP3    H232581   7.544   2.342   4.035
10880TIP3   OH232582   8.025   3.397   1.484
10880TIP3    H132583   8.082   3.382   1.559
10880TIP3    H232584   8.080   3.378   1.408
10881TIP3   OH232585   7.223   2.530   2.842
10881TIP3    H132586   7.161   2.473   2.887
10881TIP3    H232587   7.203   2.521   2.749
10882TIP3   OH232588   4.539   1.868   1.574
10882TIP3    H132589   4.527   1.934   1.642
10882TIP3    H232590   4.451   1.836   1.556
10883TIP3   OH232591   6.100   0.391   5.640
10883TIP3    H132592   6.032   0.448   5.674
10883TIP3    H232593   6.067   0.302   5.653
10884TIP3   OH232594   5.543   7.545   4.195
10884TIP3    H132595   5.508   7.634   4.205
10884TIP3    H232596   5.620   7.543   4.252
10885TIP3   OH232597   4.813   6.664   2.515
10885TIP3    H132598   4.763   6.587   2.543
10885TIP3    H232599   4.904   6.638   2.522
10886TIP3   OH232600   0.687   6.099   5.517
10886TIP3    H132601   0.716   6.037   5.450
10886TIP3    H232602   0.760   6.105   5.578
10887TIP3   OH232603   4.961   2.608   6.322
10887TIP3    H132604   4.912   2.535   6.362
10887TIP3    H232605   5.003   2.569   6.245
10888TIP3   OH232606   6.225   4.193   5.167
10888TIP3    H132607   6.251   4.143   5.090
10888TIP3    H232608   6.131   4.176   5.176
10889TIP3   OH232609   7.407   6.478   3.373
10889TIP3    H132610   7.492   6.449   3.406
10889TIP3    H232611   7.359   6.397   3.356
10890TIP3   OH232612   5.147   4.975   5.178
10890TIP3    H132613   5.101   4.954   5.259
10890TIP3    H232614   5.210   5.043   5.202
10891TIP3   OH232615   7.960   4.956   3.787
10891TIP3    H132616   8.024   4.977   3.855
10891TIP3    H232617   7.999   4.989   3.707
10892TIP3   OH232618   0.209   4.977   1.405
10892TIP3    H132619   0.162   4.929   1.472
10892TIP3    H232620   0.142   5.027   1.358
10893TIP3   OH232621   1.489   6.975   4.302
10893TIP3    H132622   1.541   6.903   4.269
10893TIP3    H232623   1.550   7.048   4.309
10894TIP3   OH232624   5.372   5.616   2.226
10894TIP3    H132625   5.426   5.538   2.217
10894TIP3    H232626   5.381   5.641   2.318
10895TIP3   OH232627   2.754   6.569   1.328
10895TIP3    H132628   2.682   6.507   1.339
10895TIP3    H232629   2.719   6.637   1.269
10896TIP3   OH232630   8.085   2.649   2.097
10896TIP3    H132631   8.023   2.661   2.025
10896TIP3    H232632   8.053   2.574   2.146
10897TIP3   OH232633   0.903   5.401   3.799
10897TIP3    H132634   0.816   5.370   3.822
10897TIP3    H232635   0.910   5.487   3.841
10898TIP3   OH232636   4.576   5.889   0.681
10898TIP3    H132637   4.620   5.809   0.712
10898TIP3    H232638   4.623   5.912   0.600
10899TIP3   OH232639   0.145   1.076   0.500
10899TIP3    H132640   0.051   1.088   0.508
10899TIP3    H232641   0.158   1.047   0.409
10900TIP3   OH232642   1.827   5.089   6.231
10900TIP3    H132643   1.863   5.153   6.170
10900TIP3    H232644   1.887   5.091   6.306
10901TIP3   OH232645   7.665   7.640   0.114
10901TIP3    H132646   7.691   7.558   0.157
10901TIP3    H232647   7.611   7.611   0.040
10902TIP3   OH232648   4.224   7.239   3.198
10902TIP3    H132649   4.175   7.157   3.195
10902TIP3    H232650   4.204   7.276   3.285
10903TIP3   OH232651   7.255   6.775   0.166
10903TIP3    H132652   7.289   6.842   0.224
10903TIP3    H232653   7.174   6.746   0.207
10904TIP3   OH232654   4.218   7.073   4.212
10904TIP3    H132655   4.293   7.061   4.270
10904TIP3    H232656   4.192   7.164   4.225
10905TIP3   OH232657   1.723   0.332   3.401
10905TIP3    H132658   1.806   0.372   3.374
10905TIP3    H232659   1.673   0.404   3.439
10906TIP3   OH232660   6.136   2.141   5.670
10906TIP3    H132661   6.147   2.096   5.587
10906TIP3    H232662   6.064   2.203   5.654
10907TIP3   OH232663   2.512   2.985   0.611
10907TIP3    H132664   2.508   2.974   0.706
10907TIP3    H232665   2.541   3.075   0.598
10908TIP3   OH232666   0.979   4.509   2.405
10908TIP3    H132667   0.923   4.492   2.481
10908TIP3    H232668   1.051   4.560   2.441
10909TIP3   OH232669   1.836   3.973   2.218
10909TIP3    H132670   1.839   4.058   2.173
10909TIP3    H232671   1.745   3.945   2.208
10910TIP3   OH232672   1.046   5.160   2.211
10910TIP3    H132673   1.083   5.147   2.123
10910TIP3    H232674   1.122   5.166   2.269
10911TIP3   OH232675   4.446   0.611   6.292
10911TIP3    H132676   4.388   0.551   6.338
10911TIP3    H232677   4.406   0.697   6.303
10912TIP3   OH232678   3.211   0.159   5.124
10912TIP3    H132679   3.265   0.099   5.073
10912TIP3    H232680   3.268   0.186   5.197
10913TIP3   OH232681   7.682   3.933   0.936
10913TIP3    H132682   7.671   3.938   0.841
10913TIP3    H232683   7.653   4.019   0.967
10914TIP3   OH232684   3.617   3.462   4.040
10914TIP3    H132685   3.554   3.398   4.005
10914TIP3    H232686   3.637   3.431   4.128
10915TIP3   OH232687   5.796   7.368   6.348
10915TIP3    H132688   5.750   7.443   6.311
10915TIP3    H232689   5.794   7.382   6.442
10916TIP3   OH232690   5.932   3.975   0.542
10916TIP3    H132691   5.847   3.972   0.497
10916TIP3    H232692   5.996   3.949   0.475
10917TIP3   OH232693   4.789   5.760   5.469
10917TIP3    H132694   4.705   5.733   5.508
10917TIP3    H232695   4.766   5.787   5.380
10918TIP3   OH232696   5.908   4.098   1.199
10918TIP3    H132697   5.967   4.159   1.244
10918TIP3    H232698   5.904   4.023   1.258
10919TIP3   OH232699   3.963   6.025   3.987
10919TIP3    H132700   3.875   6.030   3.949
10919TIP3    H232701   4.022   6.028   3.911
10920TIP3   OH232702   1.658   5.222   2.343
10920TIP3    H132703   1.606   5.285   2.294
10920TIP3    H232704   1.683   5.156   2.279
10921TIP3   OH232705   0.264   1.839   5.174
10921TIP3    H132706   0.272   1.907   5.107
10921TIP3    H232707   0.316   1.872   5.247
10922TIP3   OH232708   1.287   2.910   3.794
10922TIP3    H132709   1.232   2.961   3.852
10922TIP3    H232710   1.234   2.834   3.770
10923TIP3   OH232711   5.342   3.786   0.681
10923TIP3    H132712   5.334   3.846   0.755
10923TIP3    H232713   5.395   3.714   0.714
10924TIP3   OH232714   7.633   1.685   3.131
10924TIP3    H132715   7.574   1.757   3.153
10924TIP3    H232716   7.720   1.726   3.129
10925TIP3   OH232717   7.522   4.870   0.906
10925TIP3    H132718   7.558   4.783   0.889
10925TIP3    H232719   7.587   4.912   0.963
10926TIP3   OH232720   2.495   6.934   4.351
10926TIP3    H132721   2.574   6.928   4.406
10926TIP3    H232722   2.525   6.910   4.263
10927TIP3   OH232723   0.556   2.302   6.658
10927TIP3    H132724   0.619   2.336   6.721
10927TIP3    H232725   0.531   2.378   6.605
10928TIP3   OH232726   7.177   4.386   4.976
10928TIP3    H132727   7.239   4.438   5.027
10928TIP3    H232728   7.117   4.451   4.938
10929TIP3   OH232729   8.296   2.906   5.903
10929TIP3    H132730   8.226   2.963   5.933
10929TIP3    H232731   8.276   2.889   5.811
10930TIP3   OH232732   1.081   6.845   2.618
10930TIP3    H132733   1.070   6.777   2.685
10930TIP3    H232734   1.162   6.821   2.573
10931TIP3   OH232735   2.746   5.107   4.971
10931TIP3    H132736   2.663   5.061   4.961
10931TIP3    H232737   2.728   5.174   5.037
10932TIP3   OH232738   4.391   6.813   2.782
10932TIP3    H132739   4.464   6.812   2.720
10932TIP3    H232740   4.385   6.723   2.813
10933TIP3   OH232741   1.296   6.056   5.729
10933TIP3    H132742   1.286   5.978   5.675
10933TIP3    H232743   1.289   6.025   5.819
10934TIP3   OH232744   7.101   6.815   5.525
10934TIP3    H132745   7.007   6.815   5.540
10934TIP3    H232746   7.134   6.743   5.580
10935TIP3   OH232747   6.953   7.181   5.438
10935TIP3    H132748   7.039   7.151   5.469
10935TIP3    H232749   6.893   7.110   5.462
10936TIP3   OH232750   7.761   5.598   2.667
10936TIP3    H132751   7.816   5.520   2.662
10936TIP3    H232752   7.823   5.671   2.660
10937TIP3   OH232753   7.019   5.897   3.879
10937TIP3    H132754   6.926   5.915   3.868
10937TIP3    H232755   7.029   5.874   3.971
10938TIP3   OH232756   6.080   2.344   6.025
10938TIP3    H132757   6.040   2.332   6.111
10938TIP3    H232758   6.059   2.263   5.978
10939TIP3   OH232759   4.172   6.037   3.745
10939TIP3    H132760   4.222   6.070   3.820
10939TIP3    H232761   4.161   6.113   3.688
10940TIP3   OH232762   7.338   5.312   0.081
10940TIP3    H132763   7.244   5.291   0.079
10940TIP3    H232764   7.351   5.371   0.007
10941TIP3   OH232765   0.535   7.524   2.740
10941TIP3    H132766   0.594   7.451   2.759
10941TIP3    H232767   0.537   7.532   2.644
10942TIP3   OH232768   7.944   0.342   3.162
10942TIP3    H132769   7.893   0.361   3.240
10942TIP3    H232770   7.910   0.258   3.130
10943TIP3   OH232771   0.265   6.807   0.521
10943TIP3    H132772   0.254   6.793   0.427
10943TIP3    H232773   0.329   6.742   0.548
10944TIP3   OH232774   5.370   3.299   3.576
10944TIP3    H132775   5.351   3.313   3.669
10944TIP3    H232776   5.390   3.206   3.568
10945TIP3   OH232777   0.405   2.646   0.837
10945TIP3    H132778   0.428   2.679   0.750
10945TIP3    H232779   0.435   2.555   0.836
10946TIP3   OH232780   5.377   7.533   6.209
10946TIP3    H132781   5.340   7.569   6.290
10946TIP3    H232782   5.303   7.531   6.148
10947TIP3   OH232783   0.592   5.896   0.891
10947TIP3    H132784   0.538   5.920   0.966
10947TIP3    H232785   0.617   5.805   0.908
10948TIP3   OH232786   1.454   3.637   3.888
10948TIP3    H132787   1.442   3.590   3.805
10948TIP3    H232788   1.546   3.664   3.887
10949TIP3   OH232789   5.177   0.864   4.684
10949TIP3    H132790   5.098   0.919   4.684
10949TIP3    H232791   5.248   0.925   4.664
10950TIP3   OH232792   5.915   1.557   1.188
10950TIP3    H132793   5.953   1.624   1.131
10950TIP3    H232794   5.952   1.475   1.156
10951TIP3   OH232795   6.535   4.710   2.320
10951TIP3    H132796   6.448   4.726   2.283
10951TIP3    H232797   6.581   4.793   2.313
10952TIP3   OH232798   8.033   5.245   3.076
10952TIP3    H132799   7.946   5.216   3.048
10952TIP3    H232800   8.079   5.165   3.101
10953TIP3   OH232801   6.428   4.179   0.394
10953TIP3    H132802   6.490   4.107   0.406
10953TIP3    H232803   6.410   4.179   0.300
10954TIP3   OH232804   1.433   2.439   1.249
10954TIP3    H132805   1.357   2.466   1.300
10954TIP3    H232806   1.397   2.381   1.182
10955TIP3   OH232807   5.272   7.806   3.332
10955TIP3    H132808   5.327   7.771   3.262
10955TIP3    H232809   5.311   7.770   3.412
10956TIP3   OH232810   1.335   1.512   1.091
10956TIP3    H132811   1.393   1.447   1.132
10956TIP3    H232812   1.351   1.592   1.141
10957TIP3   OH232813   5.010   1.299   3.244
10957TIP3    H132814   4.928   1.317   3.290
10957TIP3    H232815   5.075   1.288   3.314
10958TIP3   OH232816   4.671   2.145   4.697
10958TIP3    H132817   4.711   2.060   4.678
10958TIP3    H232818   4.741   2.198   4.733
10959TIP3   OH232819   6.046   6.543   6.124
10959TIP3    H132820   6.052   6.612   6.190
10959TIP3    H232821   6.125   6.554   6.071
10960TIP3   OH232822   1.309   4.621   4.253
10960TIP3    H132823   1.225   4.604   4.296
10960TIP3    H232824   1.373   4.570   4.304
10961TIP3   OH232825   6.593   5.675   3.529
10961TIP3    H132826   6.554   5.618   3.463
10961TIP3    H232827   6.576   5.764   3.496
10962TIP3   OH232828   5.172   3.377   0.849
10962TIP3    H132829   5.189   3.427   0.769
10962TIP3    H232830   5.195   3.436   0.920
10963TIP3   OH232831   1.088   2.589   6.624
10963TIP3    H132832   1.002   2.600   6.582
10963TIP3    H232833   1.149   2.581   6.551
10964TIP3   OH232834   4.996   2.790   1.747
10964TIP3    H132835   5.033   2.830   1.826
10964TIP3    H232836   4.972   2.864   1.692
10965TIP3   OH232837   3.112   5.321   3.809
10965TIP3    H132838   3.127   5.325   3.714
10965TIP3    H232839   3.019   5.301   3.817
10966TIP3   OH232840   5.607   2.375   0.203
10966TIP3    H132841   5.692   2.374   0.159
10966TIP3    H232842   5.544   2.384   0.131
10967TIP3   OH232843   2.625  -0.013   2.901
10967TIP3    H132844   2.700   0.022   2.854
10967TIP3    H232845   2.662  -0.077   2.962
10968TIP3   OH232846   0.223   6.200   6.663
10968TIP3    H132847   0.274   6.144   6.605
10968TIP3    H232848   0.145   6.148   6.684
10969TIP3   OH232849   6.375   2.936   4.228
10969TIP3    H132850   6.337   2.968   4.310
10969TIP3    H232851   6.325   2.981   4.160
10970TIP3   OH232852   3.432   4.480   2.845
10970TIP3    H132853   3.356   4.437   2.804
10970TIP3    H232854   3.469   4.413   2.903
10971TIP3   OH232855   3.650   0.408   3.674
10971TIP3    H132856   3.734   0.416   3.629
10971TIP3    H232857   3.668   0.353   3.750
10972TIP3   OH232858   6.169   2.555   0.447
10972TIP3    H132859   6.254   2.586   0.476
10972TIP3    H232860   6.169   2.461   0.465
10973TIP3   OH232861   1.828   5.881   2.123
10973TIP3    H132862   1.769   5.808   2.101
10973TIP3    H232863   1.845   5.871   2.217
10974TIP3   OH232864   0.720   3.010   0.428
10974TIP3    H132865   0.810   3.002   0.396
10974TIP3    H232866   0.690   2.919   0.437
10975TIP3   OH232867   6.905   2.232   3.961
10975TIP3    H132868   6.993   2.267   3.975
10975TIP3    H232869   6.920   2.146   3.923
10976TIP3   OH232870   0.314   3.852   0.141
10976TIP3    H132871   0.355   3.893   0.065
10976TIP3    H232872   0.269   3.923   0.186
10977TIP3   OH232873   3.296   0.554   0.872
10977TIP3    H132874   3.229   0.487   0.886
10977TIP3    H232875   3.301   0.601   0.956
10978TIP3   OH232876   0.111   1.028   0.227
10978TIP3    H132877   0.099   1.081   0.149
10978TIP3    H232878   0.178   0.964   0.203
10979TIP3   OH232879   1.066   7.035   1.250
10979TIP3    H132880   0.992   7.012   1.194
10979TIP3    H232881   1.096   6.951   1.285
10980TIP3   OH232882   0.248   6.017   1.909
10980TIP3    H132883   0.190   5.941   1.907
10980TIP3    H232884   0.315   5.994   1.973
10981TIP3   OH232885   6.667   2.331   0.631
10981TIP3    H132886   6.747   2.360   0.588
10981TIP3    H232887   6.602   2.326   0.561
10982TIP3   OH232888   6.332   2.152   3.054
10982TIP3    H132889   6.286   2.073   3.082
10982TIP3    H232890   6.312   2.217   3.122
10983TIP3   OH232891   7.361   3.230   5.330
10983TIP3    H132892   7.436   3.285   5.311
10983TIP3    H232893   7.289   3.291   5.348
10984TIP3   OH232894   6.851   5.845   4.970
10984TIP3    H132895   6.861   5.936   4.997
10984TIP3    H232896   6.758   5.834   4.953
10985TIP3   OH232897   3.115   5.960   3.497
10985TIP3    H132898   3.206   5.941   3.475
10985TIP3    H232899   3.110   5.949   3.592
10986TIP3   OH232900   7.219   5.493   1.427
10986TIP3    H132901   7.170   5.419   1.390
10986TIP3    H232902   7.252   5.459   1.510
10987TIP3   OH232903   3.973   5.291   6.354
10987TIP3    H132904   4.046   5.349   6.377
10987TIP3    H232905   3.920   5.342   6.293
10988TIP3   OH232906   5.725   4.652   1.970
10988TIP3    H132907   5.791   4.719   1.990
10988TIP3    H232908   5.686   4.630   2.055
10989TIP3   OH232909   0.161   5.780   2.797
10989TIP3    H132910   0.144   5.713   2.730
10989TIP3    H232911   0.079   5.830   2.803
10990TIP3   OH232912   6.218   2.742   1.153
10990TIP3    H132913   6.142   2.689   1.178
10990TIP3    H232914   6.188   2.833   1.162
10991TIP3   OH232915   1.852   5.374   1.048
10991TIP3    H132916   1.882   5.454   1.005
10991TIP3    H232917   1.802   5.328   0.980
10992TIP3   OH232918   2.792   3.472   3.382
10992TIP3    H132919   2.742   3.393   3.401
10992TIP3    H232920   2.800   3.473   3.287
10993TIP3   OH232921   0.491   1.624   6.317
10993TIP3    H132922   0.537   1.563   6.374
10993TIP3    H232923   0.475   1.575   6.236
10994TIP3   OH232924   7.165   2.008   3.454
10994TIP3    H132925   7.097   2.074   3.442
10994TIP3    H232926   7.242   2.045   3.413
10995TIP3   OH232927   5.477   2.105   0.268
10995TIP3    H132928   5.461   2.175   0.205
10995TIP3    H232929   5.569   2.080   0.253
10996TIP3   OH232930   7.267   3.280   2.849
10996TIP3    H132931   7.251   3.330   2.929
10996TIP3    H232932   7.306   3.198   2.879
10997TIP3   OH232933   3.879   0.445   5.231
10997TIP3    H132934   3.836   0.462   5.315
10997TIP3    H232935   3.832   0.501   5.169
10998TIP3   OH232936   1.639   0.208   1.891
10998TIP3    H132937   1.627   0.142   1.959
10998TIP3    H232938   1.734   0.214   1.881
10999TIP3   OH232939   7.281   4.651   4.606
10999TIP3    H132940   7.201   4.683   4.565
10999TIP3    H232941   7.254   4.571   4.652
11000TIP3   OH232942   7.946   3.128   4.288
11000TIP3    H132943   7.880   3.180   4.242
11000TIP3    H232944   8.015   3.114   4.223
11001TIP3   OH232945   8.046   6.599   2.321
11001TIP3    H132946   8.137   6.627   2.310
11001TIP3    H232947   7.996   6.656   2.262
11002TIP3   OH232948   4.322   4.988   1.246
11002TIP3    H132949   4.252   5.036   1.292
11002TIP3    H232950   4.283   4.903   1.226
11003TIP3   OH232951   5.815   2.805   0.728
11003TIP3    H132952   5.780   2.814   0.639
11003TIP3    H232953   5.887   2.743   0.719
11004TIP3   OH232954   7.713   3.453   6.345
11004TIP3    H132955   7.620   3.470   6.362
11004TIP3    H232956   7.734   3.379   6.401
11005TIP3   OH232957   2.833   5.313   3.804
11005TIP3    H132958   2.833   5.385   3.742
11005TIP3    H232959   2.741   5.302   3.828
11006TIP3   OH232960   3.316   7.384   1.766
11006TIP3    H132961   3.229   7.383   1.727
11006TIP3    H232962   3.355   7.467   1.736
11007TIP3   OH232963  -0.018   0.810   0.404
11007TIP3    H132964  -0.016   0.717   0.429
11007TIP3    H232965   0.059   0.821   0.348
11008TIP3   OH232966   0.165   3.228   1.983
11008TIP3    H132967   0.191   3.172   2.057
11008TIP3    H232968   0.217   3.308   1.994
11009TIP3   OH232969   4.806   3.341   6.412
11009TIP3    H132970   4.885   3.357   6.465
11009TIP3    H232971   4.785   3.249   6.428
11010TIP3   OH232972   2.058   0.974   6.352
11010TIP3    H132973   1.994   1.008   6.289
11010TIP3    H232974   2.032   1.013   6.435
11011TIP3   OH232975   3.377   5.128   1.714
11011TIP3    H132976   3.458   5.123   1.662
11011TIP3    H232977   3.390   5.065   1.785
11012TIP3   OH232978   0.383   3.524   4.401
11012TIP3    H132979   0.383   3.614   4.369
11012TIP3    H232980   0.457   3.519   4.461
11013TIP3   OH232981   1.780   6.174   0.259
11013TIP3    H132982   1.742   6.099   0.304
11013TIP3    H232983   1.714   6.242   0.264
11014TIP3   OH232984   0.235   4.366   4.747
11014TIP3    H132985   0.216   4.457   4.726
11014TIP3    H232986   0.292   4.337   4.675
11015TIP3   OH232987   1.686   5.491   1.552
11015TIP3    H132988   1.680   5.462   1.643
11015TIP3    H232989   1.610   5.548   1.540
11016TIP3   OH232990   1.618   3.840   5.793
11016TIP3    H132991   1.637   3.869   5.882
11016TIP3    H232992   1.690   3.782   5.771
11017TIP3   OH232993   1.053   0.120   5.672
11017TIP3    H132994   1.064   0.185   5.741
11017TIP3    H232995   1.138   0.078   5.663
11018TIP3   OH232996   2.735   1.547   6.646
11018TIP3    H132997   2.650   1.551   6.689
11018TIP3    H232998   2.715   1.531   6.554
11019TIP3   OH232999   6.200   4.767   3.886
11019TIP3    H133000   6.209   4.695   3.823
11019TIP3    H233001   6.290   4.789   3.910
11020TIP3   OH233002   3.220   6.115   4.550
11020TIP3    H133003   3.289   6.181   4.542
11020TIP3    H233004   3.263   6.032   4.530
11021TIP3   OH233005   7.950   0.813   6.671
11021TIP3    H133006   7.932   0.752   6.600
11021TIP3    H233007   8.021   0.772   6.720
11022TIP3   OH233008   8.313   7.628   4.408
11022TIP3    H133009   8.346   7.600   4.323
11022TIP3    H233010   8.218   7.613   4.402
11023TIP3   OH233011   2.057   3.797   0.570
11023TIP3    H133012   1.976   3.768   0.528
11023TIP3    H233013   2.070   3.886   0.538
11024TIP3   OH233014   3.313   7.332   3.220
11024TIP3    H133015   3.321   7.239   3.242
11024TIP3    H233016   3.396   7.371   3.248
11025TIP3   OH233017   3.449   0.974   2.277
11025TIP3    H133018   3.361   0.944   2.254
11025TIP3    H233019   3.447   0.981   2.373
11026TIP3   OH233020   6.241   2.727   6.110
11026TIP3    H133021   6.308   2.671   6.070
11026TIP3    H233022   6.158   2.692   6.078
11027TIP3   OH233023   1.856   5.191   1.531
11027TIP3    H133024   1.795   5.120   1.554
11027TIP3    H233025   1.811   5.240   1.463
11028TIP3   OH233026   7.339   0.949   3.646
11028TIP3    H133027   7.423   0.988   3.623
11028TIP3    H233028   7.281   1.023   3.662
11029TIP3   OH233029   1.145   5.132   4.141
11029TIP3    H133030   1.065   5.124   4.192
11029TIP3    H233031   1.178   5.042   4.135
11030TIP3   OH233032   8.180   6.997   5.095
11030TIP3    H133033   8.227   6.930   5.144
11030TIP3    H233034   8.099   7.012   5.144
11031TIP3   OH233035   5.356   5.853   6.105
11031TIP3    H133036   5.332   5.766   6.137
11031TIP3    H233037   5.276   5.886   6.063
11032TIP3   OH233038   5.590   2.520   3.537
11032TIP3    H133039   5.608   2.428   3.516
11032TIP3    H233040   5.676   2.560   3.544
11033TIP3   OH233041   2.293   0.364   5.482
11033TIP3    H133042   2.323   0.436   5.537
11033TIP3    H233043   2.370   0.340   5.430
11034TIP3   OH233044   2.593   0.515   1.396
11034TIP3    H133045   2.499   0.496   1.396
11034TIP3    H233046   2.597   0.611   1.390
11035TIP3   OH233047   4.299   4.728   5.405
11035TIP3    H133048   4.260   4.730   5.492
11035TIP3    H233049   4.382   4.682   5.417
11036TIP3   OH233050   8.157   4.608   5.152
11036TIP3    H133051   8.096   4.595   5.225
11036TIP3    H233052   8.115   4.564   5.078
11037TIP3   OH233053   4.238   4.371   3.778
11037TIP3    H133054   4.162   4.410   3.734
11037TIP3    H233055   4.234   4.405   3.867
11038TIP3   OH233056   6.332   5.435   1.159
11038TIP3    H133057   6.389   5.401   1.228
11038TIP3    H233058   6.381   5.421   1.078
11039TIP3   OH233059   3.650   2.486   0.606
11039TIP3    H133060   3.631   2.393   0.612
11039TIP3    H233061   3.698   2.495   0.524
11040TIP3   OH233062   4.436   6.659   2.302
11040TIP3    H133063   4.417   6.570   2.274
11040TIP3    H233064   4.441   6.710   2.221
11041TIP3   OH233065   1.158   2.919   2.358
11041TIP3    H133066   1.213   2.938   2.283
11041TIP3    H233067   1.131   3.005   2.391
11042TIP3   OH233068   7.534   6.968   4.824
11042TIP3    H133069   7.617   7.014   4.831
11042TIP3    H233070   7.469   7.038   4.815
11043TIP3   OH233071   0.258   7.188   4.621
11043TIP3    H133072   0.266   7.283   4.615
11043TIP3    H233073   0.348   7.158   4.637
11044TIP3   OH233074   7.950   2.137   6.648
11044TIP3    H133075   8.017   2.100   6.705
11044TIP3    H233076   7.900   2.061   6.618
11045TIP3   OH233077   6.696   4.785   4.554
11045TIP3    H133078   6.766   4.819   4.610
11045TIP3    H233079   6.616   4.823   4.590
11046TIP3   OH233080   7.236   5.255   0.667
11046TIP3    H133081   7.302   5.186   0.658
11046TIP3    H233082   7.286   5.332   0.695
11047TIP3   OH233083   4.904   3.858   5.741
11047TIP3    H133084   4.999   3.864   5.742
11047TIP3    H233085   4.874   3.949   5.745
11048TIP3   OH233086   6.061   1.811   2.018
11048TIP3    H133087   6.110   1.789   1.938
11048TIP3    H233088   5.970   1.798   1.994
11049TIP3   OH233089   2.033   6.388   4.934
11049TIP3    H133090   1.949   6.426   4.961
11049TIP3    H233091   2.088   6.392   5.012
11050TIP3   OH233092   4.860   3.395   1.656
11050TIP3    H133093   4.811   3.432   1.582
11050TIP3    H233094   4.792   3.371   1.720
11051TIP3   OH233095   5.942  -0.009   5.499
11051TIP3    H133096   6.009  -0.051   5.444
11051TIP3    H233097   5.991   0.034   5.568
11052TIP3   OH233098   4.771   3.447   5.915
11052TIP3    H133099   4.764   3.460   6.009
11052TIP3    H233100   4.814   3.527   5.882
11053TIP3   OH233101   1.998   3.340   0.489
11053TIP3    H133102   1.954   3.289   0.421
11053TIP3    H233103   2.059   3.278   0.528
11054TIP3   OH233104   4.544   0.323   6.363
11054TIP3    H133105   4.467   0.334   6.420
11054TIP3    H233106   4.598   0.399   6.380
11055TIP3   OH233107   3.216   1.541   0.432
11055TIP3    H133108   3.219   1.510   0.522
11055TIP3    H233109   3.211   1.462   0.379
11056TIP3   OH233110   3.073   5.124   1.652
11056TIP3    H133111   3.166   5.132   1.674
11056TIP3    H233112   3.028   5.178   1.716
11057TIP3   OH233113   6.995   6.710   1.612
11057TIP3    H133114   6.952   6.737   1.694
11057TIP3    H233115   7.069   6.656   1.640
11058TIP3   OH233116   7.382   6.028   5.654
11058TIP3    H133117   7.466   5.998   5.620
11058TIP3    H233118   7.404   6.095   5.718
11059TIP3   OH233119   3.881   6.435   1.630
11059TIP3    H133120   3.880   6.479   1.545
11059TIP3    H233121   3.945   6.484   1.682
11060TIP3   OH233122  -0.083   1.786   1.210
11060TIP3    H133123   0.007   1.770   1.181
11060TIP3    H233124  -0.102   1.875   1.182
11061TIP3   OH233125   7.442   4.980   2.872
11061TIP3    H133126   7.485   4.901   2.839
11061TIP3    H233127   7.364   4.948   2.917
11062TIP3   OH233128   7.802   6.376   2.050
11062TIP3    H133129   7.862   6.316   2.095
11062TIP3    H233130   7.719   6.330   2.047
11063TIP3   OH233131   3.481   4.181   2.745
11063TIP3    H133132   3.404   4.228   2.713
11063TIP3    H233133   3.469   4.177   2.840
11064TIP3   OH233134   2.388   5.932   2.689
11064TIP3    H133135   2.461   5.934   2.751
11064TIP3    H233136   2.413   5.866   2.625
11065TIP3   OH233137   5.415   1.829   2.779
11065TIP3    H133138   5.436   1.812   2.871
11065TIP3    H233139   5.335   1.780   2.763
11066TIP3   OH233140   6.998   7.173   2.868
11066TIP3    H133141   6.936   7.101   2.880
11066TIP3    H233142   7.079   7.130   2.841
11067TIP3   OH233143   4.024   4.360   4.841
11067TIP3    H133144   3.935   4.350   4.809
11067TIP3    H233145   4.023   4.445   4.887
11068TIP3   OH233146   3.273   5.845   5.978
11068TIP3    H133147   3.256   5.779   5.911
11068TIP3    H233148   3.304   5.922   5.929
11069TIP3   OH233149   1.516   5.630   2.740
11069TIP3    H133150   1.544   5.660   2.827
11069TIP3    H233151   1.544   5.538   2.738
11070TIP3   OH233152   6.374   4.250   2.576
11070TIP3    H133153   6.316   4.183   2.614
11070TIP3    H233154   6.392   4.309   2.649
11071TIP3   OH233155   4.422   6.910   3.845
11071TIP3    H133156   4.462   6.975   3.902
11071TIP3    H233157   4.411   6.833   3.900
11072TIP3   OH233158   4.529   1.640   3.905
11072TIP3    H133159   4.468   1.617   3.975
11072TIP3    H233160   4.476   1.639   3.825
11073TIP3   OH233161   2.566   4.285   2.485
11073TIP3    H133162   2.635   4.292   2.420
11073TIP3    H233163   2.523   4.370   2.484
11074TIP3   OH233164   0.860   0.984   2.301
11074TIP3    H133165   0.850   1.009   2.392
11074TIP3    H233166   0.924   1.045   2.265
11075TIP3   OH233167   1.321   6.464   1.150
11075TIP3    H133168   1.297   6.454   1.242
11075TIP3    H233169   1.350   6.555   1.141
11076TIP3   OH233170   5.869   4.228   3.302
11076TIP3    H133171   5.877   4.307   3.355
11076TIP3    H233172   5.895   4.256   3.214
11077TIP3   OH233173   2.573   0.695   5.062
11077TIP3    H133174   2.505   0.697   5.129
11077TIP3    H233175   2.530   0.658   4.985
11078TIP3   OH233176   6.021   7.349   5.331
11078TIP3    H133177   6.000   7.427   5.279
11078TIP3    H233178   6.109   7.364   5.364
11079TIP3   OH233179   0.918   1.760   6.006
11079TIP3    H133180   0.949   1.850   6.002
11079TIP3    H233181   0.995   1.709   6.033
11080TIP3   OH233182   1.260   3.997   4.659
11080TIP3    H133183   1.225   4.034   4.578
11080TIP3    H233184   1.355   3.999   4.647
11081TIP3   OH233185   5.564   0.222   0.134
11081TIP3    H133186   5.623   0.147   0.126
11081TIP3    H233187   5.523   0.229   0.048
11082TIP3   OH233188   5.452   5.726   6.381
11082TIP3    H133189   5.401   5.732   6.462
11082TIP3    H233190   5.480   5.634   6.378
11083TIP3   OH233191   6.998   3.660   6.538
11083TIP3    H133192   7.050   3.728   6.581
11083TIP3    H233193   6.948   3.706   6.471
11084TIP3   OH233194   2.878   2.785   5.128
11084TIP3    H133195   2.954   2.742   5.088
11084TIP3    H233196   2.803   2.732   5.099
11085TIP3   OH233197   2.558   2.968   6.269
11085TIP3    H133198   2.594   2.906   6.332
11085TIP3    H233199   2.588   3.053   6.300
11086TIP3   OH233200   4.074   0.584   2.803
11086TIP3    H133201   4.154   0.536   2.785
11086TIP3    H233202   4.086   0.669   2.759
11087TIP3   OH233203   4.963   3.319   2.956
11087TIP3    H133204   4.949   3.342   2.864
11087TIP3    H233205   5.052   3.349   2.975
11088TIP3   OH233206   6.894   4.827   2.214
11088TIP3    H133207   6.923   4.905   2.167
11088TIP3    H233208   6.834   4.784   2.154
11089TIP3   OH233209   2.356   4.947   3.821
11089TIP3    H133210   2.327   4.871   3.871
11089TIP3    H233211   2.416   4.912   3.756
11090TIP3   OH233212   8.060   5.764   0.174
11090TIP3    H133213   8.104   5.834   0.126
11090TIP3    H233214   8.044   5.800   0.261
11091TIP3   OH233215   0.610   6.673   1.019
11091TIP3    H133216   0.529   6.622   1.015
11091TIP3    H233217   0.624   6.689   1.112
11092TIP3   OH233218   6.131   3.706   0.639
11092TIP3    H133219   6.147   3.801   0.638
11092TIP3    H233220   6.046   3.695   0.598
11093TIP3   OH233221   7.621   7.581   2.894
11093TIP3    H133222   7.527   7.592   2.886
11093TIP3    H233223   7.658   7.637   2.826
11094TIP3   OH233224   1.240   5.261   0.738
11094TIP3    H133225   1.153   5.302   0.741
11094TIP3    H233226   1.295   5.324   0.691
11095TIP3   OH233227   3.992   7.278   4.059
11095TIP3    H133228   4.028   7.198   4.021
11095TIP3    H233229   3.908   7.290   4.015
11096TIP3   OH233230   7.464   7.459   6.238
11096TIP3    H133231   7.542   7.501   6.274
11096TIP3    H233232   7.422   7.527   6.184
11097TIP3   OH233233   7.675   1.377   2.787
11097TIP3    H133234   7.678   1.427   2.705
11097TIP3    H233235   7.748   1.410   2.838
11098TIP3   OH233236   2.120   6.870   3.626
11098TIP3    H133237   2.084   6.828   3.704
11098TIP3    H233238   2.050   6.928   3.596
11099TIP3   OH233239   8.182   4.224   4.276
11099TIP3    H133240   8.193   4.264   4.190
11099TIP3    H233241   8.256   4.162   4.284
11100TIP3   OH233242   4.273   3.366   3.485
11100TIP3    H133243   4.358   3.335   3.454
11100TIP3    H233244   4.286   3.383   3.579
11101TIP3   OH233245   5.381   0.006   2.178
11101TIP3    H133246   5.470  -0.027   2.191
11101TIP3    H233247   5.336  -0.066   2.134
11102TIP3   OH233248   4.032   2.473   3.462
11102TIP3    H133249   4.078   2.416   3.523
11102TIP3    H233250   4.023   2.556   3.509
11103TIP3   OH233251   2.761   1.466   0.730
11103TIP3    H133252   2.715   1.519   0.795
11103TIP3    H233253   2.841   1.515   0.711
11104TIP3   OH233254   1.997   6.755   3.840
11104TIP3    H133255   2.055   6.754   3.917
11104TIP3    H233256   1.911   6.729   3.875
11105TIP3   OH233257   6.165   3.485   3.858
11105TIP3    H133258   6.260   3.472   3.865
11105TIP3    H233259   6.153   3.527   3.772
11106TIP3   OH233260   3.162   1.424   3.760
11106TIP3    H133261   3.224   1.390   3.696
11106TIP3    H233262   3.122   1.346   3.799
11107TIP3   OH233263   1.693   1.041   5.373
11107TIP3    H133264   1.650   0.972   5.423
11107TIP3    H233265   1.705   1.003   5.286
11108TIP3   OH233266   7.813   6.285   1.333
11108TIP3    H133267   7.840   6.349   1.398
11108TIP3    H233268   7.893   6.263   1.285
11109TIP3   OH233269   3.978   5.277   1.676
11109TIP3    H133270   4.000   5.238   1.592
11109TIP3    H233271   3.883   5.266   1.684
11110TIP3   OH233272   2.073   3.947   5.778
11110TIP3    H133273   2.150   4.003   5.766
11110TIP3    H233274   2.013   4.001   5.829
11111TIP3   OH233275   2.041   0.433   0.470
11111TIP3    H133276   1.996   0.445   0.554
11111TIP3    H233277   2.117   0.380   0.491
11112TIP3   OH233278   7.704   5.891   1.942
11112TIP3    H133279   7.685   5.885   1.848
11112TIP3    H233280   7.644   5.958   1.974
11113TIP3   OH233281   7.222   1.229   3.695
11113TIP3    H133282   7.213   1.288   3.620
11113TIP3    H233283   7.305   1.255   3.736
11114TIP3   OH233284   4.640   0.892   2.694
11114TIP3    H133285   4.577   0.926   2.757
11114TIP3    H233286   4.715   0.951   2.702
11115TIP3   OH233287   4.195   1.225   1.042
11115TIP3    H133288   4.170   1.147   1.090
11115TIP3    H233289   4.276   1.200   0.997
11116TIP3   OH233290   6.555   2.173   5.360
11116TIP3    H133291   6.634   2.190   5.308
11116TIP3    H233292   6.503   2.114   5.306
11117TIP3   OH233293   5.874   7.694   5.961
11117TIP3    H133294   5.838   7.608   5.940
11117TIP3    H233295   5.924   7.680   6.041
11118TIP3   OH233296   2.680   1.826   2.489
11118TIP3    H133297   2.647   1.770   2.559
11118TIP3    H233298   2.676   1.915   2.525
11119TIP3   OH233299   7.658   6.010   5.297
11119TIP3    H133300   7.634   6.085   5.351
11119TIP3    H233301   7.663   5.937   5.359
11120TIP3   OH233302   1.028   1.518   3.202
11120TIP3    H133303   1.072   1.462   3.266
11120TIP3    H233304   0.950   1.469   3.177
11121TIP3   OH233305   6.155   5.678   1.797
11121TIP3    H133306   6.186   5.672   1.887
11121TIP3    H233307   6.231   5.656   1.743
11122TIP3   OH233308   0.787   7.343   4.312
11122TIP3    H133309   0.832   7.363   4.230
11122TIP3    H233310   0.791   7.425   4.362
11123TIP3   OH233311   4.966   1.101   1.981
11123TIP3    H133312   4.879   1.117   1.944
11123TIP3    H233313   5.023   1.093   1.905
11124TIP3   OH233314   6.606   3.763   1.615
11124TIP3    H133315   6.641   3.787   1.701
11124TIP3    H233316   6.561   3.681   1.630
11125TIP3   OH233317   4.544   4.902   1.765
11125TIP3    H133318   4.550   4.946   1.680
11125TIP3    H233319   4.487   4.959   1.817
11126TIP3   OH233320   6.278   5.889   6.001
11126TIP3    H133321   6.347   5.938   6.045
11126TIP3    H233322   6.244   5.829   6.068
11127TIP3   OH233323   1.536   0.792   1.283
11127TIP3    H133324   1.501   0.743   1.209
11127TIP3    H233325   1.557   0.726   1.349
11128TIP3   OH233326   7.627   1.492   0.160
11128TIP3    H133327   7.645   1.567   0.216
11128TIP3    H233328   7.618   1.418   0.220
11129TIP3   OH233329   3.610   1.095   3.758
11129TIP3    H133330   3.656   1.061   3.835
11129TIP3    H233331   3.638   1.187   3.753
11130TIP3   OH233332   3.232   0.826   2.591
11130TIP3    H133333   3.276   0.908   2.568
11130TIP3    H233334   3.299   0.777   2.640
11131TIP3   OH233335   4.662   7.557   0.828
11131TIP3    H133336   4.654   7.652   0.835
11131TIP3    H233337   4.730   7.533   0.890
11132TIP3   OH233338   1.384   1.838   2.724
11132TIP3    H133339   1.315   1.797   2.671
11132TIP3    H233340   1.455   1.855   2.661
11133TIP3   OH233341   8.175   0.525   1.223
11133TIP3    H133342   8.261   0.530   1.181
11133TIP3    H233343   8.119   0.486   1.156
11134TIP3   OH233344   4.787   1.692   0.578
11134TIP3    H133345   4.805   1.628   0.646
11134TIP3    H233346   4.710   1.739   0.608
11135TIP3   OH233347   4.082   6.755   4.365
11135TIP3    H133348   3.993   6.762   4.333
11135TIP3    H233349   4.113   6.846   4.372
11136TIP3   OH233350   2.371   5.631   2.601
11136TIP3    H133351   2.292   5.577   2.593
11136TIP3    H233352   2.431   5.578   2.654
11137TIP3   OH233353   1.303   5.315   4.254
11137TIP3    H133354   1.236   5.288   4.192
11137TIP3    H233355   1.384   5.318   4.202
11138TIP3   OH233356   5.465   4.000   3.826
11138TIP3    H133357   5.432   4.073   3.773
11138TIP3    H233358   5.476   4.036   3.913
11139TIP3   OH233359   0.910   0.197   2.649
11139TIP3    H133360   0.869   0.153   2.575
11139TIP3    H233361   1.003   0.203   2.625
11140TIP3   OH233362   7.149   1.031   0.735
11140TIP3    H133363   7.191   1.066   0.656
11140TIP3    H233364   7.140   1.106   0.793
11141TIP3   OH233365   1.085   3.873   3.799
11141TIP3    H133366   1.008   3.921   3.828
11141TIP3    H233367   1.117   3.923   3.724
11142TIP3   OH233368   5.193   2.433   6.419
11142TIP3    H133369   5.170   2.386   6.499
11142TIP3    H233370   5.110   2.445   6.373
11143TIP3   OH233371   5.817   3.135   1.814
11143TIP3    H133372   5.754   3.151   1.885
11143TIP3    H233373   5.874   3.066   1.849
11144TIP3   OH233374   6.420   7.633   3.279
11144TIP3    H133375   6.350   7.694   3.257
11144TIP3    H233376   6.378   7.547   3.279
11145TIP3   OH233377   7.205   3.845   3.564
11145TIP3    H133378   7.182   3.866   3.655
11145TIP3    H233379   7.175   3.921   3.514
11146TIP3   OH233380   5.055   7.534   4.546
11146TIP3    H133381   5.109   7.555   4.470
11146TIP3    H233382   5.061   7.612   4.601
11147TIP3   OH233383   4.634   3.647   4.939
11147TIP3    H133384   4.560   3.651   4.999
11147TIP3    H233385   4.596   3.615   4.857
11148TIP3   OH233386   1.345   2.964   2.140
11148TIP3    H133387   1.377   2.887   2.094
11148TIP3    H233388   1.285   3.006   2.078
11149TIP3   OH233389   0.788   2.412   4.216
11149TIP3    H133390   0.778   2.375   4.128
11149TIP3    H233391   0.845   2.350   4.261
11150TIP3   OH233392   1.901   7.339   6.068
11150TIP3    H133393   1.991   7.350   6.099
11150TIP3    H233394   1.846   7.361   6.144
11151TIP3   OH233395   6.589   6.787   2.670
11151TIP3    H133396   6.642   6.761   2.745
11151TIP3    H233397   6.645   6.848   2.621
11152TIP3   OH233398   8.191   0.881   5.297
11152TIP3    H133399   8.277   0.925   5.297
11152TIP3    H233400   8.128   0.953   5.293
11153TIP3   OH233401   7.370   0.661   3.021
11153TIP3    H133402   7.347   0.727   2.955
11153TIP3    H233403   7.311   0.679   3.094
11154TIP3   OH233404   7.181   6.012   3.668
11154TIP3    H133405   7.110   5.977   3.722
11154TIP3    H233406   7.259   6.005   3.723
11155TIP3   OH233407   7.736   3.251   3.849
11155TIP3    H133408   7.718   3.160   3.824
11155TIP3    H233409   7.695   3.303   3.780
11156TIP3   OH233410   0.115   0.607   5.953
11156TIP3    H133411   0.096   0.513   5.961
11156TIP3    H233412   0.183   0.623   6.018
11157TIP3   OH233413   4.470   0.190   1.013
11157TIP3    H133414   4.379   0.174   0.988
11157TIP3    H233415   4.500   0.107   1.050
11158TIP3   OH233416   0.745   4.406   1.326
11158TIP3    H133417   0.824   4.359   1.354
11158TIP3    H233418   0.675   4.366   1.377
11159TIP3   OH233419   3.103   5.894   3.776
11159TIP3    H133420   3.018   5.930   3.800
11159TIP3    H233421   3.142   5.866   3.858
11160TIP3   OH233422   0.099   1.022   3.054
11160TIP3    H133423   0.021   0.996   3.005
11160TIP3    H233424   0.126   0.942   3.100
11161TIP3   OH233425   7.081   0.795   1.620
11161TIP3    H133426   7.137   0.720   1.639
11161TIP3    H233427   7.126   0.870   1.660
11162TIP3   OH233428   7.217   5.491   1.058
11162TIP3    H133429   7.204   5.407   1.103
11162TIP3    H233430   7.274   5.541   1.117
11163TIP3   OH233431   7.253   0.956   2.412
11163TIP3    H133432   7.204   1.036   2.390
11163TIP3    H233433   7.337   0.967   2.367
11164TIP3   OH233434   3.315   5.264   2.484
11164TIP3    H133435   3.352   5.197   2.427
11164TIP3    H233436   3.244   5.220   2.530
11165TIP3   OH233437   0.916   2.294   6.288
11165TIP3    H133438   0.913   2.380   6.330
11165TIP3    H233439   0.908   2.232   6.361
11166TIP3   OH233440   1.697   5.214   4.412
11166TIP3    H133441   1.729   5.258   4.491
11166TIP3    H233442   1.735   5.126   4.415
11167TIP3   OH233443   2.797   3.685   1.801
11167TIP3    H133444   2.740   3.762   1.804
11167TIP3    H233445   2.824   3.671   1.892
11168TIP3   OH233446   0.604   6.727   6.260
11168TIP3    H133447   0.534   6.662   6.264
11168TIP3    H233448   0.685   6.675   6.270
11169TIP3   OH233449   0.107   5.183   4.518
11169TIP3    H133450   0.065   5.206   4.435
11169TIP3    H233451   0.035   5.155   4.574
11170TIP3   OH233452   5.334   6.292   4.198
11170TIP3    H133453   5.417   6.250   4.174
11170TIP3    H233454   5.293   6.314   4.114
11171TIP3   OH233455   5.671   0.970   1.031
11171TIP3    H133456   5.668   0.936   0.941
11171TIP3    H233457   5.685   1.064   1.020
11172TIP3   OH233458   6.333   5.927   4.369
11172TIP3    H133459   6.292   5.868   4.306
11172TIP3    H233460   6.382   5.870   4.428
11173TIP3   OH233461   3.709   7.349   3.943
11173TIP3    H133462   3.726   7.441   3.965
11173TIP3    H233463   3.632   7.326   3.995
11174TIP3   OH233464   5.485   7.642   5.157
11174TIP3    H133465   5.418   7.650   5.224
11174TIP3    H233466   5.519   7.730   5.146
11175TIP3   OH233467   3.192   3.701   5.952
11175TIP3    H133468   3.192   3.671   5.861
11175TIP3    H233469   3.154   3.628   6.001
11176TIP3   OH233470   7.411   4.847   0.422
11176TIP3    H133471   7.470   4.830   0.349
11176TIP3    H233472   7.335   4.890   0.382
11177TIP3   OH233473   3.536   4.085   1.936
11177TIP3    H133474   3.610   4.110   1.992
11177TIP3    H233475   3.464   4.069   1.996
11178TIP3   OH233476   4.225   3.835   4.216
11178TIP3    H133477   4.182   3.844   4.131
11178TIP3    H233478   4.258   3.745   4.218
11179TIP3   OH233479   0.218   5.279   2.573
11179TIP3    H133480   0.143   5.338   2.575
11179TIP3    H233481   0.293   5.336   2.558
11180TIP3   OH233482   7.742   4.357   1.535
11180TIP3    H133483   7.813   4.400   1.488
11180TIP3    H233484   7.722   4.279   1.483
11181TIP3   OH233485   2.305   4.053   5.214
11181TIP3    H133486   2.212   4.046   5.193
11181TIP3    H233487   2.325   4.146   5.201
11182TIP3   OH233488   4.447   6.851   6.072
11182TIP3    H133489   4.394   6.922   6.035
11182TIP3    H233490   4.537   6.876   6.053
11183TIP3   OH233491   1.339   0.502   5.123
11183TIP3    H133492   1.379   0.589   5.132
11183TIP3    H233493   1.402   0.442   5.162
11184TIP3   OH233494   4.883   0.416   0.651
11184TIP3    H133495   4.929   0.360   0.588
11184TIP3    H233496   4.867   0.497   0.604
11185TIP3   OH233497   2.437   4.692   5.008
11185TIP3    H133498   2.350   4.720   4.980
11185TIP3    H233499   2.479   4.659   4.929
11186TIP3   OH233500   3.557   4.679   4.759
11186TIP3    H133501   3.652   4.675   4.744
11186TIP3    H233502   3.546   4.658   4.851
11187TIP3   OH233503   3.392   2.437   2.541
11187TIP3    H133504   3.374   2.482   2.623
11187TIP3    H233505   3.416   2.348   2.567
11188TIP3   OH233506   4.495   4.941   3.260
11188TIP3    H133507   4.502   4.865   3.318
11188TIP3    H233508   4.512   5.016   3.318
11189TIP3   OH233509   6.411   6.139   6.147
11189TIP3    H133510   6.375   6.082   6.215
11189TIP3    H233511   6.351   6.214   6.145
11190TIP3   OH233512   1.646   2.732   5.249
11190TIP3    H133513   1.683   2.645   5.237
11190TIP3    H233514   1.705   2.791   5.203
11191TIP3   OH233515   4.332   4.307   2.385
11191TIP3    H133516   4.371   4.393   2.368
11191TIP3    H233517   4.249   4.308   2.337
11192TIP3   OH233518   2.967   4.661   6.103
11192TIP3    H133519   3.031   4.681   6.034
11192TIP3    H233520   3.020   4.636   6.178
11193TIP3   OH233521   2.254   6.144   2.486
11193TIP3    H133522   2.319   6.073   2.483
11193TIP3    H233523   2.191   6.116   2.552
11194TIP3   OH233524   0.621   3.282   3.813
11194TIP3    H133525   0.537   3.284   3.857
11194TIP3    H233526   0.676   3.343   3.863
11195TIP3   OH233527   0.498   4.961   1.421
11195TIP3    H133528   0.404   4.947   1.427
11195TIP3    H233529   0.513   5.044   1.465
11196TIP3   OH233530   6.709   6.013   4.484
11196TIP3    H133531   6.706   5.922   4.454
11196TIP3    H233532   6.648   6.059   4.426
11197TIP3   OH233533   7.963   2.980   3.646
11197TIP3    H133534   7.963   3.072   3.621
11197TIP3    H233535   7.881   2.969   3.695
11198TIP3   OH233536   6.325   3.755   3.196
11198TIP3    H133537   6.256   3.819   3.217
11198TIP3    H233538   6.309   3.682   3.256
11199TIP3   OH233539   0.666   1.257   5.445
11199TIP3    H133540   0.656   1.268   5.539
11199TIP3    H233541   0.651   1.344   5.409
11200TIP3   OH233542   6.078   0.421   1.302
11200TIP3    H133543   6.082   0.329   1.277
11200TIP3    H233544   6.035   0.420   1.388
11201TIP3   OH233545   2.802   3.934   5.527
11201TIP3    H133546   2.890   3.951   5.493
11201TIP3    H233547   2.754   4.015   5.510
11202TIP3   OH233548   2.925   6.224   3.923
11202TIP3    H133549   2.928   6.192   4.013
11202TIP3    H233550   2.845   6.184   3.887
11203TIP3   OH233551   5.938   3.409   1.148
11203TIP3    H133552   5.943   3.313   1.142
11203TIP3    H233553   5.938   3.438   1.057
11204TIP3   OH233554   0.296   6.626   5.577
11204TIP3    H133555   0.240   6.658   5.648
11204TIP3    H233556   0.315   6.703   5.525
11205TIP3   OH233557   4.831   1.665   0.025
11205TIP3    H133558   4.803   1.612  -0.050
11205TIP3    H233559   4.812   1.611   0.101
11206TIP3   OH233560   1.197   7.299   4.110
11206TIP3    H133561   1.179   7.297   4.016
11206TIP3    H233562   1.194   7.207   4.138
11207TIP3   OH233563   0.903   4.504   6.217
11207TIP3    H133564   0.881   4.485   6.308
11207TIP3    H233565   0.819   4.495   6.171
11208TIP3   OH233566   4.042   1.497   6.615
11208TIP3    H133567   4.135   1.491   6.593
11208TIP3    H233568   4.040   1.538   6.701
11209TIP3   OH233569   2.957   2.778   2.853
11209TIP3    H133570   3.007   2.856   2.832
11209TIP3    H233571   2.933   2.740   2.769
11210TIP3   OH233572   3.985   1.935   2.288
11210TIP3    H133573   4.075   1.958   2.311
11210TIP3    H233574   3.992   1.853   2.240
11211TIP3   OH233575   1.880   4.414   1.281
11211TIP3    H133576   1.801   4.415   1.227
11211TIP3    H233577   1.924   4.332   1.257
11212TIP3   OH233578   4.913   6.113   0.936
11212TIP3    H133579   4.818   6.101   0.928
11212TIP3    H233580   4.925   6.208   0.930
11213TIP3   OH233581   0.734   5.448   4.236
11213TIP3    H133582   0.653   5.427   4.283
11213TIP3    H233583   0.719   5.536   4.202
11214TIP3   OH233584   6.586   6.657   5.329
11214TIP3    H133585   6.548   6.570   5.340
11214TIP3    H233586   6.675   6.649   5.364
11215TIP3   OH233587   0.835   0.242   1.484
11215TIP3    H133588   0.795   0.328   1.477
11215TIP3    H233589   0.761   0.181   1.488
11216TIP3   OH233590   3.471   7.682   3.225
11216TIP3    H133591   3.486   7.777   3.227
11216TIP3    H233592   3.430   7.666   3.140
11217TIP3   OH233593   7.136   1.897   4.961
11217TIP3    H133594   7.042   1.899   4.944
11217TIP3    H233595   7.146   1.836   5.035
11218TIP3   OH233596   2.654   0.530   2.198
11218TIP3    H133597   2.741   0.568   2.208
11218TIP3    H233598   2.649   0.503   2.106
11219TIP3   OH233599   4.311   3.478   5.194
11219TIP3    H133600   4.242   3.421   5.158
11219TIP3    H233601   4.386   3.420   5.205
11220TIP3   OH233602   4.515   3.310   5.169
11220TIP3    H133603   4.599   3.320   5.213
11220TIP3    H233604   4.536   3.270   5.085
11221TIP3   OH233605   3.749   3.081   5.848
11221TIP3    H133606   3.695   3.046   5.919
11221TIP3    H233607   3.736   3.176   5.852
11222TIP3   OH233608   2.367   2.876   5.076
11222TIP3    H133609   2.459   2.903   5.075
11222TIP3    H233610   2.363   2.802   5.016
11223TIP3   OH233611   2.483   6.819  -0.034
11223TIP3    H133612   2.467   6.844  -0.125
11223TIP3    H233613   2.483   6.902   0.014
11224TIP3   OH233614   5.316   1.070   6.293
11224TIP3    H133615   5.386   1.007   6.273
11224TIP3    H233616   5.356   1.128   6.358
11225TIP3   OH233617   6.499   7.124   1.465
11225TIP3    H133618   6.430   7.112   1.400
11225TIP3    H233619   6.540   7.207   1.443
11226TIP3   OH233620   2.250   7.587   3.831
11226TIP3    H133621   2.317   7.557   3.769
11226TIP3    H233622   2.227   7.508   3.880
11227TIP3   OH233623   3.518   5.648   2.692
11227TIP3    H133624   3.584   5.611   2.634
11227TIP3    H233625   3.561   5.653   2.777
11228TIP3   OH233626   8.124   1.907   2.621
11228TIP3    H133627   8.057   1.975   2.626
11228TIP3    H233628   8.151   1.906   2.530
11229TIP3   OH233629   2.781   7.729   4.410
11229TIP3    H133630   2.751   7.649   4.366
11229TIP3    H233631   2.731   7.799   4.368
11230TIP3   OH233632   4.747   7.444   3.044
11230TIP3    H133633   4.681   7.378   3.026
11230TIP3    H233634   4.800   7.448   2.965
11231TIP3   OH233635   5.518   7.194   2.731
11231TIP3    H133636   5.431   7.218   2.701
11231TIP3    H233637   5.575   7.212   2.655
11232TIP3   OH233638   8.171   6.807   6.660
11232TIP3    H133639   8.121   6.728   6.639
11232TIP3    H233640   8.104   6.871   6.685
11233TIP3   OH233641   2.422   2.171   4.355
11233TIP3    H133642   2.489   2.102   4.353
11233TIP3    H233643   2.339   2.123   4.348
11234TIP3   OH233644   7.551   6.603   0.060
11234TIP3    H133645   7.632   6.585   0.012
11234TIP3    H233646   7.563   6.557   0.144
11235TIP3   OH233647   0.693   6.995   4.033
11235TIP3    H133648   0.786   7.005   4.056
11235TIP3    H233649   0.695   6.947   3.950
11236TIP3   OH233650   3.246   3.163   2.483
11236TIP3    H133651   3.194   3.137   2.407
11236TIP3    H233652   3.288   3.081   2.512
11237TIP3   OH233653   3.776   6.409   3.346
11237TIP3    H133654   3.772   6.446   3.435
11237TIP3    H233655   3.700   6.351   3.342
11238TIP3   OH233656   2.522   0.175   2.035
11238TIP3    H133657   2.575   0.152   2.110
11238TIP3    H233658   2.584   0.187   1.963
11239TIP3   OH233659   3.662   5.779   1.305
11239TIP3    H133660   3.678   5.689   1.335
11239TIP3    H233661   3.714   5.786   1.224
11240TIP3   OH233662   4.277   1.711   0.610
11240TIP3    H133663   4.297   1.712   0.704
11240TIP3    H233664   4.329   1.783   0.574
11241TIP3   OH233665   7.249   1.860   2.800
11241TIP3    H133666   7.209   1.867   2.713
11241TIP3    H233667   7.283   1.771   2.803
11242TIP3   OH233668   7.995   7.236   1.139
11242TIP3    H133669   7.936   7.181   1.088
11242TIP3    H233670   7.980   7.211   1.230
11243TIP3   OH233671   2.502   2.121   5.935
11243TIP3    H133672   2.506   2.030   5.965
11243TIP3    H233673   2.519   2.115   5.841
11244TIP3   OH233674   7.383   7.040   1.192
11244TIP3    H133675   7.404   7.085   1.274
11244TIP3    H233676   7.378   6.947   1.215
11245TIP3   OH233677   5.492   6.505   6.071
11245TIP3    H133678   5.467   6.490   6.162
11245TIP3    H233679   5.536   6.590   6.072
11246TIP3   OH233680   5.841   2.637   3.624
11246TIP3    H133681   5.895   2.716   3.627
11246TIP3    H233682   5.889   2.575   3.680
11247TIP3   OH233683   3.077   7.465   1.192
11247TIP3    H133684   3.047   7.389   1.142
11247TIP3    H233685   3.166   7.442   1.220
11248TIP3   OH233686   2.664   5.609   4.050
11248TIP3    H133687   2.569   5.612   4.034
11248TIP3    H233688   2.675   5.543   4.118
11249TIP3   OH233689   4.067   2.816   3.385
11249TIP3    H133690   4.041   2.778   3.469
11249TIP3    H233691   4.074   2.910   3.401
11250TIP3   OH233692   2.993   6.250   6.276
11250TIP3    H133693   2.902   6.234   6.249
11250TIP3    H233694   3.031   6.162   6.281
11251TIP3   OH233695   3.803   6.845   5.188
11251TIP3    H133696   3.831   6.759   5.158
11251TIP3    H233697   3.806   6.900   5.110
11252TIP3   OH233698   5.495   3.478   0.067
11252TIP3    H133699   5.489   3.435   0.153
11252TIP3    H233700   5.565   3.542   0.077
11253TIP3   OH233701   5.486   2.865   0.315
11253TIP3    H133702   5.495   2.812   0.236
11253TIP3    H233703   5.571   2.857   0.358
11254TIP3   OH233704   2.475   3.043   1.175
11254TIP3    H133705   2.464   3.122   1.121
11254TIP3    H233706   2.409   2.982   1.141
11255TIP3   OH233707   6.649   6.408   4.836
11255TIP3    H133708   6.663   6.465   4.761
11255TIP3    H233709   6.706   6.443   4.904
11256TIP3   OH233710   4.260   2.908   2.788
11256TIP3    H133711   4.304   2.942   2.710
11256TIP3    H233712   4.279   2.973   2.856
11257TIP3   OH233713   0.248   7.593   1.246
11257TIP3    H133714   0.174   7.616   1.190
11257TIP3    H233715   0.289   7.519   1.202
11258TIP3   OH233716   3.313   4.237   1.839
11258TIP3    H133717   3.325   4.244   1.934
11258TIP3    H233718   3.382   4.178   1.810
11259TIP3   OH233719   0.355   4.155   3.286
11259TIP3    H133720   0.260   4.143   3.292
11259TIP3    H233721   0.377   4.135   3.195
11260TIP3   OH233722   8.057   4.644   5.608
11260TIP3    H133723   8.036   4.643   5.701
11260TIP3    H233724   8.084   4.734   5.590
11261TIP3   OH233725   7.365   6.370   5.318
11261TIP3    H133726   7.395   6.371   5.227
11261TIP3    H233727   7.327   6.457   5.331
11262TIP3   OH233728   1.284   2.266   5.936
11262TIP3    H133729   1.273   2.286   6.029
11262TIP3    H233730   1.223   2.325   5.891
11263TIP3   OH233731   7.388   7.568   5.752
11263TIP3    H133732   7.438   7.509   5.808
11263TIP3    H233733   7.442   7.647   5.745
11264TIP3   OH233734   5.865   3.148   3.120
11264TIP3    H133735   5.861   3.066   3.070
11264TIP3    H233736   5.882   3.215   3.053
11265TIP3   OH233737   5.748   6.913   0.587
11265TIP3    H133738   5.793   6.996   0.593
11265TIP3    H233739   5.736   6.885   0.678
11266TIP3   OH233740   0.248   0.941   3.601
11266TIP3    H133741   0.173   0.941   3.542
11266TIP3    H233742   0.210   0.938   3.688
11267TIP3   OH233743   6.096   0.739   0.457
11267TIP3    H133744   6.057   0.652   0.461
11267TIP3    H233745   6.107   0.756   0.363
11268TIP3   OH233746   6.894   2.947   5.216
11268TIP3    H133747   6.828   2.909   5.159
11268TIP3    H233748   6.961   2.880   5.224
11269TIP3   OH233749   7.084   5.182   6.005
11269TIP3    H133750   7.031   5.107   6.033
11269TIP3    H233751   7.020   5.245   5.972
11270TIP3   OH233752   4.983   0.309   6.557
11270TIP3    H133753   5.001   0.232   6.611
11270TIP3    H233754   4.909   0.282   6.502
11271TIP3   OH233755   5.931   2.341   5.657
11271TIP3    H133756   5.916   2.394   5.579
11271TIP3    H233757   5.907   2.399   5.730
11272TIP3   OH233758   6.247   2.198   0.788
11272TIP3    H133759   6.225   2.108   0.768
11272TIP3    H233760   6.163   2.240   0.807
11273TIP3   OH233761   7.732   0.602   1.669
11273TIP3    H133762   7.760   0.530   1.612
11273TIP3    H233763   7.722   0.677   1.609
11274TIP3   OH233764   5.981   3.484   4.838
11274TIP3    H133765   5.981   3.551   4.770
11274TIP3    H233766   6.069   3.445   4.834
11275TIP3   OH233767   5.700   7.401   3.986
11275TIP3    H133768   5.679   7.395   4.079
11275TIP3    H233769   5.694   7.494   3.966
11276TIP3   OH233770   2.342   6.608   0.132
11276TIP3    H133771   2.391   6.680   0.093
11276TIP3    H233772   2.287   6.649   0.198
11277TIP3   OH233773   0.651   1.161   1.527
11277TIP3    H133774   0.695   1.142   1.609
11277TIP3    H233775   0.692   1.103   1.463
11278TIP3   OH233776   7.718   3.256   0.898
11278TIP3    H133777   7.661   3.264   0.974
11278TIP3    H233778   7.768   3.337   0.897
11279TIP3   OH233779   3.976   5.939   2.834
11279TIP3    H133780   3.956   6.020   2.882
11279TIP3    H233781   3.912   5.937   2.763
11280TIP3   OH233782   2.595   4.675   3.242
11280TIP3    H133783   2.512   4.696   3.285
11280TIP3    H233784   2.571   4.649   3.154
11281TIP3   OH233785   1.709   2.609   2.479
11281TIP3    H133786   1.700   2.584   2.388
11281TIP3    H233787   1.800   2.589   2.501
11282TIP3   OH233788   1.183   7.138   5.319
11282TIP3    H133789   1.149   7.160   5.232
11282TIP3    H233790   1.204   7.223   5.358
11283TIP3   OH233791   2.741   6.523   0.386
11283TIP3    H133792   2.651   6.532   0.417
11283TIP3    H233793   2.773   6.613   0.380
11284TIP3   OH233794   2.495   7.010   4.907
11284TIP3    H133795   2.469   6.965   4.827
11284TIP3    H233796   2.423   6.993   4.968
11285TIP3   OH233797   2.616   1.220   0.725
11285TIP3    H133798   2.588   1.229   0.634
11285TIP3    H233799   2.679   1.291   0.737
11286TIP3   OH233800   4.102   5.926   0.579
11286TIP3    H133801   4.027   5.981   0.555
11286TIP3    H233802   4.091   5.908   0.672
11287TIP3   OH233803   6.656   2.891   4.228
11287TIP3    H133804   6.565   2.911   4.248
11287TIP3    H233805   6.668   2.922   4.137
11288TIP3   OH233806   1.307   4.913   4.179
11288TIP3    H133807   1.284   4.821   4.190
11288TIP3    H233808   1.383   4.926   4.235
11289TIP3   OH233809   0.187   4.162   6.243
11289TIP3    H133810   0.208   4.152   6.335
11289TIP3    H233811   0.270   4.187   6.202
11290TIP3   OH233812   0.253   0.415   0.418
11290TIP3    H133813   0.298   0.339   0.456
11290TIP3    H233814   0.234   0.471   0.492
11291TIP3   OH233815   6.315   3.382   5.980
11291TIP3    H133816   6.380   3.317   6.005
11291TIP3    H233817   6.356   3.432   5.909
11292TIP3   OH233818   0.977   1.399   4.302
11292TIP3    H133819   1.023   1.363   4.378
11292TIP3    H233820   0.907   1.452   4.339
11293TIP3   OH233821   5.233   0.805   1.135
11293TIP3    H133822   5.158   0.763   1.177
11293TIP3    H233823   5.254   0.748   1.061
11294TIP3   OH233824   4.486   5.699   2.198
11294TIP3    H133825   4.471   5.699   2.103
11294TIP3    H233826   4.458   5.787   2.226
11295TIP3   OH233827   4.829   6.849   1.487
11295TIP3    H133828   4.887   6.915   1.451
11295TIP3    H233829   4.750   6.897   1.513
11296TIP3   OH233830   5.421   2.239   4.728
11296TIP3    H133831   5.365   2.203   4.659
11296TIP3    H233832   5.493   2.177   4.735
11297TIP3   OH233833   3.553   6.041   1.318
11297TIP3    H133834   3.603   5.961   1.333
11297TIP3    H233835   3.556   6.054   1.223
11298TIP3   OH233836   3.080   0.552   1.511
11298TIP3    H133837   3.102   0.459   1.517
11298TIP3    H233838   3.143   0.596   1.568
11299TIP3   OH233839   2.861   4.266  -0.038
11299TIP3    H133840   2.950   4.236  -0.056
11299TIP3    H233841   2.869   4.314   0.044
11300TIP3   OH233842   3.808   3.884   0.134
11300TIP3    H133843   3.843   3.973   0.139
11300TIP3    H233844   3.885   3.828   0.138
11301TIP3   OH233845   6.813   7.617   2.417
11301TIP3    H133846   6.844   7.528   2.430
11301TIP3    H233847   6.722   7.607   2.387
11302TIP3   OH233848   3.866   7.169   0.757
11302TIP3    H133849   3.773   7.158   0.775
11302TIP3    H233850   3.868   7.209   0.670
11303TIP3   OH233851   1.797   6.647   0.661
11303TIP3    H133852   1.798   6.556   0.632
11303TIP3    H233853   1.888   6.667   0.684
11304TIP3   OH233854   3.174   3.343   3.105
11304TIP3    H133855   3.170   3.301   3.191
11304TIP3    H233856   3.248   3.301   3.061
11305TIP3   OH233857   5.406   2.533   2.395
11305TIP3    H133858   5.442   2.554   2.481
11305TIP3    H233859   5.375   2.443   2.402
11306TIP3   OH233860   1.976   3.478   2.498
11306TIP3    H133861   2.049   3.434   2.453
11306TIP3    H233862   1.996   3.572   2.488
11307TIP3   OH233863   4.020   6.234   2.629
11307TIP3    H133864   4.007   6.308   2.689
11307TIP3    H233865   3.934   6.192   2.625
11308TIP3   OH233866   0.849   3.713   5.877
11308TIP3    H133867   0.887   3.713   5.789
11308TIP3    H233868   0.755   3.699   5.863
11309TIP3   OH233869   6.993   5.530   2.177
11309TIP3    H133870   7.056   5.470   2.136
11309TIP3    H233871   7.045   5.605   2.205
11310TIP3   OH233872   6.570   3.037   2.548
11310TIP3    H133873   6.483   3.004   2.574
11310TIP3    H233874   6.567   3.038   2.452
11311TIP3   OH233875   3.817   5.883   3.326
11311TIP3    H133876   3.875   5.956   3.346
11311TIP3    H233877   3.733   5.924   3.306
11312TIP3   OH233878   6.645   6.250   6.491
11312TIP3    H133879   6.628   6.179   6.553
11312TIP3    H233880   6.641   6.208   6.405
11313TIP3   OH233881   3.360   3.322   0.283
11313TIP3    H133882   3.401   3.405   0.308
11313TIP3    H233883   3.273   3.325   0.322
11314TIP3   OH233884   1.229   0.995   5.750
11314TIP3    H133885   1.231   1.026   5.840
11314TIP3    H233886   1.304   1.037   5.708
11315TIP3   OH233887   7.150   2.510   6.313
11315TIP3    H133888   7.238   2.526   6.346
11315TIP3    H233889   7.151   2.418   6.286
11316TIP3   OH233890   0.728   5.471   0.718
11316TIP3    H133891   0.730   5.494   0.811
11316TIP3    H233892   0.667   5.532   0.679
11317TIP3   OH233893   4.476   2.601   2.282
11317TIP3    H133894   4.493   2.622   2.373
11317TIP3    H233895   4.390   2.557   2.283
11318TIP3   OH233896   4.790   3.115   2.756
11318TIP3    H133897   4.762   3.203   2.730
11318TIP3    H233898   4.725   3.088   2.821
11319TIP3   OH233899   4.616   4.715   2.918
11319TIP3    H133900   4.662   4.674   2.991
11319TIP3    H233901   4.567   4.643   2.877
11320TIP3   OH233902   1.325   1.052   0.307
11320TIP3    H133903   1.291   1.026   0.220
11320TIP3    H233904   1.347   0.969   0.349
11321TIP3   OH233905   5.414   4.358   6.012
11321TIP3    H133906   5.355   4.312   5.952
11321TIP3    H233907   5.405   4.450   5.988
11322TIP3   OH233908   5.674   2.759   1.604
11322TIP3    H133909   5.591   2.767   1.652
11322TIP3    H233910   5.741   2.780   1.668
11323TIP3   OH233911   7.100   7.012   3.493
11323TIP3    H133912   7.039   7.020   3.419
11323TIP3    H233913   7.064   7.070   3.560
11324TIP3   OH233914   1.086   3.166   0.176
11324TIP3    H133915   1.062   3.089   0.228
11324TIP3    H233916   1.095   3.133   0.086
11325TIP3   OH233917   7.028   6.321   0.969
11325TIP3    H133918   6.966   6.339   0.898
11325TIP3    H233919   7.025   6.226   0.980
11326TIP3   OH233920   5.796   0.459   2.819
11326TIP3    H133921   5.826   0.503   2.898
11326TIP3    H233922   5.761   0.375   2.849
11327TIP3   OH233923   6.495   1.887   6.883
11327TIP3    H133924   6.499   1.793   6.898
11327TIP3    H233925   6.533   1.900   6.796
11328TIP3   OH233926   2.012   6.011   2.583
11328TIP3    H133927   1.965   5.932   2.610
11328TIP3    H233928   2.050   5.989   2.498
11329TIP3   OH233929   7.308   0.683   3.483
11329TIP3    H133930   7.246   0.617   3.515
11329TIP3    H233931   7.287   0.762   3.532
11330TIP3   OH233932   5.376   6.592   0.577
11330TIP3    H133933   5.403   6.683   0.574
11330TIP3    H233934   5.384   6.562   0.486
11331TIP3   OH233935   1.893   0.016   2.594
11331TIP3    H133936   1.876   0.110   2.580
11331TIP3    H233937   1.926   0.012   2.684
11332TIP3   OH233938   3.012   5.663   1.380
11332TIP3    H133939   2.992   5.675   1.472
11332TIP3    H233940   2.936   5.699   1.334
11333TIP3   OH233941   6.249   2.056   1.818
11333TIP3    H133942   6.205   1.971   1.823
11333TIP3    H233943   6.242   2.092   1.906
11334TIP3   OH233944   3.690   1.342   5.241
11334TIP3    H133945   3.657   1.340   5.331
11334TIP3    H233946   3.611   1.342   5.187
11335TIP3   OH233947   0.276   5.457   4.175
11335TIP3    H133948   0.237   5.529   4.126
11335TIP3    H233949   0.345   5.423   4.118
11336TIP3   OH233950   8.289   0.149   2.966
11336TIP3    H133951   8.194   0.158   2.962
11336TIP3    H233952   8.304   0.055   2.962
11337TIP3   OH233953   2.187   6.729   5.308
11337TIP3    H133954   2.132   6.801   5.339
11337TIP3    H233955   2.256   6.771   5.258
11338TIP3   OH233956   3.530   3.268   6.275
11338TIP3    H133957   3.445   3.245   6.236
11338TIP3    H233958   3.509   3.288   6.366
11339TIP3   OH233959   8.283   3.901   0.429
11339TIP3    H133960   8.196   3.881   0.393
11339TIP3    H233961   8.267   3.969   0.494
11340TIP3   OH233962   0.885   3.366   0.194
11340TIP3    H133963   0.971   3.333   0.222
11340TIP3    H233964   0.829   3.288   0.192
11341TIP3   OH233965   6.230   1.308   2.185
11341TIP3    H133966   6.220   1.226   2.233
11341TIP3    H233967   6.263   1.370   2.250
11342TIP3   OH233968   5.638   4.129   0.758
11342TIP3    H133969   5.699   4.142   0.831
11342TIP3    H233970   5.559   4.175   0.784
11343TIP3   OH233971   0.294   4.174   1.957
11343TIP3    H133972   0.362   4.242   1.955
11343TIP3    H233973   0.246   4.186   1.875
11344TIP3   OH233974   8.169   2.609   2.411
11344TIP3    H133975   8.211   2.557   2.342
11344TIP3    H233976   8.226   2.599   2.487
11345TIP3   OH233977   4.649   2.991   5.439
11345TIP3    H133978   4.668   2.898   5.427
11345TIP3    H233979   4.707   3.036   5.378
11346TIP3   OH233980   5.250   5.373   0.613
11346TIP3    H133981   5.236   5.448   0.671
11346TIP3    H233982   5.345   5.362   0.609
11347TIP3   OH233983   6.576   6.891   0.728
11347TIP3    H133984   6.581   6.843   0.646
11347TIP3    H233985   6.485   6.921   0.732
11348TIP3   OH233986   7.664   6.363   3.371
11348TIP3    H133987   7.759   6.357   3.358
11348TIP3    H233988   7.643   6.291   3.430
11349TIP3   OH233989   3.219   4.632   2.034
11349TIP3    H133990   3.268   4.613   1.954
11349TIP3    H233991   3.128   4.633   2.007
11350TIP3   OH233992   2.168   5.248   5.681
11350TIP3    H133993   2.224   5.326   5.687
11350TIP3    H233994   2.174   5.207   5.767
11351TIP3   OH233995   5.202   5.794   5.343
11351TIP3    H133996   5.235   5.820   5.257
11351TIP3    H233997   5.277   5.806   5.401
11352TIP3   OH233998   5.644   4.279   6.130
11352TIP3    H133999   5.607   4.211   6.185
11352TIP3    H234000   5.569   4.323   6.090
11353TIP3   OH234001   2.013   3.949   1.872
11353TIP3    H134002   2.016   3.882   1.941
11353TIP3    H234003   1.958   4.018   1.909
11354TIP3   OH234004   1.749   0.754   2.263
11354TIP3    H134005   1.764   0.848   2.275
11354TIP3    H234006   1.686   0.749   2.191
11355TIP3   OH234007   3.868   2.995   1.277
11355TIP3    H134008   3.860   2.973   1.184
11355TIP3    H234009   3.853   3.089   1.280
11356TIP3   OH234010   5.564   7.397   0.284
11356TIP3    H134011   5.500   7.426   0.219
11356TIP3    H234012   5.513   7.344   0.346
11357TIP3   OH234013   1.969   0.538   6.555
11357TIP3    H134014   1.909   0.463   6.557
11357TIP3    H234015   1.981   0.561   6.647
11358TIP3   OH234016   3.482   2.621   6.696
11358TIP3    H134017   3.514   2.584   6.614
11358TIP3    H234018   3.416   2.558   6.726
11359TIP3   OH234019   4.654   3.770   1.902
11359TIP3    H134020   4.566   3.803   1.922
11359TIP3    H234021   4.697   3.763   1.988
11360TIP3   OH234022   6.507   3.863   6.260
11360TIP3    H134023   6.512   3.832   6.170
11360TIP3    H234024   6.451   3.798   6.304
11361TIP3   OH234025   2.051   4.565   1.121
11361TIP3    H134026   2.050   4.514   1.040
11361TIP3    H234027   1.984   4.523   1.175
11362TIP3   OH234028   7.835   4.999   2.755
11362TIP3    H134029   7.918   5.034   2.788
11362TIP3    H234030   7.861   4.936   2.687
11363TIP3   OH234031   3.233   0.770   0.196
11363TIP3    H134032   3.152   0.720   0.186
11363TIP3    H234033   3.277   0.731   0.271
11364TIP3   OH234034   3.716   7.301   1.339
11364TIP3    H134035   3.695   7.348   1.259
11364TIP3    H234036   3.772   7.229   1.310
11365TIP3   OH234037   7.462   5.925   4.895
11365TIP3    H134038   7.455   5.982   4.818
11365TIP3    H234039   7.535   5.962   4.945
11366TIP3   OH234040   1.772   3.596   1.319
11366TIP3    H134041   1.766   3.534   1.392
11366TIP3    H234042   1.789   3.680   1.361
11367TIP3   OH234043   8.026   6.414   4.259
11367TIP3    H134044   8.088   6.446   4.192
11367TIP3    H234045   8.034   6.477   4.331
11368TIP3   OH234046   4.799   5.259   0.982
11368TIP3    H134047   4.810   5.292   0.893
11368TIP3    H234048   4.877   5.206   0.997
11369TIP3   OH234049   7.571   7.673   4.360
11369TIP3    H134050   7.544   7.632   4.442
11369TIP3    H234051   7.493   7.719   4.329
11370TIP3   OH234052   5.222   3.643   5.208
11370TIP3    H134053   5.307   3.601   5.196
11370TIP3    H234054   5.232   3.694   5.288
11371TIP3   OH234055   6.604   4.192   5.400
11371TIP3    H134056   6.598   4.144   5.318
11371TIP3    H234057   6.653   4.133   5.458
11372TIP3   OH234058   1.962   1.501   2.239
11372TIP3    H134059   1.871   1.497   2.267
11372TIP3    H234060   1.960   1.544   2.154
11373TIP3   OH234061   8.191   3.001   5.583
11373TIP3    H134062   8.098   2.979   5.584
11373TIP3    H234063   8.231   2.932   5.531
11374TIP3   OH234064   4.395   7.422   3.358
11374TIP3    H134065   4.386   7.445   3.266
11374TIP3    H234066   4.401   7.506   3.404
11375TIP3   OH234067   0.442   6.346   6.686
11375TIP3    H134068   0.371   6.282   6.678
11375TIP3    H234069   0.474   6.335   6.775
11376TIP3   OH234070   0.981   0.856   6.702
11376TIP3    H134071   1.057   0.856   6.643
11376TIP3    H234072   0.965   0.949   6.720
11377TIP3   OH234073   2.443   1.018   6.680
11377TIP3    H134074   2.386   0.951   6.641
11377TIP3    H234075   2.491   0.971   6.749
11378TIP3   OH234076   6.465   7.455   5.866
11378TIP3    H134077   6.403   7.527   5.876
11378TIP3    H234078   6.429   7.401   5.795
11379TIP3   OH234079   0.254   3.720   1.583
11379TIP3    H134080   0.329   3.767   1.547
11379TIP3    H234081   0.196   3.708   1.508
11380TIP3   OH234082   3.851   5.601   2.725
11380TIP3    H134083   3.790   5.650   2.780
11380TIP3    H234084   3.853   5.513   2.763
11381TIP3   OH234085   4.141   5.263   2.266
11381TIP3    H134086   4.193   5.328   2.219
11381TIP3    H234087   4.070   5.240   2.205
11382TIP3   OH234088   6.051   7.099   6.471
11382TIP3    H134089   6.051   7.119   6.565
11382TIP3    H234090   5.958   7.096   6.447
11383TIP3   OH234091   5.052   2.320   2.595
11383TIP3    H134092   5.019   2.380   2.528
11383TIP3    H234093   4.983   2.318   2.661
11384TIP3   OH234094   4.745   5.967   0.458
11384TIP3    H134095   4.809   6.029   0.422
11384TIP3    H234096   4.738   5.899   0.392
11385TIP3   OH234097   2.160   2.755   4.083
11385TIP3    H134098   2.196   2.720   4.164
11385TIP3    H234099   2.131   2.843   4.105
11386TIP3   OH234100   4.794   6.738   4.192
11386TIP3    H134101   4.809   6.666   4.254
11386TIP3    H234102   4.854   6.721   4.120
11387TIP3   OH234103   7.039   2.656   3.476
11387TIP3    H134104   7.124   2.676   3.437
11387TIP3    H234105   7.057   2.649   3.570
11388TIP3   OH234106   4.287   0.165   2.489
11388TIP3    H134107   4.304   0.074   2.513
11388TIP3    H234108   4.339   0.216   2.550
11389TIP3   OH234109   6.329   4.861   5.875
11389TIP3    H134110   6.385   4.784   5.878
11389TIP3    H234111   6.250   4.836   5.923
11390TIP3   OH234112   1.858   6.580   3.166
11390TIP3    H134113   1.808   6.654   3.130
11390TIP3    H234114   1.804   6.503   3.147
11391TIP3   OH234115   6.025   6.524   6.612
11391TIP3    H134116   6.100   6.577   6.640
11391TIP3    H234117   5.966   6.524   6.687
11392TIP3   OH234118   3.060   5.149   5.406
11392TIP3    H134119   3.102   5.074   5.365
11392TIP3    H234120   2.993   5.112   5.463
11393TIP3   OH234121   3.019   1.911   1.420
11393TIP3    H134122   3.074   1.948   1.488
11393TIP3    H234123   2.932   1.948   1.436
11394TIP3   OH234124   4.372   6.674   3.994
11394TIP3    H134125   4.390   6.722   4.075
11394TIP3    H234126   4.295   6.621   4.015
11395TIP3   OH234127   6.593   5.149   2.834
11395TIP3    H134128   6.509   5.126   2.795
11395TIP3    H234129   6.656   5.092   2.791
11396TIP3   OH234130   7.664   3.923   4.752
11396TIP3    H134131   7.692   3.966   4.833
11396TIP3    H234132   7.648   3.995   4.691
11397TIP3   OH234133   1.741   0.071   3.320
11397TIP3    H134134   1.759   0.016   3.397
11397TIP3    H234135   1.735   0.160   3.356
11398TIP3   OH234136   3.886   5.379   0.484
11398TIP3    H134137   3.925   5.354   0.567
11398TIP3    H234138   3.822   5.446   0.506
11399TIP3   OH234139   5.353   1.202   5.686
11399TIP3    H134140   5.418   1.132   5.691
11399TIP3    H234141   5.270   1.156   5.673
11400TIP3   OH234142   2.658   0.865   2.961
11400TIP3    H134143   2.668   0.960   2.965
11400TIP3    H234144   2.718   0.837   2.892
11401TIP3   OH234145   2.849   4.044   1.755
11401TIP3    H134146   2.797   4.122   1.734
11401TIP3    H234147   2.919   4.076   1.811
11402TIP3   OH234148   0.667   7.298   3.948
11402TIP3    H134149   0.739   7.234   3.947
11402TIP3    H234150   0.703   7.375   3.905
11403TIP3   OH234151   7.344   0.463   5.802
11403TIP3    H134152   7.329   0.398   5.733
11403TIP3    H234153   7.388   0.414   5.871
11404TIP3   OH234154   1.064   1.518   1.175
11404TIP3    H134155   1.016   1.562   1.105
11404TIP3    H234156   1.153   1.510   1.141
11405TIP3   OH234157   0.850   0.573   3.450
11405TIP3    H134158   0.919   0.623   3.492
11405TIP3    H234159   0.787   0.554   3.520
11406TIP3   OH234160   3.529   0.596   3.492
11406TIP3    H134161   3.492   0.665   3.546
11406TIP3    H234162   3.586   0.547   3.551
11407TIP3   OH234163   0.307   2.294   3.268
11407TIP3    H134164   0.263   2.236   3.206
11407TIP3    H234165   0.270   2.269   3.353
11408TIP3   OH234166   5.807   5.390   6.342
11408TIP3    H134167   5.854   5.466   6.309
11408TIP3    H234168   5.852   5.366   6.423
11409TIP3   OH234169   8.198   0.917   5.678
11409TIP3    H134170   8.287   0.953   5.670
11409TIP3    H234171   8.149   0.985   5.724
11410TIP3   OH234172   2.049   7.343   1.275
11410TIP3    H134173   2.125   7.374   1.325
11410TIP3    H234174   2.023   7.419   1.222
11411TIP3   OH234175   7.162   4.695   0.232
11411TIP3    H134176   7.098   4.673   0.299
11411TIP3    H234177   7.167   4.791   0.234
11412TIP3   OH234178   4.801   1.127   5.221
11412TIP3    H134179   4.841   1.124   5.134
11412TIP3    H234180   4.872   1.154   5.279
11413TIP3   OH234181   0.363   5.526   6.037
11413TIP3    H134182   0.353   5.588   6.110
11413TIP3    H234183   0.406   5.450   6.076
11414TIP3   OH234184   1.407   5.270   1.523
11414TIP3    H134185   1.435   5.228   1.442
11414TIP3    H234186   1.422   5.364   1.507
11415TIP3   OH234187   2.619   4.513   5.492
11415TIP3    H134188   2.570   4.515   5.410
11415TIP3    H234189   2.600   4.597   5.534
11416TIP3   OH234190   3.417   0.716   0.411
11416TIP3    H134191   3.418   0.720   0.506
11416TIP3    H234192   3.507   0.732   0.385
11417TIP3   OH234193   1.752   2.550   1.150
11417TIP3    H134194   1.760   2.507   1.235
11417TIP3    H234195   1.803   2.495   1.090
11418TIP3   OH234196   0.808   4.274   5.569
11418TIP3    H134197   0.884   4.277   5.627
11418TIP3    H234198   0.739   4.321   5.617
11419TIP3   OH234199   5.223   7.435   0.695
11419TIP3    H134200   5.160   7.461   0.762
11419TIP3    H234201   5.240   7.516   0.646
11420TIP3   OH234202   4.547   2.377   3.694
11420TIP3    H134203   4.496   2.297   3.688
11420TIP3    H234204   4.617   2.357   3.757
11421TIP3   OH234205   4.321   2.740   5.195
11421TIP3    H134206   4.364   2.825   5.206
11421TIP3    H234207   4.267   2.729   5.273
11422TIP3   OH234208   3.869   3.649   1.000
11422TIP3    H134209   3.829   3.658   1.087
11422TIP3    H234210   3.888   3.738   0.972
11423TIP3   OH234211   2.197   0.735   2.767
11423TIP3    H134212   2.148   0.817   2.779
11423TIP3    H234213   2.288   0.761   2.777
11424TIP3   OH234214   0.821   3.262   1.356
11424TIP3    H134215   0.759   3.190   1.346
11424TIP3    H234216   0.773   3.328   1.407
11425TIP3   OH234217   4.279   3.730   5.340
11425TIP3    H134218   4.331   3.695   5.412
11425TIP3    H234219   4.277   3.659   5.275
11426TIP3   OH234220   1.955   2.484   1.982
11426TIP3    H134221   1.876   2.502   2.033
11426TIP3    H234222   2.018   2.549   2.011
11427TIP3   OH234223   6.407   0.209   1.129
11427TIP3    H134224   6.382   0.277   1.066
11427TIP3    H234225   6.500   0.195   1.112
11428TIP3   OH234226   5.578   5.717   0.702
11428TIP3    H134227   5.502   5.709   0.644
11428TIP3    H234228   5.615   5.629   0.705
11429TIP3   OH234229   5.982   7.611   1.904
11429TIP3    H134230   6.050   7.609   1.972
11429TIP3    H234231   5.990   7.698   1.865
11430TIP3   OH234232   0.393   4.789   4.437
11430TIP3    H134233   0.302   4.766   4.455
11430TIP3    H234234   0.412   4.751   4.351
11431TIP3   OH234235   0.261   3.833   4.844
11431TIP3    H134236   0.224   3.798   4.925
11431TIP3    H234237   0.290   3.756   4.795
11432TIP3   OH234238   4.683   6.157   4.168
11432TIP3    H134239   4.704   6.068   4.141
11432TIP3    H234240   4.588   6.157   4.181
11433TIP3   OH234241   2.851   0.711   2.229
11433TIP3    H134242   2.822   0.795   2.266
11433TIP3    H234243   2.929   0.689   2.280
11434TIP3   OH234244   6.676   5.166   3.784
11434TIP3    H134245   6.721   5.112   3.719
11434TIP3    H234246   6.587   5.130   3.788
11435TIP3   OH234247   2.433   1.684   4.957
11435TIP3    H134248   2.421   1.732   5.039
11435TIP3    H234249   2.526   1.696   4.936
11436TIP3   OH234250   7.631   2.013   2.993
11436TIP3    H134251   7.583   2.084   2.950
11436TIP3    H234252   7.563   1.960   3.034
11437TIP3   OH234253   7.896   1.459   3.709
11437TIP3    H134254   7.983   1.465   3.747
11437TIP3    H234255   7.874   1.366   3.712
11438TIP3   OH234256   6.291   4.268   0.623
11438TIP3    H134257   6.218   4.323   0.594
11438TIP3    H234258   6.337   4.246   0.542
11439TIP3   OH234259   3.895   2.423   5.167
11439TIP3    H134260   3.987   2.413   5.193
11439TIP3    H234261   3.848   2.437   5.249
11440TIP3   OH234262   0.909   0.239   1.780
11440TIP3    H134263   0.911   0.229   1.685
11440TIP3    H234264   1.001   0.251   1.804
11441TIP3   OH234265   1.463   1.067   2.973
11441TIP3    H134266   1.515   1.012   3.032
11441TIP3    H234267   1.465   1.154   3.014
11442TIP3   OH234268   3.150   4.518   5.862
11442TIP3    H134269   3.168   4.460   5.936
11442TIP3    H234270   3.228   4.511   5.806
11443TIP3   OH234271   4.103   1.033   6.105
11443TIP3    H134272   4.014   1.044   6.137
11443TIP3    H234273   4.093   0.999   6.016
11444TIP3   OH234274   1.315   1.887   3.910
11444TIP3    H134275   1.355   1.902   3.996
11444TIP3    H234276   1.380   1.838   3.861
11445TIP3   OH234277   6.374   1.737   2.397
11445TIP3    H134278   6.409   1.660   2.441
11445TIP3    H234279   6.374   1.805   2.464
11446TIP3   OH234280   3.454   1.565   3.762
11446TIP3    H134281   3.447   1.496   3.828
11446TIP3    H234282   3.492   1.522   3.686
11447TIP3   OH234283   6.473   6.841   1.020
11447TIP3    H134284   6.546   6.795   0.981
11447TIP3    H234285   6.397   6.818   0.966
11448TIP3   OH234286   0.857   4.336   3.948
11448TIP3    H134287   0.858   4.318   4.042
11448TIP3    H234288   0.909   4.416   3.938
11449TIP3   OH234289   6.787   1.803   3.825
11449TIP3    H134290   6.844   1.874   3.856
11449TIP3    H234291   6.845   1.744   3.778
11450TIP3   OH234292   1.388   7.230   5.653
11450TIP3    H134293   1.419   7.314   5.686
11450TIP3    H234294   1.327   7.199   5.720
11451TIP3   OH234295   3.485   6.933   3.504
11451TIP3    H134296   3.494   6.838   3.507
11451TIP3    H234297   3.551   6.965   3.565
11452TIP3   OH234298   1.235   3.316   3.901
11452TIP3    H134299   1.326   3.328   3.876
11452TIP3    H234300   1.185   3.345   3.825
11453TIP3   OH234301   4.342   7.506   2.509
11453TIP3    H134302   4.429   7.529   2.544
11453TIP3    H234303   4.348   7.412   2.492
11454TIP3   OH234304   4.100   3.468   4.342
11454TIP3    H134305   4.060   3.553   4.325
11454TIP3    H234306   4.069   3.443   4.429
11455TIP3   OH234307   7.732   3.159   5.820
11455TIP3    H134308   7.805   3.118   5.867
11455TIP3    H234309   7.730   3.249   5.854
11456TIP3   OH234310   3.869   1.701   3.612
11456TIP3    H134311   3.854   1.663   3.699
11456TIP3    H234312   3.841   1.633   3.551
11457TIP3   OH234313   7.831   6.778   0.216
11457TIP3    H134314   7.919   6.753   0.188
11457TIP3    H234315   7.800   6.839   0.149
11458TIP3   OH234316   0.588   4.351   3.826
11458TIP3    H134317   0.680   4.346   3.852
11458TIP3    H234318   0.582   4.434   3.778
11459TIP3   OH234319   5.919   1.729   6.561
11459TIP3    H134320   5.922   1.635   6.577
11459TIP3    H234321   5.935   1.738   6.467
11460TIP3   OH234322   0.145   6.655   1.236
11460TIP3    H134323   0.172   6.725   1.295
11460TIP3    H234324   0.078   6.695   1.180
11461TIP3   OH234325   4.765   1.041   0.697
11461TIP3    H134326   4.715   1.031   0.778
11461TIP3    H234327   4.746   0.962   0.647
11462TIP3   OH234328   5.637   2.750   3.759
11462TIP3    H134329   5.668   2.755   3.849
11462TIP3    H234330   5.713   2.718   3.710
11463TIP3   OH234331   7.491   2.721   2.153
11463TIP3    H134332   7.532   2.785   2.094
11463TIP3    H234333   7.514   2.636   2.116
11464TIP3   OH234334   0.458   4.632   2.791
11464TIP3    H134335   0.467   4.702   2.856
11464TIP3    H234336   0.489   4.553   2.836
11465TIP3   OH234337   4.292   4.042   2.236
11465TIP3    H134338   4.379   4.011   2.261
11465TIP3    H234339   4.298   4.138   2.240
11466TIP3   OH234340   3.686   4.700   4.395
11466TIP3    H134341   3.751   4.761   4.430
11466TIP3    H234342   3.717   4.614   4.423
11467TIP3   OH234343   7.348   4.269   1.701
11467TIP3    H134344   7.374   4.180   1.678
11467TIP3    H234345   7.263   4.281   1.659
11468TIP3   OH234346   0.890   2.068   4.773
11468TIP3    H134347   0.848   2.013   4.707
11468TIP3    H234348   0.902   2.153   4.729
11469TIP3   OH234349   7.192   4.145   4.813
11469TIP3    H134350   7.201   4.068   4.870
11469TIP3    H234351   7.197   4.219   4.872
11470TIP3   OH234352   5.348   1.712   5.401
11470TIP3    H134353   5.360   1.679   5.312
11470TIP3    H234354   5.325   1.634   5.452
11471TIP3   OH234355   5.531   5.461   6.381
11471TIP3    H134356   5.545   5.451   6.475
11471TIP3    H234357   5.620   5.461   6.344
11472TIP3   OH234358   7.262   2.456   1.150
11472TIP3    H134359   7.224   2.472   1.064
11472TIP3    H234360   7.353   2.485   1.142
11473TIP3   OH234361   4.221   0.733   0.838
11473TIP3    H134362   4.310   0.766   0.831
11473TIP3    H234363   4.192   0.723   0.747
11474TIP3   OH234364   2.942   7.394   3.316
11474TIP3    H134365   2.998   7.319   3.336
11474TIP3    H234366   2.930   7.391   3.221
11475TIP3   OH234367   3.175   3.013   4.067
11475TIP3    H134368   3.133   3.047   3.988
11475TIP3    H234369   3.122   2.938   4.093
11476TIP3   OH234370   0.574   3.353   1.006
11476TIP3    H134371   0.550   3.365   0.914
11476TIP3    H234372   0.513   3.409   1.054
11477TIP3   OH234373   7.268   2.532   2.283
11477TIP3    H134374   7.287   2.479   2.206
11477TIP3    H234375   7.186   2.578   2.261
11478TIP3   OH234376   3.843   5.671   3.123
11478TIP3    H134377   3.862   5.710   3.209
11478TIP3    H234378   3.927   5.674   3.077
11479TIP3   OH234379   4.386   4.270   5.767
11479TIP3    H134380   4.360   4.197   5.823
11479TIP3    H234381   4.337   4.257   5.686
11480TIP3   OH234382   7.631   3.956   5.634
11480TIP3    H134383   7.716   3.911   5.637
11480TIP3    H234384   7.617   3.974   5.541
11481TIP3   OH234385   1.237   0.630   0.645
11481TIP3    H134386   1.263   0.710   0.598
11481TIP3    H234387   1.259   0.559   0.585
11482TIP3   OH234388   7.326   6.694   3.232
11482TIP3    H134389   7.320   6.665   3.141
11482TIP3    H234390   7.356   6.616   3.279
11483TIP3   OH234391   7.231   1.967   3.718
11483TIP3    H134392   7.298   1.904   3.690
11483TIP3    H234393   7.189   1.995   3.637
11484TIP3   OH234394   1.366   2.000   4.832
11484TIP3    H134395   1.393   1.909   4.822
11484TIP3    H234396   1.299   1.998   4.900
11485TIP3   OH234397   6.802   1.904   5.352
11485TIP3    H134398   6.767   1.862   5.274
11485TIP3    H234399   6.840   1.833   5.403
11486TIP3   OH234400   4.171   6.960   1.012
11486TIP3    H134401   4.151   7.050   0.985
11486TIP3    H234402   4.201   6.968   1.102
11487TIP3   OH234403   4.297   1.768   2.203
11487TIP3    H134404   4.297   1.691   2.147
11487TIP3    H234405   4.339   1.836   2.150
11488TIP3   OH234406   5.132   2.855   5.873
11488TIP3    H134407   5.060   2.873   5.812
11488TIP3    H234408   5.177   2.780   5.835
11489TIP3   OH234409   2.331   5.040   5.580
11489TIP3    H134410   2.265   5.049   5.648
11489TIP3    H234411   2.414   5.056   5.624
11490TIP3   OH234412   5.676   0.566   1.780
11490TIP3    H134413   5.605   0.561   1.716
11490TIP3    H234414   5.635   0.599   1.860
11491TIP3   OH234415   5.177   2.970   4.842
11491TIP3    H134416   5.262   2.927   4.833
11491TIP3    H234417   5.116   2.899   4.863
11492TIP3   OH234418   1.563   4.879   2.483
11492TIP3    H134419   1.483   4.864   2.434
11492TIP3    H234420   1.623   4.918   2.419
11493TIP3   OH234421   7.291   4.035   0.310
11493TIP3    H134422   7.265   4.124   0.288
11493TIP3    H234423   7.216   3.981   0.284
11494TIP3   OH234424   2.047   3.474   1.454
11494TIP3    H134425   2.006   3.437   1.376
11494TIP3    H234426   2.020   3.566   1.455
11495TIP3   OH234427   4.920   1.960   3.975
11495TIP3    H134428   4.952   1.871   3.991
11495TIP3    H234429   4.825   1.953   3.986
11496TIP3   OH234430   5.476   4.618   1.677
11496TIP3    H134431   5.399   4.642   1.626
11496TIP3    H234432   5.479   4.683   1.748
11497TIP3   OH234433   7.026   2.325   2.919
11497TIP3    H134434   7.081   2.251   2.944
11497TIP3    H234435   6.991   2.359   3.001
11498TIP3   OH234436   0.372   6.353   2.179
11498TIP3    H134437   0.439   6.290   2.206
11498TIP3    H234438   0.384   6.428   2.238
11499TIP3   OH234439   7.082   1.677   2.559
11499TIP3    H134440   7.024   1.665   2.634
11499TIP3    H234441   7.023   1.693   2.486
11500TIP3   OH234442   0.058   7.667   3.043
11500TIP3    H134443   0.090   7.594   3.097
11500TIP3    H234444   0.098   7.652   2.957
11501TIP3   OH234445   3.226   7.547   5.337
11501TIP3    H134446   3.178   7.465   5.341
11501TIP3    H234447   3.310   7.524   5.296
11502TIP3   OH234448   2.848   7.105   6.262
11502TIP3    H134449   2.825   7.026   6.311
11502TIP3    H234450   2.855   7.076   6.171
11503TIP3   OH234451   0.392   6.975   3.773
11503TIP3    H134452   0.449   6.912   3.728
11503TIP3    H234453   0.402   6.952   3.866
11504TIP3   OH234454   5.085   1.680   6.666
11504TIP3    H134455   5.054   1.592   6.687
11504TIP3    H234456   5.165   1.667   6.617
11505TIP3   OH234457   6.139   5.241   4.433
11505TIP3    H134458   6.049   5.218   4.411
11505TIP3    H234459   6.137   5.336   4.445
11506TIP3   OH234460   5.202   2.685   2.905
11506TIP3    H134461   5.203   2.649   2.994
11506TIP3    H234462   5.116   2.725   2.897
11507TIP3   OH234463   5.621   7.213   3.782
11507TIP3    H134464   5.559   7.284   3.766
11507TIP3    H234465   5.665   7.238   3.863
11508TIP3   OH234466   8.310   6.171   4.668
11508TIP3    H134467   8.383   6.112   4.686
11508TIP3    H234468   8.342   6.227   4.597
11509TIP3   OH234469   3.145   4.434   3.400
11509TIP3    H134470   3.130   4.503   3.335
11509TIP3    H234471   3.231   4.454   3.436
11510TIP3   OH234472   6.095   3.838   1.030
11510TIP3    H134473   6.001   3.827   1.018
11510TIP3    H234474   6.103   3.884   1.114
11511TIP3   OH234475   7.575   2.889   4.465
11511TIP3    H134476   7.570   2.903   4.371
11511TIP3    H234477   7.486   2.901   4.496
11512TIP3   OH234478   2.704   3.930   3.627
11512TIP3    H134479   2.675   3.865   3.562
11512TIP3    H234480   2.740   3.877   3.698
11513TIP3   OH234481   1.061   0.666   4.336
11513TIP3    H134482   1.050   0.718   4.416
11513TIP3    H234483   1.125   0.599   4.359
11514TIP3   OH234484   4.178   4.353   6.599
11514TIP3    H134485   4.187   4.285   6.532
11514TIP3    H234486   4.196   4.435   6.553
11515TIP3   OH234487   8.220   6.623   5.037
11515TIP3    H134488   8.242   6.575   4.957
11515TIP3    H234489   8.126   6.608   5.049
11516TIP3   OH234490   3.500   6.663   3.517
11516TIP3    H134491   3.431   6.628   3.573
11516TIP3    H234492   3.572   6.602   3.527
11517TIP3   OH234493   3.443   6.232   2.510
11517TIP3    H134494   3.474   6.310   2.464
11517TIP3    H234495   3.498   6.161   2.477
11518TIP3   OH234496   1.956   0.285   3.029
11518TIP3    H134497   2.009   0.219   3.073
11518TIP3    H234498   1.964   0.363   3.084
11519TIP3   OH234499   4.247   4.882   1.992
11519TIP3    H134500   4.299   4.932   1.930
11519TIP3    H234501   4.277   4.912   2.078
11520TIP3   OH234502   0.515   6.497   5.089
11520TIP3    H134503   0.422   6.516   5.090
11520TIP3    H234504   0.521   6.407   5.058
11521TIP3   OH234505   7.189   2.306   0.098
11521TIP3    H134506   7.276   2.283   0.130
11521TIP3    H234507   7.136   2.313   0.177
11522TIP3   OH234508   6.880   4.303   5.058
11522TIP3    H134509   6.885   4.227   5.117
11522TIP3    H234510   6.914   4.375   5.110
11523TIP3   OH234511   5.158   2.057   1.201
11523TIP3    H134512   5.082   2.058   1.259
11523TIP3    H234513   5.166   1.966   1.173
11524TIP3   OH234514   6.316   0.080   0.107
11524TIP3    H134515   6.240   0.126   0.142
11524TIP3    H234516   6.391   0.128   0.143
11525TIP3   OH234517   1.148   6.605   5.382
11525TIP3    H134518   1.157   6.700   5.369
11525TIP3    H234519   1.222   6.568   5.335
11526TIP3   OH234520   8.151   5.588   1.832
11526TIP3    H134521   8.107   5.525   1.888
11526TIP3    H234522   8.099   5.668   1.841
11527TIP3   OH234523   4.361   1.596   4.841
11527TIP3    H134524   4.329   1.573   4.753
11527TIP3    H234525   4.411   1.677   4.827
11528TIP3   OH234526   7.579   2.663   1.654
11528TIP3    H134527   7.635   2.597   1.613
11528TIP3    H234528   7.501   2.666   1.599
11529TIP3   OH234529   3.889   6.967   3.321
11529TIP3    H134530   3.882   6.962   3.226
11529TIP3    H234531   3.837   6.893   3.353
11530TIP3   OH234532   3.626   5.547   5.364
11530TIP3    H134533   3.546   5.578   5.320
11530TIP3    H234534   3.683   5.623   5.365
11531TIP3   OH234535   3.485   7.116   5.828
11531TIP3    H134536   3.551   7.087   5.891
11531TIP3    H234537   3.464   7.038   5.776
11532TIP3   OH234538   2.663   5.542   1.482
11532TIP3    H134539   2.717   5.472   1.518
11532TIP3    H234540   2.702   5.622   1.517
11533TIP3   OH234541   6.067   2.232   4.841
11533TIP3    H134542   6.133   2.165   4.823
11533TIP3    H234543   5.990   2.183   4.869
11534TIP3   OH234544   0.852   3.412   2.615
11534TIP3    H134545   0.837   3.346   2.547
11534TIP3    H234546   0.904   3.366   2.681
11535TIP3   OH234547   6.337   5.902   6.360
11535TIP3    H134548   6.280   5.864   6.428
11535TIP3    H234549   6.406   5.837   6.349
11536TIP3   OH234550   3.652   0.210   5.871
11536TIP3    H134551   3.710   0.226   5.946
11536TIP3    H234552   3.572   0.173   5.910
11537TIP3   OH234553   0.967   5.093   5.399
11537TIP3    H134554   0.938   5.068   5.312
11537TIP3    H234555   1.050   5.139   5.384
11538TIP3   OH234556   0.899   1.715   0.642
11538TIP3    H134557   0.915   1.801   0.604
11538TIP3    H234558   0.805   1.700   0.631
11539TIP3   OH234559   6.535   1.152   5.762
11539TIP3    H134560   6.496   1.207   5.694
11539TIP3    H234561   6.508   1.193   5.844
11540TIP3   OH234562   7.488   7.220   4.734
11540TIP3    H134563   7.457   7.237   4.823
11540TIP3    H234564   7.433   7.275   4.678
11541TIP3   OH234565   7.414   0.376   2.961
11541TIP3    H134566   7.421   0.470   2.976
11541TIP3    H234567   7.339   0.367   2.903
11542TIP3   OH234568   1.235   2.384   1.487
11542TIP3    H134569   1.295   2.310   1.485
11542TIP3    H234570   1.150   2.346   1.507
11543TIP3   OH234571   5.465   3.061   5.007
11543TIP3    H134572   5.533   3.002   5.038
11543TIP3    H234573   5.389   3.042   5.062
11544TIP3   OH234574   2.875   6.284   3.328
11544TIP3    H134575   2.854   6.227   3.254
11544TIP3    H234576   2.855   6.232   3.406
11545TIP3   OH234577   4.529   2.054   1.360
11545TIP3    H134578   4.557   2.145   1.346
11545TIP3    H234579   4.535   2.042   1.454
11546TIP3   OH234580   6.486   3.785   1.279
11546TIP3    H134581   6.463   3.718   1.343
11546TIP3    H234582   6.511   3.737   1.201
11547TIP3   OH234583   4.589   5.593   4.491
11547TIP3    H134584   4.579   5.508   4.533
11547TIP3    H234585   4.514   5.644   4.521
11548TIP3   OH234586   0.087   0.793   1.873
11548TIP3    H134587   0.167   0.772   1.825
11548TIP3    H234588   0.064   0.711   1.918
11549TIP3   OH234589   8.015   7.844   3.606
11549TIP3    H134590   8.110   7.833   3.619
11549TIP3    H234591   7.984   7.757   3.582
11550TIP3   OH234592   5.591   3.133   1.672
11550TIP3    H134593   5.674   3.161   1.709
11550TIP3    H234594   5.599   3.152   1.578
11551TIP3   OH234595   0.881   5.352   4.550
11551TIP3    H134596   0.965   5.343   4.596
11551TIP3    H234597   0.867   5.447   4.545
11552TIP3   OH234598   6.676   5.853   2.813
11552TIP3    H134599   6.600   5.800   2.835
11552TIP3    H234600   6.697   5.829   2.723
11553TIP3   OH234601   7.290   7.403   1.039
11553TIP3    H134602   7.198   7.429   1.034
11553TIP3    H234603   7.317   7.431   1.127
11554TIP3   OH234604  -0.088   5.306   5.276
11554TIP3    H134605  -0.009   5.282   5.324
11554TIP3    H234606  -0.080   5.401   5.262
11555TIP3   OH234607   3.537   2.068   2.019
11555TIP3    H134608   3.521   2.053   2.112
11555TIP3    H234609   3.566   1.983   1.986
11556TIP3   OH234610   4.651   6.448   2.547
11556TIP3    H134611   4.570   6.403   2.524
11556TIP3    H234612   4.667   6.423   2.638
11557TIP3   OH234613   5.622   2.490   4.792
11557TIP3    H134614   5.603   2.407   4.748
11557TIP3    H234615   5.588   2.557   4.733
11558TIP3   OH234616   1.261   6.637   4.968
11558TIP3    H134617   1.203   6.572   4.927
11558TIP3    H234618   1.202   6.697   5.013
11559TIP3   OH234619   5.786   1.808   2.724
11559TIP3    H134620   5.718   1.747   2.695
11559TIP3    H234621   5.738   1.886   2.750
11560TIP3   OH234622   2.981   3.632   2.005
11560TIP3    H134623   3.032   3.559   1.969
11560TIP3    H234624   3.006   3.707   1.951
11561TIP3   OH234625   7.731   1.770   2.283
11561TIP3    H134626   7.721   1.759   2.377
11561TIP3    H234627   7.767   1.687   2.252
11562TIP3   OH234628   6.404   5.923   1.565
11562TIP3    H134629   6.310   5.939   1.568
11562TIP3    H234630   6.441   6.003   1.526
11563TIP3   OH234631   0.008   5.078   2.245
11563TIP3    H134632   0.090   5.069   2.197
11563TIP3    H234633  -0.050   5.012   2.206
11564TIP3   OH234634   3.697   4.867   6.135
11564TIP3    H134635   3.710   4.855   6.229
11564TIP3    H234636   3.607   4.840   6.119
11565TIP3   OH234637   0.861   3.751   0.238
11565TIP3    H134638   0.787   3.778   0.293
11565TIP3    H234639   0.825   3.686   0.179
11566TIP3   OH234640   3.686   6.979   5.615
11566TIP3    H134641   3.715   6.897   5.654
11566TIP3    H234642   3.709   7.046   5.679
11567TIP3   OH234643   4.890   6.477   5.711
11567TIP3    H134644   4.810   6.437   5.742
11567TIP3    H234645   4.960   6.425   5.749
11568TIP3   OH234646   5.516   5.798   0.096
11568TIP3    H134647   5.483   5.832   0.180
11568TIP3    H234648   5.562   5.717   0.120
11569TIP3   OH234649   5.086   6.874   3.687
11569TIP3    H134650   5.112   6.960   3.655
11569TIP3    H234651   5.028   6.840   3.619
11570TIP3   OH234652   4.011   3.091   4.694
11570TIP3    H134653   4.039   3.013   4.646
11570TIP3    H234654   4.089   3.119   4.741
11571TIP3   OH234655   2.513   1.851   5.768
11571TIP3    H134656   2.537   1.791   5.698
11571TIP3    H234657   2.504   1.936   5.726
11572TIP3   OH234658   2.363   3.454   0.726
11572TIP3    H134659   2.276   3.473   0.690
11572TIP3    H234660   2.348   3.445   0.820
11573TIP3   OH234661   2.372   3.127   3.102
11573TIP3    H134662   2.448   3.109   3.158
11573TIP3    H234663   2.309   3.171   3.159
11574TIP3   OH234664   0.737   0.822   0.309
11574TIP3    H134665   0.761   0.914   0.317
11574TIP3    H234666   0.697   0.814   0.222
11575TIP3   OH234667   7.524   6.305   4.744
11575TIP3    H134668   7.557   6.368   4.681
11575TIP3    H234669   7.567   6.328   4.826
11576TIP3   OH234670   7.100   0.740   6.171
11576TIP3    H134671   7.134   0.690   6.246
11576TIP3    H234672   7.092   0.675   6.101
11577TIP3   OH234673   6.613   7.534   3.494
11577TIP3    H134674   6.651   7.622   3.489
11577TIP3    H234675   6.519   7.549   3.506
11578TIP3   OH234676   0.186   5.689   3.695
11578TIP3    H134677   0.261   5.704   3.638
11578TIP3    H234678   0.224   5.658   3.777
11579TIP3   OH234679   7.043   4.097   2.650
11579TIP3    H134680   6.987   4.020   2.643
11579TIP3    H234681   6.986   4.171   2.628
11580TIP3   OH234682   2.765   4.545   3.672
11580TIP3    H134683   2.805   4.605   3.609
11580TIP3    H234684   2.829   4.539   3.743
11581TIP3   OH234685   1.970   2.287   5.748
11581TIP3    H134686   1.967   2.279   5.843
11581TIP3    H234687   1.903   2.227   5.716
11582TIP3   OH234688   5.406   3.754   2.078
11582TIP3    H134689   5.499   3.754   2.054
11582TIP3    H234690   5.380   3.846   2.076
11583TIP3   OH234691   2.644   2.009   4.321
11583TIP3    H134692   2.622   1.915   4.321
11583TIP3    H234693   2.661   2.030   4.229
11584TIP3   OH234694   8.259   3.609   2.574
11584TIP3    H134695   8.219   3.616   2.661
11584TIP3    H234696   8.236   3.692   2.531
11585TIP3   OH234697   0.684   7.663   0.287
11585TIP3    H134698   0.750   7.732   0.288
11585TIP3    H234699   0.616   7.695   0.227
11586TIP3   OH234700   5.183   3.875   5.786
11586TIP3    H134701   5.189   3.961   5.745
11586TIP3    H234702   5.245   3.820   5.737
11587TIP3   OH234703   3.634   1.889   2.847
11587TIP3    H134704   3.696   1.880   2.920
11587TIP3    H234705   3.672   1.957   2.792
11588TIP3   OH234706   5.509   6.709   4.846
11588TIP3    H134707   5.571   6.740   4.911
11588TIP3    H234708   5.547   6.627   4.814
11589TIP3   OH234709   3.749   2.899   0.384
11589TIP3    H134710   3.736   2.938   0.297
11589TIP3    H234711   3.684   2.943   0.440
11590TIP3   OH234712   3.283   0.071   3.648
11590TIP3    H134713   3.251   0.009   3.713
11590TIP3    H234714   3.314   0.146   3.699
11591TIP3   OH234715   8.321   6.686   1.993
11591TIP3    H134716   8.384   6.615   2.008
11591TIP3    H234717   8.242   6.658   2.040
11592TIP3   OH234718   5.341   7.359   4.242
11592TIP3    H134719   5.418   7.415   4.227
11592TIP3    H234720   5.270   7.421   4.259
11593TIP3   OH234721   1.152   6.600   0.422
11593TIP3    H134722   1.223   6.664   0.436
11593TIP3    H234723   1.170   6.564   0.336
11594TIP3   OH234724   8.083   4.628   1.080
11594TIP3    H134725   8.112   4.541   1.108
11594TIP3    H234726   8.097   4.629   0.985
11595TIP3   OH234727   0.554   6.772   2.668
11595TIP3    H134728   0.542   6.786   2.575
11595TIP3    H234729   0.632   6.823   2.691
11596TIP3   OH234730   2.571   0.667   6.561
11596TIP3    H134731   2.512   0.635   6.493
11596TIP3    H234732   2.514   0.693   6.633
11597TIP3   OH234733   5.657   6.538   5.562
11597TIP3    H134734   5.563   6.524   5.552
11597TIP3    H234735   5.684   6.586   5.484
11598TIP3   OH234736   0.095   2.386   0.793
11598TIP3    H134737   0.018   2.366   0.847
11598TIP3    H234738   0.128   2.469   0.829
11599TIP3   OH234739   7.418   6.895   2.801
11599TIP3    H134740   7.465   6.813   2.790
11599TIP3    H234741   7.448   6.950   2.728
11600TIP3   OH234742   8.074   6.521   5.353
11600TIP3    H134743   8.161   6.554   5.373
11600TIP3    H234744   8.069   6.437   5.398
11601TIP3   OH234745   7.040   3.861   6.727
11601TIP3    H134746   7.047   3.954   6.746
11601TIP3    H234747   7.088   3.818   6.797
11602TIP3   OH234748   4.185   0.755   4.949
11602TIP3    H134749   4.165   0.833   5.001
11602TIP3    H234750   4.155   0.682   5.003
11603TIP3   OH234751   8.206   1.555   4.018
11603TIP3    H134752   8.266   1.572   3.946
11603TIP3    H234753   8.196   1.639   4.062
11604TIP3   OH234754   1.223   6.424   1.389
11604TIP3    H134755   1.273   6.369   1.450
11604TIP3    H234756   1.135   6.386   1.389
11605TIP3   OH234757   6.455   1.524   5.077
11605TIP3    H134758   6.388   1.542   5.012
11605TIP3    H234759   6.515   1.464   5.033
11606TIP3   OH234760   3.204   3.978   5.060
11606TIP3    H134761   3.291   3.995   5.095
11606TIP3    H234762   3.158   4.062   5.068
11607TIP3   OH234763   2.691   1.300   4.260
11607TIP3    H134764   2.738   1.322   4.340
11607TIP3    H234765   2.760   1.295   4.193
11608TIP3   OH234766   2.054   1.234   6.619
11608TIP3    H134767   1.986   1.166   6.614
11608TIP3    H234768   2.063   1.251   6.713
11609TIP3   OH234769   7.625   6.041   0.283
11609TIP3    H134770   7.691   6.087   0.336
11609TIP3    H234771   7.674   5.972   0.239
11610TIP3   OH234772   8.207   3.021   6.307
11610TIP3    H134773   8.293   3.063   6.317
11610TIP3    H234774   8.147   3.094   6.292
11611TIP3   OH234775   2.305   2.829   6.332
11611TIP3    H134776   2.361   2.755   6.355
11611TIP3    H234777   2.360   2.884   6.276
11612TIP3   OH234778   6.904   7.847   5.305
11612TIP3    H134779   6.864   7.778   5.358
11612TIP3    H234780   6.947   7.800   5.233
11613TIP3   OH234781   0.472   4.881   3.689
11613TIP3    H134782   0.479   4.948   3.758
11613TIP3    H234783   0.562   4.865   3.662
11614TIP3   OH234784   2.801   6.556   2.338
11614TIP3    H134785   2.844   6.499   2.402
11614TIP3    H234786   2.724   6.590   2.385
11615TIP3   OH234787   4.708   3.937   0.491
11615TIP3    H134788   4.643   4.007   0.483
11615TIP3    H234789   4.791   3.978   0.465
11616TIP3   OH234790   2.278   5.024   4.491
11616TIP3    H134791   2.219   5.100   4.483
11616TIP3    H234792   2.221   4.949   4.476
11617TIP3   OH234793   7.737   2.160   3.446
11617TIP3    H134794   7.771   2.088   3.499
11617TIP3    H234795   7.780   2.149   3.361
11618TIP3   OH234796   2.503   0.222   6.283
11618TIP3    H134797   2.441   0.257   6.347
11618TIP3    H234798   2.497   0.127   6.293
11619TIP3   OH234799   0.785   1.669   4.874
11619TIP3    H134800   0.752   1.582   4.849
11619TIP3    H234801   0.880   1.658   4.881
11620TIP3   OH234802   7.268   5.220   2.569
11620TIP3    H134803   7.213   5.298   2.560
11620TIP3    H234804   7.320   5.236   2.647
11621TIP3   OH234805   3.252   3.303   0.041
11621TIP3    H134806   3.304   3.324   0.119
11621TIP3    H234807   3.185   3.243   0.073
11622TIP3   OH234808   1.771   3.394   1.784
11622TIP3    H134809   1.790   3.480   1.747
11622TIP3    H234810   1.720   3.411   1.862
11623TIP3   OH234811   3.601   5.841   6.155
11623TIP3    H134812   3.590   5.927   6.196
11623TIP3    H234813   3.683   5.807   6.192
11624TIP3   OH234814   7.546   1.071   0.916
11624TIP3    H134815   7.625   1.120   0.936
11624TIP3    H234816   7.577   0.989   0.878
11625TIP3   OH234817   0.380   7.151   5.106
11625TIP3    H134818   0.339   7.224   5.152
11625TIP3    H234819   0.317   7.127   5.038
11626TIP3   OH234820   0.391   1.251   0.049
11626TIP3    H134821   0.416   1.305   0.124
11626TIP3    H234822   0.335   1.308  -0.004
11627TIP3   OH234823   0.982   5.622   6.479
11627TIP3    H134824   1.070   5.655   6.459
11627TIP3    H234825   0.997   5.534   6.513
11628TIP3   OH234826   4.980   7.759   5.281
11628TIP3    H134827   4.946   7.762   5.371
11628TIP3    H234828   4.920   7.815   5.231
11629TIP3   OH234829   7.363   5.566   2.761
11629TIP3    H134830   7.407   5.538   2.680
11629TIP3    H234831   7.355   5.661   2.753
11630TIP3   OH234832   4.803   0.460   3.607
11630TIP3    H134833   4.847   0.391   3.656
11630TIP3    H234834   4.872   0.525   3.591
11631TIP3   OH234835   6.665   5.230   1.887
11631TIP3    H134836   6.678   5.165   1.956
11631TIP3    H234837   6.747   5.280   1.886
11632TIP3   OH234838   7.519   7.620   0.400
11632TIP3    H134839   7.503   7.715   0.395
11632TIP3    H234840   7.470   7.584   0.325
11633TIP3   OH234841   8.130   5.782   1.235
11633TIP3    H134842   8.186   5.820   1.303
11633TIP3    H234843   8.183   5.714   1.195
11634TIP3   OH234844   0.346   0.997   1.989
11634TIP3    H134845   0.290   1.065   2.027
11634TIP3    H234846   0.295   0.916   1.998
11635TIP3   OH234847   4.127   4.141   6.420
11635TIP3    H134848   4.146   4.129   6.327
11635TIP3    H234849   4.046   4.191   6.422
11636TIP3   OH234850   2.838   0.933   0.993
11636TIP3    H134851   2.912   0.952   0.936
11636TIP3    H234852   2.770   0.994   0.965
11637TIP3   OH234853   6.847   3.834   4.371
11637TIP3    H134854   6.925   3.888   4.386
11637TIP3    H234855   6.792   3.887   4.314
11638TIP3   OH234856   3.791   0.775   1.306
11638TIP3    H134857   3.711   0.828   1.297
11638TIP3    H234858   3.846   0.802   1.232
11639TIP3   OH234859   2.021   4.850   2.335
11639TIP3    H134860   2.108   4.855   2.375
11639TIP3    H234861   2.033   4.884   2.247
11640TIP3   OH234862   1.845   7.773   2.217
11640TIP3    H134863   1.911   7.727   2.270
11640TIP3    H234864   1.839   7.860   2.257
11641TIP3   OH234865   7.202   1.719   0.844
11641TIP3    H134866   7.281   1.684   0.802
11641TIP3    H234867   7.134   1.655   0.822
11642TIP3   OH234868   2.929   4.181   5.497
11642TIP3    H134869   2.891   4.232   5.425
11642TIP3    H234870   2.933   4.242   5.571
11643TIP3   OH234871   1.083   5.388   1.048
11643TIP3    H134872   1.178   5.386   1.038
11643TIP3    H234873   1.057   5.297   1.055
11644TIP3   OH234874   7.470   6.788   1.279
11644TIP3    H134875   7.531   6.725   1.241
11644TIP3    H234876   7.412   6.735   1.334
11645TIP3   OH234877   6.930   2.727   2.581
11645TIP3    H134878   6.892   2.666   2.518
11645TIP3    H234879   7.023   2.707   2.582
11646TIP3   OH234880   2.290   7.069   2.605
11646TIP3    H134881   2.352   7.103   2.669
11646TIP3    H234882   2.227   7.018   2.656
11647TIP3   OH234883   6.602   2.353   2.901
11647TIP3    H134884   6.605   2.387   2.991
11647TIP3    H234885   6.618   2.430   2.846
11648TIP3   OH234886   3.870   3.531   2.467
11648TIP3    H134887   3.939   3.578   2.515
11648TIP3    H234888   3.916   3.486   2.397
11649TIP3   OH234889   8.191   1.910   3.725
11649TIP3    H134890   8.135   1.981   3.694
11649TIP3    H234891   8.264   1.907   3.664
11650TIP3   OH234892   3.210   3.163   1.271
11650TIP3    H134893   3.190   3.073   1.292
11650TIP3    H234894   3.165   3.215   1.338
11651TIP3   OH234895   0.683   4.870   6.302
11651TIP3    H134896   0.675   4.827   6.217
11651TIP3    H234897   0.742   4.943   6.287
11652TIP3   OH234898   1.480   5.029   6.081
11652TIP3    H134899   1.493   5.041   6.175
11652TIP3    H234900   1.420   5.100   6.056
11653TIP3   OH234901   1.504   5.066   3.602
11653TIP3    H134902   1.417   5.027   3.603
11653TIP3    H234903   1.490   5.159   3.619
11654TIP3   OH234904   1.135   1.265   2.735
11654TIP3    H134905   1.154   1.182   2.690
11654TIP3    H234906   1.145   1.245   2.828
11655TIP3   OH234907   5.428   0.540   6.771
11655TIP3    H134908   5.337   0.529   6.743
11655TIP3    H234909   5.461   0.612   6.717
11656TIP3   OH234910   6.702   4.195   2.725
11656TIP3    H134911   6.722   4.166   2.636
11656TIP3    H234912   6.729   4.122   2.781
11657TIP3   OH234913   5.973   0.319   2.213
11657TIP3    H134914   5.899   0.356   2.166
11657TIP3    H234915   5.980   0.372   2.293
11658TIP3   OH234916   3.093   7.149   2.074
11658TIP3    H134917   3.165   7.209   2.055
11658TIP3    H234918   3.116   7.069   2.027
11659TIP3   OH234919   0.966   1.743   1.811
11659TIP3    H134920   1.061   1.740   1.803
11659TIP3    H234921   0.938   1.653   1.793
11660TIP3   OH234922   5.894   0.735   4.069
11660TIP3    H134923   5.846   0.670   4.120
11660TIP3    H234924   5.832   0.764   4.001
11661TIP3   OH234925   0.513   1.417   1.471
11661TIP3    H134926   0.565   1.490   1.506
11661TIP3    H234927   0.577   1.354   1.439
11662TIP3   OH234928   8.027   6.940   5.546
11662TIP3    H134929   8.050   6.949   5.638
11662TIP3    H234930   7.989   6.853   5.538
11663TIP3   OH234931   2.237   5.336   1.036
11663TIP3    H134932   2.322   5.318   1.076
11663TIP3    H234933   2.173   5.314   1.103
11664TIP3   OH234934   1.266   0.039   2.180
11664TIP3    H134935   1.205   0.096   2.133
11664TIP3    H234936   1.301  -0.020   2.113
11665TIP3   OH234937   1.725   1.616   6.175
11665TIP3    H134938   1.813   1.649   6.192
11665TIP3    H234939   1.673   1.695   6.158
11666TIP3   OH234940   4.354   5.917   1.658
11666TIP3    H134941   4.377   5.870   1.578
11666TIP3    H234942   4.395   6.003   1.648
11667TIP3   OH234943   6.894   2.841   3.628
11667TIP3    H134944   6.926   2.815   3.541
11667TIP3    H234945   6.808   2.801   3.636
11668TIP3   OH234946   1.518   1.820   0.648
11668TIP3    H134947   1.529   1.728   0.674
11668TIP3    H234948   1.452   1.818   0.579
11669TIP3   OH234949   6.654   6.758   1.222
11669TIP3    H134950   6.587   6.790   1.161
11669TIP3    H234951   6.638   6.808   1.302
11670TIP3   OH234952   2.902   1.842   0.919
11670TIP3    H134953   2.877   1.870   1.007
11670TIP3    H234954   2.821   1.807   0.882
11671TIP3   OH234955   6.132   6.868   5.941
11671TIP3    H134956   6.113   6.929   5.870
11671TIP3    H234957   6.053   6.869   5.995
11672TIP3   OH234958   4.663   5.038   2.573
11672TIP3    H134959   4.673   5.006   2.483
11672TIP3    H234960   4.636   5.129   2.563
11673TIP3   OH234961   1.549   4.804   1.415
11673TIP3    H134962   1.477   4.746   1.391
11673TIP3    H234963   1.626   4.764   1.376
11674TIP3   OH234964   4.104   1.890   1.315
11674TIP3    H134965   4.090   1.803   1.279
11674TIP3    H234966   4.185   1.920   1.272
11675TIP3   OH234967   0.864   0.225   4.720
11675TIP3    H134968   0.954   0.198   4.703
11675TIP3    H234969   0.855   0.309   4.675
11676TIP3   OH234970   0.762   0.225   0.414
11676TIP3    H134971   0.816   0.304   0.421
11676TIP3    H234972   0.752   0.196   0.505
11677TIP3   OH234973   5.615   4.770   5.132
11677TIP3    H134974   5.562   4.795   5.208
11677TIP3    H234975   5.553   4.767   5.059
11678TIP3   OH234976   2.906   4.885   0.163
11678TIP3    H134977   3.001   4.880   0.159
11678TIP3    H234978   2.880   4.927   0.081
11679TIP3   OH234979   6.871   3.595   4.956
11679TIP3    H134980   6.899   3.681   4.925
11679TIP3    H234981   6.950   3.541   4.951
11680TIP3   OH234982   8.015   1.126   4.956
11680TIP3    H134983   7.997   1.032   4.962
11680TIP3    H234984   8.044   1.152   5.043
11681TIP3   OH234985   0.016   2.442   2.231
11681TIP3    H134986   0.080   2.371   2.235
11681TIP3    H234987  -0.031   2.429   2.149
11682TIP3   OH234988   4.114   7.599   4.034
11682TIP3    H134989   4.197   7.645   4.049
11682TIP3    H234990   4.070   7.604   4.119
11683TIP3   OH234991   6.361   4.352   3.472
11683TIP3    H134992   6.445   4.380   3.508
11683TIP3    H234993   6.384   4.311   3.388
11684TIP3   OH234994   1.912   5.710   2.364
11684TIP3    H134995   2.000   5.733   2.333
11684TIP3    H234996   1.920   5.704   2.459
11685TIP3   OH234997   0.987   2.487   3.623
11685TIP3    H134998   0.894   2.491   3.645
11685TIP3    H234999   0.993   2.416   3.560
11686TIP3   OH235000   2.444   2.126   3.156
11686TIP3    H135001   2.389   2.051   3.135
11686TIP3    H235002   2.430   2.186   3.082
11687TIP3   OH235003   8.131   2.602   2.783
11687TIP3    H135004   8.082   2.520   2.792
11687TIP3    H235005   8.078   2.667   2.829
11688TIP3   OH235006   7.189   4.869   3.019
11688TIP3    H135007   7.117   4.932   3.015
11688TIP3    H235008   7.184   4.831   3.107
11689TIP3   OH235009   6.994   3.273   5.007
11689TIP3    H135010   7.089   3.274   5.000
11689TIP3    H235011   6.962   3.309   4.925
11690TIP3   OH235012   3.690   4.116   3.214
11690TIP3    H135013   3.615   4.059   3.204
11690TIP3    H235014   3.765   4.061   3.192
11691TIP3   OH235015   5.187   4.382   0.320
11691TIP3    H135016   5.227   4.467   0.338
11691TIP3    H235017   5.140   4.360   0.401
11692TIP3   OH235018   1.012   6.786   3.913
11692TIP3    H135019   1.058   6.711   3.875
11692TIP3    H235020   1.080   6.836   3.958
11693TIP3   OH235021   7.760   2.988   2.367
11693TIP3    H135022   7.810   3.033   2.435
11693TIP3    H235023   7.670   3.015   2.382
11694TIP3   OH235024   8.141   6.640   1.075
11694TIP3    H135025   8.131   6.673   0.986
11694TIP3    H235026   8.172   6.550   1.064
11695TIP3   OH235027   1.979   0.122   6.602
11695TIP3    H135028   1.904   0.181   6.592
11695TIP3    H235029   1.979   0.069   6.522
11696TIP3   OH235030   1.406   6.447   5.353
11696TIP3    H135031   1.425   6.367   5.403
11696TIP3    H235032   1.441   6.429   5.266
11697TIP3   OH235033   2.981   2.506   0.661
11697TIP3    H135034   3.028   2.429   0.694
11697TIP3    H235035   3.005   2.576   0.723
11698TIP3   OH235036   2.089   1.417   0.764
11698TIP3    H135037   2.007   1.461   0.787
11698TIP3    H235038   2.082   1.399   0.671
11699TIP3   OH235039  -0.041   6.062   1.508
11699TIP3    H135040  -0.067   6.087   1.419
11699TIP3    H235041   0.054   6.058   1.505
11700TIP3   OH235042   0.265   5.868   5.397
11700TIP3    H135043   0.266   5.957   5.431
11700TIP3    H235044   0.310   5.874   5.313
11701TIP3   OH235045   7.458   7.329   3.204
11701TIP3    H135046   7.371   7.289   3.193
11701TIP3    H235047   7.501   7.274   3.270
11702TIP3   OH235048   4.452   5.564   2.575
11702TIP3    H135049   4.460   5.653   2.541
11702TIP3    H235050   4.527   5.517   2.536
11703TIP3   OH235051   4.081   7.488   3.192
11703TIP3    H135052   4.097   7.563   3.134
11703TIP3    H235053   4.123   7.414   3.147
11704TIP3   OH235054   4.468   0.869   1.386
11704TIP3    H135055   4.454   0.775   1.377
11704TIP3    H235056   4.410   0.896   1.457
11705TIP3   OH235057   0.335   7.197   6.473
11705TIP3    H135058   0.277   7.236   6.408
11705TIP3    H235059   0.419   7.241   6.461
11706TIP3   OH235060   7.172   5.987   0.696
11706TIP3    H135061   7.086   6.010   0.660
11706TIP3    H235062   7.195   5.905   0.652
11707TIP3   OH235063   6.524   2.645   1.540
11707TIP3    H135064   6.559   2.579   1.480
11707TIP3    H235065   6.511   2.722   1.485
11708TIP3   OH235066   6.890   1.475   3.362
11708TIP3    H135067   6.968   1.520   3.331
11708TIP3    H235068   6.830   1.545   3.388
11709TIP3   OH235069   3.231   0.827   6.128
11709TIP3    H135070   3.163   0.894   6.131
11709TIP3    H235071   3.212   0.778   6.048
11710TIP3   OH235072   7.495   5.091   5.578
11710TIP3    H135073   7.564   5.115   5.639
11710TIP3    H235074   7.421   5.148   5.602
11711TIP3   OH235075   3.721   1.550   5.470
11711TIP3    H135076   3.688   1.615   5.408
11711TIP3    H235077   3.688   1.578   5.555
11712TIP3   OH235078   3.638   5.037   5.285
11712TIP3    H135079   3.585   5.097   5.232
11712TIP3    H235080   3.576   4.999   5.347
11713TIP3   OH235081   0.207   4.571   3.475
11713TIP3    H135082   0.207   4.667   3.470
11713TIP3    H235083   0.144   4.543   3.409
11714TIP3   OH235084   7.577   1.655   3.456
11714TIP3    H135085   7.636   1.580   3.447
11714TIP3    H235086   7.634   1.731   3.444
11715TIP3   OH235087   4.822   0.827   1.825
11715TIP3    H135088   4.737   0.871   1.823
11715TIP3    H235089   4.832   0.790   1.738
11716TIP3   OH235090   1.603   3.970   6.477
11716TIP3    H135091   1.645   3.906   6.420
11716TIP3    H235092   1.555   4.027   6.417
11717TIP3   OH235093   0.826   4.473   6.478
11717TIP3    H135094   0.837   4.408   6.548
11717TIP3    H235095   0.795   4.551   6.523
11718TIP3   OH235096   1.489   0.120   0.074
11718TIP3    H135097   1.502   0.119  -0.021
11718TIP3    H235098   1.450   0.206   0.092
11719TIP3   OH235099   3.299   2.976   1.977
11719TIP3    H135100   3.265   2.955   2.064
11719TIP3    H235101   3.235   3.038   1.941
11720TIP3   OH235102   3.091   3.263   5.465
11720TIP3    H135103   3.182   3.293   5.476
11720TIP3    H235104   3.050   3.330   5.410
11721TIP3   OH235105   6.880   2.059   0.533
11721TIP3    H135106   6.885   2.076   0.627
11721TIP3    H235107   6.971   2.046   0.506
11722TIP3   OH235108   3.801   1.806   0.410
11722TIP3    H135109   3.830   1.865   0.479
11722TIP3    H235110   3.719   1.845   0.377
11723TIP3   OH235111   4.659   3.802   5.579
11723TIP3    H135112   4.642   3.885   5.533
11723TIP3    H235113   4.740   3.818   5.627
11724TIP3   OH235114   2.236   7.490   3.429
11724TIP3    H135115   2.317   7.464   3.473
11724TIP3    H235116   2.168   7.476   3.494
11725TIP3   OH235117   0.377   4.010   1.636
11725TIP3    H135118   0.423   4.031   1.717
11725TIP3    H235119   0.284   4.021   1.657
11726TIP3   OH235120   3.900   0.727   0.176
11726TIP3    H135121   3.831   0.676   0.133
11726TIP3    H235122   3.979   0.674   0.163
11727TIP3   OH235123   6.506   0.723   3.503
11727TIP3    H135124   6.600   0.727   3.489
11727TIP3    H235125   6.496   0.700   3.595
11728TIP3   OH235126   6.919   7.308   4.492
11728TIP3    H135127   6.888   7.237   4.436
11728TIP3    H235128   6.970   7.364   4.433
11729TIP3   OH235129   5.650   0.819   0.469
11729TIP3    H135130   5.672   0.730   0.441
11729TIP3    H235131   5.718   0.874   0.429
11730TIP3   OH235132   1.133   7.465   5.841
11730TIP3    H135133   1.180   7.542   5.874
11730TIP3    H235134   1.045   7.498   5.820
11731TIP3   OH235135   4.789   5.026   4.901
11731TIP3    H135136   4.866   4.984   4.939
11731TIP3    H235137   4.795   5.005   4.807
11732TIP3   OH235138   7.807   0.633   2.037
11732TIP3    H135139   7.748   0.565   2.005
11732TIP3    H235140   7.867   0.649   1.964
11733TIP3   OH235141   5.091   3.291   2.518
11733TIP3    H135142   5.165   3.238   2.488
11733TIP3    H235143   5.068   3.253   2.603
11734TIP3   OH235144   2.224   6.223   0.185
11734TIP3    H135145   2.235   6.179   0.101
11734TIP3    H235146   2.181   6.157   0.241
11735TIP3   OH235147   2.220   3.801   5.516
11735TIP3    H135148   2.215   3.790   5.421
11735TIP3    H235149   2.163   3.733   5.551
11736TIP3   OH235150   3.461   1.573   4.368
11736TIP3    H135151   3.483   1.647   4.311
11736TIP3    H235152   3.483   1.496   4.316
11737TIP3   OH235153   2.602   0.368   6.695
11737TIP3    H135154   2.606   0.287   6.644
11737TIP3    H235155   2.675   0.421   6.662
11738TIP3   OH235156   4.315   4.381   4.895
11738TIP3    H135157   4.224   4.358   4.873
11738TIP3    H235158   4.319   4.476   4.882
11739TIP3   OH235159   6.330   7.147   3.553
11739TIP3    H135160   6.408   7.144   3.497
11739TIP3    H235161   6.347   7.083   3.622
11740TIP3   OH235162   2.136   4.041   3.252
11740TIP3    H135163   2.170   3.957   3.223
11740TIP3    H235164   2.206   4.080   3.304
11741TIP3   OH235165   6.850   4.900   0.576
11741TIP3    H135166   6.871   4.990   0.551
11741TIP3    H235167   6.757   4.891   0.559
11742TIP3   OH235168   6.483   4.253   2.874
11742TIP3    H135169   6.488   4.233   2.968
11742TIP3    H235170   6.568   4.226   2.840
11743TIP3   OH235171   5.322   4.599   2.846
11743TIP3    H135172   5.338   4.548   2.925
11743TIP3    H235173   5.230   4.580   2.824
11744TIP3   OH235174   7.773   3.902   1.224
11744TIP3    H135175   7.781   3.939   1.136
11744TIP3    H235176   7.862   3.877   1.248
11745TIP3   OH235177   3.394   2.696   4.752
11745TIP3    H135178   3.356   2.704   4.665
11745TIP3    H235179   3.377   2.606   4.778
11746TIP3   OH235180   4.419   2.505   1.211
11746TIP3    H135181   4.476   2.580   1.225
11746TIP3    H235182   4.377   2.490   1.295
11747TIP3   OH235183   1.537   6.515   6.566
11747TIP3    H135184   1.481   6.482   6.636
11747TIP3    H235185   1.499   6.479   6.486
11748TIP3   OH235186   2.256   1.374   0.296
11748TIP3    H135187   2.220   1.409   0.215
11748TIP3    H235188   2.333   1.428   0.314
11749TIP3   OH235189   5.756   4.067   3.658
11749TIP3    H135190   5.699   4.139   3.634
11749TIP3    H235191   5.706   4.015   3.720
11750TIP3   OH235192   5.328   4.975   0.970
11750TIP3    H135193   5.295   5.020   0.893
11750TIP3    H235194   5.420   5.002   0.977
11751TIP3   OH235195   6.566   7.671   4.327
11751TIP3    H135196   6.616   7.604   4.280
11751TIP3    H235197   6.494   7.693   4.267
11752TIP3   OH235198   3.002   7.352   5.417
11752TIP3    H135199   3.055   7.279   5.449
11752TIP3    H235200   2.921   7.346   5.467
11753TIP3   OH235201   5.049   2.549   1.874
11753TIP3    H135202   5.124   2.576   1.927
11753TIP3    H235203   5.033   2.624   1.816
11754TIP3   OH235204   0.890   1.358   1.861
11754TIP3    H135205   0.881   1.434   1.804
11754TIP3    H235206   0.898   1.284   1.801
11755TIP3   OH235207   0.096   2.275   4.062
11755TIP3    H135208   0.068   2.186   4.037
11755TIP3    H235209   0.170   2.261   4.121
11756TIP3   OH235210   2.521   0.188   4.157
11756TIP3    H135211   2.472   0.108   4.178
11756TIP3    H235212   2.595   0.157   4.105
11757TIP3   OH235213   6.433   7.538   3.844
11757TIP3    H135214   6.385   7.532   3.762
11757TIP3    H235215   6.444   7.447   3.872
11758TIP3   OH235216   8.054   5.156   3.598
11758TIP3    H135217   8.056   5.213   3.521
11758TIP3    H235218   8.139   5.170   3.639
11759TIP3   OH235219   1.133   4.474   2.079
11759TIP3    H135220   1.171   4.465   1.991
11759TIP3    H235221   1.209   4.484   2.136
11760TIP3   OH235222   5.443   0.141   3.595
11760TIP3    H135223   5.422   0.210   3.532
11760TIP3    H235224   5.395   0.166   3.674
11761TIP3   OH235225   1.729   7.783   0.776
11761TIP3    H135226   1.739   7.707   0.833
11761TIP3    H235227   1.716   7.746   0.689
11762TIP3   OH235228   4.181   2.947   6.316
11762TIP3    H135229   4.211   2.981   6.232
11762TIP3    H235230   4.096   2.990   6.330
11763TIP3   OH235231   5.771   3.186   4.348
11763TIP3    H135232   5.758   3.280   4.359
11763TIP3    H235233   5.866   3.174   4.351
11764TIP3   OH235234   1.438   0.342   1.009
11764TIP3    H135235   1.431   0.262   1.062
11764TIP3    H235236   1.408   0.411   1.068
11765TIP3   OH235237   3.047   7.337   2.566
11765TIP3    H135238   3.056   7.258   2.514
11765TIP3    H235239   2.983   7.315   2.633
11766TIP3   OH235240   2.489   7.348   6.430
11766TIP3    H135241   2.548   7.304   6.370
11766TIP3    H235242   2.524   7.437   6.439
11767TIP3   OH235243   7.919   7.337   2.603
11767TIP3    H135244   7.910   7.248   2.636
11767TIP3    H235245   7.887   7.332   2.513
11768TIP3   OH235246   2.560   4.591   5.979
11768TIP3    H135247   2.499   4.540   6.033
11768TIP3    H235248   2.507   4.659   5.939
11769TIP3   OH235249   0.968   3.904   1.666
11769TIP3    H135250   0.984   3.986   1.712
11769TIP3    H235251   0.874   3.905   1.646
11770TIP3   OH235252   3.633   0.759   2.026
11770TIP3    H135253   3.715   0.768   1.977
11770TIP3    H235254   3.565   0.774   1.960
11771TIP3   OH235255   2.706   4.689   6.174
11771TIP3    H135256   2.654   4.645   6.107
11771TIP3    H235257   2.797   4.678   6.146
11772TIP3   OH235258   3.572   6.994   4.112
11772TIP3    H135259   3.526   7.078   4.117
11772TIP3    H235260   3.525   6.937   4.173
11773TIP3   OH235261   7.390   7.527   0.179
11773TIP3    H135262   7.384   7.601   0.119
11773TIP3    H235263   7.310   7.531   0.231
11774TIP3   OH235264   4.176   5.898   3.100
11774TIP3    H135265   4.262   5.883   3.139
11774TIP3    H235266   4.181   5.986   3.063
11775TIP3   OH235267   5.813   0.109   2.511
11775TIP3    H135268   5.896   0.145   2.479
11775TIP3    H235269   5.788   0.166   2.583
11776TIP3   OH235270   0.939   0.608   0.745
11776TIP3    H135271   1.031   0.583   0.753
11776TIP3    H235272   0.936   0.663   0.666
11777TIP3   OH235273   4.814   6.644   6.307
11777TIP3    H135274   4.868   6.600   6.373
11777TIP3    H235275   4.765   6.573   6.264
11778TIP3   OH235276   0.106   2.217   5.312
11778TIP3    H135277   0.018   2.179   5.318
11778TIP3    H235278   0.113   2.246   5.221
11779TIP3   OH235279   1.229   4.077   3.636
11779TIP3    H135280   1.286   4.114   3.569
11779TIP3    H235281   1.254   4.122   3.716
11780TIP3   OH235282   0.142   2.773   3.282
11780TIP3    H135283   0.206   2.786   3.352
11780TIP3    H235284   0.069   2.831   3.305
11781TIP3   OH235285   5.246   6.938   1.913
11781TIP3    H135286   5.289   6.873   1.970
11781TIP3    H235287   5.308   7.011   1.910
11782TIP3   OH235288   5.914   2.990   5.156
11782TIP3    H135289   5.983   2.942   5.109
11782TIP3    H235290   5.962   3.042   5.221
11783TIP3   OH235291   2.809   1.026   2.579
11783TIP3    H135292   2.861   0.983   2.646
11783TIP3    H235293   2.719   1.023   2.613
11784TIP3   OH235294   5.236   2.897   0.384
11784TIP3    H135295   5.319   2.892   0.337
11784TIP3    H235296   5.260   2.884   0.476
11785TIP3   OH235297   7.327   5.260   6.061
11785TIP3    H135298   7.237   5.232   6.046
11785TIP3    H235299   7.328   5.351   6.030
11786TIP3   OH235300   0.809   4.015   5.785
11786TIP3    H135301   0.744   3.952   5.817
11786TIP3    H235302   0.816   3.997   5.692
11787TIP3   OH235303   2.614   1.337   4.939
11787TIP3    H135304   2.643   1.254   4.901
11787TIP3    H235305   2.588   1.390   4.863
11788TIP3   OH235306   2.272   3.803   5.025
11788TIP3    H135307   2.267   3.837   4.936
11788TIP3    H235308   2.343   3.852   5.066
11789TIP3   OH235309   6.050   1.880   2.852
11789TIP3    H135310   6.094   1.795   2.845
11789TIP3    H235311   5.967   1.867   2.806
11790TIP3   OH235312   7.866   5.667   1.666
11790TIP3    H135313   7.879   5.677   1.572
11790TIP3    H235314   7.796   5.729   1.687
11791TIP3   OH235315   2.667   5.958   1.358
11791TIP3    H135316   2.708   5.911   1.284
11791TIP3    H235317   2.667   6.050   1.331
11792TIP3   OH235318   7.906   4.036   6.614
11792TIP3    H135319   7.941   4.019   6.701
11792TIP3    H235320   7.976   4.008   6.555
11793TIP3   OH235321   1.369   3.059   4.695
11793TIP3    H135322   1.321   3.125   4.645
11793TIP3    H235323   1.461   3.076   4.675
11794TIP3   OH235324   2.546   3.853   1.881
11794TIP3    H135325   2.520   3.916   1.948
11794TIP3    H235326   2.498   3.773   1.903
11795TIP3   OH235327   1.814   1.766   4.703
11795TIP3    H135328   1.800   1.737   4.793
11795TIP3    H235329   1.891   1.822   4.707
11796TIP3   OH235330   7.518   4.081   0.462
11796TIP3    H135331   7.433   4.048   0.434
11796TIP3    H235332   7.500   4.168   0.496
11797TIP3   OH235333   4.693   3.188   5.628
11797TIP3    H135334   4.693   3.113   5.568
11797TIP3    H235335   4.615   3.238   5.603
11798TIP3   OH235336   2.525   2.013   4.926
11798TIP3    H135337   2.544   2.068   5.002
11798TIP3    H235338   2.590   1.943   4.931
11799TIP3   OH235339   0.332   3.132   3.058
11799TIP3    H135340   0.345   3.147   3.152
11799TIP3    H235341   0.413   3.091   3.029
11800TIP3   OH235342   2.689   3.693   5.471
11800TIP3    H135343   2.733   3.778   5.477
11800TIP3    H235344   2.597   3.715   5.459
11801TIP3   OH235345   7.263   6.556   2.201
11801TIP3    H135346   7.273   6.595   2.287
11801TIP3    H235347   7.328   6.485   2.199
11802TIP3   OH235348   6.825   2.008   6.242
11802TIP3    H135349   6.819   1.930   6.188
11802TIP3    H235350   6.737   2.020   6.278
11803TIP3   OH235351   2.864   6.251   1.579
11803TIP3    H135352   2.868   6.253   1.674
11803TIP3    H235353   2.771   6.256   1.559
11804TIP3   OH235354   0.850   1.389   6.638
11804TIP3    H135355   0.799   1.455   6.591
11804TIP3    H235356   0.928   1.435   6.668
11805TIP3   OH235357   4.967   7.413   4.806
11805TIP3    H135358   5.008   7.446   4.726
11805TIP3    H235359   4.873   7.414   4.787
11806TIP3   OH235360   7.644   3.689   1.040
11806TIP3    H135361   7.661   3.760   0.979
11806TIP3    H235362   7.644   3.730   1.126
11807TIP3   OH235363   4.786   6.292   3.175
11807TIP3    H135364   4.715   6.355   3.179
11807TIP3    H235365   4.779   6.242   3.257
11808TIP3   OH235366   6.734   1.679   5.834
11808TIP3    H135367   6.788   1.703   5.759
11808TIP3    H235368   6.646   1.709   5.811
11809TIP3   OH235369   4.952   0.378   3.046
11809TIP3    H135370   4.918   0.303   3.094
11809TIP3    H235371   4.875   0.418   3.005
11810TIP3   OH235372   6.345   1.472   6.142
11810TIP3    H135373   6.441   1.473   6.151
11810TIP3    H235374   6.315   1.545   6.196
11811TIP3   OH235375   5.758   6.863   0.861
11811TIP3    H135376   5.787   6.773   0.852
11811TIP3    H235377   5.773   6.884   0.953
11812TIP3   OH235378   0.530   6.424   3.524
11812TIP3    H135379   0.507   6.408   3.616
11812TIP3    H235380   0.446   6.425   3.478
11813TIP3   OH235381   6.977   7.159   2.012
11813TIP3    H135382   7.017   7.108   1.942
11813TIP3    H235383   7.010   7.248   2.000
11814TIP3   OH235384   8.028   6.890   4.460
11814TIP3    H135385   8.117   6.906   4.492
11814TIP3    H235386   7.991   6.978   4.448
11815TIP3   OH235387   3.043   6.090   5.880
11815TIP3    H135388   3.130   6.128   5.867
11815TIP3    H235389   2.986   6.166   5.893
11816TIP3   OH235390   1.648   5.578   2.304
11816TIP3    H135391   1.721   5.623   2.347
11816TIP3    H235392   1.682   5.553   2.218
11817TIP3   OH235393   2.523   6.556   2.191
11817TIP3    H135394   2.573   6.476   2.203
11817TIP3    H235395   2.588   6.626   2.196
11818TIP3   OH235396   7.526   2.217   4.334
11818TIP3    H135397   7.591   2.261   4.280
11818TIP3    H235398   7.510   2.133   4.290
11819TIP3   OH235399   4.566   5.689   1.664
11819TIP3    H135400   4.597   5.773   1.698
11819TIP3    H235401   4.474   5.706   1.642
11820TIP3   OH235402   8.124   6.542   5.814
11820TIP3    H135403   8.065   6.473   5.788
11820TIP3    H235404   8.093   6.569   5.901
11821TIP3   OH235405   8.065   5.900   1.842
11821TIP3    H135406   8.027   5.977   1.799
11821TIP3    H235407   8.013   5.890   1.922
11822TIP3   OH235408   1.862   1.754   0.625
11822TIP3    H135409   1.949   1.747   0.586
11822TIP3    H235410   1.849   1.671   0.671
11823TIP3   OH235411   0.162   0.109   1.188
11823TIP3    H135412   0.133   0.071   1.271
11823TIP3    H235413   0.211   0.038   1.145
11824TIP3   OH235414   5.505   3.621   4.242
11824TIP3    H135415   5.549   3.637   4.159
11824TIP3    H235416   5.474   3.707   4.269
11825TIP3   OH235417   1.804   0.426   1.681
11825TIP3    H135418   1.746   0.421   1.605
11825TIP3    H235419   1.889   0.396   1.648
11826TIP3   OH235420   2.442   2.664   2.316
11826TIP3    H135421   2.431   2.699   2.227
11826TIP3    H235422   2.487   2.581   2.304
11827TIP3   OH235423   3.775   1.284   0.155
11827TIP3    H135424   3.696   1.291   0.100
11827TIP3    H235425   3.837   1.345   0.115
11828TIP3   OH235426   0.424   6.359   5.709
11828TIP3    H135427   0.448   6.377   5.618
11828TIP3    H235428   0.504   6.326   5.750
11829TIP3   OH235429   2.545   4.774   1.145
11829TIP3    H135430   2.556   4.746   1.055
11829TIP3    H235431   2.552   4.693   1.196
11830TIP3   OH235432   5.308   6.786   6.104
11830TIP3    H135433   5.282   6.724   6.036
11830TIP3    H235434   5.403   6.776   6.112
11831TIP3   OH235435   1.789   3.503   0.591
11831TIP3    H135436   1.805   3.495   0.685
11831TIP3    H235437   1.856   3.449   0.550
11832TIP3   OH235438   5.623   3.282   2.675
11832TIP3    H135439   5.646   3.311   2.763
11832TIP3    H235440   5.684   3.210   2.658
11833TIP3   OH235441   3.416   1.677   6.531
11833TIP3    H135442   3.452   1.612   6.591
11833TIP3    H235443   3.420   1.760   6.579
11834TIP3   OH235444   6.637   4.286   4.065
11834TIP3    H135445   6.600   4.374   4.061
11834TIP3    H235446   6.593   4.245   4.140
11835TIP3   OH235447   1.196   0.914   3.099
11835TIP3    H135448   1.250   0.984   3.063
11835TIP3    H235449   1.131   0.959   3.153
11836TIP3   OH235450   6.540   6.403   2.043
11836TIP3    H135451   6.569   6.469   1.980
11836TIP3    H235452   6.575   6.321   2.009
11837TIP3   OH235453   7.655   1.183   3.941
11837TIP3    H135454   7.617   1.137   4.016
11837TIP3    H235455   7.749   1.171   3.952
11838TIP3   OH235456   2.141   2.156   6.843
11838TIP3    H135457   2.073   2.139   6.778
11838TIP3    H235458   2.206   2.209   6.797
11839TIP3   OH235459   4.016   5.715   2.001
11839TIP3    H135460   4.077   5.757   1.940
11839TIP3    H235461   4.025   5.622   1.984
11840TIP3   OH235462   7.330   0.236   5.564
11840TIP3    H135463   7.347   0.145   5.588
11840TIP3    H235464   7.270   0.230   5.490
11841TIP3   OH235465   1.583   2.806   4.084
11841TIP3    H135466   1.646   2.877   4.094
11841TIP3    H235467   1.570   2.797   3.990
11842TIP3   OH235468   0.709   5.945   1.998
11842TIP3    H135469   0.748   6.030   1.980
11842TIP3    H235470   0.774   5.882   1.968
11843TIP3   OH235471   0.302   6.859   5.377
11843TIP3    H135472   0.249   6.863   5.297
11843TIP3    H235473   0.374   6.799   5.356
11844TIP3   OH235474   2.945   5.814   4.279
11844TIP3    H135475   2.931   5.724   4.252
11844TIP3    H235476   2.869   5.862   4.246
11845TIP3   OH235477   3.178   3.411   1.104
11845TIP3    H135478   3.168   3.496   1.148
11845TIP3    H235479   3.156   3.346   1.171
11846TIP3   OH235480   1.611   0.131   2.737
11846TIP3    H135481   1.571   0.143   2.823
11846TIP3    H235482   1.684   0.194   2.736
11847TIP3   OH235483   2.580   7.605   6.460
11847TIP3    H135484   2.580   7.697   6.487
11847TIP3    H235485   2.581   7.608   6.364
11848TIP3   OH235486   6.914   3.640   2.779
11848TIP3    H135487   6.873   3.572   2.832
11848TIP3    H235488   6.842   3.677   2.728
11849TIP3   OH235489   5.239   0.711   0.100
11849TIP3    H135490   5.314   0.769   0.106
11849TIP3    H235491   5.182   0.736   0.173
11850TIP3   OH235492   7.068   4.243   0.506
11850TIP3    H135493   7.096   4.251   0.415
11850TIP3    H235494   7.149   4.248   0.557
11851TIP3   OH235495   1.352   1.838   6.038
11851TIP3    H135496   1.438   1.807   6.011
11851TIP3    H235497   1.332   1.787   6.117
11852TIP3   OH235498   1.424   5.644   3.105
11852TIP3    H135499   1.441   5.565   3.053
11852TIP3    H235500   1.367   5.697   3.050
11853TIP3   OH235501   0.787   3.688   5.204
11853TIP3    H135502   0.805   3.776   5.237
11853TIP3    H235503   0.845   3.679   5.128
11854TIP3   OH235504   2.186   1.159   1.369
11854TIP3    H135505   2.180   1.155   1.274
11854TIP3    H235506   2.164   1.071   1.398
11855TIP3   OH235507   0.241   4.449   0.877
11855TIP3    H135508   0.319   4.505   0.868
11855TIP3    H235509   0.260   4.393   0.952
11856TIP3   OH235510   3.598   4.478   4.185
11856TIP3    H135511   3.591   4.573   4.194
11856TIP3    H235512   3.520   4.444   4.229
11857TIP3   OH235513   1.998   4.420   0.876
11857TIP3    H135514   2.068   4.407   0.812
11857TIP3    H235515   1.920   4.439   0.823
11858TIP3   OH235516   2.545   3.159   0.203
11858TIP3    H135517   2.536   3.246   0.241
11858TIP3    H235518   2.455   3.130   0.187
11859TIP3   OH235519   7.844   0.640   2.908
11859TIP3    H135520   7.917   0.696   2.881
11859TIP3    H235521   7.776   0.702   2.934
11860TIP3   OH235522   5.888   4.416   1.532
11860TIP3    H135523   5.798   4.409   1.502
11860TIP3    H235524   5.883   4.464   1.614
11861TIP3   OH235525   4.047   7.207   2.647
11861TIP3    H135526   4.060   7.114   2.668
11861TIP3    H235527   4.129   7.249   2.672
11862TIP3   OH235528   0.870   4.732   2.926
11862TIP3    H135529   0.822   4.772   2.853
11862TIP3    H235530   0.925   4.803   2.960
11863TIP3   OH235531   7.132   7.355   1.885
11863TIP3    H135532   7.146   7.430   1.942
11863TIP3    H235533   7.219   7.316   1.874
11864TIP3   OH235534   1.895   7.237   5.478
11864TIP3    H135535   1.858   7.311   5.526
11864TIP3    H235536   1.968   7.208   5.533
11865TIP3   OH235537   5.956   3.378   4.202
11865TIP3    H135538   5.940   3.396   4.295
11865TIP3    H235539   5.912   3.449   4.155
11866TIP3   OH235540   3.337   6.659   1.173
11866TIP3    H135541   3.334   6.712   1.253
11866TIP3    H235542   3.429   6.662   1.147
11867TIP3   OH235543   6.942   0.417   5.026
11867TIP3    H135544   6.934   0.338   4.973
11867TIP3    H235545   7.033   0.417   5.055
11868TIP3   OH235546   7.815   7.713   3.263
11868TIP3    H135547   7.761   7.649   3.216
11868TIP3    H235548   7.838   7.669   3.345
11869TIP3   OH235549   0.209   7.814   3.284
11869TIP3    H135550   0.243   7.734   3.243
11869TIP3    H235551   0.188   7.871   3.210
11870TIP3   OH235552   5.212   4.789   2.068
11870TIP3    H135553   5.282   4.853   2.082
11870TIP3    H235554   5.176   4.773   2.155
11871TIP3   OH235555   3.753   7.282   3.240
11871TIP3    H135556   3.726   7.363   3.197
11871TIP3    H235557   3.838   7.303   3.279
11872TIP3   OH235558   7.744   4.022   6.065
11872TIP3    H135559   7.755   3.939   6.017
11872TIP3    H235560   7.684   4.072   6.011
11873TIP3   OH235561   0.926   7.087   4.318
11873TIP3    H135562   0.881   7.171   4.308
11873TIP3    H235563   1.014   7.103   4.282
11874TIP3   OH235564   4.301   2.903   4.201
11874TIP3    H135565   4.370   2.894   4.135
11874TIP3    H235566   4.264   2.815   4.210
11875TIP3   OH235567   1.488   1.781   3.726
11875TIP3    H135568   1.540   1.810   3.651
11875TIP3    H235569   1.434   1.710   3.692
11876TIP3   OH235570   4.790   2.976   0.295
11876TIP3    H135571   4.849   3.034   0.247
11876TIP3    H235572   4.840   2.950   0.372
11877TIP3   OH235573   2.704   2.695   5.393
11877TIP3    H135574   2.616   2.656   5.392
11877TIP3    H235575   2.761   2.625   5.360
11878TIP3   OH235576   6.090   5.277   5.077
11878TIP3    H135577   6.102   5.231   4.994
11878TIP3    H235578   6.169   5.257   5.128
11879TIP3   OH235579   5.837   2.766   3.971
11879TIP3    H135580   5.901   2.837   3.974
11879TIP3    H235581   5.806   2.759   4.062
11880TIP3   OH235582   0.513   4.725   5.904
11880TIP3    H135583   0.466   4.642   5.899
11880TIP3    H235584   0.602   4.705   5.876
11881TIP3   OH235585   4.946   4.088   2.849
11881TIP3    H135586   4.879   4.154   2.833
11881TIP3    H235587   5.021   4.138   2.881
11882TIP3   OH235588   7.068   3.118   0.856
11882TIP3    H135589   7.124   3.117   0.933
11882TIP3    H235590   6.981   3.140   0.890
11883TIP3   OH235591   4.706   4.585   0.811
11883TIP3    H135592   4.647   4.659   0.800
11883TIP3    H235593   4.674   4.541   0.890
11884TIP3   OH235594   6.532   2.719   5.778
11884TIP3    H135595   6.452   2.748   5.734
11884TIP3    H235596   6.502   2.687   5.863
11885TIP3   OH235597   5.606  -0.050   3.752
11885TIP3    H135598   5.698  -0.045   3.727
11885TIP3    H235599   5.559  -0.002   3.683
11886TIP3   OH235600   7.163   3.250   3.747
11886TIP3    H135601   7.254   3.239   3.775
11886TIP3    H235602   7.144   3.170   3.697
11887TIP3   OH235603   1.293   1.827   0.851
11887TIP3    H135604   1.359   1.759   0.839
11887TIP3    H235605   1.271   1.855   0.762
11888TIP3   OH235606   2.463   7.232   3.656
11888TIP3    H135607   2.493   7.187   3.735
11888TIP3    H235608   2.369   7.244   3.670
11889TIP3   OH235609   0.286   3.258   6.088
11889TIP3    H135610   0.209   3.311   6.065
11889TIP3    H235611   0.253   3.168   6.090
11890TIP3   OH235612   5.223   3.888   3.473
11890TIP3    H135613   5.183   3.851   3.552
11890TIP3    H235614   5.152   3.891   3.409
11891TIP3   OH235615   5.396   1.907   0.642
11891TIP3    H135616   5.386   1.966   0.717
11891TIP3    H235617   5.308   1.872   0.627
11892TIP3   OH235618   5.813   6.524   4.183
11892TIP3    H135619   5.785   6.543   4.273
11892TIP3    H235620   5.898   6.568   4.176
11893TIP3   OH235621   1.828   6.503   5.083
11893TIP3    H135622   1.764   6.574   5.080
11893TIP3    H235623   1.882   6.523   5.159
11894TIP3   OH235624   1.123   7.378   5.520
11894TIP3    H135625   1.071   7.314   5.568
11894TIP3    H235626   1.202   7.390   5.572
11895TIP3   OH235627   1.644   2.325   2.690
11895TIP3    H135628   1.721   2.357   2.642
11895TIP3    H235629   1.673   2.243   2.730
11896TIP3   OH235630   4.125   3.218   3.240
11896TIP3    H135631   4.035   3.185   3.244
11896TIP3    H235632   4.119   3.306   3.277
11897TIP3   OH235633   3.493   4.437   1.052
11897TIP3    H135634   3.537   4.383   1.117
11897TIP3    H235635   3.440   4.376   1.002
11898TIP3   OH235636   5.242   3.221   5.051
11898TIP3    H135637   5.287   3.269   5.121
11898TIP3    H235638   5.311   3.169   5.009
11899TIP3   OH235639   6.848   3.389   2.976
11899TIP3    H135640   6.764   3.409   3.017
11899TIP3    H235641   6.864   3.297   2.996
11900TIP3   OH235642   1.485   4.171   6.329
11900TIP3    H135643   1.417   4.238   6.330
11900TIP3    H235644   1.567   4.220   6.332
11901TIP3   OH235645   8.124   6.935   4.151
11901TIP3    H135646   8.191   6.866   4.160
11901TIP3    H235647   8.155   7.005   4.209
11902TIP3   OH235648   3.934   1.211   5.099
11902TIP3    H135649   3.866   1.259   5.147
11902TIP3    H235650   3.991   1.279   5.064
11903TIP3   OH235651   8.132   3.746   2.239
11903TIP3    H135652   8.163   3.797   2.314
11903TIP3    H235653   8.094   3.667   2.278
11904TIP3   OH235654   1.376   0.376   2.505
11904TIP3    H135655   1.400   0.303   2.449
11904TIP3    H235656   1.456   0.397   2.554
11905TIP3   OH235657   2.379   5.873   1.286
11905TIP3    H135658   2.456   5.866   1.342
11905TIP3    H235659   2.356   5.783   1.264
11906TIP3   OH235660   1.450   5.588   2.480
11906TIP3    H135661   1.514   5.577   2.410
11906TIP3    H235662   1.500   5.578   2.561
11907TIP3   OH235663   0.403   0.876   2.284
11907TIP3    H135664   0.484   0.824   2.276
11907TIP3    H235665   0.334   0.817   2.252
11908TIP3   OH235666   7.066   1.258   2.208
11908TIP3    H135667   7.034   1.214   2.129
11908TIP3    H235668   6.997   1.320   2.231
11909TIP3   OH235669   2.418   7.353   5.445
11909TIP3    H135670   2.373   7.383   5.524
11909TIP3    H235671   2.348   7.342   5.380
11910TIP3   OH235672   4.113   1.938   5.305
11910TIP3    H135673   4.163   1.933   5.224
11910TIP3    H235674   4.050   1.866   5.299
11911TIP3   OH235675   3.834   2.476   1.818
11911TIP3    H135676   3.819   2.439   1.905
11911TIP3    H235677   3.747   2.498   1.786
11912TIP3   OH235678   2.245   0.182   6.530
11912TIP3    H135679   2.168   0.140   6.570
11912TIP3    H235680   2.285   0.113   6.478
11913TIP3   OH235681   7.981   6.088   2.548
11913TIP3    H135682   7.964   6.173   2.507
11913TIP3    H235683   8.057   6.054   2.502
11914TIP3   OH235684   0.176   3.569   3.551
11914TIP3    H135685   0.131   3.567   3.467
11914TIP3    H235686   0.242   3.500   3.544
11915TIP3   OH235687   3.623   5.923   1.769
11915TIP3    H135688   3.565   5.990   1.733
11915TIP3    H235689   3.687   5.907   1.699
11916TIP3   OH235690   0.826   1.056   2.550
11916TIP3    H135691   0.811   1.148   2.573
11916TIP3    H235692   0.886   1.024   2.617
11917TIP3   OH235693   4.601   3.116   2.298
11917TIP3    H135694   4.696   3.109   2.288
11917TIP3    H235695   4.570   3.026   2.290
11918TIP3   OH235696   1.240   0.841   4.921
11918TIP3    H135697   1.176   0.780   4.958
11918TIP3    H235698   1.189   0.915   4.891
11919TIP3   OH235699   2.112   7.796   6.299
11919TIP3    H135700   2.196   7.808   6.344
11919TIP3    H235701   2.055   7.863   6.336
11920TIP3   OH235702   1.916   0.417   0.241
11920TIP3    H135703   1.941   0.414   0.333
11920TIP3    H235704   1.965   0.346   0.200
11921TIP3   OH235705   3.347   3.604   3.452
11921TIP3    H135706   3.343   3.519   3.496
11921TIP3    H235707   3.410   3.591   3.381
11922TIP3   OH235708   2.655   2.290   6.366
11922TIP3    H135709   2.733   2.328   6.325
11922TIP3    H235710   2.688   2.244   6.443
11923TIP3   OH235711   0.145   3.101   5.011
11923TIP3    H135712   0.153   3.017   5.056
11923TIP3    H235713   0.052   3.123   5.016
11924TIP3   OH235714   1.119   1.230   3.018
11924TIP3    H135715   1.170   1.203   3.094
11924TIP3    H235716   1.029   1.239   3.050
11925TIP3   OH235717   5.802   3.709   5.276
11925TIP3    H135718   5.896   3.694   5.271
11925TIP3    H235719   5.770   3.646   5.341
11926TIP3   OH235720   5.097   0.367   1.367
11926TIP3    H135721   5.167   0.433   1.368
11926TIP3    H235722   5.143   0.284   1.359
11927TIP3   OH235723   0.529   2.411   1.598
11927TIP3    H135724   0.545   2.447   1.511
11927TIP3    H235725   0.577   2.328   1.600
11928TIP3   OH235726   8.191   3.988   5.371
11928TIP3    H135727   8.124   3.997   5.304
11928TIP3    H235728   8.273   3.976   5.321
11929TIP3   OH235729   3.803   4.502   4.957
11929TIP3    H135730   3.809   4.410   4.981
11929TIP3    H235731   3.725   4.534   5.001
11930TIP3   OH235732   5.248   0.535   2.962
11930TIP3    H135733   5.204   0.489   2.891
11930TIP3    H235734   5.267   0.467   3.027
11931TIP3   OH235735   7.689   2.307   3.682
11931TIP3    H135736   7.758   2.284   3.743
11931TIP3    H235737   7.674   2.227   3.631
11932TIP3   OH235738   3.514   4.410   2.137
11932TIP3    H135739   3.572   4.348   2.181
11932TIP3    H235740   3.426   4.376   2.153
11933TIP3   OH235741   4.856   0.871   0.314
11933TIP3    H135742   4.951   0.886   0.317
11933TIP3    H235743   4.820   0.951   0.276
11934TIP3   OH235744   5.773   6.700   4.989
11934TIP3    H135745   5.856   6.680   5.031
11934TIP3    H235746   5.708   6.649   5.038
11935TIP3   OH235747   7.289   3.124   1.342
11935TIP3    H135748   7.221   3.088   1.286
11935TIP3    H235749   7.291   3.065   1.418
11936TIP3   OH235750   5.590   4.672   2.694
11936TIP3    H135751   5.676   4.641   2.666
11936TIP3    H235752   5.608   4.723   2.773
11937TIP3   OH235753   1.635   1.106   3.697
11937TIP3    H135754   1.728   1.110   3.674
11937TIP3    H235755   1.629   1.149   3.782
11938TIP3   OH235756   2.616   0.683   3.181
11938TIP3    H135757   2.705   0.649   3.176
11938TIP3    H235758   2.603   0.731   3.099
11939TIP3   OH235759   2.329   3.872   3.575
11939TIP3    H135760   2.261   3.820   3.532
11939TIP3    H235761   2.349   3.942   3.512
11940TIP3   OH235762   0.671   6.235   0.720
11940TIP3    H135763   0.690   6.298   0.651
11940TIP3    H235764   0.667   6.151   0.675
11941TIP3   OH235765   5.127   7.725   2.136
11941TIP3    H135766   5.077   7.680   2.068
11941TIP3    H235767   5.218   7.719   2.106
11942TIP3   OH235768   1.486   5.892   4.881
11942TIP3    H135769   1.453   5.950   4.813
11942TIP3    H235770   1.444   5.923   4.961
11943TIP3   OH235771   5.642   7.138   5.188
11943TIP3    H135772   5.574   7.203   5.209
11943TIP3    H235773   5.711   7.189   5.145
11944TIP3   OH235774   5.383   0.165   0.555
11944TIP3    H135775   5.328   0.155   0.632
11944TIP3    H235776   5.394   0.076   0.521
11945TIP3   OH235777   7.863   0.693   6.434
11945TIP3    H135778   7.824   0.615   6.394
11945TIP3    H235779   7.853   0.761   6.368
11946TIP3   OH235780   6.454   0.897   0.450
11946TIP3    H135781   6.439   0.845   0.371
11946TIP3    H235782   6.488   0.980   0.418
11947TIP3   OH235783   1.567   2.042   2.363
11947TIP3    H135784   1.551   2.007   2.450
11947TIP3    H235785   1.485   2.028   2.316
11948TIP3   OH235786   3.046   0.732   3.599
11948TIP3    H135787   3.037   0.644   3.563
11948TIP3    H235788   3.069   0.787   3.524
11949TIP3   OH235789   1.476   7.385   2.606
11949TIP3    H135790   1.486   7.450   2.537
11949TIP3    H235791   1.390   7.345   2.590
11950TIP3   OH235792   2.839   6.529   6.303
11950TIP3    H135793   2.934   6.541   6.309
11950TIP3    H235794   2.827   6.435   6.290
11951TIP3   OH235795   1.458   2.376   3.368
11951TIP3    H135796   1.384   2.315   3.365
11951TIP3    H235797   1.432   2.444   3.430
11952TIP3   OH235798   1.465   4.601   2.570
11952TIP3    H135799   1.554   4.630   2.546
11952TIP3    H235800   1.479   4.537   2.639
11953TIP3   OH235801   5.517   1.288   6.770
11953TIP3    H135802   5.559   1.251   6.848
11953TIP3    H235803   5.576   1.358   6.742
11954TIP3   OH235804   0.879   7.597   0.879
11954TIP3    H135805   0.852   7.629   0.965
11954TIP3    H235806   0.857   7.668   0.818
11955TIP3   OH235807   6.851   2.717   4.151
11955TIP3    H135808   6.798   2.792   4.177
11955TIP3    H235809   6.802   2.641   4.183
11956TIP3   OH235810   6.257   0.894   3.517
11956TIP3    H135811   6.307   0.863   3.593
11956TIP3    H235812   6.322   0.902   3.448
11957TIP3   OH235813   0.773   1.170   0.852
11957TIP3    H135814   0.681   1.175   0.877
11957TIP3    H235815   0.820   1.187   0.934
11958TIP3   OH235816   4.621   1.904   3.958
11958TIP3    H135817   4.606   1.857   4.040
11958TIP3    H235818   4.601   1.840   3.889
11959TIP3   OH235819   8.036   7.017   6.777
11959TIP3    H135820   8.050   7.088   6.715
11959TIP3    H235821   7.941   7.001   6.774
11960TIP3   OH235822   7.723   0.564   0.197
11960TIP3    H135823   7.718   0.590   0.289
11960TIP3    H235824   7.790   0.496   0.195
11961TIP3   OH235825   7.131   0.135   1.717
11961TIP3    H135826   7.154   0.227   1.732
11961TIP3    H235827   7.107   0.102   1.803
11962TIP3   OH235828   4.176   5.874   4.101
11962TIP3    H135829   4.091   5.896   4.063
11962TIP3    H235830   4.159   5.798   4.157
11963TIP3   OH235831   6.086   1.623   3.400
11963TIP3    H135832   6.093   1.719   3.403
11963TIP3    H235833   6.029   1.601   3.474
11964TIP3   OH235834   1.005   5.354   6.542
11964TIP3    H135835   0.945   5.292   6.501
11964TIP3    H235836   1.092   5.323   6.517
11965TIP3   OH235837   2.710   6.666   4.352
11965TIP3    H135838   2.754   6.638   4.271
11965TIP3    H235839   2.639   6.722   4.322
11966TIP3   OH235840   4.578   5.521   4.799
11966TIP3    H135841   4.605   5.448   4.854
11966TIP3    H235842   4.554   5.590   4.861
11967TIP3   OH235843   4.144   5.905   5.179
11967TIP3    H135844   4.052   5.879   5.187
11967TIP3    H235845   4.193   5.828   5.206
11968TIP3   OH235846   4.842   2.398   4.470
11968TIP3    H135847   4.889   2.333   4.523
11968TIP3    H235848   4.880   2.389   4.382
11969TIP3   OH235849   5.289   2.541   3.949
11969TIP3    H135850   5.334   2.582   3.876
11969TIP3    H235851   5.265   2.614   4.007
11970TIP3   OH235852   5.844   3.855   4.220
11970TIP3    H135853   5.841   3.949   4.235
11970TIP3    H235854   5.936   3.831   4.235
11971TIP3   OH235855   5.470   1.616   1.628
11971TIP3    H135856   5.441   1.696   1.584
11971TIP3    H235857   5.463   1.636   1.721
11972TIP3   OH235858   6.440   5.826   0.424
11972TIP3    H135859   6.532   5.838   0.449
11972TIP3    H235860   6.396   5.802   0.505
11973TIP3   OH235861   5.219   5.646   1.482
11973TIP3    H135862   5.235   5.698   1.403
11973TIP3    H235863   5.225   5.708   1.554
11974TIP3   OH235864   1.746   4.961   2.250
11974TIP3    H135865   1.756   4.881   2.199
11974TIP3    H235866   1.692   5.018   2.195
11975TIP3   OH235867   2.842   2.931   0.851
11975TIP3    H135868   2.934   2.956   0.844
11975TIP3    H235869   2.840   2.866   0.921
11976TIP3   OH235870   7.230   0.176   5.827
11976TIP3    H135871   7.242   0.145   5.917
11976TIP3    H235872   7.313   0.154   5.783
11977TIP3   OH235873   3.258   5.486   2.749
11977TIP3    H135874   3.312   5.537   2.690
11977TIP3    H235875   3.314   5.469   2.825
11978TIP3   OH235876   4.928   4.925   0.529
11978TIP3    H135877   4.863   4.920   0.599
11978TIP3    H235878   4.930   5.017   0.503
11979TIP3   OH235879   1.463   6.050   6.076
11979TIP3    H135880   1.394   5.984   6.065
11979TIP3    H235881   1.543   6.005   6.049
11980TIP3   OH235882   1.746   1.193   4.332
11980TIP3    H135883   1.799   1.145   4.268
11980TIP3    H235884   1.775   1.284   4.325
11981TIP3   OH235885   8.057   7.737   6.124
11981TIP3    H135886   8.053   7.689   6.041
11981TIP3    H235887   8.101   7.819   6.101
11982TIP3   OH235888   4.640   5.780   0.272
11982TIP3    H135889   4.601   5.831   0.202
11982TIP3    H235890   4.696   5.716   0.227
11983TIP3   OH235891   4.492   1.337   1.418
11983TIP3    H135892   4.484   1.248   1.383
11983TIP3    H235893   4.572   1.336   1.470
11984TIP3   OH235894   0.300   5.394   0.354
11984TIP3    H135895   0.288   5.322   0.416
11984TIP3    H235896   0.227   5.453   0.372
11985TIP3   OH235897   3.915   4.416   0.789
11985TIP3    H135898   3.852   4.487   0.777
11985TIP3    H235899   3.999   4.454   0.763
11986TIP3   OH235900   0.374   3.363   2.790
11986TIP3    H135901   0.469   3.365   2.801
11986TIP3    H235902   0.347   3.454   2.803
11987TIP3   OH235903   2.650   4.229   6.636
11987TIP3    H135904   2.717   4.183   6.686
11987TIP3    H235905   2.602   4.160   6.590
11988TIP3   OH235906   3.225   0.255   2.304
11988TIP3    H135907   3.160   0.229   2.238
11988TIP3    H235908   3.283   0.179   2.311
11989TIP3   OH235909   5.185   0.359   2.742
11989TIP3    H135910   5.268   0.393   2.708
11989TIP3    H235911   5.144   0.316   2.666
11990TIP3   OH235912   5.520   3.114   4.528
11990TIP3    H135913   5.602   3.085   4.490
11990TIP3    H235914   5.541   3.132   4.620
11991TIP3   OH235915   0.440   7.537   4.561
11991TIP3    H135916   0.412   7.629   4.568
11991TIP3    H235917   0.512   7.529   4.623
11992TIP3   OH235918   7.696   3.412   2.906
11992TIP3    H135919   7.777   3.462   2.907
11992TIP3    H235920   7.721   3.325   2.938
11993TIP3   OH235921   4.008   1.241   1.701
11993TIP3    H135922   3.938   1.211   1.758
11993TIP3    H235923   3.964   1.268   1.620
11994TIP3   OH235924   4.407   4.169   3.814
11994TIP3    H135925   4.483   4.227   3.819
11994TIP3    H235926   4.352   4.206   3.746
11995TIP3   OH235927   8.067   6.953   2.311
11995TIP3    H135928   8.059   6.988   2.399
11995TIP3    H235929   8.109   7.023   2.261
11996TIP3   OH235930   1.745   4.878   3.646
11996TIP3    H135931   1.799   4.903   3.571
11996TIP3    H235932   1.680   4.947   3.654
11997TIP3   OH235933   4.869   2.789   6.515
11997TIP3    H135934   4.913   2.758   6.593
11997TIP3    H235935   4.904   2.735   6.444
11998TIP3   OH235936   1.407   6.768   5.990
11998TIP3    H135937   1.332   6.753   5.931
11998TIP3    H235938   1.398   6.859   6.017
11999TIP3   OH235939   3.729   2.508   6.026
11999TIP3    H135940   3.724   2.555   5.943
11999TIP3    H235941   3.639   2.477   6.042
12000TIP3   OH235942   5.744   5.898   0.839
12000TIP3    H135943   5.747   5.988   0.806
12000TIP3    H235944   5.680   5.854   0.783
12001TIP3   OH235945   3.588   0.974   1.333
12001TIP3    H135946   3.599   1.037   1.262
12001TIP3    H235947   3.638   1.011   1.405
12002TIP3   OH235948   4.567   3.356   0.622
12002TIP3    H135949   4.513   3.431   0.597
12002TIP3    H235950   4.657   3.387   0.611
12003TIP3   OH235951   6.336   3.722   6.444
12003TIP3    H135952   6.308   3.640   6.485
12003TIP3    H235953   6.303   3.790   6.502
12004TIP3   OH235954   0.472   1.919   1.632
12004TIP3    H135955   0.461   1.861   1.707
12004TIP3    H235956   0.399   1.898   1.574
12005TIP3   OH235957   1.885   4.710   2.559
12005TIP3    H135958   1.972   4.713   2.598
12005TIP3    H235959   1.892   4.763   2.480
12006TIP3   OH235960   4.759   0.312   0.891
12006TIP3    H135961   4.833   0.256   0.915
12006TIP3    H235962   4.786   0.354   0.809
12007TIP3   OH235963   0.794   4.205   2.917
12007TIP3    H135964   0.815   4.216   3.010
12007TIP3    H235965   0.825   4.285   2.876
12008TIP3   OH235966   6.367   5.919   4.812
12008TIP3    H135967   6.430   5.973   4.859
12008TIP3    H235968   6.415   5.886   4.736
12009TIP3   OH235969   2.988   6.903   5.980
12009TIP3    H135970   2.934   6.830   6.010
12009TIP3    H235971   3.060   6.907   6.044
12010TIP3   OH235972   0.366   7.214   1.599
12010TIP3    H135973   0.370   7.304   1.630
12010TIP3    H235974   0.448   7.174   1.629
12011TIP3   OH235975   6.388   4.607   4.436
12011TIP3    H135976   6.408   4.625   4.528
12011TIP3    H235977   6.304   4.560   4.438
12012TIP3   OH235978   7.102   5.841   1.234
12012TIP3    H135979   7.019   5.883   1.209
12012TIP3    H235980   7.084   5.803   1.320
12013TIP3   OH235981   4.552   7.630   1.342
12013TIP3    H135982   4.598   7.601   1.421
12013TIP3    H235983   4.483   7.564   1.329
12014TIP3   OH235984   7.531   5.681   1.027
12014TIP3    H135985   7.461   5.711   0.969
12014TIP3    H235986   7.535   5.747   1.097
12015TIP3   OH235987   4.745   6.926   3.771
12015TIP3    H135988   4.763   6.997   3.709
12015TIP3    H235989   4.701   6.968   3.845
12016TIP3   OH235990   5.463   2.154   4.276
12016TIP3    H135991   5.548   2.157   4.232
12016TIP3    H235992   5.419   2.078   4.237
12017TIP3   OH235993   2.498   2.862   3.203
12017TIP3    H135994   2.528   2.864   3.112
12017TIP3    H235995   2.518   2.949   3.237
12018TIP3   OH235996   1.500   6.137   3.852
12018TIP3    H135997   1.557   6.135   3.929
12018TIP3    H235998   1.558   6.158   3.779
12019TIP3   OH235999   6.687   1.967   2.415
12019TIP3    H136000   6.616   2.002   2.470
12019TIP3    H236001   6.766   2.009   2.449
12020TIP3   OH236002   7.953   7.322   0.785
12020TIP3    H136003   7.939   7.227   0.782
12020TIP3    H236004   7.883   7.354   0.841
12021TIP3   OH236005   3.116   3.957   4.793
12021TIP3    H136006   3.196   3.925   4.751
12021TIP3    H236007   3.124   3.929   4.884
12022TIP3   OH236008   5.185   2.516   1.093
12022TIP3    H136009   5.139   2.506   1.177
12022TIP3    H236010   5.278   2.501   1.115
12023TIP3   OH236011   3.006   0.248   3.077
12023TIP3    H136012   3.054   0.214   3.002
12023TIP3    H236013   3.073   0.260   3.145
12024TIP3   OH236014   4.923   7.044   2.663
12024TIP3    H136015   4.911   6.979   2.594
12024TIP3    H236016   4.948   7.124   2.617
12025TIP3   OH236017   5.261   4.493   3.122
12025TIP3    H136018   5.177   4.538   3.114
12025TIP3    H236019   5.322   4.560   3.151
12026TIP3   OH236020   1.850   4.008   3.217
12026TIP3    H136021   1.838   3.949   3.143
12026TIP3    H236022   1.943   4.028   3.218
12027TIP3   OH236023   8.065   1.366   5.907
12027TIP3    H136024   8.120   1.320   5.845
12027TIP3    H236025   8.031   1.441   5.858
12028TIP3   OH236026   7.746   7.378   1.993
12028TIP3    H136027   7.783   7.347   1.910
12028TIP3    H236028   7.707   7.300   2.032
12029TIP3   OH236029   0.514   5.654   0.039
12029TIP3    H136030   0.454   5.678  -0.032
12029TIP3    H236031   0.600   5.650  -0.002
12030TIP3   OH236032   4.995   4.104   0.750
12030TIP3    H136033   5.004   4.009   0.736
12030TIP3    H236034   5.084   4.138   0.738
12031TIP3   OH236035   6.926   2.980   2.490
12031TIP3    H136036   6.948   2.891   2.516
12031TIP3    H236037   6.860   2.969   2.422
12032TIP3   OH236038   3.126   6.801   0.319
12032TIP3    H136039   3.070   6.877   0.334
12032TIP3    H236040   3.088   6.732   0.374
12033TIP3   OH236041   4.143   4.780   1.223
12033TIP3    H136042   4.072   4.822   1.271
12033TIP3    H236043   4.105   4.762   1.136
12034TIP3   OH236044   0.428   7.101   0.977
12034TIP3    H136045   0.481   7.035   0.932
12034TIP3    H236046   0.427   7.176   0.917
12035TIP3   OH236047   6.845   3.073   1.821
12035TIP3    H136048   6.774   3.025   1.865
12035TIP3    H236049   6.820   3.072   1.729
12036TIP3   OH236050   7.590   0.156   3.834
12036TIP3    H136051   7.620   0.123   3.750
12036TIP3    H236052   7.558   0.078   3.880
12037TIP3   OH236053   5.896   5.761   0.089
12037TIP3    H136054   5.901   5.752  -0.006
12037TIP3    H236055   5.808   5.730   0.112
12038TIP3   OH236056   1.544   2.228   3.121
12038TIP3    H136057   1.521   2.316   3.151
12038TIP3    H236058   1.528   2.230   3.027
12039TIP3   OH236059   1.098   3.075   1.435
12039TIP3    H136060   1.097   3.132   1.358
12039TIP3    H236061   1.092   3.136   1.509
12040TIP3   OH236062   5.813   7.506   1.575
12040TIP3    H136063   5.817   7.465   1.489
12040TIP3    H236064   5.739   7.566   1.571
12041TIP3   OH236065   0.837   6.167   1.947
12041TIP3    H136066   0.892   6.222   1.891
12041TIP3    H236067   0.863   6.191   2.036
12042TIP3   OH236068   5.981   7.205   0.061
12042TIP3    H136069   5.920   7.137   0.034
12042TIP3    H236070   5.951   7.284   0.016
12043TIP3   OH236071   0.559   2.250   5.700
12043TIP3    H136072   0.613   2.310   5.649
12043TIP3    H236073   0.471   2.287   5.694
12044TIP3   OH236074   0.899   5.199   4.273
12044TIP3    H136075   0.845   5.242   4.207
12044TIP3    H236076   0.850   5.209   4.355
12045TIP3   OH236077   2.468   6.785   0.811
12045TIP3    H136078   2.422   6.746   0.885
12045TIP3    H236079   2.448   6.726   0.738
12046TIP3   OH236080   5.892   0.666   1.022
12046TIP3    H136081   5.958   0.598   1.036
12046TIP3    H236082   5.820   0.621   0.977
12047TIP3   OH236083   0.468   5.611   3.023
12047TIP3    H136084   0.539   5.651   3.074
12047TIP3    H236085   0.471   5.519   3.047
12048TIP3   OH236086   1.221   0.500   2.793
12048TIP3    H136087   1.166   0.484   2.870
12048TIP3    H236088   1.166   0.553   2.736
12049TIP3   OH236089   4.602   7.288   3.274
12049TIP3    H136090   4.530   7.332   3.319
12049TIP3    H236091   4.597   7.321   3.184
12050TIP3   OH236092   1.057   2.330   4.932
12050TIP3    H136093   1.092   2.265   4.872
12050TIP3    H236094   0.971   2.351   4.897
12051TIP3   OH236095   1.474   0.149   1.669
12051TIP3    H136096   1.555   0.170   1.716
12051TIP3    H236097   1.474   0.054   1.663
12052TIP3   OH236098   4.525   7.650   1.915
12052TIP3    H136099   4.475   7.729   1.933
12052TIP3    H236100   4.609   7.681   1.882
12053TIP3   OH236101   6.458   2.045   1.627
12053TIP3    H136102   6.413   2.025   1.709
12053TIP3    H236103   6.388   2.058   1.564
12054TIP3   OH236104   8.194   4.217   3.647
12054TIP3    H136105   8.223   4.136   3.690
12054TIP3    H236106   8.265   4.279   3.662
12055TIP3   OH236107   2.170   1.971   3.843
12055TIP3    H136108   2.251   2.001   3.800
12055TIP3    H236109   2.177   2.002   3.933
12056TIP3   OH236110   5.899   3.261   2.864
12056TIP3    H136111   5.945   3.187   2.825
12056TIP3    H236112   5.922   3.336   2.809
12057TIP3   OH236113   7.961   4.259   3.349
12057TIP3    H136114   7.883   4.289   3.394
12057TIP3    H236115   7.959   4.164   3.357
12058TIP3   OH236116   6.123   1.107   3.909
12058TIP3    H136117   6.205   1.063   3.889
12058TIP3    H236118   6.144   1.201   3.903
12059TIP3   OH236119   1.489   4.875   0.515
12059TIP3    H136120   1.426   4.947   0.514
12059TIP3    H236121   1.467   4.822   0.439
12060TIP3   OH236122   6.587   6.497   6.282
12060TIP3    H136123   6.632   6.455   6.355
12060TIP3    H236124   6.620   6.586   6.281
12061TIP3   OH236125   5.537   3.698   6.357
12061TIP3    H136126   5.529   3.609   6.323
12061TIP3    H236127   5.588   3.744   6.291
12062TIP3   OH236128   0.080   3.011   3.073
12062TIP3    H136129   0.154   3.070   3.059
12062TIP3    H236130   0.056   3.024   3.165
12063TIP3   OH236131   4.652   5.424   5.723
12063TIP3    H136132   4.719   5.476   5.679
12063TIP3    H236133   4.572   5.439   5.671
12064TIP3   OH236134   2.028   0.049   4.785
12064TIP3    H136135   2.074   0.058   4.868
12064TIP3    H236136   1.954   0.110   4.792
12065TIP3   OH236137   0.717   6.671   0.598
12065TIP3    H136138   0.806   6.636   0.595
12065TIP3    H236139   0.705   6.714   0.514
12066TIP3   OH236140   7.484   4.111   2.078
12066TIP3    H136141   7.407   4.054   2.075
12066TIP3    H236142   7.550   4.059   2.123
12067TIP3   OH236143   2.021   2.956   6.061
12067TIP3    H136144   2.017   2.945   6.156
12067TIP3    H236145   1.979   3.040   6.045
12068TIP3   OH236146   2.346   1.951   5.226
12068TIP3    H136147   2.363   1.858   5.237
12068TIP3    H236148   2.429   1.994   5.249
12069TIP3   OH236149   6.932   0.266   0.229
12069TIP3    H136150   6.915   0.205   0.302
12069TIP3    H236151   7.018   0.242   0.196
12070TIP3   OH236152   5.408   2.324   1.457
12070TIP3    H136153   5.490   2.278   1.471
12070TIP3    H236154   5.424   2.381   1.382
12071TIP3   OH236155   1.798   5.164   3.762
12071TIP3    H136156   1.719   5.166   3.815
12071TIP3    H236157   1.870   5.177   3.824
12072TIP3   OH236158   8.307   7.179   0.577
12072TIP3    H136159   8.263   7.246   0.630
12072TIP3    H236160   8.326   7.222   0.494
12073TIP3   OH236161   0.724   3.437   4.322
12073TIP3    H136162   0.669   3.458   4.398
12073TIP3    H236163   0.746   3.344   4.333
12074TIP3   OH236164   7.471   6.341   4.288
12074TIP3    H136165   7.566   6.349   4.286
12074TIP3    H236166   7.441   6.423   4.326
12075TIP3   OH236167   7.386   1.720   0.189
12075TIP3    H136168   7.472   1.699   0.152
12075TIP3    H236169   7.371   1.650   0.253
12076TIP3   OH236170   5.534   2.352   0.496
12076TIP3    H136171   5.529   2.353   0.400
12076TIP3    H236172   5.627   2.359   0.515
12077TIP3   OH236173   5.316   0.309   5.266
12077TIP3    H136174   5.379   0.237   5.279
12077TIP3    H236175   5.260   0.306   5.343
12078TIP3   OH236176   2.059   0.705   1.966
12078TIP3    H136177   2.107   0.696   2.048
12078TIP3    H236178   2.050   0.616   1.933
12079TIP3   OH236179   3.595   5.596   4.960
12079TIP3    H136180   3.659   5.642   4.906
12079TIP3    H236181   3.641   5.518   4.991
12080TIP3   OH236182   0.383   3.005   0.753
12080TIP3    H136183   0.342   3.033   0.834
12080TIP3    H236184   0.465   3.054   0.749
12081TIP3   OH236185   1.091   6.063   5.979
12081TIP3    H136186   1.041   6.124   5.925
12081TIP3    H236187   1.025   6.021   6.035
12082TIP3   OH236188   4.633   0.961   3.103
12082TIP3    H136189   4.711   0.912   3.128
12082TIP3    H236190   4.661   1.053   3.104
12083TIP3   OH236191   1.664   5.363   3.103
12083TIP3    H136192   1.599   5.293   3.100
12083TIP3    H236193   1.747   5.319   3.122
12084TIP3   OH236194   7.906   2.943   5.510
12084TIP3    H136195   7.848   3.018   5.525
12084TIP3    H236196   7.935   2.953   5.419
12085TIP3   OH236197   5.268   2.386   5.131
12085TIP3    H136198   5.306   2.398   5.218
12085TIP3    H236199   5.260   2.475   5.096
12086TIP3   OH236200   7.661   0.395   3.633
12086TIP3    H136201   7.595   0.350   3.684
12086TIP3    H236202   7.742   0.386   3.683
12087TIP3   OH236203   1.627   3.149   0.996
12087TIP3    H136204   1.707   3.201   0.997
12087TIP3    H236205   1.656   3.061   0.970
12088TIP3   OH236206   7.244   3.089   3.135
12088TIP3    H136207   7.150   3.090   3.121
12088TIP3    H236208   7.280   3.047   3.057
12089TIP3   OH236209   4.686   5.233   3.632
12089TIP3    H136210   4.729   5.311   3.668
12089TIP3    H236211   4.608   5.267   3.587
12090TIP3   OH236212   1.947   6.284   6.654
12090TIP3    H136213   1.901   6.344   6.596
12090TIP3    H236214   2.017   6.247   6.599
12091TIP3   OH236215   4.794   3.870   3.989
12091TIP3    H136216   4.725   3.825   3.940
12091TIP3    H236217   4.752   3.897   4.070
12092TIP3   OH236218   7.751   2.874   4.980
12092TIP3    H136219   7.656   2.869   4.985
12092TIP3    H236220   7.769   2.965   4.956
12093TIP3   OH236221   3.235   2.127   4.886
12093TIP3    H136222   3.201   2.040   4.864
12093TIP3    H236223   3.170   2.187   4.849
12094TIP3   OH236224   7.836   5.727   6.464
12094TIP3    H136225   7.870   5.799   6.411
12094TIP3    H236226   7.833   5.762   6.553
12095TIP3   OH236227   0.260   4.173   2.586
12095TIP3    H136228   0.336   4.153   2.531
12095TIP3    H236229   0.293   4.167   2.676
12096TIP3   OH236230   2.296   7.859   3.831
12096TIP3    H136231   2.285   7.877   3.925
12096TIP3    H236232   2.279   7.765   3.823
12097TIP3   OH236233   4.019   6.253   3.638
12097TIP3    H136234   3.998   6.335   3.684
12097TIP3    H236235   4.036   6.279   3.548
12098TIP3   OH236236   6.310   6.523   6.339
12098TIP3    H136237   6.405   6.518   6.345
12098TIP3    H236238   6.291   6.617   6.339
12099TIP3   OH236239   1.858   6.535   4.485
12099TIP3    H136240   1.798   6.597   4.443
12099TIP3    H236241   1.801   6.470   4.525
12100TIP3   OH236242   0.261   5.410   4.627
12100TIP3    H136243   0.341   5.372   4.664
12100TIP3    H236244   0.213   5.335   4.592
12101TIP3   OH236245   5.864   6.261   1.864
12101TIP3    H136246   5.952   6.298   1.860
12101TIP3    H236247   5.806   6.335   1.848
12102TIP3   OH236248   5.168   1.075   1.146
12102TIP3    H136249   5.220   1.014   1.095
12102TIP3    H236250   5.077   1.051   1.128
12103TIP3   OH236251   3.404   4.671   1.147
12103TIP3    H136252   3.430   4.599   1.090
12103TIP3    H236253   3.410   4.636   1.236
12104TIP3   OH236254   4.731   4.214   1.451
12104TIP3    H136255   4.658   4.218   1.389
12104TIP3    H236256   4.714   4.285   1.513
12105TIP3   OH236257   1.706   1.938   0.466
12105TIP3    H136258   1.647   1.889   0.523
12105TIP3    H236259   1.788   1.887   0.466
12106TIP3   OH236260   2.934   7.633   2.920
12106TIP3    H136261   2.955   7.663   2.832
12106TIP3    H236262   3.014   7.588   2.950
12107TIP3   OH236263   5.531   0.816   6.658
12107TIP3    H136264   5.492   0.893   6.699
12107TIP3    H236265   5.525   0.833   6.564
12108TIP3   OH236266   6.601   0.755   6.757
12108TIP3    H136267   6.588   0.771   6.664
12108TIP3    H236268   6.512   0.743   6.792
12109TIP3   OH236269   5.133   1.938   6.391
12109TIP3    H136270   5.219   1.941   6.432
12109TIP3    H236271   5.133   2.013   6.332
12110TIP3   OH236272   6.121   0.134   1.221
12110TIP3    H136273   6.082   0.072   1.159
12110TIP3    H236274   6.207   0.153   1.184
12111TIP3   OH236275   7.194   5.818   5.646
12111TIP3    H136276   7.187   5.758   5.720
12111TIP3    H236277   7.266   5.876   5.668
12112TIP3   OH236278   1.100   5.992   0.267
12112TIP3    H136279   1.098   5.935   0.189
12112TIP3    H236280   1.117   6.079   0.232
12113TIP3   OH236281   1.638   3.277   3.427
12113TIP3    H136282   1.545   3.257   3.440
12113TIP3    H236283   1.663   3.226   3.350
12114TIP3   OH236284   2.366   7.022   1.729
12114TIP3    H136285   2.452   7.056   1.754
12114TIP3    H236286   2.312   7.100   1.719
12115TIP3   OH236287   5.208   3.077   2.191
12115TIP3    H136288   5.143   3.009   2.207
12115TIP3    H236289   5.157   3.153   2.163
12116TIP3   OH236290   5.888   1.277   1.698
12116TIP3    H136291   5.824   1.226   1.748
12116TIP3    H236292   5.943   1.318   1.764
12117TIP3   OH236293   2.690   7.710   2.973
12117TIP3    H136294   2.782   7.689   2.958
12117TIP3    H236295   2.683   7.724   3.067
12118TIP3   OH236296   7.402   2.232   2.311
12118TIP3    H136297   7.415   2.297   2.242
12118TIP3    H236298   7.490   2.210   2.340
12119TIP3   OH236299   3.644   3.499   4.473
12119TIP3    H136300   3.687   3.584   4.488
12119TIP3    H236301   3.607   3.476   4.559
12120TIP3   OH236302   1.593   3.399   4.567
12120TIP3    H136303   1.510   3.352   4.571
12120TIP3    H236304   1.582   3.462   4.496
12121TIP3   OH236305   0.333   3.887   5.976
12121TIP3    H136306   0.254   3.940   5.968
12121TIP3    H236307   0.302   3.797   5.976
12122TIP3   OH236308   6.757   2.755   1.635
12122TIP3    H136309   6.674   2.711   1.617
12122TIP3    H236310   6.821   2.707   1.583
12123TIP3   OH236311   7.025   3.646   1.509
12123TIP3    H136312   7.016   3.654   1.414
12123TIP3    H236313   7.112   3.607   1.522
12124TIP3   OH236314   6.715   5.524   1.224
12124TIP3    H136315   6.715   5.462   1.151
12124TIP3    H236316   6.808   5.542   1.240
12125TIP3   OH236317   6.786   1.301   0.284
12125TIP3    H136318   6.731   1.312   0.206
12125TIP3    H236319   6.872   1.333   0.256
12126TIP3   OH236320   7.688   1.978   1.313
12126TIP3    H136321   7.641   1.966   1.396
12126TIP3    H236322   7.749   1.905   1.309
12127TIP3   OH236323   3.369   2.020   0.510
12127TIP3    H136324   3.437   2.033   0.577
12127TIP3    H236325   3.354   1.926   0.510
12128TIP3   OH236326   5.887   4.499   6.650
12128TIP3    H136327   5.885   4.404   6.647
12128TIP3    H236328   5.962   4.520   6.706
12129TIP3   OH236329   2.722   5.356   6.669
12129TIP3    H136330   2.738   5.450   6.665
12129TIP3    H236331   2.704   5.338   6.761
12130TIP3   OH236332   4.439   5.561   1.296
12130TIP3    H136333   4.368   5.502   1.321
12130TIP3    H236334   4.483   5.516   1.224
12131TIP3   OH236335   0.697   7.533   6.166
12131TIP3    H136336   0.724   7.542   6.074
12131TIP3    H236337   0.603   7.553   6.165
12132TIP3   OH236338   0.543   0.038   0.148
12132TIP3    H136339   0.498   0.069   0.227
12132TIP3    H236340   0.485  -0.030   0.113
12133TIP3   OH236341   7.439   3.562   3.257
12133TIP3    H136342   7.372   3.630   3.256
12133TIP3    H236343   7.467   3.555   3.165
12134TIP3   OH236344   5.378   1.248   6.086
12134TIP3    H136345   5.371   1.168   6.138
12134TIP3    H236346   5.375   1.319   6.151
12135TIP3   OH236347   7.680   5.188   5.765
12135TIP3    H136348   7.754   5.128   5.757
12135TIP3    H236349   7.658   5.186   5.858
12136TIP3   OH236350   3.367   5.709   1.153
12136TIP3    H136351   3.454   5.712   1.112
12136TIP3    H236352   3.370   5.633   1.211
12137TIP3   OH236353   5.355   3.954   2.921
12137TIP3    H136354   5.314   3.940   2.836
12137TIP3    H236355   5.316   3.887   2.977
12138TIP3   OH236356   4.096   4.241   4.265
12138TIP3    H136357   4.173   4.271   4.216
12138TIP3    H236358   4.044   4.193   4.200
12139TIP3   OH236359   3.011   0.882   2.747
12139TIP3    H136360   3.085   0.866   2.687
12139TIP3    H236361   2.958   0.802   2.741
12140TIP3   OH236362   0.305   2.249   0.032
12140TIP3    H136363   0.246   2.174   0.024
12140TIP3    H236364   0.393   2.212   0.027
12141TIP3   OH236365   6.675   0.160   0.809
12141TIP3    H136366   6.764   0.132   0.832
12141TIP3    H236367   6.682   0.255   0.799
12142TIP3   OH236368   2.446   7.380   1.838
12142TIP3    H136369   2.462   7.304   1.895
12142TIP3    H236370   2.387   7.347   1.770
12143TIP3   OH236371   7.598   3.315   1.429
12143TIP3    H136372   7.660   3.266   1.375
12143TIP3    H236373   7.554   3.249   1.482
12144TIP3   OH236374   2.935   5.950   6.386
12144TIP3    H136375   2.956   5.958   6.293
12144TIP3    H236376   2.865   6.014   6.400
12145TIP3   OH236377   6.530   3.209   3.231
12145TIP3    H136378   6.568   3.296   3.244
12145TIP3    H236379   6.571   3.155   3.298
12146TIP3   OH236380   0.238   4.875   3.562
12146TIP3    H136381   0.168   4.925   3.603
12146TIP3    H236382   0.315   4.891   3.618
12147TIP3   OH236383   7.530   6.748   0.896
12147TIP3    H136384   7.538   6.668   0.949
12147TIP3    H236385   7.439   6.775   0.908
12148TIP3   OH236386   3.724   2.490   3.759
12148TIP3    H136387   3.752   2.400   3.778
12148TIP3    H236388   3.703   2.527   3.845
12149TIP3   OH236389   3.975   2.567   1.490
12149TIP3    H136390   4.017   2.510   1.554
12149TIP3    H236391   3.943   2.507   1.422
12150TIP3   OH236392   1.205   0.854   2.354
12150TIP3    H136393   1.173   0.776   2.308
12150TIP3    H236394   1.167   0.927   2.306
12151TIP3   OH236395   6.674   3.418   2.410
12151TIP3    H136396   6.707   3.390   2.495
12151TIP3    H236397   6.744   3.398   2.348
12152TIP3   OH236398   1.604   3.640   2.456
12152TIP3    H136399   1.537   3.579   2.424
12152TIP3    H236400   1.648   3.592   2.526
12153TIP3   OH236401   7.413   6.112   6.406
12153TIP3    H136402   7.392   6.122   6.313
12153TIP3    H236403   7.508   6.101   6.409
12154TIP3   OH236404   5.125   0.584   5.099
12154TIP3    H136405   5.130   0.632   5.017
12154TIP3    H236406   5.174   0.638   5.161
12155TIP3   OH236407   1.778   0.612   3.488
12155TIP3    H136408   1.747   0.651   3.406
12155TIP3    H236409   1.852   0.667   3.514
12156TIP3   OH236410   3.900   1.783   1.938
12156TIP3    H136411   3.945   1.746   2.014
12156TIP3    H236412   3.911   1.878   1.949
12157TIP3   OH236413   5.515   2.702   5.026
12157TIP3    H136414   5.580   2.675   4.961
12157TIP3    H236415   5.560   2.768   5.079
12158TIP3   OH236416   0.389   2.261   5.292
12158TIP3    H136417   0.297   2.257   5.320
12158TIP3    H236418   0.402   2.352   5.267
12159TIP3   OH236419   7.445   4.165   6.239
12159TIP3    H136420   7.536   4.164   6.269
12159TIP3    H236421   7.394   4.151   6.319
12160TIP3   OH236422   5.568   7.071   6.027
12160TIP3    H136423   5.593   7.163   6.019
12160TIP3    H236424   5.502   7.070   6.096
12161TIP3   OH236425   6.142   1.407   5.979
12161TIP3    H136426   6.161   1.473   5.912
12161TIP3    H236427   6.215   1.414   6.040
12162TIP3   OH236428   6.879   0.643   2.766
12162TIP3    H136429   6.920   0.730   2.768
12162TIP3    H236430   6.816   0.647   2.694
12163TIP3   OH236431   6.259   3.442   0.828
12163TIP3    H136432   6.319   3.411   0.760
12163TIP3    H236433   6.295   3.527   0.854
12164TIP3   OH236434   1.546   7.073   2.931
12164TIP3    H136435   1.504   6.989   2.913
12164TIP3    H236436   1.474   7.136   2.933
12165TIP3   OH236437   5.357   1.983   3.621
12165TIP3    H136438   5.351   1.920   3.550
12165TIP3    H236439   5.277   1.968   3.673
12166TIP3   OH236440   3.771   6.290   4.630
12166TIP3    H136441   3.857   6.249   4.630
12166TIP3    H236442   3.709   6.217   4.635
12167TIP3   OH236443   1.538   5.108   1.296
12167TIP3    H136444   1.559   5.017   1.315
12167TIP3    H236445   1.528   5.111   1.201
12168TIP3   OH236446   0.165   0.584   3.710
12168TIP3    H136447   0.110   0.524   3.660
12168TIP3    H236448   0.254   0.553   3.697
12169TIP3   OH236449   4.978   5.942   3.360
12169TIP3    H136450   5.022   5.867   3.319
12169TIP3    H236451   4.894   5.906   3.390
12170TIP3   OH236452   0.493   4.045   3.513
12170TIP3    H136453   0.422   4.093   3.473
12170TIP3    H236454   0.515   3.977   3.449
12171TIP3   OH236455   4.530   4.171   0.408
12171TIP3    H136456   4.456   4.228   0.429
12171TIP3    H236457   4.489   4.087   0.387
12172TIP3   OH236458   0.255   3.879   2.587
12172TIP3    H136459   0.260   3.805   2.526
12172TIP3    H236460   0.330   3.933   2.566
12173TIP3   OH236461   0.750   4.059   4.122
12173TIP3    H136462   0.678   4.028   4.066
12173TIP3    H236463   0.826   4.060   4.064
12174TIP3   OH236464   3.303   3.703   4.947
12174TIP3    H136465   3.210   3.690   4.965
12174TIP3    H236466   3.314   3.678   4.855
12175TIP3   OH236467   3.308   6.710   6.107
12175TIP3    H136468   3.391   6.689   6.064
12175TIP3    H236469   3.294   6.638   6.168
12176TIP3   OH236470   2.447   7.183   4.129
12176TIP3    H136471   2.479   7.228   4.208
12176TIP3    H236472   2.526   7.166   4.078
12177TIP3   OH236473   0.724   2.611   0.199
12177TIP3    H136474   0.747   2.609   0.107
12177TIP3    H236475   0.644   2.558   0.205
12178TIP3   OH236476   6.276   3.938   1.808
12178TIP3    H136477   6.203   3.969   1.860
12178TIP3    H236478   6.239   3.924   1.720
12179TIP3   OH236479   7.411   1.671   2.539
12179TIP3    H136480   7.336   1.728   2.552
12179TIP3    H236481   7.385   1.588   2.579
12180TIP3   OH236482   4.651   3.859   2.790
12180TIP3    H136483   4.610   3.831   2.872
12180TIP3    H236484   4.601   3.936   2.763
12181TIP3   OH236485   7.601   6.031   2.298
12181TIP3    H136486   7.587   6.069   2.211
12181TIP3    H236487   7.681   6.073   2.330
12182TIP3   OH236488   5.583   2.262   1.696
12182TIP3    H136489   5.639   2.218   1.760
12182TIP3    H236490   5.644   2.305   1.636
12183TIP3   OH236491   5.337   5.289   6.265
12183TIP3    H136492   5.390   5.356   6.309
12183TIP3    H236493   5.275   5.339   6.211
12184TIP3   OH236494   7.915   3.101   2.583
12184TIP3    H136495   7.996   3.114   2.534
12184TIP3    H236496   7.883   3.189   2.601
12185TIP3   OH236497   1.702   0.975   5.121
12185TIP3    H136498   1.792   0.960   5.090
12185TIP3    H236499   1.656   1.011   5.046
12186TIP3   OH236500   3.829   1.813   1.031
12186TIP3    H136501   3.923   1.817   1.014
12186TIP3    H236502   3.821   1.790   1.123
12187TIP3   OH236503   2.089   1.275   1.755
12187TIP3    H136504   2.088   1.367   1.729
12187TIP3    H236505   2.125   1.229   1.679
12188TIP3   OH236506   4.048   5.381   4.147
12188TIP3    H136507   4.076   5.312   4.087
12188TIP3    H236508   4.046   5.338   4.233
12189TIP3   OH236509   1.143   1.610   0.707
12189TIP3    H136510   1.054   1.639   0.688
12189TIP3    H236511   1.187   1.687   0.744
12190TIP3   OH236512   5.030   6.666   3.009
12190TIP3    H136513   5.022   6.572   2.993
12190TIP3    H236514   5.053   6.673   3.101
12191TIP3   OH236515   4.612   4.080   5.670
12191TIP3    H136516   4.561   4.062   5.592
12191TIP3    H236517   4.571   4.156   5.709
12192TIP3   OH236518   5.028  -0.018   5.443
12192TIP3    H136519   5.053   0.046   5.377
12192TIP3    H236520   5.110  -0.059   5.470
12193TIP3   OH236521   6.986   0.334   4.124
12193TIP3    H136522   7.050   0.390   4.168
12193TIP3    H236523   6.914   0.326   4.186
12194TIP3   OH236524   1.223   5.632   4.683
12194TIP3    H136525   1.257   5.677   4.761
12194TIP3    H236526   1.262   5.545   4.687
12195TIP3   OH236527   5.984   5.178   0.211
12195TIP3    H136528   6.076   5.197   0.228
12195TIP3    H236529   5.945   5.264   0.195
12196TIP3   OH236530   6.970   4.938   6.150
12196TIP3    H136531   6.991   4.850   6.182
12196TIP3    H236532   6.987   4.934   6.056
12197TIP3   OH236533   8.161   6.560   6.351
12197TIP3    H136534   8.199   6.499   6.288
12197TIP3    H236535   8.219   6.636   6.350
12198TIP3   OH236536   7.916   2.948   5.223
12198TIP3    H136537   7.855   2.918   5.155
12198TIP3    H236538   7.983   2.996   5.175
12199TIP3   OH236539   4.018   2.960   5.053
12199TIP3    H136540   4.094   2.929   5.003
12199TIP3    H236541   3.982   2.881   5.093
12200TIP3   OH236542   4.715   6.029   2.378
12200TIP3    H136543   4.756   5.982   2.451
12200TIP3    H236544   4.787   6.045   2.317
12201TIP3   OH236545   1.596   1.923   2.602
12201TIP3    H136546   1.647   1.962   2.673
12201TIP3    H236547   1.631   1.834   2.593
12202TIP3   OH236548   2.061   0.911   3.239
12202TIP3    H136549   1.977   0.922   3.194
12202TIP3    H236550   2.096   0.829   3.205
12203TIP3   OH236551   0.382   3.224   3.948
12203TIP3    H136552   0.382   3.144   4.000
12203TIP3    H236553   0.334   3.288   4.001
12204TIP3   OH236554   6.341   3.493   3.293
12204TIP3    H136555   6.429   3.498   3.256
12204TIP3    H236556   6.290   3.447   3.227
12205TIP3   OH236557   0.893   5.592   1.551
12205TIP3    H136558   0.809   5.637   1.542
12205TIP3    H236559   0.955   5.648   1.505
12206TIP3   OH236560   3.858   6.288   0.273
12206TIP3    H136561   3.860   6.291   0.177
12206TIP3    H236562   3.786   6.229   0.294
12207TIP3   OH236563   4.576   0.951   6.674
12207TIP3    H136564   4.582   0.881   6.738
12207TIP3    H236565   4.517   1.015   6.714
12208TIP3   OH236566   5.861   5.218   0.902
12208TIP3    H136567   5.807   5.285   0.860
12208TIP3    H236568   5.945   5.223   0.857
12209TIP3   OH236569   0.301   4.529   5.534
12209TIP3    H136570   0.251   4.563   5.608
12209TIP3    H236571   0.255   4.449   5.509
12210TIP3   OH236572   1.700   3.114   0.104
12210TIP3    H136573   1.753   3.051   0.055
12210TIP3    H236574   1.612   3.076   0.102
12211TIP3   OH236575   6.872   1.560   6.352
12211TIP3    H136576   6.915   1.592   6.432
12211TIP3    H236577   6.912   1.611   6.281
12212TIP3   OH236578   0.902   1.407   4.635
12212TIP3    H136579   0.932   1.333   4.582
12212TIP3    H236580   0.886   1.370   4.722
12213TIP3   OH236581   4.787   7.561   6.388
12213TIP3    H136582   4.726   7.512   6.443
12213TIP3    H236583   4.873   7.544   6.427
12214TIP3   OH236584   3.421   6.228   4.913
12214TIP3    H136585   3.491   6.275   4.868
12214TIP3    H236586   3.464   6.150   4.949
12215TIP3   OH236587   4.290   7.625   3.792
12215TIP3    H136588   4.311   7.583   3.875
12215TIP3    H236589   4.195   7.640   3.795
12216TIP3   OH236590   6.884   5.784   0.324
12216TIP3    H136591   6.946   5.749   0.388
12216TIP3    H236592   6.938   5.823   0.256
12217TIP3   OH236593   1.469   6.113   4.364
12217TIP3    H136594   1.512   6.028   4.367
12217TIP3    H236595   1.524   6.170   4.416
12218TIP3   OH236596   7.529   2.898   5.787
12218TIP3    H136597   7.525   2.992   5.775
12218TIP3    H236598   7.578   2.866   5.711
12219TIP3   OH236599   8.088   4.308   6.526
12219TIP3    H136600   8.015   4.347   6.575
12219TIP3    H236601   8.046   4.268   6.450
12220TIP3   OH236602   1.315   0.177   0.400
12220TIP3    H136603   1.321   0.218   0.314
12220TIP3    H236604   1.335   0.085   0.384
12221TIP3   OH236605   5.760   1.778   1.906
12221TIP3    H136606   5.668   1.770   1.928
12221TIP3    H236607   5.771   1.728   1.825
12222TIP3   OH236608   5.382   4.185   3.619
12222TIP3    H136609   5.378   4.279   3.635
12222TIP3    H236610   5.455   4.173   3.559
12223TIP3   OH236611   0.722   3.132   0.173
12223TIP3    H136612   0.743   3.067   0.240
12223TIP3    H236613   0.745   3.090   0.091
12224TIP3   OH236614   6.095   6.505   2.102
12224TIP3    H136615   6.106   6.424   2.153
12224TIP3    H236616   6.160   6.498   2.032
12225TIP3   OH236617   5.087   1.628   6.333
12225TIP3    H136618   5.126   1.711   6.363
12225TIP3    H236619   5.030   1.654   6.261
12226TIP3   OH236620   1.653   4.440   1.102
12226TIP3    H136621   1.628   4.368   1.044
12226TIP3    H236622   1.593   4.434   1.176
12227TIP3   OH236623   7.564   1.014   5.444
12227TIP3    H136624   7.598   0.928   5.420
12227TIP3    H236625   7.481   1.022   5.396
12228TIP3   OH236626   1.712   6.547   1.079
12228TIP3    H136627   1.665   6.616   1.032
12228TIP3    H236628   1.781   6.594   1.127
12229TIP3   OH236629   1.498   4.817   4.377
12229TIP3    H136630   1.559   4.883   4.343
12229TIP3    H236631   1.497   4.749   4.309
12230TIP3   OH236632   5.262   3.988   6.522
12230TIP3    H136633   5.209   4.029   6.453
12230TIP3    H236634   5.248   3.894   6.509
12231TIP3   OH236635   1.870   3.373   0.045
12231TIP3    H136636   1.914   3.326   0.116
12231TIP3    H236637   1.796   3.416   0.086
12232TIP3   OH236638   4.818   2.674   1.575
12232TIP3    H136639   4.869   2.727   1.637
12232TIP3    H236640   4.789   2.737   1.509
12233TIP3   OH236641   8.077   4.652   2.415
12233TIP3    H136642   8.129   4.579   2.450
12233TIP3    H236643   8.027   4.684   2.490
12234TIP3   OH236644   0.911   0.122   6.117
12234TIP3    H136645   0.867   0.142   6.200
12234TIP3    H236646   0.927   0.028   6.120
12235TIP3   OH236647   4.673   6.862   6.754
12235TIP3    H136648   4.679   6.856   6.659
12235TIP3    H236649   4.745   6.920   6.779
12236TIP3   OH236650   6.373   5.709   0.671
12236TIP3    H136651   6.421   5.777   0.718
12236TIP3    H236652   6.366   5.637   0.734
12237TIP3   OH236653   2.237   7.072   6.208
12237TIP3    H136654   2.281   7.132   6.147
12237TIP3    H236655   2.264   7.104   6.295
12238TIP3   OH236656   8.186   0.568   2.729
12238TIP3    H136657   8.165   0.504   2.797
12238TIP3    H236658   8.276   0.549   2.705
12239TIP3   OH236659   4.933   4.790   0.068
12239TIP3    H136660   4.900   4.854   0.132
12239TIP3    H236661   4.855   4.757   0.024
12240TIP3   OH236662   3.881   1.933   5.979
12240TIP3    H136663   3.803   1.888   6.011
12240TIP3    H236664   3.864   2.026   5.996
12241TIP3   OH236665   7.448   5.008   4.742
12241TIP3    H136666   7.357   5.025   4.719
12241TIP3    H236667   7.498   5.055   4.676
12242TIP3   OH236668   6.621   0.811   6.134
12242TIP3    H136669   6.687   0.744   6.151
12242TIP3    H236670   6.624   0.824   6.039
12243TIP3   OH236671   8.188   2.022   5.273
12243TIP3    H136672   8.194   1.933   5.239
12243TIP3    H236673   8.142   2.071   5.204
12244TIP3   OH236674   7.119   5.322   4.801
12244TIP3    H136675   7.049   5.309   4.737
12244TIP3    H236676   7.084   5.386   4.863
12245TIP3   OH236677   0.140   7.268   6.279
12245TIP3    H136678   0.144   7.326   6.203
12245TIP3    H236679   0.055   7.285   6.319
12246TIP3   OH236680   7.714   3.759   1.926
12246TIP3    H136681   7.713   3.793   2.015
12246TIP3    H236682   7.799   3.784   1.892
12247TIP3   OH236683   3.049   5.437   6.290
12247TIP3    H136684   2.994   5.503   6.332
12247TIP3    H236685   2.992   5.362   6.278
12248TIP3   OH236686   0.553   5.536   0.310
12248TIP3    H136687   0.503   5.459   0.336
12248TIP3    H236688   0.522   5.557   0.222
12249TIP3   OH236689   0.308   3.132   3.702
12249TIP3    H136690   0.307   3.193   3.775
12249TIP3    H236691   0.364   3.061   3.730
12250TIP3   OH236692   5.392   5.115   5.274
12250TIP3    H136693   5.425   5.178   5.210
12250TIP3    H236694   5.382   5.165   5.355
12251TIP3   OH236695   2.951   3.449   4.478
12251TIP3    H136696   3.040   3.415   4.468
12251TIP3    H236697   2.938   3.505   4.402
12252TIP3   OH236698   0.432   3.952   0.897
12252TIP3    H136699   0.461   3.882   0.839
12252TIP3    H236700   0.337   3.953   0.888
12253TIP3   OH236701   5.011   4.421   6.515
12253TIP3    H136702   5.039   4.512   6.526
12253TIP3    H236703   5.091   4.369   6.527
12254TIP3   OH236704   3.504   7.109   3.751
12254TIP3    H136705   3.520   7.200   3.776
12254TIP3    H236706   3.576   7.060   3.792
12255TIP3   OH236707   2.583   2.203   6.759
12255TIP3    H136708   2.637   2.167   6.688
12255TIP3    H236709   2.643   2.209   6.833
12256TIP3   OH236710   5.350   4.434   1.133
12256TIP3    H136711   5.268   4.433   1.083
12256TIP3    H236712   5.349   4.519   1.177
12257TIP3   OH236713   2.130   1.163   1.083
12257TIP3    H136714   2.041   1.195   1.069
12257TIP3    H236715   2.183   1.215   1.022
12258TIP3   OH236716   0.700   4.564   2.481
12258TIP3    H136717   0.627   4.510   2.450
12258TIP3    H236718   0.736   4.515   2.554
12259TIP3   OH236719   6.659   0.691   2.408
12259TIP3    H136720   6.583   0.636   2.386
12259TIP3    H236721   6.652   0.766   2.348
12260TIP3   OH236722   7.483   4.364   1.323
12260TIP3    H136723   7.484   4.279   1.367
12260TIP3    H236724   7.482   4.428   1.394
12261TIP3   OH236725   7.184   1.275   5.595
12261TIP3    H136726   7.159   1.310   5.680
12261TIP3    H236727   7.201   1.182   5.611
12262TIP3   OH236728   5.314   0.723   3.306
12262TIP3    H136729   5.237   0.680   3.268
12262TIP3    H236730   5.340   0.788   3.241
12263TIP3   OH236731   6.481   6.744   2.128
12263TIP3    H136732   6.564   6.760   2.084
12263TIP3    H236733   6.497   6.667   2.183
12264TIP3   OH236734   4.744   7.326   5.777
12264TIP3    H136735   4.709   7.298   5.692
12264TIP3    H236736   4.685   7.288   5.842
12265TIP3   OH236737   7.718   6.855   1.902
12265TIP3    H136738   7.765   6.878   1.822
12265TIP3    H236739   7.718   6.934   1.954
12266TIP3   OH236740   4.068   1.309   0.599
12266TIP3    H136741   3.976   1.282   0.596
12266TIP3    H236742   4.078   1.349   0.685
12267TIP3   OH236743   6.910   5.935   2.176
12267TIP3    H136744   6.948   5.954   2.091
12267TIP3    H236745   6.839   5.873   2.158
12268TIP3   OH236746   0.220   2.798   1.240
12268TIP3    H136747   0.281   2.865   1.271
12268TIP3    H236748   0.170   2.840   1.170
12269TIP3   OH236749   7.637   4.874   6.009
12269TIP3    H136750   7.628   4.779   6.010
12269TIP3    H236751   7.550   4.906   5.987
12270TIP3   OH236752   1.213   1.204   3.878
12270TIP3    H136753   1.123   1.237   3.883
12270TIP3    H236754   1.230   1.164   3.963
12271TIP3   OH236755   1.581   1.984   5.366
12271TIP3    H136756   1.601   2.077   5.357
12271TIP3    H236757   1.656   1.947   5.413
12272TIP3   OH236758   7.341   6.083   6.700
12272TIP3    H136759   7.355   6.036   6.617
12272TIP3    H236760   7.410   6.049   6.758
12273TIP3   OH236761   5.660   6.649   4.011
12273TIP3    H136762   5.706   6.592   4.072
12273TIP3    H236763   5.673   6.608   3.926
12274TIP3   OH236764   1.291   3.172   4.135
12274TIP3    H136765   1.282   3.254   4.087
12274TIP3    H236766   1.261   3.105   4.074
12275TIP3   OH236767   7.065   2.370   6.574
12275TIP3    H136768   7.052   2.276   6.566
12275TIP3    H236769   7.057   2.403   6.484
12276TIP3   OH236770   3.852   2.532   0.910
12276TIP3    H136771   3.890   2.479   0.840
12276TIP3    H236772   3.915   2.528   0.981
12277TIP3   OH236773   5.349   0.219   4.202
12277TIP3    H136774   5.411   0.203   4.131
12277TIP3    H236775   5.278   0.156   4.186
12278TIP3   OH236776   4.448   6.911   5.600
12278TIP3    H136777   4.495   6.924   5.517
12278TIP3    H236778   4.491   6.835   5.640
12279TIP3   OH236779   4.329   1.482   2.442
12279TIP3    H136780   4.243   1.524   2.444
12279TIP3    H236781   4.321   1.415   2.374
12280TIP3   OH236782   0.837   6.882   4.469
12280TIP3    H136783   0.859   6.963   4.423
12280TIP3    H236784   0.826   6.908   4.560
12281TIP3   OH236785   2.418   3.700   0.117
12281TIP3    H136786   2.363   3.647   0.060
12281TIP3    H236787   2.394   3.790   0.097
12282TIP3   OH236788   7.235   2.742   3.307
12282TIP3    H136789   7.217   2.832   3.283
12282TIP3    H236790   7.331   2.737   3.311
12283TIP3   OH236791   5.241   1.316   6.653
12283TIP3    H136792   5.321   1.343   6.697
12283TIP3    H236793   5.269   1.245   6.594
12284TIP3   OH236794   7.053   7.735   5.103
12284TIP3    H136795   7.137   7.777   5.120
12284TIP3    H236796   7.016   7.784   5.029
12285TIP3   OH236797   3.790   7.722   2.880
12285TIP3    H136798   3.857   7.786   2.856
12285TIP3    H236799   3.839   7.651   2.922
12286TIP3   OH236800   5.823   7.241   0.357
12286TIP3    H136801   5.794   7.156   0.322
12286TIP3    H236802   5.748   7.299   0.343
12287TIP3   OH236803   4.569   5.269   2.909
12287TIP3    H136804   4.610   5.193   2.951
12287TIP3    H236805   4.564   5.335   2.978
12288TIP3   OH236806   7.706   2.481   2.833
12288TIP3    H136807   7.653   2.527   2.767
12288TIP3    H236808   7.782   2.450   2.785
12289TIP3   OH236809   1.967   1.530   2.817
12289TIP3    H136810   1.872   1.531   2.805
12289TIP3    H236811   1.999   1.480   2.742
12290TIP3   OH236812   6.147   4.712   5.501
12290TIP3    H136813   6.209   4.641   5.485
12290TIP3    H236814   6.198   4.781   5.542
12291TIP3   OH236815   0.318   6.703   0.842
12291TIP3    H136816   0.308   6.796   0.862
12291TIP3    H236817   0.305   6.659   0.926
12292TIP3   OH236818   5.571   6.776   6.049
12292TIP3    H136819   5.661   6.745   6.044
12292TIP3    H236820   5.574   6.864   6.012
12293TIP3   OH236821   3.272   1.509   5.130
12293TIP3    H136822   3.259   1.439   5.194
12293TIP3    H236823   3.204   1.495   5.065
12294TIP3   OH236824   4.518   0.273   2.590
12294TIP3    H136825   4.605   0.263   2.627
12294TIP3    H236826   4.496   0.365   2.605
12295TIP3   OH236827   1.957   6.936   5.802
12295TIP3    H136828   1.968   6.844   5.828
12295TIP3    H236829   1.990   6.986   5.876
12296TIP3   OH236830   2.612   0.777   1.325
12296TIP3    H136831   2.688   0.834   1.307
12296TIP3    H236832   2.537   0.826   1.292
12297TIP3   OH236833   7.096   4.382   1.620
12297TIP3    H136834   7.063   4.324   1.552
12297TIP3    H236835   7.027   4.448   1.631
12298TIP3   OH236836   1.604   7.267   6.157
12298TIP3    H136837   1.562   7.344   6.117
12298TIP3    H236838   1.593   7.197   6.093
12299TIP3   OH236839   8.253   3.059   0.189
12299TIP3    H136840   8.281   3.147   0.214
12299TIP3    H236841   8.157   3.062   0.196
12300TIP3   OH236842   0.718   2.155   3.449
12300TIP3    H136843   0.692   2.067   3.421
12300TIP3    H236844   0.742   2.144   3.541
12301TIP3   OH236845   2.626   5.981   1.724
12301TIP3    H136846   2.608   6.063   1.677
12301TIP3    H236847   2.562   5.919   1.690
12302TIP3   OH236848   0.188   4.268   5.523
12302TIP3    H136849   0.264   4.223   5.561
12302TIP3    H236850   0.113   4.216   5.551
12303TIP3   OH236851   4.481   3.174   2.706
12303TIP3    H136852   4.440   3.257   2.730
12303TIP3    H236853   4.517   3.140   2.788
12304TIP3   OH236854   3.452   5.058   5.897
12304TIP3    H136855   3.470   5.129   5.835
12304TIP3    H236856   3.383   5.092   5.953
12305TIP3   OH236857   0.849   1.024   4.405
12305TIP3    H136858   0.855   1.012   4.311
12305TIP3    H236859   0.758   1.053   4.420
12306TIP3   OH236860   1.005   7.787   2.068
12306TIP3    H136861   0.959   7.747   2.142
12306TIP3    H236862   0.939   7.792   1.999
12307TIP3   OH236863   7.591   7.318   5.302
12307TIP3    H136864   7.569   7.352   5.215
12307TIP3    H236865   7.520   7.257   5.323
12308TIP3   OH236866   1.357   4.334   4.233
12308TIP3    H136867   1.424   4.265   4.235
12308TIP3    H236868   1.293   4.302   4.169
12309TIP3   OH236869   7.609   6.738   2.210
12309TIP3    H136870   7.529   6.790   2.197
12309TIP3    H236871   7.619   6.689   2.129
12310TIP3   OH236872   7.638   2.293   2.436
12310TIP3    H136873   7.580   2.366   2.457
12310TIP3    H236874   7.724   2.321   2.468
12311TIP3   OH236875   2.985   3.097   4.345
12311TIP3    H136876   2.957   3.125   4.432
12311TIP3    H236877   3.077   3.125   4.339
12312TIP3   OH236878   3.676   4.020   6.479
12312TIP3    H136879   3.742   4.077   6.518
12312TIP3    H236880   3.627   3.985   6.553
12313TIP3   OH236881   3.369   1.271   1.598
12313TIP3    H136882   3.348   1.289   1.507
12313TIP3    H236883   3.458   1.304   1.609
12314TIP3   OH236884   7.912   0.710   0.612
12314TIP3    H136885   7.913   0.777   0.680
12314TIP3    H236886   7.969   0.744   0.543
12315TIP3   OH236887   1.552   1.988   6.323
12315TIP3    H136888   1.636   1.980   6.368
12315TIP3    H236889   1.490   1.940   6.378
12316TIP3   OH236890   0.520   1.784   3.616
12316TIP3    H136891   0.581   1.750   3.681
12316TIP3    H236892   0.575   1.831   3.554
12317TIP3   OH236893   5.752   7.443   4.340
12317TIP3    H136894   5.725   7.351   4.331
12317TIP3    H236895   5.746   7.460   4.434
12318TIP3   OH236896   6.569   4.870   1.030
12318TIP3    H136897   6.534   4.813   0.961
12318TIP3    H236898   6.630   4.815   1.079
12319TIP3   OH236899   1.695   5.184   0.612
12319TIP3    H136900   1.743   5.104   0.590
12319TIP3    H236901   1.621   5.155   0.664
12320TIP3   OH236902   1.365   0.814   5.492
12320TIP3    H136903   1.344   0.806   5.586
12320TIP3    H236904   1.327   0.736   5.453
12321TIP3   OH236905   1.200   6.777   3.131
12321TIP3    H136906   1.226   6.701   3.183
12321TIP3    H236907   1.198   6.850   3.192
12322TIP3   OH236908   0.439   3.459   1.352
12322TIP3    H136909   0.482   3.538   1.385
12322TIP3    H236910   0.437   3.471   1.257
12323TIP3   OH236911   6.923   5.534   6.362
12323TIP3    H136912   7.008   5.563   6.329
12323TIP3    H236913   6.874   5.510   6.284
12324TIP3   OH236914   0.721   0.983  -0.022
12324TIP3    H136915   0.725   1.015  -0.112
12324TIP3    H236916   0.658   0.911  -0.026
12325TIP3   OH236917   3.841   2.483   5.477
12325TIP3    H136918   3.768   2.515   5.424
12325TIP3    H236919   3.919   2.520   5.435
12326TIP3   OH236920   5.624   3.363   5.660
12326TIP3    H136921   5.693   3.383   5.724
12326TIP3    H236922   5.642   3.421   5.586
12327TIP3   OH236923   0.481   1.240   6.711
12327TIP3    H136924   0.524   1.171   6.661
12327TIP3    H236925   0.550   1.275   6.767
12328TIP3   OH236926   3.211   1.111   6.724
12328TIP3    H136927   3.294   1.103   6.677
12328TIP3    H236928   3.229   1.171   6.796
12329TIP3   OH236929   7.663   2.369   3.247
12329TIP3    H136930   7.666   2.302   3.315
12329TIP3    H236931   7.592   2.341   3.189
12330TIP3   OH236932   5.758   0.175   2.967
12330TIP3    H136933   5.729   0.248   3.021
12330TIP3    H236934   5.724   0.097   3.010
12331TIP3   OH236935   1.044   4.162   4.861
12331TIP3    H136936   1.122   4.189   4.812
12331TIP3    H236937   0.973   4.214   4.823
12332TIP3   OH236938   4.255   0.859   4.698
12332TIP3    H136939   4.224   0.950   4.707
12332TIP3    H236940   4.241   0.820   4.784
12333TIP3   OH236941   1.580   2.131   6.726
12333TIP3    H136942   1.525   2.200   6.688
12333TIP3    H236943   1.639   2.178   6.786
12334TIP3   OH236944   0.114   2.992   2.223
12334TIP3    H136945   0.020   3.008   2.238
12334TIP3    H236946   0.117   2.901   2.192
12335TIP3   OH236947   2.464   6.505   4.455
12335TIP3    H136948   2.510   6.506   4.538
12335TIP3    H236949   2.533   6.500   4.389
12336TIP3   OH236950   5.990   0.112   0.619
12336TIP3    H136951   6.058   0.121   0.552
12336TIP3    H236952   5.911   0.148   0.577
12337TIP3   OH236953   0.387   6.153   3.013
12337TIP3    H136954   0.396   6.060   3.031
12337TIP3    H236955   0.292   6.169   3.015
12338TIP3   OH236956   2.549   2.920   2.944
12338TIP3    H136957   2.596   2.879   2.872
12338TIP3    H236958   2.482   2.973   2.902
12339TIP3   OH236959   5.759   7.363   0.013
12339TIP3    H136960   5.720   7.276   0.002
12339TIP3    H236961   5.720   7.397   0.093
12340TIP3   OH236962   2.970   7.366   5.136
12340TIP3    H136963   2.959   7.361   5.230
12340TIP3    H236964   2.981   7.459   5.118
12341TIP3   OH236965   4.851   1.026   2.868
12341TIP3    H136966   4.937   0.984   2.864
12341TIP3    H236967   4.856   1.085   2.944
12342TIP3   OH236968   2.006   6.078   3.429
12342TIP3    H136969   2.041   6.154   3.475
12342TIP3    H236970   2.079   6.047   3.375
12343TIP3   OH236971   0.497   4.017   2.470
12343TIP3    H136972   0.564   4.034   2.536
12343TIP3    H236973   0.511   3.925   2.445
12344TIP3   OH236974   0.234   4.202   6.534
12344TIP3    H136975   0.292   4.269   6.571
12344TIP3    H236976   0.270   4.119   6.566
12345TIP3   OH236977   1.957   4.902   2.993
12345TIP3    H136978   1.960   4.990   2.954
12345TIP3    H236979   1.865   4.888   3.013
12346TIP3   OH236980   7.123   4.454   2.209
12346TIP3    H136981   7.159   4.542   2.215
12346TIP3    H236982   7.175   4.411   2.141
12347TIP3   OH236983   8.189   0.765   5.955
12347TIP3    H136984   8.281   0.739   5.951
12347TIP3    H236985   8.191   0.860   5.944
12348TIP3   OH236986   6.359   5.712   0.145
12348TIP3    H136987   6.416   5.733   0.219
12348TIP3    H236988   6.278   5.681   0.185
12349TIP3   OH236989   4.132   2.999   0.627
12349TIP3    H136990   4.089   3.059   0.567
12349TIP3    H236991   4.191   2.948   0.572
12350TIP3   OH236992   1.692   4.928   1.641
12350TIP3    H136993   1.637   4.904   1.566
12350TIP3    H236994   1.647   5.004   1.679
12351TIP3   OH236995   2.169   3.801   3.120
12351TIP3    H136996   2.220   3.829   3.044
12351TIP3    H236997   2.078   3.812   3.093
12352TIP3   OH236998   7.566   4.164   3.067
12352TIP3    H136999   7.500   4.115   3.019
12352TIP3    H237000   7.594   4.105   3.137
12353TIP3   OH237001   3.917   5.515   1.338
12353TIP3    H137002   3.864   5.517   1.417
12353TIP3    H237003   3.892   5.594   1.290
12354TIP3   OH237004   6.748   2.208   3.248
12354TIP3    H137005   6.807   2.279   3.274
12354TIP3    H237006   6.669   2.224   3.299
12355TIP3   OH237007   7.526   5.522   2.549
12355TIP3    H137008   7.563   5.443   2.510
12355TIP3    H237009   7.602   5.575   2.573
12356TIP3   OH237010   7.827   1.270   4.811
12356TIP3    H137011   7.826   1.354   4.857
12356TIP3    H237012   7.889   1.216   4.859
12357TIP3   OH237013   3.412   4.004   5.561
12357TIP3    H137014   3.353   4.028   5.632
12357TIP3    H237015   3.365   4.029   5.481
12358TIP3   OH237016   5.233   2.429   5.441
12358TIP3    H137017   5.141   2.443   5.460
12358TIP3    H237018   5.276   2.508   5.473
12359TIP3   OH237019   0.827   6.629   2.595
12359TIP3    H137020   0.864   6.545   2.619
12359TIP3    H237021   0.828   6.680   2.676
12360TIP3   OH237022   8.113   2.949   0.419
12360TIP3    H137023   8.023   2.976   0.438
12360TIP3    H237024   8.167   3.010   0.470
12361TIP3   OH237025   6.955   6.817   0.903
12361TIP3    H137026   7.022   6.749   0.907
12361TIP3    H237027   6.940   6.842   0.994
12362TIP3   OH237028   5.841   4.981   0.329
12362TIP3    H137029   5.833   4.921   0.255
12362TIP3    H237030   5.921   5.031   0.311
12363TIP3   OH237031   5.193   5.885   4.170
12363TIP3    H137032   5.107   5.903   4.208
12363TIP3    H237033   5.177   5.877   4.076
12364TIP3   OH237034   0.485   3.094   5.877
12364TIP3    H137035   0.579   3.108   5.881
12364TIP3    H237036   0.448   3.183   5.879
12365TIP3   OH237037   0.151   0.773   0.024
12365TIP3    H137038   0.137   0.737   0.112
12365TIP3    H237039   0.226   0.725  -0.010
12366TIP3   OH237040   7.202   5.314   3.499
12366TIP3    H137041   7.199   5.286   3.407
12366TIP3    H237042   7.283   5.277   3.533
12367TIP3   OH237043   7.375   4.941   3.782
12367TIP3    H137044   7.341   4.885   3.851
12367TIP3    H237045   7.470   4.934   3.790
12368TIP3   OH237046   4.766   4.624   3.658
12368TIP3    H137047   4.845   4.612   3.711
12368TIP3    H237048   4.701   4.565   3.697
12369TIP3   OH237049  -0.036   5.769   6.137
12369TIP3    H137050   0.009   5.843   6.096
12369TIP3    H237051  -0.100   5.810   6.195
12370TIP3   OH237052   1.391   0.982   6.205
12370TIP3    H137053   1.478   0.941   6.203
12370TIP3    H237054   1.409   1.076   6.210
12371TIP3   OH237055   1.902   0.393   4.530
12371TIP3    H137056   1.835   0.459   4.513
12371TIP3    H237057   1.971   0.440   4.577
12372TIP3   OH237058   4.540   5.409   5.093
12372TIP3    H137059   4.619   5.363   5.063
12372TIP3    H237060   4.474   5.341   5.100
12373TIP3   OH237061   6.763   5.093   5.149
12373TIP3    H137062   6.740   5.097   5.242
12373TIP3    H237063   6.767   4.999   5.129
12374TIP3   OH237064   4.951   6.233   3.783
12374TIP3    H137065   4.974   6.143   3.761
12374TIP3    H237066   4.910   6.267   3.703
12375TIP3   OH237067   5.569   1.865   2.325
12375TIP3    H137068   5.611   1.930   2.380
12375TIP3    H237069   5.488   1.842   2.371
12376TIP3   OH237070   0.889   2.008   0.566
12376TIP3    H137071   0.882   2.025   0.472
12376TIP3    H237072   0.862   2.090   0.607
12377TIP3   OH237073   6.974   6.832   6.130
12377TIP3    H137074   6.974   6.851   6.036
12377TIP3    H237075   7.036   6.760   6.140
12378TIP3   OH237076   7.629   2.796   2.937
12378TIP3    H137077   7.547   2.754   2.959
12378TIP3    H237078   7.655   2.758   2.853
12379TIP3   OH237079   1.374   7.064   6.448
12379TIP3    H137080   1.352   7.147   6.406
12379TIP3    H237081   1.329   7.066   6.533
12380TIP3   OH237082   2.094   5.417   3.440
12380TIP3    H137083   2.005   5.385   3.449
12380TIP3    H237084   2.138   5.388   3.520
12381TIP3   OH237085   8.068   7.021   4.815
12381TIP3    H137086   8.063   7.006   4.909
12381TIP3    H237087   8.076   6.934   4.777
12382TIP3   OH237088   5.184   5.040   0.747
12382TIP3    H137089   5.215   5.053   0.658
12382TIP3    H237090   5.104   5.093   0.752
12383TIP3   OH237091   4.797   1.929   1.620
12383TIP3    H137092   4.708   1.895   1.622
12383TIP3    H237093   4.794   2.007   1.675
12384TIP3   OH237094   1.753   3.548   5.296
12384TIP3    H137095   1.753   3.519   5.205
12384TIP3    H237096   1.751   3.644   5.290
12385TIP3   OH237097   3.901   5.094   4.682
12385TIP3    H137098   3.983   5.066   4.724
12385TIP3    H237099   3.915   5.186   4.661
12386TIP3   OH237100   2.407   1.784   0.043
12386TIP3    H137101   2.312   1.794   0.037
12386TIP3    H237102   2.419   1.704   0.095
12387TIP3   OH237103   5.033   1.425   5.653
12387TIP3    H137104   4.943   1.442   5.627
12387TIP3    H237105   5.032   1.425   5.748
12388TIP3   OH237106   3.966   2.214   6.062
12388TIP3    H137107   3.967   2.306   6.089
12388TIP3    H237108   4.016   2.169   6.130
12389TIP3   OH237109   2.118   5.342   6.055
12389TIP3    H137110   2.052   5.274   6.072
12389TIP3    H237111   2.177   5.337   6.131
12390TIP3   OH237112   6.669   6.521   4.047
12390TIP3    H137113   6.663   6.447   3.987
12390TIP3    H237114   6.646   6.485   4.132
12391TIP3   OH237115   4.572   2.885   2.510
12391TIP3    H137116   4.500   2.947   2.495
12391TIP3    H237117   4.528   2.805   2.541
12392TIP3   OH237118   0.511   4.463   0.648
12392TIP3    H137119   0.494   4.498   0.736
12392TIP3    H237120   0.454   4.387   0.641
12393TIP3   OH237121   2.792   5.767   1.191
12393TIP3    H137122   2.748   5.685   1.214
12393TIP3    H237123   2.812   5.758   1.098
12394TIP3   OH237124   1.974   1.628   3.066
12394TIP3    H137125   2.024   1.555   3.101
12394TIP3    H237126   1.934   1.594   2.986
12395TIP3   OH237127   7.625   1.554   4.476
12395TIP3    H137128   7.628   1.471   4.524
12395TIP3    H237129   7.533   1.581   4.482
12396TIP3   OH237130   3.619   7.514   5.753
12396TIP3    H137131   3.591   7.502   5.844
12396TIP3    H237132   3.712   7.492   5.754
12397TIP3   OH237133   8.103   2.923   1.667
12397TIP3    H137134   8.135   2.907   1.756
12397TIP3    H237135   8.015   2.959   1.680
12398TIP3   OH237136   6.367   7.253   6.426
12398TIP3    H137137   6.275   7.229   6.415
12398TIP3    H237138   6.371   7.290   6.514
12399TIP3   OH237139   1.776   4.768   0.364
12399TIP3    H137140   1.759   4.849   0.316
12399TIP3    H237141   1.753   4.699   0.302
12400TIP3   OH237142   4.052   2.061   4.188
12400TIP3    H137143   3.981   2.013   4.230
12400TIP3    H237144   4.061   2.141   4.240
12401TIP3   OH237145   1.376   5.390   2.980
12401TIP3    H137146   1.423   5.343   2.911
12401TIP3    H237147   1.283   5.373   2.961
12402TIP3   OH237148   3.719   7.619   3.993
12402TIP3    H137149   3.781   7.690   3.976
12402TIP3    H237150   3.712   7.616   4.089
12403TIP3   OH237151   2.485   7.716   4.744
12403TIP3    H137152   2.542   7.690   4.817
12403TIP3    H237153   2.409   7.755   4.786
12404TIP3   OH237154   2.716   3.252   3.985
12404TIP3    H137155   2.656   3.211   4.047
12404TIP3    H237156   2.798   3.260   4.033
12405TIP3   OH237157   3.737   3.789   0.669
12405TIP3    H137158   3.660   3.827   0.711
12405TIP3    H237159   3.773   3.860   0.616
12406TIP3   OH237160   2.818   3.135   3.411
12406TIP3    H137161   2.872   3.212   3.391
12406TIP3    H237162   2.857   3.064   3.359
12407TIP3   OH237163   3.751  -0.024   4.089
12407TIP3    H137164   3.725  -0.038   3.997
12407TIP3    H237165   3.818   0.043   4.084
12408TIP3   OH237166   0.356   6.584   1.099
12408TIP3    H137167   0.385   6.510   1.152
12408TIP3    H237168   0.271   6.608   1.137
12409TIP3   OH237169   8.027   4.456   2.157
12409TIP3    H137170   7.978   4.376   2.178
12409TIP3    H237171   8.060   4.486   2.242
12410TIP3   OH237172   1.146   0.917   0.143
12410TIP3    H137173   1.066   0.896   0.095
12410TIP3    H237174   1.116   0.954   0.226
12411TIP3   OH237175   8.064   1.640   2.362
12411TIP3    H137176   8.049   1.705   2.293
12411TIP3    H237177   8.159   1.627   2.362
12412TIP3   OH237178   5.948   0.022   3.186
12412TIP3    H137179   5.962  -0.050   3.124
12412TIP3    H237180   5.929   0.098   3.131
12413TIP3   OH237181   8.066   2.421   5.560
12413TIP3    H137182   8.152   2.463   5.558
12413TIP3    H237183   8.054   2.395   5.652
12414TIP3   OH237184   4.783   0.554   2.187
12414TIP3    H137185   4.709   0.536   2.128
12414TIP3    H237186   4.808   0.468   2.221
12415TIP3   OH237187   7.723   3.636   3.734
12415TIP3    H137188   7.736   3.728   3.711
12415TIP3    H237189   7.788   3.589   3.682
12416TIP3   OH237190   4.631   7.557   2.401
12416TIP3    H137191   4.629   7.524   2.312
12416TIP3    H237192   4.668   7.645   2.394
12417TIP3   OH237193   6.720   4.561   4.756
12417TIP3    H137194   6.696   4.579   4.665
12417TIP3    H237195   6.745   4.468   4.756
12418TIP3   OH237196   3.373   1.939   1.339
12418TIP3    H137197   3.344   1.884   1.267
12418TIP3    H237198   3.457   1.975   1.309
12419TIP3   OH237199   4.336   3.369   6.349
12419TIP3    H137200   4.401   3.437   6.331
12419TIP3    H237201   4.251   3.413   6.341
12420TIP3   OH237202   8.026   4.466   5.385
12420TIP3    H137203   7.942   4.493   5.350
12420TIP3    H237204   8.042   4.525   5.459
12421TIP3   OH237205   5.920   5.765   4.806
12421TIP3    H137206   5.999   5.759   4.860
12421TIP3    H237207   5.848   5.754   4.868
12422TIP3   OH237208   5.180   7.210   3.295
12422TIP3    H137209   5.180   7.190   3.201
12422TIP3    H237210   5.088   7.227   3.315
12423TIP3   OH237211   1.303   5.234   3.894
12423TIP3    H137212   1.273   5.281   3.972
12423TIP3    H237213   1.269   5.285   3.821
12424TIP3   OH237214   2.561   6.089   4.346
12424TIP3    H137215   2.646   6.130   4.365
12424TIP3    H237216   2.541   6.039   4.425
12425TIP3   OH237217   8.333   0.418   5.705
12425TIP3    H137218   8.306   0.470   5.781
12425TIP3    H237219   8.268   0.437   5.638
12426TIP3   OH237220   2.955   0.114   5.551
12426TIP3    H137221   3.022   0.179   5.528
12426TIP3    H237222   2.965   0.103   5.646
12427TIP3   OH237223   4.005   0.974   2.325
12427TIP3    H137224   4.059   0.932   2.259
12427TIP3    H237225   3.919   0.983   2.284
12428TIP3   OH237226   8.075   0.131   0.261
12428TIP3    H137227   8.148   0.168   0.311
12428TIP3    H237228   8.115   0.061   0.209
12429TIP3   OH237229   5.003   6.523   6.484
12429TIP3    H137230   5.001   6.512   6.579
12429TIP3    H237231   5.019   6.435   6.450
12430TIP3   OH237232   2.350   6.262   6.693
12430TIP3    H137233   2.403   6.334   6.657
12430TIP3    H237234   2.293   6.235   6.621
12431TIP3   OH237235   7.117   3.029   4.970
12431TIP3    H137236   7.092   3.029   4.877
12431TIP3    H237237   7.055   3.089   5.012
12432TIP3   OH237238   2.750   5.599   1.806
12432TIP3    H137239   2.658   5.574   1.796
12432TIP3    H237240   2.768   5.656   1.732
12433TIP3   OH237241   6.853   2.890   2.168
12433TIP3    H137242   6.878   2.962   2.110
12433TIP3    H237243   6.936   2.850   2.195
12434TIP3   OH237244   4.060   1.534   1.781
12434TIP3    H137245   4.104   1.512   1.863
12434TIP3    H237246   4.045   1.449   1.739
12435TIP3   OH237247   2.337   0.351   2.992
12435TIP3    H137248   2.351   0.403   3.071
12435TIP3    H237249   2.370   0.264   3.015
12436TIP3   OH237250   3.911   1.504   3.818
12436TIP3    H137251   3.929   1.443   3.889
12436TIP3    H237252   3.997   1.531   3.788
12437TIP3   OH237253   4.236   3.458   2.485
12437TIP3    H137254   4.305   3.408   2.440
12437TIP3    H237255   4.212   3.403   2.559
12438TIP3   OH237256   6.889   2.137   4.402
12438TIP3    H137257   6.880   2.196   4.477
12438TIP3    H237258   6.831   2.064   4.423
12439TIP3   OH237259   6.519   3.583   3.952
12439TIP3    H137260   6.609   3.586   3.920
12439TIP3    H237261   6.465   3.594   3.874
12440TIP3   OH237262   6.321   0.595   4.638
12440TIP3    H137263   6.256   0.579   4.569
12440TIP3    H237264   6.298   0.533   4.707
12441TIP3   OH237265   3.620   1.647   2.723
12441TIP3    H137266   3.655   1.674   2.638
12441TIP3    H237267   3.622   1.726   2.776
12442TIP3   OH237268   6.465   1.885   4.158
12442TIP3    H137269   6.470   1.845   4.072
12442TIP3    H237270   6.556   1.904   4.181
12443TIP3   OH237271   3.754   2.182   0.332
12443TIP3    H137272   3.817   2.146   0.395
12443TIP3    H237273   3.761   2.277   0.343
12444TIP3   OH237274   3.901   4.897   1.481
12444TIP3    H137275   3.971   4.842   1.516
12444TIP3    H237276   3.946   4.967   1.434
12445TIP3   OH237277   2.879   3.302   2.409
12445TIP3    H137278   2.874   3.228   2.470
12445TIP3    H237279   2.791   3.340   2.409
12446TIP3   OH237280   3.470   2.193   3.180
12446TIP3    H137281   3.466   2.131   3.108
12446TIP3    H237282   3.418   2.153   3.250
12447TIP3   OH237283   7.632   0.786   3.037
12447TIP3    H137284   7.609   0.866   2.989
12447TIP3    H237285   7.549   0.747   3.062
12448TIP3   OH237286   8.101   5.267   0.641
12448TIP3    H137287   8.106   5.253   0.547
12448TIP3    H237288   8.178   5.321   0.662
12449TIP3   OH237289   1.775   7.183   0.528
12449TIP3    H137290   1.751   7.137   0.608
12449TIP3    H237291   1.708   7.156   0.464
12450TIP3   OH237292   5.102   3.964   6.308
12450TIP3    H137293   5.066   3.877   6.321
12450TIP3    H237294   5.029   4.015   6.273
12451TIP3   OH237295   3.500   3.317   0.805
12451TIP3    H137296   3.580   3.364   0.780
12451TIP3    H237297   3.430   3.381   0.794
12452TIP3   OH237298   7.213   7.600   3.455
12452TIP3    H137299   7.155   7.532   3.489
12452TIP3    H237300   7.170   7.630   3.375
12453TIP3   OH237301   0.085   6.309   5.352
12453TIP3    H137302   0.110   6.240   5.413
12453TIP3    H237303   0.100   6.271   5.265
12454TIP3   OH237304   1.709   7.072   0.266
12454TIP3    H137305   1.698   7.062   0.172
12454TIP3    H237306   1.777   7.009   0.290
12455TIP3   OH237307   0.936   6.891   6.502
12455TIP3    H137308   1.031   6.888   6.510
12455TIP3    H237309   0.908   6.801   6.513
12456TIP3   OH237310   2.798   0.340   5.883
12456TIP3    H137311   2.822   0.253   5.852
12456TIP3    H237312   2.733   0.371   5.820
12457TIP3   OH237313   4.267   2.229   5.707
12457TIP3    H137314   4.235   2.208   5.619
12457TIP3    H237315   4.355   2.266   5.692
12458TIP3   OH237316   4.360   4.023   3.428
12458TIP3    H137317   4.404   4.102   3.458
12458TIP3    H237318   4.269   4.050   3.414
12459TIP3   OH237319   2.904   0.802   1.507
12459TIP3    H137320   2.966   0.733   1.528
12459TIP3    H237321   2.899   0.802   1.412
12460TIP3   OH237322   2.411   2.294   0.332
12460TIP3    H137323   2.504   2.280   0.347
12460TIP3    H237324   2.380   2.335   0.413
12461TIP3   OH237325   5.379   7.041   3.373
12461TIP3    H137326   5.455   7.097   3.363
12461TIP3    H237327   5.306   7.093   3.340
12462TIP3   OH237328   2.385   6.930   2.199
12462TIP3    H137329   2.445   7.001   2.220
12462TIP3    H237330   2.332   6.963   2.127
12463TIP3   OH237331   1.153   3.818   0.628
12463TIP3    H137332   1.074   3.824   0.575
12463TIP3    H237333   1.178   3.726   0.624
12464TIP3   OH237334   5.389   1.646   1.936
12464TIP3    H137335   5.387   1.588   2.012
12464TIP3    H237336   5.415   1.731   1.971
12465TIP3   OH237337   3.281   0.893   4.827
12465TIP3    H137338   3.301   0.822   4.888
12465TIP3    H237339   3.365   0.938   4.815
12466TIP3   OH237340   4.541   0.216   0.690
12466TIP3    H137341   4.528   0.143   0.751
12466TIP3    H237342   4.615   0.189   0.635
12467TIP3   OH237343   8.241   4.845   4.852
12467TIP3    H137344   8.235   4.887   4.937
12467TIP3    H237345   8.184   4.768   4.858
12468TIP3   OH237346   3.502   6.086   1.979
12468TIP3    H137347   3.452   6.036   2.043
12468TIP3    H237348   3.593   6.061   1.994
12469TIP3   OH237349   0.310   6.584   4.149
12469TIP3    H137350   0.295   6.551   4.238
12469TIP3    H237351   0.234   6.554   4.099
12470TIP3   OH237352   6.691   1.971   4.625
12470TIP3    H137353   6.666   1.917   4.701
12470TIP3    H237354   6.611   1.979   4.574
12471TIP3   OH237355   5.978   6.274   0.294
12471TIP3    H137356   5.989   6.182   0.320
12471TIP3    H237357   6.006   6.276   0.202
12472TIP3   OH237358   4.774   5.044   5.892
12472TIP3    H137359   4.722   5.049   5.972
12472TIP3    H237360   4.818   4.959   5.897
12473TIP3   OH237361   0.535   3.790   4.605
12473TIP3    H137362   0.528   3.823   4.515
12473TIP3    H237363   0.625   3.809   4.632
12474TIP3   OH237364   4.508   2.113   1.669
12474TIP3    H137365   4.546   2.153   1.747
12474TIP3    H237366   4.414   2.126   1.678
12475TIP3   OH237367   6.045   7.156   3.418
12475TIP3    H137368   6.128   7.159   3.465
12475TIP3    H237369   6.070   7.137   3.327
12476TIP3   OH237370   0.619   7.748   6.610
12476TIP3    H137371   0.581   7.702   6.684
12476TIP3    H237372   0.711   7.759   6.634
12477TIP3   OH237373   1.809   7.482   4.844
12477TIP3    H137374   1.734   7.506   4.789
12477TIP3    H237375   1.770   7.441   4.921
12478TIP3   OH237376   2.447   0.806   2.839
12478TIP3    H137377   2.504   0.824   2.914
12478TIP3    H237378   2.469   0.716   2.814
12479TIP3   OH237379   4.554   6.313   0.781
12479TIP3    H137380   4.575   6.227   0.816
12479TIP3    H237381   4.501   6.295   0.703
12480TIP3   OH237382   2.186   3.500   0.364
12480TIP3    H137383   2.181   3.585   0.407
12480TIP3    H237384   2.105   3.455   0.390
12481TIP3   OH237385   5.912   4.916   4.798
12481TIP3    H137386   5.898   4.959   4.882
12481TIP3    H237387   5.825   4.885   4.772
12482TIP3   OH237388   0.457   2.693   4.123
12482TIP3    H137389   0.369   2.670   4.153
12482TIP3    H237390   0.516   2.637   4.173
12483TIP3   OH237391   4.862   6.414   0.662
12483TIP3    H137392   4.770   6.393   0.645
12483TIP3    H237393   4.876   6.496   0.616
12484TIP3   OH237394   3.061   3.017   2.267
12484TIP3    H137395   3.129   2.951   2.253
12484TIP3    H237396   2.980   2.967   2.271
12485TIP3   OH237397   1.059   4.066   1.379
12485TIP3    H137398   1.018   3.993   1.424
12485TIP3    H237399   1.015   4.069   1.294
12486TIP3   OH237400   3.407   2.170   2.614
12486TIP3    H137401   3.358   2.088   2.628
12486TIP3    H237402   3.493   2.152   2.650
12487TIP3   OH237403   5.545   3.986   6.639
12487TIP3    H137404   5.540   4.072   6.598
12487TIP3    H237405   5.477   3.935   6.595
12488TIP3   OH237406   0.332   1.378   0.810
12488TIP3    H137407   0.345   1.419   0.725
12488TIP3    H237408   0.323   1.285   0.791
12489TIP3   OH237409   6.319   4.707   4.959
12489TIP3    H137410   6.306   4.665   5.044
12489TIP3    H237411   6.327   4.800   4.980
12490TIP3   OH237412   7.894   7.300   4.113
12490TIP3    H137413   7.863   7.382   4.150
12490TIP3    H237414   7.851   7.295   4.027
12491TIP3   OH237415   8.274   5.972   2.187
12491TIP3    H137416   8.182   5.944   2.189
12491TIP3    H237417   8.314   5.919   2.118
12492TIP3   OH237418   1.846   2.048   2.308
12492TIP3    H137419   1.758   2.075   2.333
12492TIP3    H237420   1.833   1.975   2.247
12493TIP3   OH237421   2.560   1.436   1.085
12493TIP3    H137422   2.527   1.516   1.127
12493TIP3    H237423   2.524   1.439   0.996
12494TIP3   OH237424   0.441   2.155   2.390
12494TIP3    H137425   0.362   2.154   2.336
12494TIP3    H237426   0.410   2.179   2.477
12495TIP3   OH237427   4.271   2.451   1.481
12495TIP3    H137428   4.247   2.370   1.527
12495TIP3    H237429   4.190   2.501   1.476
12496TIP3   OH237430   1.033   4.239   5.320
12496TIP3    H137431   0.947   4.238   5.362
12496TIP3    H237432   1.061   4.148   5.321
12497TIP3   OH237433   3.355   7.237   5.593
12497TIP3    H137434   3.416   7.253   5.522
12497TIP3    H237435   3.409   7.200   5.663
12498TIP3   OH237436   3.984   3.805   1.823
12498TIP3    H137437   4.002   3.730   1.879
12498TIP3    H237438   4.058   3.865   1.838
12499TIP3   OH237439   2.164   0.438   5.878
12499TIP3    H137440   2.185   0.531   5.875
12499TIP3    H237441   2.138   0.422   5.968
12500TIP3   OH237442   3.932   3.623   1.579
12500TIP3    H137443   3.963   3.640   1.668
12500TIP3    H237444   3.968   3.696   1.527
12501TIP3   OH237445   2.623   6.692   5.468
12501TIP3    H137446   2.602   6.698   5.561
12501TIP3    H237447   2.702   6.747   5.458
12502TIP3   OH237448   4.141   2.293   1.198
12502TIP3    H137449   4.072   2.234   1.229
12502TIP3    H237450   4.222   2.253   1.228
12503TIP3   OH237451   5.006   0.097   0.622
12503TIP3    H137452   4.992   0.108   0.528
12503TIP3    H237453   5.081   0.154   0.641
12504TIP3   OH237454   6.756   4.651   2.831
12504TIP3    H137455   6.786   4.613   2.914
12504TIP3    H237456   6.765   4.580   2.767
12505TIP3   OH237457   2.573   5.620   4.591
12505TIP3    H137458   2.548   5.643   4.680
12505TIP3    H237459   2.630   5.692   4.563
12506TIP3   OH237460   6.209   1.138   1.028
12506TIP3    H137461   6.144   1.068   1.025
12506TIP3    H237462   6.276   1.113   0.965
12507TIP3   OH237463   4.826   2.714   0.115
12507TIP3    H137464   4.818   2.800   0.156
12507TIP3    H237465   4.829   2.732   0.021
12508TIP3   OH237466   1.915   6.144   4.966
12508TIP3    H137467   1.837   6.161   4.915
12508TIP3    H237468   1.975   6.216   4.944
12509TIP3   OH237469   3.714   0.675   6.294
12509TIP3    H137470   3.796   0.713   6.265
12509TIP3    H237471   3.678   0.632   6.217
12510TIP3   OH237472   1.215   0.785   1.299
12510TIP3    H137473   1.141   0.727   1.286
12510TIP3    H237474   1.260   0.749   1.376
12511TIP3   OH237475   5.808   6.310   2.763
12511TIP3    H137476   5.863   6.361   2.823
12511TIP3    H237477   5.748   6.374   2.725
12512TIP3   OH237478   0.381   1.718   5.452
12512TIP3    H137479   0.379   1.770   5.532
12512TIP3    H237480   0.289   1.705   5.429
12513TIP3   OH237481   2.526   7.029   3.857
12513TIP3    H137482   2.504   6.973   3.932
12513TIP3    H237483   2.615   7.003   3.833
12514TIP3   OH237484   3.367   2.944   2.907
12514TIP3    H137485   3.346   2.891   2.983
12514TIP3    H237486   3.449   2.988   2.930
12515TIP3   OH237487   5.041   3.082   0.414
12515TIP3    H137488   5.093   3.003   0.400
12515TIP3    H237489   5.097   3.138   0.467
12516TIP3   OH237490   1.679   5.873   5.972
12516TIP3    H137491   1.767   5.882   6.009
12516TIP3    H237492   1.685   5.915   5.887
12517TIP3   OH237493   5.718   7.102   3.092
12517TIP3    H137494   5.646   7.046   3.063
12517TIP3    H237495   5.731   7.163   3.019
12518TIP3   OH237496   3.302   0.641   1.739
12518TIP3    H137497   3.335   0.584   1.809
12518TIP3    H237498   3.380   0.683   1.704
12519TIP3   OH237499   7.610   2.943   2.641
12519TIP3    H137500   7.661   2.985   2.709
12519TIP3    H237501   7.575   3.015   2.588
12520TIP3   OH237502   6.530   3.137   1.665
12520TIP3    H137503   6.497   3.057   1.707
12520TIP3    H237504   6.470   3.152   1.593
12521TIP3   OH237505   0.418   5.104   5.843
12521TIP3    H137506   0.466   5.137   5.767
12521TIP3    H237507   0.469   5.029   5.873
12522TIP3   OH237508   1.313   4.581   4.649
12522TIP3    H137509   1.220   4.577   4.630
12522TIP3    H237510   1.338   4.671   4.629
12523TIP3   OH237511   8.102   3.177   6.664
12523TIP3    H137512   8.084   3.189   6.757
12523TIP3    H237513   8.177   3.234   6.647
12524TIP3   OH237514   1.989   3.973   2.432
12524TIP3    H137515   2.006   4.064   2.455
12524TIP3    H237516   1.924   3.977   2.362
12525TIP3   OH237517   0.583   2.186   4.067
12525TIP3    H137518   0.604   2.117   4.004
12525TIP3    H237519   0.612   2.152   4.151
12526TIP3   OH237520   3.165   1.690   4.654
12526TIP3    H137521   3.223   1.664   4.581
12526TIP3    H237522   3.081   1.649   4.633
12527TIP3   OH237523   0.679   4.318   5.844
12527TIP3    H137524   0.736   4.247   5.875
12527TIP3    H237525   0.590   4.285   5.860
12528TIP3   OH237526   0.123   7.339   3.792
12528TIP3    H137527   0.157   7.384   3.869
12528TIP3    H237528   0.031   7.365   3.788
12529TIP3   OH237529   0.812   6.573   5.983
12529TIP3    H137530   0.868   6.645   5.952
12529TIP3    H237531   0.805   6.588   6.077
12530TIP3   OH237532   5.136   1.359   5.038
12530TIP3    H137533   5.185   1.427   4.992
12530TIP3    H237534   5.118   1.396   5.124
12531TIP3   OH237535   2.561   4.043   3.839
12531TIP3    H137536   2.595   4.129   3.813
12531TIP3    H237537   2.599   3.982   3.776
12532TIP3   OH237538   6.353   0.374   0.908
12532TIP3    H137539   6.362   0.432   0.833
12532TIP3    H237540   6.271   0.327   0.893
12533TIP3   OH237541   7.607   6.142   2.867
12533TIP3    H137542   7.532   6.119   2.921
12533TIP3    H237543   7.579   6.123   2.777
12534TIP3   OH237544   5.008   1.923  -0.032
12534TIP3    H137545   4.977   1.846   0.014
12534TIP3    H237546   5.036   1.983   0.037
12535TIP3   OH237547   6.701   4.962   2.497
12535TIP3    H137548   6.628   5.011   2.458
12535TIP3    H237549   6.660   4.909   2.565
12536TIP3   OH237550   2.711   3.559   2.484
12536TIP3    H137551   2.768   3.607   2.543
12536TIP3    H237552   2.689   3.479   2.533
12537TIP3   OH237553   2.934   3.248   2.156
12537TIP3    H137554   2.981   3.167   2.176
12537TIP3    H237555   2.898   3.276   2.240
12538TIP3   OH237556   2.584   4.142   0.750
12538TIP3    H137557   2.538   4.073   0.703
12538TIP3    H237558   2.515   4.203   0.777
12539TIP3   OH237559   7.215   7.088   4.356
12539TIP3    H137560   7.245   7.087   4.265
12539TIP3    H237561   7.136   7.034   4.356
12540TIP3   OH237562   7.037   3.150   5.814
12540TIP3    H137563   7.076   3.213   5.754
12540TIP3    H237564   6.971   3.199   5.862
12541TIP3   OH237565   2.502   3.530   6.655
12541TIP3    H137566   2.582   3.479   6.670
12541TIP3    H237567   2.482   3.516   6.562
12542TIP3   OH237568   6.278   5.651   5.812
12542TIP3    H137569   6.242   5.739   5.820
12542TIP3    H237570   6.250   5.621   5.726
12543TIP3   OH237571   2.459   3.992   0.141
12543TIP3    H137572   2.458   4.078   0.183
12543TIP3    H237573   2.519   3.940   0.194
12544TIP3   OH237574   8.041   0.195   5.787
12544TIP3    H137575   8.021   0.267   5.847
12544TIP3    H237576   7.956   0.161   5.760
12545TIP3   OH237577   5.396   7.534   2.719
12545TIP3    H137578   5.326   7.511   2.657
12545TIP3    H237579   5.391   7.629   2.727
12546TIP3   OH237580   5.184   3.588   6.204
12546TIP3    H137581   5.136   3.671   6.211
12546TIP3    H237582   5.195   3.575   6.110
12547TIP3   OH237583   1.289   4.279   4.766
12547TIP3    H137584   1.307   4.237   4.682
12547TIP3    H237585   1.279   4.372   4.745
12548TIP3   OH237586   6.256   3.936   4.281
12548TIP3    H137587   6.177   3.884   4.295
12548TIP3    H237588   6.278   3.921   4.189
12549TIP3   OH237589   7.972   0.500   3.943
12549TIP3    H137590   7.993   0.463   3.857
12549TIP3    H237591   7.876   0.501   3.945
12550TIP3   OH237592   0.113   4.883   6.609
12550TIP3    H137593   0.062   4.952   6.567
12550TIP3    H237594   0.095   4.805   6.557
12551TIP3   OH237595   5.118   0.931   0.283
12551TIP3    H137596   5.205   0.928   0.323
12551TIP3    H237597   5.136   0.945   0.190
12552TIP3   OH237598   1.641   4.323   3.121
12552TIP3    H137599   1.617   4.268   3.046
12552TIP3    H237600   1.645   4.262   3.195
12553TIP3   OH237601   4.501   4.807   1.443
12553TIP3    H137602   4.535   4.829   1.357
12553TIP3    H237603   4.485   4.892   1.485
12554TIP3   OH237604   6.651   4.105   6.149
12554TIP3    H137605   6.669   4.198   6.164
12554TIP3    H237606   6.580   4.085   6.209
12555TIP3   OH237607   2.262   0.266   1.913
12555TIP3    H137608   2.273   0.235   1.824
12555TIP3    H237609   2.340   0.236   1.960
12556TIP3   OH237610   8.122   6.682   2.666
12556TIP3    H137611   8.130   6.706   2.573
12556TIP3    H237612   8.192   6.619   2.681
12557TIP3   OH237613   2.294   3.279   5.334
12557TIP3    H137614   2.350   3.280   5.411
12557TIP3    H237615   2.208   3.305   5.367
12558TIP3   OH237616   3.662   0.615   4.352
12558TIP3    H137617   3.664   0.527   4.390
12558TIP3    H237618   3.702   0.605   4.266
12559TIP3   OH237619   3.256   0.440   0.188
12559TIP3    H137620   3.174   0.482   0.211
12559TIP3    H237621   3.233   0.378   0.119
12560TIP3   OH237622   7.901   1.536   2.830
12560TIP3    H137623   7.897   1.629   2.851
12560TIP3    H237624   7.914   1.493   2.915
12561TIP3   OH237625   5.547   5.574   0.431
12561TIP3    H137626   5.575   5.556   0.341
12561TIP3    H237627   5.573   5.497   0.481
12562TIP3   OH237628   8.159   6.124   0.539
12562TIP3    H137629   8.172   6.204   0.489
12562TIP3    H237630   8.220   6.131   0.612
12563TIP3   OH237631   4.091   7.833   1.551
12563TIP3    H137632   4.033   7.825   1.628
12563TIP3    H237633   4.156   7.764   1.563
12564TIP3   OH237634   8.179   5.597   2.945
12564TIP3    H137635   8.214   5.511   2.923
12564TIP3    H237636   8.091   5.598   2.906
12565TIP3   OH237637   4.071   6.250   1.577
12565TIP3    H137638   4.015   6.324   1.599
12565TIP3    H237639   4.134   6.284   1.514
12566TIP3   OH237640   7.869   7.185   5.649
12566TIP3    H137641   7.866   7.277   5.624
12566TIP3    H237642   7.897   7.139   5.570
12567TIP3   OH237643   5.595   0.169   6.354
12567TIP3    H137644   5.636   0.126   6.429
12567TIP3    H237645   5.504   0.139   6.357
12568TIP3   OH237646   7.208   1.889   5.244
12568TIP3    H137647   7.212   1.900   5.339
12568TIP3    H237648   7.300   1.881   5.217
12569TIP3   OH237649   2.869   0.394   6.689
12569TIP3    H137650   2.902   0.420   6.603
12569TIP3    H237651   2.869   0.299   6.687
12570TIP3   OH237652   8.107   4.498   4.913
12570TIP3    H137653   8.056   4.457   4.843
12570TIP3    H237654   8.180   4.439   4.928
12571TIP3   OH237655   7.286   5.785   1.872
12571TIP3    H137656   7.371   5.748   1.895
12571TIP3    H237657   7.307   5.873   1.839
12572TIP3   OH237658   7.840   5.290   6.065
12572TIP3    H137659   7.901   5.262   5.996
12572TIP3    H237660   7.762   5.237   6.051
12573TIP3   OH237661   0.482   0.299   5.072
12573TIP3    H137662   0.567   0.259   5.053
12573TIP3    H237663   0.476   0.298   5.167
12574TIP3   OH237664   1.998   3.859   1.098
12574TIP3    H137665   1.978   3.897   1.183
12574TIP3    H237666   2.087   3.888   1.080
12575TIP3   OH237667   4.986   5.337   3.954
12575TIP3    H137668   4.913   5.296   4.000
12575TIP3    H237669   5.064   5.303   3.998
12576TIP3   OH237670   7.578   6.033   4.610
12576TIP3    H137671   7.574   6.127   4.624
12576TIP3    H237672   7.510   6.015   4.545
12577TIP3   OH237673   5.757   2.764   2.542
12577TIP3    H137674   5.708   2.684   2.523
12577TIP3    H237675   5.758   2.811   2.458
12578TIP3   OH237676   4.773   7.735   2.784
12578TIP3    H137677   4.803   7.659   2.834
12578TIP3    H237678   4.853   7.782   2.760
12579TIP3   OH237679   7.760   0.071   0.809
12579TIP3    H137680   7.699   0.092   0.880
12579TIP3    H237681   7.846   0.092   0.845
12580TIP3   OH237682   0.453   5.040   6.335
12580TIP3    H137683   0.488   5.008   6.252
12580TIP3    H237684   0.519   5.014   6.400
12581TIP3   OH237685   2.425   2.612   0.924
12581TIP3    H137686   2.504   2.562   0.945
12581TIP3    H237687   2.425   2.618   0.829
12582TIP3   OH237688   4.063   3.801   4.010
12582TIP3    H137689   3.994   3.736   4.003
12582TIP3    H237690   4.020   3.879   4.043
12583TIP3   OH237691   5.005   6.643   5.943
12583TIP3    H137692   5.097   6.658   5.919
12583TIP3    H237693   5.005   6.559   5.988
12584TIP3   OH237694   8.009   1.395   6.716
12584TIP3    H137695   8.019   1.302   6.696
12584TIP3    H237696   8.059   1.407   6.797
12585TIP3   OH237697   3.505   7.002   0.652
12585TIP3    H137698   3.513   6.926   0.594
12585TIP3    H237699   3.483   6.965   0.737
12586TIP3   OH237700   2.274   3.487   2.660
12586TIP3    H137701   2.307   3.557   2.604
12586TIP3    H237702   2.272   3.410   2.604
12587TIP3   OH237703   4.293   6.227   5.115
12587TIP3    H137704   4.380   6.259   5.135
12587TIP3    H237705   4.308   6.145   5.069
12588TIP3   OH237706   7.547   1.866   1.105
12588TIP3    H137707   7.567   1.927   1.176
12588TIP3    H237708   7.624   1.810   1.098
12589TIP3   OH237709   4.681   3.325   4.633
12589TIP3    H137710   4.702   3.232   4.639
12589TIP3    H237711   4.589   3.328   4.607
12590TIP3   OH237712   5.453   4.913   2.247
12590TIP3    H137713   5.509   4.962   2.307
12590TIP3    H237714   5.491   4.825   2.244
12591TIP3   OH237715   4.151   2.835   5.426
12591TIP3    H137716   4.164   2.920   5.386
12591TIP3    H237717   4.121   2.854   5.515
12592TIP3   OH237718   6.189   6.204   1.073
12592TIP3    H137719   6.259   6.252   1.028
12592TIP3    H237720   6.211   6.111   1.059
12593TIP3   OH237721   4.559   1.906   0.156
12593TIP3    H137722   4.599   1.919   0.070
12593TIP3    H237723   4.538   1.812   0.159
12594TIP3   OH237724   1.816   2.381   6.549
12594TIP3    H137725   1.862   2.424   6.622
12594TIP3    H237726   1.856   2.295   6.544
12595TIP3   OH237727   5.821   1.115   0.030
12595TIP3    H137728   5.766   1.079  -0.039
12595TIP3    H237729   5.772   1.101   0.110
12596TIP3   OH237730   5.614   1.804   3.731
12596TIP3    H137731   5.555   1.737   3.765
12596TIP3    H237732   5.681   1.755   3.683
12597TIP3   OH237733   5.927   2.113   3.441
12597TIP3    H137734   5.884   2.185   3.487
12597TIP3    H237735   6.009   2.100   3.489
12598TIP3   OH237736   3.455   1.450   2.663
12598TIP3    H137737   3.504   1.532   2.673
12598TIP3    H237738   3.516   1.383   2.694
12599TIP3   OH237739   6.397   4.485   5.746
12599TIP3    H137740   6.401   4.395   5.714
12599TIP3    H237741   6.313   4.491   5.790
12600TIP3   OH237742   1.519   4.390   4.635
12600TIP3    H137743   1.445   4.450   4.630
12600TIP3    H237744   1.553   4.401   4.724
12601TIP3   OH237745   4.831   2.002   6.022
12601TIP3    H137746   4.877   1.918   6.029
12601TIP3    H237747   4.743   1.978   5.994
12602TIP3   OH237748   7.171   1.734   3.479
12602TIP3    H137749   7.149   1.822   3.448
12602TIP3    H237750   7.245   1.748   3.538
12603TIP3   OH237751   1.356   2.095   1.437
12603TIP3    H137752   1.401   2.015   1.464
12603TIP3    H237753   1.263   2.074   1.446
12604TIP3   OH237754   6.020   4.448   1.097
12604TIP3    H137755   6.084   4.410   1.157
12604TIP3    H237756   6.000   4.378   1.035
12605TIP3   OH237757   7.309   0.290   4.745
12605TIP3    H137758   7.362   0.235   4.803
12605TIP3    H237759   7.328   0.379   4.772
12606TIP3   OH237760   7.180   1.252   3.033
12606TIP3    H137761   7.173   1.307   3.111
12606TIP3    H237762   7.265   1.274   2.996
12607TIP3   OH237763   3.443   0.438   6.337
12607TIP3    H137764   3.442   0.524   6.379
12607TIP3    H237765   3.529   0.432   6.296
12608TIP3   OH237766   7.260   7.681   1.678
12608TIP3    H137767   7.238   7.633   1.598
12608TIP3    H237768   7.181   7.675   1.732
12609TIP3   OH237769   1.641   6.010   2.989
12609TIP3    H137770   1.669   6.011   3.080
12609TIP3    H237771   1.635   6.103   2.964
12610TIP3   OH237772   5.764   7.524   3.140
12610TIP3    H137773   5.837   7.585   3.147
12610TIP3    H237774   5.797   7.451   3.088
12611TIP3   OH237775   7.892   0.022   2.377
12611TIP3    H137776   7.875  -0.016   2.291
12611TIP3    H237777   7.807   0.016   2.422
12612TIP3   OH237778   4.884   6.812   2.086
12612TIP3    H137779   4.791   6.794   2.070
12612TIP3    H237780   4.917   6.842   2.001
12613TIP3   OH237781   6.215   6.864   6.452
12613TIP3    H137782   6.155   6.802   6.410
12613TIP3    H237783   6.162   6.943   6.466
12614TIP3   OH237784   3.198   0.359   6.221
12614TIP3    H137785   3.177   0.412   6.145
12614TIP3    H237786   3.288   0.384   6.244
12615TIP3   OH237787   6.518   1.198   6.277
12615TIP3    H137788   6.493   1.258   6.347
12615TIP3    H237789   6.484   1.113   6.305
12616TIP3   OH237790   7.432   0.285   1.239
12616TIP3    H137791   7.446   0.374   1.272
12616TIP3    H237792   7.339   0.268   1.255
12617TIP3   OH237793   2.987   1.190   2.433
12617TIP3    H137794   2.936   1.131   2.377
12617TIP3    H237795   2.921   1.248   2.472
12618TIP3   OH237796   4.700   7.406   4.715
12618TIP3    H137797   4.670   7.473   4.654
12618TIP3    H237798   4.683   7.323   4.670
12619TIP3   OH237799   0.736   0.616   4.877
12619TIP3    H137800   0.732   0.636   4.971
12619TIP3    H237801   0.818   0.569   4.866
12620TIP3   OH237802   7.834   1.193   0.931
12620TIP3    H137803   7.832   1.217   1.024
12620TIP3    H237804   7.921   1.153   0.919
12621TIP3   OH237805   3.194   6.974   6.161
12621TIP3    H137806   3.246   6.998   6.238
12621TIP3    H237807   3.239   6.898   6.124
12622TIP3   OH237808   2.932   4.975   5.977
12622TIP3    H137809   2.874   4.900   5.969
12622TIP3    H237810   2.912   5.029   5.901
12623TIP3   OH237811   4.581   4.985   5.263
12623TIP3    H137812   4.491   5.013   5.275
12623TIP3    H237813   4.578   4.925   5.188
12624TIP3   OH237814   5.050   2.667   6.688
12624TIP3    H137815   5.071   2.573   6.683
12624TIP3    H237816   5.129   2.711   6.658
12625TIP3   OH237817   1.560   5.427   6.090
12625TIP3    H137818   1.601   5.370   6.026
12625TIP3    H237819   1.466   5.416   6.077
12626TIP3   OH237820   6.626   7.353   6.071
12626TIP3    H137821   6.563   7.402   6.019
12626TIP3    H237822   6.659   7.286   6.012
12627TIP3   OH237823   7.323   1.245   2.087
12627TIP3    H137824   7.398   1.282   2.132
12627TIP3    H237825   7.248   1.268   2.141
12628TIP3   OH237826   5.137   1.002   0.618
12628TIP3    H137827   5.064   1.061   0.598
12628TIP3    H237828   5.211   1.037   0.569
12629TIP3   OH237829   6.009   4.260   5.643
12629TIP3    H137830   6.096   4.223   5.628
12629TIP3    H237831   6.007   4.282   5.736
12630TIP3   OH237832   5.936   3.441   3.265
12630TIP3    H137833   6.025   3.406   3.257
12630TIP3    H237834   5.881   3.379   3.218
12631TIP3   OH237835   3.713   4.031   4.505
12631TIP3    H137836   3.754   4.053   4.421
12631TIP3    H237837   3.643   4.094   4.514
12632TIP3   OH237838   2.354   1.333   3.354
12632TIP3    H137839   2.449   1.335   3.356
12632TIP3    H237840   2.327   1.417   3.389
12633TIP3   OH237841   3.647   5.107   6.542
12633TIP3    H137842   3.704   5.085   6.468
12633TIP3    H237843   3.704   5.103   6.618
12634TIP3   OH237844   2.167   6.607   0.342
12634TIP3    H137845   2.092   6.666   0.333
12634TIP3    H237846   2.179   6.599   0.437
12635TIP3   OH237847   5.335   0.772   4.446
12635TIP3    H137848   5.421   0.763   4.406
12635TIP3    H237849   5.352   0.783   4.540
12636TIP3   OH237850   0.880   2.590   1.524
12636TIP3    H137851   0.891   2.530   1.449
12636TIP3    H237852   0.924   2.546   1.596
12637TIP3   OH237853   1.819   7.223   6.674
12637TIP3    H137854   1.897   7.278   6.661
12637TIP3    H237855   1.762   7.246   6.600
12638TIP3   OH237856   2.302   4.479   0.353
12638TIP3    H137857   2.374   4.472   0.415
12638TIP3    H237858   2.295   4.573   0.334
12639TIP3   OH237859   2.747   5.846   3.092
12639TIP3    H137860   2.673   5.867   3.149
12639TIP3    H237861   2.777   5.760   3.122
12640TIP3   OH237862   3.783   0.982   4.128
12640TIP3    H137863   3.825   0.917   4.072
12640TIP3    H237864   3.846   0.995   4.200
12641TIP3   OH237865   5.445   2.427   1.189
12641TIP3    H137866   5.460   2.339   1.156
12641TIP3    H237867   5.529   2.471   1.181
12642TIP3   OH237868   3.944   6.558   0.731
12642TIP3    H137869   3.926   6.649   0.757
12642TIP3    H237870   3.982   6.518   0.809
12643TIP3   OH237871   8.279   1.958   5.889
12643TIP3    H137872   8.303   2.007   5.968
12643TIP3    H237873   8.341   1.886   5.885
12644TIP3   OH237874   4.173   1.148   4.707
12644TIP3    H137875   4.099   1.177   4.653
12644TIP3    H237876   4.142   1.156   4.797
12645TIP3   OH237877   2.588   4.840   0.600
12645TIP3    H137878   2.632   4.845   0.685
12645TIP3    H237879   2.571   4.931   0.576
12646TIP3   OH237880   0.243   0.728   2.099
12646TIP3    H137881   0.170   0.747   2.158
12646TIP3    H237882   0.241   0.633   2.088
12647TIP3   OH237883   5.009   6.364   3.011
12647TIP3    H137884   5.064   6.369   3.089
12647TIP3    H237885   4.925   6.331   3.043
12648TIP3   OH237886   6.707   3.115   5.348
12648TIP3    H137887   6.669   3.071   5.424
12648TIP3    H237888   6.768   3.052   5.311
12649TIP3   OH237889   3.797   0.248   5.511
12649TIP3    H137890   3.790   0.257   5.606
12649TIP3    H237891   3.785   0.337   5.478
12650TIP3   OH237892   3.092   6.813   3.407
12650TIP3    H137893   2.998   6.821   3.390
12650TIP3    H237894   3.134   6.850   3.330
12651TIP3   OH237895   2.454   5.321   0.224
12651TIP3    H137896   2.380   5.343   0.282
12651TIP3    H237897   2.531   5.349   0.273
12652TIP3   OH237898   2.244   0.543   1.841
12652TIP3    H137899   2.271   0.452   1.832
12652TIP3    H237900   2.324   0.594   1.830
12653TIP3   OH237901   4.471   2.593   6.066
12653TIP3    H137902   4.470   2.651   5.990
12653TIP3    H237903   4.386   2.608   6.108
12654TIP3   OH237904   5.134   5.411   0.353
12654TIP3    H137905   5.172   5.431   0.438
12654TIP3    H237906   5.052   5.461   0.350
12655TIP3   OH237907   5.546   6.771   3.219
12655TIP3    H137908   5.613   6.817   3.168
12655TIP3    H237909   5.464   6.789   3.172
12656TIP3   OH237910   6.255   0.912   1.592
12656TIP3    H137911   6.189   0.973   1.557
12656TIP3    H237912   6.205   0.831   1.608
12657TIP3   OH237913   1.357   4.520   0.727
12657TIP3    H137914   1.360   4.424   0.725
12657TIP3    H237915   1.288   4.540   0.790
12658TIP3   OH237916   7.359   2.320   3.002
12658TIP3    H137917   7.364   2.236   2.956
12658TIP3    H237918   7.354   2.386   2.932
12659TIP3   OH237919   6.532   0.521   3.303
12659TIP3    H137920   6.587   0.475   3.366
12659TIP3    H237921   6.493   0.593   3.354
12660TIP3   OH237922   6.823   2.441   4.835
12660TIP3    H137923   6.774   2.359   4.831
12660TIP3    H237924   6.785   2.488   4.909
12661TIP3   OH237925   1.364   0.727   4.138
12661TIP3    H137926   1.421   0.678   4.197
12661TIP3    H237927   1.414   0.805   4.116
12662TIP3   OH237928   1.025   4.157   6.193
12662TIP3    H137929   0.989   4.187   6.276
12662TIP3    H237930   1.083   4.085   6.216
12663TIP3   OH237931   5.972   4.444   3.876
12663TIP3    H137932   6.022   4.436   3.794
12663TIP3    H237933   5.884   4.414   3.853
12664TIP3   OH237934   3.327   3.879   0.750
12664TIP3    H137935   3.246   3.890   0.700
12664TIP3    H237936   3.307   3.915   0.837
12665TIP3   OH237937   2.282   0.138   1.656
12665TIP3    H137938   2.328   0.118   1.574
12665TIP3    H237939   2.244   0.055   1.684
12666TIP3   OH237940   1.333   7.642   6.623
12666TIP3    H137941   1.317   7.733   6.648
12666TIP3    H237942   1.374   7.647   6.536
12667TIP3   OH237943   0.560   2.805   2.730
12667TIP3    H137944   0.486   2.759   2.691
12667TIP3    H237945   0.527   2.893   2.749
12668TIP3   OH237946   6.317   7.333   1.910
12668TIP3    H137947   6.348   7.362   1.996
12668TIP3    H237948   6.222   7.329   1.919
12669TIP3   OH237949   2.908   2.359   6.257
12669TIP3    H137950   3.001   2.362   6.233
12669TIP3    H237951   2.869   2.298   6.195
12670TIP3   OH237952   6.833   3.840   6.077
12670TIP3    H137953   6.812   3.894   6.001
12670TIP3    H237954   6.751   3.833   6.125
12671TIP3   OH237955   0.661   3.459   5.134
12671TIP3    H137956   0.568   3.480   5.130
12671TIP3    H237957   0.704   3.542   5.152
12672TIP3   OH237958   6.856   6.028   1.305
12672TIP3    H137959   6.814   6.087   1.243
12672TIP3    H237960   6.797   5.953   1.311
12673TIP3   OH237961   2.977   3.715   0.054
12673TIP3    H137962   2.928   3.701  -0.027
12673TIP3    H237963   2.918   3.767   0.108
12674TIP3   OH237964   1.754   6.538   5.884
12674TIP3    H137965   1.721   6.539   5.795
12674TIP3    H237966   1.725   6.620   5.922
12675TIP3   OH237967   1.536   3.404   5.467
12675TIP3    H137968   1.557   3.338   5.533
12675TIP3    H237969   1.618   3.418   5.419
12676TIP3   OH237970   5.532   7.176   1.200
12676TIP3    H137971   5.536   7.200   1.108
12676TIP3    H237972   5.554   7.083   1.202
12677TIP3   OH237973   6.947   5.601   3.329
12677TIP3    H137974   7.042   5.599   3.318
12677TIP3    H237975   6.932   5.668   3.395
12678TIP3   OH237976   6.706   1.668   6.641
12678TIP3    H137977   6.676   1.676   6.732
12678TIP3    H237978   6.683   1.578   6.617
12679TIP3   OH237979   1.809   7.361   4.052
12679TIP3    H137980   1.794   7.386   4.143
12679TIP3    H237981   1.904   7.356   4.043
12680TIP3   OH237982   7.363   4.282   6.555
12680TIP3    H137983   7.456   4.297   6.544
12680TIP3    H237984   7.345   4.308   6.645
12681TIP3   OH237985   6.120   6.760   2.505
12681TIP3    H137986   6.216   6.754   2.499
12681TIP3    H237987   6.090   6.757   2.414
12682TIP3   OH237988   2.874   6.840   0.879
12682TIP3    H137989   2.906   6.925   0.848
12682TIP3    H237990   2.845   6.795   0.800
12683TIP3   OH237991   3.249   4.316   3.116
12683TIP3    H137992   3.192   4.268   3.176
12683TIP3    H237993   3.190   4.358   3.054
12684TIP3   OH237994   7.302   3.940   3.845
12684TIP3    H137995   7.222   3.993   3.843
12684TIP3    H237996   7.373   4.004   3.842
12685TIP3   OH237997   4.458   3.743   2.984
12685TIP3    H137998   4.437   3.790   3.064
12685TIP3    H237999   4.490   3.658   3.014
12686TIP3   OH238000   4.760   1.198   4.559
12686TIP3    H138001   4.667   1.217   4.543
12686TIP3    H238002   4.791   1.273   4.610
12687TIP3   OH238003   7.093   3.185   1.854
12687TIP3    H138004   7.008   3.167   1.814
12687TIP3    H238005   7.096   3.128   1.931
12688TIP3   OH238006   4.737   5.992   3.680
12688TIP3    H138007   4.829   6.019   3.678
12688TIP3    H238008   4.700   6.038   3.755
12689TIP3   OH238009   4.478   1.709   1.125
12689TIP3    H138010   4.523   1.736   1.205
12689TIP3    H238011   4.548   1.686   1.064
12690TIP3   OH238012   6.632   3.509   6.092
12690TIP3    H138013   6.595   3.421   6.090
12690TIP3    H238014   6.702   3.505   6.156
12691TIP3   OH238015   2.500   4.534   1.299
12691TIP3    H138016   2.527   4.477   1.228
12691TIP3    H238017   2.406   4.519   1.307
12692TIP3   OH238018   2.601   4.710   1.765
12692TIP3    H138019   2.548   4.723   1.687
12692TIP3    H238020   2.598   4.615   1.780
12693TIP3   OH238021   3.206   3.323   4.440
12693TIP3    H138022   3.259   3.373   4.378
12693TIP3    H238023   3.229   3.232   4.421
12694TIP3   OH238024   2.814   7.076   1.537
12694TIP3    H138025   2.768   6.994   1.519
12694TIP3    H238026   2.861   7.060   1.618
12695TIP3   OH238027   1.102   6.839   5.089
12695TIP3    H138028   1.032   6.900   5.112
12695TIP3    H238029   1.178   6.895   5.074
12696TIP3   OH238030   6.832   2.842   4.425
12696TIP3    H138031   6.837   2.748   4.442
12696TIP3    H238032   6.759   2.851   4.364
12697TIP3   OH238033   4.181   2.913   5.680
12697TIP3    H138034   4.256   2.961   5.645
12697TIP3    H238035   4.110   2.976   5.681
12698TIP3   OH238036   2.839   1.581   3.952
12698TIP3    H138037   2.751   1.601   3.920
12698TIP3    H238038   2.897   1.617   3.886
12699TIP3   OH238039   4.767   5.357   0.729
12699TIP3    H138040   4.675   5.337   0.746
12699TIP3    H238041   4.765   5.432   0.669
12700TIP3   OH238042   5.899   2.236   1.737
12700TIP3    H138043   5.860   2.181   1.804
12700TIP3    H238044   5.992   2.235   1.756
12701TIP3   OH238045   0.846   1.298   4.907
12701TIP3    H138046   0.891   1.324   4.988
12701TIP3    H238047   0.763   1.261   4.937
12702TIP3   OH238048   7.647   7.046   5.757
12702TIP3    H138049   7.698   7.113   5.712
12702TIP3    H238050   7.713   6.987   5.793
12703TIP3   OH238051   5.435   7.091   2.997
12703TIP3    H138052   5.422   7.185   3.006
12703TIP3    H238053   5.441   7.076   2.903
12704TIP3   OH238054   7.006   3.494   0.544
12704TIP3    H138055   7.076   3.528   0.489
12704TIP3    H238056   7.050   3.465   0.624
12705TIP3   OH238057   8.213   2.215   2.813
12705TIP3    H138058   8.284   2.154   2.834
12705TIP3    H238059   8.245   2.263   2.736
12706TIP3   OH238060   7.643   1.971   6.645
12706TIP3    H138061   7.644   1.875   6.648
12706TIP3    H238062   7.617   1.996   6.734
12707TIP3   OH238063   7.956   3.531   3.639
12707TIP3    H138064   8.046   3.559   3.657
12707TIP3    H238065   7.964   3.441   3.609
12708TIP3   OH238066   0.983   4.708   0.276
12708TIP3    H138067   1.019   4.626   0.242
12708TIP3    H238068   0.978   4.694   0.371
12709TIP3   OH238069   1.459   0.450   1.645
12709TIP3    H138070   1.472   0.421   1.735
12709TIP3    H238071   1.452   0.369   1.594
12710TIP3   OH238072   0.910   4.880   2.063
12710TIP3    H138073   0.841   4.915   2.120
12710TIP3    H238074   0.915   4.787   2.086
12711TIP3   OH238075   6.850   4.025   5.861
12711TIP3    H138076   6.928   4.042   5.808
12711TIP3    H238077   6.848   4.098   5.923
12712TIP3   OH238078   2.963   1.194   5.122
12712TIP3    H138079   2.959   1.289   5.136
12712TIP3    H238080   2.875   1.163   5.141
12713TIP3   OH238081   0.820   4.597   1.709
12713TIP3    H138082   0.742   4.552   1.744
12713TIP3    H238083   0.785   4.658   1.644
12714TIP3   OH238084   1.069   7.106   3.546
12714TIP3    H138085   1.112   7.085   3.629
12714TIP3    H238086   1.131   7.162   3.500
12715TIP3   OH238087   7.953   1.411   5.517
12715TIP3    H138088   8.040   1.396   5.480
12715TIP3    H238089   7.911   1.325   5.514
12716TIP3   OH238090   0.653   0.954   5.899
12716TIP3    H138091   0.615   0.875   5.861
12716TIP3    H238092   0.742   0.929   5.923
12717TIP3   OH238093   3.844   1.242   5.630
12717TIP3    H138094   3.815   1.163   5.678
12717TIP3    H238095   3.897   1.208   5.558
12718TIP3   OH238096   8.072   4.545   2.730
12718TIP3    H138097   8.152   4.525   2.682
12718TIP3    H238098   8.083   4.503   2.815
12719TIP3   OH238099   6.419   6.419   6.051
12719TIP3    H138100   6.493   6.439   6.109
12719TIP3    H238101   6.387   6.505   6.024
12720TIP3   OH238102   2.276   2.737   5.328
12720TIP3    H138103   2.247   2.731   5.419
12720TIP3    H238104   2.299   2.829   5.316
12721TIP3   OH238105   2.210   1.359   4.736
12721TIP3    H138106   2.132   1.317   4.701
12721TIP3    H238107   2.273   1.356   4.664
12722TIP3   OH238108   2.106   3.698   2.822
12722TIP3    H138109   2.161   3.776   2.831
12722TIP3    H238110   2.136   3.657   2.741
12723TIP3   OH238111   6.946   2.794   6.485
12723TIP3    H138112   6.873   2.751   6.529
12723TIP3    H238113   6.966   2.738   6.410
12724TIP3   OH238114   1.807   6.490   0.285
12724TIP3    H138115   1.853   6.465   0.204
12724TIP3    H238116   1.833   6.424   0.349
12725TIP3   OH238117   2.828   3.692   2.944
12725TIP3    H138118   2.917   3.676   2.976
12725TIP3    H238119   2.776   3.622   2.984
12726TIP3   OH238120   8.086   3.835   6.053
12726TIP3    H138121   8.160   3.872   6.101
12726TIP3    H238122   8.060   3.759   6.105
12727TIP3   OH238123   7.940   7.759   1.872
12727TIP3    H138124   7.975   7.811   1.944
12727TIP3    H238125   7.852   7.734   1.902
12728TIP3   OH238126   0.357   0.311   6.655
12728TIP3    H138127   0.395   0.389   6.616
12728TIP3    H238128   0.379   0.240   6.595
12729TIP3   OH238129   1.429   4.856   2.985
12729TIP3    H138130   1.449   4.922   2.918
12729TIP3    H238131   1.440   4.902   3.068
12730TIP3   OH238132   2.402   5.142   4.000
12730TIP3    H138133   2.399   5.067   3.941
12730TIP3    H238134   2.322   5.135   4.052
12731TIP3   OH238135   3.982   1.673   2.163
12731TIP3    H138136   3.934   1.612   2.219
12731TIP3    H238137   4.068   1.633   2.152
12732TIP3   OH238138   1.543   6.654   1.993
12732TIP3    H138139   1.469   6.640   1.934
12732TIP3    H238140   1.506   6.703   2.066
12733TIP3   OH238141   1.740   6.906   3.642
12733TIP3    H138142   1.741   6.970   3.713
12733TIP3    H238143   1.825   6.862   3.649
12734TIP3   OH238144   0.109   6.329   1.143
12734TIP3    H138145   0.021   6.295   1.133
12734TIP3    H238146   0.109   6.369   1.230
12735TIP3   OH238147   5.942   5.243   1.979
12735TIP3    H138148   5.999   5.312   1.945
12735TIP3    H238149   5.988   5.162   1.957
12736TIP3   OH238150   3.931   0.135   2.720
12736TIP3    H138151   3.907   0.043   2.728
12736TIP3    H238152   3.969   0.142   2.633
12737TIP3   OH238153   7.127   5.240   6.416
12737TIP3    H138154   7.221   5.231   6.403
12737TIP3    H238155   7.117   5.322   6.465
12738TIP3   OH238156   2.418   6.931   4.650
12738TIP3    H138157   2.433   6.909   4.558
12738TIP3    H238158   2.325   6.913   4.664
12739TIP3   OH238159   2.399   5.999   3.059
12739TIP3    H138160   2.346   6.016   2.981
12739TIP3    H238161   2.450   6.079   3.072
12740TIP3   OH238162   1.889   1.946   5.065
12740TIP3    H138163   1.923   1.939   5.154
12740TIP3    H238164   1.887   1.856   5.033
12741TIP3   OH238165   6.489   6.898   6.430
12741TIP3    H138166   6.512   6.947   6.351
12741TIP3    H238167   6.398   6.924   6.448
12742TIP3   OH238168   2.334   7.559   1.021
12742TIP3    H138169   2.325   7.619   0.947
12742TIP3    H238170   2.395   7.603   1.080
12743TIP3   OH238171   0.937   4.046   1.149
12743TIP3    H138172   0.863   3.985   1.152
12743TIP3    H238173   0.997   4.007   1.086
12744TIP3   OH238174   0.966   6.545   0.607
12744TIP3    H138175   0.996   6.483   0.673
12744TIP3    H238176   1.039   6.551   0.545
12745TIP3   OH238177   0.048   5.391   0.658
12745TIP3    H138178   0.131   5.369   0.615
12745TIP3    H238179   0.074   5.439   0.737
12746TIP3   OH238180   0.154   7.630   5.797
12746TIP3    H138181   0.195   7.663   5.877
12746TIP3    H238182   0.191   7.542   5.786
12747TIP3   OH238183   0.081   6.927   6.536
12747TIP3    H138184   0.024   6.883   6.599
12747TIP3    H238185   0.126   6.994   6.588
12748TIP3   OH238186   7.907   1.320   1.645
12748TIP3    H138187   7.959   1.317   1.565
12748TIP3    H238188   7.953   1.264   1.707
12749TIP3   OH238189   5.639   5.571   0.116
12749TIP3    H138190   5.580   5.527   0.056
12749TIP3    H238191   5.710   5.509   0.131
12750TIP3   OH238192   2.626   1.049   5.795
12750TIP3    H138193   2.590   1.107   5.862
12750TIP3    H238194   2.645   1.107   5.721
12751TIP3   OH238195   1.635   2.996   2.355
12751TIP3    H138196   1.717   3.045   2.358
12751TIP3    H238197   1.574   3.052   2.307
12752TIP3   OH238198   0.319   5.172   1.233
12752TIP3    H138199   0.303   5.104   1.298
12752TIP3    H238200   0.302   5.130   1.149
12753TIP3   OH238201   7.253   7.422   3.018
12753TIP3    H138202   7.251   7.335   3.058
12753TIP3    H238203   7.297   7.477   3.082
12754TIP3   OH238204   1.231   7.109   2.072
12754TIP3    H138205   1.316   7.078   2.040
12754TIP3    H238206   1.252   7.169   2.143
12755TIP3   OH238207   4.143   4.538   0.713
12755TIP3    H138208   4.110   4.516   0.626
12755TIP3    H238209   4.201   4.466   0.735
12756TIP3   OH238210   1.564   2.517   0.923
12756TIP3    H138211   1.481   2.559   0.903
12756TIP3    H238212   1.572   2.522   1.018
12757TIP3   OH238213   3.317   0.002   2.480
12757TIP3    H138214   3.378   0.057   2.529
12757TIP3    H238215   3.369  -0.075   2.456
12758TIP3   OH238216   5.501   1.253   4.566
12758TIP3    H138217   5.537   1.217   4.647
12758TIP3    H238218   5.418   1.293   4.592
12759TIP3   OH238219   4.005   7.470   6.341
12759TIP3    H138220   4.093   7.460   6.305
12759TIP3    H238221   4.003   7.408   6.414
12760TIP3   OH238222   1.105   1.442   6.763
12760TIP3    H138223   1.184   1.460   6.813
12760TIP3    H238224   1.133   1.382   6.694
12761TIP3   OH238225   3.065   5.261   5.156
12761TIP3    H138226   3.037   5.259   5.247
12761TIP3    H238227   3.046   5.173   5.123
12762TIP3   OH238228   3.754   4.815   2.112
12762TIP3    H138229   3.663   4.786   2.123
12762TIP3    H238230   3.758   4.846   2.022
12763TIP3   OH238231   0.484   4.600   3.712
12763TIP3    H138232   0.493   4.554   3.628
12763TIP3    H238233   0.463   4.690   3.687
12764TIP3   OH238234   0.169   6.411   1.400
12764TIP3    H138235   0.157   6.505   1.389
12764TIP3    H238236   0.257   6.402   1.437
12765TIP3   OH238237   6.291   2.669   1.727
12765TIP3    H138238   6.367   2.688   1.671
12765TIP3    H238239   6.329   2.643   1.811
12766TIP3   OH238240   1.313   1.247   5.162
12766TIP3    H138241   1.347   1.336   5.161
12766TIP3    H238242   1.386   1.193   5.131
12767TIP3   OH238243   4.340   6.024   0.791
12767TIP3    H138244   4.404   5.963   0.826
12767TIP3    H238245   4.370   6.044   0.703
12768TIP3   OH238246   3.003   5.363   3.001
12768TIP3    H138247   3.016   5.404   2.916
12768TIP3    H238248   3.061   5.411   3.060
12769TIP3   OH238249   2.571   3.970   5.739
12769TIP3    H138250   2.595   3.883   5.706
12769TIP3    H238251   2.644   3.995   5.795
12770TIP3   OH238252   5.953   4.082   3.975
12770TIP3    H138253   5.874   4.039   3.943
12770TIP3    H238254   6.000   4.109   3.896
12771TIP3   OH238255   1.386   3.430   6.697
12771TIP3    H138256   1.420   3.513   6.664
12771TIP3    H238257   1.423   3.422   6.785
12772TIP3   OH238258   4.137   0.685   6.563
12772TIP3    H138259   4.149   0.775   6.534
12772TIP3    H238260   4.094   0.692   6.647
12773TIP3   OH238261   0.297   0.478   5.579
12773TIP3    H138262   0.215   0.454   5.621
12773TIP3    H238263   0.281   0.566   5.544
12774TIP3   OH238264   4.434   2.375   2.677
12774TIP3    H138265   4.493   2.309   2.640
12774TIP3    H238266   4.454   2.375   2.770
12775TIP3   OH238267   3.020   4.250   2.897
12775TIP3    H138268   2.940   4.296   2.872
12775TIP3    H238269   3.001   4.212   2.983
12776TIP3   OH238270   5.233   5.628   4.747
12776TIP3    H138271   5.142   5.631   4.718
12776TIP3    H238272   5.243   5.541   4.786
12777TIP3   OH238273   6.571   4.449   3.632
12777TIP3    H138274   6.662   4.419   3.634
12777TIP3    H238275   6.568   4.521   3.695
12778TIP3   OH238276   7.823   0.158   0.170
12778TIP3    H138277   7.904   0.138   0.217
12778TIP3    H238278   7.775   0.215   0.230
12779TIP3   OH238279   0.802   7.257   5.319
12779TIP3    H138280   0.819   7.341   5.362
12779TIP3    H238281   0.770   7.200   5.389
12780TIP3   OH238282   0.221   7.832   4.345
12780TIP3    H138283   0.244   7.836   4.437
12780TIP3    H238284   0.171   7.750   4.336
12781TIP3   OH238285   4.252   2.367   5.124
12781TIP3    H138286   4.278   2.275   5.114
12781TIP3    H238287   4.328   2.408   5.167
12782TIP3   OH238288   2.938   4.819   2.700
12782TIP3    H138289   2.971   4.887   2.642
12782TIP3    H238290   2.919   4.745   2.642
12783TIP3   OH238291   0.914   2.887   1.506
12783TIP3    H138292   0.966   2.808   1.524
12783TIP3    H238293   0.979   2.952   1.479
12784TIP3   OH238294   6.356   6.586   0.374
12784TIP3    H138295   6.312   6.623   0.297
12784TIP3    H238296   6.363   6.493   0.355
12785TIP3   OH238297   5.712   1.110   6.632
12785TIP3    H138298   5.654   1.181   6.662
12785TIP3    H238299   5.717   1.122   6.537
12786TIP3   OH238300   1.000   6.167   0.603
12786TIP3    H138301   1.009   6.206   0.689
12786TIP3    H238302   1.068   6.098   0.600
12787TIP3   OH238303   8.286   1.555   2.055
12787TIP3    H138304   8.372   1.570   2.015
12787TIP3    H238305   8.296   1.587   2.145
12788TIP3   OH238306   6.296   1.319   4.437
12788TIP3    H138307   6.271   1.411   4.425
12788TIP3    H238308   6.216   1.270   4.420
12789TIP3   OH238309   4.181   1.603   3.791
12789TIP3    H138310   4.171   1.607   3.886
12789TIP3    H238311   4.157   1.690   3.760
12790TIP3   OH238312   5.147   4.615   5.071
12790TIP3    H138313   5.117   4.612   5.162
12790TIP3    H238314   5.240   4.594   5.076
12791TIP3   OH238315   7.919   5.001   3.202
12791TIP3    H138316   7.883   5.015   3.290
12791TIP3    H238317   8.013   5.015   3.212
12792TIP3   OH238318   2.636   2.587   2.828
12792TIP3    H138319   2.602   2.519   2.886
12792TIP3    H238320   2.722   2.554   2.800
12793TIP3   OH238321   4.765   4.485   1.196
12793TIP3    H138322   4.771   4.394   1.166
12793TIP3    H238323   4.672   4.506   1.189
12794TIP3   OH238324   1.761   6.691   1.405
12794TIP3    H138325   1.840   6.692   1.351
12794TIP3    H238326   1.721   6.606   1.388
12795TIP3   OH238327   5.273   7.757   1.590
12795TIP3    H138328   5.206   7.735   1.525
12795TIP3    H238329   5.225   7.805   1.658
12796TIP3   OH238330   7.469   0.398   1.480
12796TIP3    H138331   7.397   0.460   1.484
12796TIP3    H238332   7.429   0.316   1.449
12797TIP3   OH238333   7.952   2.429   4.372
12797TIP3    H138334   8.009   2.493   4.415
12797TIP3    H238335   8.008   2.385   4.308
12798TIP3   OH238336   4.500   3.654   4.671
12798TIP3    H138337   4.411   3.633   4.644
12798TIP3    H238338   4.498   3.748   4.689
12799TIP3   OH238339   0.396   1.232   4.780
12799TIP3    H138340   0.400   1.237   4.684
12799TIP3    H238341   0.357   1.147   4.798
12800TIP3   OH238342   5.340   6.077   5.202
12800TIP3    H138343   5.370   6.164   5.178
12800TIP3    H238344   5.365   6.067   5.294
12801TIP3   OH238345   2.573   7.418   0.882
12801TIP3    H138346   2.534   7.471   0.951
12801TIP3    H238347   2.629   7.356   0.929
12802TIP3   OH238348   7.275   6.408   4.053
12802TIP3    H138349   7.329   6.409   4.132
12802TIP3    H238350   7.264   6.315   4.033
12803TIP3   OH238351   5.011   7.694   0.121
12803TIP3    H138352   5.013   7.672   0.215
12803TIP3    H238353   5.032   7.787   0.118
12804TIP3   OH238354   3.073   5.584   5.617
12804TIP3    H138355   3.160   5.546   5.606
12804TIP3    H238356   3.071   5.614   5.708
12805TIP3   OH238357   5.764   0.033   0.085
12805TIP3    H138358   5.845   0.025   0.035
12805TIP3    H238359   5.763  -0.046   0.140
12806TIP3   OH238360   2.512   5.096   5.786
12806TIP3    H138361   2.512   5.107   5.881
12806TIP3    H238362   2.571   5.163   5.754
12807TIP3   OH238363   0.551   0.392   3.432
12807TIP3    H138364   0.593   0.437   3.505
12807TIP3    H238365   0.584   0.436   3.354
12808TIP3   OH238366   4.605   5.508   3.040
12808TIP3    H138367   4.687   5.517   3.090
12808TIP3    H238368   4.624   5.549   2.956
12809TIP3   OH238369   7.481   2.613   4.150
12809TIP3    H138370   7.567   2.592   4.188
12809TIP3    H238371   7.470   2.549   4.080
12810TIP3   OH238372   1.843   1.598   5.502
12810TIP3    H138373   1.933   1.582   5.530
12810TIP3    H238374   1.841   1.575   5.410
12811TIP3   OH238375   3.094   4.230   5.129
12811TIP3    H138376   3.060   4.288   5.061
12811TIP3    H238377   3.176   4.271   5.157
12812TIP3   OH238378   6.614   2.202   6.714
12812TIP3    H138379   6.656   2.117   6.711
12812TIP3    H238380   6.528   2.188   6.674
12813TIP3   OH238381   4.106   6.567   0.502
12813TIP3    H138382   4.065   6.587   0.586
12813TIP3    H238383   4.194   6.604   0.509
12814TIP3   OH238384   2.585   2.884   2.412
12814TIP3    H138385   2.587   2.946   2.339
12814TIP3    H238386   2.520   2.819   2.386
12815TIP3   OH238387   1.549   2.122   2.078
12815TIP3    H138388   1.501   2.149   2.156
12815TIP3    H238389   1.635   2.096   2.110
12816TIP3   OH238390   7.778   2.729   3.259
12816TIP3    H138391   7.786   2.657   3.197
12816TIP3    H238392   7.804   2.806   3.209
12817TIP3   OH238393   7.009   2.875   5.621
12817TIP3    H138394   6.961   2.795   5.601
12817TIP3    H238395   6.948   2.929   5.670
12818TIP3   OH238396   4.990   7.583   2.366
12818TIP3    H138397   5.041   7.628   2.298
12818TIP3    H238398   4.900   7.610   2.350
12819TIP3   OH238399   0.472   6.641   3.911
12819TIP3    H138400   0.414   6.610   3.980
12819TIP3    H238401   0.533   6.700   3.954
12820TIP3   OH238402   0.087   5.399   4.856
12820TIP3    H138403   0.129   5.315   4.873
12820TIP3    H238404   0.139   5.439   4.786
12821TIP3   OH238405   6.429   0.000   5.419
12821TIP3    H138406   6.391  -0.005   5.507
12821TIP3    H238407   6.388   0.076   5.379
12822TIP3   OH238408   0.293   3.382   4.164
12822TIP3    H138409   0.202   3.410   4.155
12822TIP3    H238410   0.326   3.430   4.239
12823TIP3   OH238411   7.778   5.115   1.554
12823TIP3    H138412   7.816   5.199   1.530
12823TIP3    H238413   7.838   5.078   1.619
12824TIP3   OH238414   6.278   5.389   4.730
12824TIP3    H138415   6.285   5.451   4.658
12824TIP3    H238416   6.261   5.444   4.807
12825TIP3   OH238417   1.107   1.696   2.457
12825TIP3    H138418   1.160   1.651   2.522
12825TIP3    H238419   1.114   1.788   2.480
12826TIP3   OH238420   6.998   7.573   0.857
12826TIP3    H138421   6.909   7.607   0.864
12826TIP3    H238422   6.987   7.477   0.855
12827TIP3   OH238423   7.641   0.129   2.450
12827TIP3    H138424   7.633   0.200   2.386
12827TIP3    H238425   7.635   0.173   2.535
12828TIP3   OH238426   2.734   0.907   4.975
12828TIP3    H138427   2.686   0.826   4.989
12828TIP3    H238428   2.694   0.970   5.035
12829TIP3   OH238429   2.728   3.263   6.040
12829TIP3    H138430   2.646   3.214   6.038
12829TIP3    H238431   2.795   3.198   6.056
12830TIP3   OH238432   1.747   7.423   5.649
12830TIP3    H138433   1.751   7.484   5.575
12830TIP3    H238434   1.774   7.475   5.725
12831TIP3   OH238435   6.132   2.900   0.589
12831TIP3    H138436   6.128   2.847   0.509
12831TIP3    H238437   6.206   2.959   0.575
12832TIP3   OH238438   7.032   5.561   0.833
12832TIP3    H138439   7.108   5.527   0.881
12832TIP3    H238440   7.063   5.572   0.743
12833TIP3   OH238441   6.589   0.637   5.791
12833TIP3    H138442   6.664   0.696   5.794
12833TIP3    H238443   6.593   0.598   5.703
12834TIP3   OH238444   4.371   6.420   4.746
12834TIP3    H138445   4.286   6.445   4.711
12834TIP3    H238446   4.369   6.325   4.750
12835TIP3   OH238447   7.476   2.335   1.384
12835TIP3    H138448   7.524   2.395   1.441
12835TIP3    H238449   7.463   2.384   1.303
12836TIP3   OH238450   1.985   2.746   2.100
12836TIP3    H138451   2.034   2.679   2.149
12836TIP3    H238452   1.897   2.742   2.137
12837TIP3   OH238453   7.061   4.882   1.914
12837TIP3    H138454   7.075   4.798   1.870
12837TIP3    H238455   7.147   4.903   1.952
12838TIP3   OH238456   3.951   1.696   5.313
12838TIP3    H138457   3.998   1.642   5.377
12838TIP3    H238458   3.869   1.649   5.299
12839TIP3   OH238459   1.736   0.151   1.261
12839TIP3    H138460   1.764   0.123   1.348
12839TIP3    H238461   1.651   0.110   1.248
12840TIP3   OH238462   8.051   4.838   4.281
12840TIP3    H138463   8.028   4.747   4.301
12840TIP3    H238464   8.098   4.833   4.198
12841TIP3   OH238465   1.401   7.331   6.362
12841TIP3    H138466   1.407   7.427   6.366
12841TIP3    H238467   1.324   7.314   6.308
12842TIP3   OH238468   8.248   4.332   3.397
12842TIP3    H138469   8.180   4.267   3.415
12842TIP3    H238470   8.232   4.401   3.461
12843TIP3   OH238471   0.944   5.899   2.914
12843TIP3    H138472   0.930   5.992   2.932
12843TIP3    H238473   0.924   5.856   2.997
12844TIP3   OH238474   2.132   2.893   3.431
12844TIP3    H138475   2.191   2.843   3.488
12844TIP3    H238476   2.149   2.860   3.343
12845TIP3   OH238477   3.146   4.984   4.721
12845TIP3    H138478   3.191   4.901   4.737
12845TIP3    H238479   3.216   5.050   4.721
12846TIP3   OH238480   7.947   3.572   1.758
12846TIP3    H138481   7.913   3.515   1.827
12846TIP3    H238482   7.920   3.530   1.676
12847TIP3   OH238483   1.873   5.654   0.492
12847TIP3    H138484   1.879   5.620   0.403
12847TIP3    H238485   1.859   5.577   0.547
12848TIP3   OH238486   2.383   0.102   5.271
12848TIP3    H138487   2.429   0.179   5.303
12848TIP3    H238488   2.452   0.039   5.251
12849TIP3   OH238489   6.139   2.423   4.629
12849TIP3    H138490   6.225   2.388   4.604
12849TIP3    H238491   6.103   2.357   4.688
12850TIP3   OH238492   4.323   4.730   0.592
12850TIP3    H138493   4.345   4.690   0.508
12850TIP3    H238494   4.252   4.675   0.626
12851TIP3   OH238495   2.277   7.486   0.211
12851TIP3    H138496   2.342   7.447   0.152
12851TIP3    H238497   2.306   7.577   0.222
12852TIP3   OH238498   8.276   0.993   2.374
12852TIP3    H138499   8.207   1.022   2.314
12852TIP3    H238500   8.312   0.914   2.333
12853TIP3   OH238501   6.782   5.475   0.368
12853TIP3    H138502   6.758   5.562   0.401
12853TIP3    H238503   6.877   5.477   0.361
12854TIP3   OH238504   3.940   7.320   3.587
12854TIP3    H138505   3.986   7.394   3.548
12854TIP3    H238506   3.893   7.358   3.662
12855TIP3   OH238507   1.158   1.108   4.158
12855TIP3    H138508   1.210   1.092   4.237
12855TIP3    H238509   1.107   1.028   4.146
12856TIP3   OH238510   6.738   3.270   3.961
12856TIP3    H138511   6.799   3.294   3.891
12856TIP3    H238512   6.652   3.294   3.925
12857TIP3   OH238513   5.209   5.605   5.074
12857TIP3    H138514   5.265   5.530   5.094
12857TIP3    H238515   5.265   5.681   5.088
12858TIP3   OH238516   5.084   3.028   4.540
12858TIP3    H138517   5.034   3.108   4.526
12858TIP3    H238518   5.055   2.997   4.626
12859TIP3   OH238519   7.257   5.668   4.843
12859TIP3    H138520   7.232   5.669   4.750
12859TIP3    H238521   7.279   5.577   4.861
12860TIP3   OH238522   0.320   5.614   3.307
12860TIP3    H138523   0.229   5.606   3.278
12860TIP3    H238524   0.353   5.524   3.304
12861TIP3   OH238525   1.395   0.605   1.084
12861TIP3    H138526   1.338   0.649   1.022
12861TIP3    H238527   1.335   0.562   1.146
12862TIP3   OH238528   1.609   7.195   4.878
12862TIP3    H138529   1.618   7.247   4.958
12862TIP3    H238530   1.613   7.104   4.907
12863TIP3   OH238531   1.638   1.699   0.226
12863TIP3    H138532   1.561   1.651   0.258
12863TIP3    H238533   1.605   1.785   0.201
12864TIP3   OH238534   1.070   2.860   0.622
12864TIP3    H138535   1.139   2.841   0.686
12864TIP3    H238536   0.989   2.840   0.668
12865TIP3   OH238537   3.195   4.325   2.368
12865TIP3    H138538   3.267   4.370   2.411
12865TIP3    H238539   3.215   4.232   2.379
12866TIP3   OH238540   4.466   3.956   1.978
12866TIP3    H138541   4.392   4.016   1.981
12866TIP3    H238542   4.502   3.959   2.067
12867TIP3   OH238543   0.533   4.280   1.543
12867TIP3    H138544   0.572   4.217   1.604
12867TIP3    H238545   0.459   4.232   1.505
12868TIP3   OH238546   3.822   3.685   4.026
12868TIP3    H138547   3.770   3.606   4.015
12868TIP3    H238548   3.771   3.754   3.984
12869TIP3   OH238549   6.511   5.603   5.384
12869TIP3    H138550   6.511   5.650   5.467
12869TIP3    H238551   6.574   5.650   5.330
12870TIP3   OH238552   3.747   1.231   3.164
12870TIP3    H138553   3.671   1.174   3.151
12870TIP3    H238554   3.738   1.298   3.095
12871TIP3   OH238555   0.060   4.347   3.130
12871TIP3    H138556   0.026   4.318   3.215
12871TIP3    H238557   0.121   4.418   3.152
12872TIP3   OH238558   2.533   6.946   2.542
12872TIP3    H138559   2.437   6.954   2.545
12872TIP3    H238560   2.563   7.032   2.512
12873TIP3   OH238561   5.912   3.386   1.868
12873TIP3    H138562   5.875   3.351   1.787
12873TIP3    H238563   5.985   3.328   1.888
12874TIP3   OH238564   2.638   1.452   5.335
12874TIP3    H138565   2.573   1.453   5.264
12874TIP3    H238566   2.601   1.508   5.403
12875TIP3   OH238567   4.018   2.523   6.085
12875TIP3    H138568   3.932   2.511   6.044
12875TIP3    H238569   4.080   2.519   6.012
12876TIP3   OH238570   0.279   6.923   4.038
12876TIP3    H138571   0.317   6.982   4.102
12876TIP3    H238572   0.203   6.969   4.004
12877TIP3   OH238573   2.519   0.460   1.909
12877TIP3    H138574   2.525   0.400   1.835
12877TIP3    H238575   2.501   0.545   1.870
12878TIP3   OH238576   4.822   3.994   4.969
12878TIP3    H138577   4.756   3.966   5.033
12878TIP3    H238578   4.779   4.062   4.918
12879TIP3   OH238579   4.053   3.449   2.273
12879TIP3    H138580   4.111   3.444   2.349
12879TIP3    H238581   4.111   3.459   2.198
12880TIP3   OH238582   6.995   1.693   2.934
12880TIP3    H138583   7.061   1.669   2.869
12880TIP3    H238584   6.955   1.610   2.961
12881TIP3   OH238585   6.021   2.429   0.939
12881TIP3    H138586   5.983   2.383   0.865
12881TIP3    H238587   6.071   2.362   0.986
12882TIP3   OH238588   4.049   3.811   6.356
12882TIP3    H138589   4.049   3.906   6.358
12882TIP3    H238590   3.957   3.787   6.347
12883TIP3   OH238591   4.316   4.872   0.352
12883TIP3    H138592   4.370   4.914   0.285
12883TIP3    H238593   4.352   4.783   0.359
12884TIP3   OH238594   0.161   7.276   4.116
12884TIP3    H138595   0.205   7.258   4.199
12884TIP3    H238596   0.231   7.277   4.051
12885TIP3   OH238597   0.566   1.239   3.218
12885TIP3    H138598   0.502   1.209   3.283
12885TIP3    H238599   0.547   1.189   3.139
12886TIP3   OH238600   3.882   2.486   2.653
12886TIP3    H138601   3.894   2.393   2.674
12886TIP3    H238602   3.841   2.523   2.731
12887TIP3   OH238603   5.645   4.691   6.028
12887TIP3    H138604   5.640   4.698   6.123
12887TIP3    H238605   5.557   4.664   6.001
12888TIP3   OH238606   7.698   3.156   5.545
12888TIP3    H138607   7.724   3.121   5.631
12888TIP3    H238608   7.692   3.251   5.559
12889TIP3   OH238609   6.002   7.539   0.062
12889TIP3    H138610   5.951   7.483   0.005
12889TIP3    H238611   5.956   7.537   0.146
12890TIP3   OH238612   1.486   7.560   1.154
12890TIP3    H138613   1.399   7.596   1.167
12890TIP3    H238614   1.522   7.552   1.243
12891TIP3   OH238615   2.601   3.655   5.879
12891TIP3    H138616   2.510   3.673   5.856
12891TIP3    H238617   2.632   3.595   5.811
12892TIP3   OH238618   4.353   0.180   3.987
12892TIP3    H138619   4.442   0.211   3.967
12892TIP3    H238620   4.362   0.085   3.994
12893TIP3   OH238621   7.826   1.504   2.278
12893TIP3    H138622   7.903   1.527   2.330
12893TIP3    H238623   7.810   1.412   2.299
12894TIP3   OH238624   4.041   7.530   0.508
12894TIP3    H138625   4.085   7.600   0.459
12894TIP3    H238626   4.083   7.531   0.594
12895TIP3   OH238627   6.544   5.460   0.204
12895TIP3    H138628   6.526   5.446   0.297
12895TIP3    H238629   6.629   5.505   0.202
12896TIP3   OH238630   2.168   3.712   4.684
12896TIP3    H138631   2.224   3.783   4.717
12896TIP3    H238632   2.103   3.699   4.754
12897TIP3   OH238633   6.745   2.467   3.683
12897TIP3    H138634   6.694   2.535   3.638
12897TIP3    H238635   6.760   2.503   3.771
12898TIP3   OH238636   5.763   2.120   6.649
12898TIP3    H138637   5.805   2.158   6.726
12898TIP3    H238638   5.765   2.190   6.584
12899TIP3   OH238639   0.579   4.805   5.272
12899TIP3    H138640   0.546   4.717   5.286
12899TIP3    H238641   0.659   4.809   5.324
12900TIP3   OH238642   6.755   6.540   4.582
12900TIP3    H138643   6.766   6.633   4.598
12900TIP3    H238644   6.843   6.504   4.584
12901TIP3   OH238645   3.256   5.314   0.752
12901TIP3    H138646   3.245   5.400   0.793
12901TIP3    H238647   3.346   5.316   0.717
12902TIP3   OH238648   7.424   2.706   0.299
12902TIP3    H138649   7.493   2.679   0.360
12902TIP3    H238650   7.453   2.672   0.214
12903TIP3   OH238651   3.274   7.492   2.752
12903TIP3    H138652   3.237   7.520   2.668
12903TIP3    H238653   3.233   7.408   2.770
12904TIP3   OH238654   1.220   5.595   5.761
12904TIP3    H138655   1.276   5.604   5.838
12904TIP3    H238656   1.169   5.515   5.777
12905TIP3   OH238657   6.070   0.554   1.848
12905TIP3    H138658   6.105   0.546   1.937
12905TIP3    H238659   6.047   0.465   1.823
12906TIP3   OH238660   0.358   7.508   1.705
12906TIP3    H138661   0.323   7.512   1.616
12906TIP3    H238662   0.280   7.501   1.761
12907TIP3   OH238663   6.222   4.200   3.661
12907TIP3    H138664   6.139   4.241   3.635
12907TIP3    H238665   6.287   4.238   3.602
12908TIP3   OH238666   1.771   4.387   6.326
12908TIP3    H138667   1.788   4.435   6.407
12908TIP3    H238668   1.710   4.444   6.278
12909TIP3   OH238669   2.949   0.759   1.975
12909TIP3    H138670   2.920   0.738   2.064
12909TIP3    H238671   2.945   0.676   1.928
12910TIP3   OH238672   4.694   3.291   2.525
12910TIP3    H138673   4.633   3.235   2.574
12910TIP3    H238674   4.733   3.232   2.460
12911TIP3   OH238675   0.146   7.440   0.712
12911TIP3    H138676   0.207   7.424   0.640
12911TIP3    H238677   0.062   7.458   0.669
12912TIP3   OH238678   6.829   6.511   1.495
12912TIP3    H138679   6.862   6.591   1.536
12912TIP3    H238680   6.906   6.453   1.492
12913TIP3   OH238681   3.817   0.220  -0.005
12913TIP3    H138682   3.881   0.272   0.044
12913TIP3    H238683   3.733   0.259   0.016
12914TIP3   OH238684   4.424   6.301   0.537
12914TIP3    H138685   4.331   6.298   0.519
12914TIP3    H238686   4.465   6.267   0.457
12915TIP3   OH238687   0.918   4.100   3.855
12915TIP3    H138688   0.829   4.082   3.825
12915TIP3    H238689   0.912   4.185   3.899
12916TIP3   OH238690   4.515   0.796   0.841
12916TIP3    H138691   4.517   0.825   0.750
12916TIP3    H238692   4.556   0.868   0.890
12917TIP3   OH238693   1.187   5.622   0.763
12917TIP3    H138694   1.282   5.627   0.774
12917TIP3    H238695   1.163   5.705   0.721
12918TIP3   OH238696   0.906   4.139   1.830
12918TIP3    H138697   0.899   4.159   1.923
12918TIP3    H238698   0.930   4.222   1.789
12919TIP3   OH238699   3.389   3.558   3.919
12919TIP3    H138700   3.461   3.559   3.981
12919TIP3    H238701   3.322   3.613   3.960
12920TIP3   OH238702   6.176   5.791   4.978
12920TIP3    H138703   6.240   5.847   4.935
12920TIP3    H238704   6.186   5.811   5.071
12921TIP3   OH238705   5.364   5.383   1.464
12921TIP3    H138706   5.338   5.473   1.481
12921TIP3    H238707   5.349   5.370   1.370
12922TIP3   OH238708   0.241   6.336   2.773
12922TIP3    H138709   0.270   6.355   2.684
12922TIP3    H238710   0.305   6.379   2.829
12923TIP3   OH238711   4.346   2.814   3.868
12923TIP3    H138712   4.372   2.731   3.908
12923TIP3    H238713   4.251   2.817   3.876
12924TIP3   OH238714   7.154   5.719   5.914
12924TIP3    H138715   7.194   5.805   5.927
12924TIP3    H238716   7.097   5.708   5.990
12925TIP3   OH238717   3.619   6.779   3.161
12925TIP3    H138718   3.649   6.868   3.144
12925TIP3    H238719   3.700   6.728   3.171
12926TIP3   OH238720   4.162   3.447   1.502
12926TIP3    H138721   4.166   3.543   1.511
12926TIP3    H238722   4.138   3.433   1.411
12927TIP3   OH238723   5.255   0.970   3.447
12927TIP3    H138724   5.169   0.956   3.487
12927TIP3    H238725   5.282   0.884   3.416
12928TIP3   OH238726   7.754   3.161   3.447
12928TIP3    H138727   7.769   3.245   3.490
12928TIP3    H238728   7.672   3.130   3.486
12929TIP3   OH238729   6.936   5.831   0.917
12929TIP3    H138730   6.930   5.767   0.846
12929TIP3    H238731   6.947   5.915   0.873
12930TIP3   OH238732   7.374   6.357   6.717
12930TIP3    H138733   7.391   6.365   6.811
12930TIP3    H238734   7.357   6.264   6.704
12931TIP3   OH238735   6.403   3.185   1.383
12931TIP3    H138736   6.458   3.239   1.326
12931TIP3    H238737   6.314   3.216   1.365
12932TIP3   OH238738   5.635   7.640   2.463
12932TIP3    H138739   5.652   7.708   2.528
12932TIP3    H238740   5.548   7.660   2.429
12933TIP3   OH238741   8.220   4.073   5.100
12933TIP3    H138742   8.217   4.159   5.142
12933TIP3    H238743   8.133   4.061   5.062
12934TIP3   OH238744   6.172   2.310   4.346
12934TIP3    H138745   6.144   2.257   4.272
12934TIP3    H238746   6.247   2.262   4.383
12935TIP3   OH238747   4.424   5.714   6.577
12935TIP3    H138748   4.497   5.667   6.538
12935TIP3    H238749   4.453   5.805   6.581
12936TIP3   OH238750   6.444   6.176   1.817
12936TIP3    H138751   6.515   6.112   1.823
12936TIP3    H238752   6.483   6.251   1.771
12937TIP3   OH238753   0.482   2.663   3.766
12937TIP3    H138754   0.471   2.607   3.690
12937TIP3    H238755   0.488   2.602   3.840
12938TIP3   OH238756   7.514   2.682   2.687
12938TIP3    H138757   7.428   2.677   2.728
12938TIP3    H238758   7.531   2.776   2.679
12939TIP3   OH238759   5.570   4.856   6.481
12939TIP3    H138760   5.520   4.799   6.421
12939TIP3    H238761   5.506   4.882   6.547
12940TIP3   OH238762   3.833   4.841   1.840
12940TIP3    H138763   3.891   4.916   1.829
12940TIP3    H238764   3.891   4.770   1.867
12941TIP3   OH238765   1.656   6.071   5.766
12941TIP3    H138766   1.742   6.071   5.723
12941TIP3    H238767   1.597   6.035   5.700
12942TIP3   OH238768   1.547   4.615   5.166
12942TIP3    H138769   1.524   4.609   5.073
12942TIP3    H238770   1.605   4.541   5.181
12943TIP3   OH238771   7.281   7.477   5.215
12943TIP3    H138772   7.328   7.519   5.286
12943TIP3    H238773   7.290   7.537   5.141
12944TIP3   OH238774   4.458   7.365   4.880
12944TIP3    H138775   4.402   7.442   4.869
12944TIP3    H238776   4.501   7.354   4.796
12945TIP3   OH238777   2.842   2.119   2.507
12945TIP3    H138778   2.932   2.114   2.539
12945TIP3    H238779   2.844   2.070   2.425
12946TIP3   OH238780   2.012   2.038   6.328
12946TIP3    H138781   2.007   2.108   6.263
12946TIP3    H238782   2.097   1.997   6.312
12947TIP3   OH238783   0.796   2.842   4.643
12947TIP3    H138784   0.795   2.918   4.586
12947TIP3    H238785   0.775   2.768   4.586
12948TIP3   OH238786   0.784   1.597   3.537
12948TIP3    H138787   0.720   1.594   3.608
12948TIP3    H238788   0.741   1.554   3.464
12949TIP3   OH238789   5.590   2.295   5.329
12949TIP3    H138790   5.508   2.253   5.354
12949TIP3    H238791   5.630   2.235   5.266
12950TIP3   OH238792   3.581   1.284   5.489
12950TIP3    H138793   3.540   1.369   5.503
12950TIP3    H238794   3.641   1.274   5.563
12951TIP3   OH238795   3.873   0.445   3.522
12951TIP3    H138796   3.869   0.462   3.428
12951TIP3    H238797   3.964   0.463   3.546
12952TIP3   OH238798   4.274   5.799   3.708
12952TIP3    H138799   4.319   5.784   3.625
12952TIP3    H238800   4.254   5.893   3.707
12953TIP3   OH238801   8.258   0.364   1.426
12953TIP3    H138802   8.201   0.319   1.487
12953TIP3    H238803   8.200   0.420   1.374
12954TIP3   OH238804   5.744   2.320   0.778
12954TIP3    H138805   5.676   2.266   0.739
12954TIP3    H238806   5.731   2.406   0.739
12955TIP3   OH238807   3.353   3.870   4.709
12955TIP3    H138808   3.422   3.860   4.775
12955TIP3    H238809   3.400   3.871   4.625
12956TIP3   OH238810   2.739   6.364   5.040
12956TIP3    H138811   2.765   6.368   4.948
12956TIP3    H238812   2.817   6.333   5.086
12957TIP3   OH238813   1.655   4.012   0.247
12957TIP3    H138814   1.655   4.105   0.225
12957TIP3    H238815   1.569   3.981   0.218
12958TIP3   OH238816   0.833   0.892   0.800
12958TIP3    H138817   0.927   0.880   0.787
12958TIP3    H238818   0.818   0.985   0.786
12959TIP3   OH238819   7.597   5.181   6.044
12959TIP3    H138820   7.618   5.105   6.099
12959TIP3    H238821   7.502   5.189   6.049
12960TIP3   OH238822   0.939   4.878   1.789
12960TIP3    H138823   0.946   4.918   1.876
12960TIP3    H238824   0.895   4.795   1.805
12961TIP3   OH238825   6.277   6.727   1.679
12961TIP3    H138826   6.341   6.734   1.609
12961TIP3    H238827   6.313   6.779   1.750
12962TIP3   OH238828   3.476   1.902   6.701
12962TIP3    H138829   3.530   1.878   6.776
12962TIP3    H238830   3.520   1.977   6.662
12963TIP3   OH238831   7.818   1.516   6.354
12963TIP3    H138832   7.825   1.429   6.314
12963TIP3    H238833   7.866   1.574   6.296
12964TIP3   OH238834   1.059   1.757   4.073
12964TIP3    H138835   1.025   1.834   4.117
12964TIP3    H238836   1.133   1.789   4.022
12965TIP3   OH238837   4.043   7.794   5.761
12965TIP3    H138838   4.111   7.731   5.738
12965TIP3    H238839   4.074   7.835   5.842
12966TIP3   OH238840   7.410   7.309   1.839
12966TIP3    H138841   7.391   7.297   1.746
12966TIP3    H238842   7.452   7.394   1.844
12967TIP3   OH238843   7.200   2.694   1.289
12967TIP3    H138844   7.261   2.636   1.244
12967TIP3    H238845   7.241   2.709   1.374
12968TIP3   OH238846   6.398   0.254   2.957
12968TIP3    H138847   6.345   0.332   2.939
12968TIP3    H238848   6.467   0.285   3.016
12969TIP3   OH238849   1.536   5.382   0.343
12969TIP3    H138850   1.535   5.377   0.439
12969TIP3    H238851   1.475   5.453   0.322
12970TIP3   OH238852   3.652   0.404   1.750
12970TIP3    H138853   3.620   0.415   1.660
12970TIP3    H238854   3.742   0.373   1.739
12971TIP3   OH238855   3.991   7.372   6.603
12971TIP3    H138856   4.065   7.370   6.662
12971TIP3    H238857   3.916   7.391   6.659
12972TIP3   OH238858   6.847   6.736   5.713
12972TIP3    H138859   6.892   6.806   5.759
12972TIP3    H238860   6.893   6.656   5.740
12973TIP3   OH238861   0.008   5.742   4.776
12973TIP3    H138862  -0.043   5.782   4.846
12973TIP3    H238863  -0.046   5.669   4.745
12974TIP3   OH238864   5.409   3.441   3.862
12974TIP3    H138865   5.323   3.482   3.849
12974TIP3    H238866   5.404   3.403   3.950
12975TIP3   OH238867   4.050   6.215   4.655
12975TIP3    H138868   4.043   6.209   4.560
12975TIP3    H238869   4.138   6.181   4.675
12976TIP3   OH238870   3.740   1.000   2.191
12976TIP3    H138871   3.744   0.923   2.134
12976TIP3    H238872   3.657   0.990   2.239
12977TIP3   OH238873   1.742   3.539   5.031
12977TIP3    H138874   1.707   3.474   4.970
12977TIP3    H238875   1.836   3.521   5.032
12978TIP3   OH238876   4.508   1.369   0.173
12978TIP3    H138877   4.594   1.336   0.200
12978TIP3    H238878   4.453   1.357   0.250
12979TIP3   OH238879   4.736   2.298   1.764
12979TIP3    H138880   4.747   2.344   1.847
12979TIP3    H238881   4.771   2.211   1.779
12980TIP3   OH238882   3.998   1.508   5.507
12980TIP3    H138883   3.903   1.512   5.514
12980TIP3    H238884   4.018   1.415   5.501
12981TIP3   OH238885   3.491   6.099   5.675
12981TIP3    H138886   3.403   6.065   5.658
12981TIP3    H238887   3.530   6.036   5.736
12982TIP3   OH238888   5.347   3.407   0.309
12982TIP3    H138889   5.317   3.317   0.304
12982TIP3    H238890   5.300   3.444   0.384
12983TIP3   OH238891   6.099   3.518   2.092
12983TIP3    H138892   6.143   3.447   2.046
12983TIP3    H238893   6.040   3.557   2.028
12984TIP3   OH238894   4.109   4.704   3.060
12984TIP3    H138895   4.173   4.774   3.073
12984TIP3    H238896   4.065   4.727   2.977
12985TIP3   OH238897   2.519   7.075   0.176
12985TIP3    H138898   2.577   7.116   0.240
12985TIP3    H238899   2.455   7.028   0.229
12986TIP3   OH238900   4.652   6.056   0.917
12986TIP3    H138901   4.630   6.018   0.832
12986TIP3    H238902   4.649   5.983   0.979
12987TIP3   OH238903   5.237   5.801   1.696
12987TIP3    H138904   5.217   5.894   1.685
12987TIP3    H238905   5.280   5.796   1.781
12988TIP3   OH238906   2.816   5.326   1.540
12988TIP3    H138907   2.817   5.265   1.613
12988TIP3    H238908   2.905   5.362   1.538
12989TIP3   OH238909   1.560   2.593   0.087
12989TIP3    H138910   1.601   2.605   0.001
12989TIP3    H238911   1.576   2.675   0.134
12990TIP3   OH238912   7.941   6.010   6.571
12990TIP3    H138913   8.030   5.976   6.561
12990TIP3    H238914   7.929   6.019   6.666
12991TIP3   OH238915   8.301   0.230   6.300
12991TIP3    H138916   8.219   0.230   6.251
12991TIP3    H238917   8.278   0.196   6.386
12992TIP3   OH238918   4.005   5.700   6.479
12992TIP3    H138919   4.038   5.757   6.409
12992TIP3    H238920   3.954   5.758   6.535
12993TIP3   OH238921   2.807   6.643   6.627
12993TIP3    H138922   2.779   6.559   6.662
12993TIP3    H238923   2.899   6.629   6.602
12994TIP3   OH238924   5.640   1.817   1.475
12994TIP3    H138925   5.606   1.869   1.546
12994TIP3    H238926   5.640   1.875   1.399
12995TIP3   OH238927   7.725   5.704   3.611
12995TIP3    H138928   7.765   5.637   3.666
12995TIP3    H238929   7.712   5.662   3.526
12996TIP3   OH238930   6.461   3.661   0.314
12996TIP3    H138931   6.509   3.697   0.240
12996TIP3    H238932   6.519   3.594   0.350
12997TIP3   OH238933   4.816   2.126   3.111
12997TIP3    H138934   4.901   2.113   3.068
12997TIP3    H238935   4.835   2.119   3.204
12998TIP3   OH238936   1.678   4.485   0.230
12998TIP3    H138937   1.656   4.551   0.165
12998TIP3    H238938   1.773   4.484   0.233
12999TIP3   OH238939   7.146   3.431   3.043
12999TIP3    H138940   7.051   3.433   3.036
12999TIP3    H238941   7.163   3.425   3.137
13000TIP3   OH238942   7.188   4.094   2.903
13000TIP3    H138943   7.219   4.003   2.904
13000TIP3    H238944   7.140   4.101   2.820
13001TIP3   OH238945   0.990   6.288   1.436
13001TIP3    H138946   0.895   6.284   1.441
13001TIP3    H238947   1.020   6.284   1.527
13002TIP3   OH238948   3.509   6.747   4.264
13002TIP3    H138949   3.462   6.748   4.347
13002TIP3    H238950   3.497   6.658   4.231
13003TIP3   OH238951   7.629   4.345   2.029
13003TIP3    H138952   7.646   4.376   2.117
13003TIP3    H238953   7.574   4.268   2.041
13004TIP3   OH238954   0.396   1.376   3.886
13004TIP3    H138955   0.395   1.434   3.810
13004TIP3    H238956   0.312   1.390   3.929
13005TIP3   OH238957   7.869   6.873   5.804
13005TIP3    H138958   7.959   6.906   5.809
13005TIP3    H238959   7.851   6.867   5.710
13006TIP3   OH238960   2.850   1.600   1.150
13006TIP3    H138961   2.799   1.673   1.114
13006TIP3    H238962   2.927   1.640   1.189
13007TIP3   OH238963   5.590   0.025   3.192
13007TIP3    H138964   5.543   0.101   3.226
13007TIP3    H238965   5.633  -0.013   3.269
13008TIP3   OH238966   3.616   1.561   2.352
13008TIP3    H138967   3.589   1.552   2.261
13008TIP3    H238968   3.541   1.530   2.402
13009TIP3   OH238969   4.563   2.512   1.473
13009TIP3    H138970   4.631   2.566   1.513
13009TIP3    H238971   4.485   2.526   1.526
13010TIP3   OH238972   2.987   4.318   0.199
13010TIP3    H138973   3.064   4.374   0.196
13010TIP3    H238974   2.997   4.267   0.279
13011TIP3   OH238975   2.279   6.190   5.162
13011TIP3    H138976   2.370   6.209   5.188
13011TIP3    H238977   2.237   6.162   5.244
13012TIP3   OH238978   0.216   7.298   2.929
13012TIP3    H138979   0.274   7.292   3.004
13012TIP3    H238980   0.139   7.246   2.953
13013TIP3   OH238981   5.982   2.851   3.693
13013TIP3    H138982   6.045   2.919   3.666
13013TIP3    H238983   5.929   2.893   3.760
13014TIP3   OH238984   4.374   6.577   5.004
13014TIP3    H138985   4.359   6.528   4.923
13014TIP3    H238986   4.293   6.565   5.054
13015TIP3   OH238987   5.231   6.414   5.219
13015TIP3    H138988   5.135   6.412   5.225
13015TIP3    H238989   5.260   6.342   5.276
13016TIP3   OH238990   6.626   1.303   2.278
13016TIP3    H138991   6.543   1.302   2.326
13016TIP3    H238992   6.625   1.387   2.231
13017TIP3   OH238993   7.320   2.990   4.094
13017TIP3    H138994   7.354   2.931   4.026
13017TIP3    H238995   7.397   3.011   4.147
13018TIP3   OH238996   7.827   3.860   6.281
13018TIP3    H138997   7.844   3.779   6.234
13018TIP3    H238998   7.773   3.912   6.221
13019TIP3   OH238999   7.976   0.476   0.318
13019TIP3    H139000   7.981   0.571   0.330
13019TIP3    H239001   7.995   0.463   0.225
13020TIP3   OH239002   6.239   0.645   4.942
13020TIP3    H139003   6.236   0.732   4.982
13020TIP3    H239004   6.148   0.626   4.921
13021TIP3   OH239005   0.522   3.302   6.178
13021TIP3    H139006   0.439   3.275   6.139
13021TIP3    H239007   0.571   3.341   6.106
13022TIP3   OH239008   1.459   7.090   1.473
13022TIP3    H139009   1.391   7.106   1.538
13022TIP3    H239010   1.413   7.095   1.389
13023TIP3   OH239011   1.212   2.852   5.552
13023TIP3    H139012   1.233   2.781   5.492
13023TIP3    H239013   1.268   2.925   5.524
13024TIP3   OH239014   8.060   1.074   2.195
13024TIP3    H139015   8.101   1.024   2.125
13024TIP3    H239016   8.103   1.160   2.192
13025TIP3   OH239017   1.474   5.913   4.142
13025TIP3    H139018   1.388   5.943   4.170
13025TIP3    H239019   1.461   5.821   4.119
13026TIP3   OH239020   4.270   0.559   3.143
13026TIP3    H139021   4.184   0.524   3.120
13026TIP3    H239022   4.304   0.593   3.060
13027TIP3   OH239023   2.912   1.868   1.958
13027TIP3    H139024   2.875   1.846   2.044
13027TIP3    H239025   3.006   1.874   1.972
13028TIP3   OH239026   6.524   7.099   4.341
13028TIP3    H139027   6.443   7.141   4.312
13028TIP3    H239028   6.517   7.098   4.437
13029TIP3   OH239029   6.496   0.719   3.093
13029TIP3    H139030   6.509   0.649   3.156
13029TIP3    H239031   6.515   0.678   3.008
13030TIP3   OH239032   6.040   7.819   0.751
13030TIP3    H139033   5.976   7.778   0.692
13030TIP3    H239034   6.009   7.796   0.838
13031TIP3   OH239035   3.886   1.383   2.049
13031TIP3    H139036   3.816   1.337   2.095
13031TIP3    H239037   3.966   1.355   2.094
13032TIP3   OH239038   3.153   5.111   3.308
13032TIP3    H139039   3.109   5.037   3.266
13032TIP3    H239040   3.240   5.114   3.267
13033TIP3   OH239041   7.077   5.480   5.697
13033TIP3    H139042   7.095   5.563   5.654
13033TIP3    H239043   7.048   5.422   5.627
13034TIP3   OH239044   7.048   2.876   0.683
13034TIP3    H139045   7.117   2.831   0.732
13034TIP3    H239046   7.048   2.965   0.719
13035TIP3   OH239047   1.928   2.458   0.930
13035TIP3    H139048   1.902   2.548   0.910
13035TIP3    H239049   2.018   2.466   0.964
13036TIP3   OH239050   1.087   7.477   2.307
13036TIP3    H139051   1.047   7.564   2.301
13036TIP3    H239052   1.093   7.448   2.216
13037TIP3   OH239053   5.615   4.576   6.650
13037TIP3    H139054   5.580   4.556   6.563
13037TIP3    H239055   5.708   4.552   6.644
13038TIP3   OH239056   7.620   4.108   2.688
13038TIP3    H139057   7.694   4.148   2.734
13038TIP3    H239058   7.544   4.161   2.714
13039TIP3   OH239059   4.746   0.696   1.586
13039TIP3    H139060   4.809   0.624   1.589
13039TIP3    H239061   4.661   0.653   1.602
13040TIP3   OH239062   1.122   2.498   5.142
13040TIP3    H139063   1.087   2.456   5.064
13040TIP3    H239064   1.069   2.576   5.154
13041TIP3   OH239065   3.948   0.859   3.132
13041TIP3    H139066   3.903   0.830   3.211
13041TIP3    H239067   3.971   0.950   3.150
13042TIP3   OH239068   7.387   5.723   6.479
13042TIP3    H139069   7.318   5.777   6.440
13042TIP3    H239070   7.440   5.695   6.405
13043TIP3   OH239071   8.111   3.754   3.492
13043TIP3    H139072   8.145   3.725   3.576
13043TIP3    H239073   8.072   3.676   3.453
13044TIP3   OH239074   6.986   3.835   4.886
13044TIP3    H139075   6.966   3.896   4.815
13044TIP3    H239076   7.077   3.854   4.910
13045TIP3   OH239077   0.819   0.367   3.236
13045TIP3    H139078   0.794   0.440   3.293
13045TIP3    H239079   0.906   0.342   3.266
13046TIP3   OH239080   2.546   5.545   5.586
13046TIP3    H139081   2.616   5.589   5.633
13046TIP3    H239082   2.539   5.594   5.503
13047TIP3   OH239083   1.034   2.793   1.852
13047TIP3    H139084   1.003   2.706   1.828
13047TIP3    H239085   0.957   2.849   1.843
13048TIP3   OH239086   5.724   1.205   5.045
13048TIP3    H139087   5.738   1.268   5.117
13048TIP3    H239088   5.805   1.155   5.041
13049TIP3   OH239089   2.352   2.887   0.993
13049TIP3    H139090   2.352   2.792   0.991
13049TIP3    H239091   2.439   2.912   0.960
13050TIP3   OH239092   5.970   5.636   3.369
13050TIP3    H139093   5.916   5.676   3.300
13050TIP3    H239094   5.962   5.695   3.444
13051TIP3   OH239095   0.889   0.850   4.624
13051TIP3    H139096   0.876   0.891   4.538
13051TIP3    H239097   0.801   0.844   4.661
13052TIP3   OH239098   5.552   4.424   5.099
13052TIP3    H139099   5.620   4.477   5.139
13052TIP3    H239100   5.529   4.471   5.019
13053TIP3   OH239101   0.656   7.315   3.048
13053TIP3    H139102   0.675   7.232   3.090
13053TIP3    H239103   0.733   7.333   2.993
13054TIP3   OH239104   5.357   3.753   0.163
13054TIP3    H139105   5.308   3.675   0.189
13054TIP3    H239106   5.429   3.720   0.110
13055TIP3   OH239107   1.351   0.025   2.532
13055TIP3    H139108   1.311  -0.058   2.503
13055TIP3    H239109   1.383   0.065   2.452
13056TIP3   OH239110   4.281   6.560   5.332
13056TIP3    H139111   4.230   6.637   5.357
13056TIP3    H239112   4.363   6.569   5.381
13057TIP3   OH239113   0.376   6.618   1.477
13057TIP3    H139114   0.367   6.533   1.520
13057TIP3    H239115   0.327   6.678   1.533
13058TIP3   OH239116   6.002   2.569   1.165
13058TIP3    H139117   5.918   2.614   1.156
13058TIP3    H239118   6.015   2.526   1.081
13059TIP3   OH239119   3.686   7.438   6.335
13059TIP3    H139120   3.722   7.354   6.307
13059TIP3    H239121   3.711   7.499   6.265
13060TIP3   OH239122   4.001   3.361   3.837
13060TIP3    H139123   4.012   3.270   3.863
13060TIP3    H239124   4.072   3.408   3.882
13061TIP3   OH239125   3.377   0.752   0.676
13061TIP3    H139126   3.293   0.797   0.681
13061TIP3    H239127   3.361   0.666   0.713
13062TIP3   OH239128   5.016   4.274   4.958
13062TIP3    H139129   4.975   4.191   4.981
13062TIP3    H239130   5.033   4.316   5.042
13063TIP3   OH239131   4.827   3.417   0.683
13063TIP3    H139132   4.875   3.352   0.631
13063TIP3    H239133   4.856   3.403   0.773
13064TIP3   OH239134   5.610   5.751   2.911
13064TIP3    H139135   5.552   5.692   2.862
13064TIP3    H239136   5.698   5.720   2.890
13065TIP3   OH239137   5.793   3.446   2.121
13065TIP3    H139138   5.824   3.474   2.035
13065TIP3    H239139   5.701   3.424   2.108
13066TIP3   OH239140   8.147   7.411   2.892
13066TIP3    H139141   8.117   7.380   2.977
13066TIP3    H239142   8.071   7.453   2.853
13067TIP3   OH239143   5.948   4.953   5.582
13067TIP3    H139144   6.034   4.948   5.625
13067TIP3    H239145   5.964   5.008   5.505
13068TIP3   OH239146   6.208   5.452   6.711
13068TIP3    H139147   6.153   5.402   6.651
13068TIP3    H239148   6.273   5.389   6.742
13069TIP3   OH239149   7.637   5.645   2.924
13069TIP3    H139150   7.603   5.601   3.002
13069TIP3    H239151   7.654   5.574   2.863
13070TIP3   OH239152   0.097  -0.017   5.843
13070TIP3    H139153   0.027   0.017   5.899
13070TIP3    H239154   0.058  -0.094   5.801
13071TIP3   OH239155   7.095   0.083   2.979
13071TIP3    H139156   7.188   0.060   2.980
13071TIP3    H239157   7.089   0.155   2.917
13072TIP3   OH239158   0.819   7.078   1.603
13072TIP3    H139159   0.735   7.075   1.648
13072TIP3    H239160   0.798   7.104   1.513
13073TIP3   OH239161   3.252   1.471   1.896
13073TIP3    H139162   3.340   1.484   1.860
13073TIP3    H239163   3.254   1.515   1.980
13074TIP3   OH239164   6.495   0.242   6.230
13074TIP3    H139165   6.505   0.192   6.149
13074TIP3    H239166   6.518   0.332   6.205
13075TIP3   OH239167   7.822   3.666   2.607
13075TIP3    H139168   7.803   3.729   2.676
13075TIP3    H239169   7.741   3.658   2.558
13076TIP3   OH239170   7.434   7.631   4.627
13076TIP3    H139171   7.348   7.664   4.603
13076TIP3    H239172   7.472   7.699   4.682
13077TIP3   OH239173   8.351   6.699   0.724
13077TIP3    H139174   8.326   6.773   0.670
13077TIP3    H239175   8.444   6.684   0.704
13078TIP3   OH239176   3.948   5.002   1.206
13078TIP3    H139177   4.003   5.053   1.265
13078TIP3    H239178   3.895   5.068   1.161
13079TIP3   OH239179   2.041   7.569   3.636
13079TIP3    H139180   2.102   7.590   3.706
13079TIP3    H239181   1.961   7.544   3.681
13080TIP3   OH239182   2.867   4.503   1.982
13080TIP3    H139183   2.876   4.453   2.063
13080TIP3    H239184   2.853   4.436   1.914
13081TIP3   OH239185   2.000   4.613   1.472
13081TIP3    H139186   1.931   4.613   1.538
13081TIP3    H239187   1.984   4.534   1.420
13082TIP3   OH239188   3.349   6.825   1.407
13082TIP3    H139189   3.308   6.905   1.440
13082TIP3    H239190   3.291   6.755   1.436
13083TIP3   OH239191   3.677   2.954   2.371
13083TIP3    H139192   3.769   2.931   2.375
13083TIP3    H239193   3.645   2.915   2.290
13084TIP3   OH239194   6.646   1.862   1.096
13084TIP3    H139195   6.586   1.923   1.052
13084TIP3    H239196   6.593   1.783   1.110
13085TIP3   OH239197   1.557   0.173   6.443
13085TIP3    H139198   1.558   0.206   6.353
13085TIP3    H239199   1.465   0.157   6.461
13086TIP3   OH239200   4.280   2.066   4.592
13086TIP3    H139201   4.208   2.004   4.597
13086TIP3    H239202   4.303   2.084   4.683
13087TIP3   OH239203   4.745   2.013   5.709
13087TIP3    H139204   4.657   1.980   5.692
13087TIP3    H239205   4.744   2.040   5.801
13088TIP3   OH239206   2.042   0.512   3.852
13088TIP3    H139207   2.078   0.452   3.786
13088TIP3    H239208   2.006   0.455   3.920
13089TIP3   OH239209   2.256   6.544   4.638
13089TIP3    H139210   2.316   6.525   4.566
13089TIP3    H239211   2.212   6.461   4.656
13090TIP3   OH239212   7.343   4.917   1.392
13090TIP3    H139213   7.293   4.929   1.473
13090TIP3    H239214   7.415   4.981   1.398
13091TIP3   OH239215   3.227   1.181   2.595
13091TIP3    H139216   3.273   1.265   2.588
13091TIP3    H239217   3.141   1.198   2.557
13092TIP3   OH239218   6.845   6.870   2.539
13092TIP3    H139219   6.877   6.789   2.498
13092TIP3    H239220   6.910   6.890   2.607
13093TIP3   OH239221   2.169   0.041   6.236
13093TIP3    H139222   2.219   0.059   6.157
13093TIP3    H239223   2.220  -0.026   6.282
13094TIP3   OH239224   7.697   0.714   1.017
13094TIP3    H139225   7.703   0.770   0.940
13094TIP3    H239226   7.636   0.759   1.075
13095TIP3   OH239227   4.687   0.491   4.319
13095TIP3    H139228   4.597   0.461   4.331
13095TIP3    H239229   4.683   0.548   4.242
13096TIP3   OH239230   2.932   6.832   2.418
13096TIP3    H139231   2.996   6.835   2.488
13096TIP3    H239232   2.889   6.747   2.427
13097TIP3   OH239233   5.537   7.050   4.818
13097TIP3    H139234   5.494   7.125   4.858
13097TIP3    H239235   5.466   6.990   4.795
13098TIP3   OH239236   5.591   4.727   3.923
13098TIP3    H139237   5.607   4.691   3.836
13098TIP3    H239238   5.501   4.759   3.920
13099TIP3   OH239239   5.861   0.800   1.302
13099TIP3    H139240   5.840   0.722   1.250
13099TIP3    H239241   5.778   0.847   1.308
13100TIP3   OH239242   0.776   2.883   4.299
13100TIP3    H139243   0.789   2.790   4.319
13100TIP3    H239244   0.863   2.916   4.277
13101TIP3   OH239245   1.303   4.940   5.151
13101TIP3    H139246   1.307   4.919   5.058
13101TIP3    H239247   1.223   4.991   5.161
13102TIP3   OH239248   2.183   2.695   2.924
13102TIP3    H139249   2.134   2.629   2.875
13102TIP3    H239250   2.272   2.689   2.889
13103TIP3   OH239251   6.128   2.405   2.736
13103TIP3    H139252   6.040   2.399   2.774
13103TIP3    H239253   6.119   2.471   2.667
13104TIP3   OH239254   1.026   4.433   2.937
13104TIP3    H139255   0.952   4.416   2.996
13104TIP3    H239256   1.061   4.517   2.966
13105TIP3   OH239257   3.631   1.093   6.156
13105TIP3    H139258   3.657   1.185   6.148
13105TIP3    H239259   3.709   1.048   6.187
13106TIP3   OH239260   3.303   1.123   5.980
13106TIP3    H139261   3.221   1.105   6.026
13106TIP3    H239262   3.330   1.209   6.012
13107TIP3   OH239263   2.045   3.802   3.678
13107TIP3    H139264   2.093   3.727   3.644
13107TIP3    H239265   2.033   3.782   3.771
13108TIP3   OH239266   5.908   3.212   1.388
13108TIP3    H139267   5.902   3.140   1.451
13108TIP3    H239268   5.862   3.179   1.310
13109TIP3   OH239269   6.537   0.295   4.054
13109TIP3    H139270   6.514   0.362   4.119
13109TIP3    H239271   6.471   0.305   3.985
13110TIP3   OH239272   0.949   1.250   1.291
13110TIP3    H139273   1.013   1.238   1.221
13110TIP3    H239274   0.864   1.237   1.249
13111TIP3   OH239275   6.068   6.839   0.746
13111TIP3    H139276   6.028   6.925   0.760
13111TIP3    H239277   5.993   6.781   0.731
13112TIP3   OH239278   4.229   6.266   5.385
13112TIP3    H139279   4.238   6.253   5.291
13112TIP3    H239280   4.218   6.361   5.395
13113TIP3   OH239281   8.311   3.708   0.189
13113TIP3    H139282   8.267   3.767   0.128
13113TIP3    H239283   8.359   3.767   0.247
13114TIP3   OH239284   3.138   2.317   2.472
13114TIP3    H139285   3.099   2.363   2.397
13114TIP3    H239286   3.217   2.368   2.491
13115TIP3   OH239287   3.698   1.779   5.742
13115TIP3    H139288   3.604   1.765   5.728
13115TIP3    H239289   3.723   1.846   5.678
13116TIP3   OH239290   6.243   7.359   2.644
13116TIP3    H139291   6.303   7.343   2.717
13116TIP3    H239292   6.260   7.450   2.620
13117TIP3   OH239293   4.059   1.739   0.924
13117TIP3    H139294   4.137   1.783   0.891
13117TIP3    H239295   4.043   1.668   0.861
13118TIP3   OH239296   6.171   6.094   4.069
13118TIP3    H139297   6.085   6.054   4.082
13118TIP3    H239298   6.202   6.057   3.986
13119TIP3   OH239299   4.840   0.261   0.114
13119TIP3    H139300   4.817   0.168   0.106
13119TIP3    H239301   4.862   0.288   0.025
13120TIP3   OH239302   7.216   1.444   2.407
13120TIP3    H139303   7.182   1.446   2.318
13120TIP3    H239304   7.171   1.516   2.451
13121TIP3   OH239305   3.756   1.698   6.005
13121TIP3    H139306   3.841   1.656   5.991
13121TIP3    H239307   3.730   1.729   5.917
13122TIP3   OH239308   1.372   0.617   1.893
13122TIP3    H139309   1.367   0.524   1.871
13122TIP3    H239310   1.463   0.631   1.919
13123TIP3   OH239311   4.992   2.330   0.332
13123TIP3    H139312   4.996   2.424   0.347
13123TIP3    H239313   5.028   2.291   0.412
13124TIP3   OH239314   2.030   7.098   5.997
13124TIP3    H139315   1.962   7.144   6.047
13124TIP3    H239316   2.079   7.049   6.063
13125TIP3   OH239317   5.557   3.475   4.550
13125TIP3    H139318   5.491   3.443   4.489
13125TIP3    H239319   5.551   3.571   4.543
13126TIP3   OH239320   7.699   2.529   4.325
13126TIP3    H139321   7.787   2.503   4.352
13126TIP3    H239322   7.648   2.529   4.406
13127TIP3   OH239323   0.061   6.769   4.167
13127TIP3    H139324   0.066   6.761   4.262
13127TIP3    H239325   0.151   6.786   4.139
13128TIP3   OH239326   5.063   0.606   0.809
13128TIP3    H139327   5.047   0.579   0.900
13128TIP3    H239328   5.002   0.552   0.758
13129TIP3   OH239329   1.468   6.567   2.659
13129TIP3    H139330   1.510   6.566   2.745
13129TIP3    H239331   1.522   6.510   2.605
13130TIP3   OH239332   7.689   3.199   1.740
13130TIP3    H139333   7.644   3.256   1.803
13130TIP3    H239334   7.619   3.167   1.683
13131TIP3   OH239335   3.999   0.369   5.854
13131TIP3    H139336   4.062   0.437   5.827
13131TIP3    H239337   3.914   0.410   5.840
13132TIP3   OH239338   4.385   3.060   5.608
13132TIP3    H139339   4.383   3.155   5.593
13132TIP3    H239340   4.452   3.028   5.549
13133TIP3   OH239341   2.438   3.336   5.982
13133TIP3    H139342   2.380   3.260   5.981
13133TIP3    H239343   2.379   3.410   5.969
13134TIP3   OH239344   8.289   0.758   2.221
13134TIP3    H139345   8.237   0.704   2.281
13134TIP3    H239346   8.270   0.722   2.134
13135TIP3   OH239347   7.903   6.788   2.163
13135TIP3    H139348   7.816   6.775   2.201
13135TIP3    H239349   7.936   6.867   2.205
13136TIP3   OH239350   1.169   2.059   0.952
13136TIP3    H139351   1.248   2.101   0.985
13136TIP3    H239352   1.199   1.977   0.914
13137TIP3   OH239353   7.674   5.660   5.485
13137TIP3    H139354   7.751   5.621   5.444
13137TIP3    H239355   7.614   5.586   5.497
13138TIP3   OH239356   5.446   5.930   3.404
13138TIP3    H139357   5.468   6.019   3.431
13138TIP3    H239358   5.483   5.922   3.316
13139TIP3   OH239359   2.831   1.110   2.183
13139TIP3    H139360   2.786   1.180   2.136
13139TIP3    H239361   2.922   1.116   2.154
13140TIP3   OH239362   5.363   5.262   5.511
13140TIP3    H139363   5.287   5.319   5.498
13140TIP3    H239364   5.403   5.294   5.591
13141TIP3   OH239365   2.139   5.546   3.135
13141TIP3    H139366   2.120   5.491   3.059
13141TIP3    H239367   2.073   5.521   3.200
13142TIP3   OH239368   0.865   6.300   0.391
13142TIP3    H139369   0.882   6.237   0.460
13142TIP3    H239370   0.808   6.366   0.431
13143TIP3   OH239371   2.886   3.046   3.655
13143TIP3    H139372   2.969   3.001   3.663
13143TIP3    H239373   2.882   3.072   3.563
13144TIP3   OH239374   0.508   4.507   6.221
13144TIP3    H139375   0.503   4.551   6.306
13144TIP3    H239376   0.425   4.526   6.178
13145TIP3   OH239377   1.746   7.243   2.952
13145TIP3    H139378   1.763   7.302   2.879
13145TIP3    H239379   1.661   7.204   2.932
13146TIP3   OH239380   4.845   0.342   5.446
13146TIP3    H139381   4.934   0.348   5.482
13146TIP3    H239382   4.850   0.385   5.361
13147TIP3   OH239383   4.089   7.552   3.467
13147TIP3    H139384   4.180   7.577   3.483
13147TIP3    H239385   4.086   7.529   3.374
13148TIP3   OH239386   4.700   6.428   1.617
13148TIP3    H139387   4.654   6.422   1.701
13148TIP3    H239388   4.652   6.495   1.568
13149TIP3   OH239389   6.136   0.204   4.949
13149TIP3    H139390   6.158   0.277   5.007
13149TIP3    H239391   6.051   0.229   4.911
13150TIP3   OH239392   0.995   5.442   0.634
13150TIP3    H139393   1.044   5.493   0.699
13150TIP3    H239394   0.903   5.460   0.653
13151TIP3   OH239395   3.863   3.153   4.054
13151TIP3    H139396   3.810   3.151   4.134
13151TIP3    H239397   3.809   3.108   3.989
13152TIP3   OH239398   1.091   6.103   3.688
13152TIP3    H139399   1.031   6.149   3.747
13152TIP3    H239400   1.105   6.165   3.616
13153TIP3   OH239401   4.257   2.115   3.016
13153TIP3    H139402   4.167   2.149   3.016
13153TIP3    H239403   4.282   2.116   2.923
13154TIP3   OH239404   7.458   3.739   2.063
13154TIP3    H139405   7.512   3.687   2.004
13154TIP3    H239406   7.372   3.743   2.021
13155TIP3   OH239407   2.331   0.634   4.071
13155TIP3    H139408   2.386   0.602   4.000
13155TIP3    H239409   2.274   0.559   4.093
13156TIP3   OH239410   0.720   0.264   6.594
13156TIP3    H139411   0.686   0.346   6.558
13156TIP3    H239412   0.643   0.208   6.603
13157TIP3   OH239413   6.366   2.581   5.185
13157TIP3    H139414   6.442   2.531   5.156
13157TIP3    H239415   6.293   2.544   5.135
13158TIP3   OH239416   5.682   0.696   5.745
13158TIP3    H139417   5.667   0.603   5.729
13158TIP3    H239418   5.651   0.739   5.665
13159TIP3   OH239419   7.868   0.288   1.084
13159TIP3    H139420   7.778   0.302   1.053
13159TIP3    H239421   7.895   0.374   1.117
13160TIP3   OH239422   4.671   3.992   1.610
13160TIP3    H139423   4.711   4.053   1.548
13160TIP3    H239424   4.606   4.045   1.656
13161TIP3   OH239425   3.583   6.963   2.533
13161TIP3    H139426   3.618   6.878   2.560
13161TIP3    H239427   3.637   7.027   2.579
13162TIP3   OH239428   1.443   6.692   5.695
13162TIP3    H139429   1.381   6.738   5.751
13162TIP3    H239430   1.391   6.623   5.653
13163TIP3   OH239431   7.135   5.618   4.286
13163TIP3    H139432   7.059   5.670   4.260
13163TIP3    H239433   7.120   5.532   4.246
13164TIP3   OH239434   3.692   4.504   0.294
13164TIP3    H139435   3.767   4.507   0.235
13164TIP3    H239436   3.713   4.568   0.362
13165TIP3   OH239437   1.766   7.500   3.784
13165TIP3    H139438   1.724   7.433   3.731
13165TIP3    H239439   1.803   7.453   3.858
13166TIP3   OH239440   1.385   6.649   4.342
13166TIP3    H139441   1.383   6.664   4.437
13166TIP3    H239442   1.469   6.607   4.326
13167TIP3   OH239443   4.479   4.813   2.273
13167TIP3    H139444   4.541   4.871   2.317
13167TIP3    H239445   4.398   4.864   2.267
13168TIP3   OH239446   2.284   3.997   4.154
13168TIP3    H139447   2.220   3.933   4.122
13168TIP3    H239448   2.250   4.025   4.239
13169TIP3   OH239449   6.446   3.861   2.234
13169TIP3    H139450   6.477   3.935   2.287
13169TIP3    H239451   6.503   3.788   2.259
13170TIP3   OH239452   4.776   4.775   2.650
13170TIP3    H139453   4.745   4.864   2.632
13170TIP3    H239454   4.723   4.745   2.724
13171TIP3   OH239455   1.865   5.256   3.496
13171TIP3    H139456   1.784   5.236   3.450
13171TIP3    H239457   1.845   5.238   3.588
13172TIP3   OH239458   7.997   7.076   3.962
13172TIP3    H139459   7.966   7.156   4.005
13172TIP3    H239460   8.015   7.015   4.034
13173TIP3   OH239461   0.304   6.375   6.063
13173TIP3    H139462   0.306   6.452   6.005
13173TIP3    H239463   0.362   6.312   6.020
13174TIP3   OH239464   3.558   2.133   6.520
13174TIP3    H139465   3.639   2.147   6.569
13174TIP3    H239466   3.547   2.214   6.469
13175TIP3   OH239467   3.757   2.631   2.437
13175TIP3    H139468   3.793   2.695   2.375
13175TIP3    H239469   3.833   2.600   2.486
13176TIP3   OH239470   3.484   4.825   0.358
13176TIP3    H139471   3.406   4.881   0.360
13176TIP3    H239472   3.556   4.885   0.336
13177TIP3   OH239473   7.070   1.891   2.352
13177TIP3    H139474   7.002   1.922   2.411
13177TIP3    H239475   7.152   1.903   2.401
13178TIP3   OH239476   2.518   0.992   4.096
13178TIP3    H139477   2.480   1.069   4.054
13178TIP3    H239478   2.594   0.970   4.043
13179TIP3   OH239479   7.643   5.558   6.415
13179TIP3    H139480   7.658   5.558   6.320
13179TIP3    H239481   7.713   5.612   6.451
13180TIP3   OH239482   4.340   5.976   4.579
13180TIP3    H139483   4.321   5.892   4.619
13180TIP3    H239484   4.298   5.972   4.493
13181TIP3   OH239485   5.568   7.750   4.446
13181TIP3    H139486   5.561   7.668   4.494
13181TIP3    H239487   5.511   7.811   4.492
13182TIP3   OH239488   5.467   7.389   2.063
13182TIP3    H139489   5.386   7.429   2.030
13182TIP3    H239490   5.537   7.433   2.016
13183TIP3   OH239491   5.190   1.816   3.934
13183TIP3    H139492   5.283   1.793   3.941
13183TIP3    H239493   5.178   1.836   3.841
13184TIP3   OH239494   0.492   6.832   0.232
13184TIP3    H139495   0.572   6.799   0.274
13184TIP3    H239496   0.440   6.754   0.216
13185TIP3   OH239497   1.998   5.937   1.140
13185TIP3    H139498   2.043   5.852   1.134
13185TIP3    H239499   1.906   5.914   1.153
13186TIP3   OH239500   6.959   1.235   6.514
13186TIP3    H139501   6.878   1.195   6.547
13186TIP3    H239502   6.976   1.308   6.574
13187TIP3   OH239503   3.334   1.201   3.303
13187TIP3    H139504   3.375   1.117   3.324
13187TIP3    H239505   3.240   1.183   3.300
13188TIP3   OH239506   1.299   7.371   4.627
13188TIP3    H139507   1.291   7.396   4.535
13188TIP3    H239508   1.239   7.298   4.638
13189TIP3   OH239509   3.021   0.207   3.939
13189TIP3    H139510   3.053   0.225   3.850
13189TIP3    H239511   3.007   0.112   3.941
13190TIP3   OH239512   3.855   4.748   2.449
13190TIP3    H139513   3.780   4.803   2.428
13190TIP3    H239514   3.871   4.696   2.369
13191TIP3   OH239515   7.509   5.185   4.546
13191TIP3    H139516   7.604   5.173   4.543
13191TIP3    H239517   7.494   5.267   4.498
13192TIP3   OH239518   1.517   5.828   2.175
13192TIP3    H139519   1.437   5.779   2.195
13192TIP3    H239520   1.588   5.766   2.191
13193TIP3   OH239521   3.245   1.857   4.402
13193TIP3    H139522   3.241   1.929   4.338
13193TIP3    H239523   3.155   1.848   4.433
13194TIP3   OH239524   7.014   6.240   3.224
13194TIP3    H139525   6.985   6.328   3.200
13194TIP3    H239526   7.019   6.193   3.140
13195TIP3   OH239527   1.113   4.853   6.609
13195TIP3    H139528   1.176   4.925   6.609
13195TIP3    H239529   1.087   4.843   6.518
13196TIP3   OH239530   0.022   6.790   5.210
13196TIP3    H139531  -0.004   6.744   5.290
13196TIP3    H239532  -0.014   6.737   5.139
13197TIP3   OH239533   8.248   6.477   2.947
13197TIP3    H139534   8.227   6.426   2.869
13197TIP3    H239535   8.341   6.500   2.936
13198TIP3   OH239536   1.035   1.656   4.574
13198TIP3    H139537   0.984   1.732   4.547
13198TIP3    H239538   0.976   1.582   4.561
13199TIP3   OH239539   3.287   5.392   1.683
13199TIP3    H139540   3.303   5.306   1.721
13199TIP3    H239541   3.289   5.452   1.758
13200TIP3   OH239542   4.719   2.917   3.089
13200TIP3    H139543   4.683   2.964   3.013
13200TIP3    H239544   4.812   2.939   3.089
13201TIP3   OH239545   2.183   6.124   3.780
13201TIP3    H139546   2.174   6.146   3.687
13201TIP3    H239547   2.124   6.050   3.793
13202TIP3   OH239548   7.740   7.696   6.677
13202TIP3    H139549   7.707   7.669   6.592
13202TIP3    H239550   7.803   7.765   6.658
13203TIP3   OH239551   7.845   4.363   6.135
13203TIP3    H139552   7.899   4.428   6.179
13203TIP3    H239553   7.899   4.330   6.063
13204TIP3   OH239554   3.624   2.102   4.742
13204TIP3    H139555   3.536   2.114   4.706
13204TIP3    H239556   3.675   2.065   4.670
13205TIP3   OH239557   1.981   5.154   2.877
13205TIP3    H139558   1.981   5.250   2.873
13205TIP3    H239559   2.073   5.130   2.886
13206TIP3   OH239560   3.471   5.637   3.155
13206TIP3    H139561   3.458   5.684   3.237
13206TIP3    H239562   3.546   5.580   3.171
13207TIP3   OH239563   4.095   2.829   4.642
13207TIP3    H139564   4.118   2.762   4.578
13207TIP3    H239565   4.010   2.802   4.676
13208TIP3   OH239566   7.922   7.576   2.880
13208TIP3    H139567   7.954   7.660   2.847
13208TIP3    H239568   7.835   7.595   2.914
13209TIP3   OH239569   7.367   2.087   1.294
13209TIP3    H139570   7.331   2.049   1.374
13209TIP3    H239571   7.404   2.171   1.322
13210TIP3   OH239572   1.661   3.055   4.646
13210TIP3    H139573   1.724   3.079   4.578
13210TIP3    H239574   1.712   3.051   4.726
13211TIP3   OH239575   4.202   2.170   5.420
13211TIP3    H139576   4.277   2.210   5.377
13211TIP3    H239577   4.183   2.092   5.368
13212TIP3   OH239578   7.483   3.905   3.503
13212TIP3    H139579   7.531   3.908   3.585
13212TIP3    H239580   7.410   3.845   3.519
13213TIP3   OH239581   2.879   0.463   1.961
13213TIP3    H139582   2.954   0.404   1.971
13213TIP3    H239583   2.807   0.405   1.936
13214TIP3   OH239584   4.242   5.541   2.406
13214TIP3    H139585   4.203   5.462   2.444
13214TIP3    H239586   4.328   5.547   2.447
13215TIP3   OH239587   5.317   4.157   0.404
13215TIP3    H139588   5.314   4.071   0.362
13215TIP3    H239589   5.241   4.203   0.370
13216TIP3   OH239590   4.238   1.543   5.685
13216TIP3    H139591   4.169   1.548   5.751
13216TIP3    H239592   4.195   1.563   5.602
13217TIP3   OH239593   5.773   4.753   1.239
13217TIP3    H139594   5.758   4.822   1.174
13217TIP3    H239595   5.736   4.674   1.199
13218TIP3   OH239596   6.375   3.561   3.698
13218TIP3    H139597   6.324   3.615   3.637
13218TIP3    H239598   6.461   3.552   3.655
13219TIP3   OH239599   5.342   4.086   3.271
13219TIP3    H139600   5.296   4.037   3.340
13219TIP3    H239601   5.316   4.043   3.190
13220TIP3   OH239602   5.321   4.268   6.368
13220TIP3    H139603   5.357   4.180   6.357
13220TIP3    H239604   5.267   4.281   6.290
13221TIP3   OH239605   4.960   0.276   6.217
13221TIP3    H139606   4.919   0.353   6.257
13221TIP3    H239607   4.889   0.233   6.170
13222TIP3   OH239608   4.421   5.840   3.946
13222TIP3    H139609   4.382   5.791   3.874
13222TIP3    H239610   4.347   5.879   3.992
13223TIP3   OH239611   5.141   7.827   5.032
13223TIP3    H139612   5.051   7.812   5.061
13223TIP3    H239613   5.178   7.739   5.021
13224TIP3   OH239614   0.596   7.583   4.357
13224TIP3    H139615   0.509   7.565   4.394
13224TIP3    H239616   0.630   7.655   4.411
13225TIP3   OH239617   7.484   4.319   5.983
13225TIP3    H139618   7.500   4.231   5.949
13225TIP3    H239619   7.463   4.306   6.075
13226TIP3   OH239620   4.743   5.656   5.179
13226TIP3    H139621   4.835   5.685   5.176
13226TIP3    H239622   4.741   5.591   5.249
13227TIP3   OH239623   2.194   6.652   0.621
13227TIP3    H139624   2.238   6.608   0.694
13227TIP3    H239625   2.212   6.745   0.634
13228TIP3   OH239626   3.538   7.028   0.208
13228TIP3    H139627   3.606   7.033   0.275
13228TIP3    H239628   3.517   7.119   0.186
13229TIP3   OH239629   5.774   0.246   0.525
13229TIP3    H139630   5.699   0.210   0.477
13229TIP3    H239631   5.738   0.318   0.576
13230TIP3   OH239632   4.319   7.279   2.892
13230TIP3    H139633   4.271   7.252   2.970
13230TIP3    H239634   4.411   7.276   2.918
13231TIP3   OH239635   2.071   1.907   5.764
13231TIP3    H139636   2.033   1.835   5.814
13231TIP3    H239637   2.147   1.934   5.815
13232TIP3   OH239638   5.713   3.009   3.572
13232TIP3    H139639   5.761   3.018   3.654
13232TIP3    H239640   5.621   3.020   3.596
13233TIP3   OH239641   7.352   5.631   1.259
13233TIP3    H139642   7.297   5.578   1.317
13233TIP3    H239643   7.395   5.693   1.318
13234TIP3   OH239644   6.313   0.572   0.184
13234TIP3    H139645   6.260   0.495   0.161
13234TIP3    H239646   6.391   0.565   0.129
13235TIP3   OH239647   6.168   0.544   6.128
13235TIP3    H139648   6.213   0.589   6.199
13235TIP3    H239649   6.075   0.556   6.146
13236TIP3   OH239650   6.688   1.174   1.491
13236TIP3    H139651   6.659   1.085   1.508
13236TIP3    H239652   6.772   1.181   1.536
13237TIP3   OH239653   2.548   3.973   6.514
13237TIP3    H139654   2.510   4.021   6.441
13237TIP3    H239655   2.477   3.918   6.546
13238TIP3   OH239656   6.975   4.289   6.331
13238TIP3    H139657   6.895   4.299   6.280
13238TIP3    H239658   6.969   4.202   6.370
13239TIP3   OH239659   6.977   1.662   3.696
13239TIP3    H139660   7.041   1.672   3.625
13239TIP3    H239661   7.025   1.688   3.775
13240TIP3   OH239662   0.718   5.985   3.237
13240TIP3    H139663   0.725   5.987   3.332
13240TIP3    H239664   0.731   6.076   3.211
13241TIP3   OH239665   4.107   1.089   2.807
13241TIP3    H139666   4.077   1.148   2.737
13241TIP3    H239667   4.026   1.052   2.843
13242TIP3   OH239668   0.635   7.379   5.594
13242TIP3    H139669   0.595   7.297   5.625
13242TIP3    H239670   0.578   7.409   5.524
13243TIP3   OH239671   1.388   0.730   3.199
13243TIP3    H139672   1.411   0.816   3.233
13243TIP3    H239673   1.305   0.744   3.153
13244TIP3   OH239674   3.765   1.103   1.590
13244TIP3    H139675   3.776   1.192   1.555
13244TIP3    H239676   3.737   1.117   1.680
13245TIP3   OH239677   2.190   4.993   0.122
13245TIP3    H139678   2.153   4.924   0.178
13245TIP3    H239679   2.192   4.955   0.034
13246TIP3   OH239680   5.382   7.075   5.620
13246TIP3    H139681   5.288   7.064   5.635
13246TIP3    H239682   5.391   7.076   5.525
13247TIP3   OH239683   6.656   3.125   6.318
13247TIP3    H139684   6.634   3.037   6.288
13247TIP3    H239685   6.692   3.112   6.406
13248TIP3   OH239686   1.649   7.504   6.782
13248TIP3    H139687   1.635   7.580   6.725
13248TIP3    H239688   1.687   7.438   6.725
13249TIP3   OH239689   6.773   5.460   4.234
13249TIP3    H139690   6.756   5.536   4.290
13249TIP3    H239691   6.727   5.480   4.152
13250TIP3   OH239692   7.545   6.818   5.605
13250TIP3    H139693   7.578   6.879   5.671
13250TIP3    H239694   7.536   6.871   5.526
13251TIP3   OH239695   6.201   7.616   2.104
13251TIP3    H139696   6.238   7.541   2.151
13251TIP3    H239697   6.277   7.668   2.079
13252TIP3   OH239698   7.153   1.230   5.027
13252TIP3    H139699   7.179   1.262   5.113
13252TIP3    H239700   7.181   1.299   4.966
13253TIP3   OH239701   1.513   2.802   2.473
13253TIP3    H139702   1.562   2.880   2.448
13253TIP3    H239703   1.574   2.730   2.457
13254TIP3   OH239704   4.536   4.589   5.472
13254TIP3    H139705   4.601   4.584   5.542
13254TIP3    H239706   4.544   4.505   5.426
13255TIP3   OH239707   6.281   4.156   6.830
13255TIP3    H139708   6.266   4.240   6.873
13255TIP3    H239709   6.224   4.157   6.754
13256TIP3   OH239710   2.832   0.422   1.632
13256TIP3    H139711   2.780   0.501   1.645
13256TIP3    H239712   2.778   0.367   1.574
13257TIP3   OH239713   4.639   3.370   0.100
13257TIP3    H139714   4.697   3.388   0.174
13257TIP3    H239715   4.565   3.429   0.113
13258TIP3   OH239716   3.081   2.100   3.892
13258TIP3    H139717   3.036   2.183   3.876
13258TIP3    H239718   3.013   2.033   3.883
13259TIP3   OH239719   8.202   2.327   0.092
13259TIP3    H139720   8.243   2.259   0.146
13259TIP3    H239721   8.108   2.311   0.099
13260TIP3   OH239722   2.933   1.613   4.202
13260TIP3    H139723   2.912   1.592   4.111
13260TIP3    H239724   3.028   1.603   4.208
13261TIP3   OH239725   0.609   1.778   0.698
13261TIP3    H139726   0.548   1.775   0.772
13261TIP3    H239727   0.650   1.864   0.704
13262TIP3   OH239728   1.272   6.797   4.126
13262TIP3    H139729   1.317   6.773   4.207
13262TIP3    H239730   1.199   6.735   4.120
13263TIP3   OH239731   5.056   4.901   5.423
13263TIP3    H139732   5.123   4.833   5.429
13263TIP3    H239733   5.065   4.951   5.505
13264TIP3   OH239734   8.137   1.041   0.270
13264TIP3    H139735   8.140   1.120   0.324
13264TIP3    H239736   8.223   1.001   0.281
13265TIP3   OH239737   6.163   2.042   3.647
13265TIP3    H139738   6.128   2.116   3.697
13265TIP3    H239739   6.257   2.040   3.669
13266TIP3   OH239740   1.028   4.948   2.662
13266TIP3    H139741   0.960   5.010   2.690
13266TIP3    H239742   1.008   4.932   2.570
13267TIP3   OH239743   0.185   6.909   1.343
13267TIP3    H139744   0.232   6.969   1.285
13267TIP3    H239745   0.115   6.962   1.382
13268TIP3   OH239746   2.537   1.353   2.688
13268TIP3    H139747   2.519   1.346   2.782
13268TIP3    H239748   2.471   1.297   2.647
13269TIP3   OH239749   1.958   6.695   4.866
13269TIP3    H139750   1.960   6.742   4.783
13269TIP3    H239751   2.050   6.687   4.890
13270TIP3   OH239752   0.382   3.165   3.319
13270TIP3    H139753   0.446   3.123   3.377
13270TIP3    H239754   0.370   3.252   3.356
13271TIP3   OH239755   6.871   6.899   5.186
13271TIP3    H139756   6.846   6.896   5.279
13271TIP3    H239757   6.854   6.811   5.154
13272TIP3   OH239758   6.510   4.522   2.939
13272TIP3    H139759   6.558   4.548   2.861
13272TIP3    H239760   6.456   4.448   2.911
13273TIP3   OH239761   6.065   6.221   5.693
13273TIP3    H139762   6.106   6.286   5.751
13273TIP3    H239763   6.135   6.158   5.675
13274TIP3   OH239764   2.510   5.958   1.062
13274TIP3    H139765   2.479   5.937   1.150
13274TIP3    H239766   2.569   6.033   1.074
13275TIP3   OH239767   7.747   0.106   1.691
13275TIP3    H139768   7.677   0.166   1.717
13275TIP3    H239769   7.719   0.071   1.607
13276TIP3   OH239770   1.381   4.044   3.095
13276TIP3    H139771   1.311   4.104   3.071
13276TIP3    H239772   1.347   3.957   3.074
13277TIP3   OH239773   1.739   0.933   3.081
13277TIP3    H139774   1.768   0.873   3.011
13277TIP3    H239775   1.743   1.020   3.041
13278TIP3   OH239776   1.643   4.688   0.065
13278TIP3    H139777   1.645   4.780   0.038
13278TIP3    H239778   1.562   4.654   0.027
13279TIP3   OH239779   5.665   6.685   2.205
13279TIP3    H139780   5.697   6.772   2.227
13279TIP3    H239781   5.708   6.664   2.122
13280TIP3   OH239782   2.230   1.351   2.225
13280TIP3    H139783   2.278   1.430   2.198
13280TIP3    H239784   2.151   1.385   2.267
13281TIP3   OH239785   6.088   2.351   3.485
13281TIP3    H139786   6.031   2.428   3.483
13281TIP3    H239787   6.117   2.345   3.576
13282TIP3   OH239788   7.371   3.858   2.844
13282TIP3    H139789   7.389   3.844   2.751
13282TIP3    H239790   7.282   3.825   2.856
13283TIP3   OH239791   1.357   4.584   2.233
13283TIP3    H139792   1.314   4.643   2.294
13283TIP3    H239793   1.435   4.631   2.203
13284TIP3   OH239794   0.757   0.739   4.251
13284TIP3    H139795   0.692   0.685   4.296
13284TIP3    H239796   0.837   0.686   4.252
13285TIP3   OH239797   6.252   5.212   2.276
13285TIP3    H139798   6.161   5.184   2.270
13285TIP3    H239799   6.250   5.286   2.336
13286TIP3   OH239800   3.388   6.299   4.477
13286TIP3    H139801   3.361   6.360   4.408
13286TIP3    H239802   3.410   6.355   4.552
13287TIP3   OH239803   1.431   6.265   5.569
13287TIP3    H139804   1.390   6.193   5.616
13287TIP3    H239805   1.390   6.344   5.605
13288TIP3   OH239806   2.225   7.617   5.101
13288TIP3    H139807   2.129   7.621   5.109
13288TIP3    H239808   2.250   7.704   5.070
13289TIP3   OH239809   7.465   7.551   2.601
13289TIP3    H139810   7.476   7.638   2.562
13289TIP3    H239811   7.391   7.561   2.662
13290TIP3   OH239812   2.986   0.126   2.197
13290TIP3    H139813   2.894   0.152   2.195
13290TIP3    H239814   3.012   0.119   2.105
13291TIP3   OH239815   0.295   7.385   0.489
13291TIP3    H139816   0.223   7.358   0.432
13291TIP3    H239817   0.369   7.399   0.430
13292TIP3   OH239818   7.978   6.230   2.268
13292TIP3    H139819   8.043   6.286   2.311
13292TIP3    H239820   8.016   6.211   2.182
13293TIP3   OH239821   6.692   3.849   1.047
13293TIP3    H139822   6.628   3.901   0.999
13293TIP3    H239823   6.685   3.761   1.010
13294TIP3   OH239824   5.936   6.961   5.174
13294TIP3    H139825   6.020   6.982   5.133
13294TIP3    H239826   5.871   7.010   5.124
13295TIP3   OH239827   2.698   5.505   1.206
13295TIP3    H139828   2.647   5.505   1.287
13295TIP3    H239829   2.635   5.487   1.137
13296TIP3   OH239830   0.867   6.726   1.859
13296TIP3    H139831   0.870   6.702   1.766
13296TIP3    H239832   0.957   6.716   1.889
13297TIP3   OH239833   3.072   5.531   0.494
13297TIP3    H139834   3.035   5.618   0.512
13297TIP3    H239835   3.048   5.478   0.570
13298TIP3   OH239836   5.893   0.486   5.830
13298TIP3    H139837   5.874   0.406   5.880
13298TIP3    H239838   5.816   0.496   5.774
13299TIP3   OH239839   2.154  -0.024   5.356
13299TIP3    H139840   2.217   0.031   5.309
13299TIP3    H239841   2.090   0.038   5.391
13300TIP3   OH239842   3.557   4.225   5.308
13300TIP3    H139843   3.652   4.237   5.318
13300TIP3    H239844   3.526   4.206   5.396
13301TIP3   OH239845   3.171   4.004   0.096
13301TIP3    H139846   3.262   4.001   0.124
13301TIP3    H239847   3.162   4.086   0.049
13302TIP3   OH239848   6.066   1.379   1.048
13302TIP3    H139849   6.064   1.358   0.955
13302TIP3    H239850   6.120   1.310   1.087
13303TIP3   OH239851   7.933   2.943   2.169
13303TIP3    H139852   8.014   2.936   2.219
13303TIP3    H239853   7.863   2.935   2.234
13304TIP3   OH239854   8.213   5.311   2.328
13304TIP3    H139855   8.262   5.230   2.313
13304TIP3    H239856   8.226   5.329   2.421
13305TIP3   OH239857   1.540   1.107   2.698
13305TIP3    H139858   1.527   1.024   2.653
13305TIP3    H239859   1.547   1.083   2.791
13306TIP3   OH239860   0.593   3.740   4.919
13306TIP3    H139861   0.646   3.684   4.862
13306TIP3    H239862   0.537   3.679   4.967
13307TIP3   OH239863   0.710   3.265   2.395
13307TIP3    H139864   0.683   3.321   2.322
13307TIP3    H239865   0.629   3.243   2.440
13308TIP3   OH239866   3.930   4.460   1.480
13308TIP3    H139867   3.837   4.482   1.468
13308TIP3    H239868   3.933   4.365   1.473
13309TIP3   OH239869   0.332   0.861   4.249
13309TIP3    H139870   0.385   0.814   4.314
13309TIP3    H239871   0.273   0.915   4.300
13310TIP3   OH239872   2.042   4.048   3.832
13310TIP3    H139873   1.987   4.051   3.753
13310TIP3    H239874   2.126   4.083   3.805
13311TIP3   OH239875   6.631   5.169   6.611
13311TIP3    H139876   6.701   5.108   6.633
13311TIP3    H239877   6.676   5.244   6.573
13312TIP3   OH239878   7.792   3.698   5.055
13312TIP3    H139879   7.867   3.693   4.995
13312TIP3    H239880   7.731   3.633   5.021
13313TIP3   OH239881   0.161   5.147   4.956
13313TIP3    H139882   0.217   5.093   4.901
13313TIP3    H239883   0.187   5.124   5.046
13314TIP3   OH239884   0.440   4.682   6.452
13314TIP3    H139885   0.446   4.707   6.545
13314TIP3    H239886   0.436   4.765   6.405
13315TIP3   OH239887   5.936   7.710   4.558
13315TIP3    H139888   6.018   7.744   4.596
13315TIP3    H239889   5.869   7.736   4.621
13316TIP3   OH239890   1.929   4.236   4.000
13316TIP3    H139891   1.964   4.163   3.949
13316TIP3    H239892   1.945   4.212   4.091
13317TIP3   OH239893   7.860   2.825   2.742
13317TIP3    H139894   7.815   2.766   2.681
13317TIP3    H239895   7.874   2.905   2.691
13318TIP3   OH239896   7.452   4.604   2.141
13318TIP3    H139897   7.445   4.514   2.109
13318TIP3    H239898   7.361   4.632   2.155
13319TIP3   OH239899   4.559   5.335   0.022
13319TIP3    H139900   4.640   5.284   0.027
13319TIP3    H239901   4.495   5.274  -0.017
13320TIP3   OH239902   5.000   7.139   3.884
13320TIP3    H139903   4.972   7.199   3.953
13320TIP3    H239904   5.092   7.162   3.869
13321TIP3   OH239905   5.048   5.718   2.657
13321TIP3    H139906   5.078   5.763   2.736
13321TIP3    H239907   5.044   5.786   2.590
13322TIP3   OH239908   1.906   6.960   2.892
13322TIP3    H139909   1.879   7.016   2.818
13322TIP3    H239910   1.824   6.936   2.935
13323TIP3   OH239911   6.044   7.313   1.976
13323TIP3    H139912   6.017   7.269   1.895
13323TIP3    H239913   6.018   7.404   1.963
13324TIP3   OH239914   4.163   7.142   4.843
13324TIP3    H139915   4.121   7.071   4.794
13324TIP3    H239916   4.192   7.204   4.776
13325TIP3   OH239917   1.788   7.490   4.322
13325TIP3    H139918   1.692   7.493   4.317
13325TIP3    H239919   1.814   7.581   4.334
13326TIP3   OH239920   1.646   6.411   2.477
13326TIP3    H139921   1.649   6.446   2.387
13326TIP3    H239922   1.628   6.318   2.466
13327TIP3   OH239923   0.816   7.853   5.638
13327TIP3    H139924   0.803   7.767   5.677
13327TIP3    H239925   0.814   7.914   5.711
13328TIP3   OH239926   0.997   2.255   1.581
13328TIP3    H139927   0.933   2.258   1.652
13328TIP3    H239928   1.082   2.263   1.625
13329TIP3   OH239929   5.620   3.740   0.058
13329TIP3    H139930   5.668   3.744   0.141
13329TIP3    H239931   5.617   3.831   0.028
13330TIP3   OH239932   7.145   6.614   5.682
13330TIP3    H139933   7.217   6.659   5.727
13330TIP3    H239934   7.104   6.561   5.750
13331TIP3   OH239935   2.844   5.825   0.211
13331TIP3    H139936   2.769   5.871   0.174
13331TIP3    H239937   2.837   5.840   0.306
13332TIP3   OH239938   1.294   2.110   3.733
13332TIP3    H139939   1.280   2.038   3.794
13332TIP3    H239940   1.234   2.094   3.661
13333TIP3   OH239941   3.718   5.133   4.092
13333TIP3    H139942   3.645   5.077   4.065
13333TIP3    H239943   3.680   5.220   4.100
13334TIP3   OH239944   2.174   0.685   5.392
13334TIP3    H139945   2.083   0.712   5.409
13334TIP3    H239946   2.165   0.608   5.336
13335TIP3   OH239947   5.564   1.656   6.340
13335TIP3    H139948   5.615   1.725   6.381
13335TIP3    H239949   5.526   1.697   6.262
13336TIP3   OH239950   5.582   3.570   6.010
13336TIP3    H139951   5.634   3.633   6.061
13336TIP3    H239952   5.645   3.531   5.949
13337TIP3   OH239953   7.483   2.805   4.968
13337TIP3    H139954   7.513   2.728   4.919
13337TIP3    H239955   7.389   2.810   4.951
13338TIP3   OH239956   4.125   2.583   1.021
13338TIP3    H139957   4.181   2.513   1.056
13338TIP3    H239958   4.184   2.638   0.970
13339TIP3   OH239959   4.082   7.039   5.732
13339TIP3    H139960   4.037   6.955   5.719
13339TIP3    H239961   4.012   7.104   5.731
13340TIP3   OH239962   5.862   4.461   2.936
13340TIP3    H139963   5.898   4.459   2.848
13340TIP3    H239964   5.850   4.554   2.955
13341TIP3   OH239965   4.966   7.489   0.829
13341TIP3    H139966   4.921   7.407   0.848
13341TIP3    H239967   4.915   7.529   0.759
13342TIP3   OH239968   4.969   5.204   2.801
13342TIP3    H139969   4.984   5.298   2.793
13342TIP3    H239970   4.957   5.190   2.895
13343TIP3   OH239971   1.802   3.224   5.121
13343TIP3    H139972   1.759   3.186   5.198
13343TIP3    H239973   1.895   3.223   5.142
13344TIP3   OH239974   6.350   1.794   1.419
13344TIP3    H139975   6.419   1.757   1.363
13344TIP3    H239976   6.357   1.889   1.408
13345TIP3   OH239977   7.261   0.243   2.253
13345TIP3    H139978   7.246   0.267   2.344
13345TIP3    H239979   7.241   0.149   2.249
13346TIP3   OH239980   2.407   5.309   2.084
13346TIP3    H139981   2.391   5.228   2.133
13346TIP3    H239982   2.322   5.352   2.080
13347TIP3   OH239983   7.351   3.433   2.390
13347TIP3    H139984   7.292   3.488   2.442
13347TIP3    H239985   7.431   3.485   2.382
13348TIP3   OH239986   8.314   0.615   1.547
13348TIP3    H139987   8.302   0.546   1.482
13348TIP3    H239988   8.261   0.688   1.515
13349TIP3   OH239989   4.578   1.038   0.942
13349TIP3    H139990   4.503   1.075   0.895
13349TIP3    H239991   4.595   1.100   1.013
13350TIP3   OH239992   5.666   4.242   5.713
13350TIP3    H139993   5.709   4.270   5.632
13350TIP3    H239994   5.685   4.312   5.776
13351TIP3   OH239995   4.338   2.659   1.699
13351TIP3    H139996   4.412   2.671   1.759
13351TIP3    H239997   4.338   2.565   1.679
13352TIP3   OH239998   0.569   5.543   1.179
13352TIP3    H139999   0.590   5.451   1.167
13352TIP3    H240000   0.652   5.584   1.204
13353TIP3   OH240001   4.670   7.738   1.115
13353TIP3    H140002   4.610   7.723   1.188
13353TIP3    H240003   4.714   7.654   1.102
13354TIP3   OH240004   4.350   6.068   5.921
13354TIP3    H140005   4.306   6.112   5.848
13354TIP3    H240006   4.443   6.092   5.911
13355TIP3   OH240007   6.929   3.660   3.236
13355TIP3    H140008   6.847   3.619   3.209
13355TIP3    H240009   6.908   3.703   3.319
13356TIP3   OH240010   3.129   5.846   0.548
13356TIP3    H140011   3.107   5.933   0.514
13356TIP3    H240012   3.074   5.837   0.626
13357TIP3   OH240013   4.265   5.499   6.676
13357TIP3    H140014   4.334   5.565   6.673
13357TIP3    H240015   4.270   5.463   6.765
13358TIP3   OH240016   6.440   2.725   0.951
13358TIP3    H140017   6.403   2.687   1.031
13358TIP3    H240018   6.465   2.649   0.898
13359TIP3   OH240019   1.957   3.610   4.101
13359TIP3    H140020   1.885   3.632   4.042
13359TIP3    H240021   1.915   3.594   4.186
13360TIP3   OH240022   2.847   7.293   1.805
13360TIP3    H140023   2.876   7.312   1.894
13360TIP3    H240024   2.917   7.326   1.750
13361TIP3   OH240025   5.192   0.267   0.722
13361TIP3    H140026   5.259   0.335   0.717
13361TIP3    H240027   5.155   0.276   0.810
13362TIP3   OH240028   5.427   6.863   1.496
13362TIP3    H140029   5.488   6.928   1.460
13362TIP3    H240030   5.353   6.915   1.527
13363TIP3   OH240031   4.008   5.338   0.720
13363TIP3    H140032   3.924   5.318   0.761
13363TIP3    H240033   4.067   5.270   0.753
13364TIP3   OH240034   6.636   5.260   4.395
13364TIP3    H140035   6.686   5.306   4.329
13364TIP3    H240036   6.553   5.307   4.401
13365TIP3   OH240037   8.080   2.968   4.010
13365TIP3    H140038   8.050   3.057   3.991
13365TIP3    H240039   8.004   2.926   4.050
13366TIP3   OH240040   0.513   1.108   2.705
13366TIP3    H140041   0.594   1.072   2.669
13366TIP3    H240042   0.445   1.051   2.670
13367TIP3   OH240043   1.560   6.286   1.129
13367TIP3    H140044   1.577   6.376   1.102
13367TIP3    H240045   1.511   6.294   1.211
13368TIP3   OH240046   3.369   6.696   2.738
13368TIP3    H140047   3.294   6.661   2.786
13368TIP3    H240048   3.407   6.762   2.797
13369TIP3   OH240049   3.484   2.704   5.539
13369TIP3    H140050   3.560   2.753   5.569
13369TIP3    H240051   3.447   2.666   5.619
13370TIP3   OH240052   5.873   7.474   1.265
13370TIP3    H140053   5.820   7.537   1.217
13370TIP3    H240054   5.868   7.393   1.213
13371TIP3   OH240055   4.234   1.996   5.830
13371TIP3    H140056   4.189   1.953   5.757
13371TIP3    H240057   4.229   2.089   5.810
13372TIP3   OH240058   3.337   4.407   4.301
13372TIP3    H140059   3.315   4.315   4.284
13372TIP3    H240060   3.393   4.404   4.378
13373TIP3   OH240061   6.335   0.652   6.758
13373TIP3    H140062   6.332   0.570   6.707
13373TIP3    H240063   6.252   0.695   6.738
13374TIP3   OH240064   7.042   1.938   6.634
13374TIP3    H140065   7.137   1.946   6.623
13374TIP3    H240066   7.005   1.996   6.567
13375TIP3   OH240067   4.750   4.059   1.098
13375TIP3    H140068   4.815   4.086   1.164
13375TIP3    H240069   4.764   4.120   1.025
13376TIP3   OH240070   8.174   4.091   0.628
13376TIP3    H140071   8.264   4.121   0.643
13376TIP3    H240072   8.124   4.172   0.615
13377TIP3   OH240073   6.468   5.989   3.022
13377TIP3    H140074   6.502   5.904   3.047
13377TIP3    H240075   6.544   6.047   3.024
13378TIP3   OH240076   6.141   2.787   0.031
13378TIP3    H140077   6.167   2.879   0.022
13378TIP3    H240078   6.109   2.763  -0.056
13379TIP3   OH240079   5.466   1.848   3.054
13379TIP3    H140080   5.554   1.883   3.063
13379TIP3    H240081   5.408   1.922   3.074
13380TIP3   OH240082   2.508   5.724   4.857
13380TIP3    H140083   2.567   5.699   4.928
13380TIP3    H240084   2.442   5.779   4.899
13381TIP3   OH240085   1.466   1.623   6.610
13381TIP3    H140086   1.460   1.554   6.677
13381TIP3    H240087   1.486   1.576   6.529
13382TIP3   OH240088   5.186   6.462   0.771
13382TIP3    H140089   5.235   6.498   0.845
13382TIP3    H240090   5.223   6.506   0.694
13383TIP3   OH240091   5.159   1.710   3.430
13383TIP3    H140092   5.238   1.666   3.400
13383TIP3    H240093   5.115   1.738   3.350
13384TIP3   OH240094   2.758   4.402   4.678
13384TIP3    H140095   2.767   4.342   4.605
13384TIP3    H240096   2.841   4.395   4.725
13385TIP3   OH240097   0.172   3.365   5.011
13385TIP3    H140098   0.126   3.377   5.094
13385TIP3    H240099   0.186   3.271   5.005
13386TIP3   OH240100   4.453   2.233   5.386
13386TIP3    H140101   4.504   2.252   5.465
13386TIP3    H240102   4.506   2.269   5.314
13387TIP3   OH240103   3.583   2.858   6.033
13387TIP3    H140104   3.497   2.822   6.012
13387TIP3    H240105   3.645   2.789   6.009
13388TIP3   OH240106   4.309   2.944   1.956
13388TIP3    H140107   4.260   2.950   2.038
13388TIP3    H240108   4.242   2.932   1.889
13389TIP3   OH240109   7.260   2.768   5.817
13389TIP3    H140110   7.212   2.739   5.739
13389TIP3    H240111   7.299   2.851   5.791
13390TIP3   OH240112   4.019   4.943   4.342
13390TIP3    H140113   3.969   4.920   4.421
13390TIP3    H240114   4.051   4.860   4.309
13391TIP3   OH240115   5.027   6.991   4.678
13391TIP3    H140116   5.050   6.995   4.585
13391TIP3    H240117   4.989   6.905   4.690
13392TIP3   OH240118   3.002   3.870   6.047
13392TIP3    H140119   2.938   3.898   5.982
13392TIP3    H240120   3.070   3.826   5.996
13393TIP3   OH240121   7.743   0.377   3.378
13393TIP3    H140122   7.703   0.411   3.459
13393TIP3    H240123   7.705   0.431   3.308
13394TIP3   OH240124   7.275   4.685   5.021
13394TIP3    H140125   7.232   4.709   4.939
13394TIP3    H240126   7.306   4.769   5.057
13395TIP3   OH240127   3.572   4.437   1.878
13395TIP3    H140128   3.553   4.436   1.971
13395TIP3    H240129   3.505   4.493   1.839
13396TIP3   OH240130   3.087   7.051   6.675
13396TIP3    H140131   2.999   7.014   6.683
13396TIP3    H240132   3.084   7.103   6.594
13397TIP3   OH240133   5.824   4.750   0.478
13397TIP3    H140134   5.840   4.690   0.405
13397TIP3    H240135   5.812   4.835   0.436
13398TIP3   OH240136   7.937   0.213   3.565
13398TIP3    H140137   7.943   0.304   3.593
13398TIP3    H240138   7.943   0.218   3.469
13399TIP3   OH240139   1.425   6.435   6.351
13399TIP3    H140140   1.471   6.469   6.274
13399TIP3    H240141   1.365   6.369   6.315
13400TIP3   OH240142   1.272   4.267   4.476
13400TIP3    H140143   1.293   4.311   4.394
13400TIP3    H240144   1.226   4.187   4.449
13401TIP3   OH240145   0.628   1.938   1.270
13401TIP3    H140146   0.572   1.872   1.311
13401TIP3    H240147   0.581   2.021   1.284
13402TIP3   OH240148   6.663   2.902   1.914
13402TIP3    H140149   6.711   2.867   1.989
13402TIP3    H240150   6.684   2.842   1.842
13403TIP3   OH240151   4.091   3.305   2.663
13403TIP3    H140152   4.087   3.249   2.741
13403TIP3    H240153   4.082   3.245   2.589
13404TIP3   OH240154   3.093   1.458   3.327
13404TIP3    H140155   3.085   1.493   3.415
13404TIP3    H240156   3.090   1.363   3.338
13405TIP3   OH240157   3.277   1.249   0.422
13405TIP3    H140158   3.301   1.166   0.464
13405TIP3    H240159   3.225   1.222   0.346
13406TIP3   OH240160   2.830   6.907   6.711
13406TIP3    H140161   2.810   6.927   6.802
13406TIP3    H240162   2.817   6.812   6.704
13407TIP3   OH240163   7.069   6.080   6.792
13407TIP3    H140164   7.006   6.087   6.721
13407TIP3    H240165   7.153   6.104   6.752
13408TIP3   OH240166   5.118   7.301   2.000
13408TIP3    H140167   5.184   7.284   2.066
13408TIP3    H240168   5.044   7.245   2.024
13409TIP3   OH240169   7.118   3.559   1.972
13409TIP3    H140170   7.178   3.485   1.976
13409TIP3    H240171   7.048   3.530   1.913
13410TIP3   OH240172   2.180   2.214   3.468
13410TIP3    H140173   2.169   2.261   3.385
13410TIP3    H240174   2.202   2.283   3.531
13411TIP3   OH240175   5.701   6.887   4.606
13411TIP3    H140176   5.702   6.897   4.510
13411TIP3    H240177   5.733   6.798   4.622
13412TIP3   OH240178   6.434   4.903   6.235
13412TIP3    H140179   6.445   4.830   6.175
13412TIP3    H240180   6.519   4.911   6.279
13413TIP3   OH240181   1.319   1.734   4.864
13413TIP3    H140182   1.353   1.673   4.798
13413TIP3    H240183   1.224   1.733   4.851
13414TIP3   OH240184   6.101   5.503   4.354
13414TIP3    H140185   6.031   5.510   4.288
13414TIP3    H240186   6.079   5.568   4.419
13415TIP3   OH240187   5.171   6.201   0.831
13415TIP3    H140188   5.078   6.180   0.831
13415TIP3    H240189   5.174   6.293   0.803
13416TIP3   OH240190   5.914   6.094   1.647
13416TIP3    H140191   5.839   6.086   1.587
13416TIP3    H240192   5.873   6.110   1.733
13417TIP3   OH240193   2.158   5.555   0.625
13417TIP3    H140194   2.201   5.641   0.628
13417TIP3    H240195   2.218   5.500   0.574
13418TIP3   OH240196   4.694   1.574   2.754
13418TIP3    H140197   4.693   1.482   2.779
13418TIP3    H240198   4.602   1.598   2.745
13419TIP3   OH240199   1.734   1.484   3.735
13419TIP3    H140200   1.699   1.537   3.806
13419TIP3    H240201   1.659   1.436   3.701
13420TIP3   OH240202   7.253   5.817   2.713
13420TIP3    H140203   7.295   5.893   2.672
13420TIP3    H240204   7.160   5.831   2.697
13421TIP3   OH240205   8.188   2.123   4.828
13421TIP3    H140206   8.160   2.061   4.760
13421TIP3    H240207   8.280   2.101   4.844
13422TIP3   OH240208   8.284   4.045   2.971
13422TIP3    H140209   8.208   3.991   2.992
13422TIP3    H240210   8.248   4.132   2.955
13423TIP3   OH240211   5.871   1.045   4.636
13423TIP3    H140212   5.928   1.073   4.565
13423TIP3    H240213   5.921   0.977   4.682
13424TIP3   OH240214   2.051   4.526   2.760
13424TIP3    H140215   2.052   4.588   2.833
13424TIP3    H240216   1.967   4.482   2.767
13425TIP3   OH240217   1.153   6.873   1.862
13425TIP3    H140218   1.141   6.966   1.884
13425TIP3    H240219   1.169   6.873   1.768
13426TIP3   OH240220   1.479   1.793   4.454
13426TIP3    H140221   1.574   1.785   4.446
13426TIP3    H240222   1.446   1.706   4.430
13427TIP3   OH240223   7.655   2.229   6.540
13427TIP3    H140224   7.719   2.301   6.537
13427TIP3    H240225   7.708   2.152   6.562
13428TIP3   OH240226   1.908   0.338   5.790
13428TIP3    H140227   1.911   0.264   5.851
13428TIP3    H240228   1.998   0.372   5.789
13429TIP3   OH240229   6.773   6.644   2.870
13429TIP3    H140230   6.713   6.658   2.943
13429TIP3    H240231   6.739   6.565   2.827
13430TIP3   OH240232   3.896   5.815   4.523
13430TIP3    H140233   3.853   5.862   4.452
13430TIP3    H240234   3.958   5.878   4.560
13431TIP3   OH240235   6.814   6.171   5.665
13431TIP3    H140236   6.876   6.105   5.633
13431TIP3    H240237   6.854   6.255   5.642
13432TIP3   OH240238   0.335   2.883   2.424
13432TIP3    H140239   0.269   2.869   2.357
13432TIP3    H240240   0.292   2.938   2.490
13433TIP3   OH240241   7.966   4.342   3.857
13433TIP3    H140242   7.943   4.284   3.784
13433TIP3    H240243   7.942   4.430   3.826
13434TIP3   OH240244   7.196   1.817   3.127
13434TIP3    H140245   7.130   1.845   3.063
13434TIP3    H240246   7.160   1.738   3.166
13435TIP3   OH240247   1.433   3.976   6.118
13435TIP3    H140248   1.523   3.949   6.099
13435TIP3    H240249   1.440   4.027   6.199
13436TIP3   OH240250   0.914   2.319   3.289
13436TIP3    H140251   0.964   2.397   3.266
13436TIP3    H240252   0.964   2.246   3.253
13437TIP3   OH240253   5.311   6.451   2.310
13437TIP3    H140254   5.302   6.485   2.221
13437TIP3    H240255   5.377   6.507   2.350
13438TIP3   OH240256   5.924   5.943   5.993
13438TIP3    H140257   5.964   6.030   6.003
13438TIP3    H240258   5.921   5.908   6.082
13439TIP3   OH240259   2.582   4.598   2.977
13439TIP3    H140260   2.542   4.560   2.899
13439TIP3    H240261   2.627   4.677   2.946
13440TIP3   OH240262   1.649   1.475   1.997
13440TIP3    H140263   1.705   1.415   1.948
13440TIP3    H240264   1.560   1.448   1.976
13441TIP3   OH240265   3.833   4.171   3.567
13441TIP3    H140266   3.745   4.148   3.537
13441TIP3    H240267   3.876   4.207   3.490
13442TIP3   OH240268   5.153   4.723   2.356
13442TIP3    H140269   5.072   4.713   2.405
13442TIP3    H240270   5.220   4.736   2.422
13443TIP3   OH240271   4.144   2.761   3.109
13443TIP3    H140272   4.150   2.668   3.133
13443TIP3    H240273   4.125   2.806   3.192
13444TIP3   OH240274   7.813   7.437   0.255
13444TIP3    H140275   7.903   7.435   0.288
13444TIP3    H240276   7.761   7.398   0.325
13445TIP3   OH240277   3.356   2.169   5.124
13445TIP3    H140278   3.321   2.158   5.035
13445TIP3    H240279   3.283   2.144   5.181
13446TIP3   OH240280   0.231   1.968   3.010
13446TIP3    H140281   0.288   1.891   3.002
13446TIP3    H240282   0.181   1.970   2.929
13447TIP3   OH240283   5.968   3.723   3.255
13447TIP3    H140284   5.987   3.631   3.239
13447TIP3    H240285   5.888   3.723   3.308
13448TIP3   OH240286   4.980   4.592   5.764
13448TIP3    H140287   4.946   4.608   5.676
13448TIP3    H240288   4.961   4.673   5.812
13449TIP3   OH240289   6.263   3.447   2.853
13449TIP3    H140290   6.356   3.470   2.858
13449TIP3    H240291   6.231   3.493   2.775
13450TIP3   OH240292   0.361   6.693   3.672
13450TIP3    H140293   0.436   6.720   3.620
13450TIP3    H240294   0.397   6.678   3.759
13451TIP3   OH240295   6.375   5.568   1.985
13451TIP3    H140296   6.463   5.594   1.957
13451TIP3    H240297   6.374   5.584   2.079
13452TIP3   OH240298   3.267   3.274   2.805
13452TIP3    H140299   3.324   3.284   2.881
13452TIP3    H240300   3.324   3.288   2.730
13453TIP3   OH240301   5.842   0.344   1.790
13453TIP3    H140302   5.842   0.302   1.877
13453TIP3    H240303   5.772   0.409   1.796
13454TIP3   OH240304   3.977   0.766   5.946
13454TIP3    H140305   3.944   0.724   5.866
13454TIP3    H240306   4.031   0.839   5.914
13455TIP3   OH240307   7.820   2.766   4.163
13455TIP3    H140308   7.820   2.740   4.256
13455TIP3    H240309   7.884   2.708   4.122
13456TIP3   OH240310   8.193   5.807   0.618
13456TIP3    H140311   8.134   5.752   0.670
13456TIP3    H240312   8.176   5.896   0.649
13457TIP3   OH240313   3.058   3.862   0.653
13457TIP3    H140314   3.041   3.800   0.724
13457TIP3    H240315   3.010   3.941   0.679
13458TIP3   OH240316   5.452   3.689   2.610
13458TIP3    H140317   5.518   3.631   2.571
13458TIP3    H240318   5.457   3.769   2.558
13459TIP3   OH240319   0.205   4.354   5.272
13459TIP3    H140320   0.235   4.283   5.216
13459TIP3    H240321   0.190   4.312   5.357
13460TIP3   OH240322   1.773   1.494   0.022
13460TIP3    H140323   1.726   1.433  -0.035
13460TIP3    H240324   1.730   1.483   0.107
13461TIP3   OH240325   8.314   4.988   3.660
13461TIP3    H140326   8.266   4.961   3.738
13461TIP3    H240327   8.331   5.081   3.674
13462TIP3   OH240328   6.887   5.016   3.910
13462TIP3    H140329   6.978   5.034   3.887
13462TIP3    H240330   6.839   5.096   3.887
13463TIP3   OH240331   4.785   6.845   0.124
13463TIP3    H140332   4.757   6.936   0.112
13463TIP3    H240333   4.705   6.794   0.112
13464TIP3   OH240334   0.075   2.489   3.422
13464TIP3    H140335   0.088   2.583   3.407
13464TIP3    H240336   0.064   2.482   3.517
13465TIP3   OH240337   7.947   1.249   6.167
13465TIP3    H140338   7.895   1.197   6.106
13465TIP3    H240339   8.009   1.296   6.112
13466TIP3   OH240340   0.807   6.383   5.183
13466TIP3    H140341   0.849   6.461   5.145
13466TIP3    H240342   0.717   6.387   5.152
13467TIP3   OH240343   5.071   7.678   1.417
13467TIP3    H140344   5.000   7.741   1.428
13467TIP3    H240345   5.110   7.701   1.332
13468TIP3   OH240346   8.258   5.472   3.484
13468TIP3    H140347   8.243   5.566   3.475
13468TIP3    H240348   8.195   5.432   3.424
13469TIP3   OH240349   0.512   2.170   1.354
13469TIP3    H140350   0.433   2.224   1.356
13469TIP3    H240351   0.580   2.228   1.320
13470TIP3   OH240352   0.106   1.180   3.649
13470TIP3    H140353   0.165   1.119   3.694
13470TIP3    H240354   0.163   1.229   3.590
13471TIP3   OH240355   2.581   7.589   4.088
13471TIP3    H140356   2.630   7.550   4.161
13471TIP3    H240357   2.490   7.564   4.104
13472TIP3   OH240358   3.487   0.648   6.503
13472TIP3    H140359   3.479   0.734   6.463
13472TIP3    H240360   3.551   0.660   6.573
13473TIP3   OH240361   3.026   2.275   1.083
13473TIP3    H140362   3.065   2.208   1.138
13473TIP3    H240363   2.979   2.227   1.015
13474TIP3   OH240364   6.347   1.150   0.199
13474TIP3    H140365   6.310   1.075   0.247
13474TIP3    H240366   6.322   1.226   0.251
13475TIP3   OH240367   5.687   5.427   1.037
13475TIP3    H140368   5.595   5.405   1.021
13475TIP3    H240369   5.717   5.465   0.954
13476TIP3   OH240370   1.838   3.534   3.841
13476TIP3    H140371   1.844   3.489   3.757
13476TIP3    H240372   1.832   3.464   3.906
13477TIP3   OH240373   6.683   6.328   5.866
13477TIP3    H140374   6.624   6.354   5.937
13477TIP3    H240375   6.730   6.252   5.900
13478TIP3   OH240376   4.589   2.377   4.928
13478TIP3    H140377   4.526   2.372   5.000
13478TIP3    H240378   4.535   2.392   4.851
13479TIP3   OH240379   0.527   3.084   1.066
13479TIP3    H140380   0.435   3.090   1.039
13479TIP3    H240381   0.562   3.171   1.049
13480TIP3   OH240382   8.195   2.790   4.955
13480TIP3    H140383   8.194   2.787   4.859
13480TIP3    H240384   8.178   2.882   4.976
13481TIP3   OH240385   5.382   5.403   0.985
13481TIP3    H140386   5.365   5.467   1.054
13481TIP3    H240387   5.326   5.429   0.913
13482TIP3   OH240388   0.928   1.158   6.548
13482TIP3    H140389   0.987   1.194   6.482
13482TIP3    H240390   0.865   1.228   6.564
13483TIP3   OH240391   1.004   4.393   1.737
13483TIP3    H140392   0.933   4.457   1.727
13483TIP3    H240393   1.083   4.446   1.748
13484TIP3   OH240394   2.583   3.029   5.745
13484TIP3    H140395   2.554   3.061   5.831
13484TIP3    H240396   2.646   2.960   5.765
13485TIP3   OH240397   0.038   3.304   0.245
13485TIP3    H140398   0.089   3.357   0.184
13485TIP3    H240399   0.086   3.308   0.328
13486TIP3   OH240400   3.410   7.229   0.029
13486TIP3    H140401   3.356   7.295   0.072
13486TIP3    H240402   3.356   7.150   0.028
13487TIP3   OH240403   4.850   5.451   2.577
13487TIP3    H140404   4.945   5.465   2.577
13487TIP3    H240405   4.827   5.445   2.484
13488TIP3   OH240406   4.084   2.533   5.819
13488TIP3    H140407   4.000   2.504   5.785
13488TIP3    H240408   4.137   2.550   5.741
13489TIP3   OH240409   7.076   0.987   6.057
13489TIP3    H140410   7.059   0.906   6.105
13489TIP3    H240411   7.150   0.966   6.000
13490TIP3   OH240412   2.355   1.011   3.830
13490TIP3    H140413   2.291   1.081   3.843
13490TIP3    H240414   2.306   0.931   3.850
13491TIP3   OH240415   5.447   3.118   0.726
13491TIP3    H140416   5.447   3.140   0.819
13491TIP3    H240417   5.534   3.143   0.694
13492TIP3   OH240418   7.047   4.013   6.240
13492TIP3    H140419   6.958   3.980   6.237
13492TIP3    H240420   7.102   3.936   6.229
13493TIP3   OH240421   7.065   7.809   4.256
13493TIP3    H140422   6.972   7.817   4.232
13493TIP3    H240423   7.086   7.717   4.240
13494TIP3   OH240424   4.116   4.106   4.912
13494TIP3    H140425   4.086   4.197   4.910
13494TIP3    H240426   4.039   4.054   4.888
13495TIP3   OH240427   1.578   0.330   6.233
13495TIP3    H140428   1.673   0.338   6.232
13495TIP3    H240429   1.546   0.420   6.238
13496TIP3   OH240430   5.164   3.197   1.944
13496TIP3    H140431   5.254   3.229   1.936
13496TIP3    H240432   5.116   3.270   1.983
13497TIP3   OH240433   2.496   5.504   1.758
13497TIP3    H140434   2.403   5.482   1.753
13497TIP3    H240435   2.539   5.421   1.780
13498TIP3   OH240436   1.774   0.105   3.635
13498TIP3    H140437   1.786   0.189   3.592
13498TIP3    H240438   1.861   0.064   3.630
13499TIP3   OH240439   0.420   5.722   3.562
13499TIP3    H140440   0.399   5.701   3.471
13499TIP3    H240441   0.422   5.818   3.564
13500TIP3   OH240442   2.764   6.983   1.209
13500TIP3    H140443   2.753   6.966   1.302
13500TIP3    H240444   2.710   6.917   1.166
13501TIP3   OH240445   4.915   0.464   5.228
13501TIP3    H140446   4.863   0.448   5.149
13501TIP3    H240447   5.002   0.485   5.195
13502TIP3   OH240448   7.836   2.513   3.088
13502TIP3    H140449   7.784   2.447   3.133
13502TIP3    H240450   7.800   2.515   2.999
13503TIP3   OH240451   1.695   2.693   2.793
13503TIP3    H140452   1.682   2.692   2.698
13503TIP3    H240453   1.789   2.702   2.804
13504TIP3   OH240454   1.033   5.565   1.261
13504TIP3    H140455   0.939   5.562   1.277
13504TIP3    H240456   1.049   5.494   1.199
13505TIP3   OH240457   3.095   1.984   1.668
13505TIP3    H140458   3.022   2.031   1.710
13505TIP3    H240459   3.160   1.974   1.737
13506TIP3   OH240460   2.142   4.300   3.448
13506TIP3    H140461   2.088   4.351   3.387
13506TIP3    H240462   2.231   4.311   3.416
13507TIP3   OH240463   1.673   0.576   1.045
13507TIP3    H140464   1.582   0.549   1.047
13507TIP3    H240465   1.674   0.655   0.990
13508TIP3   OH240466   1.924   1.291   3.810
13508TIP3    H140467   1.848   1.346   3.825
13508TIP3    H240468   1.999   1.349   3.823
13509TIP3   OH240469   7.935   7.236   5.919
13509TIP3    H140470   7.968   7.321   5.891
13509TIP3    H240471   7.929   7.184   5.839
13510TIP3   OH240472   7.062   6.255   3.593
13510TIP3    H140473   7.140   6.199   3.599
13510TIP3    H240474   7.088   6.326   3.533
13511TIP3   OH240475   7.145   2.225   2.407
13511TIP3    H140476   7.230   2.219   2.362
13511TIP3    H240477   7.082   2.244   2.337
13512TIP3   OH240478   2.406   0.164   6.760
13512TIP3    H140479   2.342   0.204   6.702
13512TIP3    H240480   2.476   0.229   6.768
13513TIP3   OH240481   3.307   2.346   0.570
13513TIP3    H140482   3.285   2.306   0.654
13513TIP3    H240483   3.402   2.334   0.562
13514TIP3   OH240484   3.575   6.603   0.935
13514TIP3    H140485   3.662   6.583   0.970
13514TIP3    H240486   3.545   6.520   0.897
13515TIP3   OH240487   6.357   5.892   5.223
13515TIP3    H140488   6.390   5.896   5.312
13515TIP3    H240489   6.270   5.931   5.228
13516TIP3   OH240490   5.814   6.412   6.356
13516TIP3    H140491   5.842   6.494   6.397
13516TIP3    H240492   5.723   6.401   6.383
13517TIP3   OH240493   4.493   1.610   3.069
13517TIP3    H140494   4.463   1.545   3.005
13517TIP3    H240495   4.453   1.692   3.041
13518TIP3   OH240496   2.907   7.773   2.049
13518TIP3    H140497   2.941   7.777   2.138
13518TIP3    H240498   2.975   7.728   1.999
13519TIP3   OH240499   6.797   4.181   3.467
13519TIP3    H140500   6.706   4.164   3.495
13519TIP3    H240501   6.845   4.190   3.549
13520TIP3   OH240502   1.723   6.438   1.327
13520TIP3    H140503   1.724   6.443   1.232
13520TIP3    H240504   1.790   6.373   1.349
13521TIP3   OH240505   4.337   0.210   4.996
13521TIP3    H140506   4.350   0.120   4.966
13521TIP3    H240507   4.265   0.204   5.059
13522TIP3   OH240508   1.343   4.909   2.687
13522TIP3    H140509   1.372   4.833   2.738
13522TIP3    H240510   1.371   4.890   2.597
13523TIP3   OH240511   6.570   4.877   0.402
13523TIP3    H140512   6.498   4.819   0.427
13523TIP3    H240513   6.534   4.965   0.409
13524TIP3   OH240514   2.841   4.910   0.926
13524TIP3    H140515   2.858   4.983   0.867
13524TIP3    H240516   2.746   4.909   0.937
13525TIP3   OH240517   2.520   2.253   3.770
13525TIP3    H140518   2.450   2.319   3.765
13525TIP3    H240519   2.567   2.262   3.687
13526TIP3   OH240520   7.047   5.729   1.467
13526TIP3    H140521   6.965   5.684   1.491
13526TIP3    H240522   7.115   5.663   1.482
13527TIP3   OH240523   3.989   5.096   3.309
13527TIP3    H140524   3.963   5.009   3.277
13527TIP3    H240525   4.031   5.078   3.393
13528TIP3   OH240526   0.523   3.537   5.462
13528TIP3    H140527   0.434   3.529   5.427
13528TIP3    H240528   0.577   3.560   5.387
13529TIP3   OH240529   2.495   0.725   5.945
13529TIP3    H140530   2.509   0.732   5.851
13529TIP3    H240531   2.408   0.685   5.953
13530TIP3   OH240532   8.212   6.252   0.827
13530TIP3    H140533   8.264   6.331   0.835
13530TIP3    H240534   8.275   6.182   0.811
13531TIP3   OH240535   7.889   5.677   3.087
13531TIP3    H140536   7.884   5.758   3.137
13531TIP3    H240537   7.801   5.667   3.049
13532TIP3   OH240538   5.878   4.944   4.256
13532TIP3    H140539   5.837   4.930   4.170
13532TIP3    H240540   5.881   5.039   4.266
13533TIP3   OH240541   1.420   1.042   4.992
13533TIP3    H140542   1.350   0.979   4.978
13533TIP3    H240543   1.395   1.118   4.938
13534TIP3   OH240544   3.899   2.952   3.724
13534TIP3    H140545   3.973   3.005   3.752
13534TIP3    H240546   3.879   2.896   3.799
13535TIP3   OH240547   7.934   2.890   4.665
13535TIP3    H140548   8.006   2.924   4.718
13535TIP3    H240549   7.870   2.961   4.663
13536TIP3   OH240550   5.344   4.754   2.587
13536TIP3    H140551   5.415   4.712   2.636
13536TIP3    H240552   5.272   4.761   2.649
13537TIP3   OH240553   5.914   5.748   3.919
13537TIP3    H140554   5.887   5.754   3.827
13537TIP3    H240555   5.975   5.675   3.921
13538TIP3   OH240556   6.508   2.947   0.266
13538TIP3    H140557   6.453   2.977   0.339
13538TIP3    H240558   6.491   3.009   0.196
13539TIP3   OH240559   0.176   6.991   0.935
13539TIP3    H140560   0.258   7.030   0.966
13539TIP3    H240561   0.187   6.985   0.840
13540TIP3   OH240562   2.830   1.562   6.103
13540TIP3    H140563   2.772   1.530   6.172
13540TIP3    H240564   2.904   1.502   6.103
13541TIP3   OH240565   4.153   3.799   0.723
13541TIP3    H140566   4.084   3.846   0.769
13541TIP3    H240567   4.158   3.714   0.766
13542TIP3   OH240568   3.723   1.862   3.118
13542TIP3    H140569   3.807   1.876   3.160
13542TIP3    H240570   3.705   1.768   3.129
13543TIP3   OH240571   0.427   0.578   4.021
13543TIP3    H140572   0.396   0.528   4.097
13543TIP3    H240573   0.347   0.603   3.975
13544TIP3   OH240574   2.301   3.104   2.831
13544TIP3    H140575   2.207   3.109   2.813
13544TIP3    H240576   2.310   3.137   2.920
13545TIP3   OH240577   3.406   0.091   4.959
13545TIP3    H140578   3.448   0.163   5.006
13545TIP3    H240579   3.472   0.060   4.899
13546TIP3   OH240580   7.320   5.798   5.354
13546TIP3    H140581   7.318   5.727   5.418
13546TIP3    H240582   7.383   5.860   5.390
13547TIP3   OH240583   5.239   0.094   1.407
13547TIP3    H140584   5.263   0.021   1.464
13547TIP3    H240585   5.312   0.155   1.413
13548TIP3   OH240586   5.298   0.062   1.108
13548TIP3    H140587   5.293  -0.034   1.105
13548TIP3    H240588   5.266   0.084   1.196
13549TIP3   OH240589   6.356   7.169   6.124
13549TIP3    H140590   6.392   7.184   6.212
13549TIP3    H240591   6.280   7.227   6.119
13550TIP3   OH240592   0.936   6.141   5.217
13550TIP3    H140593   0.888   6.224   5.221
13550TIP3    H240594   1.018   6.159   5.263
13551TIP3   OH240595   3.701   2.184   5.927
13551TIP3    H140596   3.779   2.239   5.926
13551TIP3    H240597   3.682   2.169   5.834
13552TIP3   OH240598   7.489   5.833   6.695
13552TIP3    H140599   7.466   5.777   6.621
13552TIP3    H240600   7.577   5.804   6.720
13553TIP3   OH240601   2.298   1.293   6.252
13553TIP3    H140602   2.337   1.373   6.218
13553TIP3    H240603   2.249   1.321   6.329
13554TIP3   OH240604   3.550   0.670   1.608
13554TIP3    H140605   3.521   0.627   1.528
13554TIP3    H240606   3.642   0.691   1.593
13555TIP3   OH240607   0.809   0.399   2.389
13555TIP3    H140608   0.903   0.391   2.377
13555TIP3    H240609   0.798   0.425   2.481
13556TIP3   OH240610   2.070   1.635   5.852
13556TIP3    H140611   2.035   1.555   5.891
13556TIP3    H240612   2.153   1.650   5.898
13557TIP3   OH240613   2.211   2.837   5.890
13557TIP3    H140614   2.160   2.887   5.954
13557TIP3    H240615   2.227   2.753   5.933
13558TIP3   OH240616   0.183   7.067   4.391
13558TIP3    H140617   0.225   6.981   4.390
13558TIP3    H240618   0.203   7.102   4.478
13559TIP3   OH240619   6.680   3.515   1.362
13559TIP3    H140620   6.717   3.466   1.436
13559TIP3    H240621   6.591   3.536   1.390
13560TIP3   OH240622   8.164   2.869   2.328
13560TIP3    H140623   8.187   2.778   2.306
13560TIP3    H240624   8.155   2.869   2.423
13561TIP3   OH240625   3.094   1.055   3.600
13561TIP3    H140626   3.109   0.960   3.591
13561TIP3    H240627   3.161   1.083   3.662
13562TIP3   OH240628   1.475   7.535   2.837
13562TIP3    H140629   1.510   7.619   2.806
13562TIP3    H240630   1.487   7.476   2.762
13563TIP3   OH240631   7.272   1.700   5.751
13563TIP3    H140632   7.281   1.665   5.840
13563TIP3    H240633   7.360   1.732   5.729
13564TIP3   OH240634   3.271   6.766   2.457
13564TIP3    H140635   3.310   6.718   2.384
13564TIP3    H240636   3.307   6.724   2.535
13565TIP3   OH240637   3.800   6.430   4.269
13565TIP3    H140638   3.770   6.504   4.321
13565TIP3    H240639   3.876   6.397   4.316
13566TIP3   OH240640   8.234   3.580   5.870
13566TIP3    H140641   8.306   3.636   5.838
13566TIP3    H240642   8.257   3.493   5.839
13567TIP3   OH240643   5.587   7.711   2.953
13567TIP3    H140644   5.612   7.632   2.906
13567TIP3    H240645   5.617   7.696   3.042
13568TIP3   OH240646   6.923   4.071   1.961
13568TIP3    H140647   6.979   4.146   1.947
13568TIP3    H240648   6.859   4.100   2.027
13569TIP3   OH240649   5.200   6.188   6.139
13569TIP3    H140650   5.215   6.178   6.045
13569TIP3    H240651   5.282   6.159   6.180
13570TIP3   OH240652   1.809   3.098   3.605
13570TIP3    H140653   1.809   3.027   3.670
13570TIP3    H240654   1.718   3.126   3.602
13571TIP3   OH240655   2.506   4.565   5.270
13571TIP3    H140656   2.438   4.627   5.298
13571TIP3    H240657   2.517   4.582   5.177
13572TIP3   OH240658   1.509   6.516   2.922
13572TIP3    H140659   1.477   6.530   3.011
13572TIP3    H240660   1.544   6.427   2.923
13573TIP3   OH240661   6.295   2.949   6.561
13573TIP3    H140662   6.302   2.932   6.467
13573TIP3    H240663   6.309   3.044   6.569
13574TIP3   OH240664   1.445   0.984   3.356
13574TIP3    H140665   1.506   1.057   3.366
13574TIP3    H240666   1.480   0.915   3.412
13575TIP3   OH240667   8.288   7.210   2.756
13575TIP3    H140668   8.379   7.222   2.729
13575TIP3    H240669   8.267   7.289   2.805
13576TIP3   OH240670   7.012   0.665   3.009
13576TIP3    H140671   7.082   0.702   3.063
13576TIP3    H240672   6.941   0.729   3.014
13577TIP3   OH240673   1.831   2.335   2.954
13577TIP3    H140674   1.737   2.351   2.962
13577TIP3    H240675   1.837   2.254   2.904
13578TIP3   OH240676   4.312   0.788   3.309
13578TIP3    H140677   4.280   0.718   3.251
13578TIP3    H240678   4.388   0.750   3.352
13579TIP3   OH240679   3.583   1.890   0.952
13579TIP3    H140680   3.603   1.968   1.004
13579TIP3    H240681   3.661   1.836   0.959
13580TIP3   OH240682   0.131   1.495   6.417
13580TIP3    H140683   0.077   1.491   6.338
13580TIP3    H240684   0.190   1.569   6.401
13581TIP3   OH240685   1.915   6.972   6.561
13581TIP3    H140686   1.909   7.059   6.600
13581TIP3    H240687   1.825   6.952   6.533
13582TIP3   OH240688   4.646   4.307   0.924
13582TIP3    H140689   4.742   4.306   0.922
13582TIP3    H240690   4.621   4.318   0.832
13583TIP3   OH240691   6.892   5.350   3.222
13583TIP3    H140692   6.896   5.380   3.132
13583TIP3    H240693   6.911   5.429   3.274
13584TIP3   OH240694   1.631   5.575   1.273
13584TIP3    H140695   1.536   5.564   1.284
13584TIP3    H240696   1.669   5.504   1.325
13585TIP3   OH240697   2.854   4.481   3.056
13585TIP3    H140698   2.846   4.470   3.151
13585TIP3    H240699   2.765   4.498   3.026
13586TIP3   OH240700   4.859   6.533   5.061
13586TIP3    H140701   4.850   6.461   4.998
13586TIP3    H240702   4.770   6.548   5.093
13587TIP3   OH240703   4.843   4.958   1.795
13587TIP3    H140704   4.757   4.947   1.836
13587TIP3    H240705   4.840   5.045   1.755
13588TIP3   OH240706   5.270   1.471   5.496
13588TIP3    H140707   5.327   1.400   5.526
13588TIP3    H240708   5.189   1.458   5.546
13589TIP3   OH240709   4.631   6.834   0.691
13589TIP3    H140710   4.571   6.769   0.728
13589TIP3    H240711   4.697   6.781   0.645
13590TIP3   OH240712   7.547   6.343   3.966
13590TIP3    H140713   7.607   6.348   4.040
13590TIP3    H240714   7.494   6.266   3.983
13591TIP3   OH240715   1.175   4.587   4.924
13591TIP3    H140716   1.142   4.564   4.837
13591TIP3    H240717   1.133   4.525   4.983
13592TIP3   OH240718   1.858   4.606   6.579
13592TIP3    H140719   1.812   4.630   6.659
13592TIP3    H240720   1.892   4.518   6.596
13593TIP3   OH240721   2.424   0.207   0.233
13593TIP3    H140722   2.396   0.293   0.263
13593TIP3    H240723   2.457   0.222   0.144
13594TIP3   OH240724   7.555   3.286   2.082
13594TIP3    H140725   7.645   3.280   2.113
13594TIP3    H240726   7.526   3.195   2.074
13595TIP3   OH240727   1.138   6.972   6.064
13595TIP3    H140728   1.208   7.010   6.012
13595TIP3    H240729   1.064   7.031   6.051
13596TIP3   OH240730   2.751   2.567   1.350
13596TIP3    H140731   2.805   2.490   1.370
13596TIP3    H240732   2.662   2.541   1.373
13597TIP3   OH240733   3.483   5.457   5.816
13597TIP3    H140734   3.490   5.479   5.909
13597TIP3    H240735   3.574   5.446   5.787
13598TIP3   OH240736   5.137   7.568   5.008
13598TIP3    H140737   5.097   7.534   5.088
13598TIP3    H240738   5.085   7.529   4.937
13599TIP3   OH240739   5.296   3.705   6.480
13599TIP3    H140740   5.390   3.692   6.469
13599TIP3    H240741   5.259   3.689   6.394
13600TIP3   OH240742   5.713   2.603   0.862
13600TIP3    H140743   5.628   2.602   0.817
13600TIP3    H240744   5.754   2.684   0.832
13601TIP3   OH240745   4.474   6.123   3.188
13601TIP3    H140746   4.462   6.030   3.168
13601TIP3    H240747   4.388   6.153   3.216
13602TIP3   OH240748   3.232   0.816   6.395
13602TIP3    H140749   3.312   0.869   6.397
13602TIP3    H240750   3.217   0.798   6.303
13603TIP3   OH240751   0.611   7.013   0.010
13603TIP3    H140752   0.682   6.990   0.070
13603TIP3    H240753   0.541   7.044   0.067
13604TIP3   OH240754   7.982   0.814   5.547
13604TIP3    H140755   8.053   0.851   5.599
13604TIP3    H240756   7.949   0.887   5.495
13605TIP3   OH240757   2.923   1.304   1.060
13605TIP3    H140758   2.901   1.386   1.104
13605TIP3    H240759   2.860   1.296   0.989
13606TIP3   OH240760   4.427   7.042   3.608
13606TIP3    H140761   4.452   7.134   3.619
13606TIP3    H240762   4.407   7.012   3.697
13607TIP3   OH240763   8.321   5.671   0.403
13607TIP3    H140764   8.284   5.720   0.476
13607TIP3    H240765   8.260   5.598   0.390
13608TIP3   OH240766   1.305   2.835   6.552
13608TIP3    H140767   1.294   2.925   6.521
13608TIP3    H240768   1.360   2.794   6.485
13609TIP3   OH240769   4.551   0.904   6.320
13609TIP3    H140770   4.563   0.886   6.413
13609TIP3    H240771   4.522   0.995   6.316
13610TIP3   OH240772   7.411   3.584   4.591
13610TIP3    H140773   7.491   3.601   4.541
13610TIP3    H240774   7.407   3.655   4.656
13611TIP3   OH240775   0.419   2.779   4.414
13611TIP3    H140776   0.467   2.857   4.441
13611TIP3    H240777   0.484   2.726   4.367
13612TIP3   OH240778   3.420   6.393   5.725
13612TIP3    H140779   3.360   6.429   5.660
13612TIP3    H240780   3.467   6.323   5.679
13613TIP3   OH240781   3.948   5.077   3.789
13613TIP3    H140782   3.946   5.171   3.808
13613TIP3    H240783   3.980   5.037   3.870
13614TIP3   OH240784   6.079   4.368   0.481
13614TIP3    H140785   6.068   4.287   0.430
13614TIP3    H240786   5.993   4.383   0.520
13615TIP3   OH240787   5.642   2.322   2.504
13615TIP3    H140788   5.621   2.373   2.582
13615TIP3    H240789   5.730   2.352   2.479
13616TIP3   OH240790   3.084   6.702   1.477
13616TIP3    H140791   3.020   6.668   1.539
13616TIP3    H240792   3.064   6.656   1.395
13617TIP3   OH240793   0.608   1.466   4.832
13617TIP3    H140794   0.589   1.409   4.758
13617TIP3    H240795   0.595   1.410   4.909
13618TIP3   OH240796   8.130   7.465   6.596
13618TIP3    H140797   8.176   7.445   6.677
13618TIP3    H240798   8.128   7.560   6.591
13619TIP3   OH240799   0.095   4.833   2.417
13619TIP3    H140800   0.129   4.883   2.491
13619TIP3    H240801   0.032   4.892   2.375
13620TIP3   OH240802   6.234   1.607   6.342
13620TIP3    H140803   6.216   1.680   6.283
13620TIP3    H240804   6.148   1.570   6.361
13621TIP3   OH240805   7.766   1.664   4.681
13621TIP3    H140806   7.852   1.628   4.659
13621TIP3    H240807   7.715   1.658   4.600
13622TIP3   OH240808   6.453   3.773   2.510
13622TIP3    H140809   6.402   3.852   2.491
13622TIP3    H240810   6.389   3.711   2.544
13623TIP3   OH240811   6.014   6.277   6.495
13623TIP3    H140812   6.010   6.368   6.525
13623TIP3    H240813   5.962   6.277   6.414
13624TIP3   OH240814   7.328   4.331   0.608
13624TIP3    H140815   7.336   4.324   0.703
13624TIP3    H240816   7.409   4.374   0.581
13625TIP3   OH240817   4.601   0.095   3.711
13625TIP3    H140818   4.535   0.142   3.660
13625TIP3    H240819   4.653   0.049   3.646
13626TIP3   OH240820   4.409   5.663   5.232
13626TIP3    H140821   4.478   5.729   5.221
13626TIP3    H240822   4.438   5.588   5.180
13627TIP3   OH240823   6.031   2.700   5.959
13627TIP3    H140824   5.943   2.738   5.951
13627TIP3    H240825   6.032   2.629   5.894
13628TIP3   OH240826   8.266   7.041   1.433
13628TIP3    H140827   8.180   7.008   1.460
13628TIP3    H240828   8.263   7.134   1.453
13629TIP3   OH240829   2.729   3.818   6.645
13629TIP3    H140830   2.653   3.859   6.605
13629TIP3    H240831   2.768   3.766   6.575
13630TIP3   OH240832   6.403   2.340   0.035
13630TIP3    H140833   6.385   2.431   0.010
13630TIP3    H240834   6.366   2.332   0.123
13631TIP3   OH240835   7.550   3.324   6.134
13631TIP3    H140836   7.560   3.332   6.229
13631TIP3    H240837   7.558   3.230   6.117
13632TIP3   OH240838   7.676   2.628   4.579
13632TIP3    H140839   7.619   2.612   4.654
13632TIP3    H240840   7.664   2.721   4.559
13633TIP3   OH240841   6.505   4.593   2.584
13633TIP3    H140842   6.511   4.597   2.489
13633TIP3    H240843   6.591   4.560   2.612
13634TIP3   OH240844   6.492   4.844   3.496
13634TIP3    H140845   6.569   4.789   3.509
13634TIP3    H240846   6.477   4.885   3.581
13635TIP3   OH240847   1.310   1.064   4.647
13635TIP3    H140848   1.364   1.143   4.653
13635TIP3    H240849   1.272   1.053   4.734
13636TIP3   OH240850   6.558   4.654   5.873
13636TIP3    H140851   6.649   4.622   5.873
13636TIP3    H240852   6.520   4.616   5.794
13637TIP3   OH240853   0.672   2.699   0.453
13637TIP3    H140854   0.715   2.668   0.373
13637TIP3    H240855   0.672   2.623   0.511
13638TIP3   OH240856   1.446   0.336   5.947
13638TIP3    H140857   1.482   0.424   5.957
13638TIP3    H240858   1.502   0.295   5.881
13639TIP3   OH240859   7.139   0.208   1.293
13639TIP3    H140860   7.135   0.160   1.375
13639TIP3    H240861   7.063   0.179   1.244
13640TIP3   OH240862   1.963   6.348   2.527
13640TIP3    H140863   2.052   6.372   2.552
13640TIP3    H240864   1.907   6.391   2.591
13641TIP3   OH240865   1.067   3.535   3.072
13641TIP3    H140866   1.136   3.470   3.061
13641TIP3    H240867   1.085   3.601   3.006
13642TIP3   OH240868   0.137   6.449   2.050
13642TIP3    H140869   0.092   6.368   2.074
13642TIP3    H240870   0.229   6.432   2.070
13643TIP3   OH240871   8.176   4.148   0.995
13643TIP3    H140872   8.091   4.111   0.972
13643TIP3    H240873   8.213   4.085   1.057
13644TIP3   OH240874   5.669   2.884   5.139
13644TIP3    H140875   5.755   2.921   5.119
13644TIP3    H240876   5.646   2.921   5.225
13645TIP3   OH240877   8.257   4.181   0.173
13645TIP3    H140878   8.181   4.239   0.172
13645TIP3    H240879   8.302   4.200   0.091
13646TIP3   OH240880   4.489   1.643   0.118
13646TIP3    H140881   4.517   1.552   0.124
13646TIP3    H240882   4.465   1.655   0.026
13647TIP3   OH240883   6.397   2.696   0.520
13647TIP3    H140884   6.410   2.778   0.472
13647TIP3    H240885   6.435   2.712   0.607
13648TIP3   OH240886   5.161   3.139   5.588
13648TIP3    H140887   5.242   3.134   5.639
13648TIP3    H240888   5.111   3.210   5.629
13649TIP3   OH240889   7.698   6.195   0.800
13649TIP3    H140890   7.786   6.198   0.838
13649TIP3    H240891   7.697   6.113   0.750
13650TIP3   OH240892   2.434   0.665   2.419
13650TIP3    H140893   2.473   0.661   2.332
13650TIP3    H240894   2.399   0.754   2.425
13651TIP3   OH240895   1.744   4.482   5.299
13651TIP3    H140896   1.713   4.403   5.345
13651TIP3    H240897   1.836   4.463   5.279
13652TIP3   OH240898   7.554   1.079   4.412
13652TIP3    H140899   7.530   1.074   4.320
13652TIP3    H240900   7.639   1.035   4.416
13653TIP3   OH240901   5.918   6.942   3.559
13653TIP3    H140902   5.939   6.989   3.478
13653TIP3    H240903   5.826   6.962   3.575
13654TIP3   OH240904   2.556   2.299   2.514
13654TIP3    H140905   2.634   2.275   2.564
13654TIP3    H240906   2.556   2.240   2.439
13655TIP3   OH240907   5.751   7.100   6.436
13655TIP3    H140908   5.658   7.078   6.438
13655TIP3    H240909   5.754   7.193   6.415
13656TIP3   OH240910   7.622   6.484   4.565
13656TIP3    H140911   7.703   6.476   4.514
13656TIP3    H240912   7.615   6.577   4.585
13657TIP3   OH240913   7.080   4.814   6.669
13657TIP3    H140914   6.989   4.785   6.678
13657TIP3    H240915   7.092   4.877   6.740
13658TIP3   OH240916   5.655   2.389   4.469
13658TIP3    H140917   5.674   2.328   4.540
13658TIP3    H240918   5.641   2.334   4.392
13659TIP3   OH240919   1.518   0.567   6.581
13659TIP3    H140920   1.559   0.630   6.640
13659TIP3    H240921   1.449   0.527   6.633
13660TIP3   OH240922   5.515   2.280   2.019
13660TIP3    H140923   5.597   2.314   1.983
13660TIP3    H240924   5.538   2.248   2.106
13661TIP3   OH240925   0.049   7.782   3.678
13661TIP3    H140926   0.043   7.875   3.702
13661TIP3    H240927   0.097   7.742   3.749
13662TIP3   OH240928   4.916   3.648   5.485
13662TIP3    H140929   4.825   3.641   5.514
13662TIP3    H240930   4.954   3.563   5.504
13663TIP3   OH240931   3.586   7.649   3.695
13663TIP3    H140932   3.574   7.654   3.600
13663TIP3    H240933   3.576   7.556   3.715
13664TIP3   OH240934   7.254   0.585   0.845
13664TIP3    H140935   7.175   0.633   0.820
13664TIP3    H240936   7.326   0.643   0.820
13665TIP3   OH240937   2.640   1.931   4.041
13665TIP3    H140938   2.582   1.855   4.034
13665TIP3    H240939   2.581   2.007   4.038
13666TIP3   OH240940   3.208   3.923   0.434
13666TIP3    H140941   3.215   3.842   0.382
13666TIP3    H240942   3.149   3.900   0.506
13667TIP3   OH240943   0.059   6.765   6.335
13667TIP3    H140944   0.060   6.810   6.419
13667TIP3    H240945   0.028   6.831   6.272
13668TIP3   OH240946   5.927   5.565   5.602
13668TIP3    H140947   5.906   5.636   5.541
13668TIP3    H240948   6.003   5.596   5.650
13669TIP3   OH240949   0.673   3.425   2.143
13669TIP3    H140950   0.628   3.353   2.099
13669TIP3    H240951   0.762   3.424   2.108
13670TIP3   OH240952   6.782   7.528   4.835
13670TIP3    H140953   6.866   7.544   4.792
13670TIP3    H240954   6.718   7.534   4.764
13671TIP3   OH240955   4.357   1.209   5.370
13671TIP3    H140956   4.420   1.172   5.307
13671TIP3    H240957   4.389   1.297   5.386
13672TIP3   OH240958   2.378   3.714   0.434
13672TIP3    H140959   2.354   3.785   0.494
13672TIP3    H240960   2.324   3.729   0.356
13673TIP3   OH240961   5.322   1.224   1.340
13673TIP3    H140962   5.284   1.206   1.426
13673TIP3    H240963   5.416   1.215   1.354
13674TIP3   OH240964   2.031   4.184   4.272
13674TIP3    H140965   2.083   4.182   4.352
13674TIP3    H240966   1.964   4.250   4.288
13675TIP3   OH240967   0.531   1.206   0.959
13675TIP3    H140968   0.459   1.184   0.900
13675TIP3    H240969   0.488   1.239   1.039
13676TIP3   OH240970   0.009   7.012   3.878
13676TIP3    H140971  -0.077   6.980   3.904
13676TIP3    H240972  -0.002   7.106   3.866
13677TIP3   OH240973   6.720   2.557   6.106
13677TIP3    H140974   6.807   2.596   6.111
13677TIP3    H240975   6.729   2.473   6.151
13678TIP3   OH240976   6.191   7.787   6.559
13678TIP3    H140977   6.282   7.775   6.588
13678TIP3    H240978   6.139   7.735   6.620
13679TIP3   OH240979   7.042   6.226   5.878
13679TIP3    H140980   7.125   6.226   5.830
13679TIP3    H240981   7.051   6.296   5.942
13680TIP3   OH240982   6.576   6.169   0.325
13680TIP3    H140983   6.499   6.127   0.287
13680TIP3    H240984   6.639   6.098   0.336
13681TIP3   OH240985   6.342   5.162   6.125
13681TIP3    H140986   6.395   5.197   6.196
13681TIP3    H240987   6.336   5.068   6.143
13682TIP3   OH240988   2.520   1.165   1.738
13682TIP3    H140989   2.489   1.251   1.709
13682TIP3    H240990   2.615   1.168   1.724
13683TIP3   OH240991   6.596   2.536   5.581
13683TIP3    H140992   6.571   2.607   5.640
13683TIP3    H240993   6.516   2.516   5.532
13684TIP3   OH240994   5.890   1.399   0.810
13684TIP3    H140995   5.820   1.382   0.746
13684TIP3    H240996   5.861   1.353   0.889
13685TIP3   OH240997   1.151   7.100   2.738
13685TIP3    H140998   1.151   7.004   2.740
13685TIP3    H240999   1.152   7.122   2.644
13686TIP3   OH241000   2.063   2.057   1.311
13686TIP3    H141001   2.000   2.125   1.336
13686TIP3    H241002   2.132   2.063   1.376
13687TIP3   OH241003   2.936   2.194   1.907
13687TIP3    H141004   2.870   2.238   1.961
13687TIP3    H241005   2.901   2.197   1.818
13688TIP3   OH241006   1.985   4.385   4.786
13688TIP3    H141007   1.928   4.462   4.785
13688TIP3    H241008   1.989   4.360   4.879
13689TIP3   OH241009   7.725   5.999   1.063
13689TIP3    H141010   7.642   6.003   1.016
13689TIP3    H241011   7.768   6.083   1.042
13690TIP3   OH241012   7.581   3.577   2.490
13690TIP3    H141013   7.526   3.571   2.568
13690TIP3    H241014   7.541   3.647   2.438
13691TIP3   OH241015   5.611   6.548   1.341
13691TIP3    H141016   5.643   6.458   1.330
13691TIP3    H241017   5.659   6.582   1.416
13692TIP3   OH241018   7.161   2.078   2.086
13692TIP3    H141019   7.191   2.069   1.995
13692TIP3    H241020   7.197   2.002   2.131
13693TIP3   OH241021   7.279   4.690   3.901
13693TIP3    H141022   7.281   4.603   3.862
13693TIP3    H241023   7.205   4.688   3.961
13694TIP3   OH241024   0.936   0.967   6.306
13694TIP3    H141025   0.876   0.894   6.321
13694TIP3    H241026   0.963   0.994   6.393
13695TIP3   OH241027   5.604   1.364   1.181
13695TIP3    H141028   5.587   1.280   1.223
13695TIP3    H241029   5.599   1.428   1.252
13696TIP3   OH241030   2.321  -0.031   2.397
13696TIP3    H141031   2.351  -0.026   2.488
13696TIP3    H241032   2.237   0.015   2.397
13697TIP3   OH241033   4.292   3.548   0.791
13697TIP3    H141034   4.311   3.581   0.879
13697TIP3    H241035   4.367   3.576   0.738
13698TIP3   OH241036   7.631   0.275   6.557
13698TIP3    H141037   7.538   0.276   6.534
13698TIP3    H241038   7.637   0.211   6.628
13699TIP3   OH241039   5.739   7.038   4.016
13699TIP3    H141040   5.748   6.987   3.936
13699TIP3    H241041   5.785   7.120   3.998
13700TIP3   OH241042   6.896   3.700   2.505
13700TIP3    H141043   6.907   3.709   2.410
13700TIP3    H241044   6.974   3.654   2.534
13701TIP3   OH241045   1.261   0.541   4.485
13701TIP3    H141046   1.280   0.457   4.526
13701TIP3    H241047   1.193   0.580   4.541
13702TIP3   OH241048   2.891   3.768   0.450
13702TIP3    H141049   2.896   3.827   0.374
13702TIP3    H241050   2.956   3.802   0.511
13703TIP3   OH241051   4.560   2.297   5.673
13703TIP3    H141052   4.583   2.245   5.750
13703TIP3    H241053   4.644   2.326   5.637
13704TIP3   OH241054   2.326   4.302   2.243
13704TIP3    H141055   2.352   4.211   2.257
13704TIP3    H241056   2.338   4.343   2.328
13705TIP3   OH241057   8.107   2.480   5.044
13705TIP3    H141058   8.024   2.526   5.034
13705TIP3    H241059   8.157   2.534   5.106
13706TIP3   OH241060   6.443   6.713   1.459
13706TIP3    H141061   6.412   6.750   1.376
13706TIP3    H241062   6.524   6.760   1.477
13707TIP3   OH241063   2.307   5.921   6.536
13707TIP3    H141064   2.217   5.908   6.567
13707TIP3    H241065   2.355   5.949   6.615
13708TIP3   OH241066   2.700   5.697   5.741
13708TIP3    H141067   2.659   5.779   5.713
13708TIP3    H241068   2.711   5.707   5.836
13709TIP3   OH241069   1.345   3.873   5.654
13709TIP3    H141070   1.347   3.783   5.620
13709TIP3    H241071   1.432   3.885   5.692
13710TIP3   OH241072   7.020   7.194   6.474
13710TIP3    H141073   7.096   7.210   6.418
13710TIP3    H241074   7.005   7.100   6.469
13711TIP3   OH241075   5.514   4.242   0.196
13711TIP3    H141076   5.447   4.243   0.128
13711TIP3    H241077   5.466   4.232   0.278
13712TIP3   OH241078   6.935   5.538   3.945
13712TIP3    H141079   6.839   5.541   3.954
13712TIP3    H241080   6.967   5.588   4.019
13713TIP3   OH241081   7.486   3.631   1.345
13713TIP3    H141082   7.528   3.547   1.327
13713TIP3    H241083   7.556   3.687   1.378
13714TIP3   OH241084   3.057   7.177   2.343
13714TIP3    H141085   3.097   7.093   2.365
13714TIP3    H241086   3.068   7.184   2.248
13715TIP3   OH241087   5.940   3.589   1.358
13715TIP3    H141088   5.957   3.528   1.286
13715TIP3    H241089   5.883   3.541   1.418
13716TIP3   OH241090   4.389   3.622   6.057
13716TIP3    H141091   4.295   3.634   6.041
13716TIP3    H241092   4.432   3.678   5.992
13717TIP3   OH241093   3.128   2.307   6.113
13717TIP3    H141094   3.078   2.227   6.099
13717TIP3    H241095   3.217   2.277   6.132
13718TIP3   OH241096   3.511   1.598   2.103
13718TIP3    H141097   3.521   1.525   2.042
13718TIP3    H241098   3.417   1.608   2.115
13719TIP3   OH241099   0.670   3.966   1.544
13719TIP3    H141100   0.610   3.987   1.616
13719TIP3    H241101   0.614   3.968   1.466
13720TIP3   OH241102   6.572   1.507   2.060
13720TIP3    H141103   6.513   1.445   2.017
13720TIP3    H241104   6.622   1.546   1.987
13721TIP3   OH241105   8.214   5.762   3.448
13721TIP3    H141106   8.298   5.807   3.442
13721TIP3    H241107   8.200   5.724   3.361
13722TIP3   OH241108   4.828   6.932   3.076
13722TIP3    H141109   4.742   6.962   3.105
13722TIP3    H241110   4.810   6.860   3.016
13723TIP3   OH241111   0.286   1.467   6.662
13723TIP3    H141112   0.253   1.454   6.573
13723TIP3    H241113   0.354   1.400   6.673
13724TIP3   OH241114   2.023   3.274   5.487
13724TIP3    H141115   2.084   3.261   5.560
13724TIP3    H241116   1.960   3.203   5.495
13725TIP3   OH241117   1.673   6.710   5.137
13725TIP3    H141118   1.611   6.715   5.209
13725TIP3    H241119   1.756   6.740   5.174
13726TIP3   OH241120   2.797   1.268   3.688
13726TIP3    H141121   2.831   1.357   3.680
13726TIP3    H241122   2.874   1.212   3.686
13727TIP3   OH241123   1.802   6.510   2.692
13727TIP3    H141124   1.734   6.480   2.631
13727TIP3    H241125   1.803   6.605   2.681
13728TIP3   OH241126   7.871   3.963   3.863
13728TIP3    H141127   7.834   3.915   3.937
13728TIP3    H241128   7.946   4.011   3.900
13729TIP3   OH241129   4.230   5.903   2.723
13729TIP3    H141130   4.218   5.948   2.640
13729TIP3    H241131   4.150   5.921   2.772
13730TIP3   OH241132   3.101   3.033   2.830
13730TIP3    H141133   3.131   3.122   2.811
13730TIP3    H241134   3.180   2.986   2.857
13731TIP3   OH241135   6.045   4.730   6.685
13731TIP3    H141136   6.008   4.738   6.773
13731TIP3    H241137   5.972   4.748   6.626
13732TIP3   OH241138   3.637   4.798   3.396
13732TIP3    H141139   3.674   4.796   3.308
13732TIP3    H241140   3.586   4.717   3.402
13733TIP3   OH241141   1.941   6.209   1.252
13733TIP3    H141142   1.890   6.184   1.329
13733TIP3    H241143   1.966   6.125   1.212
13734TIP3   OH241144   5.439   2.197   5.002
13734TIP3    H141145   5.428   2.208   4.908
13734TIP3    H241146   5.366   2.245   5.041
13735TIP3   OH241147   1.353   3.025   1.539
13735TIP3    H141148   1.411   2.952   1.519
13735TIP3    H241149   1.272   3.006   1.492
13736TIP3   OH241150   0.764   3.752   1.039
13736TIP3    H141151   0.727   3.777   0.954
13736TIP3    H241152   0.851   3.718   1.018
13737TIP3   OH241153   7.179   2.402   3.687
13737TIP3    H141154   7.168   2.384   3.780
13737TIP3    H241155   7.191   2.497   3.681
13738TIP3   OH241156   0.670   0.481   3.650
13738TIP3    H141157   0.640   0.546   3.714
13738TIP3    H241158   0.741   0.434   3.694
13739TIP3   OH241159   2.154   5.252   4.345
13739TIP3    H141160   2.064   5.278   4.330
13739TIP3    H241161   2.175   5.193   4.273
13740TIP3   OH241162   3.805   4.114   1.176
13740TIP3    H141163   3.821   4.195   1.127
13740TIP3    H241164   3.710   4.102   1.171
13741TIP3   OH241165   5.378   3.896   6.024
13741TIP3    H141166   5.425   3.912   5.942
13741TIP3    H241167   5.346   3.806   6.016
13742TIP3   OH241168   6.279   7.678   5.913
13742TIP3    H141169   6.295   7.735   5.838
13742TIP3    H241170   6.186   7.688   5.932
13743TIP3   OH241171   1.369   2.127   1.150
13743TIP3    H141172   1.361   2.117   1.245
13743TIP3    H241173   1.462   2.111   1.133
13744TIP3   OH241174   7.726   3.420   4.692
13744TIP3    H141175   7.696   3.353   4.631
13744TIP3    H241176   7.706   3.503   4.648
13745TIP3   OH241177   4.116   4.127   0.730
13745TIP3    H141178   4.158   4.083   0.804
13745TIP3    H241179   4.023   4.129   0.753
13746TIP3   OH241180   2.479   4.229   1.372
13746TIP3    H141181   2.467   4.320   1.399
13746TIP3    H241182   2.441   4.177   1.442
13747TIP3   OH241183   4.197   6.099   6.499
13747TIP3    H141184   4.128   6.095   6.567
13747TIP3    H241185   4.255   6.027   6.520
13748TIP3   OH241186   2.849   5.754   4.920
13748TIP3    H141187   2.806   5.799   4.847
13748TIP3    H241188   2.861   5.664   4.889
13749TIP3   OH241189   2.286   2.870   2.563
13749TIP3    H141190   2.316   2.794   2.513
13749TIP3    H241191   2.306   2.848   2.654
13750TIP3   OH241192   4.049   4.637   5.007
13750TIP3    H141193   4.106   4.623   5.083
13750TIP3    H241194   3.962   4.611   5.037
13751TIP3   OH241195   6.882   7.702   4.039
13751TIP3    H141196   6.798   7.684   3.995
13751TIP3    H241197   6.876   7.655   4.122
13752TIP3   OH241198   3.099   5.583   6.796
13752TIP3    H141199   3.063   5.518   6.736
13752TIP3    H241200   3.158   5.636   6.742
13753TIP3   OH241201   0.599   1.622   5.106
13753TIP3    H141202   0.616   1.714   5.127
13753TIP3    H241203   0.674   1.596   5.052
13754TIP3   OH241204   8.000   1.526   4.662
13754TIP3    H141205   8.087   1.564   4.673
13754TIP3    H241206   7.980   1.488   4.748
13755TIP3   OH241207   3.538   6.248   3.360
13755TIP3    H141208   3.444   6.254   3.342
13755TIP3    H241209   3.545   6.257   3.455
13756TIP3   OH241210   5.766   4.555   5.253
13756TIP3    H141211   5.777   4.646   5.226
13756TIP3    H241212   5.848   4.533   5.297
13757TIP3   OH241213   3.090   6.607   0.864
13757TIP3    H141214   3.098   6.692   0.820
13757TIP3    H241215   3.022   6.621   0.930
13758TIP3   OH241216   4.391   0.327   3.247
13758TIP3    H141217   4.337   0.405   3.235
13758TIP3    H241218   4.466   0.358   3.297
13759TIP3   OH241219   4.697   5.608   4.222
13759TIP3    H141220   4.750   5.533   4.246
13759TIP3    H241221   4.699   5.666   4.298
13760TIP3   OH241222   6.026   5.812   5.775
13760TIP3    H141223   6.022   5.882   5.841
13760TIP3    H241224   6.043   5.858   5.693
13761TIP3   OH241225   6.384   7.682   6.742
13761TIP3    H141226   6.463   7.708   6.789
13761TIP3    H241227   6.416   7.628   6.670
13762TIP3   OH241228   4.934   2.788   2.946
13762TIP3    H141229   4.845   2.793   2.911
13762TIP3    H241230   4.961   2.879   2.955
13763TIP3   OH241231   0.941   2.056   5.215
13763TIP3    H141232   0.924   1.995   5.287
13763TIP3    H241233   0.956   1.999   5.139
13764TIP3   OH241234   0.495   7.169   5.701
13764TIP3    H141235   0.427   7.167   5.767
13764TIP3    H241236   0.534   7.082   5.703
13765TIP3   OH241237   0.509   2.444   2.339
13765TIP3    H141238   0.467   2.362   2.362
13765TIP3    H241239   0.476   2.507   2.403
13766TIP3   OH241240   4.197   7.773   6.695
13766TIP3    H141241   4.138   7.844   6.718
13766TIP3    H241242   4.155   7.730   6.620
13767TIP3   OH241243   1.837   3.472   5.556
13767TIP3    H141244   1.902   3.411   5.521
13767TIP3    H241245   1.811   3.525   5.480
13768TIP3   OH241246   4.279   3.562   2.175
13768TIP3    H141247   4.313   3.542   2.262
13768TIP3    H241248   4.252   3.654   2.181
13769TIP3   OH241249   8.130   4.401   5.695
13769TIP3    H141250   8.117   4.330   5.633
13769TIP3    H241251   8.134   4.480   5.641
13770TIP3   OH241252   2.241   4.415   6.342
13770TIP3    H141253   2.182   4.348   6.376
13770TIP3    H241254   2.315   4.415   6.404
13771TIP3   OH241255   8.130   2.859   1.167
13771TIP3    H141256   8.204   2.873   1.226
13771TIP3    H241257   8.158   2.789   1.109
13772TIP3   OH241258   1.461   2.509   6.105
13772TIP3    H141259   1.532   2.490   6.043
13772TIP3    H241260   1.451   2.428   6.155
13773TIP3   OH241261   6.501   4.951   5.652
13773TIP3    H141262   6.578   4.937   5.707
13773TIP3    H241263   6.450   5.018   5.698
13774TIP3   OH241264   0.271   0.136   6.230
13774TIP3    H141265   0.199   0.194   6.255
13774TIP3    H241266   0.348   0.193   6.230
13775TIP3   OH241267   2.930   1.244   0.488
13775TIP3    H141268   2.993   1.306   0.524
13775TIP3    H241269   2.972   1.158   0.500
13776TIP3   OH241270   5.206   1.899   6.053
13776TIP3    H141271   5.145   1.826   6.058
13776TIP3    H241272   5.161   1.970   6.100
13777TIP3   OH241273   3.112   7.029   0.954
13777TIP3    H141274   3.117   6.973   0.877
13777TIP3    H241275   3.187   7.088   0.947
13778TIP3   OH241276   1.914   1.481   5.231
13778TIP3    H141277   1.876   1.422   5.166
13778TIP3    H241278   1.974   1.537   5.182
13779TIP3   OH241279   7.053   2.318   1.239
13779TIP3    H141280   7.125   2.376   1.215
13779TIP3    H241281   7.075   2.234   1.199
13780TIP3   OH241282   2.805   0.370   4.055
13780TIP3    H141283   2.862   0.344   3.983
13780TIP3    H241284   2.859   0.362   4.133
13781TIP3   OH241285   5.955   7.128   1.310
13781TIP3    H141286   6.006   7.171   1.241
13781TIP3    H241287   5.888   7.192   1.335
13782TIP3   OH241288   5.885   5.177   4.601
13782TIP3    H141289   5.816   5.112   4.610
13782TIP3    H241290   5.839   5.258   4.578
13783TIP3   OH241291   2.314   0.162   3.903
13783TIP3    H141292   2.271   0.220   3.839
13783TIP3    H241293   2.399   0.203   3.919
13784TIP3   OH241294   8.214   4.769   1.287
13784TIP3    H141295   8.161   4.731   1.218
13784TIP3    H241296   8.167   4.848   1.313
13785TIP3   OH241297   6.631   6.503   2.564
13785TIP3    H141298   6.699   6.559   2.526
13785TIP3    H241299   6.595   6.455   2.489
13786TIP3   OH241300   7.447   6.005   0.650
13786TIP3    H141301   7.464   5.929   0.705
13786TIP3    H241302   7.356   6.027   0.666
13787TIP3   OH241303   6.419   1.123   4.263
13787TIP3    H141304   6.398   1.189   4.197
13787TIP3    H241305   6.386   1.160   4.345
13788TIP3   OH241306   7.417   1.284   3.872
13788TIP3    H141307   7.503   1.248   3.893
13788TIP3    H241308   7.359   1.251   3.940
13789TIP3   OH241309   5.305   3.389   1.654
13789TIP3    H141310   5.354   3.340   1.720
13789TIP3    H241311   5.232   3.427   1.702
13790TIP3   OH241312   4.093   6.581   2.075
13790TIP3    H141313   4.037   6.657   2.090
13790TIP3    H241314   4.038   6.506   2.098
13791TIP3   OH241315   1.757   5.800   1.228
13791TIP3    H141316   1.720   5.712   1.236
13791TIP3    H241317   1.698   5.856   1.279
13792TIP3   OH241318   3.583   5.592   0.437
13792TIP3    H141319   3.651   5.658   0.448
13792TIP3    H241320   3.506   5.629   0.479
13793TIP3   OH241321   4.396   0.767   4.492
13793TIP3    H141322   4.480   0.813   4.496
13793TIP3    H241323   4.348   0.798   4.569
13794TIP3   OH241324   1.986   6.983   1.818
13794TIP3    H141325   1.914   6.921   1.828
13794TIP3    H241326   2.064   6.928   1.812
13795TIP3   OH241327   4.499   5.757   6.140
13795TIP3    H141328   4.453   5.710   6.210
13795TIP3    H241329   4.591   5.734   6.152
13796TIP3   OH241330   1.631   3.080   2.060
13796TIP3    H141331   1.536   3.085   2.049
13796TIP3    H241332   1.659   3.011   2.001
13797TIP3   OH241333   2.592   6.435   5.430
13797TIP3    H141334   2.682   6.403   5.436
13797TIP3    H241335   2.601   6.530   5.428
13798TIP3   OH241336   7.932   1.846   0.297
13798TIP3    H141337   7.991   1.811   0.230
13798TIP3    H241338   7.990   1.892   0.358
13799TIP3   OH241339   3.648   2.121   1.082
13799TIP3    H141340   3.659   2.197   1.140
13799TIP3    H241341   3.585   2.151   1.016
13800TIP3   OH241342   4.663   0.716   4.161
13800TIP3    H141343   4.597   0.740   4.096
13800TIP3    H241344   4.741   0.766   4.135
13801TIP3   OH241345   4.472   6.794   4.596
13801TIP3    H141346   4.560   6.781   4.631
13801TIP3    H241347   4.466   6.732   4.523
13802TIP3   OH241348   0.081   1.648   5.450
13802TIP3    H141349   0.014   1.684   5.508
13802TIP3    H241350   0.044   1.659   5.362
13803TIP3   OH241351   0.404   4.542   1.583
13803TIP3    H141352   0.320   4.546   1.537
13803TIP3    H241353   0.426   4.449   1.587
13804TIP3   OH241354   5.025   5.999   3.634
13804TIP3    H141355   5.077   5.933   3.680
13804TIP3    H241356   5.027   5.972   3.542
13805TIP3   OH241357   0.511   3.193   5.474
13805TIP3    H141358   0.469   3.234   5.549
13805TIP3    H241359   0.499   3.099   5.487
13806TIP3   OH241360   4.200   7.326   5.595
13806TIP3    H141361   4.132   7.265   5.565
13806TIP3    H241362   4.246   7.352   5.515
13807TIP3   OH241363   0.335   1.916   4.014
13807TIP3    H141364   0.271   1.976   3.977
13807TIP3    H241365   0.314   1.915   4.108
13808TIP3   OH241366   1.557   6.352   0.278
13808TIP3    H141367   1.640   6.400   0.270
13808TIP3    H241368   1.519   6.382   0.360
13809TIP3   OH241369   0.128   2.261   6.198
13809TIP3    H141370   0.087   2.274   6.113
13809TIP3    H241371   0.099   2.174   6.225
13810TIP3   OH241372   5.096   0.315   3.482
13810TIP3    H141373   5.070   0.258   3.554
13810TIP3    H241374   5.096   0.258   3.405
13811TIP3   OH241375   5.928   4.698   3.503
13811TIP3    H141376   5.939   4.751   3.582
13811TIP3    H241377   6.011   4.652   3.493
13812TIP3   OH241378   2.227   7.779   2.073
13812TIP3    H141379   2.300   7.724   2.045
13812TIP3    H241380   2.152   7.719   2.078
13813TIP3   OH241381   4.286   5.464   2.114
13813TIP3    H141382   4.289   5.520   2.192
13813TIP3    H241383   4.368   5.482   2.068
13814TIP3   OH241384   6.628   1.690   4.846
13814TIP3    H141385   6.585   1.775   4.856
13814TIP3    H241386   6.560   1.626   4.867
13815TIP3   OH241387   2.984   5.687   4.516
13815TIP3    H141388   3.079   5.676   4.523
13815TIP3    H241389   2.972   5.764   4.462
13816TIP3   OH241390   0.633   0.620   6.635
13816TIP3    H141391   0.553   0.611   6.583
13816TIP3    H241392   0.631   0.710   6.668
13817TIP3   OH241393   1.120   4.614   3.294
13817TIP3    H141394   1.048   4.674   3.310
13817TIP3    H241395   1.145   4.630   3.202
13818TIP3   OH241396   2.117   0.325   2.811
13818TIP3    H141397   2.187   0.370   2.856
13818TIP3    H241398   2.053   0.305   2.879
13819TIP3   OH241399   4.969   3.012   3.464
13819TIP3    H141400   5.013   3.096   3.449
13819TIP3    H241401   5.021   2.949   3.414
13820TIP3   OH241402   2.793   7.164   4.619
13820TIP3    H141403   2.726   7.232   4.616
13820TIP3    H241404   2.841   7.181   4.700
13821TIP3   OH241405   3.967   7.270   0.498
13821TIP3    H141406   4.011   7.229   0.423
13821TIP3    H241407   3.987   7.363   0.490
13822TIP3   OH241408   1.652   6.773   3.418
13822TIP3    H141409   1.660   6.841   3.485
13822TIP3    H241410   1.675   6.818   3.336
13823TIP3   OH241411   1.877   7.583   5.335
13823TIP3    H141412   1.869   7.656   5.396
13823TIP3    H241413   1.910   7.622   5.255
13824TIP3   OH241414   2.651   1.747   0.840
13824TIP3    H141415   2.611   1.786   0.917
13824TIP3    H241416   2.590   1.765   0.769
13825TIP3   OH241417   2.400   1.243   4.542
13825TIP3    H141418   2.391   1.164   4.596
13825TIP3    H241419   2.355   1.221   4.461
13826TIP3   OH241420   6.635   5.501   3.962
13826TIP3    H141421   6.620   5.411   3.991
13826TIP3    H241422   6.631   5.496   3.866
13827TIP3   OH241423   5.795   1.052   4.104
13827TIP3    H141424   5.868   1.006   4.146
13827TIP3    H241425   5.721   0.992   4.113
13828TIP3   OH241426   7.254   1.112   0.490
13828TIP3    H141427   7.294   1.188   0.532
13828TIP3    H241428   7.190   1.149   0.429
13829TIP3   OH241429   3.593   2.597   1.342
13829TIP3    H141430   3.650   2.662   1.300
13829TIP3    H241431   3.588   2.625   1.433
13830TIP3   OH241432   7.851   6.020   2.915
13830TIP3    H141433   7.819   5.984   2.997
13830TIP3    H241434   7.773   6.053   2.870
13831TIP3   OH241435   1.783   7.133   3.883
13831TIP3    H141436   1.775   7.196   3.954
13831TIP3    H241437   1.783   7.048   3.926
13832TIP3   OH241438   0.870   3.598   3.260
13832TIP3    H141439   0.943   3.545   3.229
13832TIP3    H241440   0.899   3.688   3.250
13833TIP3   OH241441   1.573   4.508   4.382
13833TIP3    H141442   1.581   4.435   4.320
13833TIP3    H241443   1.578   4.466   4.468
13834TIP3   OH241444   6.642   3.822   3.568
13834TIP3    H141445   6.547   3.833   3.566
13834TIP3    H241446   6.654   3.728   3.582
13835TIP3   OH241447   8.103   0.903   3.098
13835TIP3    H141448   8.110   0.858   3.014
13835TIP3    H241449   8.083   0.833   3.161
13836TIP3   OH241450   6.844   2.503   0.081
13836TIP3    H141451   6.799   2.497   0.165
13836TIP3    H241452   6.907   2.574   0.092
13837TIP3   OH241453   7.160   3.445   6.537
13837TIP3    H141454   7.144   3.425   6.629
13837TIP3    H241455   7.105   3.522   6.520
13838TIP3   OH241456   7.716   0.836   2.583
13838TIP3    H141457   7.730   0.869   2.495
13838TIP3    H241458   7.800   0.796   2.607
13839TIP3   OH241459   5.625   0.434   5.952
13839TIP3    H141460   5.689   0.407   6.019
13839TIP3    H241461   5.544   0.391   5.978
13840TIP3   OH241462   4.813   3.051   0.658
13840TIP3    H141463   4.866   2.982   0.617
13840TIP3    H241464   4.807   3.118   0.591
13841TIP3   OH241465   4.152   1.310   3.722
13841TIP3    H141466   4.186   1.371   3.656
13841TIP3    H241467   4.071   1.277   3.683
13842TIP3   OH241468   6.043   1.899   5.198
13842TIP3    H141469   5.983   1.833   5.163
13842TIP3    H241470   5.991   1.948   5.261
13843TIP3   OH241471   0.176   5.520   0.864
13843TIP3    H141472   0.200   5.496   0.953
13843TIP3    H241473   0.181   5.616   0.862
13844TIP3   OH241474   4.116   3.627   5.996
13844TIP3    H141475   4.073   3.680   5.929
13844TIP3    H241476   4.052   3.560   6.019
13845TIP3   OH241477   1.029   5.110   3.891
13845TIP3    H141478   1.020   5.174   3.820
13845TIP3    H241479   1.088   5.152   3.953
13846TIP3   OH241480   4.182   0.954   6.519
13846TIP3    H141481   4.125   1.029   6.503
13846TIP3    H241482   4.253   0.989   6.573
13847TIP3   OH241483   8.075   3.488   4.045
13847TIP3    H141484   7.990   3.494   4.089
13847TIP3    H241485   8.083   3.570   3.997
13848TIP3   OH241486   3.700   0.801   0.550
13848TIP3    H141487   3.768   0.797   0.618
13848TIP3    H241488   3.725   0.734   0.487
13849TIP3   OH241489   4.494   3.769   1.297
13849TIP3    H141490   4.468   3.773   1.389
13849TIP3    H241491   4.512   3.860   1.273
13850TIP3   OH241492   6.705   5.458   4.667
13850TIP3    H141493   6.636   5.414   4.615
13850TIP3    H241494   6.657   5.503   4.737
13851TIP3   OH241495   7.552   6.933   5.099
13851TIP3    H141496   7.471   6.982   5.085
13851TIP3    H241497   7.607   6.955   5.025
13852TIP3   OH241498   5.207   4.641   0.409
13852TIP3    H141499   5.302   4.636   0.399
13852TIP3    H241500   5.194   4.686   0.492
13853TIP3   OH241501   2.840   7.046   3.895
13853TIP3    H141502   2.916   7.069   3.842
13853TIP3    H241503   2.852   6.953   3.914
13854TIP3   OH241504   7.944   2.671   6.421
13854TIP3    H141505   7.877   2.633   6.365
13854TIP3    H241506   7.949   2.611   6.496
13855TIP3   OH241507   6.139   0.580   2.138
13855TIP3    H141508   6.113   0.499   2.183
13855TIP3    H241509   6.234   0.575   2.132
13856TIP3   OH241510   5.773   6.474   2.428
13856TIP3    H141511   5.724   6.521   2.360
13856TIP3    H241512   5.807   6.544   2.484
13857TIP3   OH241513   6.799   2.641   0.962
13857TIP3    H141514   6.788   2.597   0.878
13857TIP3    H241515   6.712   2.675   0.983
13858TIP3   OH241516   1.880   1.190   1.517
13858TIP3    H141517   1.892   1.138   1.596
13858TIP3    H241518   1.909   1.134   1.446
13859TIP3   OH241519   2.874   5.101   3.350
13859TIP3    H141520   2.861   5.101   3.255
13859TIP3    H241521   2.967   5.081   3.362
13860TIP3   OH241522   0.828   5.558   3.284
13860TIP3    H141523   0.846   5.568   3.377
13860TIP3    H241524   0.765   5.486   3.279
13861TIP3   OH241525   6.855   5.050   1.966
13861TIP3    H141526   6.914   4.984   1.930
13861TIP3    H241527   6.909   5.099   2.029
13862TIP3   OH241528   1.858   1.269   5.067
13862TIP3    H141529   1.902   1.255   4.983
13862TIP3    H241530   1.898   1.205   5.126
13863TIP3   OH241531   5.848   1.382   4.203
13863TIP3    H141532   5.793   1.314   4.242
13863TIP3    H241533   5.934   1.368   4.241
13864TIP3   OH241534   0.014   0.388   4.618
13864TIP3    H141535  -0.012   0.349   4.535
13864TIP3    H241536   0.074   0.459   4.593
13865TIP3   OH241537   5.293   6.703   6.675
13865TIP3    H141538   5.356   6.744   6.735
13865TIP3    H241539   5.269   6.773   6.615
13866TIP3   OH241540   2.977   6.640   5.598
13866TIP3    H141541   2.952   6.678   5.514
13866TIP3    H241542   3.073   6.640   5.596
13867TIP3   OH241543   7.324   5.279   5.673
13867TIP3    H141544   7.261   5.212   5.699
13867TIP3    H241545   7.322   5.343   5.744
13868TIP3   OH241546   1.747   0.707   2.670
13868TIP3    H141547   1.817   0.664   2.620
13868TIP3    H241548   1.775   0.701   2.761
13869TIP3   OH241549   7.501   2.500   3.691
13869TIP3    H141550   7.474   2.437   3.758
13869TIP3    H241551   7.555   2.450   3.631
13870TIP3   OH241552   4.158   4.538   1.649
13870TIP3    H141553   4.163   4.633   1.644
13870TIP3    H241554   4.094   4.513   1.582
13871TIP3   OH241555   3.288   0.814   4.338
13871TIP3    H141556   3.198   0.837   4.357
13871TIP3    H241557   3.284   0.722   4.309
13872TIP3   OH241558   4.173   2.351   2.553
13872TIP3    H141559   4.253   2.311   2.585
13872TIP3    H241560   4.104   2.287   2.572
13873TIP3   OH241561   2.233   3.501   3.944
13873TIP3    H141562   2.208   3.481   3.853
13873TIP3    H241563   2.270   3.419   3.976
13874TIP3   OH241564   6.746   4.692   4.313
13874TIP3    H141565   6.704   4.758   4.257
13874TIP3    H241566   6.717   4.715   4.402
13875TIP3   OH241567   1.132   4.751   4.453
13875TIP3    H141568   1.212   4.803   4.459
13875TIP3    H241569   1.061   4.815   4.449
13876TIP3   OH241570   8.037   6.605   3.888
13876TIP3    H141571   8.055   6.638   3.801
13876TIP3    H241572   8.123   6.584   3.925
13877TIP3   OH241573   0.471   3.305   6.538
13877TIP3    H141574   0.493   3.224   6.491
13877TIP3    H241575   0.552   3.357   6.535
13878TIP3   OH241576   1.013   2.266   4.300
13878TIP3    H141577   1.054   2.259   4.214
13878TIP3    H241578   1.078   2.310   4.355
13879TIP3   OH241579   4.860   5.426   4.387
13879TIP3    H141580   4.890   5.420   4.478
13879TIP3    H241581   4.775   5.382   4.387
13880TIP3   OH241582   7.982   4.038   4.930
13880TIP3    H141583   7.962   3.946   4.910
13880TIP3    H241584   8.005   4.077   4.846
13881TIP3   OH241585   5.553   4.498   4.421
13881TIP3    H141586   5.577   4.406   4.407
13881TIP3    H241587   5.566   4.539   4.336
13882TIP3   OH241588   1.030   7.459   0.355
13882TIP3    H141589   0.972   7.534   0.368
13882TIP3    H241590   0.970   7.388   0.329
13883TIP3   OH241591   7.057   2.377   5.937
13883TIP3    H141592   7.117   2.427   5.993
13883TIP3    H241593   7.108   2.358   5.858
13884TIP3   OH241594   4.922   1.727   2.757
13884TIP3    H141595   4.927   1.764   2.845
13884TIP3    H241596   4.851   1.663   2.762
13885TIP3   OH241597   7.467   6.397   6.465
13885TIP3    H141598   7.464   6.304   6.446
13885TIP3    H241599   7.445   6.404   6.558
13886TIP3   OH241600   0.713   1.598   3.050
13886TIP3    H141601   0.676   1.558   2.971
13886TIP3    H241602   0.693   1.536   3.120
13887TIP3   OH241603   6.621   7.185   1.712
13887TIP3    H141604   6.578   7.114   1.760
13887TIP3    H241605   6.603   7.166   1.620
13888TIP3   OH241606   0.461   3.633   2.176
13888TIP3    H141607   0.380   3.582   2.168
13888TIP3    H241608   0.530   3.574   2.148
13889TIP3   OH241609   0.842   7.817   4.822
13889TIP3    H141610   0.867   7.748   4.882
13889TIP3    H241611   0.873   7.787   4.736
13890TIP3   OH241612   1.508   6.866   1.645
13890TIP3    H141613   1.577   6.915   1.689
13890TIP3    H241614   1.499   6.909   1.560
13891TIP3   OH241615   1.854   3.227   2.113
13891TIP3    H141616   1.770   3.195   2.081
13891TIP3    H241617   1.918   3.191   2.051
13892TIP3   OH241618   6.185   3.322   1.647
13892TIP3    H141619   6.191   3.275   1.564
13892TIP3    H241620   6.161   3.411   1.623
13893TIP3   OH241621   2.293   6.297   1.810
13893TIP3    H141622   2.214   6.271   1.857
13893TIP3    H241623   2.361   6.298   1.877
13894TIP3   OH241624   4.988   0.576   5.930
13894TIP3    H141625   5.017   0.666   5.920
13894TIP3    H241626   4.971   0.565   6.023
13895TIP3   OH241627   3.422   7.750   4.850
13895TIP3    H141628   3.514   7.738   4.871
13895TIP3    H241629   3.412   7.845   4.840
13896TIP3   OH241630   0.310   0.150   4.944
13896TIP3    H141631   0.231   0.189   4.982
13896TIP3    H241632   0.382   0.199   4.983
13897TIP3   OH241633   0.676   3.784   4.018
13897TIP3    H141634   0.756   3.781   4.069
13897TIP3    H241635   0.615   3.728   4.066
13898TIP3   OH241636   7.392   5.635   4.316
13898TIP3    H141637   7.297   5.630   4.305
13898TIP3    H241638   7.409   5.726   4.340
13899TIP3   OH241639   3.596   3.836   4.834
13899TIP3    H141640   3.556   3.827   4.920
13899TIP3    H241641   3.601   3.747   4.799
13900TIP3   OH241642   5.091   4.819   2.700
13900TIP3    H141643   5.042   4.885   2.651
13900TIP3    H241644   5.044   4.811   2.783
13901TIP3   OH241645   7.207   7.817   6.052
13901TIP3    H141646   7.233   7.749   6.114
13901TIP3    H241647   7.134   7.862   6.094
13902TIP3   OH241648   0.156   5.886   3.424
13902TIP3    H141649   0.200   5.965   3.455
13902TIP3    H241650   0.226   5.832   3.387
13903TIP3   OH241651   0.217   3.995   2.826
13903TIP3    H141652   0.208   3.957   2.739
13903TIP3    H241653   0.129   3.990   2.864
13904TIP3   OH241654   4.221   0.288   1.738
13904TIP3    H141655   4.200   0.347   1.666
13904TIP3    H241656   4.169   0.210   1.721
13905TIP3   OH241657   5.830   7.214   4.992
13905TIP3    H141658   5.828   7.198   4.897
13905TIP3    H241659   5.879   7.296   5.001
13906TIP3   OH241660   5.056   3.815   2.215
13906TIP3    H141661   5.017   3.746   2.161
13906TIP3    H241662   5.007   3.894   2.192
13907TIP3   OH241663   2.349   1.236   2.534
13907TIP3    H141664   2.377   1.322   2.503
13907TIP3    H241665   2.361   1.178   2.459
13908TIP3   OH241666   2.006   3.039   6.341
13908TIP3    H141667   2.056   3.121   6.341
13908TIP3    H241668   1.917   3.067   6.363
13909TIP3   OH241669   3.500   1.391   3.957
13909TIP3    H141670   3.522   1.462   4.018
13909TIP3    H241671   3.572   1.329   3.966
13910TIP3   OH241672   0.946   7.430   4.119
13910TIP3    H141673   1.018   7.385   4.075
13910TIP3    H241674   0.882   7.446   4.049
13911TIP3   OH241675   2.017   0.369   3.325
13911TIP3    H141676   2.030   0.277   3.301
13911TIP3    H241677   2.098   0.412   3.297
13912TIP3   OH241678   1.968   3.237   3.829
13912TIP3    H141679   1.973   3.228   3.925
13912TIP3    H241680   1.903   3.172   3.802
13913TIP3   OH241681   0.784   1.081   0.399
13913TIP3    H141682   0.700   1.073   0.444
13913TIP3    H241683   0.765   1.138   0.324
13914TIP3   OH241684   4.665   5.802   2.980
13914TIP3    H141685   4.603   5.838   2.917
13914TIP3    H241686   4.730   5.756   2.927
13915TIP3   OH241687   2.096   1.644   1.986
13915TIP3    H141688   2.125   1.654   1.895
13915TIP3    H241689   2.169   1.600   2.030
13916TIP3   OH241690   6.197   5.531   5.562
13916TIP3    H141691   6.222   5.575   5.481
13916TIP3    H241692   6.237   5.445   5.556
13917TIP3   OH241693   4.795   4.262   6.579
13917TIP3    H141694   4.848   4.199   6.628
13917TIP3    H241695   4.859   4.326   6.547
13918TIP3   OH241696   5.780   0.518   1.295
13918TIP3    H141697   5.842   0.486   1.229
13918TIP3    H241698   5.801   0.469   1.374
13919TIP3   OH241699   1.569   5.542   5.722
13919TIP3    H141700   1.654   5.559   5.761
13919TIP3    H241701   1.507   5.585   5.781
13920TIP3   OH241702   2.273   6.792   6.249
13920TIP3    H141703   2.283   6.878   6.209
13920TIP3    H241704   2.196   6.801   6.305
13921TIP3   OH241705   4.949   6.346   2.120
13921TIP3    H141706   4.895   6.401   2.176
13921TIP3    H241707   5.032   6.393   2.114
13922TIP3   OH241708   2.097   0.908   1.351
13922TIP3    H141709   2.003   0.889   1.353
13922TIP3    H241710   2.134   0.851   1.418
13923TIP3   OH241711   1.950   2.088   0.565
13923TIP3    H141712   1.856   2.073   0.571
13923TIP3    H241713   1.970   2.147   0.637
13924TIP3   OH241714   6.331   7.571   6.325
13924TIP3    H141715   6.243   7.592   6.356
13924TIP3    H241716   6.333   7.476   6.319
13925TIP3   OH241717   0.509   7.663   0.614
13925TIP3    H141718   0.462   7.722   0.673
13925TIP3    H241719   0.485   7.693   0.526
13926TIP3   OH241720   7.346   3.110   5.916
13926TIP3    H141721   7.254   3.095   5.894
13926TIP3    H241722   7.383   3.154   5.840
13927TIP3   OH241723   3.957   5.351   2.440
13927TIP3    H141724   3.978   5.298   2.517
13927TIP3    H241725   4.013   5.315   2.371
13928TIP3   OH241726   5.990   4.800   4.505
13928TIP3    H141727   5.962   4.719   4.463
13928TIP3    H241728   5.969   4.869   4.441
13929TIP3   OH241729   3.514   3.921   2.365
13929TIP3    H141730   3.603   3.886   2.371
13929TIP3    H241731   3.471   3.867   2.299
13930TIP3   OH241732   7.335   4.713   4.281
13930TIP3    H141733   7.304   4.664   4.204
13930TIP3    H241734   7.255   4.732   4.331
13931TIP3   OH241735   3.171   0.367   2.585
13931TIP3    H141736   3.184   0.335   2.496
13931TIP3    H241737   3.077   0.386   2.590
13932TIP3   OH241738   5.462   0.276   2.907
13932TIP3    H141739   5.442   0.326   2.987
13932TIP3    H241740   5.411   0.196   2.916
13933TIP3   OH241741   6.743   5.720   6.083
13933TIP3    H141742   6.758   5.626   6.097
13933TIP3    H241743   6.648   5.729   6.080
13934TIP3   OH241744   7.085   5.207   2.923
13934TIP3    H141745   7.016   5.200   2.858
13934TIP3    H241746   7.166   5.213   2.871
13935TIP3   OH241747   2.054   0.216   5.443
13935TIP3    H141748   2.109   0.287   5.478
13935TIP3    H241749   1.965   0.239   5.470
13936TIP3   OH241750   3.216   6.017   3.130
13936TIP3    H141751   3.132   6.060   3.113
13936TIP3    H241752   3.240   5.976   3.047
13937TIP3   OH241753   2.057   1.387   0.491
13937TIP3    H141754   2.139   1.369   0.445
13937TIP3    H241755   1.995   1.410   0.422
13938TIP3   OH241756   8.230   7.683   1.505
13938TIP3    H141757   8.173   7.631   1.449
13938TIP3    H241758   8.312   7.634   1.508
13939TIP3   OH241759   0.211   2.673   0.195
13939TIP3    H141760   0.123   2.635   0.191
13939TIP3    H241761   0.205   2.741   0.262
13940TIP3   OH241762   1.832   5.835   2.872
13940TIP3    H141763   1.775   5.758   2.880
13940TIP3    H241764   1.778   5.907   2.903
13941TIP3   OH241765   0.817   7.024   3.701
13941TIP3    H141766   0.878   6.983   3.639
13941TIP3    H241767   0.777   7.094   3.651
13942TIP3   OH241768   6.056   5.235   4.799
13942TIP3    H141769   6.113   5.307   4.774
13942TIP3    H241770   6.004   5.216   4.720
13943TIP3   OH241771   7.235   3.529   0.334
13943TIP3    H141772   7.208   3.441   0.362
13943TIP3    H241773   7.318   3.515   0.289
13944TIP3   OH241774   1.981   5.136   2.365
13944TIP3    H141775   2.002   5.173   2.279
13944TIP3    H241776   1.920   5.065   2.347
13945TIP3   OH241777   2.798   3.168   0.610
13945TIP3    H141778   2.710   3.205   0.606
13945TIP3    H241779   2.816   3.159   0.703
13946TIP3   OH241780   1.476   4.850   4.660
13946TIP3    H141781   1.507   4.843   4.570
13946TIP3    H241782   1.501   4.939   4.687
13947TIP3   OH241783   3.123   6.110   0.453
13947TIP3    H141784   3.088   6.166   0.383
13947TIP3    H241785   3.118   6.165   0.531
13948TIP3   OH241786   7.914   0.933   0.079
13948TIP3    H141787   7.985   0.899   0.025
13948TIP3    H241788   7.950   1.013   0.117
13949TIP3   OH241789   7.679   6.054   5.030
13949TIP3    H141790   7.685   6.053   5.126
13949TIP3    H241791   7.668   6.147   5.008
13950TIP3   OH241792   6.587   5.971   3.501
13950TIP3    H141793   6.508   6.002   3.457
13950TIP3    H241794   6.652   6.040   3.486
13951TIP3   OH241795   7.457   7.477   1.294
13951TIP3    H141796   7.496   7.532   1.363
13951TIP3    H241797   7.522   7.477   1.224
13952TIP3   OH241798   1.544   2.749   0.639
13952TIP3    H141799   1.626   2.707   0.665
13952TIP3    H241800   1.572   2.822   0.583
13953TIP3   OH241801   3.859   3.240   3.271
13953TIP3    H141802   3.822   3.272   3.353
13953TIP3    H241803   3.888   3.320   3.226
13954TIP3   OH241804   6.432   1.213   6.035
13954TIP3    H141805   6.395   1.299   6.053
13954TIP3    H241806   6.475   1.187   6.116
13955TIP3   OH241807   2.833   2.499   2.440
13955TIP3    H141808   2.896   2.466   2.376
13955TIP3    H241809   2.757   2.524   2.387
13956TIP3   OH241810   3.689   4.959   3.025
13956TIP3    H141811   3.646   4.888   3.073
13956TIP3    H241812   3.779   4.930   3.014
13957TIP3   OH241813   0.507   6.968   0.498
13957TIP3    H141814   0.446   6.982   0.571
13957TIP3    H241815   0.451   6.943   0.424
13958TIP3   OH241816   7.782   3.706   4.608
13958TIP3    H141817   7.778   3.777   4.672
13958TIP3    H241818   7.850   3.733   4.547
13959TIP3   OH241819   2.958   3.957   0.905
13959TIP3    H141820   3.013   3.885   0.935
13959TIP3    H241821   2.991   4.033   0.952
13960TIP3   OH241822   8.055   5.959   4.439
13960TIP3    H141823   7.970   5.956   4.483
13960TIP3    H241824   8.095   5.874   4.456
13961TIP3   OH241825   1.467   5.729   0.747
13961TIP3    H141826   1.532   5.789   0.710
13961TIP3    H241827   1.455   5.759   0.837
13962TIP3   OH241828   8.197   1.442   6.173
13962TIP3    H141829   8.187   1.445   6.078
13962TIP3    H241830   8.252   1.365   6.189
13963TIP3   OH241831   1.416   5.624   4.971
13963TIP3    H141832   1.498   5.576   4.977
13963TIP3    H241833   1.441   5.710   4.936
13964TIP3   OH241834   7.090   2.802   6.738
13964TIP3    H141835   7.088   2.707   6.736
13964TIP3    H241836   7.052   2.828   6.654
13965TIP3   OH241837   6.137   3.626   3.565
13965TIP3    H141838   6.163   3.670   3.484
13965TIP3    H241839   6.045   3.603   3.551
13966TIP3   OH241840   3.687   2.867   5.629
13966TIP3    H141841   3.668   2.940   5.687
13966TIP3    H241842   3.740   2.906   5.559
13967TIP3   OH241843   1.545   0.175   3.810
13967TIP3    H141844   1.612   0.137   3.753
13967TIP3    H241845   1.491   0.229   3.752
13968TIP3   OH241846   2.356   3.621   5.294
13968TIP3    H141847   2.380   3.577   5.375
13968TIP3    H241848   2.304   3.556   5.246
13969TIP3   OH241849   4.018   6.791   2.487
13969TIP3    H141850   3.929   6.768   2.459
13969TIP3    H241851   4.005   6.864   2.548
13970TIP3   OH241852   1.034   2.657   2.699
13970TIP3    H141853   1.026   2.749   2.674
13970TIP3    H241854   0.945   2.631   2.724
13971TIP3   OH241855   0.144   1.155   2.128
13971TIP3    H141856   0.168   1.247   2.124
13971TIP3    H241857   0.131   1.137   2.221
13972TIP3   OH241858   2.989   7.678   2.622
13972TIP3    H141859   2.996   7.771   2.599
13972TIP3    H241860   3.055   7.635   2.569
13973TIP3   OH241861   6.245   1.690   6.630
13973TIP3    H141862   6.234   1.600   6.662
13973TIP3    H241863   6.302   1.680   6.554
13974TIP3   OH241864   7.177   4.598   0.569
13974TIP3    H141865   7.193   4.551   0.487
13974TIP3    H241866   7.265   4.615   0.604
13975TIP3   OH241867   3.873   3.724   5.092
13975TIP3    H141868   3.881   3.716   5.187
13975TIP3    H241869   3.853   3.635   5.063
13976TIP3   OH241870   4.110   0.997   5.062
13976TIP3    H141871   4.056   1.058   5.112
13976TIP3    H241872   4.195   0.998   5.106
13977TIP3   OH241873   6.933   1.649   0.801
13977TIP3    H141874   6.943   1.628   0.709
13977TIP3    H241875   6.905   1.741   0.802
13978TIP3   OH241876   1.944   7.622   6.568
13978TIP3    H141877   1.988   7.629   6.483
13978TIP3    H241878   1.975   7.540   6.605
13979TIP3   OH241879   6.106   2.688   0.875
13979TIP3    H141880   6.184   2.690   0.931
13979TIP3    H241881   6.062   2.606   0.897
13980TIP3   OH241882   4.288   0.765   3.750
13980TIP3    H141883   4.201   0.805   3.748
13980TIP3    H241884   4.272   0.674   3.776
13981TIP3   OH241885   3.351   4.182   4.792
13981TIP3    H141886   3.282   4.131   4.835
13981TIP3    H241887   3.349   4.267   4.836
13982TIP3   OH241888   7.831   3.524   4.141
13982TIP3    H141889   7.804   3.437   4.172
13982TIP3    H241890   7.759   3.553   4.084
13983TIP3   OH241891   5.672   6.483   0.553
13983TIP3    H141892   5.621   6.488   0.634
13983TIP3    H241893   5.607   6.488   0.483
13984TIP3   OH241894   1.672   2.218   6.039
13984TIP3    H141895   1.674   2.298   5.986
13984TIP3    H241896   1.618   2.241   6.114
13985TIP3   OH241897   0.386   4.206   3.928
13985TIP3    H141898   0.366   4.281   3.872
13985TIP3    H241899   0.479   4.189   3.911
13986TIP3   OH241900   1.749   2.298   4.305
13986TIP3    H141901   1.680   2.242   4.269
13986TIP3    H241902   1.820   2.294   4.241
13987TIP3   OH241903   0.934   1.721   5.709
13987TIP3    H141904   0.966   1.812   5.705
13987TIP3    H241905   0.953   1.693   5.798
13988TIP3   OH241906   3.408   6.494   0.432
13988TIP3    H141907   3.359   6.444   0.367
13988TIP3    H241908   3.500   6.472   0.413
13989TIP3   OH241909   0.735   7.084   1.342
13989TIP3    H141910   0.640   7.074   1.334
13989TIP3    H241911   0.761   7.126   1.259
13990TIP3   OH241912   5.793   4.254   2.277
13990TIP3    H141913   5.716   4.310   2.269
13990TIP3    H241914   5.821   4.264   2.368
13991TIP3   OH241915   1.539   2.033   0.816
13991TIP3    H141916   1.486   2.113   0.808
13991TIP3    H241917   1.507   1.977   0.745
13992TIP3   OH241918   6.516   2.544   1.868
13992TIP3    H141919   6.492   2.487   1.795
13992TIP3    H241920   6.594   2.503   1.905
13993TIP3   OH241921   1.131   6.542   3.811
13993TIP3    H141922   1.169   6.459   3.838
13993TIP3    H241923   1.049   6.518   3.768
13994TIP3   OH241924   0.593   1.083   4.310
13994TIP3    H141925   0.582   1.151   4.244
13994TIP3    H241926   0.574   1.001   4.264
13995TIP3   OH241927   4.546   0.764   0.310
13995TIP3    H141928   4.551   0.849   0.265
13995TIP3    H241929   4.607   0.708   0.263
13996TIP3   OH241930   5.741   1.617   3.301
13996TIP3    H141931   5.668   1.565   3.268
13996TIP3    H241932   5.730   1.703   3.261
13997TIP3   OH241933   2.298   0.690   3.093
13997TIP3    H141934   2.303   0.761   3.029
13997TIP3    H241935   2.379   0.698   3.144
13998TIP3   OH241936   0.173   0.580   6.334
13998TIP3    H141937   0.166   0.672   6.309
13998TIP3    H241938   0.082   0.550   6.342
13999TIP3   OH241939   1.098   5.299   5.736
13999TIP3    H141940   1.068   5.208   5.738
13999TIP3    H241941   1.193   5.293   5.722
14000TIP3   OH241942   2.401   0.679   0.289
14000TIP3    H141943   2.418   0.773   0.293
14000TIP3    H241944   2.489   0.640   0.286
14001TIP3   OH241945   7.675   1.529   1.336
14001TIP3    H141946   7.676   1.542   1.430
14001TIP3    H241947   7.583   1.521   1.313
14002TIP3   OH241948   4.775   4.807   6.108
14002TIP3    H141949   4.680   4.804   6.099
14002TIP3    H241950   4.791   4.887   6.159
14003TIP3   OH241951   2.052   3.750   1.390
14003TIP3    H141952   2.088   3.805   1.459
14003TIP3    H241953   2.123   3.742   1.326
14004TIP3   OH241954   4.870   5.456   3.727
14004TIP3    H141955   4.804   5.497   3.783
14004TIP3    H241956   4.933   5.417   3.788
14005TIP3   OH241957   4.351   0.268   2.181
14005TIP3    H141958   4.300   0.303   2.108
14005TIP3    H241959   4.300   0.291   2.259
14006TIP3   OH241960   1.067   0.753   3.490
14006TIP3    H141961   1.092   0.759   3.398
14006TIP3    H241962   1.147   0.771   3.539
14007TIP3   OH241963   2.580   7.711   3.510
14007TIP3    H141964   2.670   7.677   3.511
14007TIP3    H241965   2.589   7.804   3.528
14008TIP3   OH241966   1.267   7.262   3.435
14008TIP3    H141967   1.325   7.265   3.358
14008TIP3    H241968   1.247   7.354   3.453
14009TIP3   OH241969   4.705   0.538   6.414
14009TIP3    H141970   4.795   0.569   6.427
14009TIP3    H241971   4.657   0.614   6.382
14010TIP3   OH241972   3.931   5.772   3.557
14010TIP3    H141973   3.920   5.844   3.619
14010TIP3    H241974   3.876   5.796   3.483
14011TIP3   OH241975   6.144   5.022   2.820
14011TIP3    H141976   6.050   5.029   2.806
14011TIP3    H241977   6.157   5.049   2.911
14012TIP3   OH241978   6.345   1.966   2.557
14012TIP3    H141979   6.257   1.994   2.534
14012TIP3    H241980   6.358   1.997   2.646
14013TIP3   OH241981   2.165   3.791   0.276
14013TIP3    H141982   2.119   3.732   0.216
14013TIP3    H241983   2.100   3.858   0.298
14014TIP3   OH241984   4.391   1.585   4.224
14014TIP3    H141985   4.388   1.490   4.231
14014TIP3    H241986   4.346   1.617   4.302
14015TIP3   OH241987   1.925   1.448   1.513
14015TIP3    H141988   1.841   1.487   1.490
14015TIP3    H241989   1.913   1.354   1.500
14016TIP3   OH241990   0.668   7.691   1.363
14016TIP3    H141991   0.580   7.724   1.377
14016TIP3    H241992   0.698   7.664   1.450
14017TIP3   OH241993   2.212   2.044   4.568
14017TIP3    H141994   2.246   1.973   4.622
14017TIP3    H241995   2.214   2.009   4.479
14018TIP3   OH241996   4.469   0.579   1.700
14018TIP3    H141997   4.380   0.614   1.708
14018TIP3    H241998   4.467   0.498   1.751
14019TIP3   OH241999   0.227   0.757   0.301
14019TIP3    H142000   0.319   0.781   0.299
14019TIP3    H242001   0.218   0.702   0.379
14020TIP3   OH242002   7.170   5.602   6.253
14020TIP3    H142003   7.158   5.684   6.301
14020TIP3    H242004   7.265   5.597   6.238
14021TIP3   OH242005   1.422   5.566   1.647
14021TIP3    H142006   1.428   5.649   1.692
14021TIP3    H242007   1.328   5.556   1.627
14022TIP3   OH242008   2.881   3.952   0.198
14022TIP3    H142009   2.970   3.939   0.164
14022TIP3    H242010   2.847   4.026   0.148
14023TIP3   OH242011   4.273   3.977   4.457
14023TIP3    H142012   4.243   3.930   4.379
14023TIP3    H242013   4.202   3.968   4.520
14024TIP3   OH242014   5.433   2.994   2.084
14024TIP3    H142015   5.353   3.044   2.103
14024TIP3    H242016   5.431   2.923   2.148
14025TIP3   OH242017   6.640   5.960   6.738
14025TIP3    H142018   6.660   5.868   6.757
14025TIP3    H242019   6.547   5.959   6.714
14026TIP3   OH242020   6.031   7.097   3.813
14026TIP3    H142021   6.035   7.030   3.744
14026TIP3    H242022   6.105   7.155   3.795
14027TIP3   OH242023   2.154   4.233   6.745
14027TIP3    H142024   2.121   4.146   6.766
14027TIP3    H242025   2.247   4.230   6.770
14028TIP3   OH242026   4.934   3.742   5.009
14028TIP3    H142027   4.852   3.697   5.028
14028TIP3    H242028   4.910   3.834   5.001
14029TIP3   OH242029   7.923   5.085   4.364
14029TIP3    H142030   7.967   5.088   4.449
14029TIP3    H242031   7.949   5.002   4.326
14030TIP3   OH242032   8.017   0.123   2.911
14030TIP3    H142033   7.975   0.081   2.986
14030TIP3    H242034   7.954   0.115   2.840
14031TIP3   OH242035   2.607   1.082   3.525
14031TIP3    H142036   2.600   1.177   3.515
14031TIP3    H242037   2.664   1.070   3.601
14032TIP3   OH242038   1.032   5.518   6.072
14032TIP3    H142039   0.969   5.463   6.025
14032TIP3    H242040   1.013   5.607   6.042
14033TIP3   OH242041   7.678   3.580   0.673
14033TIP3    H142042   7.726   3.529   0.739
14033TIP3    H242043   7.740   3.591   0.601
14034TIP3   OH242044   6.829   6.758   6.718
14034TIP3    H142045   6.761   6.702   6.679
14034TIP3    H242046   6.788   6.844   6.727
14035TIP3   OH242047   4.499   7.079   5.024
14035TIP3    H142048   4.412   7.104   5.053
14035TIP3    H242049   4.485   7.039   4.938
14036TIP3   OH242050   0.663   2.259   1.048
14036TIP3    H142051   0.723   2.215   1.108
14036TIP3    H242052   0.647   2.345   1.088
14037TIP3   OH242053   4.081   4.685   1.942
14037TIP3    H142054   4.130   4.629   1.881
14037TIP3    H242055   4.148   4.737   1.986
14038TIP3   OH242056   2.050   4.764   6.455
14038TIP3    H142057   2.113   4.802   6.516
14038TIP3    H242058   2.016   4.687   6.501
14039TIP3   OH242059   6.941   0.573   5.721
14039TIP3    H142060   6.952   0.482   5.694
14039TIP3    H242061   6.964   0.624   5.644
14040TIP3   OH242062   0.606   0.115   2.467
14040TIP3    H142063   0.581   0.034   2.424
14040TIP3    H242064   0.700   0.123   2.450
14041TIP3   OH242065   1.012   3.226   5.603
14041TIP3    H142066   1.069   3.290   5.645
14041TIP3    H242067   1.048   3.216   5.515
14042TIP3   OH242068   0.967   2.400   1.351
14042TIP3    H142069   0.979   2.320   1.402
14042TIP3    H242070   0.981   2.372   1.260
14043TIP3   OH242071   5.188   6.096   3.276
14043TIP3    H142072   5.104   6.063   3.308
14043TIP3    H242073   5.171   6.187   3.252
14044TIP3   OH242074   3.321   7.333   6.691
14044TIP3    H142075   3.304   7.244   6.722
14044TIP3    H242076   3.234   7.367   6.668
14045TIP3   OH242077   7.712   1.231   5.509
14045TIP3    H142078   7.650   1.161   5.489
14045TIP3    H242079   7.694   1.254   5.601
14046TIP3   OH242080   6.925   3.428   3.470
14046TIP3    H142081   6.996   3.491   3.463
14046TIP3    H242082   6.870   3.445   3.394
14047TIP3   OH242083   5.727   1.281   2.123
14047TIP3    H142084   5.665   1.234   2.179
14047TIP3    H242085   5.780   1.212   2.083
14048TIP3   OH242086   7.424   6.238   0.849
14048TIP3    H142087   7.370   6.268   0.776
14048TIP3    H242088   7.510   6.221   0.809
14049TIP3   OH242089   0.935   4.271   4.201
14049TIP3    H142090   0.997   4.201   4.181
14049TIP3    H242091   0.989   4.342   4.236
14050TIP3   OH242092   0.122   3.514   0.054
14050TIP3    H142093   0.064   3.579   0.094
14050TIP3    H242094   0.097   3.511  -0.038
14051TIP3   OH242095   3.902   3.010   6.312
14051TIP3    H142096   3.823   3.035   6.264
14051TIP3    H242097   3.871   2.960   6.387
14052TIP3   OH242098   7.159   5.081   5.722
14052TIP3    H142099   7.163   4.992   5.686
14052TIP3    H242100   7.072   5.113   5.699
14053TIP3   OH242101   2.999   1.053   1.421
14053TIP3    H142102   2.955   0.971   1.443
14053TIP3    H242103   3.041   1.080   1.503
14054TIP3   OH242104   1.861   2.025   4.374
14054TIP3    H142105   1.933   2.081   4.401
14054TIP3    H242106   1.785   2.061   4.420
14055TIP3   OH242107   4.281   3.269   4.488
14055TIP3    H142108   4.336   3.323   4.431
14055TIP3    H242109   4.217   3.228   4.429
14056TIP3   OH242110   5.211   3.487   5.602
14056TIP3    H142111   5.161   3.441   5.670
14056TIP3    H242112   5.154   3.484   5.524
14057TIP3   OH242113   6.377   6.694   2.492
14057TIP3    H142114   6.459   6.694   2.540
14057TIP3    H242115   6.388   6.628   2.424
14058TIP3   OH242116   0.560   2.106   4.391
14058TIP3    H142117   0.644   2.116   4.436
14058TIP3    H242118   0.496   2.144   4.451
14059TIP3   OH242119   0.302   6.935   5.853
14059TIP3    H142120   0.321   6.969   5.940
14059TIP3    H242121   0.380   6.886   5.828
14060TIP3   OH242122   2.988   3.320   6.300
14060TIP3    H142123   3.013   3.349   6.212
14060TIP3    H242124   2.893   3.332   6.304
14061TIP3   OH242125   6.295   0.763   1.059
14061TIP3    H142126   6.221   0.806   1.018
14061TIP3    H242127   6.285   0.782   1.153
14062TIP3   OH242128   4.127   5.452   0.091
14062TIP3    H142129   4.129   5.545   0.114
14062TIP3    H242130   4.146   5.406   0.172
14063TIP3   OH242131   5.546   3.615   5.168
14063TIP3    H142132   5.585   3.610   5.081
14063TIP3    H242133   5.604   3.673   5.218
14064TIP3   OH242134   4.310   5.319   1.849
14064TIP3    H142135   4.282   5.378   1.779
14064TIP3    H242136   4.388   5.361   1.885
14065TIP3   OH242137   4.887   2.607   3.667
14065TIP3    H142138   4.843   2.690   3.650
14065TIP3    H242139   4.860   2.584   3.756
14066TIP3   OH242140   3.525   2.402   5.108
14066TIP3    H142141   3.474   2.326   5.136
14066TIP3    H242142   3.614   2.369   5.099
14067TIP3   OH242143   4.560   7.307   5.516
14067TIP3    H142144   4.554   7.251   5.439
14067TIP3    H242145   4.506   7.383   5.495
14068TIP3   OH242146   1.912   6.867   5.110
14068TIP3    H142147   2.003   6.838   5.099
14068TIP3    H242148   1.872   6.852   5.024
14069TIP3   OH242149   3.468   4.969   3.624
14069TIP3    H142150   3.421   4.896   3.666
14069TIP3    H242151   3.424   5.047   3.657
14070TIP3   OH242152   1.657   6.883   4.919
14070TIP3    H142153   1.726   6.817   4.907
14070TIP3    H242154   1.607   6.850   4.994
14071TIP3   OH242155   2.719   7.274   3.566
14071TIP3    H142156   2.753   7.345   3.620
14071TIP3    H242157   2.629   7.261   3.597
14072TIP3   OH242158   5.259   5.888   3.111
14072TIP3    H142159   5.249   5.968   3.163
14072TIP3    H242160   5.353   5.875   3.106
14073TIP3   OH242161   4.400   2.205   1.918
14073TIP3    H142162   4.330   2.144   1.893
14073TIP3    H242163   4.439   2.167   1.996
14074TIP3   OH242164   5.186   6.928   5.086
14074TIP3    H142165   5.212   7.001   5.030
14074TIP3    H242166   5.260   6.867   5.082
14075TIP3   OH242167   3.162   6.288   4.851
14075TIP3    H142168   3.132   6.274   4.761
14075TIP3    H242169   3.253   6.258   4.851
14076TIP3   OH242170   4.770   4.992   0.734
14076TIP3    H142171   4.676   5.007   0.735
14076TIP3    H242172   4.800   5.014   0.822
14077TIP3   OH242173   2.649   0.160   3.246
14077TIP3    H142174   2.726   0.167   3.190
14077TIP3    H242175   2.579   0.132   3.187
14078TIP3   OH242176   7.586   3.529  -0.047
14078TIP3    H142177   7.575   3.522   0.048
14078TIP3    H242178   7.676   3.500  -0.062
14079TIP3   OH242179   4.080   2.100   3.911
14079TIP3    H142180   4.037   2.092   3.996
14079TIP3    H242181   4.042   2.031   3.858
14080TIP3   OH242182   3.891   1.522   0.398
14080TIP3    H142183   3.814   1.520   0.341
14080TIP3    H242184   3.906   1.615   0.414
14081TIP3   OH242185   3.345   3.741   2.711
14081TIP3    H142186   3.322   3.657   2.672
14081TIP3    H242187   3.297   3.806   2.659
14082TIP3   OH242188   3.782   1.494   3.414
14082TIP3    H142189   3.688   1.482   3.427
14082TIP3    H242190   3.789   1.543   3.331
14083TIP3   OH242191   3.847   3.454   5.051
14083TIP3    H142192   3.767   3.419   5.090
14083TIP3    H242193   3.859   3.402   4.971
14084TIP3   OH242194   0.594   0.605   1.691
14084TIP3    H142195   0.525   0.583   1.753
14084TIP3    H242196   0.556   0.671   1.634
14085TIP3   OH242197  -0.054   1.405   0.155
14085TIP3    H142198  -0.108   1.328   0.176
14085TIP3    H242199   0.006   1.412   0.229
14086TIP3   OH242200   1.126   7.185   2.494
14086TIP3    H142201   1.089   7.104   2.458
14086TIP3    H242202   1.130   7.245   2.419
14087TIP3   OH242203   1.954   1.076   2.094
14087TIP3    H142204   2.045   1.101   2.076
14087TIP3    H242205   1.956   1.041   2.183
14088TIP3   OH242206   7.969   5.247   6.312
14088TIP3    H142207   7.910   5.253   6.238
14088TIP3    H242208   7.938   5.171   6.362
14089TIP3   OH242209   6.695   7.032   6.048
14089TIP3    H142210   6.629   7.043   5.980
14089TIP3    H242211   6.654   7.063   6.128
14090TIP3   OH242212   2.180   3.601   3.525
14090TIP3    H142213   2.239   3.596   3.449
14090TIP3    H242214   2.198   3.522   3.575
14091TIP3   OH242215   3.946   5.981   5.914
14091TIP3    H142216   3.878   6.030   5.868
14091TIP3    H242217   3.940   6.011   6.005
14092TIP3   OH242218   7.091   1.365   1.841
14092TIP3    H142219   7.049   1.293   1.888
14092TIP3    H242220   7.185   1.346   1.846
14093TIP3   OH242221   7.284   7.609   0.825
14093TIP3    H142222   7.316   7.542   0.885
14093TIP3    H242223   7.189   7.600   0.828
14094TIP3   OH242224   7.318   1.920   6.645
14094TIP3    H142225   7.348   1.896   6.732
14094TIP3    H242226   7.351   2.009   6.632
14095TIP3   OH242227   0.783   1.551   4.417
14095TIP3    H142228   0.720   1.622   4.430
14095TIP3    H242229   0.765   1.489   4.488
14096TIP3   OH242230   2.759   6.746   0.663
14096TIP3    H142231   2.745   6.658   0.697
14096TIP3    H242232   2.675   6.790   0.673
14097TIP3   OH242233   4.968   6.092   2.226
14097TIP3    H142234   5.060   6.112   2.243
14097TIP3    H242235   4.935   6.169   2.179
14098TIP3   OH242236   1.782   3.087   2.969
14098TIP3    H142237   1.790   3.153   3.037
14098TIP3    H242238   1.794   3.004   3.015
14099TIP3   OH242239   1.409   0.350   1.909
14099TIP3    H142240   1.491   0.308   1.933
14099TIP3    H242241   1.363   0.285   1.857
14100TIP3   OH242242   0.579   2.831   1.052
14100TIP3    H142243   0.560   2.921   1.081
14100TIP3    H242244   0.500   2.803   1.007
14101TIP3   OH242245   7.018   1.590   0.522
14101TIP3    H142246   7.034   1.647   0.447
14101TIP3    H242247   6.962   1.520   0.488
14102TIP3   OH242248   7.892   7.769   0.104
14102TIP3    H142249   7.951   7.712   0.055
14102TIP3    H242250   7.807   7.727   0.098
14103TIP3   OH242251   2.033   0.236   0.696
14103TIP3    H142252   1.956   0.293   0.698
14103TIP3    H242253   2.085   0.264   0.772
14104TIP3   OH242254   2.899   5.443   4.478
14104TIP3    H142255   2.814   5.457   4.437
14104TIP3    H242256   2.919   5.525   4.522
14105TIP3   OH242257   0.825   5.572   0.277
14105TIP3    H142258   0.745   5.622   0.260
14105TIP3    H242259   0.796   5.481   0.281
14106TIP3   OH242260   3.223   1.622   2.134
14106TIP3    H142261   3.143   1.570   2.136
14106TIP3    H242262   3.251   1.626   2.225
14107TIP3   OH242263   0.414   7.664   4.120
14107TIP3    H142264   0.328   7.629   4.142
14107TIP3    H242265   0.472   7.628   4.187
14108TIP3   OH242266   0.535   5.503   5.245
14108TIP3    H142267   0.462   5.542   5.197
14108TIP3    H242268   0.578   5.578   5.287
14109TIP3   OH242269   0.921   6.460   4.332
14109TIP3    H142270   0.916   6.549   4.366
14109TIP3    H242271   1.012   6.448   4.306
14110TIP3   OH242272   3.774   1.340   6.190
14110TIP3    H142273   3.849   1.284   6.210
14110TIP3    H242274   3.778   1.411   6.253
14111TIP3   OH242275   3.172   0.094   6.157
14111TIP3    H142276   3.172   0.188   6.173
14111TIP3    H242277   3.194   0.055   6.242
14112TIP3   OH242278   4.199   1.660   4.055
14112TIP3    H142279   4.276   1.642   4.109
14112TIP3    H242280   4.184   1.755   4.065
14113TIP3   OH242281   5.958   4.314   0.845
14113TIP3    H142282   5.947   4.348   0.756
14113TIP3    H242283   5.904   4.235   0.847
14114TIP3   OH242284   1.656   3.619   0.234
14114TIP3    H142285   1.621   3.532   0.212
14114TIP3    H242286   1.605   3.647   0.310
14115TIP3   OH242287   7.779   1.378   0.752
14115TIP3    H142288   7.803   1.312   0.816
14115TIP3    H242289   7.836   1.362   0.677
14116TIP3   OH242290   4.808   4.779   1.234
14116TIP3    H142291   4.778   4.693   1.205
14116TIP3    H242292   4.730   4.835   1.226
14117TIP3   OH242293   6.093   1.686   4.958
14117TIP3    H142294   6.100   1.622   5.029
14117TIP3    H242295   6.000   1.691   4.939
14118TIP3   OH242296   3.325   5.353   4.170
14118TIP3    H142297   3.386   5.280   4.162
14118TIP3    H242298   3.380   5.428   4.191
14119TIP3   OH242299   4.050   3.078   6.062
14119TIP3    H142300   4.009   3.065   6.147
14119TIP3    H242301   4.015   3.007   6.007
14120TIP3   OH242302   0.754   5.101   4.010
14120TIP3    H142303   0.711   5.027   4.052
14120TIP3    H242304   0.835   5.064   3.974
14121TIP3   OH242305   7.312   6.300   1.903
14121TIP3    H142306   7.379   6.237   1.931
14121TIP3    H242307   7.360   6.380   1.883
14122TIP3   OH242308   6.865   7.048   0.386
14122TIP3    H142309   6.908   7.067   0.302
14122TIP3    H242310   6.779   7.089   0.378
14123TIP3   OH242311   8.130   2.736   5.490
14123TIP3    H142312   8.067   2.684   5.439
14123TIP3    H242313   8.174   2.790   5.425
14124TIP3   OH242314   7.320   4.328   0.884
14124TIP3    H142315   7.239   4.379   0.889
14124TIP3    H242316   7.306   4.255   0.945
14125TIP3   OH242317   3.501   0.261   2.040
14125TIP3    H142318   3.584   0.293   2.076
14125TIP3    H242319   3.518   0.169   2.019
14126TIP3   OH242320   2.104   7.080   5.620
14126TIP3    H142321   2.154   7.146   5.668
14126TIP3    H242322   2.056   7.032   5.688
14127TIP3   OH242323   3.394   2.276   5.808
14127TIP3    H142324   3.318   2.232   5.848
14127TIP3    H242325   3.445   2.204   5.769
14128TIP3   OH242326   1.504   3.429   0.808
14128TIP3    H142327   1.556   3.417   0.729
14128TIP3    H242328   1.481   3.341   0.837
14129TIP3   OH242329   2.635   5.446   0.856
14129TIP3    H142330   2.549   5.428   0.818
14129TIP3    H242331   2.659   5.366   0.902
14130TIP3   OH242332   3.176   1.241   2.219
14130TIP3    H142333   3.097   1.286   2.192
14130TIP3    H242334   3.152   1.196   2.300
14131TIP3   OH242335   6.628   2.697   1.283
14131TIP3    H142336   6.699   2.759   1.269
14131TIP3    H242337   6.666   2.628   1.337
14132TIP3   OH242338   6.526   0.127   2.091
14132TIP3    H142339   6.521   0.208   2.141
14132TIP3    H242340   6.555   0.155   2.004
14133TIP3   OH242341   7.531   1.322   3.330
14133TIP3    H142342   7.603   1.376   3.297
14133TIP3    H242343   7.547   1.314   3.424
14134TIP3   OH242344   4.530   6.825   3.267
14134TIP3    H142345   4.440   6.858   3.269
14134TIP3    H242346   4.572   6.865   3.343
14135TIP3   OH242347   5.375   2.119   4.019
14135TIP3    H142348   5.426   2.199   4.025
14135TIP3    H242349   5.439   2.051   3.998
14136TIP3   OH242350   2.676   4.813   3.802
14136TIP3    H142351   2.714   4.728   3.778
14136TIP3    H242352   2.599   4.821   3.747
14137TIP3   OH242353   7.015   3.669   4.584
14137TIP3    H142354   6.943   3.726   4.560
14137TIP3    H242355   6.979   3.580   4.577
14138TIP3   OH242356   4.621   6.740   0.323
14138TIP3    H142357   4.653   6.829   0.341
14138TIP3    H242358   4.547   6.730   0.383
14139TIP3   OH242359   2.633   1.601   1.678
14139TIP3    H142360   2.611   1.694   1.675
14139TIP3    H242361   2.727   1.598   1.697
14140TIP3   OH242362   1.281   7.582   4.998
14140TIP3    H142363   1.192   7.610   4.976
14140TIP3    H242364   1.277   7.560   5.091
14141TIP3   OH242365   5.890   5.526   4.196
14141TIP3    H142366   5.804   5.489   4.175
14141TIP3    H242367   5.934   5.534   4.111
14142TIP3   OH242368   1.914   5.283   1.995
14142TIP3    H142369   1.856   5.211   2.020
14142TIP3    H242370   1.916   5.280   1.899
14143TIP3   OH242371   2.349   6.916   0.315
14143TIP3    H142372   2.270   6.951   0.274
14143TIP3    H242373   2.317   6.875   0.396
14144TIP3   OH242374   7.505   0.676   6.551
14144TIP3    H142375   7.478   0.588   6.579
14144TIP3    H242376   7.422   0.721   6.535
14145TIP3   OH242377   4.146   3.496   6.619
14145TIP3    H142378   4.125   3.480   6.527
14145TIP3    H242379   4.155   3.408   6.657
14146TIP3   OH242380   7.937   6.426   3.246
14146TIP3    H142381   8.006   6.376   3.291
14146TIP3    H242382   7.985   6.480   3.183
14147TIP3   OH242383   0.506   0.060   1.768
14147TIP3    H142384   0.591   0.064   1.812
14147TIP3    H242385   0.520   0.109   1.686
14148TIP3   OH242386   4.368   1.089   6.283
14148TIP3    H142387   4.409   1.143   6.215
14148TIP3    H242388   4.276   1.086   6.259
14149TIP3   OH242389   3.241   2.280   1.735
14149TIP3    H142390   3.304   2.278   1.807
14149TIP3    H242391   3.178   2.211   1.757
14150TIP3   OH242392   7.011   4.343   4.200
14150TIP3    H142393   7.096   4.313   4.232
14150TIP3    H242394   6.976   4.396   4.271
14151TIP3   OH242395   2.859   3.547   5.611
14151TIP3    H142396   2.815   3.482   5.665
14151TIP3    H242397   2.788   3.592   5.565
14152TIP3   OH242398   6.358   5.420   3.120
14152TIP3    H142399   6.401   5.334   3.118
14152TIP3    H242400   6.386   5.458   3.203
14153TIP3   OH242401   1.939   4.874   1.859
14153TIP3    H142402   1.979   4.790   1.838
14153TIP3    H242403   1.958   4.929   1.783
14154TIP3   OH242404   0.141   4.987   4.157
14154TIP3    H142405   0.122   5.079   4.178
14154TIP3    H242406   0.089   4.937   4.220
14155TIP3   OH242407   3.997   3.312   3.552
14155TIP3    H142408   3.994   3.308   3.648
14155TIP3    H242409   4.082   3.352   3.533
14156TIP3   OH242410   5.070   6.398   0.383
14156TIP3    H142411   5.147   6.363   0.429
14156TIP3    H242412   5.065   6.489   0.412
14157TIP3   OH242413   0.452   1.697   1.286
14157TIP3    H142414   0.509   1.686   1.362
14157TIP3    H242415   0.439   1.608   1.253
14158TIP3   OH242416   7.629   4.537   6.053
14158TIP3    H142417   7.579   4.460   6.026
14158TIP3    H242418   7.713   4.502   6.082
14159TIP3   OH242419   0.386   7.638   3.103
14159TIP3    H142420   0.327   7.573   3.140
14159TIP3    H242421   0.466   7.590   3.081
14160TIP3   OH242422   7.110   3.342   1.363
14160TIP3    H142423   7.153   3.410   1.415
14160TIP3    H242424   7.176   3.274   1.352
14161TIP3   OH242425   3.665   3.487   5.320
14161TIP3    H142426   3.754   3.520   5.331
14161TIP3    H242427   3.610   3.566   5.321
14162TIP3   OH242428   4.384   1.508   3.550
14162TIP3    H142429   4.417   1.598   3.545
14162TIP3    H242430   4.299   1.510   3.508
14163TIP3   OH242431   2.178   5.031   4.096
14163TIP3    H142432   2.216   4.957   4.144
14163TIP3    H242433   2.088   5.036   4.129
14164TIP3   OH242434   2.520   3.531   4.427
14164TIP3    H142435   2.583   3.459   4.433
14164TIP3    H242436   2.522   3.557   4.335
14165TIP3   OH242437   3.732   4.243   5.032
14165TIP3    H142438   3.685   4.210   4.955
14165TIP3    H242439   3.781   4.168   5.066
14166TIP3   OH242440   2.147   1.543   1.651
14166TIP3    H142441   2.082   1.515   1.587
14166TIP3    H242442   2.222   1.571   1.598
14167TIP3   OH242443   0.359   7.030   3.392
14167TIP3    H142444   0.308   7.087   3.449
14167TIP3    H242445   0.310   6.948   3.389
14168TIP3   OH242446   3.141   0.878   1.828
14168TIP3    H142447   3.071   0.830   1.872
14168TIP3    H242448   3.214   0.817   1.823
14169TIP3   OH242449   1.447   6.176   1.384
14169TIP3    H142450   1.412   6.181   1.473
14169TIP3    H242451   1.371   6.161   1.329
14170TIP3   OH242452   4.596   1.333   2.821
14170TIP3    H142453   4.513   1.336   2.773
14170TIP3    H242454   4.584   1.266   2.887
14171TIP3   OH242455   2.520   2.365   0.601
14171TIP3    H142456   2.613   2.387   0.606
14171TIP3    H242457   2.476   2.440   0.641
14172TIP3   OH242458   1.782   4.062   1.194
14172TIP3    H142459   1.706   4.040   1.139
14172TIP3    H242460   1.849   4.091   1.133
14173TIP3   OH242461   3.102   7.792   3.643
14173TIP3    H142462   3.140   7.711   3.609
14173TIP3    H242463   3.087   7.845   3.564
14174TIP3   OH242464   5.483   5.237   4.319
14174TIP3    H142465   5.449   5.184   4.391
14174TIP3    H242466   5.451   5.194   4.240
14175TIP3   OH242467   7.829   7.731   5.590
14175TIP3    H142468   7.898   7.778   5.545
14175TIP3    H242469   7.758   7.724   5.525
14176TIP3   OH242470   4.008   2.293   0.861
14176TIP3    H142471   3.981   2.201   0.859
14176TIP3    H242472   4.087   2.293   0.916
14177TIP3   OH242473   2.538   4.948   5.021
14177TIP3    H142474   2.533   4.854   5.006
14177TIP3    H242475   2.569   4.957   5.111
14178TIP3   OH242476   1.906   5.734   4.450
14178TIP3    H142477   1.990   5.769   4.479
14178TIP3    H242478   1.850   5.736   4.527
14179TIP3   OH242479   5.019   4.418   2.485
14179TIP3    H142480   5.045   4.506   2.460
14179TIP3    H242481   4.964   4.430   2.562
14180TIP3   OH242482   2.151   0.713   0.397
14180TIP3    H142483   2.107   0.630   0.416
14180TIP3    H242484   2.217   0.690   0.331
14181TIP3   OH242485   2.544   7.236   1.493
14181TIP3    H142486   2.505   7.179   1.427
14181TIP3    H242487   2.637   7.238   1.472
14182TIP3   OH242488   6.414   5.117   1.292
14182TIP3    H142489   6.428   5.074   1.377
14182TIP3    H242490   6.453   5.203   1.302
14183TIP3   OH242491   3.604   4.542   0.822
14183TIP3    H142492   3.587   4.534   0.916
14183TIP3    H242493   3.542   4.483   0.781
14184TIP3   OH242494   2.674   0.952   2.329
14184TIP3    H142495   2.699   1.036   2.290
14184TIP3    H242496   2.710   0.955   2.417
14185TIP3   OH242497   2.660   3.970   6.213
14185TIP3    H142498   2.708   3.985   6.295
14185TIP3    H242499   2.598   4.043   6.209
14186TIP3   OH242500   1.167   4.936   1.972
14186TIP3    H142501   1.169   4.951   1.877
14186TIP3    H242502   1.077   4.911   1.991
14187TIP3   OH242503   1.864   2.061   5.621
14187TIP3    H142504   1.853   1.991   5.556
14187TIP3    H242505   1.938   2.031   5.675
14188TIP3   OH242506   2.033   6.962   5.386
14188TIP3    H142507   2.073   7.011   5.458
14188TIP3    H242508   2.019   7.028   5.318
14189TIP3   OH242509   3.494   6.083   4.042
14189TIP3    H142510   3.548   6.077   4.121
14189TIP3    H242511   3.406   6.102   4.075
14190TIP3   OH242512   4.519   4.253   2.592
14190TIP3    H142513   4.448   4.250   2.528
14190TIP3    H242514   4.599   4.244   2.539
14191TIP3   OH242515   7.504   1.496   1.984
14191TIP3    H142516   7.479   1.457   2.068
14191TIP3    H242517   7.598   1.481   1.977
14192TIP3   OH242518   5.410   1.316   0.238
14192TIP3    H142519   5.501   1.333   0.215
14192TIP3    H242520   5.360   1.380   0.187
14193TIP3   OH242521   3.312   0.365   1.612
14193TIP3    H142522   3.376   0.295   1.600
14193TIP3    H242523   3.365   0.444   1.625
14194TIP3   OH242524   4.686   3.081   1.186
14194TIP3    H142525   4.673   2.986   1.197
14194TIP3    H242526   4.642   3.119   1.262
14195TIP3   OH242527   6.487   4.123   4.284
14195TIP3    H142528   6.496   4.155   4.374
14195TIP3    H242529   6.397   4.092   4.279
14196TIP3   OH242530   3.566   3.535   2.404
14196TIP3    H142531   3.494   3.587   2.366
14196TIP3    H242532   3.522   3.460   2.444
14197TIP3   OH242533   4.480   0.314   4.448
14197TIP3    H142534   4.476   0.398   4.494
14197TIP3    H242535   4.389   0.285   4.443
14198TIP3   OH242536   5.529   5.958   3.093
14198TIP3    H142537   5.558   5.887   3.035
14198TIP3    H242538   5.589   6.030   3.075
14199TIP3   OH242539   2.190   4.524   4.411
14199TIP3    H142540   2.199   4.503   4.318
14199TIP3    H242541   2.163   4.441   4.451
14200TIP3   OH242542   7.924   5.711   2.289
14200TIP3    H142543   7.876   5.643   2.241
14200TIP3    H242544   7.876   5.719   2.372
14201TIP3   OH242545   7.300   7.614   3.744
14201TIP3    H142546   7.327   7.630   3.653
14201TIP3    H242547   7.373   7.566   3.783
14202TIP3   OH242548   3.333   6.511   4.295
14202TIP3    H142549   3.302   6.472   4.213
14202TIP3    H242550   3.265   6.573   4.319
14203TIP3   OH242551   3.789   6.767   1.901
14203TIP3    H142552   3.725   6.818   1.852
14203TIP3    H242553   3.737   6.707   1.954
14204TIP3   OH242554   6.516   5.171   3.114
14204TIP3    H142555   6.524   5.093   3.168
14204TIP3    H242556   6.499   5.138   3.026
14205TIP3   OH242557   7.737   2.322   0.636
14205TIP3    H142558   7.783   2.263   0.696
14205TIP3    H242559   7.807   2.375   0.597
14206TIP3   OH242560   3.090   6.254   4.319
14206TIP3    H142561   3.031   6.214   4.255
14206TIP3    H242562   3.045   6.334   4.346
14207TIP3   OH242563   3.524   3.811   2.050
14207TIP3    H142564   3.578   3.800   1.973
14207TIP3    H242565   3.497   3.903   2.048
14208TIP3   OH242566   4.759   4.579   3.134
14208TIP3    H142567   4.782   4.593   3.226
14208TIP3    H242568   4.841   4.594   3.086
14209TIP3   OH242569   7.437   0.879   0.452
14209TIP3    H142570   7.419   0.880   0.357
14209TIP3    H242571   7.379   0.946   0.487
14210TIP3   OH242572   2.544   0.969   5.221
14210TIP3    H142573   2.499   0.974   5.137
14210TIP3    H242574   2.512   0.887   5.261
14211TIP3   OH242575   1.959   7.846   0.039
14211TIP3    H142576   1.933   7.757   0.062
14211TIP3    H242577   2.030   7.834  -0.024
14212TIP3   OH242578   0.130   7.451   4.618
14212TIP3    H142579   0.107   7.509   4.546
14212TIP3    H242580   0.140   7.509   4.693
14213TIP3   OH242581   1.378   1.147   0.661
14213TIP3    H142582   1.434   1.215   0.624
14213TIP3    H242583   1.336   1.189   0.736
14214TIP3   OH242584   0.861   0.346   3.764
14214TIP3    H142585   0.940   0.401   3.769
14214TIP3    H242586   0.840   0.327   3.856
14215TIP3   OH242587   6.795   7.350   5.053
14215TIP3    H142588   6.871   7.380   5.102
14215TIP3    H242589   6.783   7.417   4.985
14216TIP3   OH242590   3.013   7.887   4.119
14216TIP3    H142591   3.081   7.857   4.058
14216TIP3    H242592   2.938   7.830   4.101
14217TIP3   OH242593   4.525   2.767   0.622
14217TIP3    H142594   4.543   2.784   0.714
14217TIP3    H242595   4.500   2.674   0.620
14218TIP3   OH242596   2.019   2.097   3.182
14218TIP3    H142597   2.032   2.010   3.143
14218TIP3    H242598   1.997   2.080   3.273
14219TIP3   OH242599   4.271   4.860   3.618
14219TIP3    H142600   4.241   4.774   3.590
14219TIP3    H242601   4.358   4.844   3.655
14220TIP3   OH242602   3.143   2.585   0.112
14220TIP3    H142603   3.118   2.632   0.191
14220TIP3    H242604   3.166   2.497   0.142
14221TIP3   OH242605   0.584   3.208   4.609
14221TIP3    H142606   0.631   3.189   4.527
14221TIP3    H242607   0.541   3.125   4.631
14222TIP3   OH242608   4.024   7.623   4.342
14222TIP3    H142609   4.046   7.711   4.374
14222TIP3    H242610   4.003   7.573   4.420
14223TIP3   OH242611   5.839   1.463   1.456
14223TIP3    H142612   5.744   1.474   1.459
14223TIP3    H242613   5.866   1.506   1.376
14224TIP3   OH242614   2.213   3.338   2.397
14224TIP3    H142615   2.186   3.314   2.308
14224TIP3    H242616   2.275   3.269   2.422
14225TIP3   OH242617   2.267   3.129   5.957
14225TIP3    H142618   2.210   3.118   5.881
14225TIP3    H242619   2.224   3.081   6.027
14226TIP3   OH242620   2.774   6.255   2.398
14226TIP3    H142621   2.861   6.251   2.360
14226TIP3    H242622   2.752   6.163   2.416
14227TIP3   OH242623   1.375   3.390   4.898
14227TIP3    H142624   1.335   3.374   4.813
14227TIP3    H242625   1.391   3.303   4.934
14228TIP3   OH242626   7.168   5.803   5.109
14228TIP3    H142627   7.080   5.840   5.118
14228TIP3    H242628   7.207   5.812   5.196
14229TIP3   OH242629   7.502   5.736   0.752
14229TIP3    H142630   7.547   5.707   0.832
14229TIP3    H242631   7.457   5.658   0.720
14230TIP3   OH242632   1.748   2.241   3.398
14230TIP3    H142633   1.745   2.321   3.452
14230TIP3    H242634   1.666   2.243   3.349
14231TIP3   OH242635   6.963   3.453   0.201
14231TIP3    H142636   7.005   3.406   0.273
14231TIP3    H242637   7.034   3.495   0.154
14232TIP3   OH242638   0.835   7.264   3.525
14232TIP3    H142639   0.918   7.221   3.545
14232TIP3    H242640   0.843   7.287   3.432
14233TIP3   OH242641   4.145   6.346   3.936
14233TIP3    H142642   4.115   6.336   4.026
14233TIP3    H242643   4.226   6.295   3.931
14234TIP3   OH242644   7.770   1.296   1.179
14234TIP3    H142645   7.749   1.382   1.216
14234TIP3    H242646   7.712   1.236   1.225
14235TIP3   OH242647   5.118   4.367   5.241
14235TIP3    H142648   5.026   4.367   5.270
14235TIP3    H242649   5.161   4.431   5.298
14236TIP3   OH242650   0.980   1.358   3.497
14236TIP3    H142651   0.923   1.430   3.524
14236TIP3    H242652   0.944   1.281   3.540
14237TIP3   OH242653   0.846   7.285   4.617
14237TIP3    H142654   0.825   7.198   4.649
14237TIP3    H242655   0.826   7.283   4.524
14238TIP3   OH242656   6.491   4.304   0.806
14238TIP3    H142657   6.413   4.278   0.757
14238TIP3    H242658   6.518   4.386   0.766
14239TIP3   OH242659   1.074   3.490   6.472
14239TIP3    H142660   1.010   3.561   6.470
14239TIP3    H242661   1.128   3.502   6.394
14240TIP3   OH242662   5.064   4.768   6.126
14240TIP3    H142663   5.114   4.686   6.128
14240TIP3    H242664   4.974   4.741   6.148
14241TIP3   OH242665   0.423   6.509   6.269
14241TIP3    H142666   0.377   6.473   6.192
14241TIP3    H242667   0.358   6.566   6.310
14242TIP3   OH242668   2.028   6.867   0.195
14242TIP3    H142669   2.022   6.840   0.103
14242TIP3    H242670   1.954   6.823   0.238
14243TIP3   OH242671   4.867   4.140   3.888
14243TIP3    H142672   4.954   4.156   3.851
14243TIP3    H242673   4.876   4.059   3.938
14244TIP3   OH242674   1.203   5.052   1.728
14244TIP3    H142675   1.116   5.092   1.731
14244TIP3    H242676   1.216   5.028   1.636
14245TIP3   OH242677   4.713   6.899   6.008
14245TIP3    H142678   4.712   6.879   5.915
14245TIP3    H242679   4.793   6.857   6.040
14246TIP3   OH242680   5.593   4.782   0.946
14246TIP3    H142681   5.557   4.734   1.020
14246TIP3    H242682   5.681   4.747   0.935
14247TIP3   OH242683   5.923   3.941   2.459
14247TIP3    H142684   5.848   3.989   2.496
14247TIP3    H242685   5.883   3.875   2.403
14248TIP3   OH242686   7.042   0.729   4.539
14248TIP3    H142687   7.027   0.649   4.489
14248TIP3    H242688   7.113   0.774   4.492
14249TIP3   OH242689   4.976   5.825   1.544
14249TIP3    H142690   5.051   5.861   1.592
14249TIP3    H242691   4.922   5.784   1.612
14250TIP3   OH242692   1.304   0.646   1.524
14250TIP3    H142693   1.377   0.596   1.562
14250TIP3    H242694   1.254   0.582   1.475
14251TIP3   OH242695   1.522   2.729   3.528
14251TIP3    H142696   1.575   2.755   3.453
14251TIP3    H242697   1.440   2.777   3.518
14252TIP3   OH242698   3.334   5.507   3.466
14252TIP3    H142699   3.395   5.572   3.431
14252TIP3    H242700   3.269   5.558   3.514
14253TIP3   OH242701   5.011   1.149   4.674
14253TIP3    H142702   4.926   1.112   4.698
14253TIP3    H242703   5.006   1.240   4.703
14254TIP3   OH242704   4.616   2.105   4.149
14254TIP3    H142705   4.594   2.034   4.089
14254TIP3    H242706   4.609   2.065   4.236
14255TIP3   OH242707   3.298   1.587   2.892
14255TIP3    H142708   3.388   1.558   2.876
14255TIP3    H242709   3.256   1.511   2.933
14256TIP3   OH242710   0.298   2.325   1.439
14256TIP3    H142711   0.344   2.347   1.520
14256TIP3    H242712   0.210   2.299   1.467
14257TIP3   OH242713   2.278   6.635   2.092
14257TIP3    H142714   2.329   6.599   2.019
14257TIP3    H242715   2.341   6.648   2.162
14258TIP3   OH242716   5.661   0.673   2.066
14258TIP3    H142717   5.585   0.686   2.124
14258TIP3    H242718   5.702   0.759   2.060
14259TIP3   OH242719   0.018   4.590   2.544
14259TIP3    H142720   0.037   4.666   2.489
14259TIP3    H242721   0.085   4.526   2.520
14260TIP3   OH242722   0.220   2.639   5.782
14260TIP3    H142723   0.165   2.634   5.860
14260TIP3    H242724   0.290   2.700   5.805
14261TIP3   OH242725   2.061   4.984   2.078
14261TIP3    H142726   2.004   4.947   2.010
14261TIP3    H242727   2.105   5.057   2.034
14262TIP3   OH242728   6.466   1.286   1.382
14262TIP3    H142729   6.520   1.238   1.444
14262TIP3    H242730   6.387   1.232   1.371
14263TIP3   OH242731   0.976   0.175   6.638
14263TIP3    H142732   0.968   0.107   6.571
14263TIP3    H242733   0.901   0.233   6.621
14264TIP3   OH242734   7.770   4.951   3.442
14264TIP3    H142735   7.837   4.883   3.444
14264TIP3    H242736   7.687   4.903   3.434
14265TIP3   OH242737   7.998   6.863   3.724
14265TIP3    H142738   7.943   6.912   3.785
14265TIP3    H242739   7.943   6.791   3.695
14266TIP3   OH242740   0.272   6.068   4.330
14266TIP3    H142741   0.210   6.002   4.299
14266TIP3    H242742   0.327   6.021   4.393
14267TIP3   OH242743   6.865   1.238   0.734
14267TIP3    H142744   6.848   1.303   0.667
14267TIP3    H242745   6.903   1.164   0.687
14268TIP3   OH242746   0.477   4.246   2.263
14268TIP3    H142747   0.405   4.184   2.247
14268TIP3    H242748   0.541   4.225   2.195
14269TIP3   OH242749   3.947   6.594   0.274
14269TIP3    H142750   3.894   6.514   0.280
14269TIP3    H242751   4.009   6.588   0.346
14270TIP3   OH242752   4.622   4.404   0.302
14270TIP3    H142753   4.667   4.407   0.386
14270TIP3    H242754   4.584   4.316   0.299
14271TIP3   OH242755   1.923   6.655   1.191
14271TIP3    H142756   1.972   6.737   1.181
14271TIP3    H242757   1.989   6.586   1.180
14272TIP3   OH242758   8.167   3.389   2.258
14272TIP3    H142759   8.258   3.419   2.257
14272TIP3    H242760   8.138   3.395   2.167
14273TIP3   OH242761   1.830   6.533   6.563
14273TIP3    H142762   1.839   6.615   6.612
14273TIP3    H242763   1.736   6.517   6.560
14274TIP3   OH242764   8.121   1.755   4.945
14274TIP3    H142765   8.096   1.801   4.865
14274TIP3    H242766   8.196   1.701   4.919
14275TIP3   OH242767   3.123   3.026   0.964
14275TIP3    H142768   3.177   2.970   1.020
14275TIP3    H242769   3.062   3.069   1.024
14276TIP3   OH242770   2.071   6.390   5.677
14276TIP3    H142771   2.058   6.471   5.627
14276TIP3    H242772   2.112   6.330   5.615
14277TIP3   OH242773   1.658   0.807   1.634
14277TIP3    H142774   1.671   0.752   1.712
14277TIP3    H242775   1.637   0.744   1.564
14278TIP3   OH242776   4.861   3.617   3.377
14278TIP3    H142777   4.801   3.642   3.447
14278TIP3    H242778   4.897   3.533   3.405
14279TIP3   OH242779   6.188   3.312   1.319
14279TIP3    H142780   6.200   3.326   1.225
14279TIP3    H242781   6.093   3.301   1.330
14280TIP3   OH242782   5.936   5.388   5.836
14280TIP3    H142783   5.929   5.457   5.903
14280TIP3    H242784   5.903   5.429   5.756
14281TIP3   OH242785   2.903   6.994   3.143
14281TIP3    H142786   2.892   6.925   3.208
14281TIP3    H242787   2.817   7.034   3.135
14282TIP3   OH242788   3.094   1.691   1.249
14282TIP3    H142789   3.074   1.767   1.302
14282TIP3    H242790   3.143   1.632   1.307
14283TIP3   OH242791   7.283   1.596   1.598
14283TIP3    H142792   7.194   1.561   1.592
14283TIP3    H242793   7.321   1.578   1.512
14284TIP3   OH242794   2.173   5.469   1.375
14284TIP3    H142795   2.103   5.506   1.428
14284TIP3    H242796   2.130   5.407   1.317
14285TIP3   OH242797   8.325   6.607   3.706
14285TIP3    H142798   8.244   6.588   3.659
14285TIP3    H242799   8.363   6.681   3.659
14286TIP3   OH242800   6.721   7.625   5.746
14286TIP3    H142801   6.797   7.567   5.748
14286TIP3    H242802   6.649   7.567   5.719
14287TIP3   OH242803   3.491   5.952   1.035
14287TIP3    H142804   3.434   5.957   0.959
14287TIP3    H242805   3.433   5.934   1.108
14288TIP3   OH242806   4.777   2.532   5.187
14288TIP3    H142807   4.809   2.446   5.214
14288TIP3    H242808   4.839   2.561   5.120
14289TIP3   OH242809   0.994   1.672   5.277
14289TIP3    H142810   0.988   1.622   5.359
14289TIP3    H242811   0.973   1.762   5.302
14290TIP3   OH242812   3.013   6.997   4.907
14290TIP3    H142813   2.935   7.047   4.931
14290TIP3    H242814   3.068   7.000   4.985
14291TIP3   OH242815   4.096   0.808   0.497
14291TIP3    H142816   4.020   0.813   0.557
14291TIP3    H242817   4.121   0.716   0.499
14292TIP3   OH242818   6.373   6.900   6.128
14292TIP3    H142819   6.278   6.886   6.117
14292TIP3    H242820   6.383   6.995   6.129
14293TIP3   OH242821   7.285   3.001   4.546
14293TIP3    H142822   7.236   3.071   4.503
14293TIP3    H242823   7.239   2.921   4.522
14294TIP3   OH242824   5.983   3.299   5.503
14294TIP3    H142825   6.005   3.215   5.543
14294TIP3    H242826   6.040   3.363   5.547
14295TIP3   OH242827   2.441   5.397   5.965
14295TIP3    H142828   2.409   5.312   5.993
14295TIP3    H242829   2.437   5.452   6.044
14296TIP3   OH242830   3.841   5.708   2.474
14296TIP3    H142831   3.907   5.669   2.416
14296TIP3    H242832   3.858   5.666   2.559
14297TIP3   OH242833   7.046   5.108   2.200
14297TIP3    H142834   7.032   5.086   2.292
14297TIP3    H242835   7.141   5.115   2.191
14298TIP3   OH242836   0.115   4.089   4.238
14298TIP3    H142837   0.163   4.034   4.300
14298TIP3    H242838   0.143   4.058   4.152
14299TIP3   OH242839   7.112   7.033   5.123
14299TIP3    H142840   7.080   7.054   5.035
14299TIP3    H242841   7.033   7.010   5.172
14300TIP3   OH242842   2.774   0.625   4.459
14300TIP3    H142843   2.861   0.597   4.432
14300TIP3    H242844   2.715   0.574   4.403
14301TIP3   OH242845   0.411   1.063   0.260
14301TIP3    H142846   0.498   1.105   0.259
14301TIP3    H242847   0.362   1.110   0.192
14302TIP3   OH242848   6.703   4.670   5.393
14302TIP3    H142849   6.688   4.590   5.343
14302TIP3    H242850   6.746   4.729   5.331
14303TIP3   OH242851   2.701   0.144   2.301
14303TIP3    H142852   2.676   0.174   2.389
14303TIP3    H242853   2.734   0.055   2.315
14304TIP3   OH242854   6.906   0.325   1.946
14304TIP3    H142855   6.912   0.263   2.017
14304TIP3    H242856   6.857   0.399   1.982
14305TIP3   OH242857   4.120   3.513   6.355
14305TIP3    H142858   4.062   3.475   6.290
14305TIP3    H242859   4.106   3.608   6.348
14306TIP3   OH242860   0.989   5.467   4.179
14306TIP3    H142861   1.004   5.409   4.254
14306TIP3    H242862   0.894   5.461   4.163
14307TIP3   OH242863   3.959   6.454   6.646
14307TIP3    H142864   4.007   6.469   6.728
14307TIP3    H242865   3.943   6.360   6.643
14308TIP3   OH242866   1.274   6.488   5.624
14308TIP3    H142867   1.225   6.530   5.554
14308TIP3    H242868   1.247   6.533   5.703
14309TIP3   OH242869   4.666   6.640   1.343
14309TIP3    H142870   4.722   6.578   1.296
14309TIP3    H242871   4.726   6.707   1.375
14310TIP3   OH242872   6.549   0.185   4.694
14310TIP3    H142873   6.555   0.256   4.630
14310TIP3    H242874   6.467   0.200   4.740
14311TIP3   OH242875   7.463   6.595   5.725
14311TIP3    H142876   7.497   6.527   5.665
14311TIP3    H242877   7.504   6.676   5.694
14312TIP3   OH242878   4.576   2.486   0.738
14312TIP3    H142879   4.526   2.410   0.707
14312TIP3    H242880   4.533   2.511   0.820
14313TIP3   OH242881   8.239   1.069   2.799
14313TIP3    H142882   8.145   1.078   2.814
14313TIP3    H242883   8.254   1.107   2.713
14314TIP3   OH242884   4.558   0.497   3.766
14314TIP3    H142885   4.582   0.538   3.849
14314TIP3    H242886   4.636   0.506   3.711
14315TIP3   OH242887   2.847   6.567   5.824
14315TIP3    H142888   2.894   6.581   5.741
14315TIP3    H242889   2.757   6.591   5.804
14316TIP3   OH242890   1.705   4.575   6.134
14316TIP3    H142891   1.655   4.546   6.058
14316TIP3    H242892   1.720   4.668   6.119
14317TIP3   OH242893   7.995   2.266   1.250
14317TIP3    H142894   7.944   2.310   1.182
14317TIP3    H242895   8.010   2.333   1.316
14318TIP3   OH242896   2.444   0.831   2.155
14318TIP3    H142897   2.498   0.779   2.096
14318TIP3    H242898   2.506   0.891   2.197
14319TIP3   OH242899   5.610   5.063   0.220
14319TIP3    H142900   5.559   4.992   0.181
14319TIP3    H242901   5.695   5.024   0.240
14320TIP3   OH242902   5.872   6.678   2.605
14320TIP3    H142903   5.810   6.748   2.626
14320TIP3    H242904   5.950   6.724   2.574
14321TIP3   OH242905   6.601   1.251   3.293
14321TIP3    H142906   6.689   1.278   3.319
14321TIP3    H242907   6.546   1.274   3.367
14322TIP3   OH242908   0.155   0.220   3.298
14322TIP3    H142909   0.073   0.270   3.296
14322TIP3    H242910   0.128   0.129   3.300
14323TIP3   OH242911   1.440   7.533   5.732
14323TIP3    H142912   1.441   7.534   5.828
14323TIP3    H242913   1.512   7.591   5.707
14324TIP3   OH242914   0.267   0.329   1.389
14324TIP3    H142915   0.172   0.333   1.392
14324TIP3    H242916   0.296   0.375   1.468
14325TIP3   OH242917   8.050   3.524   3.336
14325TIP3    H142918   7.965   3.521   3.292
14325TIP3    H242919   8.065   3.433   3.364
14326TIP3   OH242920   8.190   5.508   5.790
14326TIP3    H142921   8.117   5.518   5.851
14326TIP3    H242922   8.266   5.491   5.845
14327TIP3   OH242923   0.564   2.489   6.468
14327TIP3    H142924   0.641   2.530   6.506
14327TIP3    H242925   0.577   2.499   6.373
14328TIP3   OH242926   5.203   6.753   6.400
14328TIP3    H142927   5.240   6.732   6.314
14328TIP3    H242928   5.159   6.673   6.427
14329TIP3   OH242929   0.827   6.779   3.209
14329TIP3    H142930   0.849   6.828   3.289
14329TIP3    H242931   0.795   6.695   3.242
14330TIP3   OH242932   0.418   0.829   6.144
14330TIP3    H142933   0.460   0.915   6.140
14330TIP3    H242934   0.331   0.846   6.180
14331TIP3   OH242935   2.121   0.582   1.619
14331TIP3    H142936   2.193   0.630   1.580
14331TIP3    H242937   2.153   0.555   1.705
14332TIP3   OH242938   2.702   5.417   5.900
14332TIP3    H142939   2.711   5.496   5.953
14332TIP3    H242940   2.608   5.407   5.886
14333TIP3   OH242941   5.215   2.364   2.848
14333TIP3    H142942   5.167   2.405   2.775
14333TIP3    H242943   5.218   2.432   2.915
14334TIP3   OH242944   8.271   0.565   2.006
14334TIP3    H142945   8.244   0.545   1.917
14334TIP3    H242946   8.248   0.486   2.056
14335TIP3   OH242947   7.027   6.821   3.245
14335TIP3    H142948   7.114   6.839   3.279
14335TIP3    H242949   6.975   6.798   3.322
14336TIP3   OH242950   2.104   1.605   1.295
14336TIP3    H142951   2.157   1.529   1.318
14336TIP3    H242952   2.025   1.597   1.348
14337TIP3   OH242953   6.088   7.123   4.935
14337TIP3    H142954   5.998   7.151   4.954
14337TIP3    H242955   6.118   7.183   4.867
14338TIP3   OH242956   4.916   2.671   5.882
14338TIP3    H142957   4.990   2.724   5.911
14338TIP3    H242958   4.878   2.720   5.808
14339TIP3   OH242959   0.474   7.090   4.155
14339TIP3    H142960   0.440   7.154   4.093
14339TIP3    H242961   0.552   7.054   4.112
14340TIP3   OH242962   6.751   0.139   4.914
14340TIP3    H142963   6.840   0.116   4.889
14340TIP3    H242964   6.708   0.160   4.831
14341TIP3   OH242965   3.175   4.724   0.995
14341TIP3    H142966   3.265   4.720   1.027
14341TIP3    H242967   3.171   4.806   0.945
14342TIP3   OH242968   8.215   1.719   6.576
14342TIP3    H142969   8.225   1.713   6.481
14342TIP3    H242970   8.133   1.673   6.595
14343TIP3   OH242971   1.075   2.616   0.488
14343TIP3    H142972   1.050   2.701   0.524
14343TIP3    H242973   1.171   2.618   0.487
14344TIP3   OH242974   0.807   0.001   5.703
14344TIP3    H142975   0.758   0.084   5.708
14344TIP3    H242976   0.898   0.028   5.692
14345TIP3   OH242977   4.563   6.278   5.098
14345TIP3    H142978   4.585   6.328   5.019
14345TIP3    H242979   4.633   6.298   5.160
14346TIP3   OH242980   7.008   6.095   2.970
14346TIP3    H142981   7.001   6.117   2.877
14346TIP3    H242982   7.029   6.002   2.972
14347TIP3   OH242983   6.538   6.851   3.457
14347TIP3    H142984   6.606   6.866   3.522
14347TIP3    H242985   6.505   6.764   3.476
14348TIP3   OH242986   2.911   0.787   1.218
14348TIP3    H142987   2.883   0.844   1.146
14348TIP3    H242988   3.005   0.773   1.201
14349TIP3   OH242989   2.419   4.874   6.389
14349TIP3    H142990   2.460   4.791   6.412
14349TIP3    H242991   2.343   4.880   6.448
14350TIP3   OH242992   4.718   1.922   2.682
14350TIP3    H142993   4.629   1.890   2.669
14350TIP3    H242994   4.743   1.890   2.769
14351TIP3   OH242995   5.590   0.824   6.144
14351TIP3    H142996   5.536   0.777   6.081
14351TIP3    H242997   5.673   0.838   6.099
14352TIP3   OH242998   3.085   2.315   5.314
14352TIP3    H142999   3.028   2.294   5.239
14352TIP3    H243000   3.080   2.410   5.322
14353TIP3   OH243001   3.437   0.820   3.668
14353TIP3    H143002   3.394   0.806   3.753
14353TIP3    H243003   3.502   0.888   3.685
14354TIP3   OH243004   4.160   3.119   4.294
14354TIP3    H143005   4.158   3.171   4.213
14354TIP3    H243006   4.200   3.036   4.268
14355TIP3   OH243007   5.363   5.812   2.696
14355TIP3    H143008   5.278   5.839   2.664
14355TIP3    H243009   5.416   5.892   2.694
14356TIP3   OH243010   6.314   6.949   2.333
14356TIP3    H143011   6.282   6.896   2.260
14356TIP3    H243012   6.344   6.885   2.397
14357TIP3   OH243013   0.433   0.524   1.874
14357TIP3    H143014   0.452   0.559   1.961
14357TIP3    H243015   0.417   0.431   1.889
14358TIP3   OH243016   0.071   0.276   1.840
14358TIP3    H143017   0.074   0.210   1.771
14358TIP3    H243018   0.152   0.264   1.889
14359TIP3   OH243019   1.362   2.302   5.510
14359TIP3    H143020   1.360   2.312   5.415
14359TIP3    H243021   1.333   2.212   5.526
14360TIP3   OH243022   6.456   1.728   5.734
14360TIP3    H143023   6.488   1.711   5.646
14360TIP3    H243024   6.427   1.820   5.731
14361TIP3   OH243025   0.999   6.745   2.189
14361TIP3    H143026   0.910   6.711   2.200
14361TIP3    H243027   1.053   6.693   2.248
14362TIP3   OH243028   7.737   2.788   3.526
14362TIP3    H143029   7.777   2.706   3.554
14362TIP3    H243030   7.725   2.779   3.431
14363TIP3   OH243031   8.182   5.521   4.663
14363TIP3    H143032   8.229   5.472   4.730
14363TIP3    H243033   8.134   5.454   4.614
14364TIP3   OH243034   8.025   5.701   5.573
14364TIP3    H143035   8.120   5.694   5.585
14364TIP3    H243036   7.988   5.638   5.635
14365TIP3   OH243037   1.312   4.289   2.261
14365TIP3    H143038   1.337   4.379   2.239
14365TIP3    H243039   1.307   4.288   2.356
14366TIP3   OH243040   1.572   2.482   2.970
14366TIP3    H143041   1.560   2.516   3.058
14366TIP3    H243042   1.597   2.558   2.918
14367TIP3   OH243043   8.179   6.216   4.392
14367TIP3    H143044   8.155   6.130   4.427
14367TIP3    H243045   8.096   6.265   4.391
14368TIP3   OH243046   4.351   5.236   3.185
14368TIP3    H143047   4.266   5.250   3.226
14368TIP3    H243048   4.358   5.306   3.120
14369TIP3   OH243049   3.373   4.522   6.144
14369TIP3    H143050   3.391   4.511   6.237
14369TIP3    H243051   3.282   4.553   6.141
14370TIP3   OH243052   2.364   7.600   2.974
14370TIP3    H143053   2.340   7.522   3.023
14370TIP3    H243054   2.387   7.664   3.041
14371TIP3   OH243055   5.751   2.120   4.207
14371TIP3    H143056   5.784   2.099   4.120
14371TIP3    H243057   5.772   2.043   4.260
14372TIP3   OH243058   8.265   0.087   5.073
14372TIP3    H143059   8.236   0.129   5.153
14372TIP3    H243060   8.310   0.155   5.024
14373TIP3   OH243061   4.318   3.582   4.171
14373TIP3    H143062   4.282   3.526   4.239
14373TIP3    H243063   4.409   3.598   4.198
14374TIP3   OH243064   0.092   0.450   5.360
14374TIP3    H143065   0.175   0.429   5.317
14374TIP3    H243066   0.037   0.373   5.344
14375TIP3   OH243067   6.302   4.412   1.939
14375TIP3    H143068   6.391   4.404   1.905
14375TIP3    H243069   6.245   4.398   1.863
14376TIP3   OH243070   2.564   6.998   0.946
14376TIP3    H143071   2.640   6.995   0.887
14376TIP3    H243072   2.507   6.928   0.915
14377TIP3   OH243073   6.580   6.652   5.787
14377TIP3    H143074   6.666   6.694   5.784
14377TIP3    H243075   6.553   6.658   5.878
14378TIP3   OH243076   6.575   4.514   1.555
14378TIP3    H143077   6.594   4.570   1.480
14378TIP3    H243078   6.573   4.425   1.518
14379TIP3   OH243079   4.804   4.114   0.225
14379TIP3    H143080   4.830   4.023   0.241
14379TIP3    H243081   4.872   4.148   0.167
14380TIP3   OH243082   5.693   6.512   1.034
14380TIP3    H143083   5.783   6.524   1.064
14380TIP3    H243084   5.642   6.571   1.089
14381TIP3   OH243085   1.741   3.504   2.651
14381TIP3    H143086   1.830   3.532   2.629
14381TIP3    H243087   1.745   3.409   2.649
14382TIP3   OH243088   3.830   4.318   5.348
14382TIP3    H143089   3.889   4.243   5.355
14382TIP3    H243090   3.862   4.367   5.272
14383TIP3   OH243091   3.660   0.755   5.291
14383TIP3    H143092   3.645   0.664   5.266
14383TIP3    H243093   3.584   0.802   5.256
14384TIP3   OH243094   3.746   7.462   1.091
14384TIP3    H143095   3.835   7.476   1.123
14384TIP3    H243096   3.750   7.486   0.998
14385TIP3   OH243097   7.420   2.705   5.299
14385TIP3    H143098   7.489   2.663   5.248
14385TIP3    H243099   7.354   2.637   5.311
14386TIP3   OH243100   2.326   5.164   6.511
14386TIP3    H143101   2.379   5.084   6.512
14386TIP3    H243102   2.388   5.233   6.534
14387TIP3   OH243103   5.580   0.282   5.114
14387TIP3    H143104   5.518   0.321   5.176
14387TIP3    H243105   5.558   0.188   5.113
14388TIP3   OH243106   0.952   6.121   6.542
14388TIP3    H143107   0.916   6.143   6.628
14388TIP3    H243108   0.991   6.202   6.510
14389TIP3   OH243109   0.890   6.603   5.073
14389TIP3    H143110   0.823   6.670   5.086
14389TIP3    H243111   0.970   6.641   5.108
14390TIP3   OH243112   7.877   1.178   4.537
14390TIP3    H143113   7.895   1.201   4.628
14390TIP3    H243114   7.932   1.101   4.520
14391TIP3   OH243115   3.370   5.381   6.837
14391TIP3    H143116   3.388   5.466   6.797
14391TIP3    H243117   3.293   5.349   6.791
14392TIP3   OH243118   1.575   3.013   6.257
14392TIP3    H143119   1.533   2.943   6.307
14392TIP3    H243120   1.661   3.024   6.298
14393TIP3   OH243121   5.737   3.909   3.977
14393TIP3    H143122   5.695   3.824   3.966
14393TIP3    H243123   5.786   3.902   4.058
14394TIP3   OH243124   5.747   5.298   1.446
14394TIP3    H143125   5.806   5.228   1.472
14394TIP3    H243126   5.729   5.281   1.354
14395TIP3   OH243127   4.070   4.985   6.243
14395TIP3    H143128   4.028   4.922   6.302
14395TIP3    H243129   4.136   5.028   6.298
14396TIP3   OH243130   1.601   4.622   0.604
14396TIP3    H143131   1.530   4.597   0.663
14396TIP3    H243132   1.558   4.671   0.535
14397TIP3   OH243133   5.521   7.331   1.718
14397TIP3    H143134   5.503   7.325   1.624
14397TIP3    H243135   5.531   7.425   1.734
14398TIP3   OH243136   6.456   3.013   5.758
14398TIP3    H143137   6.364   3.022   5.783
14398TIP3    H243138   6.454   3.012   5.662
14399TIP3   OH243139   0.238   7.020   0.683
14399TIP3    H143140   0.233   6.932   0.646
14399TIP3    H243141   0.160   7.065   0.650
14400TIP3   OH243142   6.285   5.306   1.933
14400TIP3    H143143   6.288   5.400   1.953
14400TIP3    H243144   6.216   5.298   1.868
14401TIP3   OH243145   5.919   5.014   6.724
14401TIP3    H143146   5.871   5.095   6.710
14401TIP3    H243147   5.851   4.946   6.728
14402TIP3   OH243148   7.108   3.899   0.529
14402TIP3    H143149   7.050   3.907   0.453
14402TIP3    H243150   7.050   3.901   0.604
14403TIP3   OH243151  -0.039   4.002   6.192
14403TIP3    H143152  -0.011   3.946   6.265
14403TIP3    H243153   0.042   4.043   6.161
14404TIP3   OH243154   7.188   3.059   6.792
14404TIP3    H143155   7.168   2.966   6.784
14404TIP3    H243156   7.264   3.072   6.735
14405TIP3   OH243157   5.137   1.884   3.214
14405TIP3    H143158   5.231   1.867   3.224
14405TIP3    H243159   5.128   1.978   3.230
14406TIP3   OH243160   0.742   0.315   5.334
14406TIP3    H143161   0.817   0.291   5.279
14406TIP3    H243162   0.705   0.231   5.362
14407TIP3   OH243163   1.833   4.902   5.471
14407TIP3    H143164   1.891   4.977   5.481
14407TIP3    H243165   1.829   4.863   5.559
14408TIP3   OH243166   5.044   5.984   1.127
14408TIP3    H143167   4.998   6.019   1.051
14408TIP3    H243168   4.982   5.923   1.167
14409TIP3   OH243169   5.426   6.702   1.191
14409TIP3    H143170   5.467   6.629   1.238
14409TIP3    H243171   5.465   6.781   1.230
14410TIP3   OH243172   3.548   5.325   0.644
14410TIP3    H143173   3.582   5.284   0.565
14410TIP3    H243174   3.583   5.414   0.643
14411TIP3   OH243175   7.443   1.891   4.571
14411TIP3    H143176   7.517   1.951   4.560
14411TIP3    H243177   7.371   1.947   4.603
14412TIP3   OH243178   8.054   6.495   4.672
14412TIP3    H143179   8.049   6.531   4.583
14412TIP3    H243180   7.995   6.550   4.723
14413TIP3   OH243181   2.855   6.258   0.394
14413TIP3    H143182   2.852   6.242   0.488
14413TIP3    H243183   2.833   6.351   0.385
14414TIP3   OH243184   7.571   1.927   0.820
14414TIP3    H143185   7.585   1.923   0.915
14414TIP3    H243186   7.567   1.836   0.793
14415TIP3   OH243187   7.232   4.441   5.258
14415TIP3    H143188   7.251   4.353   5.227
14415TIP3    H243189   7.271   4.445   5.345
14416TIP3   OH243190   7.035   5.545   2.742
14416TIP3    H143191   7.082   5.628   2.741
14416TIP3    H243192   7.090   5.485   2.692
14417TIP3   OH243193   2.185   5.618   5.522
14417TIP3    H143194   2.208   5.599   5.613
14417TIP3    H243195   2.187   5.533   5.478
14418TIP3   OH243196   5.850   1.531   4.826
14418TIP3    H143197   5.894   1.456   4.866
14418TIP3    H243198   5.809   1.496   4.747
14419TIP3   OH243199   3.577   2.590   3.168
14419TIP3    H143200   3.648   2.646   3.135
14419TIP3    H243201   3.605   2.566   3.257
14420TIP3   OH243202   1.385   4.775   3.770
14420TIP3    H143203   1.321   4.799   3.838
14420TIP3    H243204   1.469   4.778   3.815
14421TIP3   OH243205   7.887   0.812   6.159
14421TIP3    H143206   7.964   0.756   6.170
14421TIP3    H243207   7.825   0.757   6.111
14422TIP3   OH243208   5.749   7.725   2.201
14422TIP3    H143209   5.725   7.744   2.291
14422TIP3    H243210   5.794   7.803   2.170
14423TIP3   OH243211   7.708   7.657   1.974
14423TIP3    H143212   7.625   7.675   2.019
14423TIP3    H243213   7.732   7.569   2.003
14424TIP3   OH243214   6.794   5.181   3.010
14424TIP3    H143215   6.755   5.187   3.098
14424TIP3    H243216   6.720   5.191   2.950
14425TIP3   OH243217   5.843   6.464   3.268
14425TIP3    H143218   5.782   6.530   3.302
14425TIP3    H243219   5.924   6.479   3.317
14426TIP3   OH243220   7.576   2.746   6.015
14426TIP3    H143221   7.495   2.740   6.065
14426TIP3    H243222   7.553   2.794   5.936
14427TIP3   OH243223   1.602   5.277   5.365
14427TIP3    H143224   1.554   5.199   5.392
14427TIP3    H243225   1.562   5.348   5.415
14428TIP3   OH243226   3.549   1.136   5.869
14428TIP3    H143227   3.485   1.096   5.928
14428TIP3    H243228   3.577   1.215   5.914
14429TIP3   OH243229   6.383   5.237   6.706
14429TIP3    H143230   6.455   5.203   6.654
14429TIP3    H243231   6.310   5.178   6.688
14430TIP3   OH243232   0.651   5.688   5.434
14430TIP3    H143233   0.734   5.648   5.408
14430TIP3    H243234   0.673   5.780   5.451
14431TIP3   OH243235   4.507   7.403   5.175
14431TIP3    H143236   4.529   7.313   5.198
14431TIP3    H243237   4.504   7.403   5.079
14432TIP3   OH243238   1.269   1.159   3.254
14432TIP3    H143239   1.201   1.172   3.321
14432TIP3    H243240   1.312   1.078   3.279
14433TIP3   OH243241   6.301   1.950   0.661
14433TIP3    H143242   6.371   1.896   0.625
14433TIP3    H243243   6.220   1.904   0.637
14434TIP3   OH243244   2.402   1.413   1.704
14434TIP3    H143245   2.444   1.495   1.679
14434TIP3    H243246   2.309   1.428   1.688
14435TIP3   OH243247   7.389   1.543   1.306
14435TIP3    H143248   7.386   1.636   1.281
14435TIP3    H243249   7.343   1.498   1.235
14436TIP3   OH243250   0.084   3.523   3.914
14436TIP3    H143251   0.076   3.428   3.919
14436TIP3    H243252   0.100   3.551   4.004
14437TIP3   OH243253   4.730   1.412   2.100
14437TIP3    H143254   4.653   1.416   2.156
14437TIP3    H243255   4.803   1.398   2.161
14438TIP3   OH243256   5.388   1.424   4.251
14438TIP3    H143257   5.426   1.379   4.326
14438TIP3    H243258   5.463   1.455   4.201
14439TIP3   OH243259   2.773   1.595   5.590
14439TIP3    H143260   2.793   1.510   5.553
14439TIP3    H243261   2.682   1.611   5.565
14440TIP3   OH243262   7.591   4.739   0.152
14440TIP3    H143263   7.569   4.651   0.183
14440TIP3    H243264   7.642   4.724   0.072
14441TIP3   OH243265   4.502   5.034   5.682
14441TIP3    H143266   4.411   5.002   5.680
14441TIP3    H243267   4.499   5.109   5.741
14442TIP3   OH243268   6.991   1.410   6.703
14442TIP3    H143269   6.988   1.492   6.653
14442TIP3    H243270   7.085   1.392   6.712
14443TIP3   OH243271   4.071   3.498   5.450
14443TIP3    H143272   4.137   3.545   5.400
14443TIP3    H243273   4.120   3.434   5.501
14444TIP3   OH243274   4.345   1.246   0.393
14444TIP3    H143275   4.256   1.253   0.428
14444TIP3    H243276   4.397   1.217   0.468
14445TIP3   OH243277   7.411   7.140   2.067
14445TIP3    H143278   7.435   7.178   1.983
14445TIP3    H243279   7.338   7.194   2.098
14446TIP3   OH243280   1.670   4.673   5.500
14446TIP3    H143281   1.746   4.723   5.470
14446TIP3    H243282   1.662   4.602   5.436
14447TIP3   OH243283   5.015   1.711   5.228
14447TIP3    H143284   5.029   1.758   5.310
14447TIP3    H243285   4.998   1.779   5.164
14448TIP3   OH243286   4.025   1.791   2.927
14448TIP3    H143287   4.063   1.790   3.015
14448TIP3    H243288   4.101   1.802   2.869
14449TIP3   OH243289   8.017   1.823   2.167
14449TIP3    H143290   8.036   1.907   2.125
14449TIP3    H243291   7.921   1.817   2.164
14450TIP3   OH243292   7.922   4.527   1.358
14450TIP3    H143293   7.895   4.600   1.303
14450TIP3    H243294   7.943   4.457   1.297
14451TIP3   OH243295   0.542   4.736   2.203
14451TIP3    H143296   0.483   4.725   2.278
14451TIP3    H243297   0.609   4.668   2.216
14452TIP3   OH243298   4.678   1.247   4.955
14452TIP3    H143299   4.773   1.232   4.958
14452TIP3    H243300   4.641   1.160   4.940
14453TIP3   OH243301   7.902   2.155   0.843
14453TIP3    H143302   7.972   2.220   0.853
14453TIP3    H243303   7.878   2.131   0.932
14454TIP3   OH243304   3.904   3.922   3.502
14454TIP3    H143305   3.960   3.944   3.428
14454TIP3    H243306   3.908   4.000   3.558
14455TIP3   OH243307   8.277   6.447   6.726
14455TIP3    H143308   8.189   6.483   6.718
14455TIP3    H243309   8.319   6.468   6.642
14456TIP3   OH243310   0.301   0.373   1.109
14456TIP3    H143311   0.285   0.323   1.189
14456TIP3    H243312   0.359   0.317   1.057
14457TIP3   OH243313   5.100   3.158   6.245
14457TIP3    H143314   5.038   3.204   6.189
14457TIP3    H243315   5.140   3.227   6.298
14458TIP3   OH243316   2.433   5.368   0.697
14458TIP3    H143317   2.424   5.378   0.602
14458TIP3    H243318   2.351   5.325   0.725
14459TIP3   OH243319   4.643   1.007   3.650
14459TIP3    H143320   4.689   0.934   3.608
14459TIP3    H243321   4.551   0.985   3.640
14460TIP3   OH243322   3.542   5.341   6.445
14460TIP3    H143323   3.574   5.281   6.512
14460TIP3    H243324   3.535   5.288   6.366
14461TIP3   OH243325   2.218   7.169   2.001
14461TIP3    H143326   2.307   7.198   2.023
14461TIP3    H243327   2.226   7.074   1.992
14462TIP3   OH243328   8.051   5.003   1.414
14462TIP3    H143329   8.136   5.042   1.432
14462TIP3    H243330   8.009   4.993   1.499
14463TIP3   OH243331   7.930   1.049   5.973
14463TIP3    H143332   7.842   1.083   5.956
14463TIP3    H243333   7.918   0.954   5.976
14464TIP3   OH243334   3.425   5.784   2.148
14464TIP3    H143335   3.414   5.774   2.054
14464TIP3    H243336   3.404   5.875   2.166
14465TIP3   OH243337   6.936   4.700   3.150
14465TIP3    H143338   7.021   4.660   3.133
14465TIP3    H243339   6.877   4.625   3.161
14466TIP3   OH243340   5.066   7.559   3.362
14466TIP3    H143341   5.160   7.574   3.355
14466TIP3    H243342   5.029   7.597   3.283
14467TIP3   OH243343   3.006   4.818   5.712
14467TIP3    H143344   2.927   4.813   5.766
14467TIP3    H243345   2.981   4.877   5.640
14468TIP3   OH243346   1.849   4.935   3.388
14468TIP3    H143347   1.890   4.849   3.375
14468TIP3    H243348   1.923   4.996   3.391
14469TIP3   OH243349   4.996   7.357   0.128
14469TIP3    H143350   4.934   7.413   0.082
14469TIP3    H243351   5.041   7.308   0.059
14470TIP3   OH243352   4.859   6.486   1.866
14470TIP3    H143353   4.885   6.546   1.796
14470TIP3    H243354   4.885   6.399   1.835
14471TIP3   OH243355   4.703   2.352   4.102
14471TIP3    H143356   4.640   2.412   4.141
14471TIP3    H243357   4.668   2.265   4.119
14472TIP3   OH243358   8.167  -0.003   2.714
14472TIP3    H143359   8.110   0.038   2.780
14472TIP3    H243360   8.137   0.032   2.631
14473TIP3   OH243361   1.472   2.676   1.676
14473TIP3    H143362   1.438   2.695   1.588
14473TIP3    H243363   1.554   2.726   1.681
14474TIP3   OH243364   2.255   5.945   5.599
14474TIP3    H143365   2.265   5.879   5.531
14474TIP3    H243366   2.178   5.917   5.648
14475TIP3   OH243367   5.218   4.386   4.258
14475TIP3    H143368   5.284   4.432   4.206
14475TIP3    H243369   5.206   4.303   4.212
14476TIP3   OH243370   0.508   0.320   0.864
14476TIP3    H143371   0.580   0.383   0.853
14476TIP3    H243372   0.543   0.255   0.925
14477TIP3   OH243373   6.705   3.888   4.726
14477TIP3    H143374   6.738   3.827   4.661
14477TIP3    H243375   6.775   3.952   4.737
14478TIP3   OH243376   6.168   0.278   6.046
14478TIP3    H143377   6.153   0.371   6.061
14478TIP3    H243378   6.234   0.275   5.977
14479TIP3   OH243379   1.379   0.439   4.261
14479TIP3    H143380   1.337   0.433   4.346
14479TIP3    H243381   1.446   0.371   4.262
14480TIP3   OH243382   0.442   6.598   0.618
14480TIP3    H143383   0.394   6.616   0.699
14480TIP3    H243384   0.528   6.638   0.632
14481TIP3   OH243385   4.120   6.769   5.433
14481TIP3    H143386   4.164   6.726   5.506
14481TIP3    H243387   4.032   6.732   5.432
14482TIP3   OH243388   6.544   4.212   4.530
14482TIP3    H143389   6.502   4.289   4.569
14482TIP3    H243390   6.495   4.138   4.567
14483TIP3   OH243391   1.563   1.351   2.238
14483TIP3    H143392   1.519   1.278   2.195
14483TIP3    H243393   1.584   1.411   2.167
14484TIP3   OH243394   4.766   0.295   2.678
14484TIP3    H143395   4.791   0.365   2.739
14484TIP3    H243396   4.845   0.281   2.625
14485TIP3   OH243397   0.158   3.892   6.362
14485TIP3    H143398   0.173   3.859   6.451
14485TIP3    H243399   0.236   3.944   6.343
14486TIP3   OH243400   4.772   5.305   4.968
14486TIP3    H143401   4.823   5.228   4.943
14486TIP3    H243402   4.834   5.378   4.961
14487TIP3   OH243403   7.893   1.894   0.745
14487TIP3    H143404   7.939   1.848   0.816
14487TIP3    H243405   7.860   1.974   0.786
14488TIP3   OH243406   7.390   1.247   0.728
14488TIP3    H143407   7.357   1.302   0.799
14488TIP3    H243408   7.440   1.178   0.772
14489TIP3   OH243409   6.571   5.769   5.064
14489TIP3    H143410   6.643   5.783   5.127
14489TIP3    H243411   6.493   5.800   5.110
14490TIP3   OH243412   0.407   7.547   2.492
14490TIP3    H143413   0.356   7.581   2.419
14490TIP3    H243414   0.404   7.452   2.481
14491TIP3   OH243415   1.658   7.715   4.048
14491TIP3    H143416   1.615   7.631   4.030
14491TIP3    H243417   1.751   7.695   4.045
14492TIP3   OH243418   3.490   0.226   4.501
14492TIP3    H143419   3.579   0.245   4.472
14492TIP3    H243420   3.488   0.255   4.592
14493TIP3   OH243421   7.152   2.350   2.071
14493TIP3    H143422   7.059   2.345   2.095
14493TIP3    H243423   7.184   2.261   2.082
14494TIP3   OH243424   5.156   4.272   4.699
14494TIP3    H143425   5.116   4.185   4.700
14494TIP3    H243426   5.153   4.301   4.790
14495TIP3   OH243427   6.471   7.755   2.088
14495TIP3    H143428   6.525   7.834   2.088
14495TIP3    H243429   6.512   7.699   2.022
14496TIP3   OH243430   4.850   1.906   3.534
14496TIP3    H143431   4.799   1.826   3.531
14496TIP3    H243432   4.831   1.944   3.620
14497TIP3   OH243433   7.621   5.506   4.136
14497TIP3    H143434   7.621   5.421   4.181
14497TIP3    H243435   7.622   5.571   4.207
14498TIP3   OH243436   3.660   7.147   6.444
14498TIP3    H143437   3.607   7.226   6.441
14498TIP3    H243438   3.598   7.078   6.471
14499TIP3   OH243439   0.956   1.331   4.006
14499TIP3    H143440   0.931   1.239   4.014
14499TIP3    H243441   1.015   1.346   4.079
14500TIP3   OH243442   5.803   1.948   5.836
14500TIP3    H143443   5.852   1.998   5.902
14500TIP3    H243444   5.742   2.012   5.799
14501TIP3   OH243445   4.028   3.052   3.504
14501TIP3    H143446   4.035   3.147   3.510
14501TIP3    H243447   3.969   3.028   3.575
14502TIP3   OH243448   3.039   6.453   5.254
14502TIP3    H143449   3.106   6.476   5.319
14502TIP3    H243450   3.056   6.512   5.181
14503TIP3   OH243451   8.067   1.387   1.102
14503TIP3    H143452   8.134   1.320   1.116
14503TIP3    H243453   8.077   1.412   1.010
14504TIP3   OH243454   7.654   2.872   1.364
14504TIP3    H143455   7.750   2.871   1.368
14504TIP3    H243456   7.634   2.877   1.270
14505TIP3   OH243457   5.000   1.421   6.665
14505TIP3    H143458   4.985   1.419   6.570
14505TIP3    H243459   5.080   1.370   6.678
14506TIP3   OH243460   3.965   5.046   5.780
14506TIP3    H143461   4.034   4.987   5.811
14506TIP3    H243462   3.884   5.009   5.815
14507TIP3   OH243463   8.235   6.768   1.757
14507TIP3    H143464   8.213   6.861   1.756
14507TIP3    H243465   8.262   6.751   1.848
14508TIP3   OH243466   5.682   2.262   3.339
14508TIP3    H143467   5.747   2.271   3.408
14508TIP3    H243468   5.652   2.171   3.345
14509TIP3   OH243469   7.146   4.212   3.715
14509TIP3    H143470   7.176   4.177   3.631
14509TIP3    H243471   7.105   4.137   3.759
14510TIP3   OH243472   7.155   3.689   2.900
14510TIP3    H143473   7.075   3.693   2.848
14510TIP3    H243474   7.166   3.597   2.921
14511TIP3   OH243475   6.021   0.846   4.817
14511TIP3    H143476   6.036   0.880   4.905
14511TIP3    H243477   5.963   0.771   4.829
14512TIP3   OH243478   1.751   5.555   3.950
14512TIP3    H143479   1.773   5.634   3.900
14512TIP3    H243480   1.816   5.491   3.923
14513TIP3   OH243481   0.464   6.149   2.723
14513TIP3    H143482   0.373   6.173   2.703
14513TIP3    H243483   0.460   6.104   2.807
14514TIP3   OH243484   3.065   1.691   1.565
14514TIP3    H143485   3.160   1.705   1.560
14514TIP3    H243486   3.027   1.764   1.517
14515TIP3   OH243487   2.952   4.372   5.738
14515TIP3    H143488   3.007   4.424   5.797
14515TIP3    H243489   2.866   4.413   5.742
14516TIP3   OH243490   1.529   5.449   4.551
14516TIP3    H143491   1.568   5.504   4.618
14516TIP3    H243492   1.571   5.477   4.469
14517TIP3   OH243493   1.660   4.069   2.437
14517TIP3    H143494   1.642   4.133   2.368
14517TIP3    H243495   1.627   3.986   2.401
14518TIP3   OH243496   0.802   6.595   2.298
14518TIP3    H143497   0.725   6.644   2.329
14518TIP3    H243498   0.851   6.576   2.378
14519TIP3   OH243499   7.745   7.217   2.383
14519TIP3    H143500   7.794   7.296   2.362
14519TIP3    H243501   7.680   7.245   2.447
14520TIP3   OH243502   5.645   3.496   2.517
14520TIP3    H143503   5.634   3.425   2.581
14520TIP3    H243504   5.737   3.520   2.523
14521TIP3   OH243505   6.660   1.469   4.283
14521TIP3    H143506   6.576   1.506   4.253
14521TIP3    H243507   6.676   1.397   4.222
14522TIP3   OH243508   7.755   3.077   0.329
14522TIP3    H143509   7.823   3.116   0.383
14522TIP3    H243510   7.678   3.072   0.387
14523TIP3   OH243511   7.912   4.030   0.625
14523TIP3    H143512   7.894   3.953   0.572
14523TIP3    H243513   8.007   4.041   0.619
14524TIP3   OH243514   7.937   2.624   0.795
14524TIP3    H143515   7.988   2.547   0.770
14524TIP3    H243516   8.002   2.690   0.817
14525TIP3   OH243517   5.403   3.873   0.447
14525TIP3    H143518   5.387   3.797   0.392
14525TIP3    H243519   5.390   3.841   0.536
14526TIP3   OH243520   1.107   7.616   3.838
14526TIP3    H143521   1.022   7.661   3.841
14526TIP3    H243522   1.169   7.685   3.813
14527TIP3   OH243523   0.824   0.457   2.664
14527TIP3    H143524   0.751   0.453   2.725
14527TIP3    H243525   0.856   0.367   2.659
14528TIP3   OH243526   2.061   4.725   3.269
14528TIP3    H143527   2.016   4.641   3.269
14528TIP3    H243528   2.088   4.738   3.178
14529TIP3   OH243529   7.639   4.977   0.287
14529TIP3    H143530   7.628   5.052   0.228
14529TIP3    H243531   7.643   4.901   0.230
14530TIP3   OH243532   0.473   1.765   2.803
14530TIP3    H143533   0.556   1.782   2.758
14530TIP3    H243534   0.469   1.669   2.810
14531TIP3   OH243535   5.369   7.005   0.335
14531TIP3    H143536   5.284   7.045   0.316
14531TIP3    H243537   5.358   6.913   0.310
14532TIP3   OH243538   4.931   5.822   4.174
14532TIP3    H143539   4.962   5.732   4.173
14532TIP3    H243540   4.885   5.832   4.257
14533TIP3   OH243541   6.470   3.107   4.431
14533TIP3    H143542   6.452   3.179   4.491
14533TIP3    H243543   6.529   3.144   4.366
14534TIP3   OH243544   0.489  -0.057   5.031
14534TIP3    H143545   0.426   0.013   5.016
14534TIP3    H243546   0.574  -0.018   5.009
14535TIP3   OH243547   7.907   6.679   5.545
14535TIP3    H143548   7.920   6.650   5.455
14535TIP3    H243549   7.927   6.603   5.599
14536TIP3   OH243550   5.302   0.172   4.557
14536TIP3    H143551   5.323   0.078   4.562
14536TIP3    H243552   5.307   0.202   4.648
14537TIP3   OH243553   5.802   6.162   1.108
14537TIP3    H143554   5.827   6.181   1.018
14537TIP3    H243555   5.818   6.069   1.119
14538TIP3   OH243556   1.480   5.029   5.368
14538TIP3    H143557   1.500   4.939   5.393
14538TIP3    H243558   1.428   5.021   5.287
14539TIP3   OH243559   1.937   5.279   4.160
14539TIP3    H143560   1.863   5.339   4.171
14539TIP3    H243561   1.975   5.303   4.075
14540TIP3   OH243562   6.455   5.646   6.051
14540TIP3    H143563   6.435   5.670   5.961
14540TIP3    H243564   6.369   5.626   6.090
14541TIP3   OH243565   1.040   0.600   3.806
14541TIP3    H143566   1.101   0.569   3.874
14541TIP3    H243567   1.037   0.695   3.818
14542TIP3   OH243568   0.803   3.009   0.848
14542TIP3    H143569   0.743   3.059   0.792
14542TIP3    H243570   0.780   2.918   0.831
14543TIP3   OH243571   8.145   0.060   4.581
14543TIP3    H143572   8.162   0.020   4.666
14543TIP3    H243573   8.107   0.145   4.601
14544TIP3   OH243574   3.516   7.170   1.501
14544TIP3    H143575   3.548   7.085   1.473
14544TIP3    H243576   3.573   7.233   1.456
14545TIP3   OH243577   6.746   7.082   2.145
14545TIP3    H143578   6.823   7.109   2.096
14545TIP3    H243579   6.752   7.130   2.228
14546TIP3   OH243580   5.426   6.581   4.148
14546TIP3    H143581   5.418   6.486   4.138
14546TIP3    H243582   5.499   6.604   4.090
14547TIP3   OH243583   6.357   0.888   6.103
14547TIP3    H143584   6.362   0.970   6.055
14547TIP3    H243585   6.448   0.860   6.113
14548TIP3   OH243586   0.172   0.599   4.496
14548TIP3    H143587   0.222   0.598   4.414
14548TIP3    H243588   0.098   0.656   4.478
14549TIP3   OH243589   7.943   6.138   1.766
14549TIP3    H143590   7.962   6.201   1.697
14549TIP3    H243591   7.848   6.142   1.778
14550TIP3   OH243592   1.095   2.724   3.732
14550TIP3    H143593   1.002   2.712   3.712
14550TIP3    H243594   1.125   2.637   3.758
14551TIP3   OH243595   8.126   5.868   5.853
14551TIP3    H143596   8.067   5.806   5.895
14551TIP3    H243597   8.208   5.820   5.841
14552TIP3   OH243598   1.904   4.087   5.942
14552TIP3    H143599   1.843   4.144   5.896
14552TIP3    H243600   1.928   4.136   6.021
14553TIP3   OH243601   4.191   1.402   5.976
14553TIP3    H143602   4.136   1.349   5.919
14553TIP3    H243603   4.279   1.394   5.938
14554TIP3   OH243604   5.045   2.253   5.025
14554TIP3    H143605   5.091   2.329   4.989
14554TIP3    H243606   5.061   2.258   5.119
14555TIP3   OH243607   4.164   6.823   3.758
14555TIP3    H143608   4.246   6.869   3.778
14555TIP3    H243609   4.190   6.752   3.699
14556TIP3   OH243610   7.909   0.051   0.572
14556TIP3    H143611   7.884   0.135   0.533
14556TIP3    H243612   7.847   0.039   0.644
14557TIP3   OH243613   5.616   6.134   4.619
14557TIP3    H143614   5.676   6.065   4.647
14557TIP3    H243615   5.540   6.088   4.584
14558TIP3   OH243616   2.092   4.220   2.410
14558TIP3    H143617   2.156   4.269   2.461
14558TIP3    H243618   2.082   4.270   2.329
14559TIP3   OH243619   4.793   4.839   0.312
14559TIP3    H143620   4.831   4.876   0.392
14559TIP3    H243621   4.818   4.746   0.314
14560TIP3   OH243622   3.453   4.180   3.014
14560TIP3    H143623   3.431   4.089   3.035
14560TIP3    H243624   3.394   4.232   3.069
14561TIP3   OH243625   7.158   0.487   5.178
14561TIP3    H143626   7.226   0.443   5.228
14561TIP3    H243627   7.196   0.572   5.155
14562TIP3   OH243628   7.444   3.761   2.331
14562TIP3    H143629   7.402   3.847   2.325
14562TIP3    H243630   7.436   3.725   2.243
14563TIP3   OH243631   4.496   2.333   0.998
14563TIP3    H143632   4.571   2.318   1.056
14563TIP3    H243633   4.446   2.403   1.041
14564TIP3   OH243634   5.375   6.001   4.548
14564TIP3    H143635   5.353   5.992   4.455
14564TIP3    H243636   5.295   6.037   4.587
14565TIP3   OH243637   4.801   0.814   2.103
14565TIP3    H143638   4.818   0.804   2.009
14565TIP3    H243639   4.801   0.725   2.137
14566TIP3   OH243640   7.810   6.345   2.763
14566TIP3    H143641   7.809   6.321   2.855
14566TIP3    H243642   7.759   6.277   2.719
14567TIP3   OH243643   5.386   7.696   2.085
14567TIP3    H143644   5.428   7.773   2.124
14567TIP3    H243645   5.418   7.622   2.137
14568TIP3   OH243646   4.879   1.256   2.317
14568TIP3    H143647   4.958   1.261   2.369
14568TIP3    H243648   4.808   1.245   2.381
14569TIP3   OH243649   0.657   5.219   3.652
14569TIP3    H143650   0.596   5.288   3.626
14569TIP3    H243651   0.610   5.170   3.719
14570TIP3   OH243652   4.025   0.195   2.417
14570TIP3    H143653   4.116   0.219   2.433
14570TIP3    H243654   4.029   0.123   2.354
14571TIP3   OH243655   4.333   0.546   2.320
14571TIP3    H143656   4.237   0.552   2.326
14571TIP3    H243657   4.362   0.535   2.410
14572TIP3   OH243658   4.368   7.076   2.705
14572TIP3    H143659   4.331   7.138   2.768
14572TIP3    H243660   4.361   6.991   2.749
14573TIP3   OH243661   4.155   4.283   2.879
14573TIP3    H143662   4.080   4.309   2.932
14573TIP3    H243663   4.194   4.366   2.851
14574TIP3   OH243664   6.357   6.356   2.950
14574TIP3    H143665   6.407   6.386   2.875
14574TIP3    H243666   6.312   6.434   2.982
14575TIP3   OH243667   7.771   6.943   4.309
14575TIP3    H143668   7.844   6.887   4.334
14575TIP3    H243669   7.749   6.917   4.220
14576TIP3   OH243670   4.587   6.507   3.952
14576TIP3    H143671   4.514   6.566   3.974
14576TIP3    H243672   4.663   6.547   3.994
14577TIP3   OH243673   0.239   4.342   4.368
14577TIP3    H143674   0.329   4.357   4.396
14577TIP3    H243675   0.230   4.246   4.369
14578TIP3   OH243676   4.372   1.315   2.671
14578TIP3    H143677   4.360   1.292   2.579
14578TIP3    H243678   4.370   1.231   2.717
14579TIP3   OH243679   3.460   1.601   6.252
14579TIP3    H143680   3.517   1.677   6.243
14579TIP3    H243681   3.409   1.618   6.331
14580TIP3   OH243682   7.685   6.898   3.092
14580TIP3    H143683   7.696   6.956   3.017
14580TIP3    H243684   7.646   6.819   3.055
14581TIP3   OH243685   5.503   4.544   3.457
14581TIP3    H143686   5.447   4.473   3.426
14581TIP3    H243687   5.497   4.611   3.388
14582TIP3   OH243688   2.664   5.571   2.287
14582TIP3    H143689   2.725   5.586   2.359
14582TIP3    H243690   2.660   5.475   2.280
14583TIP3   OH243691   4.615   6.493   6.514
14583TIP3    H143692   4.634   6.517   6.605
14583TIP3    H243693   4.542   6.550   6.489
14584TIP3   OH243694   2.964   2.250   5.059
14584TIP3    H143695   2.892   2.189   5.073
14584TIP3    H243696   2.961   2.270   4.965
14585TIP3   OH243697   6.561   7.743   0.252
14585TIP3    H143698   6.650   7.777   0.245
14585TIP3    H243699   6.571   7.648   0.254
14586TIP3   OH243700   6.225   6.349   2.297
14586TIP3    H143701   6.272   6.271   2.267
14586TIP3    H243702   6.139   6.316   2.323
14587TIP3   OH243703   7.876   2.228   1.829
14587TIP3    H143704   7.918   2.311   1.849
14587TIP3    H243705   7.832   2.244   1.745
14588TIP3   OH243706   5.642   7.211   2.470
14588TIP3    H143707   5.693   7.256   2.402
14588TIP3    H243708   5.558   7.191   2.426
14589TIP3   OH243709   6.067   2.043   6.492
14589TIP3    H143710   5.987   2.026   6.541
14589TIP3    H243711   6.100   1.956   6.469
14590TIP3   OH243712   4.136   0.609   0.145
14590TIP3    H143713   4.180   0.638   0.225
14590TIP3    H243714   4.180   0.656   0.075
14591TIP3   OH243715   0.936   4.029   3.482
14591TIP3    H143716   0.864   4.052   3.542
14591TIP3    H243717   1.014   4.066   3.523
14592TIP3   OH243718   6.111   5.903   3.258
14592TIP3    H143719   6.143   5.950   3.180
14592TIP3    H243720   6.107   5.812   3.231
14593TIP3   OH243721   4.254   5.829   5.537
14593TIP3    H143722   4.159   5.838   5.527
14593TIP3    H243723   4.289   5.907   5.495
14594TIP3   OH243724  -0.002   0.109   3.723
14594TIP3    H143725  -0.030   0.158   3.800
14594TIP3    H243726   0.091   0.092   3.739
14595TIP3   OH243727   3.174   1.781   0.889
14595TIP3    H143728   3.078   1.772   0.893
14595TIP3    H243729   3.193   1.799   0.797
14596TIP3   OH243730   5.584   4.608   5.701
14596TIP3    H143731   5.493   4.580   5.707
14596TIP3    H243732   5.600   4.616   5.607
14597TIP3   OH243733   2.767   0.231   3.748
14597TIP3    H143734   2.808   0.318   3.753
14597TIP3    H243735   2.754   0.217   3.655
14598TIP3   OH243736   7.344   1.402   0.963
14598TIP3    H143737   7.433   1.435   0.975
14598TIP3    H243738   7.288   1.471   0.998
14599TIP3   OH243739   2.072   4.831   0.358
14599TIP3    H143740   1.994   4.808   0.307
14599TIP3    H243741   2.144   4.787   0.311
14600TIP3   OH243742   5.267   7.600   5.899
14600TIP3    H143743   5.204   7.568   5.963
14600TIP3    H243744   5.329   7.653   5.950
14601TIP3   OH243745   2.692   6.102   3.891
14601TIP3    H143746   2.664   6.181   3.936
14601TIP3    H243747   2.618   6.042   3.900
14602TIP3   OH243748   7.184   3.718   3.975
14602TIP3    H143749   7.149   3.771   4.046
14602TIP3    H243750   7.232   3.780   3.920
14603TIP3   OH243751   2.282   3.698   1.176
14603TIP3    H143752   2.317   3.706   1.265
14603TIP3    H243753   2.302   3.781   1.134
14604TIP3   OH243754   0.279   2.798   3.020
14604TIP3    H143755   0.303   2.890   3.027
14604TIP3    H243756   0.242   2.776   3.106
14605TIP3   OH243757   7.234   2.365   5.732
14605TIP3    H143758   7.321   2.331   5.755
14605TIP3    H243759   7.251   2.454   5.701
14606TIP3   OH243760   5.332   0.726   6.362
14606TIP3    H143761   5.387   0.803   6.374
14606TIP3    H243762   5.324   0.688   6.449
14607TIP3   OH243763   2.289   1.013   0.833
14607TIP3    H143764   2.303   1.001   0.739
14607TIP3    H243765   2.262   1.104   0.843
14608TIP3   OH243766   0.540   3.552   4.110
14608TIP3    H143767   0.594   3.501   4.171
14608TIP3    H243768   0.477   3.596   4.166
14609TIP3   OH243769   1.111   0.275   1.495
14609TIP3    H143770   1.130   0.198   1.442
14609TIP3    H243771   1.016   0.285   1.489
14610TIP3   OH243772   5.158   0.537   6.626
14610TIP3    H143773   5.108   0.615   6.651
14610TIP3    H243774   5.092   0.468   6.618
14611TIP3   OH243775   0.492   3.046   6.342
14611TIP3    H143776   0.407   3.020   6.307
14611TIP3    H243777   0.517   3.121   6.288
14612TIP3   OH243778   0.833   6.071   0.871
14612TIP3    H143779   0.788   5.986   0.875
14612TIP3    H243780   0.765   6.132   0.843
14613TIP3   OH243781   0.058   1.550   5.783
14613TIP3    H143782   0.078   1.550   5.689
14613TIP3    H243783   0.087   1.463   5.813
14614TIP3   OH243784   0.465   3.215   0.153
14614TIP3    H143785   0.422   3.182   0.074
14614TIP3    H243786   0.538   3.155   0.167
14615TIP3   OH243787   0.210   4.651   0.516
14615TIP3    H143788   0.249   4.706   0.584
14615TIP3    H243789   0.121   4.685   0.507
14616TIP3   OH243790   7.834   2.538   3.549
14616TIP3    H143791   7.772   2.465   3.556
14616TIP3    H243792   7.915   2.497   3.518
14617TIP3   OH243793   1.132   3.643   3.613
14617TIP3    H143794   1.166   3.719   3.659
14617TIP3    H243795   1.069   3.604   3.673
14618TIP3   OH243796   7.136   5.840   6.400
14618TIP3    H143797   7.056   5.849   6.451
14618TIP3    H243798   7.136   5.917   6.342
14619TIP3   OH243799   6.256   0.532   4.099
14619TIP3    H143800   6.280   0.488   4.017
14619TIP3    H243801   6.280   0.624   4.085
14620TIP3   OH243802   0.629   6.373   0.959
14620TIP3    H143803   0.694   6.310   0.989
14620TIP3    H243804   0.629   6.363   0.863
14621TIP3   OH243805   2.861   1.293   0.212
14621TIP3    H143806   2.873   1.291   0.307
14621TIP3    H243807   2.848   1.386   0.193
14622TIP3   OH243808   7.082   0.556   1.850
14622TIP3    H143809   7.069   0.617   1.923
14622TIP3    H243810   6.997   0.513   1.840
14623TIP3   OH243811   6.421   1.924   4.553
14623TIP3    H143812   6.374   1.988   4.606
14623TIP3    H243813   6.441   1.969   4.472
14624TIP3   OH243814   7.060   4.684   4.807
14624TIP3    H143815   7.064   4.599   4.763
14624TIP3    H243816   7.023   4.743   4.741
14625TIP3   OH243817   5.906   1.449   5.838
14625TIP3    H143818   5.994   1.431   5.872
14625TIP3    H243819   5.870   1.512   5.900
14626TIP3   OH243820   4.000   6.419   4.461
14626TIP3    H143821   4.083   6.466   4.458
14626TIP3    H243822   3.949   6.465   4.528
14627TIP3   OH243823   0.495   2.271   4.896
14627TIP3    H143824   0.530   2.360   4.890
14627TIP3    H243825   0.436   2.263   4.822
14628TIP3   OH243826   2.703   7.136   3.092
14628TIP3    H143827   2.607   7.128   3.090
14628TIP3    H243828   2.719   7.230   3.101
14629TIP3   OH243829   2.903   2.230   1.629
14629TIP3    H143830   2.943   2.252   1.545
14629TIP3    H243831   2.809   2.236   1.614
14630TIP3   OH243832   3.737   3.839   3.142
14630TIP3    H143833   3.774   3.797   3.064
14630TIP3    H243834   3.749   3.775   3.212
14631TIP3   OH243835   4.056   5.707   2.951
14631TIP3    H143836   4.104   5.763   3.012
14631TIP3    H243837   4.009   5.769   2.895
14632TIP3   OH243838   2.686   6.076   4.814
14632TIP3    H143839   2.591   6.071   4.818
14632TIP3    H243840   2.716   6.041   4.898
14633TIP3   OH243841   4.629   6.341   5.689
14633TIP3    H143842   4.535   6.325   5.697
14633TIP3    H243843   4.662   6.268   5.636
14634TIP3   OH243844   7.877   7.479   4.526
14634TIP3    H143845   7.914   7.405   4.574
14634TIP3    H243846   7.816   7.519   4.588
14635TIP3   OH243847   3.155   1.558   3.993
14635TIP3    H143848   3.243   1.572   4.028
14635TIP3    H243849   3.168   1.505   3.914
14636TIP3   OH243850   0.319   0.505   3.117
14636TIP3    H143851   0.318   0.415   3.152
14636TIP3    H243852   0.234   0.516   3.076
14637TIP3   OH243853   7.653   4.859   4.508
14637TIP3    H143854   7.656   4.841   4.414
14637TIP3    H243855   7.741   4.891   4.529
14638TIP3   OH243856   2.347   1.852   3.256
14638TIP3    H143857   2.259   1.848   3.294
14638TIP3    H243858   2.397   1.907   3.316
14639TIP3   OH243859   3.166   6.843   0.755
14639TIP3    H143860   3.126   6.902   0.692
14639TIP3    H243861   3.254   6.825   0.720
14640TIP3   OH243862   8.039   7.532   1.392
14640TIP3    H143863   7.978   7.544   1.465
14640TIP3    H243864   7.983   7.507   1.319
14641TIP3   OH243865   5.377   6.458   3.426
14641TIP3    H143866   5.315   6.491   3.490
14641TIP3    H243867   5.439   6.530   3.412
14642TIP3   OH243868   5.676   3.331   5.285
14642TIP3    H143869   5.767   3.348   5.261
14642TIP3    H243870   5.626   3.400   5.242
14643TIP3   OH243871   4.010   7.632   0.038
14643TIP3    H143872   3.950   7.660   0.107
14643TIP3    H243873   3.977   7.547   0.010
14644TIP3   OH243874   4.746   6.529   4.378
14644TIP3    H143875   4.784   6.456   4.330
14644TIP3    H243876   4.770   6.512   4.469
14645TIP3   OH243877   1.223   6.159   1.847
14645TIP3    H143878   1.319   6.157   1.848
14645TIP3    H243879   1.202   6.252   1.840
14646TIP3   OH243880   7.564   0.914   5.736
14646TIP3    H143881   7.562   0.953   5.648
14646TIP3    H243882   7.595   0.825   5.722
14647TIP3   OH243883   3.730   3.425   3.450
14647TIP3    H143884   3.650   3.373   3.452
14647TIP3    H243885   3.774   3.406   3.533
14648TIP3   OH243886   5.503   5.200   6.585
14648TIP3    H143887   5.449   5.126   6.612
14648TIP3    H243888   5.443   5.274   6.581
14649TIP3   OH243889   6.208   1.620   5.833
14649TIP3    H143890   6.164   1.697   5.796
14649TIP3    H243891   6.301   1.637   5.818
14650TIP3   OH243892   7.127   7.597   1.471
14650TIP3    H143893   7.145   7.504   1.454
14650TIP3    H243894   7.108   7.634   1.385
14651TIP3   OH243895   4.655   6.548   2.077
14651TIP3    H143896   4.721   6.550   2.007
14651TIP3    H243897   4.706   6.548   2.158
14652TIP3   OH243898   3.036   4.127   6.317
14652TIP3    H143899   3.090   4.072   6.374
14652TIP3    H243900   3.039   4.083   6.232
14653TIP3   OH243901   4.036   3.572   1.975
14653TIP3    H143902   4.114   3.516   1.967
14653TIP3    H243903   3.966   3.511   1.999
14654TIP3   OH243904   7.174   5.406   2.001
14654TIP3    H143905   7.242   5.466   1.969
14654TIP3    H243906   7.222   5.329   2.030
14655TIP3   OH243907   1.439   1.464   3.664
14655TIP3    H143908   1.393   1.499   3.740
14655TIP3    H243909   1.371   1.453   3.597
14656TIP3   OH243910   4.706   1.675   3.561
14656TIP3    H143911   4.626   1.719   3.589
14656TIP3    H243912   4.756   1.663   3.642
14657TIP3   OH243913   1.354   4.412   5.346
14657TIP3    H143914   1.335   4.340   5.406
14657TIP3    H243915   1.272   4.461   5.339
14658TIP3   OH243916   2.458   1.356   0.050
14658TIP3    H143917   2.511   1.377  -0.027
14658TIP3    H243918   2.501   1.401   0.122
14659TIP3   OH243919   3.822   5.166   0.887
14659TIP3    H143920   3.901   5.113   0.881
14659TIP3    H243921   3.824   5.203   0.976
14660TIP3   OH243922   0.607   1.613   2.222
14660TIP3    H143923   0.545   1.545   2.248
14660TIP3    H243924   0.669   1.569   2.164
14661TIP3   OH243925   2.713   0.893   2.022
14661TIP3    H143926   2.754   0.952   2.085
14661TIP3    H243927   2.787   0.846   1.983
14662TIP3   OH243928   6.360   0.372   2.554
14662TIP3    H143929   6.431   0.378   2.618
14662TIP3    H243930   6.292   0.321   2.599
14663TIP3   OH243931   7.122   4.481   3.052
14663TIP3    H143932   7.203   4.434   3.073
14663TIP3    H243933   7.058   4.449   3.116
14664TIP3   OH243934   2.646   0.111   6.585
14664TIP3    H143935   2.705   0.091   6.658
14664TIP3    H243936   2.702   0.110   6.508
14665TIP3   OH243937   6.595   6.975   1.920
14665TIP3    H143938   6.672   6.944   1.872
14665TIP3    H243939   6.627   6.992   2.009
14666TIP3   OH243940   2.269   6.154   6.012
14666TIP3    H143941   2.294   6.246   6.004
14666TIP3    H243942   2.181   6.149   5.975
14667TIP3   OH243943   6.141   0.950   6.305
14667TIP3    H143944   6.048   0.931   6.317
14667TIP3    H243945   6.158   0.934   6.213
14668TIP3   OH243946   3.611   6.083   4.718
14668TIP3    H143947   3.535   6.045   4.674
14668TIP3    H243948   3.622   6.030   4.797
14669TIP3   OH243949   6.630   0.820   5.514
14669TIP3    H143950   6.629   0.803   5.419
14669TIP3    H243951   6.685   0.898   5.524
14670TIP3   OH243952   0.979   4.098   6.462
14670TIP3    H143953   1.011   4.009   6.444
14670TIP3    H243954   1.046   4.137   6.518
14671TIP3   OH243955   6.196   1.539   4.099
14671TIP3    H143956   6.157   1.603   4.039
14671TIP3    H243957   6.272   1.583   4.136
14672TIP3   OH243958   0.333   3.307   4.676
14672TIP3    H143959   0.357   3.264   4.758
14672TIP3    H243960   0.394   3.271   4.612
14673TIP3   OH243961   0.999   7.189   1.831
14673TIP3    H143962   0.963   7.153   1.750
14673TIP3    H243963   0.969   7.129   1.899
14674TIP3   OH243964   5.752   5.196   3.878
14674TIP3    H143965   5.671   5.221   3.923
14674TIP3    H243966   5.761   5.262   3.809
14675TIP3   OH243967   2.778   4.358   5.306
14675TIP3    H143968   2.737   4.409   5.375
14675TIP3    H243969   2.743   4.394   5.225
14676TIP3   OH243970   5.447   4.509   6.426
14676TIP3    H143971   5.420   4.429   6.381
14676TIP3    H243972   5.373   4.531   6.483
14677TIP3   OH243973   6.220   0.405   5.116
14677TIP3    H143974   6.227   0.439   5.205
14677TIP3    H243975   6.239   0.481   5.061
14678TIP3   OH243976   6.744   1.874   4.236
14678TIP3    H143977   6.797   1.823   4.298
14678TIP3    H243978   6.802   1.889   4.162
14679TIP3   OH243979   3.966   2.153   2.542
14679TIP3    H143980   3.876   2.141   2.513
14679TIP3    H243981   3.987   2.072   2.589
14680TIP3   OH243982   6.570   4.320   1.916
14680TIP3    H143983   6.634   4.252   1.894
14680TIP3    H243984   6.535   4.292   2.001
14681TIP3   OH243985   6.733   1.463   3.668
14681TIP3    H143986   6.809   1.511   3.636
14681TIP3    H243987   6.709   1.405   3.596
14682TIP3   OH243988   1.174   2.471   3.816
14682TIP3    H143989   1.261   2.431   3.811
14682TIP3    H243990   1.129   2.439   3.738
14683TIP3   OH243991   2.797   2.107   1.353
14683TIP3    H143992   2.832   2.193   1.329
14683TIP3    H243993   2.724   2.126   1.412
14684TIP3   OH243994   2.748   7.059   5.241
14684TIP3    H143995   2.733   7.120   5.169
14684TIP3    H243996   2.723   7.108   5.320
14685TIP3   OH243997   7.182   5.864   3.208
14685TIP3    H143998   7.128   5.871   3.129
14685TIP3    H243999   7.118   5.851   3.279
14686TIP3   OH244000   2.229   2.867   3.682
14686TIP3    H144001   2.154   2.847   3.738
14686TIP3    H244002   2.263   2.950   3.716
14687TIP3   OH244003   1.693   5.840   6.575
14687TIP3    H144004   1.688   5.860   6.482
14687TIP3    H244005   1.738   5.916   6.613
14688TIP3   OH244006   4.074   3.870   0.412
14688TIP3    H144007   4.114   3.812   0.476
14688TIP3    H244008   3.995   3.902   0.455
14689TIP3   OH244009   2.375   0.975   0.563
14689TIP3    H144010   2.367   1.069   0.545
14689TIP3    H244011   2.287   0.940   0.546
14690TIP3   OH244012   5.537   3.772   4.620
14690TIP3    H144013   5.478   3.720   4.675
14690TIP3    H244014   5.598   3.812   4.682
14691TIP3   OH244015   2.999   5.152   6.442
14691TIP3    H144016   2.999   5.057   6.431
14691TIP3    H244017   3.002   5.186   6.353
14692TIP3   OH244018   5.733   1.649   0.521
14692TIP3    H144019   5.761   1.675   0.433
14692TIP3    H244020   5.749   1.726   0.575
14693TIP3   OH244021   7.714   6.612   4.329
14693TIP3    H144022   7.719   6.529   4.280
14693TIP3    H244023   7.751   6.677   4.270
14694TIP3   OH244024   5.440   1.612   5.148
14694TIP3    H144025   5.518   1.611   5.092
14694TIP3    H244026   5.370   1.576   5.092
14695TIP3   OH244027   5.513   3.565   0.685
14695TIP3    H144028   5.573   3.561   0.759
14695TIP3    H244029   5.557   3.516   0.615
14696TIP3   OH244030   3.631   1.811   6.221
14696TIP3    H144031   3.600   1.896   6.190
14696TIP3    H244032   3.660   1.765   6.142
14697TIP3   OH244033   4.811   3.405   3.829
14697TIP3    H144034   4.817   3.319   3.870
14697TIP3    H244035   4.718   3.415   3.808
14698TIP3   OH244036   6.630   4.296   5.754
14698TIP3    H144037   6.581   4.357   5.698
14698TIP3    H244038   6.694   4.256   5.694
14699TIP3   OH244039   5.234   2.767   1.032
14699TIP3    H144040   5.212   2.674   1.023
14699TIP3    H244041   5.160   2.813   0.991
14700TIP3   OH244042   5.086   3.891   5.449
14700TIP3    H144043   5.029   3.817   5.471
14700TIP3    H244044   5.056   3.921   5.363
14701TIP3   OH244045   2.623   3.939   2.250
14701TIP3    H144046   2.618   3.930   2.345
14701TIP3    H244047   2.544   3.987   2.226
14702TIP3   OH244048   5.617   1.919   4.969
14702TIP3    H144049   5.646   1.827   4.964
14702TIP3    H244050   5.590   1.940   4.880
14703TIP3   OH244051   5.995   1.912   0.687
14703TIP3    H144052   6.029   1.851   0.753
14703TIP3    H244053   5.905   1.885   0.673
14704TIP3   OH244054   4.318   6.653   3.577
14704TIP3    H144055   4.321   6.564   3.613
14704TIP3    H244056   4.404   6.690   3.596
14705TIP3   OH244057   7.248   5.815   1.016
14705TIP3    H144058   7.236   5.815   1.111
14705TIP3    H244059   7.201   5.737   0.987
14706TIP3   OH244060   8.206   3.700   3.741
14706TIP3    H144061   8.277   3.647   3.775
14706TIP3    H244062   8.137   3.695   3.808
14707TIP3   OH244063   4.890   4.109   4.392
14707TIP3    H144064   4.814   4.116   4.335
14707TIP3    H244065   4.899   4.196   4.432
14708TIP3   OH244066   7.271   2.249   6.256
14708TIP3    H144067   7.313   2.179   6.205
14708TIP3    H244068   7.344   2.300   6.290
14709TIP3   OH244069   2.279   6.492   1.373
14709TIP3    H144070   2.235   6.442   1.441
14709TIP3    H244071   2.352   6.436   1.346
14710TIP3   OH244072   3.107   6.499   5.927
14710TIP3    H144073   3.047   6.434   5.890
14710TIP3    H244074   3.078   6.583   5.892
14711TIP3   OH244075   2.983   7.260   0.881
14711TIP3    H144076   3.041   7.188   0.908
14711TIP3    H244077   3.032   7.305   0.812
14712TIP3   OH244078   7.663   4.272   3.380
14712TIP3    H144079   7.629   4.195   3.335
14712TIP3    H244080   7.652   4.344   3.318
14713TIP3   OH244081   7.423   0.817   1.576
14713TIP3    H144082   7.395   0.805   1.485
14713TIP3    H244083   7.475   0.897   1.575
14714TIP3   OH244084   7.242   0.550   1.451
14714TIP3    H144085   7.160   0.511   1.419
14714TIP3    H244086   7.247   0.635   1.408
14715TIP3   OH244087   4.320   5.307   4.835
14715TIP3    H144088   4.370   5.246   4.889
14715TIP3    H244089   4.233   5.309   4.875
14716TIP3   OH244090   3.762   5.305   5.644
14716TIP3    H144091   3.837   5.340   5.693
14716TIP3    H244092   3.742   5.374   5.580
14717TIP3   OH244093   0.035   6.479   2.366
14717TIP3    H144094   0.038   6.428   2.285
14717TIP3    H244095   0.058   6.568   2.339
14718TIP3   OH244096   3.713   5.287   1.643
14718TIP3    H144097   3.663   5.231   1.583
14718TIP3    H244098   3.723   5.370   1.595
14719TIP3   OH244099   5.578   0.395   0.678
14719TIP3    H144100   5.496   0.429   0.711
14719TIP3    H244101   5.560   0.303   0.657
14720TIP3   OH244102   0.675   7.557   3.226
14720TIP3    H144103   0.662   7.486   3.288
14720TIP3    H244104   0.644   7.635   3.272
14721TIP3   OH244105   2.650   5.131   2.804
14721TIP3    H144106   2.567   5.171   2.780
14721TIP3    H244107   2.716   5.190   2.767
14722TIP3   OH244108   8.088   4.046   5.839
14722TIP3    H144109   8.088   3.996   5.921
14722TIP3    H244110   8.060   4.134   5.865
14723TIP3   OH244111   6.579   1.576   2.914
14723TIP3    H144112   6.544   1.662   2.891
14723TIP3    H244113   6.516   1.541   2.977
14724TIP3   OH244114   1.200   5.361   1.711
14724TIP3    H144115   1.111   5.331   1.691
14724TIP3    H244116   1.256   5.312   1.651
14725TIP3   OH244117   1.600   2.901   4.898
14725TIP3    H144118   1.692   2.919   4.917
14725TIP3    H244119   1.596   2.893   4.803
14726TIP3   OH244120   5.650   0.707   3.583
14726TIP3    H144121   5.670   0.740   3.495
14726TIP3    H244122   5.557   0.687   3.581
14727TIP3   OH244123   7.030   0.164   4.854
14727TIP3    H144124   7.102   0.201   4.803
14727TIP3    H244125   7.072   0.123   4.930
14728TIP3   OH244126   4.452   5.828   3.162
14728TIP3    H144127   4.510   5.836   3.086
14728TIP3    H244128   4.510   5.799   3.233
14729TIP3   OH244129   4.080   1.243   5.469
14729TIP3    H144130   4.124   1.213   5.548
14729TIP3    H244131   4.151   1.265   5.409
14730TIP3   OH244132   7.753   3.067   4.630
14730TIP3    H144133   7.679   3.008   4.614
14730TIP3    H244134   7.744   3.135   4.562
14731TIP3   OH244135   2.011   3.660   0.088
14731TIP3    H144136   1.947   3.731   0.082
14731TIP3    H244137   1.963   3.582   0.058
14732TIP3   OH244138   5.914   4.182   6.387
14732TIP3    H144139   5.931   4.230   6.306
14732TIP3    H244140   5.981   4.213   6.448
14733TIP3   OH244141   5.499   3.335   6.121
14733TIP3    H144142   5.530   3.426   6.117
14733TIP3    H244143   5.420   3.334   6.067
14734TIP3   OH244144   6.270   0.256   4.728
14734TIP3    H144145   6.234   0.237   4.815
14734TIP3    H244146   6.206   0.314   4.687
14735TIP3   OH244147   5.433   2.663   4.647
14735TIP3    H144148   5.417   2.690   4.557
14735TIP3    H244149   5.424   2.744   4.698
14736TIP3   OH244150   0.292   7.161   0.063
14736TIP3    H144151   0.210   7.200   0.035
14736TIP3    H244152   0.322   7.110  -0.012
14737TIP3   OH244153   8.187   6.065   5.022
14737TIP3    H144154   8.164   6.126   4.952
14737TIP3    H244155   8.144   5.983   4.999
14738TIP3   OH244156   3.484   6.938   6.143
14738TIP3    H144157   3.459   6.950   6.234
14738TIP3    H244158   3.509   7.026   6.113
14739TIP3   OH244159   7.871   0.246   5.494
14739TIP3    H144160   7.819   0.196   5.556
14739TIP3    H244161   7.859   0.201   5.410
14740TIP3   OH244162   6.808   0.570   2.009
14740TIP3    H144163   6.828   0.658   2.042
14740TIP3    H244164   6.729   0.582   1.957
14741TIP3   OH244165   3.788   5.820   6.607
14741TIP3    H144166   3.804   5.913   6.625
14741TIP3    H244167   3.694   5.814   6.591
14742TIP3   OH244168   0.474   6.408   0.143
14742TIP3    H144169   0.562   6.438   0.163
14742TIP3    H244170   0.420   6.487   0.145
14743TIP3   OH244171   1.519   6.105   0.895
14743TIP3    H144172   1.542   6.190   0.932
14743TIP3    H244173   1.510   6.048   0.971
14744TIP3   OH244174   7.022   5.689   5.385
14744TIP3    H144175   7.070   5.768   5.408
14744TIP3    H244176   7.077   5.646   5.320
14745TIP3   OH244177   1.599   0.580   1.455
14745TIP3    H144178   1.641   0.509   1.406
14745TIP3    H244179   1.546   0.536   1.521
14746TIP3   OH244180   2.873   4.778   3.303
14746TIP3    H144181   2.862   4.781   3.398
14746TIP3    H244182   2.786   4.762   3.268
14747TIP3   OH244183   0.173   5.049   6.395
14747TIP3    H144184   0.267   5.038   6.382
14747TIP3    H244185   0.133   4.999   6.323
14748TIP3   OH244186   4.445   0.859   5.100
14748TIP3    H144187   4.489   0.929   5.149
14748TIP3    H244188   4.438   0.787   5.163
14749TIP3   OH244189   8.210  -0.026   4.203
14749TIP3    H144190   8.200   0.058   4.159
14749TIP3    H244191   8.250  -0.005   4.287
14750TIP3   OH244192   6.013   2.348   0.197
14750TIP3    H144193   6.107   2.329   0.190
14750TIP3    H244194   5.976   2.272   0.242
14751TIP3   OH244195   0.786   3.914   4.632
14751TIP3    H144196   0.877   3.898   4.654
14751TIP3    H244197   0.788   3.941   4.540
14752TIP3   OH244198   1.211   7.485   2.927
14752TIP3    H144199   1.303   7.511   2.917
14752TIP3    H244200   1.168   7.562   2.965
14753TIP3   OH244201   4.708   2.166   3.442
14753TIP3    H144202   4.707   2.115   3.523
14753TIP3    H244203   4.728   2.255   3.469
14754TIP3   OH244204   7.372   1.572   4.009
14754TIP3    H144205   7.425   1.561   3.929
14754TIP3    H244206   7.415   1.518   4.074
14755TIP3   OH244207   3.402   5.959   3.586
14755TIP3    H144208   3.416   5.936   3.678
14755TIP3    H244209   3.449   6.041   3.574
14756TIP3   OH244210   7.388   4.901   5.777
14756TIP3    H144211   7.372   4.934   5.865
14756TIP3    H244212   7.361   4.972   5.719
14757TIP3   OH244213   0.915   7.259   5.648
14757TIP3    H144214   0.845   7.320   5.670
14757TIP3    H244215   0.873   7.192   5.594
14758TIP3   OH244216   4.892   2.796   1.104
14758TIP3    H144217   4.871   2.804   1.197
14758TIP3    H244218   4.934   2.879   1.081
14759TIP3   OH244219   5.859   1.367   5.267
14759TIP3    H144220   5.949   1.394   5.286
14759TIP3    H244221   5.842   1.295   5.328
14760TIP3   OH244222   0.760   0.125   1.975
14760TIP3    H144223   0.807   0.165   1.902
14760TIP3    H244224   0.810   0.046   1.996
14761TIP3   OH244225   0.645   2.493   0.674
14761TIP3    H144226   0.604   2.443   0.744
14761TIP3    H244227   0.694   2.428   0.623
14762TIP3   OH244228   7.827   2.510   1.940
14762TIP3    H144229   7.744   2.493   1.895
14762TIP3    H244230   7.838   2.604   1.934
14763TIP3   OH244231   6.892   4.990   0.226
14763TIP3    H144232   6.840   5.071   0.224
14763TIP3    H244233   6.950   5.000   0.302
14764TIP3   OH244234   5.561   1.645   2.651
14764TIP3    H144235   5.549   1.650   2.556
14764TIP3    H244236   5.495   1.705   2.686
14765TIP3   OH244237   6.987   2.960   1.525
14765TIP3    H144238   6.915   2.897   1.532
14765TIP3    H244239   6.948   3.035   1.479
14766TIP3   OH244240   1.045   3.305   2.286
14766TIP3    H144241   1.018   3.389   2.323
14766TIP3    H244242   1.131   3.288   2.326
14767TIP3   OH244243   1.109   5.410   2.882
14767TIP3    H144244   1.053   5.372   2.815
14767TIP3    H244245   1.049   5.437   2.952
14768TIP3   OH244246   3.474   3.108   0.994
14768TIP3    H144247   3.511   3.179   0.942
14768TIP3    H244248   3.468   3.144   1.083
14769TIP3   OH244249   0.538   6.626   6.547
14769TIP3    H144250   0.555   6.535   6.573
14769TIP3    H244251   0.453   6.623   6.503
14770TIP3   OH244252   7.936   1.611   6.607
14770TIP3    H144253   7.895   1.595   6.522
14770TIP3    H244254   7.959   1.525   6.640
14771TIP3   OH244255   2.647   6.308   6.415
14771TIP3    H144256   2.568   6.359   6.396
14771TIP3    H244257   2.687   6.354   6.489
14772TIP3   OH244258   3.676   4.080   5.580
14772TIP3    H144259   3.587   4.045   5.583
14772TIP3    H244260   3.664   4.174   5.569
14773TIP3   OH244261   0.064   0.280   4.225
14773TIP3    H144262   0.051   0.279   4.131
14773TIP3    H244263  -0.006   0.335   4.259
14774TIP3   OH244264   4.033   3.031   1.502
14774TIP3    H144265   4.072   2.949   1.532
14774TIP3    H244266   3.978   3.005   1.428
14775TIP3   OH244267   7.977   0.890   0.834
14775TIP3    H144268   8.021   0.812   0.868
14775TIP3    H244269   8.040   0.928   0.772
14776TIP3   OH244270   7.846   5.936   4.855
14776TIP3    H144271   7.764   5.950   4.904
14776TIP3    H244272   7.905   5.894   4.917
14777TIP3   OH244273   7.736   5.922   0.705
14777TIP3    H144274   7.781   5.870   0.772
14777TIP3    H244275   7.654   5.876   0.690
14778TIP3   OH244276   3.431   1.366   2.274
14778TIP3    H144277   3.339   1.391   2.274
14778TIP3    H244278   3.445   1.325   2.189
14779TIP3   OH244279   0.213   2.228   2.237
14779TIP3    H144280   0.221   2.156   2.175
14779TIP3    H244281   0.281   2.291   2.209
14780TIP3   OH244282   6.969   7.218   4.089
14780TIP3    H144283   6.980   7.288   4.153
14780TIP3    H244284   6.926   7.147   4.138
14781TIP3   OH244285   1.224   1.677   2.166
14781TIP3    H144286   1.252   1.596   2.210
14781TIP3    H244287   1.149   1.707   2.217
14782TIP3   OH244288   4.098   2.247   3.632
14782TIP3    H144289   4.182   2.206   3.651
14782TIP3    H244290   4.054   2.253   3.717
14783TIP3   OH244291   2.229   4.368   0.665
14783TIP3    H144292   2.167   4.391   0.596
14783TIP3    H244293   2.313   4.403   0.634
14784TIP3   OH244294   5.186   4.728   1.028
14784TIP3    H144295   5.109   4.726   0.972
14784TIP3    H244296   5.225   4.814   1.012
14785TIP3   OH244297   6.573   1.441   3.912
14785TIP3    H144298   6.616   1.374   3.966
14785TIP3    H244299   6.632   1.453   3.838
14786TIP3   OH244300   6.084   2.363   1.977
14786TIP3    H144301   6.133   2.440   1.949
14786TIP3    H244302   6.012   2.397   2.030
14787TIP3   OH244303   0.106   4.101   1.453
14787TIP3    H144304   0.040   4.056   1.401
14787TIP3    H244305   0.117   4.047   1.531
14788TIP3   OH244306   1.540   2.917   5.663
14788TIP3    H144307   1.610   2.853   5.672
14788TIP3    H244308   1.489   2.886   5.588
14789TIP3   OH244309   1.365   1.182   2.077
14789TIP3    H144310   1.452   1.144   2.064
14789TIP3    H244311   1.347   1.227   1.995
14790TIP3   OH244312   1.068   1.177   1.029
14790TIP3    H144313   1.121   1.204   0.955
14790TIP3    H244314   1.129   1.130   1.087
14791TIP3   OH244315   1.109   0.818   4.114
14791TIP3    H144316   1.081   0.772   4.193
14791TIP3    H244317   1.200   0.791   4.101
14792TIP3   OH244318   6.011   0.472   6.372
14792TIP3    H144319   5.971   0.550   6.411
14792TIP3    H244320   6.087   0.454   6.426
14793TIP3   OH244321   0.858   2.576   5.741
14793TIP3    H144322   0.908   2.650   5.706
14793TIP3    H244323   0.870   2.582   5.836
14794TIP3   OH244324   1.734   5.815   0.667
14794TIP3    H144325   1.777   5.755   0.606
14794TIP3    H244326   1.790   5.816   0.744
14795TIP3   OH244327   7.996   4.227   2.763
14795TIP3    H144328   8.049   4.297   2.802
14795TIP3    H244329   7.917   4.224   2.816
14796TIP3   OH244330   1.164   0.946   1.903
14796TIP3    H144331   1.184   0.926   1.811
14796TIP3    H244332   1.249   0.946   1.947
14797TIP3   OH244333   4.025   3.361   6.106
14797TIP3    H144334   4.051   3.269   6.116
14797TIP3    H244335   3.930   3.359   6.112
14798TIP3   OH244336   4.126   7.048   3.947
14798TIP3    H144337   4.169   7.044   4.032
14798TIP3    H244338   4.154   6.967   3.903
14799TIP3   OH244339   5.493   2.369   4.005
14799TIP3    H144340   5.412   2.408   3.972
14799TIP3    H244341   5.516   2.422   4.081
14800TIP3   OH244342   3.961   4.372   3.697
14800TIP3    H144343   3.888   4.434   3.691
14800TIP3    H244344   3.941   4.305   3.632
14801TIP3   OH244345   2.031   2.379   1.574
14801TIP3    H144346   1.956   2.395   1.631
14801TIP3    H244347   2.028   2.449   1.509
14802TIP3   OH244348   5.976   3.474   2.718
14802TIP3    H144349   6.013   3.556   2.752
14802TIP3    H244350   5.943   3.497   2.631
14803TIP3   OH244351   0.515   7.269   2.150
14803TIP3    H144352   0.501   7.356   2.112
14803TIP3    H244353   0.578   7.227   2.092
14804TIP3   OH244354   5.845   1.661   0.272
14804TIP3    H144355   5.932   1.650   0.310
14804TIP3    H244356   5.861   1.692   0.183
14805TIP3   OH244357   6.716   0.302   5.722
14805TIP3    H144358   6.701   0.237   5.652
14805TIP3    H244359   6.811   0.309   5.727
14806TIP3   OH244360   4.850   2.387   6.702
14806TIP3    H144361   4.800   2.382   6.783
14806TIP3    H244362   4.931   2.339   6.720
14807TIP3   OH244363   6.417   5.610   4.183
14807TIP3    H144364   6.439   5.665   4.108
14807TIP3    H244365   6.487   5.624   4.246
14808TIP3   OH244366   6.800   6.961   5.514
14808TIP3    H144367   6.773   6.879   5.556
14808TIP3    H244368   6.782   7.028   5.580
14809TIP3   OH244369   6.611   6.312   4.503
14809TIP3    H144370   6.683   6.273   4.454
14809TIP3    H244371   6.638   6.403   4.515
14810TIP3   OH244372   8.268   5.080   1.238
14810TIP3    H144373   8.232   5.080   1.150
14810TIP3    H244374   8.256   5.170   1.269
14811TIP3   OH244375   1.724   6.909   4.670
14811TIP3    H144376   1.674   6.924   4.750
14811TIP3    H244377   1.681   6.835   4.628
14812TIP3   OH244378   3.695   3.312   3.784
14812TIP3    H144379   3.644   3.391   3.767
14812TIP3    H244380   3.786   3.341   3.783
14813TIP3   OH244381   6.511   3.251   0.695
14813TIP3    H144382   6.535   3.179   0.636
14813TIP3    H244383   6.467   3.207   0.768
14814TIP3   OH244384   2.081   6.718   3.031
14814TIP3    H144385   1.991   6.695   3.006
14814TIP3    H244386   2.135   6.661   2.976
14815TIP3   OH244387   1.084   6.365   2.745
14815TIP3    H144388   0.994   6.333   2.749
14815TIP3    H244389   1.130   6.317   2.813
14816TIP3   OH244390   5.877   1.880   4.294
14816TIP3    H144391   5.967   1.854   4.315
14816TIP3    H244392   5.858   1.834   4.212
14817TIP3   OH244393   2.793   0.506   5.421
14817TIP3    H144394   2.770   0.578   5.363
14817TIP3    H244395   2.825   0.437   5.362
14818TIP3   OH244396   4.916   2.876   3.910
14818TIP3    H144397   4.978   2.900   3.840
14818TIP3    H244398   4.963   2.896   3.990
14819TIP3   OH244399   4.723   0.810   3.462
14819TIP3    H144400   4.644   0.756   3.476
14819TIP3    H244401   4.735   0.811   3.368
14820TIP3   OH244402   3.246   4.049   0.949
14820TIP3    H144403   3.241   4.028   1.043
14820TIP3    H244404   3.303   4.126   0.944
14821TIP3   OH244405   2.472   7.178   3.365
14821TIP3    H144406   2.521   7.260   3.356
14821TIP3    H244407   2.456   7.171   3.460
14822TIP3   OH244408   2.159   5.673   2.812
14822TIP3    H144409   2.252   5.665   2.791
14822TIP3    H244410   2.121   5.718   2.737
14823TIP3   OH244411   7.808   5.521   2.144
14823TIP3    H144412   7.826   5.432   2.175
14823TIP3    H244413   7.833   5.521   2.052
14824TIP3   OH244414   0.458   0.762   4.462
14824TIP3    H144415   0.516   0.686   4.453
14824TIP3    H244416   0.468   0.790   4.553
14825TIP3   OH244417   3.238   0.258   4.670
14825TIP3    H144418   3.304   0.320   4.638
14825TIP3    H244419   3.224   0.283   4.761
14826TIP3   OH244420   6.728   2.630   3.050
14826TIP3    H144421   6.782   2.703   3.020
14826TIP3    H244422   6.775   2.595   3.126
14827TIP3   OH244423   6.405   3.513   1.131
14827TIP3    H144424   6.324   3.462   1.122
14827TIP3    H244425   6.393   3.586   1.070
14828TIP3   OH244426   3.108   1.090   4.717
14828TIP3    H144427   3.181   1.045   4.761
14828TIP3    H244428   3.038   1.025   4.718
14829TIP3   OH244429   3.360   1.796   1.091
14829TIP3    H144430   3.439   1.817   1.040
14829TIP3    H244431   3.293   1.779   1.024
14830TIP3   OH244432   5.619   6.193   4.090
14830TIP3    H144433   5.605   6.101   4.067
14830TIP3    H244434   5.686   6.192   4.158
   8.29299   7.81871   6.77120   0.00000   0.00000  -2.76433   0.00000  -2.76433  -3.90935
