Title t= 316.00000 step= 158000
19942
    1ASP      N    1   1.911   2.414   2.964
    1ASP    HT1    2   1.894   2.368   2.872
    1ASP    HT2    3   1.952   2.338   3.022
    1ASP    HT3    4   1.971   2.498   2.957
    1ASP     CA    5   1.778   2.458   3.012
    1ASP     HA    6   1.799   2.504   3.107
    1ASP     CB    7   1.706   2.558   2.911
    1ASP    HB1    8   1.600   2.586   2.929
    1ASP    HB2    9   1.691   2.505   2.815
    1ASP     CG   10   1.789   2.683   2.879
    1ASP    OD1   11   1.758   2.760   2.785
    1ASP    OD2   12   1.881   2.714   2.959
    1ASP      C   13   1.687   2.348   3.066
    1ASP      O   14   1.706   2.229   3.055
    2ALA      N   15   1.581   2.393   3.135
    2ALA     HN   16   1.570   2.492   3.149
    2ALA     CA   17   1.487   2.303   3.204
    2ALA     HA   18   1.547   2.247   3.275
    2ALA     CB   19   1.377   2.376   3.278
    2ALA    HB1   20   1.416   2.461   3.338
    2ALA    HB2   21   1.316   2.309   3.342
    2ALA    HB3   22   1.300   2.423   3.213
    2ALA      C   23   1.427   2.190   3.115
    2ALA      O   24   1.409   2.197   2.992
    3ASP      N   25   1.392   2.073   3.180
    3ASP     HN   26   1.399   2.068   3.279
    3ASP     CA   27   1.349   1.956   3.112
    3ASP     HA   28   1.438   1.926   3.059
    3ASP     CB   29   1.310   1.851   3.222
    3ASP    HB1   30   1.287   1.753   3.175
    3ASP    HB2   31   1.227   1.887   3.286
    3ASP     CG   32   1.415   1.816   3.324
    3ASP    OD1   33   1.531   1.852   3.307
    3ASP    OD2   34   1.377   1.737   3.422
    3ASP      C   35   1.237   1.969   3.002
    3ASP      O   36   1.133   2.034   3.019
    4GLY      N   37   1.254   1.910   2.885
    4GLY     HN   38   1.334   1.852   2.873
    4GLY     CA   39   1.154   1.920   2.777
    4GLY    HA1   40   1.197   1.884   2.684
    4GLY    HA2   41   1.124   2.023   2.773
    4GLY      C   42   1.030   1.836   2.792
    4GLY      O   43   1.027   1.737   2.868
    5PRO      N   44   0.928   1.862   2.715
    5PRO     CD   45   0.918   1.965   2.615
    5PRO    HD1   46   0.988   1.938   2.532
    5PRO    HD2   47   0.948   2.063   2.658
    5PRO     CA   48   0.796   1.805   2.744
    5PRO     HA   49   0.776   1.791   2.849
    5PRO     CB   50   0.696   1.903   2.679
    5PRO    HB1   51   0.668   1.987   2.747
    5PRO    HB2   52   0.603   1.857   2.639
    5PRO     CG   53   0.776   1.969   2.567
    5PRO    HG1   54   0.766   1.914   2.471
    5PRO    HG2   55   0.741   2.073   2.548
    5PRO      C   56   0.775   1.664   2.692
    5PRO      O   57   0.673   1.631   2.633
    6GLY      N   58   0.865   1.561   2.710
    6GLY     HN   59   0.946   1.579   2.765
    6GLY     CA   60   0.858   1.428   2.658
    6GLY    HA1   61   0.948   1.373   2.682
    6GLY    HA2   62   0.852   1.438   2.550
    6GLY      C   63   0.741   1.341   2.698
    6GLY      O   64   0.664   1.363   2.787
    7ASP      N   65   0.736   1.227   2.631
    7ASP     HN   66   0.795   1.218   2.550
    7ASP     CA   67   0.646   1.116   2.661
    7ASP     HA   68   0.581   1.144   2.742
    7ASP     CB   69   0.547   1.088   2.543
    7ASP    HB1   70   0.612   1.083   2.453
    7ASP    HB2   71   0.488   1.179   2.522
    7ASP     CG   72   0.452   0.970   2.545
    7ASP    OD1   73   0.370   0.971   2.449
    7ASP    OD2   74   0.450   0.885   2.642
    7ASP      C   75   0.726   0.992   2.698
    7ASP      O   76   0.808   0.948   2.614
    8PRO      N   77   0.721   0.941   2.829
    8PRO     CD   78   0.654   1.015   2.937
    8PRO    HD1   79   0.545   1.011   2.916
    8PRO    HD2   80   0.689   1.120   2.947
    8PRO     CA   81   0.792   0.820   2.879
    8PRO     HA   82   0.898   0.840   2.885
    8PRO     CB   83   0.716   0.793   3.012
    8PRO    HB1   84   0.775   0.736   3.087
    8PRO    HB2   85   0.625   0.731   2.996
    8PRO     CG   86   0.679   0.928   3.067
    8PRO    HG1   87   0.592   0.937   3.135
    8PRO    HG2   88   0.762   0.974   3.126
    8PRO      C   89   0.781   0.691   2.797
    8PRO      O   90   0.861   0.603   2.833
    9ASP      N   91   0.702   0.679   2.692
    9ASP     HN   92   0.640   0.751   2.661
    9ASP     CA   93   0.689   0.551   2.621
    9ASP     HA   94   0.743   0.476   2.676
    9ASP     CB   95   0.532   0.535   2.615
    9ASP    HB1   96   0.497   0.452   2.551
    9ASP    HB2   97   0.487   0.622   2.561
    9ASP     CG   98   0.468   0.505   2.745
    9ASP    OD1   99   0.350   0.537   2.773
    9ASP    OD2  100   0.532   0.420   2.817
    9ASP      C  101   0.732   0.561   2.480
    9ASP      O  102   0.722   0.466   2.407
   10ALA      N  103   0.785   0.679   2.442
   10ALA     HN  104   0.806   0.753   2.504
   10ALA     CA  105   0.830   0.701   2.304
   10ALA     HA  106   0.779   0.636   2.235
   10ALA     CB  107   0.812   0.850   2.265
   10ALA    HB1  108   0.872   0.909   2.338
   10ALA    HB2  109   0.707   0.877   2.293
   10ALA    HB3  110   0.836   0.877   2.160
   10ALA      C  111   0.974   0.665   2.285
   10ALA      O  112   1.068   0.703   2.348
   11GLY      N  113   1.000   0.577   2.182
   11GLY     HN  114   0.928   0.555   2.117
   11GLY     CA  115   1.131   0.519   2.165
   11GLY    HA1  116   1.117   0.425   2.115
   11GLY    HA2  117   1.181   0.508   2.261
   11GLY      C  118   1.239   0.597   2.072
   11GLY    OT1  119   1.342   0.526   2.035
   11GLY    OT2  120   1.215   0.711   2.027
   12LIT    LIT  121   4.955   0.197   0.442
   13LIT    LIT  122   1.192   3.134   2.451
   14LIT    LIT  123   4.995   2.337   2.349
   15LIT    LIT  124   5.922   2.065   2.500
   16LIT    LIT  125   5.413   5.169   4.543
   17LIT    LIT  126   3.538   4.298   4.787
   18LIT    LIT  127   4.300   3.741   0.143
   19LIT    LIT  128   5.431   5.251   2.114
   20LIT    LIT  129   4.116   1.704   3.741
   21LIT    LIT  130   0.452   5.748   0.676
   22LIT    LIT  131   5.505   3.328   0.626
   23LIT    LIT  132   3.067   3.601   2.361
   24LIT    LIT  133   4.746   3.349   2.876
   25LIT    LIT  134   2.449   0.272   0.136
   26LIT    LIT  135   2.691   0.484   2.773
   27LIT    LIT  136   0.957   1.245   3.151
   28LIT    LIT  137   1.824   1.585   3.853
   29LIT    LIT  138   2.186   3.693   0.134
   30LIT    LIT  139   2.773   3.853   2.890
   31LIT    LIT  140   3.352   2.339   4.748
   32LIT    LIT  141   1.230   0.258   1.729
   33LIT    LIT  142   0.033   1.515   0.262
   34CLA    CLA  143   3.030   3.743   3.240
   35CLA    CLA  144   1.060   2.253   4.380
   36CLA    CLA  145   4.617   2.055   2.499
   37CLA    CLA  146   5.132   4.926   1.372
   38CLA    CLA  147   6.148   5.125   0.175
   39CLA    CLA  148   5.575   5.022   3.078
   40CLA    CLA  149   5.738   4.090   1.606
   41CLA    CLA  150   6.116   3.624   0.532
   42CLA    CLA  151   5.502   2.661   1.579
   43CLA    CLA  152   0.981   3.478   0.157
   44CLA    CLA  153   0.321   0.931   4.999
   45CLA    CLA  154   6.341   5.821   0.252
   46CLA    CLA  155   4.078   3.828   0.157
   47CLA    CLA  156   2.063   0.051   2.181
   48CLA    CLA  157   2.572   5.115   2.534
   49CLA    CLA  158   2.549   2.288   4.447
   50CLA    CLA  159   2.333   1.840   1.675
   51CLA    CLA  160   1.710   4.986   1.349
   52TIP3   OH2  161   1.575   0.728   4.161
   52TIP3    H1  162   1.508   0.661   4.177
   52TIP3    H2  163   1.623   0.696   4.085
   53TIP3   OH2  164   4.566   1.768   2.629
   53TIP3    H1  165   4.471   1.774   2.623
   53TIP3    H2  166   4.597   1.855   2.602
   54TIP3   OH2  167   1.994   0.206   3.044
   54TIP3    H1  168   1.969   0.284   3.093
   54TIP3    H2  169   2.086   0.220   3.023
   55TIP3   OH2  170   4.201   1.531   2.697
   55TIP3    H1  171   4.293   1.515   2.717
   55TIP3    H2  172   4.153   1.466   2.748
   56TIP3   OH2  173   1.193   0.412   0.644
   56TIP3    H1  174   1.146   0.483   0.686
   56TIP3    H2  175   1.144   0.395   0.563
   57TIP3   OH2  176   2.172   3.772   2.646
   57TIP3    H1  177   2.211   3.789   2.561
   57TIP3    H2  178   2.244   3.782   2.708
   58TIP3   OH2  179   1.095   4.606   1.658
   58TIP3    H1  180   1.068   4.670   1.592
   58TIP3    H2  181   1.102   4.656   1.739
   59TIP3   OH2  182   2.009   0.717   4.239
   59TIP3    H1  183   2.021   0.802   4.196
   59TIP3    H2  184   1.941   0.732   4.305
   60TIP3   OH2  185   2.983   5.717   1.608
   60TIP3    H1  186   3.079   5.721   1.609
   60TIP3    H2  187   2.962   5.674   1.525
   61TIP3   OH2  188   2.930   5.128   1.057
   61TIP3    H1  189   2.980   5.056   1.017
   61TIP3    H2  190   2.969   5.139   1.143
   62TIP3   OH2  191   0.547   2.345   3.863
   62TIP3    H1  192   0.559   2.380   3.775
   62TIP3    H2  193   0.636   2.332   3.896
   63TIP3   OH2  194   1.041   3.313   3.513
   63TIP3    H1  195   1.108   3.347   3.572
   63TIP3    H2  196   1.082   3.236   3.472
   64TIP3   OH2  197   0.796   2.204   0.573
   64TIP3    H1  198   0.823   2.140   0.640
   64TIP3    H2  199   0.734   2.261   0.618
   65TIP3   OH2  200   4.081   1.292   2.814
   65TIP3    H1  201   4.063   1.234   2.740
   65TIP3    H2  202   4.073   1.235   2.891
   66TIP3   OH2  203   4.960   3.601   2.185
   66TIP3    H1  204   5.008   3.630   2.109
   66TIP3    H2  205   5.026   3.561   2.242
   67TIP3   OH2  206   3.053   0.307   1.207
   67TIP3    H1  207   3.147   0.306   1.188
   67TIP3    H2  208   3.048   0.309   1.302
   68TIP3   OH2  209   6.009   4.795   3.955
   68TIP3    H1  210   6.005   4.815   4.049
   68TIP3    H2  211   6.068   4.862   3.920
   69TIP3   OH2  212   0.388   4.716   2.955
   69TIP3    H1  213   0.352   4.639   2.911
   69TIP3    H2  214   0.397   4.782   2.886
   70TIP3   OH2  215   0.585   1.181   1.067
   70TIP3    H1  216   0.550   1.103   1.111
   70TIP3    H2  217   0.656   1.148   1.013
   71TIP3   OH2  218   2.760   1.530   3.613
   71TIP3    H1  219   2.744   1.474   3.689
   71TIP3    H2  220   2.767   1.469   3.540
   72TIP3   OH2  221   4.386   3.246   1.525
   72TIP3    H1  222   4.472   3.236   1.484
   72TIP3    H2  223   4.352   3.157   1.532
   73TIP3   OH2  224   3.573   5.280   1.558
   73TIP3    H1  225   3.620   5.270   1.641
   73TIP3    H2  226   3.481   5.264   1.580
   74TIP3   OH2  227   1.468   5.916   3.362
   74TIP3    H1  228   1.504   5.830   3.386
   74TIP3    H2  229   1.508   5.936   3.277
   75TIP3   OH2  230   0.488   0.806   2.254
   75TIP3    H1  231   0.473   0.711   2.252
   75TIP3    H2  232   0.458   0.833   2.340
   76TIP3   OH2  233   0.578   5.806   3.845
   76TIP3    H1  234   0.600   5.723   3.887
   76TIP3    H2  235   0.661   5.837   3.809
   77TIP3   OH2  236   1.777   3.765   2.324
   77TIP3    H1  237   1.848   3.818   2.288
   77TIP3    H2  238   1.820   3.688   2.361
   78TIP3   OH2  239   4.645   2.182   4.682
   78TIP3    H1  240   4.552   2.183   4.708
   78TIP3    H2  241   4.688   2.239   4.746
   79TIP3   OH2  242   3.314   4.756   1.490
   79TIP3    H1  243   3.343   4.836   1.533
   79TIP3    H2  244   3.254   4.785   1.421
   80TIP3   OH2  245   1.660   3.091   4.241
   80TIP3    H1  246   1.695   3.176   4.213
   80TIP3    H2  247   1.630   3.049   4.161
   81TIP3   OH2  248   5.915   3.984   4.933
   81TIP3    H1  249   5.878   3.998   4.845
   81TIP3    H2  250   6.003   3.949   4.916
   82TIP3   OH2  251   5.727   0.703   0.352
   82TIP3    H1  252   5.660   0.684   0.418
   82TIP3    H2  253   5.686   0.765   0.293
   83TIP3   OH2  254   4.014   1.208   4.436
   83TIP3    H1  255   3.937   1.195   4.380
   83TIP3    H2  256   4.012   1.133   4.496
   84TIP3   OH2  257   1.916   1.733   4.584
   84TIP3    H1  258   1.986   1.794   4.563
   84TIP3    H2  259   1.835   1.783   4.571
   85TIP3   OH2  260   4.444   0.236   1.685
   85TIP3    H1  261   4.500   0.160   1.701
   85TIP3    H2  262   4.360   0.199   1.656
   86TIP3   OH2  263   5.587   2.233   1.429
   86TIP3    H1  264   5.550   2.152   1.392
   86TIP3    H2  265   5.632   2.275   1.356
   87TIP3   OH2  266   2.925   5.145   2.525
   87TIP3    H1  267   2.988   5.102   2.468
   87TIP3    H2  268   2.840   5.132   2.483
   88TIP3   OH2  269   3.778   1.518   3.902
   88TIP3    H1  270   3.686   1.522   3.927
   88TIP3    H2  271   3.778   1.513   3.807
   89TIP3   OH2  272   5.977   3.923   0.518
   89TIP3    H1  273   5.996   3.830   0.520
   89TIP3    H2  274   5.884   3.930   0.539
   90TIP3   OH2  275  -0.013   5.709   4.613
   90TIP3    H1  276   0.038   5.729   4.691
   90TIP3    H2  277   0.047   5.727   4.540
   91TIP3   OH2  278   6.036   4.152   1.221
   91TIP3    H1  279   6.072   4.146   1.310
   91TIP3    H2  280   5.950   4.110   1.228
   92TIP3   OH2  281   2.776   4.870   1.073
   92TIP3    H1  282   2.767   4.959   1.106
   92TIP3    H2  283   2.689   4.847   1.042
   93TIP3   OH2  284   6.067   2.541   0.713
   93TIP3    H1  285   6.100   2.596   0.642
   93TIP3    H2  286   5.977   2.570   0.725
   94TIP3   OH2  287   4.895   4.708   5.046
   94TIP3    H1  288   4.849   4.727   5.127
   94TIP3    H2  289   4.826   4.687   4.983
   95TIP3   OH2  290   5.132   1.392   2.470
   95TIP3    H1  291   5.037   1.403   2.464
   95TIP3    H2  292   5.147   1.299   2.459
   96TIP3   OH2  293   1.063   0.371   0.417
   96TIP3    H1  294   0.978   0.381   0.459
   96TIP3    H2  295   1.061   0.284   0.378
   97TIP3   OH2  296   2.706   0.733   1.177
   97TIP3    H1  297   2.765   0.736   1.252
   97TIP3    H2  298   2.708   0.641   1.149
   98TIP3   OH2  299   4.005   1.225   0.130
   98TIP3    H1  300   4.064   1.185   0.194
   98TIP3    H2  301   4.045   1.207   0.045
   99TIP3   OH2  302   4.745   4.171   2.065
   99TIP3    H1  303   4.800   4.196   2.140
   99TIP3    H2  304   4.693   4.249   2.048
  100TIP3   OH2  305   3.499   3.268   3.832
  100TIP3    H1  306   3.468   3.329   3.900
  100TIP3    H2  307   3.475   3.182   3.865
  101TIP3   OH2  308   3.763   5.585   1.267
  101TIP3    H1  309   3.707   5.626   1.200
  101TIP3    H2  310   3.830   5.538   1.217
  102TIP3   OH2  311   4.741   2.678   5.010
  102TIP3    H1  312   4.669   2.619   4.987
  102TIP3    H2  313   4.807   2.664   4.943
  103TIP3   OH2  314   4.466   0.291   0.689
  103TIP3    H1  315   4.454   0.365   0.630
  103TIP3    H2  316   4.546   0.248   0.658
  104TIP3   OH2  317   3.675   0.168   2.673
  104TIP3    H1  318   3.719   0.134   2.751
  104TIP3    H2  319   3.677   0.263   2.684
  105TIP3   OH2  320   0.978   5.614   1.758
  105TIP3    H1  321   1.068   5.601   1.785
  105TIP3    H2  322   0.928   5.548   1.806
  106TIP3   OH2  323   6.235   2.667   3.342
  106TIP3    H1  324   6.302   2.623   3.395
  106TIP3    H2  325   6.261   2.651   3.252
  107TIP3   OH2  326   3.836   3.856   4.595
  107TIP3    H1  327   3.751   3.900   4.601
  107TIP3    H2  328   3.881   3.902   4.524
  108TIP3   OH2  329   4.517   4.746   4.419
  108TIP3    H1  330   4.603   4.731   4.458
  108TIP3    H2  331   4.521   4.835   4.385
  109TIP3   OH2  332   2.080   3.255   2.151
  109TIP3    H1  333   2.054   3.164   2.134
  109TIP3    H2  334   1.998   3.300   2.169
  110TIP3   OH2  335   0.568   1.267   3.630
  110TIP3    H1  336   0.491   1.226   3.671
  110TIP3    H2  337   0.533   1.307   3.550
  111TIP3   OH2  338   4.845   5.804   4.269
  111TIP3    H1  339   4.917   5.746   4.243
  111TIP3    H2  340   4.886   5.890   4.278
  112TIP3   OH2  341   5.663   5.052   1.769
  112TIP3    H1  342   5.592   5.114   1.752
  112TIP3    H2  343   5.625   4.966   1.750
  113TIP3   OH2  344   1.628   5.252   1.827
  113TIP3    H1  345   1.679   5.199   1.888
  113TIP3    H2  346   1.680   5.252   1.747
  114TIP3   OH2  347   1.898   1.671   2.085
  114TIP3    H1  348   1.975   1.714   2.123
  114TIP3    H2  349   1.920   1.659   1.993
  115TIP3   OH2  350   5.037   4.090   2.401
  115TIP3    H1  351   5.025   3.999   2.373
  115TIP3    H2  352   4.959   4.135   2.369
  116TIP3   OH2  353   5.151   2.642   3.963
  116TIP3    H1  354   5.062   2.641   3.927
  116TIP3    H2  355   5.188   2.725   3.932
  117TIP3   OH2  356   4.670   2.881   4.555
  117TIP3    H1  357   4.743   2.856   4.498
  117TIP3    H2  358   4.612   2.805   4.555
  118TIP3   OH2  359   6.168   1.160   0.205
  118TIP3    H1  360   6.133   1.099   0.141
  118TIP3    H2  361   6.153   1.118   0.290
  119TIP3   OH2  362   5.143   2.867   0.980
  119TIP3    H1  363   5.048   2.876   0.985
  119TIP3    H2  364   5.169   2.846   1.070
  120TIP3   OH2  365   2.620   1.666   0.761
  120TIP3    H1  366   2.686   1.679   0.830
  120TIP3    H2  367   2.606   1.754   0.725
  121TIP3   OH2  368   0.800   0.521   0.911
  121TIP3    H1  369   0.709   0.548   0.899
  121TIP3    H2  370   0.823   0.552   0.999
  122TIP3   OH2  371   0.255   2.910   1.442
  122TIP3    H1  372   0.189   2.979   1.448
  122TIP3    H2  373   0.209   2.836   1.402
  123TIP3   OH2  374   2.550   5.503   3.877
  123TIP3    H1  375   2.582   5.432   3.821
  123TIP3    H2  376   2.494   5.556   3.820
  124TIP3   OH2  377   3.217   4.157   3.497
  124TIP3    H1  378   3.243   4.223   3.434
  124TIP3    H2  379   3.241   4.194   3.582
  125TIP3   OH2  380   1.778   0.578   1.858
  125TIP3    H1  381   1.729   0.625   1.926
  125TIP3    H2  382   1.714   0.522   1.816
  126TIP3   OH2  383   3.491   3.449   4.618
  126TIP3    H1  384   3.496   3.398   4.699
  126TIP3    H2  385   3.532   3.392   4.552
  127TIP3   OH2  386   1.658   3.363   1.477
  127TIP3    H1  387   1.578   3.368   1.424
  127TIP3    H2  388   1.635   3.408   1.559
  128TIP3   OH2  389   1.566   3.747   1.473
  128TIP3    H1  390   1.536   3.838   1.478
  128TIP3    H2  391   1.621   3.735   1.551
  129TIP3   OH2  392   3.310   3.038   5.084
  129TIP3    H1  393   3.238   2.991   5.126
  129TIP3    H2  394   3.337   3.103   5.149
  130TIP3   OH2  395   3.770   5.792   1.906
  130TIP3    H1  396   3.863   5.815   1.907
  130TIP3    H2  397   3.744   5.803   1.814
  131TIP3   OH2  398   4.358   4.404   4.186
  131TIP3    H1  399   4.419   4.478   4.191
  131TIP3    H2  400   4.315   4.402   4.271
  132TIP3   OH2  401   0.353   2.548   2.195
  132TIP3    H1  402   0.334   2.459   2.224
  132TIP3    H2  403   0.274   2.597   2.215
  133TIP3   OH2  404   3.805   2.376   2.269
  133TIP3    H1  405   3.788   2.431   2.345
  133TIP3    H2  406   3.862   2.307   2.302
  134TIP3   OH2  407   1.277   5.216   2.449
  134TIP3    H1  408   1.361   5.175   2.467
  134TIP3    H2  409   1.216   5.144   2.435
  135TIP3   OH2  410   3.587   3.025   4.236
  135TIP3    H1  411   3.584   3.048   4.329
  135TIP3    H2  412   3.659   3.078   4.200
  136TIP3   OH2  413   4.148   1.573   3.886
  136TIP3    H1  414   4.094   1.570   3.965
  136TIP3    H2  415   4.237   1.551   3.917
  137TIP3   OH2  416   3.401   1.440   2.579
  137TIP3    H1  417   3.441   1.425   2.493
  137TIP3    H2  418   3.401   1.355   2.621
  138TIP3   OH2  419   1.389   5.713   2.967
  138TIP3    H1  420   1.479   5.688   2.945
  138TIP3    H2  421   1.353   5.749   2.885
  139TIP3   OH2  422   2.345   2.173   2.953
  139TIP3    H1  423   2.435   2.146   2.974
  139TIP3    H2  424   2.295   2.150   3.032
  140TIP3   OH2  425   5.632   4.234   2.977
  140TIP3    H1  426   5.716   4.197   3.004
  140TIP3    H2  427   5.578   4.230   3.055
  141TIP3   OH2  428   3.499   5.174   0.263
  141TIP3    H1  429   3.508   5.229   0.341
  141TIP3    H2  430   3.447   5.227   0.202
  142TIP3   OH2  431   2.655   1.952   0.181
  142TIP3    H1  432   2.717   1.986   0.117
  142TIP3    H2  433   2.633   1.865   0.149
  143TIP3   OH2  434   4.612   5.442   0.789
  143TIP3    H1  435   4.590   5.352   0.765
  143TIP3    H2  436   4.682   5.434   0.853
  144TIP3   OH2  437   4.900   5.358   2.437
  144TIP3    H1  438   4.959   5.283   2.440
  144TIP3    H2  439   4.859   5.354   2.351
  145TIP3   OH2  440   0.957   1.317   0.177
  145TIP3    H1  441   0.898   1.301   0.251
  145TIP3    H2  442   0.955   1.412   0.164
  146TIP3   OH2  443   3.794   3.689   1.057
  146TIP3    H1  444   3.733   3.753   1.019
  146TIP3    H2  445   3.744   3.607   1.058
  147TIP3   OH2  446   3.466   3.647   1.976
  147TIP3    H1  447   3.396   3.678   1.918
  147TIP3    H2  448   3.536   3.620   1.916
  148TIP3   OH2  449   1.823   0.808   1.695
  148TIP3    H1  450   1.811   0.727   1.744
  148TIP3    H2  451   1.875   0.782   1.619
  149TIP3   OH2  452   0.124   4.528   3.091
  149TIP3    H1  453   0.099   4.616   3.117
  149TIP3    H2  454   0.097   4.472   3.164
  150TIP3   OH2  455   1.664   5.678   4.722
  150TIP3    H1  456   1.680   5.699   4.815
  150TIP3    H2  457   1.663   5.583   4.719
  151TIP3   OH2  458   5.353   4.807   2.259
  151TIP3    H1  459   5.406   4.736   2.296
  151TIP3    H2  460   5.313   4.849   2.334
  152TIP3   OH2  461   3.234   3.357   3.125
  152TIP3    H1  462   3.312   3.333   3.175
  152TIP3    H2  463   3.259   3.343   3.034
  153TIP3   OH2  464   1.200   5.863   3.370
  153TIP3    H1  465   1.160   5.936   3.323
  153TIP3    H2  466   1.294   5.875   3.356
  154TIP3   OH2  467   6.015   4.473   2.025
  154TIP3    H1  468   5.992   4.433   1.941
  154TIP3    H2  469   6.103   4.508   2.011
  155TIP3   OH2  470   2.984   2.307   3.770
  155TIP3    H1  471   2.891   2.327   3.777
  155TIP3    H2  472   3.015   2.361   3.697
  156TIP3   OH2  473   4.049   0.399   2.681
  156TIP3    H1  474   4.125   0.438   2.637
  156TIP3    H2  475   4.064   0.305   2.674
  157TIP3   OH2  476   0.112   0.023   4.466
  157TIP3    H1  477   0.058   0.044   4.390
  157TIP3    H2  478   0.145  -0.065   4.449
  158TIP3   OH2  479   4.333   4.483   4.988
  158TIP3    H1  480   4.422   4.461   4.961
  158TIP3    H2  481   4.343   4.534   5.068
  159TIP3   OH2  482   1.957   3.337   0.261
  159TIP3    H1  483   1.956   3.294   0.176
  159TIP3    H2  484   1.903   3.281   0.317
  160TIP3   OH2  485   4.229   1.430   3.498
  160TIP3    H1  486   4.183   1.464   3.421
  160TIP3    H2  487   4.244   1.506   3.553
  161TIP3   OH2  488   2.984   4.056   3.347
  161TIP3    H1  489   3.041   4.132   3.343
  161TIP3    H2  490   3.034   3.985   3.307
  162TIP3   OH2  491   1.315   5.829   2.728
  162TIP3    H1  492   1.292   5.922   2.731
  162TIP3    H2  493   1.236   5.786   2.694
  163TIP3   OH2  494   3.719   4.542   2.011
  163TIP3    H1  495   3.755   4.471   2.064
  163TIP3    H2  496   3.763   4.533   1.927
  164TIP3   OH2  497   3.035   5.401   3.713
  164TIP3    H1  498   3.094   5.475   3.697
  164TIP3    H2  499   2.951   5.441   3.735
  165TIP3   OH2  500   2.727  -0.012   4.624
  165TIP3    H1  501   2.777   0.048   4.679
  165TIP3    H2  502   2.668   0.044   4.575
  166TIP3   OH2  503   0.973   5.650   4.609
  166TIP3    H1  504   0.917   5.607   4.673
  166TIP3    H2  505   0.914   5.708   4.560
  167TIP3   OH2  506   0.450   5.493   4.891
  167TIP3    H1  507   0.480   5.425   4.952
  167TIP3    H2  508   0.446   5.572   4.944
  168TIP3   OH2  509   0.399   0.369   1.120
  168TIP3    H1  510   0.321   0.354   1.173
  168TIP3    H2  511   0.395   0.462   1.097
  169TIP3   OH2  512   0.487   0.036   1.637
  169TIP3    H1  513   0.444   0.052   1.721
  169TIP3    H2  514   0.415   0.015   1.577
  170TIP3   OH2  515   4.403   0.330   4.691
  170TIP3    H1  516   4.490   0.292   4.676
  170TIP3    H2  517   4.401   0.408   4.635
  171TIP3   OH2  518   4.928   2.607   3.296
  171TIP3    H1  519   4.914   2.701   3.284
  171TIP3    H2  520   4.931   2.595   3.391
  172TIP3   OH2  521   0.256   5.208   0.782
  172TIP3    H1  522   0.261   5.166   0.697
  172TIP3    H2  523   0.183   5.270   0.775
  173TIP3   OH2  524   2.415   2.989   3.543
  173TIP3    H1  525   2.398   3.083   3.552
  173TIP3    H2  526   2.336   2.954   3.501
  174TIP3   OH2  527   3.921   5.383   3.187
  174TIP3    H1  528   3.945   5.474   3.172
  174TIP3    H2  529   3.866   5.385   3.266
  175TIP3   OH2  530   1.877   4.818   2.799
  175TIP3    H1  531   1.801   4.836   2.744
  175TIP3    H2  532   1.930   4.756   2.749
  176TIP3   OH2  533   0.574   5.995   0.232
  176TIP3    H1  534   0.606   5.997   0.142
  176TIP3    H2  535   0.500   5.936   0.230
  177TIP3   OH2  536   5.412   4.136   2.323
  177TIP3    H1  537   5.386   4.120   2.414
  177TIP3    H2  538   5.351   4.084   2.271
  178TIP3   OH2  539   3.318   5.771   4.104
  178TIP3    H1  540   3.259   5.840   4.133
  178TIP3    H2  541   3.350   5.731   4.185
  179TIP3   OH2  542   2.906   1.980   0.332
  179TIP3    H1  543   2.812   1.973   0.314
  179TIP3    H2  544   2.927   2.072   0.314
  180TIP3   OH2  545   6.249   5.372   3.701
  180TIP3    H1  546   6.255   5.280   3.729
  180TIP3    H2  547   6.190   5.369   3.625
  181TIP3   OH2  548   4.995   4.557   2.735
  181TIP3    H1  549   5.071   4.569   2.678
  181TIP3    H2  550   4.950   4.480   2.700
  182TIP3   OH2  551   5.855   5.966   4.749
  182TIP3    H1  552   5.946   5.939   4.745
  182TIP3    H2  553   5.805   5.885   4.757
  183TIP3   OH2  554   3.583   2.864   3.335
  183TIP3    H1  555   3.614   2.787   3.384
  183TIP3    H2  556   3.603   2.938   3.393
  184TIP3   OH2  557   2.576   4.902   3.877
  184TIP3    H1  558   2.523   4.930   3.802
  184TIP3    H2  559   2.556   4.809   3.887
  185TIP3   OH2  560   1.799   0.673   3.980
  185TIP3    H1  561   1.881   0.628   4.002
  185TIP3    H2  562   1.809   0.698   3.889
  186TIP3   OH2  563   2.226   3.788   1.329
  186TIP3    H1  564   2.214   3.718   1.392
  186TIP3    H2  565   2.168   3.858   1.358
  187TIP3   OH2  566   6.224   1.485   1.682
  187TIP3    H1  567   6.217   1.580   1.672
  187TIP3    H2  568   6.275   1.472   1.762
  188TIP3   OH2  569   3.696   5.271   1.295
  188TIP3    H1  570   3.650   5.268   1.379
  188TIP3    H2  571   3.680   5.360   1.263
  189TIP3   OH2  572   1.796   0.934   0.627
  189TIP3    H1  573   1.792   1.012   0.572
  189TIP3    H2  574   1.767   0.964   0.714
  190TIP3   OH2  575   3.920   2.387   2.952
  190TIP3    H1  576   3.960   2.384   2.864
  190TIP3    H2  577   3.979   2.334   3.006
  191TIP3   OH2  578   0.753   1.850   0.104
  191TIP3    H1  579   0.734   1.776   0.046
  191TIP3    H2  580   0.690   1.842   0.175
  192TIP3   OH2  581   1.384   1.220   1.678
  192TIP3    H1  582   1.459   1.261   1.634
  192TIP3    H2  583   1.385   1.129   1.645
  193TIP3   OH2  584   5.888   4.399   0.441
  193TIP3    H1  585   5.968   4.354   0.415
  193TIP3    H2  586   5.825   4.329   0.456
  194TIP3   OH2  587   2.572   1.488   3.344
  194TIP3    H1  588   2.623   1.568   3.357
  194TIP3    H2  589   2.499   1.514   3.289
  195TIP3   OH2  590   2.547   0.969   2.555
  195TIP3    H1  591   2.476   1.006   2.607
  195TIP3    H2  592   2.540   1.011   2.470
  196TIP3   OH2  593   5.716   3.808   2.442
  196TIP3    H1  594   5.695   3.750   2.369
  196TIP3    H2  595   5.775   3.758   2.498
  197TIP3   OH2  596   1.166   2.839   0.981
  197TIP3    H1  597   1.256   2.811   0.965
  197TIP3    H2  598   1.133   2.862   0.894
  198TIP3   OH2  599   3.841   1.525   3.199
  198TIP3    H1  600   3.887   1.539   3.116
  198TIP3    H2  601   3.764   1.582   3.193
  199TIP3   OH2  602   1.341   1.382   2.212
  199TIP3    H1  603   1.387   1.466   2.219
  199TIP3    H2  604   1.388   1.335   2.142
  200TIP3   OH2  605   0.373   2.499   1.404
  200TIP3    H1  606   0.460   2.462   1.423
  200TIP3    H2  607   0.387   2.554   1.326
  201TIP3   OH2  608   3.706   4.934   5.002
  201TIP3    H1  609   3.628   4.913   5.053
  201TIP3    H2  610   3.759   4.854   5.007
  202TIP3   OH2  611   1.892   3.964   3.234
  202TIP3    H1  612   1.917   3.872   3.245
  202TIP3    H2  613   1.974   4.010   3.218
  203TIP3   OH2  614   6.190   3.445   3.421
  203TIP3    H1  615   6.175   3.367   3.366
  203TIP3    H2  616   6.255   3.416   3.486
  204TIP3   OH2  617   1.665   4.236   0.567
  204TIP3    H1  618   1.748   4.209   0.605
  204TIP3    H2  619   1.682   4.242   0.473
  205TIP3   OH2  620   6.299   4.872   0.277
  205TIP3    H1  621   6.229   4.812   0.300
  205TIP3    H2  622   6.254   4.953   0.251
  206TIP3   OH2  623   6.204   2.711   4.727
  206TIP3    H1  624   6.232   2.772   4.795
  206TIP3    H2  625   6.259   2.731   4.652
  207TIP3   OH2  626   0.622   4.247   4.405
  207TIP3    H1  627   0.596   4.230   4.314
  207TIP3    H2  628   0.608   4.341   4.416
  208TIP3   OH2  629   0.839   5.469   4.780
  208TIP3    H1  630   0.748   5.466   4.810
  208TIP3    H2  631   0.879   5.392   4.819
  209TIP3   OH2  632   2.467   0.524   2.767
  209TIP3    H1  633   2.452   0.579   2.690
  209TIP3    H2  634   2.412   0.562   2.835
  210TIP3   OH2  635   3.981   0.822   4.278
  210TIP3    H1  636   3.900   0.868   4.257
  210TIP3    H2  637   4.006   0.855   4.364
  211TIP3   OH2  638   5.872   5.238   4.768
  211TIP3    H1  639   5.829   5.307   4.717
  211TIP3    H2  640   5.808   5.216   4.836
  212TIP3   OH2  641   6.157   5.075   1.414
  212TIP3    H1  642   6.249   5.054   1.396
  212TIP3    H2  643   6.154   5.171   1.412
  213TIP3   OH2  644   3.112   3.112   4.535
  213TIP3    H1  645   3.186   3.135   4.478
  213TIP3    H2  646   3.134   3.025   4.567
  214TIP3   OH2  647   4.491   0.097   0.110
  214TIP3    H1  648   4.446   0.029   0.058
  214TIP3    H2  649   4.557   0.049   0.160
  215TIP3   OH2  650   1.763   4.520   0.743
  215TIP3    H1  651   1.670   4.534   0.722
  215TIP3    H2  652   1.765   4.435   0.787
  216TIP3   OH2  653   0.266   4.441   2.010
  216TIP3    H1  654   0.259   4.451   2.105
  216TIP3    H2  655   0.303   4.353   1.998
  217TIP3   OH2  656   2.852   3.845   0.866
  217TIP3    H1  657   2.763   3.878   0.876
  217TIP3    H2  658   2.906   3.924   0.856
  218TIP3   OH2  659   4.877   2.651   3.882
  218TIP3    H1  660   4.818   2.719   3.850
  218TIP3    H2  661   4.838   2.622   3.965
  219TIP3   OH2  662   4.848   2.835   4.311
  219TIP3    H1  663   4.878   2.869   4.226
  219TIP3    H2  664   4.870   2.903   4.373
  220TIP3   OH2  665   1.246   2.552   1.730
  220TIP3    H1  666   1.156   2.565   1.699
  220TIP3    H2  667   1.296   2.537   1.650
  221TIP3   OH2  668   1.533   5.467   1.955
  221TIP3    H1  669   1.557   5.398   1.894
  221TIP3    H2  670   1.615   5.487   2.001
  222TIP3   OH2  671   0.144   4.783   0.117
  222TIP3    H1  672   0.074   4.830   0.162
  222TIP3    H2  673   0.163   4.709   0.174
  223TIP3   OH2  674   3.072   1.139   3.892
  223TIP3    H1  675   3.165   1.136   3.918
  223TIP3    H2  676   3.038   1.217   3.935
  224TIP3   OH2  677   4.955   5.096   4.828
  224TIP3    H1  678   4.942   5.172   4.886
  224TIP3    H2  679   5.049   5.079   4.832
  225TIP3   OH2  680   2.898   4.008   4.650
  225TIP3    H1  681   2.875   4.002   4.557
  225TIP3    H2  682   2.862   3.929   4.689
  226TIP3   OH2  683   0.968   3.222   3.014
  226TIP3    H1  684   1.043   3.167   3.033
  226TIP3    H2  685   0.952   3.209   2.920
  227TIP3   OH2  686   0.229   4.366   1.330
  227TIP3    H1  687   0.219   4.333   1.241
  227TIP3    H2  688   0.143   4.355   1.369
  228TIP3   OH2  689   4.586   2.895   3.574
  228TIP3    H1  690   4.501   2.875   3.534
  228TIP3    H2  691   4.589   2.990   3.578
  229TIP3   OH2  692   1.226   2.716   1.957
  229TIP3    H1  693   1.215   2.652   1.886
  229TIP3    H2  694   1.305   2.765   1.933
  230TIP3   OH2  695   3.574   3.876   4.782
  230TIP3    H1  696   3.617   3.791   4.775
  230TIP3    H2  697   3.599   3.909   4.868
  231TIP3   OH2  698   4.527   4.020   2.211
  231TIP3    H1  699   4.472   4.029   2.133
  231TIP3    H2  700   4.616   4.032   2.180
  232TIP3   OH2  701   0.737   0.577   0.236
  232TIP3    H1  702   0.738   0.640   0.164
  232TIP3    H2  703   0.733   0.492   0.193
  233TIP3   OH2  704   3.255   1.481   3.131
  233TIP3    H1  705   3.234   1.529   3.051
  233TIP3    H2  706   3.343   1.447   3.117
  234TIP3   OH2  707   4.145   0.050   3.720
  234TIP3    H1  708   4.139   0.026   3.628
  234TIP3    H2  709   4.118   0.141   3.723
  235TIP3   OH2  710   5.118   0.347   2.846
  235TIP3    H1  711   5.138   0.267   2.798
  235TIP3    H2  712   5.139   0.418   2.785
  236TIP3   OH2  713   1.646   4.500   4.042
  236TIP3    H1  714   1.560   4.525   4.075
  236TIP3    H2  715   1.657   4.409   4.070
  237TIP3   OH2  716   1.562   4.108   4.449
  237TIP3    H1  717   1.559   4.044   4.521
  237TIP3    H2  718   1.502   4.074   4.384
  238TIP3   OH2  719   1.488   0.503   0.858
  238TIP3    H1  720   1.473   0.491   0.952
  238TIP3    H2  721   1.444   0.585   0.836
  239TIP3   OH2  722   6.244   0.495   4.240
  239TIP3    H1  723   6.280   0.455   4.161
  239TIP3    H2  724   6.320   0.535   4.282
  240TIP3   OH2  725   3.023   3.682   2.538
  240TIP3    H1  726   2.984   3.617   2.595
  240TIP3    H2  727   3.070   3.742   2.597
  241TIP3   OH2  728   0.300   0.787   3.784
  241TIP3    H1  729   0.313   0.728   3.709
  241TIP3    H2  730   0.283   0.728   3.857
  242TIP3   OH2  731   4.379   0.954   4.692
  242TIP3    H1  732   4.428   1.025   4.732
  242TIP3    H2  733   4.414   0.947   4.603
  243TIP3   OH2  734   0.214   0.924   3.395
  243TIP3    H1  735   0.152   0.861   3.358
  243TIP3    H2  736   0.159   0.991   3.437
  244TIP3   OH2  737   0.435   4.680   4.134
  244TIP3    H1  738   0.421   4.727   4.052
  244TIP3    H2  739   0.510   4.624   4.116
  245TIP3   OH2  740   3.451   0.541   2.031
  245TIP3    H1  741   3.509   0.528   1.956
  245TIP3    H2  742   3.453   0.458   2.078
  246TIP3   OH2  743   1.138   1.349   3.803
  246TIP3    H1  744   1.122   1.440   3.777
  246TIP3    H2  745   1.051   1.311   3.811
  247TIP3   OH2  746   3.750   5.735   4.616
  247TIP3    H1  747   3.789   5.706   4.534
  247TIP3    H2  748   3.719   5.824   4.597
  248TIP3   OH2  749   5.694   5.534   3.449
  248TIP3    H1  750   5.608   5.522   3.489
  248TIP3    H2  751   5.741   5.453   3.469
  249TIP3   OH2  752   0.664   1.907   3.546
  249TIP3    H1  753   0.597   1.841   3.530
  249TIP3    H2  754   0.627   1.961   3.617
  250TIP3   OH2  755   2.587   4.460   3.383
  250TIP3    H1  756   2.552   4.377   3.350
  250TIP3    H2  757   2.512   4.520   3.383
  251TIP3   OH2  758   3.584   0.502   0.656
  251TIP3    H1  759   3.494   0.472   0.665
  251TIP3    H2  760   3.592   0.526   0.563
  252TIP3   OH2  761   0.818   3.778   1.939
  252TIP3    H1  762   0.803   3.851   1.880
  252TIP3    H2  763   0.765   3.707   1.904
  253TIP3   OH2  764   0.090   0.514   2.795
  253TIP3    H1  765   0.086   0.580   2.864
  253TIP3    H2  766   0.181   0.518   2.765
  254TIP3   OH2  767   4.359   5.893   1.300
  254TIP3    H1  768   4.336   5.843   1.378
  254TIP3    H2  769   4.286   5.877   1.240
  255TIP3   OH2  770   3.771   1.937   1.194
  255TIP3    H1  771   3.843   1.964   1.138
  255TIP3    H2  772   3.694   1.941   1.138
  256TIP3   OH2  773   1.839   2.528   1.561
  256TIP3    H1  774   1.929   2.551   1.585
  256TIP3    H2  775   1.807   2.606   1.516
  257TIP3   OH2  776   4.772   1.997   2.249
  257TIP3    H1  777   4.832   1.923   2.250
  257TIP3    H2  778   4.753   2.014   2.341
  258TIP3   OH2  779   4.203   4.353   4.749
  258TIP3    H1  780   4.138   4.415   4.715
  258TIP3    H2  781   4.258   4.405   4.807
  259TIP3   OH2  782   5.069   4.005   1.636
  259TIP3    H1  783   5.055   4.051   1.718
  259TIP3    H2  784   5.139   4.054   1.593
  260TIP3   OH2  785   6.074   1.043   0.821
  260TIP3    H1  786   6.158   1.021   0.781
  260TIP3    H2  787   6.035   1.107   0.761
  261TIP3   OH2  788   2.434   1.377   3.756
  261TIP3    H1  789   2.456   1.469   3.741
  261TIP3    H2  790   2.519   1.334   3.769
  262TIP3   OH2  791   4.602   1.931   1.150
  262TIP3    H1  792   4.650   1.911   1.231
  262TIP3    H2  793   4.523   1.977   1.180
  263TIP3   OH2  794   0.106   3.959   4.763
  263TIP3    H1  795   0.024   4.002   4.738
  263TIP3    H2  796   0.147   4.021   4.824
  264TIP3   OH2  797   2.747   1.154   1.014
  264TIP3    H1  798   2.731   1.067   0.977
  264TIP3    H2  799   2.824   1.186   0.967
  265TIP3   OH2  800   2.771   2.131   2.284
  265TIP3    H1  801   2.678   2.118   2.303
  265TIP3    H2  802   2.771   2.193   2.211
  266TIP3   OH2  803   4.920   4.106   2.958
  266TIP3    H1  804   5.005   4.078   2.992
  266TIP3    H2  805   4.909   4.196   2.991
  267TIP3   OH2  806   6.084   0.787   2.020
  267TIP3    H1  807   6.103   0.701   1.982
  267TIP3    H2  808   5.989   0.785   2.037
  268TIP3   OH2  809   1.722   4.116   2.133
  268TIP3    H1  810   1.712   4.090   2.225
  268TIP3    H2  811   1.651   4.179   2.118
  269TIP3   OH2  812   2.832   4.632   1.483
  269TIP3    H1  813   2.898   4.567   1.506
  269TIP3    H2  814   2.754   4.581   1.462
  270TIP3   OH2  815   2.170   4.266   0.605
  270TIP3    H1  816   2.234   4.194   0.604
  270TIP3    H2  817   2.161   4.292   0.513
  271TIP3   OH2  818   1.188   5.056   0.295
  271TIP3    H1  819   1.105   5.049   0.343
  271TIP3    H2  820   1.256   5.051   0.362
  272TIP3   OH2  821   0.462   0.880   4.574
  272TIP3    H1  822   0.390   0.941   4.556
  272TIP3    H2  823   0.491   0.903   4.662
  273TIP3   OH2  824   0.185   5.727   5.196
  273TIP3    H1  825   0.198   5.821   5.184
  273TIP3    H2  826   0.267   5.687   5.167
  274TIP3   OH2  827   6.271   4.455   4.017
  274TIP3    H1  828   6.335   4.389   4.044
  274TIP3    H2  829   6.320   4.515   3.962
  275TIP3   OH2  830   2.932   2.991   1.625
  275TIP3    H1  831   2.904   2.931   1.557
  275TIP3    H2  832   2.864   2.984   1.693
  276TIP3   OH2  833   1.621   0.847   2.851
  276TIP3    H1  834   1.671   0.859   2.931
  276TIP3    H2  835   1.578   0.931   2.837
  277TIP3   OH2  836   2.874   0.391   2.787
  277TIP3    H1  837   2.938   0.454   2.820
  277TIP3    H2  838   2.927   0.327   2.739
  278TIP3   OH2  839   2.741   0.527   3.420
  278TIP3    H1  840   2.757   0.471   3.344
  278TIP3    H2  841   2.791   0.487   3.491
  279TIP3   OH2  842   3.306   2.150   4.338
  279TIP3    H1  843   3.343   2.130   4.424
  279TIP3    H2  844   3.382   2.166   4.283
  280TIP3   OH2  845   3.703   5.707   4.256
  280TIP3    H1  846   3.791   5.687   4.286
  280TIP3    H2  847   3.706   5.800   4.233
  281TIP3   OH2  848   3.494   0.719   1.183
  281TIP3    H1  849   3.585   0.688   1.181
  281TIP3    H2  850   3.480   0.745   1.274
  282TIP3   OH2  851   4.061   5.075   3.982
  282TIP3    H1  852   4.000   5.062   3.909
  282TIP3    H2  853   4.007   5.069   4.061
  283TIP3   OH2  854   4.211   4.511   1.148
  283TIP3    H1  855   4.120   4.502   1.119
  283TIP3    H2  856   4.250   4.573   1.086
  284TIP3   OH2  857   5.032   3.104   4.707
  284TIP3    H1  858   4.981   3.067   4.779
  284TIP3    H2  859   5.024   3.199   4.719
  285TIP3   OH2  860   0.240   2.154   3.045
  285TIP3    H1  861   0.147   2.172   3.036
  285TIP3    H2  862   0.267   2.122   2.959
  286TIP3   OH2  863   5.386   1.754   4.581
  286TIP3    H1  864   5.302   1.709   4.568
  286TIP3    H2  865   5.362   1.847   4.587
  287TIP3   OH2  866   4.911   4.162   4.689
  287TIP3    H1  867   4.967   4.230   4.726
  287TIP3    H2  868   4.824   4.180   4.725
  288TIP3   OH2  869   4.511   4.583   1.366
  288TIP3    H1  870   4.550   4.593   1.453
  288TIP3    H2  871   4.427   4.539   1.382
  289TIP3   OH2  872   1.695   0.981   3.108
  289TIP3    H1  873   1.648   0.916   3.160
  289TIP3    H2  874   1.772   1.003   3.161
  290TIP3   OH2  875   0.384   2.429   1.099
  290TIP3    H1  876   0.392   2.384   1.183
  290TIP3    H2  877   0.447   2.501   1.105
  291TIP3   OH2  878   1.491   2.688   4.934
  291TIP3    H1  879   1.580   2.694   4.901
  291TIP3    H2  880   1.490   2.745   5.011
  292TIP3   OH2  881   1.325   0.694   1.408
  292TIP3    H1  882   1.316   0.740   1.325
  292TIP3    H2  883   1.417   0.706   1.432
  293TIP3   OH2  884   3.215   3.301   0.158
  293TIP3    H1  885   3.253   3.378   0.116
  293TIP3    H2  886   3.235   3.311   0.251
  294TIP3   OH2  887   1.407   2.041   2.062
  294TIP3    H1  888   1.482   2.098   2.045
  294TIP3    H2  889   1.408   2.027   2.156
  295TIP3   OH2  890   3.427   2.000   2.331
  295TIP3    H1  891   3.511   1.959   2.351
  295TIP3    H2  892   3.377   1.932   2.285
  296TIP3   OH2  893   2.054   1.501   3.053
  296TIP3    H1  894   2.027   1.592   3.052
  296TIP3    H2  895   2.133   1.499   2.999
  297TIP3   OH2  896   2.054   5.818   2.180
  297TIP3    H1  897   2.109   5.813   2.258
  297TIP3    H2  898   2.110   5.860   2.114
  298TIP3   OH2  899   3.525   3.895   3.388
  298TIP3    H1  900   3.560   3.824   3.441
  298TIP3    H2  901   3.514   3.968   3.449
  299TIP3   OH2  902   6.307   2.838   2.525
  299TIP3    H1  903   6.234   2.781   2.502
  299TIP3    H2  904   6.305   2.908   2.461
  300TIP3   OH2  905   4.040   1.182   2.523
  300TIP3    H1  906   4.061   1.123   2.450
  300TIP3    H2  907   3.962   1.143   2.562
  301TIP3   OH2  908   5.430   3.709   1.105
  301TIP3    H1  909   5.366   3.699   1.035
  301TIP3    H2  910   5.437   3.622   1.144
  302TIP3   OH2  911   2.057   0.598   0.782
  302TIP3    H1  912   1.971   0.555   0.787
  302TIP3    H2  913   2.108   0.558   0.852
  303TIP3   OH2  914   2.140   1.867   4.207
  303TIP3    H1  915   2.159   1.828   4.292
  303TIP3    H2  916   2.100   1.951   4.227
  304TIP3   OH2  917   5.581   2.822   2.984
  304TIP3    H1  918   5.536   2.899   3.018
  304TIP3    H2  919   5.668   2.825   3.024
  305TIP3   OH2  920   5.760   4.668   4.790
  305TIP3    H1  921   5.818   4.594   4.775
  305TIP3    H2  922   5.762   4.682   4.885
  306TIP3   OH2  923   6.278   2.747   5.184
  306TIP3    H1  924   6.259   2.691   5.108
  306TIP3    H2  925   6.348   2.702   5.230
  307TIP3   OH2  926   3.842   2.745   2.004
  307TIP3    H1  927   3.752   2.775   2.014
  307TIP3    H2  928   3.894   2.826   1.995
  308TIP3   OH2  929   2.866   1.836   0.663
  308TIP3    H1  930   2.931   1.791   0.716
  308TIP3    H2  931   2.864   1.925   0.698
  309TIP3   OH2  932   1.801   4.456   0.095
  309TIP3    H1  933   1.864   4.486   0.029
  309TIP3    H2  934   1.715   4.473   0.055
  310TIP3   OH2  935   0.960   2.437   3.969
  310TIP3    H1  936   1.006   2.473   3.894
  310TIP3    H2  937   1.002   2.477   4.045
  311TIP3   OH2  938   1.890   2.218   3.426
  311TIP3    H1  939   1.808   2.183   3.392
  311TIP3    H2  940   1.953   2.147   3.413
  312TIP3   OH2  941   4.695   1.946   0.669
  312TIP3    H1  942   4.767   1.903   0.623
  312TIP3    H2  943   4.660   1.880   0.728
  313TIP3   OH2  944   0.798   1.600   0.356
  313TIP3    H1  945   0.768   1.690   0.372
  313TIP3    H2  946   0.818   1.566   0.443
  314TIP3   OH2  947   3.809   4.235   4.050
  314TIP3    H1  948   3.745   4.205   3.985
  314TIP3    H2  949   3.832   4.323   4.021
  315TIP3   OH2  950   5.114   4.163   3.615
  315TIP3    H1  951   5.054   4.088   3.614
  315TIP3    H2  952   5.189   4.132   3.666
  316TIP3   OH2  953   4.003   1.274   3.161
  316TIP3    H1  954   3.981   1.367   3.169
  316TIP3    H2  955   3.973   1.236   3.243
  317TIP3   OH2  956   4.830   1.344   4.722
  317TIP3    H1  957   4.775   1.368   4.648
  317TIP3    H2  958   4.854   1.253   4.705
  318TIP3   OH2  959   5.183   2.352   0.110
  318TIP3    H1  960   5.108   2.397   0.148
  318TIP3    H2  961   5.152   2.264   0.092
  319TIP3   OH2  962   3.000   5.437   3.421
  319TIP3    H1  963   2.962   5.351   3.440
  319TIP3    H2  964   3.031   5.468   3.506
  320TIP3   OH2  965   1.173   3.114   3.365
  320TIP3    H1  966   1.163   3.026   3.403
  320TIP3    H2  967   1.202   3.097   3.275
  321TIP3   OH2  968   4.437   0.907   0.415
  321TIP3    H1  969   4.469   0.969   0.350
  321TIP3    H2  970   4.501   0.912   0.486
  322TIP3   OH2  971   5.993   2.293   0.754
  322TIP3    H1  972   5.955   2.293   0.842
  322TIP3    H2  973   6.029   2.381   0.743
  323TIP3   OH2  974   2.512   2.001   1.878
  323TIP3    H1  975   2.453   1.968   1.946
  323TIP3    H2  976   2.469   1.980   1.796
  324TIP3   OH2  977   4.061   1.808   4.185
  324TIP3    H1  978   4.039   1.716   4.172
  324TIP3    H2  979   4.104   1.834   4.104
  325TIP3   OH2  980   4.062   4.647   1.530
  325TIP3    H1  981   4.083   4.692   1.448
  325TIP3    H2  982   4.131   4.581   1.538
  326TIP3   OH2  983   0.930   2.403   1.836
  326TIP3    H1  984   0.929   2.490   1.875
  326TIP3    H2  985   0.854   2.358   1.873
  327TIP3   OH2  986   2.867   0.354   2.168
  327TIP3    H1  987   2.908   0.440   2.180
  327TIP3    H2  988   2.926   0.293   2.213
  328TIP3   OH2  989   4.494   5.181   0.102
  328TIP3    H1  990   4.498   5.264   0.055
  328TIP3    H2  991   4.549   5.121   0.052
  329TIP3   OH2  992   4.888   5.683   3.619
  329TIP3    H1  993   4.964   5.741   3.615
  329TIP3    H2  994   4.890   5.647   3.707
  330TIP3   OH2  995   5.574   0.042   4.784
  330TIP3    H1  996   5.594  -0.037   4.836
  330TIP3    H2  997   5.617   0.026   4.700
  331TIP3   OH2  998   5.426   2.758   2.334
  331TIP3    H1  999   5.433   2.822   2.405
  331TIP3    H2 1000   5.414   2.810   2.255
  332TIP3   OH2 1001   0.045   3.323   3.575
  332TIP3    H1 1002   0.100   3.400   3.566
  332TIP3    H2 1003   0.077   3.280   3.655
  333TIP3   OH2 1004   3.560   4.353   1.446
  333TIP3    H1 1005   3.613   4.286   1.489
  333TIP3    H2 1006   3.491   4.304   1.402
  334TIP3   OH2 1007   1.114   3.065   4.590
  334TIP3    H1 1008   1.096   2.979   4.551
  334TIP3    H2 1009   1.165   3.111   4.523
  335TIP3   OH2 1010   2.984   4.384   1.491
  335TIP3    H1 1011   2.934   4.303   1.480
  335TIP3    H2 1012   3.073   4.355   1.512
  336TIP3   OH2 1013   1.919   5.216   1.692
  336TIP3    H1 1014   1.983   5.263   1.745
  336TIP3    H2 1015   1.967   5.190   1.613
  337TIP3   OH2 1016   1.359   0.986   3.191
  337TIP3    H1 1017   1.365   1.069   3.144
  337TIP3    H2 1018   1.283   0.997   3.248
  338TIP3   OH2 1019   3.133   1.209   0.591
  338TIP3    H1 1020   3.046   1.186   0.624
  338TIP3    H2 1021   3.117   1.254   0.509
  339TIP3   OH2 1022   1.704   5.439   3.772
  339TIP3    H1 1023   1.623   5.466   3.728
  339TIP3    H2 1024   1.697   5.344   3.777
  340TIP3   OH2 1025   5.867   5.841   0.193
  340TIP3    H1 1026   5.814   5.818   0.269
  340TIP3    H2 1027   5.824   5.918   0.156
  341TIP3   OH2 1028   3.673   1.548   0.966
  341TIP3    H1 1029   3.674   1.459   0.929
  341TIP3    H2 1030   3.742   1.547   1.032
  342TIP3   OH2 1031   6.341   5.275   0.665
  342TIP3    H1 1032   6.275   5.207   0.672
  342TIP3    H2 1033   6.353   5.287   0.571
  343TIP3   OH2 1034   3.432   4.792   5.096
  343TIP3    H1 1035   3.411   4.699   5.109
  343TIP3    H2 1036   3.396   4.835   5.174
  344TIP3   OH2 1037   0.726   4.709   2.742
  344TIP3    H1 1038   0.705   4.758   2.662
  344TIP3    H2 1039   0.813   4.739   2.766
  345TIP3   OH2 1040   5.578   0.941   1.069
  345TIP3    H1 1041   5.610   0.861   1.027
  345TIP3    H2 1042   5.655   0.998   1.071
  346TIP3   OH2 1043   3.589   4.051   2.898
  346TIP3    H1 1044   3.647   4.099   2.958
  346TIP3    H2 1045   3.516   4.111   2.882
  347TIP3   OH2 1046   0.541   2.893   5.075
  347TIP3    H1 1047   0.454   2.891   5.035
  347TIP3    H2 1048   0.572   2.803   5.069
  348TIP3   OH2 1049   6.175   5.270   2.863
  348TIP3    H1 1050   6.199   5.193   2.812
  348TIP3    H2 1051   6.199   5.345   2.808
  349TIP3   OH2 1052   4.442   1.467   5.173
  349TIP3    H1 1053   4.417   1.480   5.082
  349TIP3    H2 1054   4.430   1.373   5.187
  350TIP3   OH2 1055   4.289   0.234   0.883
  350TIP3    H1 1056   4.324   0.215   0.796
  350TIP3    H2 1057   4.245   0.319   0.872
  351TIP3   OH2 1058   3.534   1.361   1.737
  351TIP3    H1 1059   3.510   1.274   1.704
  351TIP3    H2 1060   3.598   1.344   1.806
  352TIP3   OH2 1061   2.263   2.496   0.793
  352TIP3    H1 1062   2.174   2.527   0.778
  352TIP3    H2 1063   2.318   2.571   0.771
  353TIP3   OH2 1064   4.016   5.645   4.715
  353TIP3    H1 1065   4.067   5.687   4.784
  353TIP3    H2 1066   3.930   5.688   4.720
  354TIP3   OH2 1067   3.483   4.039   1.657
  354TIP3    H1 1068   3.512   3.992   1.579
  354TIP3    H2 1069   3.564   4.060   1.703
  355TIP3   OH2 1070   5.294   2.786   3.590
  355TIP3    H1 1071   5.388   2.801   3.583
  355TIP3    H2 1072   5.269   2.829   3.672
  356TIP3   OH2 1073   2.327   0.317   4.484
  356TIP3    H1 1074   2.291   0.245   4.536
  356TIP3    H2 1075   2.252   0.353   4.437
  357TIP3   OH2 1076   4.341   4.137   4.379
  357TIP3    H1 1077   4.422   4.134   4.329
  357TIP3    H2 1078   4.292   4.060   4.350
  358TIP3   OH2 1079   4.877   2.726   1.699
  358TIP3    H1 1080   4.783   2.727   1.714
  358TIP3    H2 1081   4.902   2.819   1.696
  359TIP3   OH2 1082   1.419   0.568   0.150
  359TIP3    H1 1083   1.435   0.497   0.213
  359TIP3    H2 1084   1.325   0.562   0.132
  360TIP3   OH2 1085   4.618   2.552   3.520
  360TIP3    H1 1086   4.575   2.472   3.549
  360TIP3    H2 1087   4.699   2.556   3.571
  361TIP3   OH2 1088   6.296   5.344   3.094
  361TIP3    H1 1089   6.253   5.427   3.116
  361TIP3    H2 1090   6.253   5.316   3.013
  362TIP3   OH2 1091   1.976   4.170   4.113
  362TIP3    H1 1092   1.995   4.218   4.033
  362TIP3    H2 1093   1.985   4.236   4.183
  363TIP3   OH2 1094   6.339   0.464   2.117
  363TIP3    H1 1095   6.280   0.418   2.177
  363TIP3    H2 1096   6.415   0.487   2.170
  364TIP3   OH2 1097   4.335   1.224   1.179
  364TIP3    H1 1098   4.259   1.196   1.230
  364TIP3    H2 1099   4.303   1.231   1.089
  365TIP3   OH2 1100   3.000   2.766   1.160
  365TIP3    H1 1101   2.967   2.748   1.072
  365TIP3    H2 1102   3.048   2.687   1.184
  366TIP3   OH2 1103   3.911   2.758   0.729
  366TIP3    H1 1104   3.919   2.766   0.824
  366TIP3    H2 1105   3.820   2.781   0.710
  367TIP3   OH2 1106   2.538   5.252   2.112
  367TIP3    H1 1107   2.512   5.218   2.027
  367TIP3    H2 1108   2.457   5.286   2.150
  368TIP3   OH2 1109   3.381   0.208   3.343
  368TIP3    H1 1110   3.399   0.182   3.433
  368TIP3    H2 1111   3.356   0.301   3.349
  369TIP3   OH2 1112   2.330   1.649   2.429
  369TIP3    H1 1113   2.372   1.722   2.384
  369TIP3    H2 1114   2.332   1.578   2.365
  370TIP3   OH2 1115   4.007   0.304   3.388
  370TIP3    H1 1116   3.962   0.225   3.361
  370TIP3    H2 1117   4.013   0.357   3.308
  371TIP3   OH2 1118   0.998   2.836   2.139
  371TIP3    H1 1119   1.020   2.921   2.100
  371TIP3    H2 1120   1.041   2.772   2.082
  372TIP3   OH2 1121   3.543   2.462   0.648
  372TIP3    H1 1122   3.546   2.371   0.678
  372TIP3    H2 1123   3.628   2.477   0.607
  373TIP3   OH2 1124   0.573   4.832   1.298
  373TIP3    H1 1125   0.523   4.787   1.366
  373TIP3    H2 1126   0.652   4.864   1.343
  374TIP3   OH2 1127   0.711   2.689   1.533
  374TIP3    H1 1128   0.690   2.657   1.621
  374TIP3    H2 1129   0.634   2.739   1.506
  375TIP3   OH2 1130   3.231   0.216   2.495
  375TIP3    H1 1131   3.226   0.305   2.530
  375TIP3    H2 1132   3.314   0.182   2.529
  376TIP3   OH2 1133   4.975   1.290   1.320
  376TIP3    H1 1134   4.934   1.354   1.379
  376TIP3    H2 1135   5.066   1.320   1.312
  377TIP3   OH2 1136   1.096   4.848   4.868
  377TIP3    H1 1137   1.084   4.861   4.962
  377TIP3    H2 1138   1.191   4.851   4.856
  378TIP3   OH2 1139   1.188   3.069   3.107
  378TIP3    H1 1140   1.185   2.973   3.106
  378TIP3    H2 1141   1.277   3.090   3.078
  379TIP3   OH2 1142   2.493   0.633   4.083
  379TIP3    H1 1143   2.403   0.639   4.054
  379TIP3    H2 1144   2.497   0.553   4.136
  380TIP3   OH2 1145   1.233   4.068   2.488
  380TIP3    H1 1146   1.249   4.138   2.425
  380TIP3    H2 1147   1.290   3.997   2.460
  381TIP3   OH2 1148   1.181   5.713   4.038
  381TIP3    H1 1149   1.178   5.652   4.112
  381TIP3    H2 1150   1.104   5.692   3.985
  382TIP3   OH2 1151   4.157   3.416   3.258
  382TIP3    H1 1152   4.237   3.453   3.219
  382TIP3    H2 1153   4.106   3.493   3.283
  383TIP3   OH2 1154   5.358   2.092   1.745
  383TIP3    H1 1155   5.444   2.073   1.709
  383TIP3    H2 1156   5.355   2.041   1.827
  384TIP3   OH2 1157   3.959   1.806   3.837
  384TIP3    H1 1158   3.872   1.771   3.819
  384TIP3    H2 1159   3.944   1.884   3.890
  385TIP3   OH2 1160   3.959   2.385   2.673
  385TIP3    H1 1161   4.036   2.403   2.619
  385TIP3    H2 1162   3.885   2.405   2.616
  386TIP3   OH2 1163   5.096   4.819   4.716
  386TIP3    H1 1164   5.162   4.872   4.760
  386TIP3    H2 1165   5.031   4.799   4.784
  387TIP3   OH2 1166   4.379   2.499   4.424
  387TIP3    H1 1167   4.352   2.434   4.489
  387TIP3    H2 1168   4.313   2.494   4.356
  388TIP3   OH2 1169   1.683   1.845   4.112
  388TIP3    H1 1170   1.680   1.865   4.018
  388TIP3    H2 1171   1.771   1.872   4.139
  389TIP3   OH2 1172   0.148   2.254   3.899
  389TIP3    H1 1173   0.186   2.168   3.913
  389TIP3    H2 1174   0.054   2.237   3.885
  390TIP3   OH2 1175   2.881   3.571   2.299
  390TIP3    H1 1176   2.811   3.524   2.344
  390TIP3    H2 1177   2.842   3.599   2.216
  391TIP3   OH2 1178   2.687   5.668   3.266
  391TIP3    H1 1179   2.716   5.592   3.216
  391TIP3    H2 1180   2.725   5.656   3.353
  392TIP3   OH2 1181   3.138   5.799   3.426
  392TIP3    H1 1182   3.158   5.732   3.360
  392TIP3    H2 1183   3.224   5.834   3.451
  393TIP3   OH2 1184   6.112   4.300   4.168
  393TIP3    H1 1185   6.137   4.336   4.253
  393TIP3    H2 1186   6.159   4.354   4.104
  394TIP3   OH2 1187   1.987   2.510   3.711
  394TIP3    H1 1188   1.956   2.600   3.715
  394TIP3    H2 1189   1.955   2.470   3.792
  395TIP3   OH2 1190   1.393   2.250   0.864
  395TIP3    H1 1191   1.394   2.294   0.780
  395TIP3    H2 1192   1.450   2.173   0.852
  396TIP3   OH2 1193   1.482   3.047   1.696
  396TIP3    H1 1194   1.560   3.101   1.688
  396TIP3    H2 1195   1.410   3.110   1.700
  397TIP3   OH2 1196   1.889   4.505   3.511
  397TIP3    H1 1197   1.846   4.441   3.567
  397TIP3    H2 1198   1.936   4.563   3.571
  398TIP3   OH2 1199   5.263   1.257   1.867
  398TIP3    H1 1200   5.280   1.203   1.790
  398TIP3    H2 1201   5.195   1.319   1.839
  399TIP3   OH2 1202   1.769   1.982   3.885
  399TIP3    H1 1203   1.691   2.034   3.865
  399TIP3    H2 1204   1.833   2.045   3.918
  400TIP3   OH2 1205   3.623   3.605   0.724
  400TIP3    H1 1206   3.668   3.689   0.720
  400TIP3    H2 1207   3.683   3.544   0.680
  401TIP3   OH2 1208   3.075   5.039   4.213
  401TIP3    H1 1209   3.027   5.025   4.295
  401TIP3    H2 1210   3.030   5.112   4.171
  402TIP3   OH2 1211   1.372   3.885   5.117
  402TIP3    H1 1212   1.393   3.848   5.031
  402TIP3    H2 1213   1.400   3.976   5.111
  403TIP3   OH2 1214   3.076   0.876   4.018
  403TIP3    H1 1215   3.055   0.813   4.087
  403TIP3    H2 1216   3.028   0.955   4.043
  404TIP3   OH2 1217   2.567   1.467   2.632
  404TIP3    H1 1218   2.662   1.452   2.627
  404TIP3    H2 1219   2.559   1.557   2.665
  405TIP3   OH2 1220   2.143   4.808   0.368
  405TIP3    H1 1221   2.178   4.862   0.297
  405TIP3    H2 1222   2.119   4.725   0.326
  406TIP3   OH2 1223   2.678   2.529   2.789
  406TIP3    H1 1224   2.755   2.537   2.846
  406TIP3    H2 1225   2.604   2.551   2.845
  407TIP3   OH2 1226   3.509   0.850   4.715
  407TIP3    H1 1227   3.456   0.770   4.716
  407TIP3    H2 1228   3.505   0.880   4.624
  408TIP3   OH2 1229   1.554   4.315   4.842
  408TIP3    H1 1230   1.613   4.391   4.846
  408TIP3    H2 1231   1.466   4.353   4.834
  409TIP3   OH2 1232   5.219   0.877   3.265
  409TIP3    H1 1233   5.143   0.832   3.229
  409TIP3    H2 1234   5.227   0.957   3.213
  410TIP3   OH2 1235   5.276   1.184   0.749
  410TIP3    H1 1236   5.282   1.106   0.694
  410TIP3    H2 1237   5.184   1.208   0.747
  411TIP3   OH2 1238   4.942   1.910   3.086
  411TIP3    H1 1239   4.988   1.866   3.158
  411TIP3    H2 1240   4.930   1.841   3.020
  412TIP3   OH2 1241   1.146   0.741   3.629
  412TIP3    H1 1242   1.172   0.730   3.537
  412TIP3    H2 1243   1.059   0.780   3.625
  413TIP3   OH2 1244   3.525   5.098   2.009
  413TIP3    H1 1245   3.451   5.044   2.035
  413TIP3    H2 1246   3.565   5.125   2.092
  414TIP3   OH2 1247   5.743   5.943   0.699
  414TIP3    H1 1248   5.753   5.977   0.610
  414TIP3    H2 1249   5.693   5.862   0.688
  415TIP3   OH2 1250   2.105   2.727   4.582
  415TIP3    H1 1251   2.137   2.640   4.605
  415TIP3    H2 1252   2.144   2.745   4.496
  416TIP3   OH2 1253   0.452   2.645   0.425
  416TIP3    H1 1254   0.463   2.551   0.438
  416TIP3    H2 1255   0.373   2.654   0.371
  417TIP3   OH2 1256   5.876   3.186   4.787
  417TIP3    H1 1257   5.844   3.096   4.787
  417TIP3    H2 1258   5.803   3.238   4.821
  418TIP3   OH2 1259   1.895   0.978   1.358
  418TIP3    H1 1260   1.846   1.022   1.288
  418TIP3    H2 1261   1.898   1.042   1.429
  419TIP3   OH2 1262   1.170   3.925   2.790
  419TIP3    H1 1263   1.090   3.973   2.769
  419TIP3    H2 1264   1.164   3.845   2.738
  420TIP3   OH2 1265   3.903   4.203   5.070
  420TIP3    H1 1266   3.981   4.201   5.014
  420TIP3    H2 1267   3.853   4.278   5.039
  421TIP3   OH2 1268   6.311   3.442   2.610
  421TIP3    H1 1269   6.216   3.448   2.598
  421TIP3    H2 1270   6.322   3.399   2.696
  422TIP3   OH2 1271   5.150   1.528   0.750
  422TIP3    H1 1272   5.116   1.554   0.836
  422TIP3    H2 1273   5.090   1.460   0.720
  423TIP3   OH2 1274   0.067   1.554   4.354
  423TIP3    H1 1275   0.151   1.509   4.356
  423TIP3    H2 1276   0.033   1.538   4.266
  424TIP3   OH2 1277   4.734   1.717   4.532
  424TIP3    H1 1278   4.647   1.755   4.538
  424TIP3    H2 1279   4.727   1.635   4.582
  425TIP3   OH2 1280   4.084   5.886   0.036
  425TIP3    H1 1281   4.071   5.794   0.056
  425TIP3    H2 1282   4.176   5.902   0.059
  426TIP3   OH2 1283   2.419   5.649   4.142
  426TIP3    H1 1284   2.424   5.671   4.235
  426TIP3    H2 1285   2.403   5.554   4.140
  427TIP3   OH2 1286   4.299   5.390   2.535
  427TIP3    H1 1287   4.337   5.385   2.448
  427TIP3    H2 1288   4.371   5.369   2.594
  428TIP3   OH2 1289   3.312   0.144   2.913
  428TIP3    H1 1290   3.308   0.221   2.970
  428TIP3    H2 1291   3.224   0.108   2.917
  429TIP3   OH2 1292   6.276   5.925   1.255
  429TIP3    H1 1293   6.268   5.908   1.349
  429TIP3    H2 1294   6.189   5.955   1.229
  430TIP3   OH2 1295   5.712   3.159   0.038
  430TIP3    H1 1296   5.722   3.126  -0.051
  430TIP3    H2 1297   5.623   3.194   0.040
  431TIP3   OH2 1298   0.488   2.915   4.417
  431TIP3    H1 1299   0.414   2.972   4.397
  431TIP3    H2 1300   0.450   2.840   4.464
  432TIP3   OH2 1301   1.503   4.541   2.836
  432TIP3    H1 1302   1.571   4.560   2.900
  432TIP3    H2 1303   1.549   4.495   2.765
  433TIP3   OH2 1304   3.461   4.174   0.809
  433TIP3    H1 1305   3.382   4.202   0.762
  433TIP3    H2 1306   3.525   4.158   0.740
  434TIP3   OH2 1307   1.640   1.432   3.150
  434TIP3    H1 1308   1.576   1.411   3.219
  434TIP3    H2 1309   1.692   1.503   3.188
  435TIP3   OH2 1310   4.508   1.257   3.875
  435TIP3    H1 1311   4.588   1.205   3.871
  435TIP3    H2 1312   4.460   1.232   3.796
  436TIP3   OH2 1313   2.050   5.532   2.773
  436TIP3    H1 1314   2.128   5.575   2.806
  436TIP3    H2 1315   2.068   5.438   2.784
  437TIP3   OH2 1316   4.118   0.946   1.945
  437TIP3    H1 1317   4.132   1.037   1.918
  437TIP3    H2 1318   4.097   0.952   2.038
  438TIP3   OH2 1319   4.013   2.940   2.892
  438TIP3    H1 1320   4.106   2.958   2.880
  438TIP3    H2 1321   4.009   2.887   2.972
  439TIP3   OH2 1322   1.183   1.010   3.872
  439TIP3    H1 1323   1.230   1.094   3.871
  439TIP3    H2 1324   1.112   1.022   3.810
  440TIP3   OH2 1325   1.389   1.086   2.269
  440TIP3    H1 1326   1.329   1.012   2.258
  440TIP3    H2 1327   1.333   1.163   2.271
  441TIP3   OH2 1328   5.197   4.475   0.093
  441TIP3    H1 1329   5.111   4.490   0.052
  441TIP3    H2 1330   5.252   4.544   0.057
  442TIP3   OH2 1331   1.046   3.621   2.891
  442TIP3    H1 1332   1.000   3.660   2.817
  442TIP3    H2 1333   1.094   3.547   2.853
  443TIP3   OH2 1334   4.221   2.438   0.801
  443TIP3    H1 1335   4.189   2.369   0.743
  443TIP3    H2 1336   4.316   2.437   0.790
  444TIP3   OH2 1337   3.662   4.103   1.222
  444TIP3    H1 1338   3.674   4.119   1.128
  444TIP3    H2 1339   3.569   4.120   1.237
  445TIP3   OH2 1340   4.438   5.044   4.705
  445TIP3    H1 1341   4.488   5.120   4.674
  445TIP3    H2 1342   4.504   4.986   4.743
  446TIP3   OH2 1343   2.305   1.110   3.985
  446TIP3    H1 1344   2.373   1.139   4.045
  446TIP3    H2 1345   2.343   1.033   3.942
  447TIP3   OH2 1346   5.303   3.898   2.237
  447TIP3    H1 1347   5.350   3.825   2.278
  447TIP3    H2 1348   5.218   3.901   2.282
  448TIP3   OH2 1349   0.293   5.018   2.507
  448TIP3    H1 1350   0.335   5.092   2.551
  448TIP3    H2 1351   0.350   5.000   2.432
  449TIP3   OH2 1352   1.634   0.141   1.309
  449TIP3    H1 1353   1.541   0.153   1.327
  449TIP3    H2 1354   1.676   0.218   1.348
  450TIP3   OH2 1355   2.927   1.726   5.137
  450TIP3    H1 1356   2.855   1.674   5.101
  450TIP3    H2 1357   2.903   1.817   5.120
  451TIP3   OH2 1358   5.282   5.456   2.468
  451TIP3    H1 1359   5.305   5.400   2.542
  451TIP3    H2 1360   5.359   5.513   2.456
  452TIP3   OH2 1361   1.150   3.128   1.380
  452TIP3    H1 1362   1.226   3.119   1.323
  452TIP3    H2 1363   1.076   3.143   1.321
  453TIP3   OH2 1364   4.239   2.598   1.793
  453TIP3    H1 1365   4.228   2.596   1.888
  453TIP3    H2 1366   4.177   2.532   1.761
  454TIP3   OH2 1367   5.392   2.529   1.315
  454TIP3    H1 1368   5.443   2.558   1.391
  454TIP3    H2 1369   5.446   2.461   1.275
  455TIP3   OH2 1370   5.414   3.720   4.357
  455TIP3    H1 1371   5.438   3.803   4.399
  455TIP3    H2 1372   5.485   3.660   4.378
  456TIP3   OH2 1373   5.798   3.550   3.813
  456TIP3    H1 1374   5.773   3.467   3.853
  456TIP3    H2 1375   5.871   3.581   3.866
  457TIP3   OH2 1376   4.471   1.246   0.568
  457TIP3    H1 1377   4.456   1.265   0.475
  457TIP3    H2 1378   4.385   1.220   0.601
  458TIP3   OH2 1379   1.962   2.986   2.161
  458TIP3    H1 1380   1.895   2.987   2.093
  458TIP3    H2 1381   1.993   2.895   2.163
  459TIP3   OH2 1382   5.522   3.990   3.837
  459TIP3    H1 1383   5.577   4.014   3.762
  459TIP3    H2 1384   5.537   3.896   3.848
  460TIP3   OH2 1385   0.142   4.550   0.239
  460TIP3    H1 1386   0.190   4.496   0.176
  460TIP3    H2 1387   0.174   4.522   0.325
  461TIP3   OH2 1388   2.040   2.229   3.112
  461TIP3    H1 1389   2.096   2.260   3.184
  461TIP3    H2 1390   2.050   2.133   3.115
  462TIP3   OH2 1391   0.980   5.558   3.883
  462TIP3    H1 1392   0.891   5.586   3.864
  462TIP3    H2 1393   0.974   5.463   3.893
  463TIP3   OH2 1394   2.176   3.642   0.321
  463TIP3    H1 1395   2.211   3.681   0.400
  463TIP3    H2 1396   2.102   3.589   0.351
  464TIP3   OH2 1397   0.963   1.016   3.702
  464TIP3    H1 1398   0.909   1.087   3.736
  464TIP3    H2 1399   0.905   0.969   3.642
  465TIP3   OH2 1400   5.569   3.402   0.787
  465TIP3    H1 1401   5.576   3.498   0.794
  465TIP3    H2 1402   5.558   3.372   0.877
  466TIP3   OH2 1403   1.704   5.513   1.375
  466TIP3    H1 1404   1.700   5.501   1.469
  466TIP3    H2 1405   1.654   5.440   1.339
  467TIP3   OH2 1406   2.952   4.867   3.507
  467TIP3    H1 1407   3.045   4.862   3.531
  467TIP3    H2 1408   2.907   4.882   3.591
  468TIP3   OH2 1409   5.615   3.644   0.880
  468TIP3    H1 1410   5.558   3.713   0.914
  468TIP3    H2 1411   5.686   3.639   0.944
  469TIP3   OH2 1412   3.399   5.890   3.499
  469TIP3    H1 1413   3.376   5.983   3.497
  469TIP3    H2 1414   3.494   5.889   3.511
  470TIP3   OH2 1415   4.629   4.062   0.325
  470TIP3    H1 1416   4.570   4.136   0.340
  470TIP3    H2 1417   4.678   4.053   0.406
  471TIP3   OH2 1418   3.740   2.741   5.096
  471TIP3    H1 1419   3.663   2.738   5.154
  471TIP3    H2 1420   3.815   2.738   5.156
  472TIP3   OH2 1421   5.779   0.090   5.142
  472TIP3    H1 1422   5.821   0.076   5.057
  472TIP3    H2 1423   5.849   0.074   5.206
  473TIP3   OH2 1424   1.480   4.998   3.497
  473TIP3    H1 1425   1.484   4.979   3.403
  473TIP3    H2 1426   1.478   4.911   3.539
  474TIP3   OH2 1427   1.825   3.517   3.537
  474TIP3    H1 1428   1.851   3.424   3.536
  474TIP3    H2 1429   1.834   3.545   3.446
  475TIP3   OH2 1430   0.387   2.033   1.928
  475TIP3    H1 1431   0.389   2.061   1.836
  475TIP3    H2 1432   0.294   2.033   1.951
  476TIP3   OH2 1433   3.442   4.813   1.200
  476TIP3    H1 1434   3.478   4.822   1.288
  476TIP3    H2 1435   3.356   4.773   1.213
  477TIP3   OH2 1436   5.010   5.266   0.827
  477TIP3    H1 1437   5.080   5.303   0.880
  477TIP3    H2 1438   4.930   5.303   0.864
  478TIP3   OH2 1439   2.598   3.043   1.086
  478TIP3    H1 1440   2.553   2.988   1.150
  478TIP3    H2 1441   2.657   3.097   1.138
  479TIP3   OH2 1442   3.629   1.700   3.258
  479TIP3    H1 1443   3.543   1.740   3.254
  479TIP3    H2 1444   3.685   1.765   3.300
  480TIP3   OH2 1445   3.597   5.294   1.853
  480TIP3    H1 1446   3.554   5.378   1.871
  480TIP3    H2 1447   3.556   5.233   1.914
  481TIP3   OH2 1448   0.426   5.406   1.599
  481TIP3    H1 1449   0.343   5.435   1.561
  481TIP3    H2 1450   0.415   5.419   1.693
  482TIP3   OH2 1451   2.900   1.702   4.806
  482TIP3    H1 1452   2.974   1.757   4.830
  482TIP3    H2 1453   2.936   1.614   4.799
  483TIP3   OH2 1454   3.739   4.909   1.106
  483TIP3    H1 1455   3.721   4.816   1.097
  483TIP3    H2 1456   3.655   4.952   1.093
  484TIP3   OH2 1457   3.183   5.868   4.475
  484TIP3    H1 1458   3.174   5.963   4.465
  484TIP3    H2 1459   3.174   5.834   4.386
  485TIP3   OH2 1460   2.800   3.465   0.663
  485TIP3    H1 1461   2.819   3.541   0.608
  485TIP3    H2 1462   2.872   3.463   0.727
  486TIP3   OH2 1463   0.446   3.963   0.467
  486TIP3    H1 1464   0.450   4.026   0.539
  486TIP3    H2 1465   0.491   4.007   0.395
  487TIP3   OH2 1466   2.962   0.290   0.842
  487TIP3    H1 1467   2.991   0.240   0.918
  487TIP3    H2 1468   2.991   0.237   0.767
  488TIP3   OH2 1469   0.222   1.510   4.782
  488TIP3    H1 1470   0.256   1.555   4.859
  488TIP3    H2 1471   0.239   1.417   4.799
  489TIP3   OH2 1472   1.293   4.517   5.078
  489TIP3    H1 1473   1.301   4.476   4.992
  489TIP3    H2 1474   1.383   4.526   5.108
  490TIP3   OH2 1475   0.813   3.490   4.318
  490TIP3    H1 1476   0.743   3.524   4.374
  490TIP3    H2 1477   0.844   3.412   4.363
  491TIP3   OH2 1478   1.928   2.634   1.926
  491TIP3    H1 1479   1.845   2.594   1.956
  491TIP3    H2 1480   1.970   2.664   2.007
  492TIP3   OH2 1481   0.814   5.311   2.659
  492TIP3    H1 1482   0.734   5.281   2.702
  492TIP3    H2 1483   0.800   5.404   2.643
  493TIP3   OH2 1484   1.546   5.765   0.430
  493TIP3    H1 1485   1.565   5.783   0.338
  493TIP3    H2 1486   1.628   5.783   0.476
  494TIP3   OH2 1487   2.528   5.875   2.032
  494TIP3    H1 1488   2.533   5.815   2.106
  494TIP3    H2 1489   2.534   5.819   1.955
  495TIP3   OH2 1490   2.717   2.548   4.447
  495TIP3    H1 1491   2.780   2.503   4.391
  495TIP3    H2 1492   2.643   2.487   4.453
  496TIP3   OH2 1493   1.135   0.591   4.662
  496TIP3    H1 1494   1.190   0.555   4.592
  496TIP3    H2 1495   1.152   0.685   4.660
  497TIP3   OH2 1496   1.968   0.869   2.348
  497TIP3    H1 1497   1.942   0.934   2.413
  497TIP3    H2 1498   2.063   0.873   2.345
  498TIP3   OH2 1499   1.465   5.417   3.580
  498TIP3    H1 1500   1.416   5.483   3.530
  498TIP3    H2 1501   1.419   5.335   3.563
  499TIP3   OH2 1502   0.562   3.394   4.762
  499TIP3    H1 1503   0.604   3.415   4.678
  499TIP3    H2 1504   0.494   3.461   4.773
  500TIP3   OH2 1505   0.843   2.029   0.804
  500TIP3    H1 1506   0.927   2.020   0.848
  500TIP3    H2 1507   0.781   2.052   0.874
  501TIP3   OH2 1508   0.467   2.527   0.774
  501TIP3    H1 1509   0.478   2.620   0.757
  501TIP3    H2 1510   0.508   2.512   0.859
  502TIP3   OH2 1511   4.293   1.722   2.352
  502TIP3    H1 1512   4.338   1.638   2.337
  502TIP3    H2 1513   4.295   1.733   2.447
  503TIP3   OH2 1514   3.790   2.227   1.313
  503TIP3    H1 1515   3.730   2.206   1.240
  503TIP3    H2 1516   3.846   2.150   1.320
  504TIP3   OH2 1517   1.277   1.366   0.867
  504TIP3    H1 1518   1.316   1.426   0.804
  504TIP3    H2 1519   1.301   1.402   0.953
  505TIP3   OH2 1520   1.140   0.339   1.863
  505TIP3    H1 1521   1.171   0.409   1.921
  505TIP3    H2 1522   1.046   0.335   1.878
  506TIP3   OH2 1523   4.886   0.268   0.864
  506TIP3    H1 1524   4.816   0.265   0.928
  506TIP3    H2 1525   4.921   0.179   0.862
  507TIP3   OH2 1526   5.028   4.969   3.458
  507TIP3    H1 1527   5.086   4.893   3.448
  507TIP3    H2 1528   5.033   5.014   3.374
  508TIP3   OH2 1529   6.003   1.433   1.946
  508TIP3    H1 1530   5.990   1.453   1.853
  508TIP3    H2 1531   5.915   1.431   1.983
  509TIP3   OH2 1532   6.136   5.880   1.757
  509TIP3    H1 1533   6.047   5.915   1.762
  509TIP3    H2 1534   6.193   5.957   1.764
  510TIP3   OH2 1535   1.251   3.984   4.602
  510TIP3    H1 1536   1.232   4.075   4.582
  510TIP3    H2 1537   1.299   3.988   4.685
  511TIP3   OH2 1538   1.895   2.445   4.400
  511TIP3    H1 1539   1.839   2.396   4.459
  511TIP3    H2 1540   1.982   2.407   4.411
  512TIP3   OH2 1541   3.578   4.916   0.185
  512TIP3    H1 1542   3.486   4.889   0.192
  512TIP3    H2 1543   3.580   5.004   0.222
  513TIP3   OH2 1544   2.155   0.667   2.549
  513TIP3    H1 1545   2.145   0.593   2.489
  513TIP3    H2 1546   2.249   0.673   2.565
  514TIP3   OH2 1547   1.525   3.391   3.288
  514TIP3    H1 1548   1.438   3.373   3.324
  514TIP3    H2 1549   1.583   3.335   3.339
  515TIP3   OH2 1550   3.788   3.281   2.362
  515TIP3    H1 1551   3.849   3.302   2.432
  515TIP3    H2 1552   3.725   3.222   2.403
  516TIP3   OH2 1553   4.004   1.790   2.584
  516TIP3    H1 1554   3.969   1.873   2.551
  516TIP3    H2 1555   3.939   1.760   2.647
  517TIP3   OH2 1556   0.508   5.775   0.869
  517TIP3    H1 1557   0.601   5.768   0.890
  517TIP3    H2 1558   0.466   5.795   0.953
  518TIP3   OH2 1559   5.099   4.949   4.359
  518TIP3    H1 1560   5.122   4.954   4.267
  518TIP3    H2 1561   5.071   5.038   4.382
  519TIP3   OH2 1562   0.182   4.498   5.167
  519TIP3    H1 1563   0.102   4.496   5.220
  519TIP3    H2 1564   0.160   4.450   5.088
  520TIP3   OH2 1565   1.113   4.396   1.107
  520TIP3    H1 1566   1.063   4.366   1.032
  520TIP3    H2 1567   1.117   4.491   1.097
  521TIP3   OH2 1568   1.483   3.360   1.268
  521TIP3    H1 1569   1.559   3.346   1.212
  521TIP3    H2 1570   1.411   3.376   1.208
  522TIP3   OH2 1571   4.509   5.313   5.115
  522TIP3    H1 1572   4.444   5.375   5.148
  522TIP3    H2 1573   4.581   5.319   5.177
  523TIP3   OH2 1574   1.978   1.467   3.781
  523TIP3    H1 1575   2.050   1.456   3.843
  523TIP3    H2 1576   1.980   1.387   3.728
  524TIP3   OH2 1577   5.314   2.988   1.470
  524TIP3    H1 1578   5.264   2.907   1.478
  524TIP3    H2 1579   5.400   2.968   1.508
  525TIP3   OH2 1580   1.681   4.610   4.541
  525TIP3    H1 1581   1.653   4.607   4.632
  525TIP3    H2 1582   1.618   4.669   4.498
  526TIP3   OH2 1583   4.242   2.810   3.916
  526TIP3    H1 1584   4.240   2.792   3.821
  526TIP3    H2 1585   4.195   2.736   3.955
  527TIP3   OH2 1586   4.900   2.401   3.127
  527TIP3    H1 1587   4.899   2.450   3.044
  527TIP3    H2 1588   4.914   2.468   3.194
  528TIP3   OH2 1589   1.327   0.416   1.630
  528TIP3    H1 1590   1.289   0.460   1.554
  528TIP3    H2 1591   1.421   0.435   1.624
  529TIP3   OH2 1592   5.604   1.868   1.434
  529TIP3    H1 1593   5.537   1.903   1.375
  529TIP3    H2 1594   5.597   1.773   1.426
  530TIP3   OH2 1595   1.562   3.643   4.356
  530TIP3    H1 1596   1.483   3.628   4.409
  530TIP3    H2 1597   1.632   3.600   4.405
  531TIP3   OH2 1598   5.513   2.854   4.055
  531TIP3    H1 1599   5.525   2.781   3.995
  531TIP3    H2 1600   5.601   2.889   4.067
  532TIP3   OH2 1601   6.187   0.513   1.508
  532TIP3    H1 1602   6.178   0.489   1.600
  532TIP3    H2 1603   6.120   0.463   1.462
  533TIP3   OH2 1604   2.977   2.637   1.486
  533TIP3    H1 1605   3.004   2.581   1.413
  533TIP3    H2 1606   3.051   2.636   1.546
  534TIP3   OH2 1607   2.619   0.265   3.869
  534TIP3    H1 1608   2.693   0.208   3.892
  534TIP3    H2 1609   2.630   0.282   3.776
  535TIP3   OH2 1610   3.005   4.310   4.577
  535TIP3    H1 1611   2.991   4.219   4.549
  535TIP3    H2 1612   3.098   4.314   4.599
  536TIP3   OH2 1613   2.981   5.313   0.338
  536TIP3    H1 1614   3.003   5.237   0.284
  536TIP3    H2 1615   2.888   5.302   0.358
  537TIP3   OH2 1616   5.492   5.263   1.642
  537TIP3    H1 1617   5.411   5.216   1.626
  537TIP3    H2 1618   5.464   5.353   1.661
  538TIP3   OH2 1619   5.080   5.417   1.280
  538TIP3    H1 1620   5.019   5.462   1.221
  538TIP3    H2 1621   5.107   5.339   1.231
  539TIP3   OH2 1622   5.613   3.579   4.484
  539TIP3    H1 1623   5.677   3.543   4.423
  539TIP3    H2 1624   5.559   3.504   4.509
  540TIP3   OH2 1625   5.402   5.896   2.112
  540TIP3    H1 1626   5.428   5.963   2.175
  540TIP3    H2 1627   5.316   5.923   2.081
  541TIP3   OH2 1628   3.002   5.547   2.675
  541TIP3    H1 1629   2.965   5.580   2.757
  541TIP3    H2 1630   3.028   5.458   2.695
  542TIP3   OH2 1631   2.576   2.073   1.023
  542TIP3    H1 1632   2.628   2.006   1.067
  542TIP3    H2 1633   2.496   2.080   1.074
  543TIP3   OH2 1634   3.389   0.372   4.009
  543TIP3    H1 1635   3.476   0.360   3.970
  543TIP3    H2 1636   3.404   0.364   4.103
  544TIP3   OH2 1637   0.024   1.171  -0.005
  544TIP3    H1 1638   0.098   1.160   0.054
  544TIP3    H2 1639  -0.052   1.143   0.047
  545TIP3   OH2 1640   6.313   5.519   0.119
  545TIP3    H1 1641   6.299   5.608   0.149
  545TIP3    H2 1642   6.259   5.465   0.177
  546TIP3   OH2 1643   5.882   3.954   2.720
  546TIP3    H1 1644   5.949   3.886   2.729
  546TIP3    H2 1645   5.849   3.966   2.809
  547TIP3   OH2 1646   3.901   0.871   1.328
  547TIP3    H1 1647   3.865   0.848   1.242
  547TIP3    H2 1648   3.878   0.797   1.383
  548TIP3   OH2 1649   5.241   1.873   0.425
  548TIP3    H1 1650   5.185   1.951   0.426
  548TIP3    H2 1651   5.181   1.800   0.429
  549TIP3   OH2 1652   5.915   2.810   0.747
  549TIP3    H1 1653   5.940   2.817   0.839
  549TIP3    H2 1654   5.968   2.877   0.703
  550TIP3   OH2 1655   1.548   2.249   2.780
  550TIP3    H1 1656   1.551   2.219   2.871
  550TIP3    H2 1657   1.458   2.281   2.769
  551TIP3   OH2 1658   1.383   1.326   0.151
  551TIP3    H1 1659   1.398   1.237   0.118
  551TIP3    H2 1660   1.444   1.334   0.225
  552TIP3   OH2 1661   1.896   5.227   4.615
  552TIP3    H1 1662   1.883   5.308   4.664
  552TIP3    H2 1663   1.921   5.255   4.527
  553TIP3   OH2 1664   0.057   2.674  -0.023
  553TIP3    H1 1665   0.008   2.643   0.053
  553TIP3    H2 1666   0.047   2.769  -0.022
  554TIP3   OH2 1667   0.814   1.234   2.348
  554TIP3    H1 1668   0.906   1.208   2.360
  554TIP3    H2 1669   0.817   1.330   2.346
  555TIP3   OH2 1670   2.694   5.113   1.409
  555TIP3    H1 1671   2.686   5.139   1.501
  555TIP3    H2 1672   2.645   5.181   1.361
  556TIP3   OH2 1673   0.245   4.063   4.141
  556TIP3    H1 1674   0.187   4.139   4.147
  556TIP3    H2 1675   0.276   4.064   4.050
  557TIP3   OH2 1676   5.702   0.969   0.651
  557TIP3    H1 1677   5.796   0.982   0.656
  557TIP3    H2 1678   5.670   1.040   0.596
  558TIP3   OH2 1679   3.000   3.004   2.761
  558TIP3    H1 1680   2.965   3.081   2.715
  558TIP3    H2 1681   2.953   2.930   2.723
  559TIP3   OH2 1682   5.577   3.728   3.878
  559TIP3    H1 1683   5.566   3.720   3.973
  559TIP3    H2 1684   5.658   3.681   3.859
  560TIP3   OH2 1685   1.890   0.637   3.721
  560TIP3    H1 1686   1.958   0.585   3.677
  560TIP3    H2 1687   1.902   0.725   3.685
  561TIP3   OH2 1688   5.949   1.737   3.041
  561TIP3    H1 1689   6.014   1.805   3.060
  561TIP3    H2 1690   5.884   1.745   3.112
  562TIP3   OH2 1691   0.863   1.844   2.211
  562TIP3    H1 1692   0.910   1.809   2.287
  562TIP3    H2 1693   0.849   1.936   2.232
  563TIP3   OH2 1694   6.268   2.304   1.244
  563TIP3    H1 1695   6.291   2.215   1.268
  563TIP3    H2 1696   6.315   2.321   1.163
  564TIP3   OH2 1697   2.039   0.974   1.808
  564TIP3    H1 1698   2.050   0.963   1.902
  564TIP3    H2 1699   1.998   0.893   1.778
  565TIP3   OH2 1700   0.560   1.470   0.267
  565TIP3    H1 1701   0.648   1.507   0.256
  565TIP3    H2 1702   0.561   1.433   0.355
  566TIP3   OH2 1703   3.566   1.910   0.739
  566TIP3    H1 1704   3.649   1.866   0.720
  566TIP3    H2 1705   3.523   1.855   0.805
  567TIP3   OH2 1706   1.814   0.615   2.357
  567TIP3    H1 1707   1.878   0.686   2.355
  567TIP3    H2 1708   1.772   0.622   2.442
  568TIP3   OH2 1709   1.714   3.480   3.094
  568TIP3    H1 1710   1.681   3.518   3.012
  568TIP3    H2 1711   1.636   3.458   3.144
  569TIP3   OH2 1712   5.068   0.029   0.448
  569TIP3    H1 1713   5.144   0.012   0.392
  569TIP3    H2 1714   5.092  -0.007   0.533
  570TIP3   OH2 1715   1.939   0.071   4.766
  570TIP3    H1 1716   1.972   0.112   4.686
  570TIP3    H2 1717   1.938  -0.023   4.747
  571TIP3   OH2 1718   5.039   1.479   5.065
  571TIP3    H1 1719   5.104   1.447   5.003
  571TIP3    H2 1720   4.982   1.536   5.013
  572TIP3   OH2 1721   4.988   5.001   0.841
  572TIP3    H1 1722   5.028   4.954   0.914
  572TIP3    H2 1723   5.000   5.094   0.863
  573TIP3   OH2 1724   0.594   3.749   0.528
  573TIP3    H1 1725   0.670   3.796   0.495
  573TIP3    H2 1726   0.525   3.815   0.533
  574TIP3   OH2 1727   0.419   0.653   4.401
  574TIP3    H1 1728   0.503   0.679   4.362
  574TIP3    H2 1729   0.400   0.723   4.464
  575TIP3   OH2 1730   5.242   2.605   2.194
  575TIP3    H1 1731   5.275   2.558   2.118
  575TIP3    H2 1732   5.320   2.637   2.239
  576TIP3   OH2 1733   0.440   2.984   3.047
  576TIP3    H1 1734   0.505   2.914   3.034
  576TIP3    H2 1735   0.482   3.044   3.108
  577TIP3   OH2 1736   4.643   4.698   4.890
  577TIP3    H1 1737   4.646   4.625   4.828
  577TIP3    H2 1738   4.581   4.670   4.958
  578TIP3   OH2 1739   4.287   2.784   0.349
  578TIP3    H1 1740   4.290   2.756   0.441
  578TIP3    H2 1741   4.378   2.780   0.320
  579TIP3   OH2 1742   1.048   2.333   0.595
  579TIP3    H1 1743   1.086   2.307   0.679
  579TIP3    H2 1744   0.968   2.280   0.587
  580TIP3   OH2 1745   1.047   4.906   3.777
  580TIP3    H1 1746   1.053   4.811   3.780
  580TIP3    H2 1747   0.954   4.924   3.760
  581TIP3   OH2 1748   3.950   4.749   5.138
  581TIP3    H1 1749   3.926   4.738   5.231
  581TIP3    H2 1750   4.024   4.690   5.125
  582TIP3   OH2 1751   4.122   2.680   2.487
  582TIP3    H1 1752   4.097   2.627   2.411
  582TIP3    H2 1753   4.203   2.723   2.461
  583TIP3   OH2 1754   0.001   0.916   0.174
  583TIP3    H1 1755   0.072   0.872   0.127
  583TIP3    H2 1756  -0.057   0.949   0.104
  584TIP3   OH2 1757   1.510   0.831   0.088
  584TIP3    H1 1758   1.579   0.824   0.021
  584TIP3    H2 1759   1.487   0.740   0.107
  585TIP3   OH2 1760   5.054   3.825   0.136
  585TIP3    H1 1761   5.136   3.866   0.164
  585TIP3    H2 1762   4.993   3.899   0.125
  586TIP3   OH2 1763   3.112   0.587   1.974
  586TIP3    H1 1764   3.184   0.590   2.036
  586TIP3    H2 1765   3.136   0.651   1.906
  587TIP3   OH2 1766   3.214   3.027   1.188
  587TIP3    H1 1767   3.308   3.013   1.176
  587TIP3    H2 1768   3.205   3.121   1.203
  588TIP3   OH2 1769   3.988   3.388   1.227
  588TIP3    H1 1770   4.029   3.333   1.293
  588TIP3    H2 1771   4.016   3.477   1.248
  589TIP3   OH2 1772   6.036   5.967   3.439
  589TIP3    H1 1773   6.125   5.935   3.454
  589TIP3    H2 1774   5.996   5.900   3.384
  590TIP3   OH2 1775   5.344   0.355   4.925
  590TIP3    H1 1776   5.338   0.345   5.020
  590TIP3    H2 1777   5.261   0.394   4.900
  591TIP3   OH2 1778   3.018   3.840   1.845
  591TIP3    H1 1779   2.999   3.881   1.929
  591TIP3    H2 1780   3.023   3.913   1.783
  592TIP3   OH2 1781   4.485   2.176   1.700
  592TIP3    H1 1782   4.548   2.144   1.635
  592TIP3    H2 1783   4.409   2.202   1.649
  593TIP3   OH2 1784   0.719   0.163   5.074
  593TIP3    H1 1785   0.761   0.156   5.159
  593TIP3    H2 1786   0.790   0.150   5.011
  594TIP3   OH2 1787   2.307   1.520   5.128
  594TIP3    H1 1788   2.332   1.612   5.129
  594TIP3    H2 1789   2.390   1.473   5.122
  595TIP3   OH2 1790   0.743   3.150   2.152
  595TIP3    H1 1791   0.739   3.116   2.241
  595TIP3    H2 1792   0.734   3.072   2.096
  596TIP3   OH2 1793   2.314   5.430   1.006
  596TIP3    H1 1794   2.405   5.401   1.005
  596TIP3    H2 1795   2.285   5.419   1.097
  597TIP3   OH2 1796   5.625   2.542   0.155
  597TIP3    H1 1797   5.555   2.508   0.211
  597TIP3    H2 1798   5.705   2.504   0.190
  598TIP3   OH2 1799   1.975   4.262   1.352
  598TIP3    H1 1800   1.887   4.276   1.318
  598TIP3    H2 1801   1.977   4.309   1.435
  599TIP3   OH2 1802   3.619   1.744   4.937
  599TIP3    H1 1803   3.714   1.745   4.921
  599TIP3    H2 1804   3.610   1.706   5.024
  600TIP3   OH2 1805   2.642   3.775   3.424
  600TIP3    H1 1806   2.580   3.708   3.397
  600TIP3    H2 1807   2.611   3.803   3.511
  601TIP3   OH2 1808   5.452   3.600   3.643
  601TIP3    H1 1809   5.496   3.519   3.669
  601TIP3    H2 1810   5.474   3.663   3.711
  602TIP3   OH2 1811   3.889   1.523   2.918
  602TIP3    H1 1812   3.877   1.594   2.856
  602TIP3    H2 1813   3.944   1.459   2.872
  603TIP3   OH2 1814   0.593   0.092   3.838
  603TIP3    H1 1815   0.626   0.096   3.748
  603TIP3    H2 1816   0.572  -0.001   3.851
  604TIP3   OH2 1817   6.240   0.842   1.153
  604TIP3    H1 1818   6.288   0.786   1.215
  604TIP3    H2 1819   6.246   0.930   1.190
  605TIP3   OH2 1820   3.672   1.096   1.442
  605TIP3    H1 1821   3.626   1.094   1.526
  605TIP3    H2 1822   3.694   1.188   1.429
  606TIP3   OH2 1823   5.427   2.313   4.220
  606TIP3    H1 1824   5.469   2.227   4.220
  606TIP3    H2 1825   5.464   2.358   4.295
  607TIP3   OH2 1826   5.917   2.783   0.077
  607TIP3    H1 1827   5.870   2.852   0.124
  607TIP3    H2 1828   5.993   2.764   0.133
  608TIP3   OH2 1829   3.166   3.290   2.137
  608TIP3    H1 1830   3.214   3.266   2.058
  608TIP3    H2 1831   3.228   3.341   2.188
  609TIP3   OH2 1832   6.312   1.550   4.085
  609TIP3    H1 1833   6.367   1.537   4.008
  609TIP3    H2 1834   6.271   1.465   4.100
  610TIP3   OH2 1835   0.174   4.292   3.716
  610TIP3    H1 1836   0.157   4.336   3.632
  610TIP3    H2 1837   0.098   4.236   3.729
  611TIP3   OH2 1838   3.418   0.545   0.971
  611TIP3    H1 1839   3.447   0.454   0.980
  611TIP3    H2 1840   3.434   0.584   1.057
  612TIP3   OH2 1841   0.659   2.305   3.105
  612TIP3    H1 1842   0.649   2.329   3.013
  612TIP3    H2 1843   0.753   2.297   3.118
  613TIP3   OH2 1844   3.785   3.219   0.827
  613TIP3    H1 1845   3.860   3.230   0.887
  613TIP3    H2 1846   3.729   3.155   0.870
  614TIP3   OH2 1847   1.060   4.709   4.121
  614TIP3    H1 1848   0.999   4.726   4.049
  614TIP3    H2 1849   1.092   4.795   4.145
  615TIP3   OH2 1850   1.452   2.202   1.149
  615TIP3    H1 1851   1.361   2.173   1.143
  615TIP3    H2 1852   1.467   2.250   1.067
  616TIP3   OH2 1853   5.399   0.497   2.612
  616TIP3    H1 1854   5.413   0.512   2.706
  616TIP3    H2 1855   5.364   0.579   2.579
  617TIP3   OH2 1856   0.607   2.597   4.758
  617TIP3    H1 1857   0.582   2.505   4.751
  617TIP3    H2 1858   0.525   2.645   4.760
  618TIP3   OH2 1859   2.365   1.364   2.263
  618TIP3    H1 1860   2.319   1.286   2.232
  618TIP3    H2 1861   2.387   1.412   2.183
  619TIP3   OH2 1862   2.843   5.444   3.185
  619TIP3    H1 1863   2.875   5.454   3.275
  619TIP3    H2 1864   2.881   5.361   3.156
  620TIP3   OH2 1865   1.541   5.719   2.635
  620TIP3    H1 1866   1.455   5.758   2.647
  620TIP3    H2 1867   1.575   5.709   2.725
  621TIP3   OH2 1868   2.138   3.331   5.056
  621TIP3    H1 1869   2.122   3.237   5.069
  621TIP3    H2 1870   2.063   3.374   5.097
  622TIP3   OH2 1871   3.925   4.435   1.780
  622TIP3    H1 1872   3.899   4.418   1.689
  622TIP3    H2 1873   3.947   4.528   1.781
  623TIP3   OH2 1874   2.128   2.104   1.608
  623TIP3    H1 1875   2.094   2.162   1.676
  623TIP3    H2 1876   2.195   2.051   1.652
  624TIP3   OH2 1877   5.747   1.985   4.888
  624TIP3    H1 1878   5.720   2.041   4.814
  624TIP3    H2 1879   5.768   1.901   4.848
  625TIP3   OH2 1880   5.575   2.820   2.703
  625TIP3    H1 1881   5.560   2.805   2.796
  625TIP3    H2 1882   5.666   2.852   2.698
  626TIP3   OH2 1883   1.197   4.943   4.228
  626TIP3    H1 1884   1.162   5.032   4.223
  626TIP3    H2 1885   1.224   4.933   4.319
  627TIP3   OH2 1886   4.243   5.344   2.070
  627TIP3    H1 1887   4.254   5.427   2.117
  627TIP3    H2 1888   4.148   5.335   2.058
  628TIP3   OH2 1889   3.147   1.397   4.162
  628TIP3    H1 1890   3.213   1.450   4.117
  628TIP3    H2 1891   3.197   1.330   4.207
  629TIP3   OH2 1892   6.175   0.677   0.558
  629TIP3    H1 1893   6.233   0.741   0.599
  629TIP3    H2 1894   6.091   0.721   0.552
  630TIP3   OH2 1895   2.733   3.270   1.224
  630TIP3    H1 1896   2.699   3.292   1.311
  630TIP3    H2 1897   2.815   3.224   1.242
  631TIP3   OH2 1898   2.567   4.801   1.449
  631TIP3    H1 1899   2.603   4.713   1.458
  631TIP3    H2 1900   2.619   4.854   1.510
  632TIP3   OH2 1901   6.160   2.107   1.774
  632TIP3    H1 1902   6.065   2.115   1.776
  632TIP3    H2 1903   6.191   2.168   1.841
  633TIP3   OH2 1904   1.245   4.111   0.361
  633TIP3    H1 1905   1.283   4.087   0.445
  633TIP3    H2 1906   1.317   4.103   0.299
  634TIP3   OH2 1907   4.691   3.212   1.308
  634TIP3    H1 1908   4.671   3.305   1.301
  634TIP3    H2 1909   4.753   3.206   1.381
  635TIP3   OH2 1910   0.504   3.194   3.234
  635TIP3    H1 1911   0.432   3.215   3.175
  635TIP3    H2 1912   0.462   3.153   3.310
  636TIP3   OH2 1913   2.215   1.035   0.574
  636TIP3    H1 1914   2.164   0.959   0.601
  636TIP3    H2 1915   2.202   1.099   0.645
  637TIP3   OH2 1916   6.216   1.047   3.929
  637TIP3    H1 1917   6.141   1.061   3.872
  637TIP3    H2 1918   6.291   1.046   3.870
  638TIP3   OH2 1919   5.859   5.191   1.437
  638TIP3    H1 1920   5.894   5.170   1.350
  638TIP3    H2 1921   5.790   5.255   1.420
  639TIP3   OH2 1922   1.443   6.000   1.045
  639TIP3    H1 1923   1.443   5.956   0.960
  639TIP3    H2 1924   1.381   5.949   1.098
  640TIP3   OH2 1925   4.607   0.161   2.081
  640TIP3    H1 1926   4.635   0.181   2.171
  640TIP3    H2 1927   4.637   0.071   2.067
  641TIP3   OH2 1928   1.139   2.524   1.279
  641TIP3    H1 1929   1.181   2.607   1.255
  641TIP3    H2 1930   1.047   2.546   1.293
  642TIP3   OH2 1931   3.132   5.822   4.987
  642TIP3    H1 1932   3.138   5.901   4.931
  642TIP3    H2 1933   3.216   5.779   4.977
  643TIP3   OH2 1934   3.866   5.099   5.193
  643TIP3    H1 1935   3.820   5.061   5.118
  643TIP3    H2 1936   3.932   5.157   5.154
  644TIP3   OH2 1937   0.119   2.907   3.967
  644TIP3    H1 1938   0.107   2.946   4.053
  644TIP3    H2 1939   0.179   2.834   3.982
  645TIP3   OH2 1940   3.699   1.778   3.729
  645TIP3    H1 1941   3.609   1.777   3.761
  645TIP3    H2 1942   3.723   1.686   3.720
  646TIP3   OH2 1943   3.341   3.101   4.361
  646TIP3    H1 1944   3.406   3.103   4.431
  646TIP3    H2 1945   3.382   3.150   4.289
  647TIP3   OH2 1946   5.282   0.918   4.574
  647TIP3    H1 1947   5.255   0.877   4.491
  647TIP3    H2 1948   5.259   1.010   4.564
  648TIP3   OH2 1949   6.136   0.966   3.251
  648TIP3    H1 1950   6.177   1.049   3.226
  648TIP3    H2 1951   6.060   0.958   3.193
  649TIP3   OH2 1952   3.581   1.729   4.245
  649TIP3    H1 1953   3.594   1.746   4.338
  649TIP3    H2 1954   3.499   1.680   4.240
  650TIP3   OH2 1955   1.995   1.007   2.586
  650TIP3    H1 1956   1.950   1.065   2.648
  650TIP3    H2 1957   1.959   0.920   2.605
  651TIP3   OH2 1958   4.595   5.357   4.088
  651TIP3    H1 1959   4.583   5.278   4.036
  651TIP3    H2 1960   4.586   5.429   4.026
  652TIP3   OH2 1961   1.536   2.248   5.106
  652TIP3    H1 1962   1.446   2.281   5.106
  652TIP3    H2 1963   1.575   2.285   5.185
  653TIP3   OH2 1964   3.166   4.901   3.791
  653TIP3    H1 1965   3.107   4.850   3.847
  653TIP3    H2 1966   3.211   4.836   3.738
  654TIP3   OH2 1967   6.183   5.847   0.680
  654TIP3    H1 1968   6.267   5.815   0.713
  654TIP3    H2 1969   6.170   5.799   0.598
  655TIP3   OH2 1970   1.180   2.309   1.883
  655TIP3    H1 1971   1.101   2.334   1.835
  655TIP3    H2 1972   1.247   2.371   1.853
  656TIP3   OH2 1973   3.743   1.388   1.360
  656TIP3    H1 1974   3.746   1.480   1.384
  656TIP3    H2 1975   3.805   1.379   1.288
  657TIP3   OH2 1976   0.884   1.040   0.637
  657TIP3    H1 1977   0.965   1.077   0.602
  657TIP3    H2 1978   0.905   0.949   0.656
  658TIP3   OH2 1979   2.243   3.185   0.236
  658TIP3    H1 1980   2.299   3.230   0.172
  658TIP3    H2 1981   2.158   3.227   0.226
  659TIP3   OH2 1982   1.049   3.256   2.420
  659TIP3    H1 1983   0.963   3.277   2.455
  659TIP3    H2 1984   1.083   3.340   2.389
  660TIP3   OH2 1985   1.776   5.395   3.069
  660TIP3    H1 1986   1.723   5.315   3.075
  660TIP3    H2 1987   1.762   5.439   3.153
  661TIP3   OH2 1988   3.695   3.314   4.791
  661TIP3    H1 1989   3.771   3.339   4.737
  661TIP3    H2 1990   3.711   3.223   4.814
  662TIP3   OH2 1991   0.424   4.167   0.660
  662TIP3    H1 1992   0.495   4.156   0.723
  662TIP3    H2 1993   0.442   4.251   0.619
  663TIP3   OH2 1994   5.549   1.243   2.525
  663TIP3    H1 1995   5.558   1.325   2.478
  663TIP3    H2 1996   5.616   1.247   2.593
  664TIP3   OH2 1997   1.294   5.441   4.142
  664TIP3    H1 1998   1.335   5.445   4.056
  664TIP3    H2 1999   1.256   5.353   4.146
  665TIP3   OH2 2000   5.761   5.106   2.048
  665TIP3    H1 2001   5.689   5.124   2.109
  665TIP3    H2 2002   5.717   5.084   1.966
  666TIP3   OH2 2003   6.128   3.113   4.620
  666TIP3    H1 2004   6.153   3.132   4.529
  666TIP3    H2 2005   6.044   3.068   4.612
  667TIP3   OH2 2006   1.628   1.647   1.535
  667TIP3    H1 2007   1.701   1.693   1.494
  667TIP3    H2 2008   1.557   1.712   1.536
  668TIP3   OH2 2009   5.414   0.535   4.212
  668TIP3    H1 2010   5.364   0.496   4.141
  668TIP3    H2 2011   5.356   0.601   4.250
  669TIP3   OH2 2012   1.194   3.148   0.703
  669TIP3    H1 2013   1.218   3.059   0.678
  669TIP3    H2 2014   1.265   3.203   0.670
  670TIP3   OH2 2015   5.080   2.352   4.286
  670TIP3    H1 2016   5.067   2.303   4.205
  670TIP3    H2 2017   5.097   2.441   4.258
  671TIP3   OH2 2018   2.959   1.105   3.259
  671TIP3    H1 2019   2.946   1.120   3.165
  671TIP3    H2 2020   2.880   1.059   3.287
  672TIP3   OH2 2021   2.290   4.025   0.621
  672TIP3    H1 2022   2.219   3.986   0.672
  672TIP3    H2 2023   2.369   3.980   0.651
  673TIP3   OH2 2024   0.106   2.577   1.904
  673TIP3    H1 2025   0.145   2.655   1.864
  673TIP3    H2 2026   0.147   2.504   1.859
  674TIP3   OH2 2027   0.495   2.231   0.180
  674TIP3    H1 2028   0.497   2.259   0.089
  674TIP3    H2 2029   0.459   2.142   0.177
  675TIP3   OH2 2030   5.544   0.030   4.342
  675TIP3    H1 2031   5.461   0.057   4.304
  675TIP3    H2 2032   5.546  -0.065   4.332
  676TIP3   OH2 2033   3.057   3.108   0.043
  676TIP3    H1 2034   3.111   3.187   0.039
  676TIP3    H2 2035   3.041   3.093   0.136
  677TIP3   OH2 2036   2.291   2.131   3.944
  677TIP3    H1 2037   2.330   2.079   3.873
  677TIP3    H2 2038   2.275   2.068   4.014
  678TIP3   OH2 2039   4.778   1.789   1.357
  678TIP3    H1 2040   4.867   1.816   1.379
  678TIP3    H2 2041   4.770   1.701   1.393
  679TIP3   OH2 2042   1.284   4.357   4.857
  679TIP3    H1 2043   1.225   4.286   4.885
  679TIP3    H2 2044   1.236   4.400   4.785
  680TIP3   OH2 2045   3.505   1.426   3.030
  680TIP3    H1 2046   3.590   1.468   3.022
  680TIP3    H2 2047   3.510   1.349   2.973
  681TIP3   OH2 2048   1.357   1.222   3.006
  681TIP3    H1 2049   1.345   1.305   3.052
  681TIP3    H2 2050   1.321   1.238   2.919
  682TIP3   OH2 2051   2.343   0.682   1.496
  682TIP3    H1 2052   2.258   0.726   1.494
  682TIP3    H2 2053   2.398   0.733   1.436
  683TIP3   OH2 2054   0.201   3.417   5.168
  683TIP3    H1 2055   0.232   3.328   5.150
  683TIP3    H2 2056   0.278   3.472   5.155
  684TIP3   OH2 2057  -0.016   1.633   2.546
  684TIP3    H1 2058   0.056   1.575   2.519
  684TIP3    H2 2059   0.017   1.675   2.625
  685TIP3   OH2 2060   2.318   0.568   1.749
  685TIP3    H1 2061   2.293   0.639   1.807
  685TIP3    H2 2062   2.343   0.611   1.667
  686TIP3   OH2 2063   2.366   4.675   4.619
  686TIP3    H1 2064   2.308   4.749   4.640
  686TIP3    H2 2065   2.342   4.607   4.682
  687TIP3   OH2 2066   5.566   5.338   4.181
  687TIP3    H1 2067   5.656   5.365   4.199
  687TIP3    H2 2068   5.572   5.288   4.100
  688TIP3   OH2 2069   5.073   4.116   0.478
  688TIP3    H1 2070   5.008   4.070   0.531
  688TIP3    H2 2071   5.089   4.198   0.526
  689TIP3   OH2 2072   1.555   1.219   2.615
  689TIP3    H1 2073   1.568   1.171   2.696
  689TIP3    H2 2074   1.523   1.154   2.553
  690TIP3   OH2 2075   4.140   4.017   1.420
  690TIP3    H1 2076   4.113   3.928   1.443
  690TIP3    H2 2077   4.235   4.018   1.437
  691TIP3   OH2 2078   4.489   1.038   2.325
  691TIP3    H1 2079   4.568   1.068   2.370
  691TIP3    H2 2080   4.487   0.943   2.341
  692TIP3   OH2 2081   0.184   4.448   3.489
  692TIP3    H1 2082   0.210   4.533   3.454
  692TIP3    H2 2083   0.264   4.395   3.483
  693TIP3   OH2 2084   1.763   1.497   1.064
  693TIP3    H1 2085   1.830   1.433   1.039
  693TIP3    H2 2086   1.811   1.580   1.071
  694TIP3   OH2 2087   4.892   5.678   4.756
  694TIP3    H1 2088   4.812   5.670   4.704
  694TIP3    H2 2089   4.870   5.637   4.840
  695TIP3   OH2 2090   1.237   0.113   4.103
  695TIP3    H1 2091   1.219   0.160   4.021
  695TIP3    H2 2092   1.244   0.021   4.077
  696TIP3   OH2 2093   3.440   5.574   0.082
  696TIP3    H1 2094   3.368   5.520   0.112
  696TIP3    H2 2095   3.402   5.661   0.070
  697TIP3   OH2 2096   1.037   3.313   0.404
  697TIP3    H1 2097   0.982   3.364   0.345
  697TIP3    H2 2098   1.051   3.230   0.359
  698TIP3   OH2 2099   3.584   5.604   2.712
  698TIP3    H1 2100   3.626   5.643   2.789
  698TIP3    H2 2101   3.574   5.676   2.650
  699TIP3   OH2 2102   5.110   1.407   4.715
  699TIP3    H1 2103   5.149   1.358   4.788
  699TIP3    H2 2104   5.017   1.386   4.719
  700TIP3   OH2 2105   3.346   5.929   0.670
  700TIP3    H1 2106   3.338   5.960   0.580
  700TIP3    H2 2107   3.435   5.951   0.696
  701TIP3   OH2 2108   6.333   1.836   3.952
  701TIP3    H1 2109   6.260   1.776   3.968
  701TIP3    H2 2110   6.351   1.876   4.037
  702TIP3   OH2 2111   1.001   0.735   4.251
  702TIP3    H1 2112   1.046   0.802   4.302
  702TIP3    H2 2113   1.003   0.657   4.306
  703TIP3   OH2 2114   5.786   3.807   3.469
  703TIP3    H1 2115   5.840   3.812   3.391
  703TIP3    H2 2116   5.786   3.714   3.493
  704TIP3   OH2 2117   3.742   0.622   3.932
  704TIP3    H1 2118   3.830   0.591   3.911
  704TIP3    H2 2119   3.709   0.558   3.996
  705TIP3   OH2 2120   4.354   5.337   1.812
  705TIP3    H1 2121   4.412   5.276   1.858
  705TIP3    H2 2122   4.288   5.362   1.877
  706TIP3   OH2 2123   1.302   5.554   3.421
  706TIP3    H1 2124   1.307   5.649   3.427
  706TIP3    H2 2125   1.317   5.536   3.328
  707TIP3   OH2 2126   5.356   3.462   0.594
  707TIP3    H1 2127   5.340   3.553   0.569
  707TIP3    H2 2128   5.284   3.441   0.654
  708TIP3   OH2 2129   5.064   1.409   1.716
  708TIP3    H1 2130   4.971   1.431   1.726
  708TIP3    H2 2131   5.095   1.466   1.646
  709TIP3   OH2 2132   4.566   5.021   0.316
  709TIP3    H1 2133   4.625   4.966   0.265
  709TIP3    H2 2134   4.545   5.094   0.259
  710TIP3   OH2 2135   5.939   3.713   4.552
  710TIP3    H1 2136   5.972   3.712   4.462
  710TIP3    H2 2137   5.947   3.623   4.582
  711TIP3   OH2 2138   2.980   5.326   1.931
  711TIP3    H1 2139   2.973   5.396   1.996
  711TIP3    H2 2140   2.890   5.297   1.917
  712TIP3   OH2 2141   1.055   0.108   3.100
  712TIP3    H1 2142   1.055   0.069   3.012
  712TIP3    H2 2143   1.011   0.192   3.088
  713TIP3   OH2 2144   2.530   1.498   2.039
  713TIP3    H1 2145   2.527   1.467   1.949
  713TIP3    H2 2146   2.609   1.552   2.043
  714TIP3   OH2 2147   2.076   2.037   0.483
  714TIP3    H1 2148   2.064   2.020   0.390
  714TIP3    H2 2149   1.987   2.037   0.518
  715TIP3   OH2 2150   2.140   2.378   4.997
  715TIP3    H1 2151   2.164   2.471   4.997
  715TIP3    H2 2152   2.068   2.372   5.059
  716TIP3   OH2 2153   2.336   1.362   4.380
  716TIP3    H1 2154   2.412   1.336   4.327
  716TIP3    H2 2155   2.261   1.347   4.323
  717TIP3   OH2 2156   1.123   2.226   2.533
  717TIP3    H1 2157   1.077   2.192   2.457
  717TIP3    H2 2158   1.208   2.255   2.500
  718TIP3   OH2 2159   1.011   1.656   2.406
  718TIP3    H1 2160   1.042   1.575   2.368
  718TIP3    H2 2161   1.065   1.668   2.484
  719TIP3   OH2 2162   1.259   4.253   5.162
  719TIP3    H1 2163   1.279   4.347   5.170
  719TIP3    H2 2164   1.174   4.250   5.118
  720TIP3   OH2 2165   3.869   4.952   2.046
  720TIP3    H1 2166   3.895   5.008   1.973
  720TIP3    H2 2167   3.790   4.993   2.080
  721TIP3   OH2 2168   1.845   4.477   1.924
  721TIP3    H1 2169   1.792   4.505   1.849
  721TIP3    H2 2170   1.845   4.381   1.920
  722TIP3   OH2 2171   0.424   3.009   0.907
  722TIP3    H1 2172   0.400   2.917   0.900
  722TIP3    H2 2173   0.352   3.056   0.864
  723TIP3   OH2 2174   3.448   2.590   2.244
  723TIP3    H1 2175   3.403   2.544   2.174
  723TIP3    H2 2176   3.526   2.627   2.203
  724TIP3   OH2 2177   1.953   4.173   1.950
  724TIP3    H1 2178   1.891   4.128   2.007
  724TIP3    H2 2179   1.931   4.142   1.862
  725TIP3   OH2 2180   5.129   2.096   0.159
  725TIP3    H1 2181   5.049   2.056   0.125
  725TIP3    H2 2182   5.114   2.105   0.253
  726TIP3   OH2 2183   0.424   0.113   2.074
  726TIP3    H1 2184   0.365   0.061   2.130
  726TIP3    H2 2185   0.505   0.120   2.125
  727TIP3   OH2 2186   3.063   2.756   4.985
  727TIP3    H1 2187   3.000   2.712   5.043
  727TIP3    H2 2188   3.143   2.703   4.992
  728TIP3   OH2 2189   6.043   1.457   3.472
  728TIP3    H1 2190   6.009   1.368   3.473
  728TIP3    H2 2191   5.966   1.512   3.460
  729TIP3   OH2 2192   1.815   5.528   0.764
  729TIP3    H1 2193   1.802   5.623   0.765
  729TIP3    H2 2194   1.899   5.515   0.808
  730TIP3   OH2 2195   0.210   5.781   4.101
  730TIP3    H1 2196   0.137   5.737   4.058
  730TIP3    H2 2197   0.269   5.806   4.030
  731TIP3   OH2 2198   3.260   2.895   0.728
  731TIP3    H1 2199   3.198   2.843   0.778
  731TIP3    H2 2200   3.346   2.857   0.749
  732TIP3   OH2 2201   0.428   0.108   4.349
  732TIP3    H1 2202   0.439   0.200   4.327
  732TIP3    H2 2203   0.402   0.066   4.267
  733TIP3   OH2 2204   3.434   4.470   4.274
  733TIP3    H1 2205   3.484   4.550   4.255
  733TIP3    H2 2206   3.344   4.492   4.253
  734TIP3   OH2 2207   1.057   2.272   4.912
  734TIP3    H1 2208   1.012   2.287   4.829
  734TIP3    H2 2209   1.000   2.311   4.978
  735TIP3   OH2 2210   0.450   3.473   2.277
  735TIP3    H1 2211   0.433   3.425   2.358
  735TIP3    H2 2212   0.466   3.405   2.212
  736TIP3   OH2 2213   0.880   3.424   2.245
  736TIP3    H1 2214   0.939   3.446   2.172
  736TIP3    H2 2215   0.838   3.343   2.217
  737TIP3   OH2 2216   5.846   2.303   0.054
  737TIP3    H1 2217   5.909   2.334  -0.012
  737TIP3    H2 2218   5.862   2.359   0.129
  738TIP3   OH2 2219   1.094   3.546   4.525
  738TIP3    H1 2220   1.123   3.471   4.473
  738TIP3    H2 2221   1.149   3.619   4.497
  739TIP3   OH2 2222   3.541   3.365   1.807
  739TIP3    H1 2223   3.555   3.369   1.712
  739TIP3    H2 2224   3.595   3.437   1.841
  740TIP3   OH2 2225   1.448   0.074   2.838
  740TIP3    H1 2226   1.539   0.047   2.848
  740TIP3    H2 2227   1.397   0.006   2.882
  741TIP3   OH2 2228   3.766   0.358   2.290
  741TIP3    H1 2229   3.801   0.271   2.273
  741TIP3    H2 2230   3.771   0.403   2.205
  742TIP3   OH2 2231   0.861   5.785   4.287
  742TIP3    H1 2232   0.792   5.830   4.239
  742TIP3    H2 2233   0.826   5.772   4.375
  743TIP3   OH2 2234   1.664   5.700   4.989
  743TIP3    H1 2235   1.680   5.752   5.068
  743TIP3    H2 2236   1.584   5.651   5.007
  744TIP3   OH2 2237   4.378   4.084   2.478
  744TIP3    H1 2238   4.309   4.148   2.494
  744TIP3    H2 2239   4.412   4.105   2.391
  745TIP3   OH2 2240   2.064   4.727   2.300
  745TIP3    H1 2241   2.041   4.731   2.207
  745TIP3    H2 2242   1.992   4.677   2.339
  746TIP3   OH2 2243   1.550   4.547   5.122
  746TIP3    H1 2244   1.631   4.496   5.122
  746TIP3    H2 2245   1.535   4.568   5.215
  747TIP3   OH2 2246   4.829   1.160   1.157
  747TIP3    H1 2247   4.745   1.180   1.200
  747TIP3    H2 2248   4.895   1.199   1.214
  748TIP3   OH2 2249   5.697   5.544   0.576
  748TIP3    H1 2250   5.682   5.505   0.663
  748TIP3    H2 2251   5.747   5.477   0.529
  749TIP3   OH2 2252   3.632   4.706   3.656
  749TIP3    H1 2253   3.574   4.649   3.706
  749TIP3    H2 2254   3.712   4.655   3.644
  750TIP3   OH2 2255   5.825   0.178   0.849
  750TIP3    H1 2256   5.883   0.227   0.908
  750TIP3    H2 2257   5.845   0.214   0.762
  751TIP3   OH2 2258   5.445   5.239   2.573
  751TIP3    H1 2259   5.514   5.191   2.619
  751TIP3    H2 2260   5.456   5.216   2.481
  752TIP3   OH2 2261   3.544   3.707   1.578
  752TIP3    H1 2262   3.469   3.649   1.587
  752TIP3    H2 2263   3.519   3.769   1.509
  753TIP3   OH2 2264   3.565   1.593   1.205
  753TIP3    H1 2265   3.564   1.687   1.222
  753TIP3    H2 2266   3.598   1.586   1.115
  754TIP3   OH2 2267   5.744   5.936   5.038
  754TIP3    H1 2268   5.778   5.941   4.949
  754TIP3    H2 2269   5.725   5.843   5.052
  755TIP3   OH2 2270   4.721   2.203   3.772
  755TIP3    H1 2271   4.750   2.112   3.781
  755TIP3    H2 2272   4.682   2.223   3.857
  756TIP3   OH2 2273   3.340   2.403   2.049
  756TIP3    H1 2274   3.255   2.413   2.092
  756TIP3    H2 2275   3.371   2.316   2.074
  757TIP3   OH2 2276   1.956   1.699   1.054
  757TIP3    H1 2277   2.009   1.675   0.979
  757TIP3    H2 2278   2.006   1.767   1.099
  758TIP3   OH2 2279   5.179   4.728   3.413
  758TIP3    H1 2280   5.215   4.661   3.472
  758TIP3    H2 2281   5.177   4.685   3.328
  759TIP3   OH2 2282   0.808   5.210   3.217
  759TIP3    H1 2283   0.770   5.222   3.130
  759TIP3    H2 2284   0.896   5.246   3.211
  760TIP3   OH2 2285   2.648   2.103   4.119
  760TIP3    H1 2286   2.657   2.139   4.207
  760TIP3    H2 2287   2.736   2.107   4.082
  761TIP3   OH2 2288   0.332   1.637   1.380
  761TIP3    H1 2289   0.351   1.595   1.464
  761TIP3    H2 2290   0.418   1.665   1.347
  762TIP3   OH2 2291   2.686   0.800   3.230
  762TIP3    H1 2292   2.754   0.771   3.170
  762TIP3    H2 2293   2.715   0.769   3.316
  763TIP3   OH2 2294   1.529   4.275   3.517
  763TIP3    H1 2295   1.619   4.244   3.515
  763TIP3    H2 2296   1.496   4.260   3.428
  764TIP3   OH2 2297   6.325   2.337   4.313
  764TIP3    H1 2298   6.409   2.297   4.290
  764TIP3    H2 2299   6.292   2.372   4.230
  765TIP3   OH2 2300   5.236   4.744   1.633
  765TIP3    H1 2301   5.157   4.722   1.682
  765TIP3    H2 2302   5.209   4.812   1.572
  766TIP3   OH2 2303   0.110   3.318   2.387
  766TIP3    H1 2304   0.167   3.254   2.430
  766TIP3    H2 2305   0.074   3.370   2.459
  767TIP3   OH2 2306   6.304   2.084   1.467
  767TIP3    H1 2307   6.396   2.107   1.451
  767TIP3    H2 2308   6.285   2.123   1.552
  768TIP3   OH2 2309   1.154   2.262   2.911
  768TIP3    H1 2310   1.128   2.172   2.928
  768TIP3    H2 2311   1.244   2.269   2.945
  769TIP3   OH2 2312   1.637   1.029   0.832
  769TIP3    H1 2313   1.576   1.004   0.763
  769TIP3    H2 2314   1.585   1.084   0.891
  770TIP3   OH2 2315   0.169   3.159   3.764
  770TIP3    H1 2316   0.235   3.164   3.833
  770TIP3    H2 2317   0.200   3.090   3.706
  771TIP3   OH2 2318   5.881   0.590   0.119
  771TIP3    H1 2319   5.806   0.559   0.067
  771TIP3    H2 2320   5.841   0.630   0.196
  772TIP3   OH2 2321   5.939   3.854   4.085
  772TIP3    H1 2322   5.966   3.939   4.050
  772TIP3    H2 2323   5.932   3.797   4.008
  773TIP3   OH2 2324   5.883   2.510   3.441
  773TIP3    H1 2325   5.860   2.433   3.493
  773TIP3    H2 2326   5.802   2.532   3.394
  774TIP3   OH2 2327   0.476   3.661   3.432
  774TIP3    H1 2328   0.432   3.678   3.349
  774TIP3    H2 2329   0.472   3.744   3.480
  775TIP3   OH2 2330   0.662   5.937   4.149
  775TIP3    H1 2331   0.639   5.978   4.066
  775TIP3    H2 2332   0.600   5.865   4.158
  776TIP3   OH2 2333   3.110   3.221   4.809
  776TIP3    H1 2334   3.098   3.205   4.715
  776TIP3    H2 2335   3.190   3.273   4.815
  777TIP3   OH2 2336   1.698   5.232   3.431
  777TIP3    H1 2337   1.698   5.176   3.509
  777TIP3    H2 2338   1.708   5.171   3.358
  778TIP3   OH2 2339   1.235   1.095   1.181
  778TIP3    H1 2340   1.188   1.083   1.263
  778TIP3    H2 2341   1.169   1.128   1.120
  779TIP3   OH2 2342   2.247   5.589   0.117
  779TIP3    H1 2343   2.252   5.525   0.046
  779TIP3    H2 2344   2.337   5.621   0.127
  780TIP3   OH2 2345   1.876   1.109   3.262
  780TIP3    H1 2346   1.937   1.057   3.314
  780TIP3    H2 2347   1.881   1.197   3.300
  781TIP3   OH2 2348   0.490   2.572   0.110
  781TIP3    H1 2349   0.567   2.560   0.166
  781TIP3    H2 2350   0.502   2.658   0.070
  782TIP3   OH2 2351   5.923   5.249   2.959
  782TIP3    H1 2352   5.855   5.253   2.892
  782TIP3    H2 2353   6.005   5.259   2.910
  783TIP3   OH2 2354   4.763   0.763   3.130
  783TIP3    H1 2355   4.730   0.676   3.107
  783TIP3    H2 2356   4.853   0.765   3.096
  784TIP3   OH2 2357   0.092   3.429   0.582
  784TIP3    H1 2358   0.091   3.523   0.563
  784TIP3    H2 2359   0.184   3.403   0.568
  785TIP3   OH2 2360   5.101   2.740   0.696
  785TIP3    H1 2361   5.025   2.798   0.701
  785TIP3    H2 2362   5.176   2.799   0.689
  786TIP3   OH2 2363   5.674   1.782   4.711
  786TIP3    H1 2364   5.679   1.700   4.664
  786TIP3    H2 2365   5.604   1.769   4.775
  787TIP3   OH2 2366   6.185   3.567   4.738
  787TIP3    H1 2367   6.192   3.539   4.647
  787TIP3    H2 2368   6.127   3.502   4.778
  788TIP3   OH2 2369   6.310   2.032   3.769
  788TIP3    H1 2370   6.216   2.048   3.783
  788TIP3    H2 2371   6.331   1.960   3.829
  789TIP3   OH2 2372   1.434   4.104   1.048
  789TIP3    H1 2373   1.380   4.092   1.127
  789TIP3    H2 2374   1.444   4.017   1.011
  790TIP3   OH2 2375   4.208   4.576   3.824
  790TIP3    H1 2376   4.161   4.658   3.838
  790TIP3    H2 2377   4.293   4.602   3.791
  791TIP3   OH2 2378   0.236   0.711   2.587
  791TIP3    H1 2379   0.263   0.653   2.658
  791TIP3    H2 2380   0.298   0.784   2.591
  792TIP3   OH2 2381   4.972   4.905   2.126
  792TIP3    H1 2382   4.976   4.981   2.183
  792TIP3    H2 2383   4.948   4.833   2.183
  793TIP3   OH2 2384   3.839   5.947   4.242
  793TIP3    H1 2385   3.934   5.945   4.230
  793TIP3    H2 2386   3.825   6.010   4.313
  794TIP3   OH2 2387   4.233   4.813   1.987
  794TIP3    H1 2388   4.196   4.839   1.903
  794TIP3    H2 2389   4.168   4.754   2.025
  795TIP3   OH2 2390   2.432   1.356   1.409
  795TIP3    H1 2391   2.371   1.344   1.336
  795TIP3    H2 2392   2.379   1.397   1.478
  796TIP3   OH2 2393   5.625   3.558   3.031
  796TIP3    H1 2394   5.684   3.497   2.986
  796TIP3    H2 2395   5.660   3.564   3.120
  797TIP3   OH2 2396   1.470   3.977   4.179
  797TIP3    H1 2397   1.435   4.065   4.163
  797TIP3    H2 2398   1.559   3.979   4.144
  798TIP3   OH2 2399   2.667   3.422   0.156
  798TIP3    H1 2400   2.661   3.517   0.145
  798TIP3    H2 2401   2.760   3.403   0.145
  799TIP3   OH2 2402   5.387   1.928   4.239
  799TIP3    H1 2403   5.351   1.841   4.259
  799TIP3    H2 2404   5.322   1.989   4.274
  800TIP3   OH2 2405   5.401   3.181   0.708
  800TIP3    H1 2406   5.345   3.126   0.654
  800TIP3    H2 2407   5.411   3.132   0.790
  801TIP3   OH2 2408   1.871   4.551   2.483
  801TIP3    H1 2409   1.817   4.628   2.497
  801TIP3    H2 2410   1.859   4.529   2.391
  802TIP3   OH2 2411   1.746   2.724   2.522
  802TIP3    H1 2412   1.750   2.729   2.618
  802TIP3    H2 2413   1.812   2.659   2.498
  803TIP3   OH2 2414   5.437   0.488   2.885
  803TIP3    H1 2415   5.369   0.516   2.946
  803TIP3    H2 2416   5.516   0.533   2.914
  804TIP3   OH2 2417   2.548   4.141   0.722
  804TIP3    H1 2418   2.504   4.175   0.643
  804TIP3    H2 2419   2.600   4.068   0.691
  805TIP3   OH2 2420   0.292   5.139   0.504
  805TIP3    H1 2421   0.263   5.214   0.453
  805TIP3    H2 2422   0.279   5.064   0.446
  806TIP3   OH2 2423   3.253   1.453   0.684
  806TIP3    H1 2424   3.291   1.510   0.618
  806TIP3    H2 2425   3.250   1.367   0.643
  807TIP3   OH2 2426   4.640   1.507   2.554
  807TIP3    H1 2427   4.707   1.480   2.617
  807TIP3    H2 2428   4.614   1.594   2.583
  808TIP3   OH2 2429   1.210   2.402  -0.001
  808TIP3    H1 2430   1.257   2.464   0.054
  808TIP3    H2 2431   1.260   2.321   0.006
  809TIP3   OH2 2432   1.592   5.701   3.491
  809TIP3    H1 2433   1.535   5.710   3.567
  809TIP3    H2 2434   1.670   5.752   3.514
  810TIP3   OH2 2435   2.513   5.117   1.068
  810TIP3    H1 2436   2.496   5.066   1.148
  810TIP3    H2 2437   2.427   5.127   1.027
  811TIP3   OH2 2438   5.330   5.467   1.726
  811TIP3    H1 2439   5.364   5.556   1.723
  811TIP3    H2 2440   5.294   5.452   1.638
  812TIP3   OH2 2441   6.254   2.199   3.552
  812TIP3    H1 2442   6.251   2.132   3.620
  812TIP3    H2 2443   6.222   2.154   3.473
  813TIP3   OH2 2444   4.315   3.225   4.453
  813TIP3    H1 2445   4.409   3.221   4.468
  813TIP3    H2 2446   4.291   3.316   4.470
  814TIP3   OH2 2447   1.753   2.950   3.617
  814TIP3    H1 2448   1.834   2.998   3.603
  814TIP3    H2 2449   1.780   2.860   3.632
  815TIP3   OH2 2450   4.154   5.642   3.157
  815TIP3    H1 2451   4.236   5.678   3.123
  815TIP3    H2 2452   4.088   5.707   3.135
  816TIP3   OH2 2453   0.511   5.356   4.372
  816TIP3    H1 2454   0.457   5.286   4.408
  816TIP3    H2 2455   0.487   5.433   4.423
  817TIP3   OH2 2456   0.722   3.575   5.085
  817TIP3    H1 2457   0.700   3.595   4.994
  817TIP3    H2 2458   0.640   3.590   5.133
  818TIP3   OH2 2459   0.306   4.909   2.217
  818TIP3    H1 2460   0.236   4.960   2.177
  818TIP3    H2 2461   0.355   4.872   2.143
  819TIP3   OH2 2462   3.158   5.211   0.534
  819TIP3    H1 2463   3.106   5.251   0.464
  819TIP3    H2 2464   3.201   5.136   0.493
  820TIP3   OH2 2465   0.430   0.976   3.621
  820TIP3    H1 2466   0.383   0.948   3.542
  820TIP3    H2 2467   0.395   0.919   3.690
  821TIP3   OH2 2468   1.488   2.522   1.883
  821TIP3    H1 2469   1.444   2.595   1.839
  821TIP3    H2 2470   1.485   2.450   1.819
  822TIP3   OH2 2471   2.855   0.604   0.831
  822TIP3    H1 2472   2.854   0.513   0.801
  822TIP3    H2 2473   2.936   0.641   0.794
  823TIP3   OH2 2474   2.793   1.323   2.543
  823TIP3    H1 2475   2.785   1.228   2.545
  823TIP3    H2 2476   2.735   1.350   2.471
  824TIP3   OH2 2477   5.526   0.766   1.286
  824TIP3    H1 2478   5.607   0.783   1.335
  824TIP3    H2 2479   5.540   0.810   1.202
  825TIP3   OH2 2480   4.503   4.656   3.801
  825TIP3    H1 2481   4.493   4.608   3.883
  825TIP3    H2 2482   4.591   4.693   3.804
  826TIP3   OH2 2483   6.249   4.352   4.424
  826TIP3    H1 2484   6.327   4.345   4.368
  826TIP3    H2 2485   6.275   4.412   4.494
  827TIP3   OH2 2486   3.063   4.190   1.236
  827TIP3    H1 2487   3.110   4.269   1.264
  827TIP3    H2 2488   3.089   4.123   1.299
  828TIP3   OH2 2489   2.713   3.651   3.113
  828TIP3    H1 2490   2.783   3.698   3.159
  828TIP3    H2 2491   2.726   3.559   3.138
  829TIP3   OH2 2492   4.459   1.726   3.426
  829TIP3    H1 2493   4.539   1.752   3.472
  829TIP3    H2 2494   4.485   1.649   3.374
  830TIP3   OH2 2495   3.061   4.133   3.057
  830TIP3    H1 2496   3.030   4.187   3.130
  830TIP3    H2 2497   3.156   4.131   3.067
  831TIP3   OH2 2498   0.733   3.308   5.187
  831TIP3    H1 2499   0.690   3.288   5.104
  831TIP3    H2 2500   0.776   3.392   5.172
  832TIP3   OH2 2501   3.480   0.731   3.676
  832TIP3    H1 2502   3.570   0.703   3.691
  832TIP3    H2 2503   3.449   0.759   3.762
  833TIP3   OH2 2504   1.170   0.901   3.000
  833TIP3    H1 2505   1.161   0.812   2.966
  833TIP3    H2 2506   1.248   0.898   3.055
  834TIP3   OH2 2507   5.913   3.346   0.942
  834TIP3    H1 2508   5.860   3.282   0.895
  834TIP3    H2 2509   5.982   3.371   0.881
  835TIP3   OH2 2510   0.663   3.534   3.597
  835TIP3    H1 2511   0.588   3.583   3.560
  835TIP3    H2 2512   0.649   3.444   3.568
  836TIP3   OH2 2513   3.729   0.857   3.208
  836TIP3    H1 2514   3.684   0.924   3.157
  836TIP3    H2 2515   3.659   0.802   3.243
  837TIP3   OH2 2516   4.255   1.451   4.928
  837TIP3    H1 2517   4.227   1.381   4.869
  837TIP3    H2 2518   4.259   1.529   4.873
  838TIP3   OH2 2519   0.994   1.109   3.014
  838TIP3    H1 2520   1.007   1.156   2.932
  838TIP3    H2 2521   1.050   1.032   3.008
  839TIP3   OH2 2522   5.527   3.093   2.274
  839TIP3    H1 2523   5.487   3.133   2.352
  839TIP3    H2 2524   5.593   3.157   2.246
  840TIP3   OH2 2525   4.434   2.402   0.370
  840TIP3    H1 2526   4.412   2.432   0.282
  840TIP3    H2 2527   4.381   2.457   0.428
  841TIP3   OH2 2528   2.531   3.179   1.840
  841TIP3    H1 2529   2.583   3.102   1.817
  841TIP3    H2 2530   2.485   3.153   1.920
  842TIP3   OH2 2531   2.637   2.442   1.282
  842TIP3    H1 2532   2.562   2.386   1.262
  842TIP3    H2 2533   2.713   2.384   1.274
  843TIP3   OH2 2534   5.299   0.620   2.232
  843TIP3    H1 2535   5.308   0.704   2.277
  843TIP3    H2 2536   5.354   0.560   2.283
  844TIP3   OH2 2537   5.892   4.726   0.832
  844TIP3    H1 2538   5.966   4.727   0.892
  844TIP3    H2 2539   5.821   4.685   0.883
  845TIP3   OH2 2540   3.370   4.713   0.512
  845TIP3    H1 2541   3.276   4.707   0.525
  845TIP3    H2 2542   3.388   4.652   0.440
  846TIP3   OH2 2543   5.095   3.642   1.266
  846TIP3    H1 2544   5.094   3.549   1.247
  846TIP3    H2 2545   5.023   3.655   1.328
  847TIP3   OH2 2546   5.176   0.129   2.647
  847TIP3    H1 2547   5.263   0.160   2.671
  847TIP3    H2 2548   5.186   0.034   2.641
  848TIP3   OH2 2549   1.153   5.147   3.808
  848TIP3    H1 2550   1.232   5.150   3.755
  848TIP3    H2 2551   1.124   5.056   3.803
  849TIP3   OH2 2552   4.887   5.950   2.993
  849TIP3    H1 2553   4.827   5.926   3.063
  849TIP3    H2 2554   4.952   5.880   2.991
  850TIP3   OH2 2555   1.586   3.471   2.607
  850TIP3    H1 2556   1.605   3.398   2.665
  850TIP3    H2 2557   1.573   3.432   2.521
  851TIP3   OH2 2558   5.429   0.238   2.568
  851TIP3    H1 2559   5.400   0.329   2.575
  851TIP3    H2 2560   5.517   0.238   2.605
  852TIP3   OH2 2561   6.078   1.049   0.459
  852TIP3    H1 2562   6.017   1.105   0.505
  852TIP3    H2 2563   6.144   1.025   0.524
  853TIP3   OH2 2564   0.527   2.906   1.861
  853TIP3    H1 2565   0.622   2.911   1.870
  853TIP3    H2 2566   0.499   2.998   1.852
  854TIP3   OH2 2567   2.477   3.683   1.274
  854TIP3    H1 2568   2.442   3.625   1.205
  854TIP3    H2 2569   2.403   3.739   1.298
  855TIP3   OH2 2570   3.213   5.656   0.221
  855TIP3    H1 2571   3.213   5.737   0.170
  855TIP3    H2 2572   3.125   5.653   0.260
  856TIP3   OH2 2573   4.408   0.300   1.988
  856TIP3    H1 2574   4.470   0.240   2.029
  856TIP3    H2 2575   4.445   0.318   1.902
  857TIP3   OH2 2576   6.309   3.436   4.383
  857TIP3    H1 2577   6.374   3.461   4.449
  857TIP3    H2 2578   6.299   3.515   4.329
  858TIP3   OH2 2579   0.094   5.908   2.652
  858TIP3    H1 2580   0.011   5.955   2.666
  858TIP3    H2 2581   0.145   5.925   2.732
  859TIP3   OH2 2582   2.295   5.093   1.592
  859TIP3    H1 2583   2.383   5.114   1.563
  859TIP3    H2 2584   2.248   5.070   1.512
  860TIP3   OH2 2585   2.040   4.323   3.887
  860TIP3    H1 2586   2.097   4.400   3.895
  860TIP3    H2 2587   2.100   4.251   3.866
  861TIP3   OH2 2588   4.477   4.754   0.692
  861TIP3    H1 2589   4.478   4.796   0.606
  861TIP3    H2 2590   4.557   4.703   0.694
  862TIP3   OH2 2591   0.743   4.711   5.089
  862TIP3    H1 2592   0.670   4.742   5.037
  862TIP3    H2 2593   0.703   4.654   5.155
  863TIP3   OH2 2594   4.380   0.554   0.898
  863TIP3    H1 2595   4.464   0.511   0.879
  863TIP3    H2 2596   4.360   0.528   0.988
  864TIP3   OH2 2597   4.314   1.963   4.222
  864TIP3    H1 2598   4.273   2.041   4.259
  864TIP3    H2 2599   4.265   1.890   4.261
  865TIP3   OH2 2600   3.700   5.309   3.768
  865TIP3    H1 2601   3.740   5.238   3.719
  865TIP3    H2 2602   3.682   5.273   3.855
  866TIP3   OH2 2603   4.291   4.242   1.178
  866TIP3    H1 2604   4.250   4.324   1.151
  866TIP3    H2 2605   4.309   4.196   1.095
  867TIP3   OH2 2606   4.348   0.095   2.985
  867TIP3    H1 2607   4.341   0.138   2.899
  867TIP3    H2 2608   4.439   0.067   2.990
  868TIP3   OH2 2609   0.529   1.608   4.612
  868TIP3    H1 2610   0.623   1.617   4.625
  868TIP3    H2 2611   0.504   1.535   4.670
  869TIP3   OH2 2612   0.558   1.086   1.796
  869TIP3    H1 2613   0.565   0.997   1.832
  869TIP3    H2 2614   0.626   1.135   1.842
  870TIP3   OH2 2615   1.827   1.166   4.332
  870TIP3    H1 2616   1.899   1.119   4.375
  870TIP3    H2 2617   1.854   1.173   4.241
  871TIP3   OH2 2618   3.840   4.815   4.287
  871TIP3    H1 2619   3.782   4.807   4.363
  871TIP3    H2 2620   3.917   4.763   4.310
  872TIP3   OH2 2621   1.725   0.083   2.169
  872TIP3    H1 2622   1.814   0.049   2.181
  872TIP3    H2 2623   1.690   0.089   2.258
  873TIP3   OH2 2624   5.951   2.189   3.299
  873TIP3    H1 2625   6.021   2.126   3.285
  873TIP3    H2 2626   5.997   2.269   3.328
  874TIP3   OH2 2627   4.370   3.542   2.891
  874TIP3    H1 2628   4.461   3.566   2.874
  874TIP3    H2 2629   4.333   3.618   2.936
  875TIP3   OH2 2630   2.390   1.940   4.582
  875TIP3    H1 2631   2.298   1.932   4.556
  875TIP3    H2 2632   2.437   1.883   4.522
  876TIP3   OH2 2633   5.996   0.643   5.131
  876TIP3    H1 2634   6.066   0.640   5.066
  876TIP3    H2 2635   5.920   0.607   5.086
  877TIP3   OH2 2636   5.222   0.999   0.034
  877TIP3    H1 2637   5.310   1.008   0.070
  877TIP3    H2 2638   5.166   1.050   0.094
  878TIP3   OH2 2639   2.281   0.352   0.076
  878TIP3    H1 2640   2.252   0.335  -0.014
  878TIP3    H2 2641   2.203   0.341   0.129
  879TIP3   OH2 2642   5.275   3.153   4.981
  879TIP3    H1 2643   5.246   3.212   4.912
  879TIP3    H2 2644   5.236   3.068   4.957
  880TIP3   OH2 2645   1.590   5.743   0.160
  880TIP3    H1 2646   1.637   5.660   0.150
  880TIP3    H2 2647   1.622   5.798   0.089
  881TIP3   OH2 2648   4.342   2.462   2.958
  881TIP3    H1 2649   4.358   2.433   3.048
  881TIP3    H2 2650   4.283   2.396   2.922
  882TIP3   OH2 2651   5.293   1.884   3.857
  882TIP3    H1 2652   5.233   1.811   3.868
  882TIP3    H2 2653   5.242   1.962   3.880
  883TIP3   OH2 2654   0.447   2.247   2.125
  883TIP3    H1 2655   0.419   2.192   2.052
  883TIP3    H2 2656   0.538   2.268   2.105
  884TIP3   OH2 2657   4.749   3.322   0.461
  884TIP3    H1 2658   4.664   3.350   0.425
  884TIP3    H2 2659   4.728   3.285   0.546
  885TIP3   OH2 2660   3.722   2.710   1.287
  885TIP3    H1 2661   3.814   2.733   1.285
  885TIP3    H2 2662   3.681   2.769   1.224
  886TIP3   OH2 2663   6.301   4.132   0.724
  886TIP3    H1 2664   6.326   4.187   0.798
  886TIP3    H2 2665   6.230   4.078   0.757
  887TIP3   OH2 2666   2.723   2.255   0.606
  887TIP3    H1 2667   2.650   2.295   0.653
  887TIP3    H2 2668   2.770   2.205   0.674
  888TIP3   OH2 2669   1.156   3.686   0.361
  888TIP3    H1 2670   1.065   3.716   0.362
  888TIP3    H2 2671   1.160   3.622   0.290
  889TIP3   OH2 2672   5.996   5.087   0.895
  889TIP3    H1 2673   5.920   5.144   0.907
  889TIP3    H2 2674   6.002   5.038   0.977
  890TIP3   OH2 2675   3.146   1.821   1.052
  890TIP3    H1 2676   3.149   1.725   1.048
  890TIP3    H2 2677   3.178   1.843   1.140
  891TIP3   OH2 2678   4.235   5.247   0.890
  891TIP3    H1 2679   4.276   5.264   0.975
  891TIP3    H2 2680   4.275   5.166   0.860
  892TIP3   OH2 2681   0.474   1.672   2.834
  892TIP3    H1 2682   0.386   1.673   2.796
  892TIP3    H2 2683   0.533   1.662   2.759
  893TIP3   OH2 2684   4.901   1.207   0.389
  893TIP3    H1 2685   4.827   1.208   0.450
  893TIP3    H2 2686   4.925   1.299   0.379
  894TIP3   OH2 2687   3.807   1.050   0.169
  894TIP3    H1 2688   3.842   0.980   0.224
  894TIP3    H2 2689   3.880   1.111   0.159
  895TIP3   OH2 2690   2.151   4.925   0.750
  895TIP3    H1 2691   2.114   4.938   0.837
  895TIP3    H2 2692   2.220   4.860   0.763
  896TIP3   OH2 2693   4.195   0.552   4.607
  896TIP3    H1 2694   4.289   0.562   4.593
  896TIP3    H2 2695   4.162   0.641   4.617
  897TIP3   OH2 2696   0.019   4.769   2.542
  897TIP3    H1 2697   0.101   4.743   2.500
  897TIP3    H2 2698  -0.036   4.800   2.471
  898TIP3   OH2 2699   4.142   2.533   4.274
  898TIP3    H1 2700   4.112   2.547   4.184
  898TIP3    H2 2701   4.061   2.523   4.325
  899TIP3   OH2 2702   4.587   0.056   0.638
  899TIP3    H1 2703   4.619  -0.029   0.669
  899TIP3    H2 2704   4.492   0.046   0.637
  900TIP3   OH2 2705   1.671   1.662   5.079
  900TIP3    H1 2706   1.613   1.736   5.059
  900TIP3    H2 2707   1.728   1.694   5.149
  901TIP3   OH2 2708   4.569   3.519   0.177
  901TIP3    H1 2709   4.528   3.459   0.115
  901TIP3    H2 2710   4.658   3.485   0.188
  902TIP3   OH2 2711   1.942   0.655   2.722
  902TIP3    H1 2712   1.877   0.703   2.670
  902TIP3    H2 2713   2.022   0.659   2.669
  903TIP3   OH2 2714   1.155   4.465   4.150
  903TIP3    H1 2715   1.092   4.396   4.131
  903TIP3    H2 2716   1.106   4.546   4.140
  904TIP3   OH2 2717   5.439   2.264   4.968
  904TIP3    H1 2718   5.466   2.245   5.058
  904TIP3    H2 2719   5.428   2.178   4.927
  905TIP3   OH2 2720   2.608   0.712   0.706
  905TIP3    H1 2721   2.643   0.626   0.729
  905TIP3    H2 2722   2.594   0.755   0.790
  906TIP3   OH2 2723   0.983   0.090   3.350
  906TIP3    H1 2724   1.001   0.075   3.258
  906TIP3    H2 2725   1.058   0.142   3.381
  907TIP3   OH2 2726   0.857   3.536   0.581
  907TIP3    H1 2727   0.776   3.556   0.628
  907TIP3    H2 2728   0.926   3.567   0.639
  908TIP3   OH2 2729   1.454   1.246   3.594
  908TIP3    H1 2730   1.429   1.219   3.683
  908TIP3    H2 2731   1.471   1.165   3.548
  909TIP3   OH2 2732   4.321   3.045   4.163
  909TIP3    H1 2733   4.282   2.957   4.167
  909TIP3    H2 2734   4.380   3.048   4.238
  910TIP3   OH2 2735   1.724   4.051   4.067
  910TIP3    H1 2736   1.711   4.017   3.978
  910TIP3    H2 2737   1.816   4.079   4.069
  911TIP3   OH2 2738   1.634   1.318   0.295
  911TIP3    H1 2739   1.662   1.248   0.236
  911TIP3    H2 2740   1.676   1.397   0.260
  912TIP3   OH2 2741   0.496   5.315   0.902
  912TIP3    H1 2742   0.429   5.262   0.859
  912TIP3    H2 2743   0.538   5.362   0.830
  913TIP3   OH2 2744   6.273   3.033   1.876
  913TIP3    H1 2745   6.309   3.119   1.896
  913TIP3    H2 2746   6.344   2.987   1.832
  914TIP3   OH2 2747   4.211   5.086   0.063
  914TIP3    H1 2748   4.302   5.114   0.053
  914TIP3    H2 2749   4.160   5.167   0.055
  915TIP3   OH2 2750   5.824   1.884   3.734
  915TIP3    H1 2751   5.783   1.798   3.748
  915TIP3    H2 2752   5.806   1.904   3.642
  916TIP3   OH2 2753   4.140   2.406   0.418
  916TIP3    H1 2754   4.161   2.361   0.336
  916TIP3    H2 2755   4.097   2.487   0.391
  917TIP3   OH2 2756   3.843   0.784   0.638
  917TIP3    H1 2757   3.811   0.874   0.646
  917TIP3    H2 2758   3.808   0.754   0.554
  918TIP3   OH2 2759   4.967   2.477   0.196
  918TIP3    H1 2760   4.962   2.557   0.248
  918TIP3    H2 2761   4.879   2.465   0.161
  919TIP3   OH2 2762   1.466   4.231   3.212
  919TIP3    H1 2763   1.445   4.265   3.125
  919TIP3    H2 2764   1.562   4.229   3.215
  920TIP3   OH2 2765   2.175   4.449   3.068
  920TIP3    H1 2766   2.205   4.358   3.062
  920TIP3    H2 2767   2.121   4.462   2.989
  921TIP3   OH2 2768   2.196   4.784   0.048
  921TIP3    H1 2769   2.243   4.843  -0.011
  921TIP3    H2 2770   2.130   4.742  -0.007
  922TIP3   OH2 2771   0.409   3.900   1.991
  922TIP3    H1 2772   0.455   3.852   2.060
  922TIP3    H2 2773   0.394   3.835   1.922
  923TIP3   OH2 2774   3.890   4.080   3.255
  923TIP3    H1 2775   3.887   4.170   3.222
  923TIP3    H2 2776   3.969   4.042   3.214
  924TIP3   OH2 2777   2.209   2.807   2.333
  924TIP3    H1 2778   2.199   2.838   2.423
  924TIP3    H2 2779   2.275   2.865   2.295
  925TIP3   OH2 2780   3.215   5.368   0.116
  925TIP3    H1 2781   3.162   5.435   0.159
  925TIP3    H2 2782   3.166   5.287   0.128
  926TIP3   OH2 2783   1.803   5.167   0.019
  926TIP3    H1 2784   1.809   5.115   0.100
  926TIP3    H2 2785   1.725   5.221   0.031
  927TIP3   OH2 2786   4.062   3.287   0.975
  927TIP3    H1 2787   4.080   3.195   0.991
  927TIP3    H2 2788   4.045   3.324   1.062
  928TIP3   OH2 2789   0.833   2.841   4.249
  928TIP3    H1 2790   0.929   2.835   4.246
  928TIP3    H2 2791   0.803   2.750   4.258
  929TIP3   OH2 2792   1.820   0.734   1.101
  929TIP3    H1 2793   1.771   0.802   1.146
  929TIP3    H2 2794   1.772   0.653   1.120
  930TIP3   OH2 2795   1.945   3.330   3.882
  930TIP3    H1 2796   1.902   3.415   3.877
  930TIP3    H2 2797   2.038   3.350   3.884
  931TIP3   OH2 2798   1.815   4.638   0.474
  931TIP3    H1 2799   1.828   4.597   0.559
  931TIP3    H2 2800   1.856   4.724   0.482
  932TIP3   OH2 2801   1.731   4.576   1.695
  932TIP3    H1 2802   1.656   4.549   1.641
  932TIP3    H2 2803   1.755   4.662   1.660
  933TIP3   OH2 2804   3.967   5.352   1.990
  933TIP3    H1 2805   3.900   5.385   2.050
  933TIP3    H2 2806   3.973   5.419   1.922
  934TIP3   OH2 2807   5.479   2.773   4.857
  934TIP3    H1 2808   5.425   2.802   4.784
  934TIP3    H2 2809   5.479   2.847   4.917
  935TIP3   OH2 2810   3.841   2.579   3.173
  935TIP3    H1 2811   3.869   2.522   3.101
  935TIP3    H2 2812   3.809   2.518   3.240
  936TIP3   OH2 2813  -0.010   0.183   3.827
  936TIP3    H1 2814   0.084   0.199   3.837
  936TIP3    H2 2815  -0.017   0.089   3.810
  937TIP3   OH2 2816   3.155   3.212   2.556
  937TIP3    H1 2817   3.063   3.186   2.562
  937TIP3    H2 2818   3.202   3.150   2.611
  938TIP3   OH2 2819   5.492   4.040   0.972
  938TIP3    H1 2820   5.402   4.013   0.959
  938TIP3    H2 2821   5.489   4.136   0.975
  939TIP3   OH2 2822   6.118   5.185   2.312
  939TIP3    H1 2823   6.180   5.118   2.340
  939TIP3    H2 2824   6.129   5.256   2.376
  940TIP3   OH2 2825   5.547   0.316   1.792
  940TIP3    H1 2826   5.557   0.272   1.708
  940TIP3    H2 2827   5.468   0.278   1.830
  941TIP3   OH2 2828   4.305   2.327   2.128
  941TIP3    H1 2829   4.389   2.282   2.123
  941TIP3    H2 2830   4.328   2.419   2.141
  942TIP3   OH2 2831   3.180   0.455   5.031
  942TIP3    H1 2832   3.222   0.472   4.946
  942TIP3    H2 2833   3.196   0.534   5.082
  943TIP3   OH2 2834   3.761   1.389   2.437
  943TIP3    H1 2835   3.836   1.449   2.435
  943TIP3    H2 2836   3.779   1.327   2.367
  944TIP3   OH2 2837   0.862   2.880   1.271
  944TIP3    H1 2838   0.873   2.915   1.182
  944TIP3    H2 2839   0.783   2.923   1.304
  945TIP3   OH2 2840   3.786   0.373   3.189
  945TIP3    H1 2841   3.737   0.406   3.264
  945TIP3    H2 2842   3.732   0.302   3.154
  946TIP3   OH2 2843   0.810   2.608   3.104
  946TIP3    H1 2844   0.811   2.560   3.187
  946TIP3    H2 2845   0.869   2.558   3.047
  947TIP3   OH2 2846   2.957   3.147   2.253
  947TIP3    H1 2847   2.903   3.194   2.190
  947TIP3    H2 2848   3.047   3.167   2.227
  948TIP3   OH2 2849   5.092   0.318   2.073
  948TIP3    H1 2850   5.077   0.319   2.167
  948TIP3    H2 2851   5.099   0.410   2.049
  949TIP3   OH2 2852   0.632   4.840   2.984
  949TIP3    H1 2853   0.663   4.792   2.907
  949TIP3    H2 2854   0.544   4.808   2.999
  950TIP3   OH2 2855   1.213   2.408   0.381
  950TIP3    H1 2856   1.133   2.398   0.432
  950TIP3    H2 2857   1.197   2.484   0.325
  951TIP3   OH2 2858   0.490   0.612   0.850
  951TIP3    H1 2859   0.459   0.635   0.763
  951TIP3    H2 2860   0.447   0.675   0.908
  952TIP3   OH2 2861   2.184   2.101   3.659
  952TIP3    H1 2862   2.236   2.172   3.621
  952TIP3    H2 2863   2.098   2.141   3.676
  953TIP3   OH2 2864   2.167   4.467   0.822
  953TIP3    H1 2865   2.159   4.402   0.753
  953TIP3    H2 2866   2.136   4.422   0.901
  954TIP3   OH2 2867   2.520   4.330   0.972
  954TIP3    H1 2868   2.555   4.266   0.909
  954TIP3    H2 2869   2.436   4.293   0.999
  955TIP3   OH2 2870  -0.005   0.400   5.048
  955TIP3    H1 2871  -0.030   0.381   4.957
  955TIP3    H2 2872   0.091   0.390   5.049
  956TIP3   OH2 2873   4.446   0.778   1.030
  956TIP3    H1 2874   4.478   0.723   1.101
  956TIP3    H2 2875   4.475   0.734   0.950
  957TIP3   OH2 2876   5.104   3.689   1.946
  957TIP3    H1 2877   5.087   3.620   1.881
  957TIP3    H2 2878   5.195   3.675   1.972
  958TIP3   OH2 2879   0.071   1.655   1.372
  958TIP3    H1 2880   0.166   1.662   1.381
  958TIP3    H2 2881   0.056   1.563   1.351
  959TIP3   OH2 2882   2.576   0.982   3.672
  959TIP3    H1 2883   2.613   1.021   3.751
  959TIP3    H2 2884   2.622   0.899   3.661
  960TIP3   OH2 2885   0.246   1.824   1.650
  960TIP3    H1 2886   0.190   1.890   1.692
  960TIP3    H2 2887   0.192   1.789   1.578
  961TIP3   OH2 2888   1.090   3.377   0.785
  961TIP3    H1 2889   1.104   3.288   0.752
  961TIP3    H2 2890   1.117   3.434   0.713
  962TIP3   OH2 2891   6.102   3.326   4.004
  962TIP3    H1 2892   6.061   3.278   3.932
  962TIP3    H2 2893   6.195   3.330   3.980
  963TIP3   OH2 2894   1.537   5.943   3.096
  963TIP3    H1 2895   1.499   5.897   3.021
  963TIP3    H2 2896   1.624   5.969   3.067
  964TIP3   OH2 2897   0.762   3.980   1.767
  964TIP3    H1 2898   0.842   4.031   1.780
  964TIP3    H2 2899   0.768   3.949   1.677
  965TIP3   OH2 2900   1.612   1.383   1.598
  965TIP3    H1 2901   1.644   1.468   1.567
  965TIP3    H2 2902   1.596   1.396   1.692
  966TIP3   OH2 2903   6.273   5.736   3.940
  966TIP3    H1 2904   6.196   5.685   3.963
  966TIP3    H2 2905   6.259   5.821   3.982
  967TIP3   OH2 2906   4.623   2.679   1.953
  967TIP3    H1 2907   4.598   2.649   1.865
  967TIP3    H2 2908   4.718   2.687   1.949
  968TIP3   OH2 2909   1.447   1.137   3.843
  968TIP3    H1 2910   1.493   1.059   3.872
  968TIP3    H2 2911   1.471   1.204   3.907
  969TIP3   OH2 2912   5.982   0.855   1.021
  969TIP3    H1 2913   5.989   0.868   0.927
  969TIP3    H2 2914   6.070   0.874   1.054
  970TIP3   OH2 2915   0.761   1.873   4.049
  970TIP3    H1 2916   0.807   1.789   4.044
  970TIP3    H2 2917   0.816   1.927   4.106
  971TIP3   OH2 2918   5.005   4.179   1.826
  971TIP3    H1 2919   5.068   4.162   1.896
  971TIP3    H2 2920   4.926   4.132   1.854
  972TIP3   OH2 2921   5.778   0.201   0.082
  972TIP3    H1 2922   5.763   0.143   0.156
  972TIP3    H2 2923   5.857   0.250   0.106
  973TIP3   OH2 2924   5.865   1.262   2.987
  973TIP3    H1 2925   5.933   1.310   2.940
  973TIP3    H2 2926   5.786   1.273   2.934
  974TIP3   OH2 2927   1.152   4.905   4.528
  974TIP3    H1 2928   1.061   4.876   4.522
  974TIP3    H2 2929   1.149   4.998   4.507
  975TIP3   OH2 2930   5.110   5.662   0.760
  975TIP3    H1 2931   5.032   5.702   0.721
  975TIP3    H2 2932   5.164   5.736   0.788
  976TIP3   OH2 2933   5.028   0.063   1.981
  976TIP3    H1 2934   5.060   0.149   2.010
  976TIP3    H2 2935   4.943   0.082   1.940
  977TIP3   OH2 2936   3.873   0.761   2.600
  977TIP3    H1 2937   3.911   0.742   2.686
  977TIP3    H2 2938   3.887   0.681   2.549
  978TIP3   OH2 2939   0.035   3.814   3.056
  978TIP3    H1 2940   0.114   3.777   3.016
  978TIP3    H2 2941   0.011   3.751   3.124
  979TIP3   OH2 2942   2.955   2.581   3.302
  979TIP3    H1 2943   3.004   2.633   3.237
  979TIP3    H2 2944   2.944   2.496   3.260
  980TIP3   OH2 2945   4.028   0.377   1.582
  980TIP3    H1 2946   3.992   0.341   1.663
  980TIP3    H2 2947   4.030   0.304   1.521
  981TIP3   OH2 2948   0.106   3.406   1.309
  981TIP3    H1 2949   0.075   3.421   1.220
  981TIP3    H2 2950   0.201   3.394   1.300
  982TIP3   OH2 2951   3.795   2.833   4.716
  982TIP3    H1 2952   3.724   2.772   4.734
  982TIP3    H2 2953   3.837   2.798   4.637
  983TIP3   OH2 2954   2.229   0.306   2.043
  983TIP3    H1 2955   2.176   0.259   2.108
  983TIP3    H2 2956   2.172   0.376   2.012
  984TIP3   OH2 2957   6.021   4.392   2.587
  984TIP3    H1 2958   6.112   4.379   2.614
  984TIP3    H2 2959   5.990   4.464   2.640
  985TIP3   OH2 2960   1.695   4.867   1.827
  985TIP3    H1 2961   1.648   4.882   1.746
  985TIP3    H2 2962   1.782   4.903   1.811
  986TIP3   OH2 2963   1.855   5.433   3.532
  986TIP3    H1 2964   1.828   5.451   3.621
  986TIP3    H2 2965   1.783   5.384   3.493
  987TIP3   OH2 2966   2.482   1.161   1.597
  987TIP3    H1 2967   2.443   1.208   1.524
  987TIP3    H2 2968   2.562   1.122   1.562
  988TIP3   OH2 2969   3.694   3.582   1.794
  988TIP3    H1 2970   3.784   3.552   1.806
  988TIP3    H2 2971   3.689   3.605   1.701
  989TIP3   OH2 2972   3.266   1.482   0.969
  989TIP3    H1 2973   3.262   1.398   1.014
  989TIP3    H2 2974   3.263   1.460   0.876
  990TIP3   OH2 2975   5.087   2.101   3.959
  990TIP3    H1 2976   5.013   2.135   4.009
  990TIP3    H2 2977   5.153   2.170   3.964
  991TIP3   OH2 2978   1.255   3.523   1.243
  991TIP3    H1 2979   1.246   3.439   1.199
  991TIP3    H2 2980   1.229   3.588   1.178
  992TIP3   OH2 2981   6.260   4.417   1.818
  992TIP3    H1 2982   6.334   4.371   1.777
  992TIP3    H2 2983   6.274   4.404   1.912
  993TIP3   OH2 2984   5.909   5.333   2.226
  993TIP3    H1 2985   5.967   5.393   2.272
  993TIP3    H2 2986   5.954   5.248   2.230
  994TIP3   OH2 2987   3.934   4.356   0.419
  994TIP3    H1 2988   3.932   4.412   0.497
  994TIP3    H2 2989   3.921   4.416   0.346
  995TIP3   OH2 2990   0.370   1.105   2.225
  995TIP3    H1 2991   0.398   1.092   2.316
  995TIP3    H2 2992   0.291   1.052   2.218
  996TIP3   OH2 2993   5.137   0.252   3.384
  996TIP3    H1 2994   5.109   0.241   3.293
  996TIP3    H2 2995   5.055   0.251   3.435
  997TIP3   OH2 2996   5.596   0.464   2.147
  997TIP3    H1 2997   5.579   0.546   2.194
  997TIP3    H2 2998   5.510   0.434   2.120
  998TIP3   OH2 2999   2.229   3.633   1.756
  998TIP3    H1 3000   2.220   3.586   1.839
  998TIP3    H2 3001   2.163   3.703   1.760
  999TIP3   OH2 3002   0.124   5.060   3.691
  999TIP3    H1 3003   0.133   5.029   3.601
  999TIP3    H2 3004   0.165   5.147   3.690
 1000TIP3   OH2 3005   1.812   5.831   0.537
 1000TIP3    H1 3006   1.793   5.768   0.607
 1000TIP3    H2 3007   1.827   5.914   0.583
 1001TIP3   OH2 3008   6.011   4.947   3.529
 1001TIP3    H1 3009   5.966   4.990   3.456
 1001TIP3    H2 3010   5.945   4.888   3.566
 1002TIP3   OH2 3011   4.020   2.689   0.388
 1002TIP3    H1 3012   4.013   2.784   0.382
 1002TIP3    H2 3013   4.114   2.672   0.391
 1003TIP3   OH2 3014   5.587   2.369   4.461
 1003TIP3    H1 3015   5.658   2.340   4.404
 1003TIP3    H2 3016   5.575   2.297   4.523
 1004TIP3   OH2 3017   5.113   5.858   4.804
 1004TIP3    H1 3018   5.040   5.796   4.790
 1004TIP3    H2 3019   5.187   5.802   4.825
 1005TIP3   OH2 3020   1.494   3.893   3.239
 1005TIP3    H1 3021   1.451   3.810   3.221
 1005TIP3    H2 3022   1.580   3.869   3.272
 1006TIP3   OH2 3023   3.384   5.395   3.244
 1006TIP3    H1 3024   3.435   5.467   3.281
 1006TIP3    H2 3025   3.445   5.322   3.238
 1007TIP3   OH2 3026   4.499   2.499   1.775
 1007TIP3    H1 3027   4.425   2.554   1.801
 1007TIP3    H2 3028   4.462   2.410   1.772
 1008TIP3   OH2 3029   3.747   5.034   2.430
 1008TIP3    H1 3030   3.827   4.985   2.446
 1008TIP3    H2 3031   3.744   5.098   2.501
 1009TIP3   OH2 3032   3.563   0.092   4.076
 1009TIP3    H1 3033   3.656   0.079   4.056
 1009TIP3    H2 3034   3.540   0.018   4.132
 1010TIP3   OH2 3035   5.092   3.250   2.594
 1010TIP3    H1 3036   5.179   3.262   2.631
 1010TIP3    H2 3037   5.106   3.193   2.518
 1011TIP3   OH2 3038   4.950   0.187   3.848
 1011TIP3    H1 3039   4.962   0.180   3.753
 1011TIP3    H2 3040   4.914   0.103   3.874
 1012TIP3   OH2 3041   0.548   0.004   1.286
 1012TIP3    H1 3042   0.477   0.016   1.222
 1012TIP3    H2 3043   0.506   0.019   1.371
 1013TIP3   OH2 3044   0.512   4.367   2.511
 1013TIP3    H1 3045   0.505   4.462   2.507
 1013TIP3    H2 3046   0.423   4.335   2.494
 1014TIP3   OH2 3047   0.538   5.665   4.136
 1014TIP3    H1 3048   0.507   5.633   4.221
 1014TIP3    H2 3049   0.608   5.604   4.112
 1015TIP3   OH2 3050   1.070   4.511   3.522
 1015TIP3    H1 3051   1.081   4.447   3.452
 1015TIP3    H2 3052   1.157   4.519   3.561
 1016TIP3   OH2 3053   2.253   4.580   2.066
 1016TIP3    H1 3054   2.272   4.494   2.103
 1016TIP3    H2 3055   2.184   4.564   2.002
 1017TIP3   OH2 3056   0.872   2.529   1.356
 1017TIP3    H1 3057   0.813   2.602   1.375
 1017TIP3    H2 3058   0.821   2.472   1.297
 1018TIP3   OH2 3059   5.466   5.001   3.535
 1018TIP3    H1 3060   5.473   4.920   3.485
 1018TIP3    H2 3061   5.543   5.001   3.591
 1019TIP3   OH2 3062   2.688   1.602   4.274
 1019TIP3    H1 3063   2.772   1.640   4.300
 1019TIP3    H2 3064   2.629   1.621   4.347
 1020TIP3   OH2 3065   2.754   3.216   4.021
 1020TIP3    H1 3066   2.790   3.303   4.040
 1020TIP3    H2 3067   2.771   3.203   3.928
 1021TIP3   OH2 3068   5.706   2.536   0.759
 1021TIP3    H1 3069   5.712   2.611   0.819
 1021TIP3    H2 3070   5.701   2.576   0.672
 1022TIP3   OH2 3071   4.607   3.299   4.816
 1022TIP3    H1 3072   4.598   3.209   4.786
 1022TIP3    H2 3073   4.701   3.318   4.808
 1023TIP3   OH2 3074   2.449   2.262   2.527
 1023TIP3    H1 3075   2.368   2.256   2.577
 1023TIP3    H2 3076   2.424   2.306   2.446
 1024TIP3   OH2 3077   5.188   3.602   4.240
 1024TIP3    H1 3078   5.128   3.660   4.195
 1024TIP3    H2 3079   5.240   3.659   4.296
 1025TIP3   OH2 3080   6.125   3.783   3.811
 1025TIP3    H1 3081   6.207   3.794   3.858
 1025TIP3    H2 3082   6.079   3.714   3.857
 1026TIP3   OH2 3083   4.126   0.070   1.068
 1026TIP3    H1 3084   4.069   0.140   1.099
 1026TIP3    H2 3085   4.195   0.114   1.018
 1027TIP3   OH2 3086   1.439   5.710   3.701
 1027TIP3    H1 3087   1.448   5.744   3.790
 1027TIP3    H2 3088   1.381   5.634   3.710
 1028TIP3   OH2 3089   0.833   1.267   3.551
 1028TIP3    H1 3090   0.741   1.260   3.575
 1028TIP3    H2 3091   0.845   1.359   3.526
 1029TIP3   OH2 3092   4.652   3.701   0.397
 1029TIP3    H1 3093   4.719   3.758   0.357
 1029TIP3    H2 3094   4.611   3.656   0.323
 1030TIP3   OH2 3095   3.849   0.115   4.449
 1030TIP3    H1 3096   3.937   0.078   4.456
 1030TIP3    H2 3097   3.792   0.039   4.436
 1031TIP3   OH2 3098   0.748   5.366   2.955
 1031TIP3    H1 3099   0.772   5.456   2.933
 1031TIP3    H2 3100   0.656   5.359   2.930
 1032TIP3   OH2 3101   0.079   1.625   3.510
 1032TIP3    H1 3102   0.128   1.689   3.563
 1032TIP3    H2 3103   0.023   1.580   3.573
 1033TIP3   OH2 3104   5.810   4.954   3.290
 1033TIP3    H1 3105   5.735   4.977   3.235
 1033TIP3    H2 3106   5.806   4.859   3.297
 1034TIP3   OH2 3107   5.716   4.171   0.456
 1034TIP3    H1 3108   5.735   4.123   0.376
 1034TIP3    H2 3109   5.715   4.104   0.525
 1035TIP3   OH2 3110   3.938   0.608   1.482
 1035TIP3    H1 3111   3.999   0.560   1.539
 1035TIP3    H2 3112   3.868   0.545   1.464
 1036TIP3   OH2 3113   5.129   4.834   5.068
 1036TIP3    H1 3114   5.046   4.786   5.070
 1036TIP3    H2 3115   5.110   4.916   5.114
 1037TIP3   OH2 3116   6.167   2.508   0.112
 1037TIP3    H1 3117   6.145   2.523   0.020
 1037TIP3    H2 3118   6.161   2.413   0.123
 1038TIP3   OH2 3119   1.388   5.906   1.357
 1038TIP3    H1 3120   1.362   5.866   1.274
 1038TIP3    H2 3121   1.459   5.850   1.389
 1039TIP3   OH2 3122   3.238   0.608   2.278
 1039TIP3    H1 3123   3.288   0.527   2.270
 1039TIP3    H2 3124   3.168   0.586   2.340
 1040TIP3   OH2 3125   3.556   4.929   1.475
 1040TIP3    H1 3126   3.629   4.990   1.465
 1040TIP3    H2 3127   3.579   4.877   1.552
 1041TIP3   OH2 3128   0.497   4.809   4.623
 1041TIP3    H1 3129   0.465   4.844   4.540
 1041TIP3    H2 3130   0.418   4.786   4.672
 1042TIP3   OH2 3131   6.083   2.991   3.092
 1042TIP3    H1 3132   6.158   3.007   3.034
 1042TIP3    H2 3133   6.123   2.962   3.174
 1043TIP3   OH2 3134   2.726   0.604   2.359
 1043TIP3    H1 3135   2.812   0.617   2.321
 1043TIP3    H2 3136   2.683   0.541   2.301
 1044TIP3   OH2 3137   6.275   0.978   0.656
 1044TIP3    H1 3138   6.341   1.045   0.642
 1044TIP3    H2 3139   6.325   0.899   0.678
 1045TIP3   OH2 3140   3.139   1.107   1.482
 1045TIP3    H1 3141   3.115   1.133   1.571
 1045TIP3    H2 3142   3.163   1.189   1.439
 1046TIP3   OH2 3143   0.127   1.021   3.750
 1046TIP3    H1 3144   0.080   1.016   3.667
 1046TIP3    H2 3145   0.147   0.930   3.772
 1047TIP3   OH2 3146   6.009   4.846   2.535
 1047TIP3    H1 3147   5.952   4.911   2.493
 1047TIP3    H2 3148   6.091   4.851   2.485
 1048TIP3   OH2 3149   4.118   3.788   0.522
 1048TIP3    H1 3150   4.079   3.802   0.436
 1048TIP3    H2 3151   4.212   3.784   0.505
 1049TIP3   OH2 3152   6.178   2.782   3.587
 1049TIP3    H1 3153   6.140   2.706   3.630
 1049TIP3    H2 3154   6.164   2.767   3.493
 1050TIP3   OH2 3155   1.167   5.188   4.080
 1050TIP3    H1 3156   1.074   5.169   4.088
 1050TIP3    H2 3157   1.186   5.180   3.986
 1051TIP3   OH2 3158   0.293   1.771   3.228
 1051TIP3    H1 3159   0.305   1.792   3.320
 1051TIP3    H2 3160   0.257   1.682   3.227
 1052TIP3   OH2 3161   5.496   5.534   4.951
 1052TIP3    H1 3162   5.431   5.478   4.995
 1052TIP3    H2 3163   5.580   5.499   4.980
 1053TIP3   OH2 3164   4.409   4.643   0.299
 1053TIP3    H1 3165   4.497   4.630   0.336
 1053TIP3    H2 3166   4.392   4.736   0.309
 1054TIP3   OH2 3167   1.227   1.585   5.192
 1054TIP3    H1 3168   1.148   1.545   5.155
 1054TIP3    H2 3169   1.293   1.577   5.123
 1055TIP3   OH2 3170   1.281   1.489   4.338
 1055TIP3    H1 3171   1.323   1.526   4.260
 1055TIP3    H2 3172   1.205   1.545   4.354
 1056TIP3   OH2 3173   1.130   1.344   1.414
 1056TIP3    H1 3174   1.050   1.322   1.366
 1056TIP3    H2 3175   1.132   1.440   1.413
 1057TIP3   OH2 3176   2.242   1.868   0.705
 1057TIP3    H1 3177   2.316   1.901   0.654
 1057TIP3    H2 3178   2.281   1.836   0.786
 1058TIP3   OH2 3179   1.699   4.013   2.395
 1058TIP3    H1 3180   1.709   3.920   2.373
 1058TIP3    H2 3181   1.723   4.018   2.487
 1059TIP3   OH2 3182   1.269   1.746   2.130
 1059TIP3    H1 3183   1.193   1.803   2.118
 1059TIP3    H2 3184   1.259   1.678   2.063
 1060TIP3   OH2 3185   5.954   1.213   3.342
 1060TIP3    H1 3186   5.893   1.269   3.295
 1060TIP3    H2 3187   6.040   1.242   3.312
 1061TIP3   OH2 3188   5.079   0.991   1.190
 1061TIP3    H1 3189   5.009   1.053   1.171
 1061TIP3    H2 3190   5.153   1.021   1.138
 1062TIP3   OH2 3191   1.465   3.149   3.110
 1062TIP3    H1 3192   1.527   3.076   3.107
 1062TIP3    H2 3193   1.499   3.207   3.178
 1063TIP3   OH2 3194   2.888   3.170   2.539
 1063TIP3    H1 3195   2.903   3.176   2.445
 1063TIP3    H2 3196   2.798   3.140   2.547
 1064TIP3   OH2 3197   5.079   1.762   3.318
 1064TIP3    H1 3198   5.168   1.796   3.313
 1064TIP3    H2 3199   5.028   1.833   3.358
 1065TIP3   OH2 3200   0.016   2.421   2.856
 1065TIP3    H1 3201   0.003   2.485   2.926
 1065TIP3    H2 3202  -0.014   2.465   2.777
 1066TIP3   OH2 3203   3.823   5.104   1.821
 1066TIP3    H1 3204   3.759   5.168   1.853
 1066TIP3    H2 3205   3.824   5.116   1.726
 1067TIP3   OH2 3206   5.480   1.387   3.047
 1067TIP3    H1 3207   5.480   1.450   3.119
 1067TIP3    H2 3208   5.502   1.439   2.970
 1068TIP3   OH2 3209   0.937   0.226   1.395
 1068TIP3    H1 3210   0.888   0.151   1.429
 1068TIP3    H2 3211   0.890   0.251   1.315
 1069TIP3   OH2 3212   5.422   0.007   2.415
 1069TIP3    H1 3213   5.346   0.019   2.359
 1069TIP3    H2 3214   5.427   0.087   2.467
 1070TIP3   OH2 3215   3.146   0.520   3.967
 1070TIP3    H1 3216   3.149   0.587   3.898
 1070TIP3    H2 3217   3.235   0.485   3.970
 1071TIP3   OH2 3218   3.933   5.483   1.097
 1071TIP3    H1 3219   3.927   5.390   1.075
 1071TIP3    H2 3220   4.011   5.513   1.051
 1072TIP3   OH2 3221   0.307   2.920   0.177
 1072TIP3    H1 3222   0.286   2.931   0.085
 1072TIP3    H2 3223   0.391   2.964   0.188
 1073TIP3   OH2 3224   5.595   3.697   4.141
 1073TIP3    H1 3225   5.666   3.747   4.180
 1073TIP3    H2 3226   5.531   3.687   4.211
 1074TIP3   OH2 3227   3.255   5.726   1.518
 1074TIP3    H1 3228   3.311   5.691   1.587
 1074TIP3    H2 3229   3.253   5.820   1.535
 1075TIP3   OH2 3230   1.521   2.862   0.298
 1075TIP3    H1 3231   1.472   2.803   0.354
 1075TIP3    H2 3232   1.486   2.846   0.210
 1076TIP3   OH2 3233   6.123   5.792   4.258
 1076TIP3    H1 3234   6.078   5.852   4.318
 1076TIP3    H2 3235   6.169   5.850   4.197
 1077TIP3   OH2 3236   4.622   2.801   0.267
 1077TIP3    H1 3237   4.601   2.893   0.282
 1077TIP3    H2 3238   4.687   2.802   0.197
 1078TIP3   OH2 3239   2.371   0.434   4.781
 1078TIP3    H1 3240   2.388   0.472   4.695
 1078TIP3    H2 3241   2.280   0.457   4.800
 1079TIP3   OH2 3242   0.647   2.992   1.394
 1079TIP3    H1 3243   0.608   2.951   1.470
 1079TIP3    H2 3244   0.573   3.028   1.345
 1080TIP3   OH2 3245   2.447   0.148   3.065
 1080TIP3    H1 3246   2.442   0.135   3.160
 1080TIP3    H2 3247   2.365   0.190   3.042
 1081TIP3   OH2 3248   4.304   3.404   1.208
 1081TIP3    H1 3249   4.277   3.490   1.175
 1081TIP3    H2 3250   4.350   3.424   1.290
 1082TIP3   OH2 3251   5.913   5.747   3.306
 1082TIP3    H1 3252   5.910   5.696   3.225
 1082TIP3    H2 3253   5.958   5.691   3.368
 1083TIP3   OH2 3254   4.535   5.718   2.033
 1083TIP3    H1 3255   4.526   5.807   2.067
 1083TIP3    H2 3256   4.572   5.668   2.106
 1084TIP3   OH2 3257   3.115   1.351   0.374
 1084TIP3    H1 3258   3.209   1.343   0.363
 1084TIP3    H2 3259   3.078   1.303   0.300
 1085TIP3   OH2 3260   2.161   5.775   4.563
 1085TIP3    H1 3261   2.184   5.796   4.473
 1085TIP3    H2 3262   2.160   5.860   4.608
 1086TIP3   OH2 3263   4.623   0.621   4.044
 1086TIP3    H1 3264   4.697   0.650   3.991
 1086TIP3    H2 3265   4.660   0.556   4.103
 1087TIP3   OH2 3266   4.105   5.090   0.582
 1087TIP3    H1 3267   4.097   4.999   0.609
 1087TIP3    H2 3268   4.124   5.087   0.488
 1088TIP3   OH2 3269   2.039   5.121   3.604
 1088TIP3    H1 3270   1.950   5.117   3.569
 1088TIP3    H2 3271   2.094   5.084   3.535
 1089TIP3   OH2 3272   1.172   1.160   0.235
 1089TIP3    H1 3273   1.091   1.211   0.229
 1089TIP3    H2 3274   1.237   1.211   0.187
 1090TIP3   OH2 3275   0.254   1.870   0.408
 1090TIP3    H1 3276   0.223   1.846   0.496
 1090TIP3    H2 3277   0.340   1.908   0.424
 1091TIP3   OH2 3278   2.696   5.910   3.849
 1091TIP3    H1 3279   2.673   5.828   3.806
 1091TIP3    H2 3280   2.613   5.942   3.885
 1092TIP3   OH2 3281   5.864   0.096   3.455
 1092TIP3    H1 3282   5.846   0.019   3.510
 1092TIP3    H2 3283   5.867   0.169   3.517
 1093TIP3   OH2 3284   5.136   0.487   1.235
 1093TIP3    H1 3285   5.136   0.499   1.330
 1093TIP3    H2 3286   5.142   0.392   1.224
 1094TIP3   OH2 3287   2.928   0.837   3.473
 1094TIP3    H1 3288   2.901   0.844   3.565
 1094TIP3    H2 3289   3.002   0.898   3.466
 1095TIP3   OH2 3290   2.418   5.630   4.788
 1095TIP3    H1 3291   2.378   5.546   4.771
 1095TIP3    H2 3292   2.506   5.623   4.752
 1096TIP3   OH2 3293   2.569   5.375   4.137
 1096TIP3    H1 3294   2.608   5.295   4.103
 1096TIP3    H2 3295   2.563   5.433   4.061
 1097TIP3   OH2 3296   1.941   5.799   1.066
 1097TIP3    H1 3297   1.974   5.886   1.042
 1097TIP3    H2 3298   1.854   5.814   1.100
 1098TIP3   OH2 3299   0.802   4.946   4.984
 1098TIP3    H1 3300   0.893   4.949   4.954
 1098TIP3    H2 3301   0.795   4.863   5.030
 1099TIP3   OH2 3302   5.090   5.824   3.314
 1099TIP3    H1 3303   5.093   5.920   3.309
 1099TIP3    H2 3304   5.038   5.797   3.239
 1100TIP3   OH2 3305   1.675   0.086   1.719
 1100TIP3    H1 3306   1.691   0.150   1.649
 1100TIP3    H2 3307   1.655   0.140   1.795
 1101TIP3   OH2 3308   3.202   5.441   1.474
 1101TIP3    H1 3309   3.238   5.530   1.470
 1101TIP3    H2 3310   3.129   5.448   1.535
 1102TIP3   OH2 3311   4.450   1.343   0.296
 1102TIP3    H1 3312   4.394   1.376   0.226
 1102TIP3    H2 3313   4.539   1.362   0.268
 1103TIP3   OH2 3314   2.152   3.340   1.826
 1103TIP3    H1 3315   2.197   3.402   1.883
 1103TIP3    H2 3316   2.059   3.357   1.841
 1104TIP3   OH2 3317   1.029   0.264   2.455
 1104TIP3    H1 3318   1.030   0.355   2.484
 1104TIP3    H2 3319   0.965   0.221   2.510
 1105TIP3   OH2 3320   4.913   0.408   4.415
 1105TIP3    H1 3321   5.003   0.399   4.445
 1105TIP3    H2 3322   4.861   0.369   4.486
 1106TIP3   OH2 3323   1.215   0.223   3.844
 1106TIP3    H1 3324   1.249   0.312   3.832
 1106TIP3    H2 3325   1.276   0.167   3.795
 1107TIP3   OH2 3326   6.010   0.628   4.361
 1107TIP3    H1 3327   5.988   0.652   4.271
 1107TIP3    H2 3328   6.092   0.580   4.354
 1108TIP3   OH2 3329   5.001   2.515   2.267
 1108TIP3    H1 3330   4.955   2.589   2.307
 1108TIP3    H2 3331   5.081   2.554   2.231
 1109TIP3   OH2 3332   1.983   0.462   3.166
 1109TIP3    H1 3333   1.899   0.502   3.190
 1109TIP3    H2 3334   2.013   0.513   3.091
 1110TIP3   OH2 3335   0.525   4.493   4.451
 1110TIP3    H1 3336   0.521   4.495   4.547
 1110TIP3    H2 3337   0.435   4.504   4.423
 1111TIP3   OH2 3338   0.664   4.405   0.141
 1111TIP3    H1 3339   0.697   4.316   0.151
 1111TIP3    H2 3340   0.715   4.441   0.068
 1112TIP3   OH2 3341   3.391   4.177   1.301
 1112TIP3    H1 3342   3.322   4.242   1.311
 1112TIP3    H2 3343   3.366   4.127   1.223
 1113TIP3   OH2 3344   4.401   0.759   4.152
 1113TIP3    H1 3345   4.399   0.809   4.070
 1113TIP3    H2 3346   4.469   0.694   4.139
 1114TIP3   OH2 3347   5.763   4.528   3.792
 1114TIP3    H1 3348   5.827   4.490   3.851
 1114TIP3    H2 3349   5.680   4.488   3.818
 1115TIP3   OH2 3350   3.181   1.389   1.400
 1115TIP3    H1 3351   3.160   1.472   1.357
 1115TIP3    H2 3352   3.274   1.376   1.382
 1116TIP3   OH2 3353   3.666   1.304   1.983
 1116TIP3    H1 3354   3.612   1.225   1.983
 1116TIP3    H2 3355   3.737   1.286   2.044
 1117TIP3   OH2 3356   4.312   3.944   0.750
 1117TIP3    H1 3357   4.366   3.865   0.739
 1117TIP3    H2 3358   4.234   3.913   0.797
 1118TIP3   OH2 3359   1.219   2.547   3.884
 1118TIP3    H1 3360   1.270   2.529   3.805
 1118TIP3    H2 3361   1.228   2.468   3.937
 1119TIP3   OH2 3362   2.127   2.605   2.942
 1119TIP3    H1 3363   2.191   2.640   3.003
 1119TIP3    H2 3364   2.056   2.670   2.942
 1120TIP3   OH2 3365   2.353   1.289   0.117
 1120TIP3    H1 3366   2.333   1.218   0.178
 1120TIP3    H2 3367   2.360   1.366   0.172
 1121TIP3   OH2 3368   2.901   4.226   4.848
 1121TIP3    H1 3369   2.900   4.139   4.810
 1121TIP3    H2 3370   2.964   4.275   4.795
 1122TIP3   OH2 3371   1.331   3.736   4.479
 1122TIP3    H1 3372   1.312   3.743   4.386
 1122TIP3    H2 3373   1.286   3.812   4.518
 1123TIP3   OH2 3374   2.240   3.024   3.064
 1123TIP3    H1 3375   2.162   2.998   3.015
 1123TIP3    H2 3376   2.309   3.026   2.998
 1124TIP3   OH2 3377   1.354   2.366   1.382
 1124TIP3    H1 3378   1.276   2.398   1.338
 1124TIP3    H2 3379   1.384   2.293   1.327
 1125TIP3   OH2 3380   3.627   2.303   5.054
 1125TIP3    H1 3381   3.620   2.251   5.134
 1125TIP3    H2 3382   3.719   2.328   5.050
 1126TIP3   OH2 3383   1.839   5.254   0.308
 1126TIP3    H1 3384   1.769   5.253   0.374
 1126TIP3    H2 3385   1.913   5.296   0.352
 1127TIP3   OH2 3386   5.874   2.297   3.599
 1127TIP3    H1 3387   5.867   2.270   3.691
 1127TIP3    H2 3388   5.806   2.246   3.555
 1128TIP3   OH2 3389   2.545   5.189   3.337
 1128TIP3    H1 3390   2.628   5.173   3.383
 1128TIP3    H2 3391   2.565   5.169   3.245
 1129TIP3   OH2 3392   6.014   2.818   5.120
 1129TIP3    H1 3393   6.102   2.806   5.155
 1129TIP3    H2 3394   6.024   2.878   5.047
 1130TIP3   OH2 3395   2.566   0.168   4.470
 1130TIP3    H1 3396   2.566   0.132   4.381
 1130TIP3    H2 3397   2.482   0.213   4.477
 1131TIP3   OH2 3398   5.504   5.114   3.940
 1131TIP3    H1 3399   5.532   5.023   3.928
 1131TIP3    H2 3400   5.566   5.166   3.888
 1132TIP3   OH2 3401   3.754   0.496   2.039
 1132TIP3    H1 3402   3.833   0.513   1.989
 1132TIP3    H2 3403   3.715   0.419   1.998
 1133TIP3   OH2 3404   3.125   4.296   2.796
 1133TIP3    H1 3405   3.121   4.392   2.795
 1133TIP3    H2 3406   3.092   4.272   2.882
 1134TIP3   OH2 3407   2.489   3.005   1.555
 1134TIP3    H1 3408   2.488   2.914   1.582
 1134TIP3    H2 3409   2.427   3.049   1.613
 1135TIP3   OH2 3410   2.811   1.029   2.585
 1135TIP3    H1 3411   2.726   0.986   2.575
 1135TIP3    H2 3412   2.839   1.007   2.674
 1136TIP3   OH2 3413   2.336   4.237   2.997
 1136TIP3    H1 3414   2.276   4.230   2.923
 1136TIP3    H2 3415   2.409   4.290   2.965
 1137TIP3   OH2 3416   0.543   0.124   4.811
 1137TIP3    H1 3417   0.639   0.124   4.812
 1137TIP3    H2 3418   0.521   0.092   4.723
 1138TIP3   OH2 3419   5.217   3.367   0.966
 1138TIP3    H1 3420   5.312   3.357   0.977
 1138TIP3    H2 3421   5.199   3.333   0.879
 1139TIP3   OH2 3422   4.639   0.790   2.160
 1139TIP3    H1 3423   4.577   0.859   2.140
 1139TIP3    H2 3424   4.601   0.711   2.121
 1140TIP3   OH2 3425   1.588   0.910   3.911
 1140TIP3    H1 3426   1.591   0.887   4.004
 1140TIP3    H2 3427   1.592   0.826   3.865
 1141TIP3   OH2 3428   3.155   5.754   2.140
 1141TIP3    H1 3429   3.147   5.765   2.045
 1141TIP3    H2 3430   3.179   5.662   2.152
 1142TIP3   OH2 3431   4.480   5.526   3.038
 1142TIP3    H1 3432   4.484   5.487   3.125
 1142TIP3    H2 3433   4.495   5.619   3.053
 1143TIP3   OH2 3434   4.647   3.621   2.258
 1143TIP3    H1 3435   4.571   3.677   2.277
 1143TIP3    H2 3436   4.624   3.577   2.177
 1144TIP3   OH2 3437   2.939   4.920   4.478
 1144TIP3    H1 3438   2.935   4.858   4.551
 1144TIP3    H2 3439   2.851   4.919   4.441
 1145TIP3   OH2 3440   4.563   4.626   1.930
 1145TIP3    H1 3441   4.606   4.692   1.985
 1145TIP3    H2 3442   4.502   4.675   1.875
 1146TIP3   OH2 3443   6.002   5.596   4.870
 1146TIP3    H1 3444   6.018   5.645   4.951
 1146TIP3    H2 3445   6.074   5.533   4.866
 1147TIP3   OH2 3446   5.097   2.849   0.047
 1147TIP3    H1 3447   5.110   2.755   0.032
 1147TIP3    H2 3448   5.143   2.892  -0.025
 1148TIP3   OH2 3449   0.581   1.347   4.337
 1148TIP3    H1 3450   0.609   1.318   4.424
 1148TIP3    H2 3451   0.558   1.267   4.291
 1149TIP3   OH2 3452   4.295   5.739   1.506
 1149TIP3    H1 3453   4.328   5.649   1.500
 1149TIP3    H2 3454   4.201   5.731   1.489
 1150TIP3   OH2 3455   4.174   2.002   2.709
 1150TIP3    H1 3456   4.207   1.964   2.790
 1150TIP3    H2 3457   4.087   1.964   2.699
 1151TIP3   OH2 3458   3.380   2.241   0.398
 1151TIP3    H1 3459   3.366   2.155   0.438
 1151TIP3    H2 3460   3.472   2.240   0.369
 1152TIP3   OH2 3461   2.152   5.626   4.889
 1152TIP3    H1 3462   2.240   5.661   4.874
 1152TIP3    H2 3463   2.141   5.628   4.984
 1153TIP3   OH2 3464   0.037   3.010   2.766
 1153TIP3    H1 3465   0.047   2.998   2.672
 1153TIP3    H2 3466   0.027   2.922   2.801
 1154TIP3   OH2 3467   2.653   4.302   1.725
 1154TIP3    H1 3468   2.569   4.257   1.733
 1154TIP3    H2 3469   2.630   4.391   1.701
 1155TIP3   OH2 3470   3.452   4.534   0.326
 1155TIP3    H1 3471   3.416   4.446   0.329
 1155TIP3    H2 3472   3.459   4.554   0.232
 1156TIP3   OH2 3473   5.895   2.256   0.483
 1156TIP3    H1 3474   5.916   2.162   0.483
 1156TIP3    H2 3475   5.927   2.287   0.567
 1157TIP3   OH2 3476   0.233   4.689   2.389
 1157TIP3    H1 3477   0.239   4.752   2.318
 1157TIP3    H2 3478   0.257   4.605   2.349
 1158TIP3   OH2 3479   0.770   4.726   3.939
 1158TIP3    H1 3480   0.803   4.792   3.878
 1158TIP3    H2 3481   0.749   4.651   3.884
 1159TIP3   OH2 3482   0.884   1.635   1.012
 1159TIP3    H1 3483   0.971   1.635   1.051
 1159TIP3    H2 3484   0.864   1.543   0.997
 1160TIP3   OH2 3485   2.704   1.724   4.573
 1160TIP3    H1 3486   2.751   1.760   4.497
 1160TIP3    H2 3487   2.762   1.740   4.647
 1161TIP3   OH2 3488   4.079   5.476   4.293
 1161TIP3    H1 3489   4.092   5.462   4.387
 1161TIP3    H2 3490   4.015   5.547   4.288
 1162TIP3   OH2 3491   3.387   5.439   1.058
 1162TIP3    H1 3492   3.298   5.437   1.023
 1162TIP3    H2 3493   3.393   5.361   1.113
 1163TIP3   OH2 3494   5.127   0.458   2.564
 1163TIP3    H1 3495   5.220   0.479   2.570
 1163TIP3    H2 3496   5.113   0.436   2.472
 1164TIP3   OH2 3497   5.694   3.629   1.475
 1164TIP3    H1 3498   5.753   3.673   1.415
 1164TIP3    H2 3499   5.618   3.687   1.480
 1165TIP3   OH2 3500   3.901   2.948   1.494
 1165TIP3    H1 3501   3.884   3.042   1.503
 1165TIP3    H2 3502   3.822   2.906   1.527
 1166TIP3   OH2 3503   6.097   3.962   3.338
 1166TIP3    H1 3504   6.074   3.988   3.427
 1166TIP3    H2 3505   6.137   4.041   3.300
 1167TIP3   OH2 3506   2.756   3.489   3.674
 1167TIP3    H1 3507   2.797   3.564   3.632
 1167TIP3    H2 3508   2.814   3.415   3.654
 1168TIP3   OH2 3509   0.261   0.788   0.934
 1168TIP3    H1 3510   0.333   0.845   0.905
 1168TIP3    H2 3511   0.211   0.842   0.996
 1169TIP3   OH2 3512   1.673   0.321   2.757
 1169TIP3    H1 3513   1.681   0.267   2.835
 1169TIP3    H2 3514   1.746   0.294   2.701
 1170TIP3   OH2 3515   4.560   0.366   0.401
 1170TIP3    H1 3516   4.471   0.359   0.367
 1170TIP3    H2 3517   4.588   0.455   0.380
 1171TIP3   OH2 3518   1.832   3.722   2.886
 1171TIP3    H1 3519   1.744   3.686   2.877
 1171TIP3    H2 3520   1.819   3.817   2.892
 1172TIP3   OH2 3521   3.422   2.084   2.847
 1172TIP3    H1 3522   3.437   1.993   2.872
 1172TIP3    H2 3523   3.390   2.078   2.757
 1173TIP3   OH2 3524   0.323   3.464   1.943
 1173TIP3    H1 3525   0.389   3.404   1.977
 1173TIP3    H2 3526   0.260   3.474   2.014
 1174TIP3   OH2 3527   2.203   2.639   5.038
 1174TIP3    H1 3528   2.289   2.670   5.066
 1174TIP3    H2 3529   2.157   2.718   5.009
 1175TIP3   OH2 3530   4.543   2.650   4.582
 1175TIP3    H1 3531   4.496   2.616   4.506
 1175TIP3    H2 3532   4.492   2.621   4.658
 1176TIP3   OH2 3533   0.206   0.718   4.769
 1176TIP3    H1 3534   0.167   0.775   4.704
 1176TIP3    H2 3535   0.227   0.776   4.843
 1177TIP3   OH2 3536   5.850   3.925   1.856
 1177TIP3    H1 3537   5.809   3.975   1.785
 1177TIP3    H2 3538   5.809   3.957   1.936
 1178TIP3   OH2 3539   4.688   5.258   1.715
 1178TIP3    H1 3540   4.610   5.217   1.679
 1178TIP3    H2 3541   4.714   5.202   1.789
 1179TIP3   OH2 3542   0.382   2.348   0.411
 1179TIP3    H1 3543   0.418   2.321   0.326
 1179TIP3    H2 3544   0.292   2.317   0.409
 1180TIP3   OH2 3545   3.116   1.924   3.406
 1180TIP3    H1 3546   3.143   1.905   3.317
 1180TIP3    H2 3547   3.160   1.858   3.460
 1181TIP3   OH2 3548   0.454   4.348   0.342
 1181TIP3    H1 3549   0.482   4.393   0.262
 1181TIP3    H2 3550   0.398   4.412   0.386
 1182TIP3   OH2 3551   5.994   3.609   2.001
 1182TIP3    H1 3552   5.928   3.678   2.012
 1182TIP3    H2 3553   6.062   3.650   1.948
 1183TIP3   OH2 3554   1.294   5.733   0.215
 1183TIP3    H1 3555   1.293   5.638   0.229
 1183TIP3    H2 3556   1.382   5.751   0.182
 1184TIP3   OH2 3557   4.859   3.402   2.020
 1184TIP3    H1 3558   4.765   3.408   2.040
 1184TIP3    H2 3559   4.901   3.462   2.081
 1185TIP3   OH2 3560   2.737   4.677   0.733
 1185TIP3    H1 3561   2.732   4.618   0.808
 1185TIP3    H2 3562   2.661   4.735   0.743
 1186TIP3   OH2 3563   2.500   5.530   2.800
 1186TIP3    H1 3564   2.551   5.456   2.835
 1186TIP3    H2 3565   2.543   5.552   2.717
 1187TIP3   OH2 3566   1.229   3.892   0.103
 1187TIP3    H1 3567   1.224   3.804   0.065
 1187TIP3    H2 3568   1.289   3.882   0.178
 1188TIP3   OH2 3569   4.413   1.773   0.661
 1188TIP3    H1 3570   4.472   1.809   0.727
 1188TIP3    H2 3571   4.448   1.803   0.577
 1189TIP3   OH2 3572   4.429   1.642   1.287
 1189TIP3    H1 3573   4.504   1.612   1.339
 1189TIP3    H2 3574   4.354   1.598   1.326
 1190TIP3   OH2 3575   5.116   0.465   1.511
 1190TIP3    H1 3576   5.027   0.488   1.485
 1190TIP3    H2 3577   5.106   0.408   1.587
 1191TIP3   OH2 3578   3.456   4.485   1.873
 1191TIP3    H1 3579   3.472   4.526   1.788
 1191TIP3    H2 3580   3.524   4.520   1.931
 1192TIP3   OH2 3581   3.831   1.087   1.707
 1192TIP3    H1 3582   3.846   1.168   1.658
 1192TIP3    H2 3583   3.888   1.023   1.665
 1193TIP3   OH2 3584   1.670   4.852   4.176
 1193TIP3    H1 3585   1.595   4.877   4.121
 1193TIP3    H2 3586   1.720   4.932   4.186
 1194TIP3   OH2 3587   1.412   0.657   1.830
 1194TIP3    H1 3588   1.394   0.748   1.851
 1194TIP3    H2 3589   1.372   0.607   1.901
 1195TIP3   OH2 3590   1.021   3.061   4.868
 1195TIP3    H1 3591   1.063   2.988   4.913
 1195TIP3    H2 3592   1.066   3.064   4.783
 1196TIP3   OH2 3593   3.926   1.275   5.083
 1196TIP3    H1 3594   4.010   1.242   5.115
 1196TIP3    H2 3595   3.912   1.229   5.001
 1197TIP3   OH2 3596   1.527   2.057   4.681
 1197TIP3    H1 3597   1.476   2.131   4.715
 1197TIP3    H2 3598   1.567   2.018   4.759
 1198TIP3   OH2 3599   0.766   2.976   4.475
 1198TIP3    H1 3600   0.676   2.947   4.470
 1198TIP3    H2 3601   0.796   2.981   4.384
 1199TIP3   OH2 3602   5.670   2.996   4.800
 1199TIP3    H1 3603   5.638   3.019   4.712
 1199TIP3    H2 3604   5.605   3.033   4.859
 1200TIP3   OH2 3605   5.861   5.159   0.286
 1200TIP3    H1 3606   5.856   5.078   0.337
 1200TIP3    H2 3607   5.940   5.147   0.232
 1201TIP3   OH2 3608   3.616   1.761   4.511
 1201TIP3    H1 3609   3.697   1.803   4.538
 1201TIP3    H2 3610   3.548   1.806   4.560
 1202TIP3   OH2 3611   0.802   3.989   4.870
 1202TIP3    H1 3612   0.839   3.902   4.884
 1202TIP3    H2 3613   0.871   4.037   4.825
 1203TIP3   OH2 3614   3.353   5.739   4.648
 1203TIP3    H1 3615   3.289   5.669   4.663
 1203TIP3    H2 3616   3.315   5.792   4.578
 1204TIP3   OH2 3617   4.921   2.629   2.532
 1204TIP3    H1 3618   4.989   2.696   2.519
 1204TIP3    H2 3619   4.944   2.587   2.615
 1205TIP3   OH2 3620   5.280   5.462   1.460
 1205TIP3    H1 3621   5.308   5.491   1.373
 1205TIP3    H2 3622   5.191   5.428   1.446
 1206TIP3   OH2 3623   3.137   5.537   2.421
 1206TIP3    H1 3624   3.228   5.528   2.448
 1206TIP3    H2 3625   3.086   5.510   2.497
 1207TIP3   OH2 3626   1.699   0.460   3.439
 1207TIP3    H1 3627   1.674   0.383   3.388
 1207TIP3    H2 3628   1.718   0.527   3.373
 1208TIP3   OH2 3629   4.974   4.701   1.521
 1208TIP3    H1 3630   4.994   4.613   1.488
 1208TIP3    H2 3631   5.036   4.758   1.476
 1209TIP3   OH2 3632   6.142   5.468   1.746
 1209TIP3    H1 3633   6.048   5.467   1.727
 1209TIP3    H2 3634   6.169   5.377   1.734
 1210TIP3   OH2 3635   2.639   0.346   2.641
 1210TIP3    H1 3636   2.557   0.336   2.593
 1210TIP3    H2 3637   2.704   0.303   2.585
 1211TIP3   OH2 3638   4.404   0.784   4.901
 1211TIP3    H1 3639   4.476   0.731   4.866
 1211TIP3    H2 3640   4.394   0.855   4.837
 1212TIP3   OH2 3641   1.608   2.057   1.845
 1212TIP3    H1 3642   1.605   1.961   1.849
 1212TIP3    H2 3643   1.651   2.076   1.762
 1213TIP3   OH2 3644   0.257   3.642   4.284
 1213TIP3    H1 3645   0.257   3.549   4.261
 1213TIP3    H2 3646   0.324   3.680   4.227
 1214TIP3   OH2 3647   1.452   3.129   0.857
 1214TIP3    H1 3648   1.451   3.224   0.863
 1214TIP3    H2 3649   1.362   3.105   0.837
 1215TIP3   OH2 3650   3.583   0.491   4.648
 1215TIP3    H1 3651   3.533   0.485   4.729
 1215TIP3    H2 3652   3.651   0.424   4.656
 1216TIP3   OH2 3653   2.082   1.340   0.075
 1216TIP3    H1 3654   2.172   1.313   0.057
 1216TIP3    H2 3655   2.036   1.259   0.096
 1217TIP3   OH2 3656   5.939   4.430   5.078
 1217TIP3    H1 3657   6.023   4.386   5.093
 1217TIP3    H2 3658   5.877   4.358   5.065
 1218TIP3   OH2 3659   0.988   1.393   1.963
 1218TIP3    H1 3660   0.983   1.488   1.969
 1218TIP3    H2 3661   1.041   1.377   1.884
 1219TIP3   OH2 3662   5.652   3.854   1.139
 1219TIP3    H1 3663   5.630   3.913   1.067
 1219TIP3    H2 3664   5.583   3.788   1.138
 1220TIP3   OH2 3665   4.989   4.885   0.428
 1220TIP3    H1 3666   5.008   4.839   0.510
 1220TIP3    H2 3667   5.022   4.827   0.359
 1221TIP3   OH2 3668   5.985   1.738   1.559
 1221TIP3    H1 3669   5.966   1.811   1.501
 1221TIP3    H2 3670   6.075   1.753   1.589
 1222TIP3   OH2 3671   4.885   3.527   1.758
 1222TIP3    H1 3672   4.936   3.447   1.758
 1222TIP3    H2 3673   4.834   3.524   1.839
 1223TIP3   OH2 3674   1.996   5.576   3.099
 1223TIP3    H1 3675   2.084   5.555   3.070
 1223TIP3    H2 3676   1.941   5.506   3.063
 1224TIP3   OH2 3677   2.211   4.731   3.792
 1224TIP3    H1 3678   2.188   4.729   3.885
 1224TIP3    H2 3679   2.264   4.653   3.778
 1225TIP3   OH2 3680   0.178   0.586   1.882
 1225TIP3    H1 3681   0.196   0.493   1.866
 1225TIP3    H2 3682   0.083   0.593   1.881
 1226TIP3   OH2 3683   3.312   0.041   3.997
 1226TIP3    H1 3684   3.314  -0.051   4.022
 1226TIP3    H2 3685   3.402   0.072   4.010
 1227TIP3   OH2 3686   0.262   4.678   3.357
 1227TIP3    H1 3687   0.297   4.632   3.281
 1227TIP3    H2 3688   0.170   4.696   3.335
 1228TIP3   OH2 3689   1.020   4.236   4.108
 1228TIP3    H1 3690   1.043   4.170   4.174
 1228TIP3    H2 3691   0.928   4.219   4.088
 1229TIP3   OH2 3692   0.711   2.116   2.260
 1229TIP3    H1 3693   0.630   2.072   2.235
 1229TIP3    H2 3694   0.684   2.181   2.325
 1230TIP3   OH2 3695   0.515   2.499   3.234
 1230TIP3    H1 3696   0.462   2.457   3.302
 1230TIP3    H2 3697   0.540   2.427   3.176
 1231TIP3   OH2 3698   5.414   1.795   1.830
 1231TIP3    H1 3699   5.332   1.752   1.854
 1231TIP3    H2 3700   5.421   1.782   1.736
 1232TIP3   OH2 3701   1.528   5.847   1.715
 1232TIP3    H1 3702   1.541   5.821   1.806
 1232TIP3    H2 3703   1.537   5.766   1.665
 1233TIP3   OH2 3704   3.514   3.826   3.677
 1233TIP3    H1 3705   3.505   3.731   3.667
 1233TIP3    H2 3706   3.485   3.844   3.767
 1234TIP3   OH2 3707   0.770   5.886   3.684
 1234TIP3    H1 3708   0.730   5.843   3.608
 1234TIP3    H2 3709   0.864   5.877   3.670
 1235TIP3   OH2 3710   6.057   4.174   4.534
 1235TIP3    H1 3711   6.001   4.165   4.457
 1235TIP3    H2 3712   6.124   4.236   4.507
 1236TIP3   OH2 3713   4.778   3.726   3.589
 1236TIP3    H1 3714   4.827   3.645   3.606
 1236TIP3    H2 3715   4.704   3.722   3.650
 1237TIP3   OH2 3716   5.759   0.132   1.422
 1237TIP3    H1 3717   5.812   0.156   1.346
 1237TIP3    H2 3718   5.769   0.038   1.430
 1238TIP3   OH2 3719   0.263   0.965   4.407
 1238TIP3    H1 3720   0.311   0.919   4.338
 1238TIP3    H2 3721   0.292   1.056   4.399
 1239TIP3   OH2 3722   0.071   1.475   1.898
 1239TIP3    H1 3723   0.031   1.439   1.977
 1239TIP3    H2 3724   0.147   1.420   1.882
 1240TIP3   OH2 3725   0.052   1.310   3.392
 1240TIP3    H1 3726   0.047   1.403   3.372
 1240TIP3    H2 3727   0.061   1.267   3.307
 1241TIP3   OH2 3728   0.030   5.080   2.474
 1241TIP3    H1 3729   0.122   5.055   2.470
 1241TIP3    H2 3730   0.031   5.175   2.485
 1242TIP3   OH2 3731   0.056   1.990   1.757
 1242TIP3    H1 3732   0.061   1.994   1.852
 1242TIP3    H2 3733  -0.028   2.030   1.736
 1243TIP3   OH2 3734   2.674   3.357   4.933
 1243TIP3    H1 3735   2.581   3.374   4.947
 1243TIP3    H2 3736   2.675   3.276   4.881
 1244TIP3   OH2 3737   0.908   2.188   3.176
 1244TIP3    H1 3738   0.979   2.141   3.132
 1244TIP3    H2 3739   0.911   2.159   3.267
 1245TIP3   OH2 3740   2.896   2.056   0.015
 1245TIP3    H1 3741   2.902   2.113   0.091
 1245TIP3    H2 3742   2.937   2.106  -0.056
 1246TIP3   OH2 3743   0.316   0.130   3.699
 1246TIP3    H1 3744   0.325   0.035   3.705
 1246TIP3    H2 3745   0.339   0.163   3.786
 1247TIP3   OH2 3746   1.643   1.225   4.118
 1247TIP3    H1 3747   1.691   1.208   4.036
 1247TIP3    H2 3748   1.650   1.143   4.167
 1248TIP3   OH2 3749   4.308   1.746   2.074
 1248TIP3    H1 3750   4.284   1.748   2.167
 1248TIP3    H2 3751   4.396   1.707   2.073
 1249TIP3   OH2 3752   3.468   0.153   1.491
 1249TIP3    H1 3753   3.497   0.068   1.459
 1249TIP3    H2 3754   3.500   0.157   1.581
 1250TIP3   OH2 3755   5.510   4.077   1.824
 1250TIP3    H1 3756   5.588   4.072   1.768
 1250TIP3    H2 3757   5.545   4.080   1.913
 1251TIP3   OH2 3758   5.341   3.812   3.975
 1251TIP3    H1 3759   5.427   3.854   3.981
 1251TIP3    H2 3760   5.294   3.842   4.053
 1252TIP3   OH2 3761   0.394   3.241   5.104
 1252TIP3    H1 3762   0.478   3.221   5.063
 1252TIP3    H2 3763   0.365   3.157   5.142
 1253TIP3   OH2 3764   6.189   0.460   0.750
 1253TIP3    H1 3765   6.218   0.494   0.835
 1253TIP3    H2 3766   6.181   0.537   0.695
 1254TIP3   OH2 3767   2.816   0.321   1.460
 1254TIP3    H1 3768   2.814   0.417   1.467
 1254TIP3    H2 3769   2.832   0.292   1.550
 1255TIP3   OH2 3770   2.016   2.534   0.440
 1255TIP3    H1 3771   2.088   2.550   0.379
 1255TIP3    H2 3772   1.939   2.520   0.384
 1256TIP3   OH2 3773   1.846   1.176   1.776
 1256TIP3    H1 3774   1.879   1.247   1.830
 1256TIP3    H2 3775   1.904   1.102   1.795
 1257TIP3   OH2 3776   1.207   0.801   2.632
 1257TIP3    H1 3777   1.249   0.735   2.687
 1257TIP3    H2 3778   1.265   0.810   2.556
 1258TIP3   OH2 3779   2.430   1.880   4.293
 1258TIP3    H1 3780   2.512   1.876   4.244
 1258TIP3    H2 3781   2.366   1.838   4.235
 1259TIP3   OH2 3782   3.117   1.237   1.064
 1259TIP3    H1 3783   3.155   1.213   1.148
 1259TIP3    H2 3784   3.174   1.196   0.999
 1260TIP3   OH2 3785   1.381   3.752   2.950
 1260TIP3    H1 3786   1.344   3.689   3.012
 1260TIP3    H2 3787   1.306   3.795   2.911
 1261TIP3   OH2 3788   3.505   1.038   3.129
 1261TIP3    H1 3789   3.487   1.102   3.061
 1261TIP3    H2 3790   3.472   1.078   3.209
 1262TIP3   OH2 3791   3.974   0.487   3.850
 1262TIP3    H1 3792   3.942   0.398   3.841
 1262TIP3    H2 3793   4.069   0.479   3.841
 1263TIP3   OH2 3794   4.677   1.358   2.956
 1263TIP3    H1 3795   4.702   1.337   3.046
 1263TIP3    H2 3796   4.617   1.287   2.931
 1264TIP3   OH2 3797   4.664   1.057   4.242
 1264TIP3    H1 3798   4.672   1.025   4.152
 1264TIP3    H2 3799   4.735   1.014   4.289
 1265TIP3   OH2 3800   2.259   4.055   1.083
 1265TIP3    H1 3801   2.218   4.003   1.152
 1265TIP3    H2 3802   2.270   3.994   1.010
 1266TIP3   OH2 3803   5.464   0.094   0.403
 1266TIP3    H1 3804   5.522   0.024   0.373
 1266TIP3    H2 3805   5.401   0.105   0.332
 1267TIP3   OH2 3806   1.595   2.871   4.460
 1267TIP3    H1 3807   1.658   2.938   4.433
 1267TIP3    H2 3808   1.555   2.907   4.539
 1268TIP3   OH2 3809   1.376   2.867   3.194
 1268TIP3    H1 3810   1.443   2.803   3.173
 1268TIP3    H2 3811   1.413   2.919   3.266
 1269TIP3   OH2 3812   4.609   0.513   1.854
 1269TIP3    H1 3813   4.675   0.489   1.918
 1269TIP3    H2 3814   4.583   0.602   1.878
 1270TIP3   OH2 3815   2.587   1.220   4.363
 1270TIP3    H1 3816   2.582   1.181   4.450
 1270TIP3    H2 3817   2.677   1.252   4.356
 1271TIP3   OH2 3818   1.222   1.077   4.992
 1271TIP3    H1 3819   1.262   1.098   5.077
 1271TIP3    H2 3820   1.296   1.060   4.935
 1272TIP3   OH2 3821   1.026   4.581   3.802
 1272TIP3    H1 3822   0.976   4.532   3.867
 1272TIP3    H2 3823   1.000   4.542   3.718
 1273TIP3   OH2 3824   2.052   5.205   0.642
 1273TIP3    H1 3825   2.038   5.112   0.625
 1273TIP3    H2 3826   1.976   5.231   0.694
 1274TIP3   OH2 3827   1.997   3.657   2.132
 1274TIP3    H1 3828   1.983   3.746   2.163
 1274TIP3    H2 3829   1.984   3.602   2.209
 1275TIP3   OH2 3830   2.657   1.789   2.592
 1275TIP3    H1 3831   2.686   1.879   2.579
 1275TIP3    H2 3832   2.597   1.772   2.521
 1276TIP3   OH2 3833   0.753   3.517   2.488
 1276TIP3    H1 3834   0.776   3.514   2.395
 1276TIP3    H2 3835   0.821   3.464   2.531
 1277TIP3   OH2 3836   0.044   0.365   4.561
 1277TIP3    H1 3837   0.122   0.309   4.560
 1277TIP3    H2 3838   0.068   0.440   4.506
 1278TIP3   OH2 3839   0.498   4.729   0.446
 1278TIP3    H1 3840   0.563   4.757   0.510
 1278TIP3    H2 3841   0.416   4.724   0.495
 1279TIP3   OH2 3842   6.073   4.716   0.272
 1279TIP3    H1 3843   6.049   4.692   0.361
 1279TIP3    H2 3844   6.107   4.635   0.234
 1280TIP3   OH2 3845   2.500   0.435   4.283
 1280TIP3    H1 3846   2.591   0.418   4.307
 1280TIP3    H2 3847   2.450   0.413   4.362
 1281TIP3   OH2 3848   3.187   5.063   3.496
 1281TIP3    H1 3849   3.209   5.151   3.464
 1281TIP3    H2 3850   3.231   5.057   3.580
 1282TIP3   OH2 3851   4.409   3.093   0.644
 1282TIP3    H1 3852   4.332   3.149   0.654
 1282TIP3    H2 3853   4.396   3.023   0.708
 1283TIP3   OH2 3854   3.250   4.705   3.634
 1283TIP3    H1 3855   3.306   4.644   3.682
 1283TIP3    H2 3856   3.267   4.686   3.542
 1284TIP3   OH2 3857   2.383   4.637   3.449
 1284TIP3    H1 3858   2.338   4.577   3.509
 1284TIP3    H2 3859   2.333   4.632   3.368
 1285TIP3   OH2 3860   6.060   1.800   1.137
 1285TIP3    H1 3861   6.113   1.822   1.214
 1285TIP3    H2 3862   5.986   1.751   1.172
 1286TIP3   OH2 3863   4.935   0.889   3.347
 1286TIP3    H1 3864   4.887   0.888   3.264
 1286TIP3    H2 3865   4.967   0.799   3.356
 1287TIP3   OH2 3866   4.016   3.254   0.359
 1287TIP3    H1 3867   4.024   3.161   0.336
 1287TIP3    H2 3868   3.931   3.260   0.403
 1288TIP3   OH2 3869   6.153   5.154   4.525
 1288TIP3    H1 3870   6.141   5.248   4.511
 1288TIP3    H2 3871   6.120   5.113   4.446
 1289TIP3   OH2 3872   6.292   2.862   0.190
 1289TIP3    H1 3873   6.349   2.836   0.263
 1289TIP3    H2 3874   6.209   2.885   0.233
 1290TIP3   OH2 3875   1.679   2.130   1.560
 1290TIP3    H1 3876   1.630   2.130   1.478
 1290TIP3    H2 3877   1.757   2.077   1.542
 1291TIP3   OH2 3878   6.078   1.214   3.754
 1291TIP3    H1 3879   6.086   1.155   3.679
 1291TIP3    H2 3880   6.002   1.269   3.733
 1292TIP3   OH2 3881   6.232   0.247   2.286
 1292TIP3    H1 3882   6.214   0.250   2.380
 1292TIP3    H2 3883   6.258   0.156   2.270
 1293TIP3   OH2 3884   0.299   5.211   3.013
 1293TIP3    H1 3885   0.238   5.144   3.047
 1293TIP3    H2 3886   0.342   5.246   3.091
 1294TIP3   OH2 3887   4.627   0.562   2.967
 1294TIP3    H1 3888   4.537   0.548   2.999
 1294TIP3    H2 3889   4.641   0.492   2.905
 1295TIP3   OH2 3890   2.921   0.354   4.976
 1295TIP3    H1 3891   2.851   0.415   4.951
 1295TIP3    H2 3892   2.995   0.411   4.996
 1296TIP3   OH2 3893   0.734   3.592   1.355
 1296TIP3    H1 3894   0.816   3.629   1.389
 1296TIP3    H2 3895   0.691   3.666   1.312
 1297TIP3   OH2 3896   2.489   0.429   3.447
 1297TIP3    H1 3897   2.417   0.463   3.395
 1297TIP3    H2 3898   2.568   0.465   3.405
 1298TIP3   OH2 3899   4.061   4.586   2.632
 1298TIP3    H1 3900   4.009   4.660   2.603
 1298TIP3    H2 3901   4.142   4.592   2.582
 1299TIP3   OH2 3902   1.725   2.291   0.995
 1299TIP3    H1 3903   1.728   2.335   1.080
 1299TIP3    H2 3904   1.799   2.329   0.947
 1300TIP3   OH2 3905   4.013   0.552   1.903
 1300TIP3    H1 3906   4.045   0.627   1.854
 1300TIP3    H2 3907   4.080   0.535   1.969
 1301TIP3   OH2 3908   2.375   2.614   1.976
 1301TIP3    H1 3909   2.405   2.576   1.894
 1301TIP3    H2 3910   2.449   2.667   2.006
 1302TIP3   OH2 3911   2.471   3.862   3.621
 1302TIP3    H1 3912   2.443   3.954   3.615
 1302TIP3    H2 3913   2.486   3.848   3.714
 1303TIP3   OH2 3914   3.747   4.679   1.497
 1303TIP3    H1 3915   3.675   4.627   1.533
 1303TIP3    H2 3916   3.800   4.617   1.448
 1304TIP3   OH2 3917   1.509   2.886   3.451
 1304TIP3    H1 3918   1.476   2.950   3.514
 1304TIP3    H2 3919   1.572   2.834   3.500
 1305TIP3   OH2 3920   2.471   4.425   2.498
 1305TIP3    H1 3921   2.397   4.431   2.439
 1305TIP3    H2 3922   2.461   4.500   2.557
 1306TIP3   OH2 3923   1.926   1.204   1.099
 1306TIP3    H1 3924   1.988   1.270   1.067
 1306TIP3    H2 3925   1.979   1.144   1.151
 1307TIP3   OH2 3926   0.634   4.095   0.809
 1307TIP3    H1 3927   0.659   4.018   0.860
 1307TIP3    H2 3928   0.716   4.126   0.771
 1308TIP3   OH2 3929   1.433   0.235   4.981
 1308TIP3    H1 3930   1.475   0.151   4.999
 1308TIP3    H2 3931   1.366   0.214   4.916
 1309TIP3   OH2 3932   2.685   5.153   4.826
 1309TIP3    H1 3933   2.593   5.180   4.831
 1309TIP3    H2 3934   2.726   5.218   4.769
 1310TIP3   OH2 3935   4.757   5.847   0.244
 1310TIP3    H1 3936   4.744   5.754   0.259
 1310TIP3    H2 3937   4.738   5.888   0.328
 1311TIP3   OH2 3938   6.347   0.343   3.428
 1311TIP3    H1 3939   6.347   0.264   3.482
 1311TIP3    H2 3940   6.254   0.364   3.416
 1312TIP3   OH2 3941   5.330   2.031   4.588
 1312TIP3    H1 3942   5.288   2.111   4.620
 1312TIP3    H2 3943   5.418   2.033   4.627
 1313TIP3   OH2 3944   0.302   1.001   0.634
 1313TIP3    H1 3945   0.394   0.976   0.623
 1313TIP3    H2 3946   0.293   1.019   0.727
 1314TIP3   OH2 3947   2.989   1.755   0.233
 1314TIP3    H1 3948   2.985   1.845   0.264
 1314TIP3    H2 3949   3.006   1.704   0.313
 1315TIP3   OH2 3950   1.670   3.453   0.135
 1315TIP3    H1 3951   1.714   3.509   0.070
 1315TIP3    H2 3952   1.738   3.392   0.165
 1316TIP3   OH2 3953   4.948   0.348   0.311
 1316TIP3    H1 3954   4.869   0.401   0.303
 1316TIP3    H2 3955   4.978   0.335   0.221
 1317TIP3   OH2 3956   0.060   3.303   2.866
 1317TIP3    H1 3957   0.089   3.295   2.957
 1317TIP3    H2 3958   0.088   3.221   2.825
 1318TIP3   OH2 3959   0.663   5.692   1.918
 1318TIP3    H1 3960   0.624   5.736   1.843
 1318TIP3    H2 3961   0.643   5.749   1.992
 1319TIP3   OH2 3962   3.271   3.084   3.008
 1319TIP3    H1 3963   3.342   3.140   2.975
 1319TIP3    H2 3964   3.311   3.032   3.078
 1320TIP3   OH2 3965   1.597   2.691   3.200
 1320TIP3    H1 3966   1.666   2.743   3.158
 1320TIP3    H2 3967   1.628   2.680   3.290
 1321TIP3   OH2 3968   0.640   3.750   2.315
 1321TIP3    H1 3969   0.650   3.728   2.407
 1321TIP3    H2 3970   0.589   3.678   2.278
 1322TIP3   OH2 3971   4.868   1.971   1.061
 1322TIP3    H1 3972   4.887   2.056   1.099
 1322TIP3    H2 3973   4.773   1.961   1.070
 1323TIP3   OH2 3974   3.378   1.816   3.212
 1323TIP3    H1 3975   3.288   1.826   3.182
 1323TIP3    H2 3976   3.431   1.847   3.139
 1324TIP3   OH2 3977   6.179   3.167   2.632
 1324TIP3    H1 3978   6.107   3.138   2.689
 1324TIP3    H2 3979   6.253   3.111   2.657
 1325TIP3   OH2 3980   2.402   4.499   0.306
 1325TIP3    H1 3981   2.384   4.425   0.247
 1325TIP3    H2 3982   2.419   4.573   0.248
 1326TIP3   OH2 3983   2.671   5.629   4.640
 1326TIP3    H1 3984   2.714   5.675   4.712
 1326TIP3    H2 3985   2.715   5.663   4.562
 1327TIP3   OH2 3986   4.297   1.076   4.072
 1327TIP3    H1 3987   4.290   0.986   4.042
 1327TIP3    H2 3988   4.301   1.069   4.168
 1328TIP3   OH2 3989   2.192   4.426   4.217
 1328TIP3    H1 3990   2.097   4.417   4.206
 1328TIP3    H2 3991   2.202   4.492   4.286
 1329TIP3   OH2 3992   1.582   3.654   0.755
 1329TIP3    H1 3993   1.615   3.649   0.844
 1329TIP3    H2 3994   1.548   3.566   0.737
 1330TIP3   OH2 3995   3.383   1.960   4.525
 1330TIP3    H1 3996   3.467   1.996   4.496
 1330TIP3    H2 3997   3.390   1.960   4.621
 1331TIP3   OH2 3998   0.304   3.988   2.335
 1331TIP3    H1 3999   0.322   4.065   2.282
 1331TIP3    H2 4000   0.235   3.941   2.287
 1332TIP3   OH2 4001   0.270   1.416   3.163
 1332TIP3    H1 4002   0.282   1.442   3.071
 1332TIP3    H2 4003   0.179   1.439   3.182
 1333TIP3   OH2 4004   2.676   2.297   2.672
 1333TIP3    H1 4005   2.602   2.312   2.613
 1333TIP3    H2 4006   2.691   2.383   2.713
 1334TIP3   OH2 4007   6.068   2.738   1.418
 1334TIP3    H1 4008   5.987   2.690   1.435
 1334TIP3    H2 4009   6.136   2.671   1.420
 1335TIP3   OH2 4010   2.183   2.741   1.316
 1335TIP3    H1 4011   2.153   2.697   1.236
 1335TIP3    H2 4012   2.246   2.680   1.354
 1336TIP3   OH2 4013   3.327   1.511   4.476
 1336TIP3    H1 4014   3.233   1.518   4.492
 1336TIP3    H2 4015   3.366   1.504   4.563
 1337TIP3   OH2 4016   4.782   2.302   4.361
 1337TIP3    H1 4017   4.871   2.331   4.342
 1337TIP3    H2 4018   4.792   2.218   4.405
 1338TIP3   OH2 4019   4.923   3.000   0.287
 1338TIP3    H1 4020   4.972   2.919   0.284
 1338TIP3    H2 4021   4.968   3.053   0.353
 1339TIP3   OH2 4022   0.298   3.874   3.685
 1339TIP3    H1 4023   0.372   3.895   3.628
 1339TIP3    H2 4024   0.225   3.859   3.625
 1340TIP3   OH2 4025   5.407   5.057   2.112
 1340TIP3    H1 4026   5.400   4.996   2.186
 1340TIP3    H2 4027   5.353   5.018   2.043
 1341TIP3   OH2 4028   4.727   2.036   1.951
 1341TIP3    H1 4029   4.785   1.963   1.974
 1341TIP3    H2 4030   4.682   2.007   1.872
 1342TIP3   OH2 4031   6.246   3.488   0.986
 1342TIP3    H1 4032   6.187   3.528   1.050
 1342TIP3    H2 4033   6.190   3.467   0.911
 1343TIP3   OH2 4034   4.103   2.226   0.653
 1343TIP3    H1 4035   4.094   2.255   0.562
 1343TIP3    H2 4036   4.159   2.149   0.649
 1344TIP3   OH2 4037   3.243   2.788   1.305
 1344TIP3    H1 4038   3.168   2.814   1.251
 1344TIP3    H2 4039   3.264   2.867   1.355
 1345TIP3   OH2 4040   2.599   3.430   4.260
 1345TIP3    H1 4041   2.598   3.410   4.167
 1345TIP3    H2 4042   2.674   3.487   4.273
 1346TIP3   OH2 4043   5.788   2.997   2.639
 1346TIP3    H1 4044   5.699   3.030   2.627
 1346TIP3    H2 4045   5.821   2.982   2.550
 1347TIP3   OH2 4046   4.873   2.276   4.089
 1347TIP3    H1 4047   4.855   2.315   4.174
 1347TIP3    H2 4048   4.791   2.287   4.039
 1348TIP3   OH2 4049   0.821   4.696   1.587
 1348TIP3    H1 4050   0.826   4.719   1.680
 1348TIP3    H2 4051   0.755   4.626   1.584
 1349TIP3   OH2 4052   4.828   0.917   0.119
 1349TIP3    H1 4053   4.766   0.876   0.059
 1349TIP3    H2 4054   4.899   0.854   0.128
 1350TIP3   OH2 4055   2.146   3.070   0.861
 1350TIP3    H1 4056   2.142   3.152   0.911
 1350TIP3    H2 4057   2.075   3.017   0.897
 1351TIP3   OH2 4058   0.734   2.429   0.251
 1351TIP3    H1 4059   0.663   2.364   0.253
 1351TIP3    H2 4060   0.813   2.377   0.233
 1352TIP3   OH2 4061   5.221   4.089   2.006
 1352TIP3    H1 4062   5.313   4.072   1.986
 1352TIP3    H2 4063   5.206   4.045   2.090
 1353TIP3   OH2 4064   5.405   1.573   0.606
 1353TIP3    H1 4065   5.427   1.664   0.624
 1353TIP3    H2 4066   5.323   1.558   0.653
 1354TIP3   OH2 4067   4.548   2.166   2.111
 1354TIP3    H1 4068   4.560   2.110   2.188
 1354TIP3    H2 4069   4.611   2.133   2.047
 1355TIP3   OH2 4070   3.184   4.554   4.198
 1355TIP3    H1 4071   3.171   4.618   4.128
 1355TIP3    H2 4072   3.128   4.585   4.269
 1356TIP3   OH2 4073   5.857   3.866   2.145
 1356TIP3    H1 4074   5.896   3.916   2.216
 1356TIP3    H2 4075   5.797   3.806   2.188
 1357TIP3   OH2 4076   0.351   2.146   1.006
 1357TIP3    H1 4077   0.298   2.114   0.933
 1357TIP3    H2 4078   0.359   2.240   0.991
 1358TIP3   OH2 4079   5.846   4.744   3.667
 1358TIP3    H1 4080   5.799   4.661   3.680
 1358TIP3    H2 4081   5.884   4.764   3.752
 1359TIP3   OH2 4082   0.253   2.666   0.218
 1359TIP3    H1 4083   0.318   2.630   0.157
 1359TIP3    H2 4084   0.270   2.760   0.217
 1360TIP3   OH2 4085   6.256   2.148   0.802
 1360TIP3    H1 4086   6.167   2.135   0.834
 1360TIP3    H2 4087   6.266   2.243   0.797
 1361TIP3   OH2 4088   5.825   5.661   3.649
 1361TIP3    H1 4089   5.774   5.698   3.721
 1361TIP3    H2 4090   5.759   5.633   3.585
 1362TIP3   OH2 4091   3.180   1.333   2.420
 1362TIP3    H1 4092   3.245   1.381   2.472
 1362TIP3    H2 4093   3.166   1.252   2.468
 1363TIP3   OH2 4094   5.846   4.133   3.749
 1363TIP3    H1 4095   5.835   4.151   3.842
 1363TIP3    H2 4096   5.766   4.085   3.724
 1364TIP3   OH2 4097   1.431   0.263   4.232
 1364TIP3    H1 4098   1.411   0.357   4.231
 1364TIP3    H2 4099   1.378   0.227   4.161
 1365TIP3   OH2 4100   3.339   4.657   3.380
 1365TIP3    H1 4101   3.425   4.694   3.363
 1365TIP3    H2 4102   3.284   4.689   3.309
 1366TIP3   OH2 4103   6.260   5.532   3.310
 1366TIP3    H1 4104   6.244   5.438   3.318
 1366TIP3    H2 4105   6.180   5.573   3.344
 1367TIP3   OH2 4106   4.598   2.520   1.499
 1367TIP3    H1 4107   4.595   2.561   1.586
 1367TIP3    H2 4108   4.546   2.579   1.444
 1368TIP3   OH2 4109   1.822   2.827   1.770
 1368TIP3    H1 4110   1.854   2.748   1.812
 1368TIP3    H2 4111   1.801   2.800   1.680
 1369TIP3   OH2 4112   2.371   1.510   3.159
 1369TIP3    H1 4113   2.359   1.490   3.066
 1369TIP3    H2 4114   2.311   1.451   3.204
 1370TIP3   OH2 4115   2.763   1.886   4.353
 1370TIP3    H1 4116   2.851   1.925   4.356
 1370TIP3    H2 4117   2.710   1.951   4.308
 1371TIP3   OH2 4118   5.664   2.667   4.281
 1371TIP3    H1 4119   5.600   2.687   4.349
 1371TIP3    H2 4120   5.733   2.619   4.328
 1372TIP3   OH2 4121   1.708   4.785   2.488
 1372TIP3    H1 4122   1.659   4.800   2.569
 1372TIP3    H2 4123   1.720   4.872   2.450
 1373TIP3   OH2 4124   6.152   1.334   3.191
 1373TIP3    H1 4125   6.153   1.409   3.133
 1373TIP3    H2 4126   6.203   1.362   3.267
 1374TIP3   OH2 4127   3.366   0.404   3.568
 1374TIP3    H1 4128   3.311   0.480   3.586
 1374TIP3    H2 4129   3.332   0.336   3.626
 1375TIP3   OH2 4130   1.572   2.498   1.180
 1375TIP3    H1 4131   1.522   2.420   1.202
 1375TIP3    H2 4132   1.529   2.569   1.229
 1376TIP3   OH2 4133   0.045   0.734   2.986
 1376TIP3    H1 4134   0.132   0.772   2.997
 1376TIP3    H2 4135  -0.011   0.809   2.965
 1377TIP3   OH2 4136   5.688   0.154   1.946
 1377TIP3    H1 4137   5.694   0.153   2.041
 1377TIP3    H2 4138   5.665   0.244   1.924
 1378TIP3   OH2 4139   2.680   5.993   2.787
 1378TIP3    H1 4140   2.690   5.901   2.813
 1378TIP3    H2 4141   2.623   5.989   2.710
 1379TIP3   OH2 4142   0.163   2.645   2.481
 1379TIP3    H1 4143   0.222   2.707   2.439
 1379TIP3    H2 4144   0.089   2.698   2.510
 1380TIP3   OH2 4145   3.863   5.049   0.733
 1380TIP3    H1 4146   3.871   4.988   0.660
 1380TIP3    H2 4147   3.934   5.026   0.792
 1381TIP3   OH2 4148   0.211   1.767   4.565
 1381TIP3    H1 4149   0.203   1.672   4.563
 1381TIP3    H2 4150   0.295   1.785   4.523
 1382TIP3   OH2 4151   0.000   5.224   0.394
 1382TIP3    H1 4152  -0.052   5.195   0.319
 1382TIP3    H2 4153   0.065   5.283   0.357
 1383TIP3   OH2 4154   2.048   3.562   0.058
 1383TIP3    H1 4155   1.997   3.508   0.118
 1383TIP3    H2 4156   2.056   3.510  -0.022
 1384TIP3   OH2 4157   3.261   4.347   1.591
 1384TIP3    H1 4158   3.262   4.251   1.601
 1384TIP3    H2 4159   3.250   4.380   1.680
 1385TIP3   OH2 4160   0.257   3.739   2.890
 1385TIP3    H1 4161   0.294   3.827   2.877
 1385TIP3    H2 4162   0.223   3.716   2.803
 1386TIP3   OH2 4163   4.899   2.936   4.054
 1386TIP3    H1 4164   4.932   3.023   4.031
 1386TIP3    H2 4165   4.889   2.891   3.970
 1387TIP3   OH2 4166   3.576   2.798   4.481
 1387TIP3    H1 4167   3.584   2.884   4.521
 1387TIP3    H2 4168   3.606   2.811   4.390
 1388TIP3   OH2 4169   2.092   3.462   4.181
 1388TIP3    H1 4170   2.098   3.557   4.169
 1388TIP3    H2 4171   2.150   3.426   4.114
 1389TIP3   OH2 4172   6.193   0.683   3.574
 1389TIP3    H1 4173   6.131   0.748   3.542
 1389TIP3    H2 4174   6.193   0.614   3.507
 1390TIP3   OH2 4175   2.924   2.497   4.095
 1390TIP3    H1 4176   2.896   2.446   4.170
 1390TIP3    H2 4177   2.866   2.573   4.094
 1391TIP3   OH2 4178   2.669   5.303   3.733
 1391TIP3    H1 4179   2.764   5.304   3.716
 1391TIP3    H2 4180   2.631   5.335   3.651
 1392TIP3   OH2 4181   4.085   0.004   0.162
 1392TIP3    H1 4182   4.030  -0.074   0.167
 1392TIP3    H2 4183   4.024   0.076   0.149
 1393TIP3   OH2 4184   3.189   0.189   4.951
 1393TIP3    H1 4185   3.230   0.265   4.993
 1393TIP3    H2 4186   3.257   0.156   4.891
 1394TIP3   OH2 4187   3.454   0.831   1.876
 1394TIP3    H1 4188   3.505   0.755   1.850
 1394TIP3    H2 4189   3.519   0.897   1.901
 1395TIP3   OH2 4190   2.902   5.781   2.272
 1395TIP3    H1 4191   2.837   5.746   2.211
 1395TIP3    H2 4192   2.985   5.773   2.225
 1396TIP3   OH2 4193   2.632   0.051   2.700
 1396TIP3    H1 4194   2.539   0.069   2.715
 1396TIP3    H2 4195   2.659   0.113   2.632
 1397TIP3   OH2 4196   0.773   4.948   3.740
 1397TIP3    H1 4197   0.745   4.891   3.667
 1397TIP3    H2 4198   0.706   5.016   3.744
 1398TIP3   OH2 4199   0.794   1.515   2.324
 1398TIP3    H1 4200   0.828   1.589   2.375
 1398TIP3    H2 4201   0.829   1.530   2.236
 1399TIP3   OH2 4202   3.300   3.410   0.962
 1399TIP3    H1 4203   3.211   3.379   0.947
 1399TIP3    H2 4204   3.315   3.396   1.055
 1400TIP3   OH2 4205   4.593   1.654   4.014
 1400TIP3    H1 4206   4.638   1.624   3.935
 1400TIP3    H2 4207   4.663   1.686   4.070
 1401TIP3   OH2 4208   5.012   1.745   0.971
 1401TIP3    H1 4209   4.958   1.792   1.034
 1401TIP3    H2 4210   5.024   1.806   0.899
 1402TIP3   OH2 4211   5.132   2.684   2.749
 1402TIP3    H1 4212   5.121   2.779   2.750
 1402TIP3    H2 4213   5.226   2.671   2.760
 1403TIP3   OH2 4214   0.566   5.133   2.621
 1403TIP3    H1 4215   0.658   5.108   2.626
 1403TIP3    H2 4216   0.556   5.174   2.535
 1404TIP3   OH2 4217   4.306   1.559   1.627
 1404TIP3    H1 4218   4.329   1.649   1.603
 1404TIP3    H2 4219   4.256   1.568   1.708
 1405TIP3   OH2 4220   5.320   4.626   5.069
 1405TIP3    H1 4221   5.302   4.556   5.006
 1405TIP3    H2 4222   5.261   4.697   5.044
 1406TIP3   OH2 4223   3.846   2.235   0.582
 1406TIP3    H1 4224   3.928   2.209   0.624
 1406TIP3    H2 4225   3.823   2.318   0.623
 1407TIP3   OH2 4226   2.829   0.612   1.452
 1407TIP3    H1 4227   2.906   0.659   1.483
 1407TIP3    H2 4228   2.770   0.609   1.527
 1408TIP3   OH2 4229   0.307   1.365   1.865
 1408TIP3    H1 4230   0.303   1.363   1.961
 1408TIP3    H2 4231   0.390   1.321   1.844
 1409TIP3   OH2 4232   0.932   5.505   4.216
 1409TIP3    H1 4233   0.947   5.596   4.243
 1409TIP3    H2 4234   0.964   5.453   4.289
 1410TIP3   OH2 4235   5.744   3.520   3.535
 1410TIP3    H1 4236   5.737   3.427   3.515
 1410TIP3    H2 4237   5.737   3.525   3.631
 1411TIP3   OH2 4238   0.356   5.169   4.708
 1411TIP3    H1 4239   0.438   5.217   4.718
 1411TIP3    H2 4240   0.357   5.137   4.618
 1412TIP3   OH2 4241   4.864   5.524   4.422
 1412TIP3    H1 4242   4.792   5.482   4.374
 1412TIP3    H2 4243   4.823   5.593   4.473
 1413TIP3   OH2 4244   5.256   4.425   1.721
 1413TIP3    H1 4245   5.199   4.479   1.668
 1413TIP3    H2 4246   5.326   4.484   1.750
 1414TIP3   OH2 4247   5.259   3.579   1.534
 1414TIP3    H1 4248   5.190   3.624   1.485
 1414TIP3    H2 4249   5.288   3.642   1.599
 1415TIP3   OH2 4250   4.672   5.880   3.180
 1415TIP3    H1 4251   4.691   5.894   3.273
 1415TIP3    H2 4252   4.619   5.956   3.155
 1416TIP3   OH2 4253   3.145   3.378   0.692
 1416TIP3    H1 4254   3.092   3.457   0.705
 1416TIP3    H2 4255   3.235   3.407   0.705
 1417TIP3   OH2 4256   1.830   2.685   4.023
 1417TIP3    H1 4257   1.854   2.687   4.116
 1417TIP3    H2 4258   1.739   2.717   4.022
 1418TIP3   OH2 4259   3.559   1.027   1.210
 1418TIP3    H1 4260   3.557   0.932   1.206
 1418TIP3    H2 4261   3.618   1.046   1.283
 1419TIP3   OH2 4262   1.790   5.854   2.220
 1419TIP3    H1 4263   1.882   5.835   2.201
 1419TIP3    H2 4264   1.783   5.844   2.315
 1420TIP3   OH2 4265   5.836   2.337   4.661
 1420TIP3    H1 4266   5.906   2.390   4.700
 1420TIP3    H2 4267   5.878   2.254   4.638
 1421TIP3   OH2 4268   5.392   4.532   2.193
 1421TIP3    H1 4269   5.300   4.511   2.178
 1421TIP3    H2 4270   5.414   4.593   2.122
 1422TIP3   OH2 4271   6.023   5.634   4.023
 1422TIP3    H1 4272   5.997   5.654   4.113
 1422TIP3    H2 4273   5.943   5.603   3.981
 1423TIP3   OH2 4274   3.867   4.791   2.588
 1423TIP3    H1 4275   3.789   4.738   2.578
 1423TIP3    H2 4276   3.860   4.829   2.676
 1424TIP3   OH2 4277   2.280   2.516   1.505
 1424TIP3    H1 4278   2.218   2.508   1.577
 1424TIP3    H2 4279   2.254   2.447   1.444
 1425TIP3   OH2 4280   4.129   1.516   1.856
 1425TIP3    H1 4281   4.035   1.502   1.854
 1425TIP3    H2 4282   4.151   1.522   1.949
 1426TIP3   OH2 4283   2.726   2.765   3.066
 1426TIP3    H1 4284   2.798   2.747   3.006
 1426TIP3    H2 4285   2.738   2.856   3.093
 1427TIP3   OH2 4286   5.950   0.796   3.411
 1427TIP3    H1 4287   5.891   0.864   3.378
 1427TIP3    H2 4288   5.896   0.717   3.416
 1428TIP3   OH2 4289   6.168   0.198   4.562
 1428TIP3    H1 4290   6.249   0.237   4.528
 1428TIP3    H2 4291   6.163   0.230   4.652
 1429TIP3   OH2 4292   1.489   2.475   4.617
 1429TIP3    H1 4293   1.519   2.437   4.699
 1429TIP3    H2 4294   1.396   2.451   4.612
 1430TIP3   OH2 4295   1.032   0.137   0.288
 1430TIP3    H1 4296   1.034   0.042   0.304
 1430TIP3    H2 4297   0.951   0.151   0.238
 1431TIP3   OH2 4298   1.011   4.215   1.335
 1431TIP3    H1 4299   0.982   4.232   1.245
 1431TIP3    H2 4300   0.947   4.153   1.369
 1432TIP3   OH2 4301   6.190   5.540   0.585
 1432TIP3    H1 4302   6.117   5.601   0.567
 1432TIP3    H2 4303   6.160   5.490   0.661
 1433TIP3   OH2 4304   3.508   3.085   0.899
 1433TIP3    H1 4305   3.474   3.156   0.953
 1433TIP3    H2 4306   3.476   3.103   0.811
 1434TIP3   OH2 4307   4.395   1.470   4.010
 1434TIP3    H1 4308   4.472   1.521   4.033
 1434TIP3    H2 4309   4.427   1.406   3.946
 1435TIP3   OH2 4310   0.685   2.342   2.434
 1435TIP3    H1 4311   0.613   2.320   2.492
 1435TIP3    H2 4312   0.754   2.376   2.491
 1436TIP3   OH2 4313   2.782   4.301   5.105
 1436TIP3    H1 4314   2.696   4.272   5.075
 1436TIP3    H2 4315   2.842   4.273   5.035
 1437TIP3   OH2 4316   1.469   5.278   0.340
 1437TIP3    H1 4317   1.435   5.198   0.379
 1437TIP3    H2 4318   1.556   5.289   0.379
 1438TIP3   OH2 4319   0.182   4.925   1.619
 1438TIP3    H1 4320   0.227   4.998   1.663
 1438TIP3    H2 4321   0.133   4.965   1.548
 1439TIP3   OH2 4322   4.845   5.433   1.604
 1439TIP3    H1 4323   4.911   5.459   1.668
 1439TIP3    H2 4324   4.775   5.395   1.656
 1440TIP3   OH2 4325   0.781   1.981   1.704
 1440TIP3    H1 4326   0.737   2.018   1.781
 1440TIP3    H2 4327   0.833   1.908   1.737
 1441TIP3   OH2 4328   2.812   5.142   0.715
 1441TIP3    H1 4329   2.888   5.125   0.658
 1441TIP3    H2 4330   2.845   5.204   0.780
 1442TIP3   OH2 4331   4.622   0.085   3.009
 1442TIP3    H1 4332   4.656   0.063   3.096
 1442TIP3    H2 4333   4.700   0.101   2.956
 1443TIP3   OH2 4334   3.788   5.361   0.151
 1443TIP3    H1 4335   3.775   5.440   0.203
 1443TIP3    H2 4336   3.831   5.300   0.211
 1444TIP3   OH2 4337   5.448   0.359   0.483
 1444TIP3    H1 4338   5.473   0.267   0.471
 1444TIP3    H2 4339   5.392   0.378   0.408
 1445TIP3   OH2 4340   6.112   2.480   1.916
 1445TIP3    H1 4341   6.180   2.417   1.940
 1445TIP3    H2 4342   6.065   2.497   1.998
 1446TIP3   OH2 4343   3.690   2.829   1.592
 1446TIP3    H1 4344   3.712   2.749   1.641
 1446TIP3    H2 4345   3.601   2.851   1.621
 1447TIP3   OH2 4346   2.920   2.784   2.127
 1447TIP3    H1 4347   2.925   2.799   2.221
 1447TIP3    H2 4348   3.007   2.752   2.103
 1448TIP3   OH2 4349   4.037   3.990   2.621
 1448TIP3    H1 4350   4.049   3.924   2.690
 1448TIP3    H2 4351   3.955   4.034   2.645
 1449TIP3   OH2 4352   5.599   1.554   2.843
 1449TIP3    H1 4353   5.582   1.629   2.899
 1449TIP3    H2 4354   5.668   1.583   2.784
 1450TIP3   OH2 4355   6.210   0.693   0.272
 1450TIP3    H1 4356   6.185   0.694   0.364
 1450TIP3    H2 4357   6.248   0.780   0.256
 1451TIP3   OH2 4358   3.685   4.591   2.622
 1451TIP3    H1 4359   3.651   4.586   2.532
 1451TIP3    H2 4360   3.607   4.576   2.676
 1452TIP3   OH2 4361   2.756   0.621   2.656
 1452TIP3    H1 4362   2.852   0.619   2.663
 1452TIP3    H2 4363   2.739   0.649   2.566
 1453TIP3   OH2 4364   4.868   1.585   4.814
 1453TIP3    H1 4365   4.869   1.502   4.767
 1453TIP3    H2 4366   4.811   1.569   4.890
 1454TIP3   OH2 4367   3.062   3.459   3.317
 1454TIP3    H1 4368   3.038   3.539   3.271
 1454TIP3    H2 4369   3.091   3.399   3.247
 1455TIP3   OH2 4370   0.344   4.181   2.130
 1455TIP3    H1 4371   0.418   4.126   2.105
 1455TIP3    H2 4372   0.277   4.163   2.063
 1456TIP3   OH2 4373   4.418   2.276   4.139
 1456TIP3    H1 4374   4.377   2.352   4.098
 1456TIP3    H2 4375   4.345   2.226   4.176
 1457TIP3   OH2 4376   3.107   1.674   2.634
 1457TIP3    H1 4377   3.202   1.676   2.620
 1457TIP3    H2 4378   3.073   1.740   2.573
 1458TIP3   OH2 4379   3.720   4.469   3.348
 1458TIP3    H1 4380   3.756   4.384   3.324
 1458TIP3    H2 4381   3.728   4.473   3.443
 1459TIP3   OH2 4382   3.787   1.096   3.007
 1459TIP3    H1 4383   3.701   1.099   2.966
 1459TIP3    H2 4384   3.789   1.173   3.064
 1460TIP3   OH2 4385   3.894   4.296   3.737
 1460TIP3    H1 4386   3.888   4.208   3.775
 1460TIP3    H2 4387   3.985   4.302   3.706
 1461TIP3   OH2 4388   0.542   1.605   3.569
 1461TIP3    H1 4389   0.521   1.585   3.478
 1461TIP3    H2 4390   0.468   1.658   3.600
 1462TIP3   OH2 4391   2.392   3.605   2.874
 1462TIP3    H1 4392   2.404   3.558   2.792
 1462TIP3    H2 4393   2.454   3.677   2.870
 1463TIP3   OH2 4394   5.694   2.656   0.488
 1463TIP3    H1 4395   5.622   2.598   0.464
 1463TIP3    H2 4396   5.766   2.631   0.431
 1464TIP3   OH2 4397   5.104   1.436   3.803
 1464TIP3    H1 4398   5.056   1.357   3.823
 1464TIP3    H2 4399   5.071   1.464   3.717
 1465TIP3   OH2 4400   0.875   3.808   4.547
 1465TIP3    H1 4401   0.932   3.787   4.621
 1465TIP3    H2 4402   0.801   3.747   4.556
 1466TIP3   OH2 4403   0.287   4.921   0.312
 1466TIP3    H1 4404   0.347   4.847   0.327
 1466TIP3    H2 4405   0.223   4.888   0.249
 1467TIP3   OH2 4406   2.876   0.453   3.666
 1467TIP3    H1 4407   2.929   0.374   3.659
 1467TIP3    H2 4408   2.807   0.430   3.729
 1468TIP3   OH2 4409   4.658   0.586   2.520
 1468TIP3    H1 4410   4.678   0.494   2.536
 1468TIP3    H2 4411   4.568   0.597   2.551
 1469TIP3   OH2 4412   5.053   4.602   0.922
 1469TIP3    H1 4413   5.065   4.532   0.986
 1469TIP3    H2 4414   4.960   4.623   0.927
 1470TIP3   OH2 4415   5.437   0.342   3.202
 1470TIP3    H1 4416   5.443   0.247   3.196
 1470TIP3    H2 4417   5.515   0.368   3.251
 1471TIP3   OH2 4418   2.946   3.431   0.190
 1471TIP3    H1 4419   3.017   3.392   0.138
 1471TIP3    H2 4420   2.966   3.405   0.280
 1472TIP3   OH2 4421   4.415   3.393   3.158
 1472TIP3    H1 4422   4.454   3.426   3.076
 1472TIP3    H2 4423   4.385   3.304   3.136
 1473TIP3   OH2 4424   6.314   3.221   0.907
 1473TIP3    H1 4425   6.359   3.209   0.991
 1473TIP3    H2 4426   6.302   3.316   0.901
 1474TIP3   OH2 4427   0.559   0.835   1.977
 1474TIP3    H1 4428   0.653   0.816   1.979
 1474TIP3    H2 4429   0.534   0.841   2.069
 1475TIP3   OH2 4430   3.811   4.142   2.715
 1475TIP3    H1 4431   3.829   4.236   2.710
 1475TIP3    H2 4432   3.728   4.135   2.761
 1476TIP3   OH2 4433   3.283   0.673   1.496
 1476TIP3    H1 4434   3.279   0.760   1.457
 1476TIP3    H2 4435   3.269   0.613   1.422
 1477TIP3   OH2 4436   1.122   2.688   2.453
 1477TIP3    H1 4437   1.110   2.629   2.527
 1477TIP3    H2 4438   1.177   2.639   2.392
 1478TIP3   OH2 4439   1.568   2.092   3.619
 1478TIP3    H1 4440   1.571   2.185   3.601
 1478TIP3    H2 4441   1.614   2.051   3.546
 1479TIP3   OH2 4442   4.214   5.458   3.385
 1479TIP3    H1 4443   4.142   5.452   3.449
 1479TIP3    H2 4444   4.173   5.497   3.308
 1480TIP3   OH2 4445   4.638   2.379   4.991
 1480TIP3    H1 4446   4.717   2.325   4.986
 1480TIP3    H2 4447   4.566   2.316   5.001
 1481TIP3   OH2 4448   1.199   5.874   1.132
 1481TIP3    H1 4449   1.183   5.955   1.181
 1481TIP3    H2 4450   1.138   5.811   1.170
 1482TIP3   OH2 4451   5.250   2.518   3.736
 1482TIP3    H1 4452   5.171   2.536   3.788
 1482TIP3    H2 4453   5.316   2.576   3.773
 1483TIP3   OH2 4454   2.304   1.398   1.159
 1483TIP3    H1 4455   2.238   1.418   1.093
 1483TIP3    H2 4456   2.376   1.359   1.111
 1484TIP3   OH2 4457   5.848   0.947   3.699
 1484TIP3    H1 4458   5.856   0.860   3.660
 1484TIP3    H2 4459   5.783   0.937   3.768
 1485TIP3   OH2 4460   6.111   4.042   1.819
 1485TIP3    H1 4461   6.044   4.109   1.811
 1485TIP3    H2 4462   6.062   3.960   1.826
 1486TIP3   OH2 4463   4.437   5.668   4.820
 1486TIP3    H1 4464   4.499   5.740   4.830
 1486TIP3    H2 4465   4.387   5.690   4.742
 1487TIP3   OH2 4466   2.495   2.031   3.764
 1487TIP3    H1 4467   2.566   2.074   3.716
 1487TIP3    H2 4468   2.539   1.976   3.828
 1488TIP3   OH2 4469   0.391   5.679   3.649
 1488TIP3    H1 4470   0.411   5.585   3.643
 1488TIP3    H2 4471   0.445   5.710   3.721
 1489TIP3   OH2 4472   1.676   3.973   3.796
 1489TIP3    H1 4473   1.738   3.987   3.724
 1489TIP3    H2 4474   1.610   3.915   3.760
 1490TIP3   OH2 4475   1.808   1.476   4.863
 1490TIP3    H1 4476   1.834   1.539   4.931
 1490TIP3    H2 4477   1.757   1.529   4.801
 1491TIP3   OH2 4478   3.579   2.345   1.813
 1491TIP3    H1 4479   3.584   2.323   1.906
 1491TIP3    H2 4480   3.653   2.402   1.797
 1492TIP3   OH2 4481   4.189   2.202   4.315
 1492TIP3    H1 4482   4.154   2.271   4.258
 1492TIP3    H2 4483   4.184   2.240   4.403
 1493TIP3   OH2 4484   1.409   1.559   0.701
 1493TIP3    H1 4485   1.378   1.535   0.613
 1493TIP3    H2 4486   1.499   1.528   0.704
 1494TIP3   OH2 4487   0.404   2.680   1.198
 1494TIP3    H1 4488   0.489   2.722   1.187
 1494TIP3    H2 4489   0.349   2.720   1.131
 1495TIP3   OH2 4490   6.233   1.784   1.991
 1495TIP3    H1 4491   6.200   1.703   2.031
 1495TIP3    H2 4492   6.319   1.798   2.032
 1496TIP3   OH2 4493   1.112   5.009   1.152
 1496TIP3    H1 4494   1.058   5.058   1.214
 1496TIP3    H2 4495   1.190   4.986   1.202
 1497TIP3   OH2 4496   5.824   1.567   0.805
 1497TIP3    H1 4497   5.797   1.659   0.809
 1497TIP3    H2 4498   5.746   1.520   0.776
 1498TIP3   OH2 4499   3.449   4.238   0.352
 1498TIP3    H1 4500   3.416   4.179   0.419
 1498TIP3    H2 4501   3.539   4.210   0.337
 1499TIP3   OH2 4502   2.941   0.565   1.215
 1499TIP3    H1 4503   2.981   0.478   1.213
 1499TIP3    H2 4504   2.868   0.556   1.277
 1500TIP3   OH2 4505   6.196   4.500   0.155
 1500TIP3    H1 4506   6.284   4.538   0.152
 1500TIP3    H2 4507   6.209   4.412   0.188
 1501TIP3   OH2 4508   0.265   4.194   3.139
 1501TIP3    H1 4509   0.254   4.250   3.062
 1501TIP3    H2 4510   0.347   4.225   3.179
 1502TIP3   OH2 4511   4.967   4.453   3.406
 1502TIP3    H1 4512   5.051   4.408   3.419
 1502TIP3    H2 4513   4.971   4.488   3.318
 1503TIP3   OH2 4514   1.707   0.306   3.674
 1503TIP3    H1 4515   1.801   0.286   3.675
 1503TIP3    H2 4516   1.696   0.367   3.602
 1504TIP3   OH2 4517   0.515   3.416   1.653
 1504TIP3    H1 4518   0.425   3.397   1.628
 1504TIP3    H2 4519   0.543   3.339   1.702
 1505TIP3   OH2 4520   4.965   4.282   0.254
 1505TIP3    H1 4521   4.950   4.365   0.299
 1505TIP3    H2 4522   5.037   4.241   0.301
 1506TIP3   OH2 4523   1.966   3.536   4.613
 1506TIP3    H1 4524   2.061   3.525   4.603
 1506TIP3    H2 4525   1.929   3.455   4.579
 1507TIP3   OH2 4526   3.456   0.145   0.130
 1507TIP3    H1 4527   3.534   0.103   0.095
 1507TIP3    H2 4528   3.412   0.077   0.181
 1508TIP3   OH2 4529   0.929   4.410   1.605
 1508TIP3    H1 4530   0.984   4.487   1.622
 1508TIP3    H2 4531   0.973   4.339   1.652
 1509TIP3   OH2 4532   1.211   0.633   2.964
 1509TIP3    H1 4533   1.137   0.575   2.947
 1509TIP3    H2 4534   1.288   0.585   2.933
 1510TIP3   OH2 4535   5.184   4.960   1.962
 1510TIP3    H1 4536   5.124   4.950   2.036
 1510TIP3    H2 4537   5.128   4.958   1.885
 1511TIP3   OH2 4538   2.474   2.674   1.636
 1511TIP3    H1 4539   2.555   2.622   1.638
 1511TIP3    H2 4540   2.415   2.624   1.580
 1512TIP3   OH2 4541   2.604   1.178   0.082
 1512TIP3    H1 4542   2.613   1.120   0.158
 1512TIP3    H2 4543   2.510   1.195   0.075
 1513TIP3   OH2 4544   5.773   1.222   4.152
 1513TIP3    H1 4545   5.842   1.170   4.192
 1513TIP3    H2 4546   5.815   1.304   4.127
 1514TIP3   OH2 4547   0.486   1.706   2.167
 1514TIP3    H1 4548   0.486   1.625   2.218
 1514TIP3    H2 4549   0.489   1.677   2.076
 1515TIP3   OH2 4550   6.245   2.652   0.497
 1515TIP3    H1 4551   6.288   2.738   0.500
 1515TIP3    H2 4552   6.309   2.594   0.457
 1516TIP3   OH2 4553   1.420   2.290   1.637
 1516TIP3    H1 4554   1.503   2.242   1.629
 1516TIP3    H2 4555   1.408   2.331   1.552
 1517TIP3   OH2 4556   2.551   1.103   5.151
 1517TIP3    H1 4557   2.604   1.023   5.153
 1517TIP3    H2 4558   2.472   1.078   5.104
 1518TIP3   OH2 4559   1.858   3.254   3.606
 1518TIP3    H1 4560   1.936   3.199   3.601
 1518TIP3    H2 4561   1.846   3.271   3.699
 1519TIP3   OH2 4562   1.289   3.765   4.168
 1519TIP3    H1 4563   1.210   3.812   4.195
 1519TIP3    H2 4564   1.358   3.831   4.173
 1520TIP3   OH2 4565   1.764   2.240   2.044
 1520TIP3    H1 4566   1.738   2.168   1.986
 1520TIP3    H2 4567   1.731   2.319   2.001
 1521TIP3   OH2 4568   0.503   5.430   3.664
 1521TIP3    H1 4569   0.552   5.386   3.594
 1521TIP3    H2 4570   0.446   5.362   3.699
 1522TIP3   OH2 4571   5.287   5.283   1.937
 1522TIP3    H1 4572   5.204   5.306   1.979
 1522TIP3    H2 4573   5.280   5.321   1.849
 1523TIP3   OH2 4574   2.095   4.839   4.977
 1523TIP3    H1 4575   2.185   4.869   4.990
 1523TIP3    H2 4576   2.060   4.895   4.907
 1524TIP3   OH2 4577   5.234   3.133   2.157
 1524TIP3    H1 4578   5.271   3.216   2.130
 1524TIP3    H2 4579   5.159   3.119   2.098
 1525TIP3   OH2 4580   3.395   3.396   4.058
 1525TIP3    H1 4581   3.444   3.370   4.136
 1525TIP3    H2 4582   3.321   3.336   4.056
 1526TIP3   OH2 4583   0.467   3.343   3.489
 1526TIP3    H1 4584   0.412   3.266   3.502
 1526TIP3    H2 4585   0.553   3.307   3.464
 1527TIP3   OH2 4586   4.071   2.015   1.644
 1527TIP3    H1 4587   4.138   2.023   1.575
 1527TIP3    H2 4588   4.120   2.002   1.724
 1528TIP3   OH2 4589   0.754   3.841   0.962
 1528TIP3    H1 4590   0.733   3.775   0.895
 1528TIP3    H2 4591   0.717   3.805   1.043
 1529TIP3   OH2 4592   3.334   1.002   2.547
 1529TIP3    H1 4593   3.244   1.030   2.563
 1529TIP3    H2 4594   3.378   1.010   2.632
 1530TIP3   OH2 4595   3.549   0.476   3.027
 1530TIP3    H1 4596   3.513   0.520   3.104
 1530TIP3    H2 4597   3.581   0.392   3.061
 1531TIP3   OH2 4598   1.894   3.200   0.033
 1531TIP3    H1 4599   1.866   3.110   0.050
 1531TIP3    H2 4600   1.909   3.203  -0.061
 1532TIP3   OH2 4601   5.596   2.202   4.692
 1532TIP3    H1 4602   5.665   2.266   4.707
 1532TIP3    H2 4603   5.526   2.227   4.753
 1533TIP3   OH2 4604   3.973   0.027   1.859
 1533TIP3    H1 4605   3.959   0.121   1.848
 1533TIP3    H2 4606   4.067   0.015   1.846
 1534TIP3   OH2 4607   2.450   3.491   3.340
 1534TIP3    H1 4608   2.430   3.411   3.290
 1534TIP3    H2 4609   2.442   3.465   3.431
 1535TIP3   OH2 4610   2.726   5.063   1.857
 1535TIP3    H1 4611   2.802   5.006   1.868
 1535TIP3    H2 4612   2.650   5.005   1.865
 1536TIP3   OH2 4613   0.776   3.232   0.578
 1536TIP3    H1 4614   0.814   3.248   0.491
 1536TIP3    H2 4615   0.786   3.315   0.624
 1537TIP3   OH2 4616   2.616   2.962   0.133
 1537TIP3    H1 4617   2.669   3.007   0.199
 1537TIP3    H2 4618   2.526   2.977   0.162
 1538TIP3   OH2 4619   5.085   0.229   4.226
 1538TIP3    H1 4620   5.030   0.155   4.201
 1538TIP3    H2 4621   5.023   0.298   4.250
 1539TIP3   OH2 4622   5.303   4.786   0.778
 1539TIP3    H1 4623   5.313   4.828   0.864
 1539TIP3    H2 4624   5.330   4.854   0.716
 1540TIP3   OH2 4625   6.253   2.139   4.516
 1540TIP3    H1 4626   6.183   2.201   4.493
 1540TIP3    H2 4627   6.324   2.160   4.456
 1541TIP3   OH2 4628   6.104   2.739   1.830
 1541TIP3    H1 4629   6.179   2.760   1.775
 1541TIP3    H2 4630   6.125   2.653   1.867
 1542TIP3   OH2 4631   2.505   0.788   2.286
 1542TIP3    H1 4632   2.472   0.709   2.241
 1542TIP3    H2 4633   2.600   0.776   2.288
 1543TIP3   OH2 4634   0.800   4.192   2.822
 1543TIP3    H1 4635   0.724   4.157   2.867
 1543TIP3    H2 4636   0.848   4.115   2.792
 1544TIP3   OH2 4637   4.965   1.074   2.747
 1544TIP3    H1 4638   4.983   1.167   2.759
 1544TIP3    H2 4639   4.869   1.068   2.752
 1545TIP3   OH2 4640   1.416   4.604   3.188
 1545TIP3    H1 4641   1.454   4.532   3.238
 1545TIP3    H2 4642   1.350   4.642   3.246
 1546TIP3   OH2 4643   3.382   5.723   4.924
 1546TIP3    H1 4644   3.385   5.723   4.828
 1546TIP3    H2 4645   3.442   5.652   4.949
 1547TIP3   OH2 4646   0.197   2.227   1.464
 1547TIP3    H1 4647   0.193   2.200   1.373
 1547TIP3    H2 4648   0.236   2.314   1.463
 1548TIP3   OH2 4649   2.234   2.667   3.509
 1548TIP3    H1 4650   2.170   2.654   3.439
 1548TIP3    H2 4651   2.318   2.679   3.463
 1549TIP3   OH2 4652   0.611   2.327   1.434
 1549TIP3    H1 4653   0.643   2.329   1.344
 1549TIP3    H2 4654   0.608   2.234   1.457
 1550TIP3   OH2 4655   2.227   3.736   5.183
 1550TIP3    H1 4656   2.307   3.720   5.233
 1550TIP3    H2 4657   2.247   3.704   5.095
 1551TIP3   OH2 4658   2.846   3.074   0.575
 1551TIP3    H1 4659   2.793   3.063   0.654
 1551TIP3    H2 4660   2.935   3.087   0.608
 1552TIP3   OH2 4661   5.118   3.329   3.348
 1552TIP3    H1 4662   5.197   3.381   3.358
 1552TIP3    H2 4663   5.066   3.375   3.282
 1553TIP3   OH2 4664   2.626   0.833   2.855
 1553TIP3    H1 4665   2.597   0.826   2.764
 1553TIP3    H2 4666   2.592   0.918   2.884
 1554TIP3   OH2 4667   5.323   3.163   2.787
 1554TIP3    H1 4668   5.335   3.229   2.856
 1554TIP3    H2 4669   5.309   3.081   2.835
 1555TIP3   OH2 4670   5.417   4.704   2.791
 1555TIP3    H1 4671   5.431   4.708   2.696
 1555TIP3    H2 4672   5.460   4.623   2.818
 1556TIP3   OH2 4673   3.587   5.040   4.325
 1556TIP3    H1 4674   3.506   5.001   4.291
 1556TIP3    H2 4675   3.619   5.095   4.253
 1557TIP3   OH2 4676   5.708   0.235   2.638
 1557TIP3    H1 4677   5.756   0.282   2.706
 1557TIP3    H2 4678   5.774   0.213   2.573
 1558TIP3   OH2 4679   2.579   2.055   5.145
 1558TIP3    H1 4680   2.587   2.107   5.065
 1558TIP3    H2 4681   2.623   2.108   5.212
 1559TIP3   OH2 4682   0.296   4.748   0.645
 1559TIP3    H1 4683   0.261   4.688   0.710
 1559TIP3    H2 4684   0.219   4.792   0.609
 1560TIP3   OH2 4685   3.140   0.923   3.091
 1560TIP3    H1 4686   3.148   1.015   3.065
 1560TIP3    H2 4687   3.181   0.874   3.020
 1561TIP3   OH2 4688   6.102   5.626   1.314
 1561TIP3    H1 4689   6.145   5.698   1.360
 1561TIP3    H2 4690   6.116   5.646   1.221
 1562TIP3   OH2 4691   1.429   3.404   0.825
 1562TIP3    H1 4692   1.420   3.393   0.730
 1562TIP3    H2 4693   1.375   3.480   0.845
 1563TIP3   OH2 4694   4.765   1.871   1.659
 1563TIP3    H1 4695   4.828   1.800   1.646
 1563TIP3    H2 4696   4.816   1.951   1.647
 1564TIP3   OH2 4697   1.229   1.551  -0.011
 1564TIP3    H1 4698   1.301   1.540   0.051
 1564TIP3    H2 4699   1.151   1.529   0.039
 1565TIP3   OH2 4700   3.267   1.072   0.204
 1565TIP3    H1 4701   3.358   1.099   0.197
 1565TIP3    H2 4702   3.224   1.109   0.127
 1566TIP3   OH2 4703   1.625   1.000   1.721
 1566TIP3    H1 4704   1.692   1.065   1.741
 1566TIP3    H2 4705   1.672   0.917   1.720
 1567TIP3   OH2 4706   4.205   5.691   2.534
 1567TIP3    H1 4707   4.227   5.618   2.593
 1567TIP3    H2 4708   4.233   5.769   2.582
 1568TIP3   OH2 4709   0.213   5.920   0.922
 1568TIP3    H1 4710   0.193   5.888   1.009
 1568TIP3    H2 4711   0.285   5.982   0.935
 1569TIP3   OH2 4712   2.458   3.792   1.674
 1569TIP3    H1 4713   2.395   3.723   1.691
 1569TIP3    H2 4714   2.444   3.815   1.582
 1570TIP3   OH2 4715   4.904   3.186   0.090
 1570TIP3    H1 4716   4.911   3.120   0.159
 1570TIP3    H2 4717   4.992   3.221   0.080
 1571TIP3   OH2 4718   4.502   0.209   4.133
 1571TIP3    H1 4719   4.485   0.203   4.039
 1571TIP3    H2 4720   4.491   0.119   4.165
 1572TIP3   OH2 4721   3.305   5.953   3.780
 1572TIP3    H1 4722   3.222   5.916   3.810
 1572TIP3    H2 4723   3.286   5.993   3.696
 1573TIP3   OH2 4724   5.800   4.705   2.653
 1573TIP3    H1 4725   5.877   4.756   2.626
 1573TIP3    H2 4726   5.741   4.771   2.689
 1574TIP3   OH2 4727   1.047   2.271   3.471
 1574TIP3    H1 4728   0.982   2.201   3.482
 1574TIP3    H2 4729   1.131   2.227   3.482
 1575TIP3   OH2 4730   5.441   1.560   3.240
 1575TIP3    H1 4731   5.493   1.584   3.316
 1575TIP3    H2 4732   5.360   1.524   3.276
 1576TIP3   OH2 4733   1.198   1.697   4.118
 1576TIP3    H1 4734   1.227   1.679   4.028
 1576TIP3    H2 4735   1.273   1.740   4.159
 1577TIP3   OH2 4736   5.937   1.221   0.638
 1577TIP3    H1 4737   5.916   1.256   0.724
 1577TIP3    H2 4738   5.899   1.285   0.577
 1578TIP3   OH2 4739   4.608   1.627   1.872
 1578TIP3    H1 4740   4.688   1.668   1.906
 1578TIP3    H2 4741   4.570   1.693   1.815
 1579TIP3   OH2 4742   6.027   2.493   3.076
 1579TIP3    H1 4743   6.117   2.464   3.061
 1579TIP3    H2 4744   6.005   2.461   3.163
 1580TIP3   OH2 4745   3.508   0.576   1.615
 1580TIP3    H1 4746   3.563   0.637   1.565
 1580TIP3    H2 4747   3.421   0.588   1.578
 1581TIP3   OH2 4748   0.144   3.559   2.249
 1581TIP3    H1 4749   0.236   3.568   2.275
 1581TIP3    H2 4750   0.116   3.475   2.287
 1582TIP3   OH2 4751   1.585   5.397   4.715
 1582TIP3    H1 4752   1.533   5.321   4.690
 1582TIP3    H2 4753   1.536   5.436   4.787
 1583TIP3   OH2 4754   1.388   0.949   3.634
 1583TIP3    H1 4755   1.301   0.922   3.604
 1583TIP3    H2 4756   1.374   0.976   3.725
 1584TIP3   OH2 4757   0.578   1.329   4.748
 1584TIP3    H1 4758   0.506   1.278   4.785
 1584TIP3    H2 4759   0.607   1.278   4.672
 1585TIP3   OH2 4760   2.711   1.092   3.375
 1585TIP3    H1 4761   2.698   0.999   3.360
 1585TIP3    H2 4762   2.623   1.125   3.396
 1586TIP3   OH2 4763   6.298   1.138   4.278
 1586TIP3    H1 4764   6.390   1.138   4.302
 1586TIP3    H2 4765   6.287   1.062   4.221
 1587TIP3   OH2 4766   2.736   0.976   4.600
 1587TIP3    H1 4767   2.813   0.974   4.656
 1587TIP3    H2 4768   2.700   1.064   4.612
 1588TIP3   OH2 4769   1.407   2.690   2.353
 1588TIP3    H1 4770   1.443   2.610   2.392
 1588TIP3    H2 4771   1.478   2.726   2.301
 1589TIP3   OH2 4772   4.244   3.289   2.775
 1589TIP3    H1 4773   4.280   3.374   2.802
 1589TIP3    H2 4774   4.271   3.229   2.844
 1590TIP3   OH2 4775   4.598   1.484   0.653
 1590TIP3    H1 4776   4.575   1.392   0.666
 1590TIP3    H2 4777   4.533   1.516   0.590
 1591TIP3   OH2 4778   5.420   2.609   0.846
 1591TIP3    H1 4779   5.504   2.646   0.876
 1591TIP3    H2 4780   5.394   2.667   0.775
 1592TIP3   OH2 4781   4.116   4.020   1.795
 1592TIP3    H1 4782   4.054   4.091   1.811
 1592TIP3    H2 4783   4.162   4.046   1.715
 1593TIP3   OH2 4784   5.300   1.043   1.662
 1593TIP3    H1 4785   5.273   1.055   1.571
 1593TIP3    H2 4786   5.324   0.951   1.668
 1594TIP3   OH2 4787   2.380   4.504   1.637
 1594TIP3    H1 4788   2.355   4.442   1.705
 1594TIP3    H2 4789   2.315   4.573   1.642
 1595TIP3   OH2 4790   2.734   3.954   3.220
 1595TIP3    H1 4791   2.694   3.893   3.281
 1595TIP3    H2 4792   2.824   3.965   3.253
 1596TIP3   OH2 4793   0.186   0.983   1.146
 1596TIP3    H1 4794   0.114   1.038   1.115
 1596TIP3    H2 4795   0.202   1.013   1.235
 1597TIP3   OH2 4796   2.851   3.989   5.172
 1597TIP3    H1 4797   2.777   3.970   5.114
 1597TIP3    H2 4798   2.811   4.018   5.254
 1598TIP3   OH2 4799   5.417   4.214   0.699
 1598TIP3    H1 4800   5.400   4.230   0.606
 1598TIP3    H2 4801   5.453   4.125   0.702
 1599TIP3   OH2 4802   5.475   1.860   0.609
 1599TIP3    H1 4803   5.406   1.916   0.574
 1599TIP3    H2 4804   5.551   1.879   0.554
 1600TIP3   OH2 4805   3.682   1.685   0.349
 1600TIP3    H1 4806   3.697   1.637   0.430
 1600TIP3    H2 4807   3.740   1.761   0.356
 1601TIP3   OH2 4808   1.612   5.347   4.073
 1601TIP3    H1 4809   1.554   5.381   4.005
 1601TIP3    H2 4810   1.561   5.278   4.116
 1602TIP3   OH2 4811   2.171   1.607   1.289
 1602TIP3    H1 4812   2.233   1.676   1.265
 1602TIP3    H2 4813   2.209   1.526   1.255
 1603TIP3   OH2 4814   1.140   3.148   4.242
 1603TIP3    H1 4815   1.120   3.076   4.182
 1603TIP3    H2 4816   1.100   3.225   4.201
 1604TIP3   OH2 4817   1.668   5.212   0.538
 1604TIP3    H1 4818   1.608   5.152   0.582
 1604TIP3    H2 4819   1.752   5.198   0.582
 1605TIP3   OH2 4820   2.440   4.964   0.286
 1605TIP3    H1 4821   2.463   4.904   0.357
 1605TIP3    H2 4822   2.413   5.045   0.330
 1606TIP3   OH2 4823   3.037   5.195   1.303
 1606TIP3    H1 4824   3.103   5.208   1.371
 1606TIP3    H2 4825   2.953   5.198   1.349
 1607TIP3   OH2 4826   3.274   2.885   3.596
 1607TIP3    H1 4827   3.288   2.821   3.527
 1607TIP3    H2 4828   3.287   2.835   3.677
 1608TIP3   OH2 4829   2.334   0.696   0.157
 1608TIP3    H1 4830   2.406   0.751   0.187
 1608TIP3    H2 4831   2.308   0.646   0.234
 1609TIP3   OH2 4832   0.020   2.912   0.451
 1609TIP3    H1 4833   0.031   2.994   0.404
 1609TIP3    H2 4834   0.021   2.936   0.543
 1610TIP3   OH2 4835   2.308   0.356   0.439
 1610TIP3    H1 4836   2.219   0.391   0.443
 1610TIP3    H2 4837   2.364   0.433   0.445
 1611TIP3   OH2 4838   2.170   0.517   1.010
 1611TIP3    H1 4839   2.259   0.515   1.048
 1611TIP3    H2 4840   2.157   0.429   0.976
 1612TIP3   OH2 4841   1.582   4.452   3.765
 1612TIP3    H1 4842   1.652   4.397   3.730
 1612TIP3    H2 4843   1.619   4.492   3.844
 1613TIP3   OH2 4844   3.420   4.892   2.953
 1613TIP3    H1 4845   3.497   4.943   2.976
 1613TIP3    H2 4846   3.362   4.901   3.029
 1614TIP3   OH2 4847   1.265   5.205   0.059
 1614TIP3    H1 4848   1.222   5.177   0.139
 1614TIP3    H2 4849   1.331   5.139   0.042
 1615TIP3   OH2 4850   3.150   3.217   4.123
 1615TIP3    H1 4851   3.079   3.157   4.145
 1615TIP3    H2 4852   3.113   3.274   4.055
 1616TIP3   OH2 4853   0.550   2.063   4.042
 1616TIP3    H1 4854   0.612   2.133   4.020
 1616TIP3    H2 4855   0.604   1.985   4.050
 1617TIP3   OH2 4856   0.581   2.149   4.956
 1617TIP3    H1 4857   0.525   2.203   4.900
 1617TIP3    H2 4858   0.619   2.084   4.898
 1618TIP3   OH2 4859   2.887   1.242   5.138
 1618TIP3    H1 4860   2.798   1.258   5.167
 1618TIP3    H2 4861   2.933   1.211   5.217
 1619TIP3   OH2 4862   4.595   3.493   1.885
 1619TIP3    H1 4863   4.627   3.582   1.900
 1619TIP3    H2 4864   4.502   3.503   1.866
 1620TIP3   OH2 4865   1.217   5.486   2.462
 1620TIP3    H1 4866   1.189   5.522   2.378
 1620TIP3    H2 4867   1.226   5.392   2.445
 1621TIP3   OH2 4868   5.981   5.575   1.003
 1621TIP3    H1 4869   5.892   5.565   1.036
 1621TIP3    H2 4870   5.987   5.667   0.978
 1622TIP3   OH2 4871   5.647   1.500   2.463
 1622TIP3    H1 4872   5.742   1.491   2.470
 1622TIP3    H2 4873   5.632   1.594   2.459
 1623TIP3   OH2 4874   4.312   3.156   2.513
 1623TIP3    H1 4875   4.287   3.174   2.603
 1623TIP3    H2 4876   4.360   3.234   2.485
 1624TIP3   OH2 4877   6.316   3.718   1.423
 1624TIP3    H1 4878   6.319   3.762   1.338
 1624TIP3    H2 4879   6.233   3.747   1.462
 1625TIP3   OH2 4880   0.402   2.048   2.811
 1625TIP3    H1 4881   0.401   1.990   2.887
 1625TIP3    H2 4882   0.370   1.993   2.739
 1626TIP3   OH2 4883   4.601   5.614   1.023
 1626TIP3    H1 4884   4.575   5.705   1.011
 1626TIP3    H2 4885   4.549   5.565   0.959
 1627TIP3   OH2 4886   0.771   2.703   3.816
 1627TIP3    H1 4887   0.678   2.685   3.831
 1627TIP3    H2 4888   0.810   2.698   3.904
 1628TIP3   OH2 4889   5.412   1.455   1.542
 1628TIP3    H1 4890   5.429   1.361   1.550
 1628TIP3    H2 4891   5.445   1.492   1.625
 1629TIP3   OH2 4892   5.368   5.538   1.147
 1629TIP3    H1 4893   5.286   5.509   1.107
 1629TIP3    H2 4894   5.350   5.628   1.174
 1630TIP3   OH2 4895   4.452   0.317   1.211
 1630TIP3    H1 4896   4.487   0.271   1.135
 1630TIP3    H2 4897   4.517   0.384   1.232
 1631TIP3   OH2 4898   5.552   5.895   2.448
 1631TIP3    H1 4899   5.559   5.970   2.507
 1631TIP3    H2 4900   5.525   5.932   2.365
 1632TIP3   OH2 4901   3.520   0.839   5.113
 1632TIP3    H1 4902   3.526   0.922   5.067
 1632TIP3    H2 4903   3.599   0.791   5.087
 1633TIP3   OH2 4904   0.604   1.953   3.187
 1633TIP3    H1 4905   0.568   2.020   3.246
 1633TIP3    H2 4906   0.539   1.945   3.118
 1634TIP3   OH2 4907   6.243   0.398   2.936
 1634TIP3    H1 4908   6.313   0.417   2.874
 1634TIP3    H2 4909   6.182   0.471   2.926
 1635TIP3   OH2 4910   3.614   4.079   3.595
 1635TIP3    H1 4911   3.585   3.994   3.628
 1635TIP3    H2 4912   3.708   4.068   3.580
 1636TIP3   OH2 4913   2.791   4.906   2.137
 1636TIP3    H1 4914   2.870   4.855   2.157
 1636TIP3    H2 4915   2.794   4.979   2.200
 1637TIP3   OH2 4916   2.126   1.321   4.230
 1637TIP3    H1 4917   2.100   1.401   4.185
 1637TIP3    H2 4918   2.105   1.251   4.169
 1638TIP3   OH2 4919   5.113   4.047   4.264
 1638TIP3    H1 4920   5.047   4.070   4.329
 1638TIP3    H2 4921   5.115   4.121   4.204
 1639TIP3   OH2 4922   3.599   4.108   3.198
 1639TIP3    H1 4923   3.562   4.019   3.197
 1639TIP3    H2 4924   3.671   4.103   3.261
 1640TIP3   OH2 4925   5.958   5.862   0.872
 1640TIP3    H1 4926   5.869   5.883   0.845
 1640TIP3    H2 4927   6.014   5.894   0.802
 1641TIP3   OH2 4928   2.244   4.773   1.661
 1641TIP3    H1 4929   2.244   4.763   1.756
 1641TIP3    H2 4930   2.285   4.859   1.646
 1642TIP3   OH2 4931   0.386   3.017   1.183
 1642TIP3    H1 4932   0.327   2.957   1.228
 1642TIP3    H2 4933   0.385   2.988   1.092
 1643TIP3   OH2 4934   1.103   5.582   1.474
 1643TIP3    H1 4935   1.093   5.647   1.544
 1643TIP3    H2 4936   1.195   5.556   1.479
 1644TIP3   OH2 4937   3.530   5.020   0.554
 1644TIP3    H1 4938   3.511   5.058   0.469
 1644TIP3    H2 4939   3.505   4.928   0.546
 1645TIP3   OH2 4940   5.942   3.650   2.494
 1645TIP3    H1 4941   6.026   3.695   2.484
 1645TIP3    H2 4942   5.961   3.577   2.553
 1646TIP3   OH2 4943   5.800   3.121   0.832
 1646TIP3    H1 4944   5.762   3.080   0.909
 1646TIP3    H2 4945   5.893   3.098   0.836
 1647TIP3   OH2 4946   1.540   2.627   4.131
 1647TIP3    H1 4947   1.588   2.645   4.212
 1647TIP3    H2 4948   1.457   2.589   4.160
 1648TIP3   OH2 4949   0.395   4.506   3.719
 1648TIP3    H1 4950   0.336   4.431   3.723
 1648TIP3    H2 4951   0.473   4.473   3.675
 1649TIP3   OH2 4952   0.264   5.036   0.976
 1649TIP3    H1 4953   0.305   5.063   1.058
 1649TIP3    H2 4954   0.271   5.114   0.919
 1650TIP3   OH2 4955   2.897   2.257   0.234
 1650TIP3    H1 4956   2.972   2.307   0.266
 1650TIP3    H2 4957   2.831   2.265   0.304
 1651TIP3   OH2 4958   0.339   2.111   1.671
 1651TIP3    H1 4959   0.415   2.142   1.621
 1651TIP3    H2 4960   0.271   2.096   1.605
 1652TIP3   OH2 4961   5.179   0.198   1.132
 1652TIP3    H1 4962   5.263   0.205   1.176
 1652TIP3    H2 4963   5.201   0.175   1.041
 1653TIP3   OH2 4964   5.630   5.368   1.402
 1653TIP3    H1 4965   5.586   5.329   1.477
 1653TIP3    H2 4966   5.591   5.325   1.326
 1654TIP3   OH2 4967   5.605   4.331   4.626
 1654TIP3    H1 4968   5.652   4.248   4.613
 1654TIP3    H2 4969   5.672   4.398   4.614
 1655TIP3   OH2 4970   4.168   0.875   2.728
 1655TIP3    H1 4971   4.189   0.962   2.694
 1655TIP3    H2 4972   4.095   0.889   2.788
 1656TIP3   OH2 4973   5.336   3.408   4.130
 1656TIP3    H1 4974   5.293   3.322   4.126
 1656TIP3    H2 4975   5.270   3.467   4.165
 1657TIP3   OH2 4976   3.974   1.257   1.517
 1657TIP3    H1 4977   4.062   1.286   1.543
 1657TIP3    H2 4978   3.919   1.334   1.530
 1658TIP3   OH2 4979   3.588   4.048   4.445
 1658TIP3    H1 4980   3.523   4.078   4.509
 1658TIP3    H2 4981   3.616   4.128   4.400
 1659TIP3   OH2 4982   4.371   5.060   1.105
 1659TIP3    H1 4983   4.287   5.036   1.146
 1659TIP3    H2 4984   4.396   4.982   1.056
 1660TIP3   OH2 4985   6.137   3.793   5.114
 1660TIP3    H1 4986   6.068   3.766   5.174
 1660TIP3    H2 4987   6.177   3.711   5.085
 1661TIP3   OH2 4988   1.122   0.642   1.788
 1661TIP3    H1 4989   1.148   0.670   1.876
 1661TIP3    H2 4990   1.194   0.585   1.759
 1662TIP3   OH2 4991   1.110   2.000   4.623
 1662TIP3    H1 4992   1.085   1.941   4.552
 1662TIP3    H2 4993   1.137   2.081   4.579
 1663TIP3   OH2 4994   1.943   4.681   0.932
 1663TIP3    H1 4995   2.019   4.623   0.927
 1663TIP3    H2 4996   1.877   4.640   0.877
 1664TIP3   OH2 4997   2.624   4.181   2.795
 1664TIP3    H1 4998   2.613   4.274   2.813
 1664TIP3    H2 4999   2.548   4.158   2.742
 1665TIP3   OH2 5000   1.287   4.439   1.871
 1665TIP3    H1 5001   1.315   4.522   1.909
 1665TIP3    H2 5002   1.219   4.462   1.807
 1666TIP3   OH2 5003   5.782   3.043   1.738
 1666TIP3    H1 5004   5.847   2.972   1.747
 1666TIP3    H2 5005   5.832   3.123   1.755
 1667TIP3   OH2 5006   5.775   5.271   3.467
 1667TIP3    H1 5007   5.699   5.236   3.421
 1667TIP3    H2 5008   5.849   5.252   3.409
 1668TIP3   OH2 5009   0.411   5.905   0.566
 1668TIP3    H1 5010   0.385   5.917   0.474
 1668TIP3    H2 5011   0.378   5.983   0.611
 1669TIP3   OH2 5012   4.089  -0.010   4.382
 1669TIP3    H1 5013   4.169  -0.061   4.369
 1669TIP3    H2 5014   4.120   0.077   4.407
 1670TIP3   OH2 5015   1.116   0.630   3.883
 1670TIP3    H1 5016   1.115   0.698   3.816
 1670TIP3    H2 5017   1.185   0.656   3.944
 1671TIP3   OH2 5018   2.191   4.005   4.149
 1671TIP3    H1 5019   2.108   4.054   4.145
 1671TIP3    H2 5020   2.166   3.914   4.134
 1672TIP3   OH2 5021   1.339   4.243   4.123
 1672TIP3    H1 5022   1.272   4.211   4.184
 1672TIP3    H2 5023   1.357   4.333   4.152
 1673TIP3   OH2 5024   1.020   4.667   4.389
 1673TIP3    H1 5025   1.053   4.681   4.301
 1673TIP3    H2 5026   0.940   4.616   4.377
 1674TIP3   OH2 5027   4.734   0.627   4.552
 1674TIP3    H1 5028   4.824   0.628   4.585
 1674TIP3    H2 5029   4.743   0.643   4.458
 1675TIP3   OH2 5030   0.633   0.639   4.768
 1675TIP3    H1 5031   0.569   0.710   4.765
 1675TIP3    H2 5032   0.621   0.600   4.855
 1676TIP3   OH2 5033   1.740   3.975   1.155
 1676TIP3    H1 5034   1.645   3.974   1.146
 1676TIP3    H2 5035   1.766   4.063   1.130
 1677TIP3   OH2 5036   4.569   5.053   3.875
 1677TIP3    H1 5037   4.527   5.112   3.812
 1677TIP3    H2 5038   4.505   5.046   3.946
 1678TIP3   OH2 5039   3.661   4.864   1.758
 1678TIP3    H1 5040   3.719   4.925   1.804
 1678TIP3    H2 5041   3.574   4.905   1.765
 1679TIP3   OH2 5042   5.304   1.050   1.030
 1679TIP3    H1 5043   5.392   1.013   1.024
 1679TIP3    H2 5044   5.293   1.101   0.950
 1680TIP3   OH2 5045   4.744   2.334   1.351
 1680TIP3    H1 5046   4.688   2.410   1.369
 1680TIP3    H2 5047   4.684   2.267   1.317
 1681TIP3   OH2 5048   3.410   5.906   1.286
 1681TIP3    H1 5049   3.474   5.858   1.340
 1681TIP3    H2 5050   3.403   5.854   1.206
 1682TIP3   OH2 5051   6.112   3.197   1.535
 1682TIP3    H1 5052   6.044   3.207   1.601
 1682TIP3    H2 5053   6.107   3.277   1.483
 1683TIP3   OH2 5054   1.789   2.332   1.743
 1683TIP3    H1 5055   1.760   2.271   1.675
 1683TIP3    H2 5056   1.803   2.414   1.697
 1684TIP3   OH2 5057   2.734   1.551   5.133
 1684TIP3    H1 5058   2.700   1.492   5.066
 1684TIP3    H2 5059   2.693   1.522   5.214
 1685TIP3   OH2 5060   5.676   5.417   3.123
 1685TIP3    H1 5061   5.639   5.367   3.195
 1685TIP3    H2 5062   5.666   5.361   3.047
 1686TIP3   OH2 5063   3.743   5.380   2.667
 1686TIP3    H1 5064   3.819   5.380   2.726
 1686TIP3    H2 5065   3.690   5.454   2.696
 1687TIP3   OH2 5066   2.772   2.764   0.714
 1687TIP3    H1 5067   2.766   2.711   0.794
 1687TIP3    H2 5068   2.730   2.846   0.737
 1688TIP3   OH2 5069   1.793   5.040   2.464
 1688TIP3    H1 5070   1.874   5.076   2.501
 1688TIP3    H2 5071   1.818   5.008   2.377
 1689TIP3   OH2 5072   6.132   0.652   2.378
 1689TIP3    H1 5073   6.206   0.603   2.414
 1689TIP3    H2 5074   6.165   0.741   2.367
 1690TIP3   OH2 5075   1.407   3.404   0.028
 1690TIP3    H1 5076   1.495   3.416   0.066
 1690TIP3    H2 5077   1.391   3.310   0.035
 1691TIP3   OH2 5078   0.396   0.328   0.069
 1691TIP3    H1 5079   0.454   0.256   0.092
 1691TIP3    H2 5080   0.396   0.385   0.146
 1692TIP3   OH2 5081   5.179   0.207   0.861
 1692TIP3    H1 5082   5.251   0.265   0.834
 1692TIP3    H2 5083   5.102   0.264   0.863
 1693TIP3   OH2 5084   2.736   4.203   3.441
 1693TIP3    H1 5085   2.823   4.189   3.402
 1693TIP3    H2 5086   2.727   4.298   3.444
 1694TIP3   OH2 5087   5.059   4.709   3.718
 1694TIP3    H1 5088   5.120   4.637   3.738
 1694TIP3    H2 5089   5.057   4.711   3.622
 1695TIP3   OH2 5090   4.464   0.776   1.622
 1695TIP3    H1 5091   4.559   0.783   1.619
 1695TIP3    H2 5092   4.444   0.757   1.714
 1696TIP3   OH2 5093   2.950   2.721   2.922
 1696TIP3    H1 5094   2.966   2.704   2.829
 1696TIP3    H2 5095   3.037   2.724   2.961
 1697TIP3   OH2 5096   2.594   0.552   2.075
 1697TIP3    H1 5097   2.649   0.631   2.074
 1697TIP3    H2 5098   2.505   0.586   2.087
 1698TIP3   OH2 5099   4.257   2.705   2.832
 1698TIP3    H1 5100   4.258   2.668   2.744
 1698TIP3    H2 5101   4.288   2.635   2.889
 1699TIP3   OH2 5102   0.932   4.256   2.398
 1699TIP3    H1 5103   0.969   4.337   2.364
 1699TIP3    H2 5104   0.890   4.282   2.480
 1700TIP3   OH2 5105   4.387   0.563   5.085
 1700TIP3    H1 5106   4.394   0.652   5.050
 1700TIP3    H2 5107   4.477   0.531   5.085
 1701TIP3   OH2 5108   2.968   4.615   3.711
 1701TIP3    H1 5109   3.009   4.630   3.626
 1701TIP3    H2 5110   2.957   4.703   3.749
 1702TIP3   OH2 5111   5.452   4.796   3.286
 1702TIP3    H1 5112   5.498   4.849   3.221
 1702TIP3    H2 5113   5.364   4.834   3.290
 1703TIP3   OH2 5114   4.369   3.029   4.917
 1703TIP3    H1 5115   4.370   2.988   5.003
 1703TIP3    H2 5116   4.358   3.122   4.935
 1704TIP3   OH2 5117   6.208   4.796   4.509
 1704TIP3    H1 5118   6.146   4.843   4.453
 1704TIP3    H2 5119   6.176   4.811   4.598
 1705TIP3   OH2 5120   6.332   4.181   2.019
 1705TIP3    H1 5121   6.272   4.122   1.974
 1705TIP3    H2 5122   6.405   4.194   1.959
 1706TIP3   OH2 5123   5.474   4.336   3.586
 1706TIP3    H1 5124   5.483   4.254   3.536
 1706TIP3    H2 5125   5.559   4.379   3.576
 1707TIP3   OH2 5126   5.878   4.484   1.398
 1707TIP3    H1 5127   5.799   4.445   1.360
 1707TIP3    H2 5128   5.906   4.421   1.465
 1708TIP3   OH2 5129   5.972   1.055   2.303
 1708TIP3    H1 5130   6.004   1.115   2.236
 1708TIP3    H2 5131   6.051   1.024   2.347
 1709TIP3   OH2 5132   0.678   3.639   0.767
 1709TIP3    H1 5133   0.610   3.607   0.826
 1709TIP3    H2 5134   0.630   3.681   0.696
 1710TIP3   OH2 5135   1.205   2.583   2.189
 1710TIP3    H1 5136   1.203   2.608   2.096
 1710TIP3    H2 5137   1.244   2.658   2.233
 1711TIP3   OH2 5138   1.290   0.810   4.027
 1711TIP3    H1 5139   1.257   0.876   3.965
 1711TIP3    H2 5140   1.321   0.862   4.101
 1712TIP3   OH2 5141   1.733   4.173   4.697
 1712TIP3    H1 5142   1.668   4.221   4.748
 1712TIP3    H2 5143   1.797   4.240   4.670
 1713TIP3   OH2 5144   3.584   4.827   3.379
 1713TIP3    H1 5145   3.541   4.904   3.415
 1713TIP3    H2 5146   3.617   4.779   3.455
 1714TIP3   OH2 5147   3.925   5.911   1.543
 1714TIP3    H1 5148   4.021   5.913   1.554
 1714TIP3    H2 5149   3.904   5.818   1.539
 1715TIP3   OH2 5150   1.833   0.128   3.906
 1715TIP3    H1 5151   1.770   0.199   3.892
 1715TIP3    H2 5152   1.805   0.059   3.846
 1716TIP3   OH2 5153   1.045   2.679   0.479
 1716TIP3    H1 5154   0.974   2.740   0.457
 1716TIP3    H2 5155   1.043   2.674   0.575
 1717TIP3   OH2 5156   2.478   0.029   1.387
 1717TIP3    H1 5157   2.500   0.116   1.422
 1717TIP3    H2 5158   2.563  -0.015   1.378
 1718TIP3   OH2 5159   4.582   3.163   4.439
 1718TIP3    H1 5160   4.602   3.078   4.477
 1718TIP3    H2 5161   4.625   3.162   4.353
 1719TIP3   OH2 5162   4.996   0.897   0.798
 1719TIP3    H1 5163   4.967   0.906   0.707
 1719TIP3    H2 5164   4.939   0.957   0.847
 1720TIP3   OH2 5165   2.916   5.641   1.941
 1720TIP3    H1 5166   2.945   5.719   1.895
 1720TIP3    H2 5167   2.821   5.651   1.947
 1721TIP3   OH2 5168   0.071   5.626   0.466
 1721TIP3    H1 5169   0.042   5.681   0.394
 1721TIP3    H2 5170  -0.010   5.590   0.503
 1722TIP3   OH2 5171   4.252   1.536   0.217
 1722TIP3    H1 5172   4.279   1.627   0.207
 1722TIP3    H2 5173   4.156   1.539   0.215
 1723TIP3   OH2 5174   0.519   4.191   4.161
 1723TIP3    H1 5175   0.530   4.096   4.151
 1723TIP3    H2 5176   0.485   4.220   4.076
 1724TIP3   OH2 5177   3.304   1.936   1.237
 1724TIP3    H1 5178   3.315   1.996   1.163
 1724TIP3    H2 5179   3.391   1.897   1.248
 1725TIP3   OH2 5180   2.190   3.362   2.971
 1725TIP3    H1 5181   2.284   3.352   2.985
 1725TIP3    H2 5182   2.160   3.275   2.944
 1726TIP3   OH2 5183   3.201   0.134   0.523
 1726TIP3    H1 5184   3.251   0.067   0.476
 1726TIP3    H2 5185   3.115   0.095   0.536
 1727TIP3   OH2 5186   1.857   1.478   0.332
 1727TIP3    H1 5187   1.944   1.458   0.367
 1727TIP3    H2 5188   1.820   1.540   0.394
 1728TIP3   OH2 5189   2.956   0.894   0.886
 1728TIP3    H1 5190   3.022   0.845   0.837
 1728TIP3    H2 5191   2.960   0.858   0.974
 1729TIP3   OH2 5192   4.201   4.827   1.711
 1729TIP3    H1 5193   4.120   4.784   1.683
 1729TIP3    H2 5194   4.185   4.920   1.696
 1730TIP3   OH2 5195   2.421   3.357   1.659
 1730TIP3    H1 5196   2.396   3.437   1.706
 1730TIP3    H2 5197   2.443   3.295   1.728
 1731TIP3   OH2 5198   0.654   1.519   3.001
 1731TIP3    H1 5199   0.586   1.576   2.963
 1731TIP3    H2 5200   0.646   1.437   2.951
 1732TIP3   OH2 5201   4.812   0.764   5.049
 1732TIP3    H1 5202   4.800   0.739   5.140
 1732TIP3    H2 5203   4.773   0.851   5.042
 1733TIP3   OH2 5204   0.997   4.694   0.770
 1733TIP3    H1 5205   1.059   4.641   0.820
 1733TIP3    H2 5206   0.952   4.748   0.836
 1734TIP3   OH2 5207   1.379   2.930   2.829
 1734TIP3    H1 5208   1.411   2.844   2.802
 1734TIP3    H2 5209   1.284   2.926   2.815
 1735TIP3   OH2 5210   0.657   4.442   4.116
 1735TIP3    H1 5211   0.700   4.413   4.035
 1735TIP3    H2 5212   0.601   4.369   4.140
 1736TIP3   OH2 5213   5.841   0.648   0.688
 1736TIP3    H1 5214   5.885   0.715   0.637
 1736TIP3    H2 5215   5.759   0.631   0.641
 1737TIP3   OH2 5216   2.646   0.560   3.844
 1737TIP3    H1 5217   2.565   0.529   3.802
 1737TIP3    H2 5218   2.616   0.600   3.926
 1738TIP3   OH2 5219   4.971   3.552   0.330
 1738TIP3    H1 5220   4.970   3.482   0.264
 1738TIP3    H2 5221   4.879   3.565   0.353
 1739TIP3   OH2 5222   5.824   2.034   3.977
 1739TIP3    H1 5223   5.849   1.975   4.048
 1739TIP3    H2 5224   5.768   1.981   3.920
 1740TIP3   OH2 5225   3.708   3.293   1.279
 1740TIP3    H1 5226   3.642   3.358   1.252
 1740TIP3    H2 5227   3.792   3.333   1.255
 1741TIP3   OH2 5228   3.944   5.587   3.974
 1741TIP3    H1 5229   3.849   5.589   3.988
 1741TIP3    H2 5230   3.957   5.516   3.912
 1742TIP3   OH2 5231   1.886   0.601   4.632
 1742TIP3    H1 5232   1.916   0.691   4.619
 1742TIP3    H2 5233   1.809   0.610   4.688
 1743TIP3   OH2 5234   1.360   0.543   3.666
 1743TIP3    H1 5235   1.306   0.623   3.665
 1743TIP3    H2 5236   1.332   0.494   3.589
 1744TIP3   OH2 5237   4.780   5.385   2.154
 1744TIP3    H1 5238   4.687   5.396   2.131
 1744TIP3    H2 5239   4.806   5.304   2.109
 1745TIP3   OH2 5240   0.749   0.423   4.475
 1745TIP3    H1 5241   0.787   0.510   4.467
 1745TIP3    H2 5242   0.714   0.404   4.388
 1746TIP3   OH2 5243   4.989   5.272   4.457
 1746TIP3    H1 5244   5.032   5.284   4.372
 1746TIP3    H2 5245   4.940   5.354   4.470
 1747TIP3   OH2 5246   0.424   2.429   3.480
 1747TIP3    H1 5247   0.392   2.340   3.491
 1747TIP3    H2 5248   0.516   2.425   3.505
 1748TIP3   OH2 5249   5.400   5.860   4.582
 1748TIP3    H1 5250   5.395   5.894   4.672
 1748TIP3    H2 5251   5.433   5.934   4.530
 1749TIP3   OH2 5252   1.747   4.988   3.600
 1749TIP3    H1 5253   1.754   4.906   3.649
 1749TIP3    H2 5254   1.662   4.984   3.557
 1750TIP3   OH2 5255   0.830   2.753   2.369
 1750TIP3    H1 5256   0.889   2.805   2.314
 1750TIP3    H2 5257   0.748   2.751   2.320
 1751TIP3   OH2 5258   0.903   0.553   1.616
 1751TIP3    H1 5259   0.925   0.463   1.639
 1751TIP3    H2 5260   0.944   0.607   1.684
 1752TIP3   OH2 5261   6.185   5.596   3.005
 1752TIP3    H1 5262   6.091   5.593   3.024
 1752TIP3    H2 5263   6.192   5.569   2.913
 1753TIP3   OH2 5264   2.908   3.492   1.443
 1753TIP3    H1 5265   2.837   3.553   1.420
 1753TIP3    H2 5266   2.866   3.407   1.450
 1754TIP3   OH2 5267   4.844   5.804   3.944
 1754TIP3    H1 5268   4.817   5.719   3.908
 1754TIP3    H2 5269   4.915   5.782   4.005
 1755TIP3   OH2 5270   6.048   4.111   3.982
 1755TIP3    H1 5271   6.117   4.096   3.917
 1755TIP3    H2 5272   6.079   4.186   4.032
 1756TIP3   OH2 5273   1.035   5.986   3.759
 1756TIP3    H1 5274   1.079   5.974   3.844
 1756TIP3    H2 5275   1.050   5.904   3.713
 1757TIP3   OH2 5276   5.179   1.584   3.064
 1757TIP3    H1 5277   5.233   1.657   3.095
 1757TIP3    H2 5278   5.092   1.622   3.052
 1758TIP3   OH2 5279   5.658   4.192   3.945
 1758TIP3    H1 5280   5.610   4.110   3.935
 1758TIP3    H2 5281   5.684   4.194   4.037
 1759TIP3   OH2 5282   3.511   1.890   0.183
 1759TIP3    H1 5283   3.423   1.852   0.191
 1759TIP3    H2 5284   3.566   1.835   0.238
 1760TIP3   OH2 5285   0.808   4.555   3.388
 1760TIP3    H1 5286   0.883   4.556   3.447
 1760TIP3    H2 5287   0.843   4.520   3.306
 1761TIP3   OH2 5288   4.690   0.218   1.082
 1761TIP3    H1 5289   4.730   0.131   1.077
 1761TIP3    H2 5290   4.702   0.245   1.173
 1762TIP3   OH2 5291   3.094   4.577   2.920
 1762TIP3    H1 5292   3.010   4.533   2.933
 1762TIP3    H2 5293   3.097   4.644   2.988
 1763TIP3   OH2 5294   1.165   5.178   4.460
 1763TIP3    H1 5295   1.255   5.206   4.477
 1763TIP3    H2 5296   1.114   5.258   4.464
 1764TIP3   OH2 5297   4.365   3.537   2.170
 1764TIP3    H1 5298   4.302   3.489   2.223
 1764TIP3    H2 5299   4.371   3.623   2.212
 1765TIP3   OH2 5300   5.151   4.217   1.389
 1765TIP3    H1 5301   5.244   4.238   1.388
 1765TIP3    H2 5302   5.146   4.129   1.351
 1766TIP3   OH2 5303   2.614   3.393   1.465
 1766TIP3    H1 5304   2.542   3.380   1.527
 1766TIP3    H2 5305   2.609   3.486   1.442
 1767TIP3   OH2 5306   1.326   2.499   3.626
 1767TIP3    H1 5307   1.331   2.547   3.543
 1767TIP3    H2 5308   1.232   2.494   3.645
 1768TIP3   OH2 5309   3.778   3.731   3.867
 1768TIP3    H1 5310   3.743   3.740   3.778
 1768TIP3    H2 5311   3.713   3.678   3.913
 1769TIP3   OH2 5312   2.024   2.958   2.905
 1769TIP3    H1 5313   1.964   2.884   2.898
 1769TIP3    H2 5314   1.969   3.035   2.891
 1770TIP3   OH2 5315   2.532   1.294   2.831
 1770TIP3    H1 5316   2.507   1.351   2.758
 1770TIP3    H2 5317   2.597   1.345   2.880
 1771TIP3   OH2 5318   0.618   0.692   0.466
 1771TIP3    H1 5319   0.699   0.690   0.516
 1771TIP3    H2 5320   0.637   0.643   0.386
 1772TIP3   OH2 5321   5.001   1.130   3.963
 1772TIP3    H1 5322   4.963   1.062   4.019
 1772TIP3    H2 5323   5.088   1.144   4.000
 1773TIP3   OH2 5324   2.306   5.361   3.186
 1773TIP3    H1 5325   2.222   5.348   3.231
 1773TIP3    H2 5326   2.347   5.434   3.232
 1774TIP3   OH2 5327   4.040   1.429   2.413
 1774TIP3    H1 5328   4.096   1.475   2.475
 1774TIP3    H2 5329   4.035   1.339   2.447
 1775TIP3   OH2 5330   0.037   4.782   3.209
 1775TIP3    H1 5331   0.078   4.828   3.136
 1775TIP3    H2 5332  -0.052   4.816   3.212
 1776TIP3   OH2 5333   2.064   1.463   4.733
 1776TIP3    H1 5334   2.037   1.426   4.649
 1776TIP3    H2 5335   1.988   1.452   4.790
 1777TIP3   OH2 5336   1.252   4.637   0.488
 1777TIP3    H1 5337   1.268   4.618   0.396
 1777TIP3    H2 5338   1.201   4.718   0.488
 1778TIP3   OH2 5339   1.169   0.413   1.361
 1778TIP3    H1 5340   1.129   0.479   1.304
 1778TIP3    H2 5341   1.095   0.365   1.398
 1779TIP3   OH2 5342   3.311   2.120   1.684
 1779TIP3    H1 5343   3.317   2.165   1.600
 1779TIP3    H2 5344   3.309   2.027   1.661
 1780TIP3   OH2 5345   3.230   0.997   0.450
 1780TIP3    H1 5346   3.241   1.014   0.356
 1780TIP3    H2 5347   3.209   1.082   0.487
 1781TIP3   OH2 5348   4.843   2.625   1.117
 1781TIP3    H1 5349   4.876   2.594   1.033
 1781TIP3    H2 5350   4.896   2.579   1.182
 1782TIP3   OH2 5351   4.342   3.158   3.034
 1782TIP3    H1 5352   4.259   3.136   3.077
 1782TIP3    H2 5353   4.390   3.076   3.031
 1783TIP3   OH2 5354   2.495   0.577   0.434
 1783TIP3    H1 5355   2.446   0.640   0.487
 1783TIP3    H2 5356   2.586   0.588   0.463
 1784TIP3   OH2 5357   6.304   3.536   2.069
 1784TIP3    H1 5358   6.371   3.532   2.138
 1784TIP3    H2 5359   6.288   3.629   2.056
 1785TIP3   OH2 5360   3.424   5.935   1.816
 1785TIP3    H1 5361   3.353   5.898   1.870
 1785TIP3    H2 5362   3.461   6.004   1.871
 1786TIP3   OH2 5363   0.409   4.988   5.014
 1786TIP3    H1 5364   0.393   4.998   4.920
 1786TIP3    H2 5365   0.413   4.894   5.028
 1787TIP3   OH2 5366   2.169   4.826   2.537
 1787TIP3    H1 5367   2.259   4.855   2.523
 1787TIP3    H2 5368   2.134   4.810   2.449
 1788TIP3   OH2 5369   0.214   3.617   2.658
 1788TIP3    H1 5370   0.200   3.686   2.593
 1788TIP3    H2 5371   0.151   3.549   2.634
 1789TIP3   OH2 5372   5.873   0.494   2.971
 1789TIP3    H1 5373   5.806   0.549   2.929
 1789TIP3    H2 5374   5.926   0.556   3.022
 1790TIP3   OH2 5375   0.956   4.042   2.224
 1790TIP3    H1 5376   0.865   4.032   2.194
 1790TIP3    H2 5377   0.950   4.106   2.295
 1791TIP3   OH2 5378   0.777   5.789   0.911
 1791TIP3    H1 5379   0.803   5.881   0.903
 1791TIP3    H2 5380   0.797   5.765   1.001
 1792TIP3   OH2 5381   3.904   4.533   1.289
 1792TIP3    H1 5382   3.909   4.504   1.198
 1792TIP3    H2 5383   3.956   4.614   1.291
 1793TIP3   OH2 5384   2.675   5.039   3.519
 1793TIP3    H1 5385   2.659   4.945   3.520
 1793TIP3    H2 5386   2.590   5.078   3.539
 1794TIP3   OH2 5387   3.881   4.197   1.896
 1794TIP3    H1 5388   3.929   4.215   1.977
 1794TIP3    H2 5389   3.885   4.279   1.847
 1795TIP3   OH2 5390   3.053   0.069   1.000
 1795TIP3    H1 5391   2.970   0.048   1.043
 1795TIP3    H2 5392   3.110   0.100   1.070
 1796TIP3   OH2 5393   3.901   4.022   3.844
 1796TIP3    H1 5394   3.840   3.972   3.899
 1796TIP3    H2 5395   3.885   3.990   3.755
 1797TIP3   OH2 5396   0.396   2.211   2.395
 1797TIP3    H1 5397   0.418   2.121   2.368
 1797TIP3    H2 5398   0.409   2.263   2.316
 1798TIP3   OH2 5399   2.465   0.587   4.986
 1798TIP3    H1 5400   2.482   0.512   5.044
 1798TIP3    H2 5401   2.437   0.547   4.904
 1799TIP3   OH2 5402   5.314   2.383   0.939
 1799TIP3    H1 5403   5.362   2.465   0.934
 1799TIP3    H2 5404   5.222   2.409   0.933
 1800TIP3   OH2 5405   2.094   3.499   1.184
 1800TIP3    H1 5406   2.175   3.537   1.150
 1800TIP3    H2 5407   2.095   3.521   1.277
 1801TIP3   OH2 5408   2.550   4.164   5.012
 1801TIP3    H1 5409   2.458   4.172   5.036
 1801TIP3    H2 5410   2.574   4.075   5.035
 1802TIP3   OH2 5411   1.510   0.973   2.476
 1802TIP3    H1 5412   1.450   0.899   2.482
 1802TIP3    H2 5413   1.525   0.984   2.382
 1803TIP3   OH2 5414   0.990   1.787   3.446
 1803TIP3    H1 5415   0.926   1.804   3.377
 1803TIP3    H2 5416   0.963   1.702   3.482
 1804TIP3   OH2 5417   3.463   2.088   3.233
 1804TIP3    H1 5418   3.426   2.000   3.248
 1804TIP3    H2 5419   3.386   2.143   3.219
 1805TIP3   OH2 5420   4.250   3.810   4.618
 1805TIP3    H1 5421   4.263   3.903   4.632
 1805TIP3    H2 5422   4.196   3.782   4.692
 1806TIP3   OH2 5423   5.227   2.337   4.022
 1806TIP3    H1 5424   5.206   2.429   4.010
 1806TIP3    H2 5425   5.279   2.335   4.103
 1807TIP3   OH2 5426   6.088   5.735   0.429
 1807TIP3    H1 5427   6.011   5.751   0.375
 1807TIP3    H2 5428   6.161   5.731   0.368
 1808TIP3   OH2 5429   0.330   5.854   0.297
 1808TIP3    H1 5430   0.234   5.847   0.295
 1808TIP3    H2 5431   0.361   5.764   0.291
 1809TIP3   OH2 5432   1.603   2.348   4.839
 1809TIP3    H1 5433   1.616   2.364   4.932
 1809TIP3    H2 5434   1.539   2.277   4.836
 1810TIP3   OH2 5435   4.072   4.722   4.451
 1810TIP3    H1 5436   4.076   4.675   4.534
 1810TIP3    H2 5437   4.122   4.667   4.391
 1811TIP3   OH2 5438   5.866   0.763   2.276
 1811TIP3    H1 5439   5.882   0.849   2.316
 1811TIP3    H2 5440   5.947   0.715   2.291
 1812TIP3   OH2 5441   4.614   3.610   3.369
 1812TIP3    H1 5442   4.669   3.633   3.444
 1812TIP3    H2 5443   4.574   3.693   3.343
 1813TIP3   OH2 5444   1.561   4.544   2.139
 1813TIP3    H1 5445   1.534   4.593   2.217
 1813TIP3    H2 5446   1.512   4.585   2.067
 1814TIP3   OH2 5447   2.980   4.018   0.465
 1814TIP3    H1 5448   3.069   4.034   0.432
 1814TIP3    H2 5449   2.950   4.104   0.495
 1815TIP3   OH2 5450   2.465   5.725   4.424
 1815TIP3    H1 5451   2.421   5.756   4.504
 1815TIP3    H2 5452   2.513   5.647   4.452
 1816TIP3   OH2 5453   5.801   2.172   2.899
 1816TIP3    H1 5454   5.776   2.252   2.946
 1816TIP3    H2 5455   5.721   2.119   2.900
 1817TIP3   OH2 5456   2.675   2.904   3.657
 1817TIP3    H1 5457   2.723   2.863   3.585
 1817TIP3    H2 5458   2.590   2.927   3.620
 1818TIP3   OH2 5459   3.131   5.880   1.891
 1818TIP3    H1 5460   3.150   5.891   1.797
 1818TIP3    H2 5461   3.067   5.949   1.910
 1819TIP3   OH2 5462   1.026   2.131   2.300
 1819TIP3    H1 5463   0.937   2.157   2.276
 1819TIP3    H2 5464   1.082   2.170   2.233
 1820TIP3   OH2 5465   3.816   0.843   2.064
 1820TIP3    H1 5466   3.738   0.805   2.104
 1820TIP3    H2 5467   3.882   0.774   2.069
 1821TIP3   OH2 5468   0.942   5.031   4.713
 1821TIP3    H1 5469   1.001   4.958   4.733
 1821TIP3    H2 5470   0.863   4.989   4.680
 1822TIP3   OH2 5471   6.269   4.561   0.553
 1822TIP3    H1 5472   6.277   4.654   0.534
 1822TIP3    H2 5473   6.195   4.555   0.614
 1823TIP3   OH2 5474   3.220   2.187   3.188
 1823TIP3    H1 5475   3.152   2.120   3.188
 1823TIP3    H2 5476   3.206   2.236   3.106
 1824TIP3   OH2 5477   4.241   0.010   5.133
 1824TIP3    H1 5478   4.169   0.056   5.091
 1824TIP3    H2 5479   4.206  -0.018   5.217
 1825TIP3   OH2 5480   5.654   1.157   0.459
 1825TIP3    H1 5481   5.605   1.135   0.380
 1825TIP3    H2 5482   5.706   1.233   0.434
 1826TIP3   OH2 5483   1.823   0.924   4.134
 1826TIP3    H1 5484   1.771   0.911   4.214
 1826TIP3    H2 5485   1.831   0.837   4.096
 1827TIP3   OH2 5486   5.123   1.437   2.123
 1827TIP3    H1 5487   5.113   1.356   2.173
 1827TIP3    H2 5488   5.110   1.507   2.187
 1828TIP3   OH2 5489   0.605   2.993   3.818
 1828TIP3    H1 5490   0.576   2.931   3.752
 1828TIP3    H2 5491   0.681   2.951   3.859
 1829TIP3   OH2 5492   4.820   0.446   3.190
 1829TIP3    H1 5493   4.866   0.362   3.181
 1829TIP3    H2 5494   4.770   0.455   3.109
 1830TIP3   OH2 5495   3.574   5.167   3.254
 1830TIP3    H1 5496   3.616   5.251   3.272
 1830TIP3    H2 5497   3.548   5.135   3.341
 1831TIP3   OH2 5498   5.658   1.017   5.032
 1831TIP3    H1 5499   5.750   1.040   5.014
 1831TIP3    H2 5500   5.661   0.925   5.056
 1832TIP3   OH2 5501   1.359   2.209   4.826
 1832TIP3    H1 5502   1.296   2.258   4.773
 1832TIP3    H2 5503   1.344   2.240   4.916
 1833TIP3   OH2 5504   2.973  -0.002   1.745
 1833TIP3    H1 5505   2.962  -0.058   1.822
 1833TIP3    H2 5506   2.907   0.067   1.757
 1834TIP3   OH2 5507   4.369   2.489   0.125
 1834TIP3    H1 5508   4.367   2.585   0.120
 1834TIP3    H2 5509   4.351   2.461   0.036
 1835TIP3   OH2 5510   2.850   4.215   0.616
 1835TIP3    H1 5511   2.776   4.263   0.654
 1835TIP3    H2 5512   2.881   4.159   0.687
 1836TIP3   OH2 5513   0.136   4.043   3.409
 1836TIP3    H1 5514   0.062   4.076   3.460
 1836TIP3    H2 5515   0.146   3.952   3.437
 1837TIP3   OH2 5516   3.882   2.988   3.246
 1837TIP3    H1 5517   3.797   3.023   3.270
 1837TIP3    H2 5518   3.865   2.931   3.171
 1838TIP3   OH2 5519   5.277   5.005   0.578
 1838TIP3    H1 5520   5.189   5.025   0.545
 1838TIP3    H2 5521   5.295   5.075   0.641
 1839TIP3   OH2 5522   0.786   3.938   0.449
 1839TIP3    H1 5523   0.855   3.942   0.383
 1839TIP3    H2 5524   0.737   4.020   0.438
 1840TIP3   OH2 5525   4.890   2.761   1.994
 1840TIP3    H1 5526   4.971   2.812   2.000
 1840TIP3    H2 5527   4.873   2.733   2.084
 1841TIP3   OH2 5528   1.142   1.652   1.097
 1841TIP3    H1 5529   1.179   1.567   1.071
 1841TIP3    H2 5530   1.211   1.715   1.076
 1842TIP3   OH2 5531   1.633   2.046   4.957
 1842TIP3    H1 5532   1.557   1.992   4.981
 1842TIP3    H2 5533   1.630   2.121   5.016
 1843TIP3   OH2 5534   0.404   4.850   1.952
 1843TIP3    H1 5535   0.332   4.789   1.934
 1843TIP3    H2 5536   0.432   4.879   1.865
 1844TIP3   OH2 5537   2.021   1.646   2.726
 1844TIP3    H1 5538   2.111   1.617   2.714
 1844TIP3    H2 5539   1.971   1.566   2.738
 1845TIP3   OH2 5540   5.732   4.133   3.293
 1845TIP3    H1 5541   5.801   4.198   3.283
 1845TIP3    H2 5542   5.778   4.049   3.293
 1846TIP3   OH2 5543   3.121   5.753   3.899
 1846TIP3    H1 5544   3.195   5.735   3.957
 1846TIP3    H2 5545   3.044   5.738   3.953
 1847TIP3   OH2 5546   4.010   0.617   1.122
 1847TIP3    H1 5547   4.056   0.652   1.046
 1847TIP3    H2 5548   4.078   0.604   1.188
 1848TIP3   OH2 5549   1.098   0.209   2.806
 1848TIP3    H1 5550   1.095   0.114   2.793
 1848TIP3    H2 5551   1.015   0.230   2.848
 1849TIP3   OH2 5552   2.377   0.284   5.083
 1849TIP3    H1 5553   2.328   0.283   5.165
 1849TIP3    H2 5554   2.310   0.296   5.015
 1850TIP3   OH2 5555   1.475   4.034   3.011
 1850TIP3    H1 5556   1.477   4.027   3.107
 1850TIP3    H2 5557   1.456   3.945   2.982
 1851TIP3   OH2 5558   0.184   0.043   0.685
 1851TIP3    H1 5559   0.115   0.085   0.736
 1851TIP3    H2 5560   0.143   0.026   0.600
 1852TIP3   OH2 5561   4.698   0.173   4.963
 1852TIP3    H1 5562   4.687   0.247   5.021
 1852TIP3    H2 5563   4.787   0.142   4.980
 1853TIP3   OH2 5564   5.231   0.512   3.336
 1853TIP3    H1 5565   5.192   0.437   3.381
 1853TIP3    H2 5566   5.247   0.480   3.247
 1854TIP3   OH2 5567   3.549   1.015   0.532
 1854TIP3    H1 5568   3.461   0.978   0.535
 1854TIP3    H2 5569   3.545   1.081   0.462
 1855TIP3   OH2 5570   0.442   5.325   3.235
 1855TIP3    H1 5571   0.456   5.420   3.235
 1855TIP3    H2 5572   0.515   5.290   3.286
 1856TIP3   OH2 5573   1.441   3.637   4.914
 1856TIP3    H1 5574   1.468   3.573   4.980
 1856TIP3    H2 5575   1.372   3.594   4.864
 1857TIP3   OH2 5576   3.013   4.697   2.018
 1857TIP3    H1 5577   3.087   4.699   1.957
 1857TIP3    H2 5578   3.054   4.701   2.105
 1858TIP3   OH2 5579   3.318   3.970   2.068
 1858TIP3    H1 5580   3.347   4.060   2.057
 1858TIP3    H2 5581   3.317   3.934   1.980
 1859TIP3   OH2 5582   0.988   4.893   3.369
 1859TIP3    H1 5583   0.934   4.948   3.426
 1859TIP3    H2 5584   0.928   4.866   3.299
 1860TIP3   OH2 5585   5.292   0.729   2.503
 1860TIP3    H1 5586   5.205   0.766   2.485
 1860TIP3    H2 5587   5.345   0.805   2.526
 1861TIP3   OH2 5588   2.235   1.732   3.289
 1861TIP3    H1 5589   2.243   1.672   3.363
 1861TIP3    H2 5590   2.293   1.697   3.222
 1862TIP3   OH2 5591   2.194   1.373   3.883
 1862TIP3    H1 5592   2.276   1.375   3.832
 1862TIP3    H2 5593   2.206   1.301   3.945
 1863TIP3   OH2 5594   3.172   3.420   5.084
 1863TIP3    H1 5595   3.084   3.443   5.056
 1863TIP3    H2 5596   3.179   3.451   5.174
 1864TIP3   OH2 5597   0.758   4.477   2.218
 1864TIP3    H1 5598   0.853   4.464   2.218
 1864TIP3    H2 5599   0.723   4.389   2.202
 1865TIP3   OH2 5600   2.065   5.961   2.495
 1865TIP3    H1 5601   2.015   5.912   2.560
 1865TIP3    H2 5602   2.124   5.896   2.455
 1866TIP3   OH2 5603   4.988   1.811   4.920
 1866TIP3    H1 5604   4.933   1.880   4.882
 1866TIP3    H2 5605   4.969   1.734   4.866
 1867TIP3   OH2 5606   1.492   2.705   2.701
 1867TIP3    H1 5607   1.496   2.653   2.621
 1867TIP3    H2 5608   1.581   2.737   2.713
 1868TIP3   OH2 5609   2.365   0.949   5.005
 1868TIP3    H1 5610   2.326   0.977   4.923
 1868TIP3    H2 5611   2.373   0.854   4.997
 1869TIP3   OH2 5612   5.875   1.320   0.901
 1869TIP3    H1 5613   5.842   1.405   0.873
 1869TIP3    H2 5614   5.904   1.333   0.991
 1870TIP3   OH2 5615   2.898   5.994   2.976
 1870TIP3    H1 5616   2.844   5.973   2.900
 1870TIP3    H2 5617   2.905   5.911   3.024
 1871TIP3   OH2 5618   1.358   0.135   1.788
 1871TIP3    H1 5619   1.452   0.134   1.807
 1871TIP3    H2 5620   1.328   0.048   1.813
 1872TIP3   OH2 5621   1.400   0.953   4.495
 1872TIP3    H1 5622   1.475   0.903   4.529
 1872TIP3    H2 5623   1.429   1.044   4.499
 1873TIP3   OH2 5624   3.180   4.259   0.140
 1873TIP3    H1 5625   3.146   4.313   0.212
 1873TIP3    H2 5626   3.274   4.273   0.143
 1874TIP3   OH2 5627   1.782   1.156   2.156
 1874TIP3    H1 5628   1.734   1.234   2.186
 1874TIP3    H2 5629   1.713   1.097   2.125
 1875TIP3   OH2 5630   3.075   1.111   2.581
 1875TIP3    H1 5631   2.989   1.086   2.547
 1875TIP3    H2 5632   3.056   1.152   2.665
 1876TIP3   OH2 5633   2.570   5.366   0.752
 1876TIP3    H1 5634   2.636   5.334   0.814
 1876TIP3    H2 5635   2.526   5.286   0.722
 1877TIP3   OH2 5636   5.276   0.156   4.448
 1877TIP3    H1 5637   5.212   0.171   4.378
 1877TIP3    H2 5638   5.332   0.233   4.446
 1878TIP3   OH2 5639   4.768   0.141   4.395
 1878TIP3    H1 5640   4.809   0.149   4.481
 1878TIP3    H2 5641   4.692   0.198   4.398
 1879TIP3   OH2 5642   0.735   4.918   3.234
 1879TIP3    H1 5643   0.673   4.894   3.166
 1879TIP3    H2 5644   0.764   5.006   3.210
 1880TIP3   OH2 5645   5.502   3.974   3.106
 1880TIP3    H1 5646   5.477   4.066   3.116
 1880TIP3    H2 5647   5.427   3.934   3.060
 1881TIP3   OH2 5648   5.858   4.691   5.066
 1881TIP3    H1 5649   5.902   4.610   5.091
 1881TIP3    H2 5650   5.765   4.673   5.079
 1882TIP3   OH2 5651   4.271   5.888   3.339
 1882TIP3    H1 5652   4.310   5.973   3.360
 1882TIP3    H2 5653   4.177   5.905   3.338
 1883TIP3   OH2 5654   2.018   5.275   4.362
 1883TIP3    H1 5655   2.109   5.305   4.359
 1883TIP3    H2 5656   2.025   5.181   4.381
 1884TIP3   OH2 5657   0.820   1.627   2.021
 1884TIP3    H1 5658   0.738   1.607   1.976
 1884TIP3    H2 5659   0.796   1.692   2.087
 1885TIP3   OH2 5660   3.450   2.701   0.761
 1885TIP3    H1 5661   3.421   2.692   0.852
 1885TIP3    H2 5662   3.471   2.612   0.733
 1886TIP3   OH2 5663   0.704   4.934   4.105
 1886TIP3    H1 5664   0.628   4.972   4.060
 1886TIP3    H2 5665   0.725   4.855   4.054
 1887TIP3   OH2 5666   5.592   1.600   3.474
 1887TIP3    H1 5667   5.582   1.648   3.556
 1887TIP3    H2 5668   5.685   1.581   3.469
 1888TIP3   OH2 5669   1.245   5.587   3.147
 1888TIP3    H1 5670   1.304   5.641   3.094
 1888TIP3    H2 5671   1.179   5.557   3.086
 1889TIP3   OH2 5672   1.578   1.373   1.233
 1889TIP3    H1 5673   1.583   1.372   1.329
 1889TIP3    H2 5674   1.662   1.410   1.205
 1890TIP3   OH2 5675   2.621   4.836   3.194
 1890TIP3    H1 5676   2.547   4.873   3.242
 1890TIP3    H2 5677   2.585   4.813   3.109
 1891TIP3   OH2 5678   2.227   2.738   4.348
 1891TIP3    H1 5679   2.188   2.743   4.261
 1891TIP3    H2 5680   2.279   2.657   4.347
 1892TIP3   OH2 5681   6.189   1.906   4.644
 1892TIP3    H1 5682   6.216   1.989   4.606
 1892TIP3    H2 5683   6.246   1.841   4.604
 1893TIP3   OH2 5684   1.395   5.483   4.909
 1893TIP3    H1 5685   1.365   5.558   4.961
 1893TIP3    H2 5686   1.348   5.408   4.944
 1894TIP3   OH2 5687   4.170   5.432   2.942
 1894TIP3    H1 5688   4.264   5.414   2.943
 1894TIP3    H2 5689   4.158   5.501   3.007
 1895TIP3   OH2 5690   6.010   0.328   1.000
 1895TIP3    H1 5691   6.099   0.319   0.965
 1895TIP3    H2 5692   5.985   0.418   0.979
 1896TIP3   OH2 5693   4.875   5.052   1.527
 1896TIP3    H1 5694   4.943   5.015   1.471
 1896TIP3    H2 5695   4.837   5.123   1.475
 1897TIP3   OH2 5696   1.877   2.380   5.115
 1897TIP3    H1 5697   1.813   2.414   5.053
 1897TIP3    H2 5698   1.825   2.350   5.189
 1898TIP3   OH2 5699   4.499   4.618   2.632
 1898TIP3    H1 5700   4.479   4.525   2.620
 1898TIP3    H2 5701   4.420   4.663   2.603
 1899TIP3   OH2 5702   0.961   2.079   1.995
 1899TIP3    H1 5703   0.867   2.080   1.978
 1899TIP3    H2 5704   0.978   2.161   2.040
 1900TIP3   OH2 5705   3.495   0.934   4.409
 1900TIP3    H1 5706   3.407   0.934   4.373
 1900TIP3    H2 5707   3.512   1.025   4.431
 1901TIP3   OH2 5708   4.584   1.955   2.896
 1901TIP3    H1 5709   4.585   1.892   2.824
 1901TIP3    H2 5710   4.608   2.038   2.856
 1902TIP3   OH2 5711   5.767   5.758   2.567
 1902TIP3    H1 5712   5.800   5.758   2.477
 1902TIP3    H2 5713   5.676   5.787   2.558
 1903TIP3   OH2 5714   6.117   2.012   2.467
 1903TIP3    H1 5715   6.203   2.049   2.490
 1903TIP3    H2 5716   6.139   1.937   2.411
 1904TIP3   OH2 5717   3.185   2.073   0.244
 1904TIP3    H1 5718   3.216   1.995   0.289
 1904TIP3    H2 5719   3.229   2.146   0.289
 1905TIP3   OH2 5720   5.323   2.261   3.744
 1905TIP3    H1 5721   5.307   2.355   3.752
 1905TIP3    H2 5722   5.384   2.241   3.816
 1906TIP3   OH2 5723   3.963   3.033   4.807
 1906TIP3    H1 5724   3.901   2.973   4.766
 1906TIP3    H2 5725   4.048   2.989   4.798
 1907TIP3   OH2 5726   3.114   1.177   1.768
 1907TIP3    H1 5727   3.142   1.228   1.844
 1907TIP3    H2 5728   3.144   1.088   1.786
 1908TIP3   OH2 5729   1.310   2.882   0.719
 1908TIP3    H1 5730   1.376   2.870   0.787
 1908TIP3    H2 5731   1.309   2.799   0.671
 1909TIP3   OH2 5732   0.120   4.301   4.666
 1909TIP3    H1 5733   0.108   4.269   4.577
 1909TIP3    H2 5734   0.175   4.379   4.656
 1910TIP3   OH2 5735   0.886   3.113   2.769
 1910TIP3    H1 5736   0.890   3.032   2.718
 1910TIP3    H2 5737   0.792   3.131   2.779
 1911TIP3   OH2 5738   6.353   1.972   2.948
 1911TIP3    H1 5739   6.273   2.017   2.921
 1911TIP3    H2 5740   6.323   1.907   3.012
 1912TIP3   OH2 5741   5.597   2.178   1.932
 1912TIP3    H1 5742   5.583   2.209   1.842
 1912TIP3    H2 5743   5.514   2.138   1.956
 1913TIP3   OH2 5744   3.506   3.151   2.861
 1913TIP3    H1 5745   3.586   3.120   2.818
 1913TIP3    H2 5746   3.495   3.241   2.829
 1914TIP3   OH2 5747   2.436   4.973   4.189
 1914TIP3    H1 5748   2.345   4.973   4.219
 1914TIP3    H2 5749   2.434   4.930   4.104
 1915TIP3   OH2 5750   0.393   3.282   1.300
 1915TIP3    H1 5751   0.486   3.283   1.324
 1915TIP3    H2 5752   0.372   3.189   1.290
 1916TIP3   OH2 5753   2.182   0.199   0.920
 1916TIP3    H1 5754   2.223   0.178   1.004
 1916TIP3    H2 5755   2.255   0.205   0.858
 1917TIP3   OH2 5756   5.520   0.704   4.432
 1917TIP3    H1 5757   5.465   0.700   4.510
 1917TIP3    H2 5758   5.610   0.697   4.465
 1918TIP3   OH2 5759   3.076   5.267   4.708
 1918TIP3    H1 5760   3.144   5.240   4.770
 1918TIP3    H2 5761   3.000   5.285   4.764
 1919TIP3   OH2 5762   4.743   0.556   0.302
 1919TIP3    H1 5763   4.785   0.619   0.361
 1919TIP3    H2 5764   4.650   0.579   0.305
 1920TIP3   OH2 5765   4.994   0.438   3.957
 1920TIP3    H1 5766   4.932   0.409   4.024
 1920TIP3    H2 5767   4.994   0.367   3.892
 1921TIP3   OH2 5768   0.063   2.286   2.191
 1921TIP3    H1 5769  -0.022   2.312   2.227
 1921TIP3    H2 5770   0.127   2.340   2.238
 1922TIP3   OH2 5771   3.120   3.730   2.227
 1922TIP3    H1 5772   3.206   3.749   2.188
 1922TIP3    H2 5773   3.061   3.793   2.186
 1923TIP3   OH2 5774   5.748   3.367   0.278
 1923TIP3    H1 5775   5.663   3.327   0.259
 1923TIP3    H2 5776   5.777   3.404   0.195
 1924TIP3   OH2 5777   4.071   3.562   1.774
 1924TIP3    H1 5778   4.135   3.572   1.703
 1924TIP3    H2 5779   4.110   3.608   1.848
 1925TIP3   OH2 5780   2.483   2.865   2.227
 1925TIP3    H1 5781   2.557   2.844   2.169
 1925TIP3    H2 5782   2.517   2.851   2.315
 1926TIP3   OH2 5783   2.475   1.047   0.839
 1926TIP3    H1 5784   2.401   0.987   0.826
 1926TIP3    H2 5785   2.547   0.990   0.868
 1927TIP3   OH2 5786   2.223   1.088   4.802
 1927TIP3    H1 5787   2.221   1.183   4.814
 1927TIP3    H2 5788   2.133   1.065   4.782
 1928TIP3   OH2 5789   2.272   3.626   3.734
 1928TIP3    H1 5790   2.359   3.588   3.740
 1928TIP3    H2 5791   2.260   3.647   3.642
 1929TIP3   OH2 5792   2.938   3.079   4.204
 1929TIP3    H1 5793   2.869   3.115   4.148
 1929TIP3    H2 5794   2.897   3.069   4.289
 1930TIP3   OH2 5795   1.536   0.773   0.374
 1930TIP3    H1 5796   1.467   0.707   0.387
 1930TIP3    H2 5797   1.560   0.764   0.282
 1931TIP3   OH2 5798   1.901   3.958   4.696
 1931TIP3    H1 5799   1.827   4.018   4.694
 1931TIP3    H2 5800   1.882   3.896   4.625
 1932TIP3   OH2 5801   0.187   1.730   1.954
 1932TIP3    H1 5802   0.264   1.750   1.901
 1932TIP3    H2 5803   0.162   1.641   1.928
 1933TIP3   OH2 5804   3.506   1.381   0.045
 1933TIP3    H1 5805   3.592   1.384   0.087
 1933TIP3    H2 5806   3.497   1.291   0.015
 1934TIP3   OH2 5807   0.109   5.132   4.873
 1934TIP3    H1 5808   0.184   5.118   4.815
 1934TIP3    H2 5809   0.033   5.126   4.815
 1935TIP3   OH2 5810   2.799   0.228   1.147
 1935TIP3    H1 5811   2.887   0.247   1.116
 1935TIP3    H2 5812   2.807   0.227   1.243
 1936TIP3   OH2 5813   3.951   3.872   2.256
 1936TIP3    H1 5814   3.872   3.892   2.306
 1936TIP3    H2 5815   3.928   3.892   2.166
 1937TIP3   OH2 5816   0.288   1.459   0.129
 1937TIP3    H1 5817   0.290   1.548   0.094
 1937TIP3    H2 5818   0.364   1.454   0.187
 1938TIP3   OH2 5819   1.844   4.386   4.537
 1938TIP3    H1 5820   1.778   4.456   4.539
 1938TIP3    H2 5821   1.921   4.424   4.579
 1939TIP3   OH2 5822   3.134   2.384   1.837
 1939TIP3    H1 5823   3.104   2.301   1.801
 1939TIP3    H2 5824   3.225   2.367   1.862
 1940TIP3   OH2 5825   5.457   2.016   3.117
 1940TIP3    H1 5826   5.403   1.976   3.186
 1940TIP3    H2 5827   5.533   2.051   3.164
 1941TIP3   OH2 5828   2.926   4.658   1.150
 1941TIP3    H1 5829   2.931   4.693   1.239
 1941TIP3    H2 5830   2.861   4.714   1.107
 1942TIP3   OH2 5831   3.986   4.767   0.071
 1942TIP3    H1 5832   4.045   4.696   0.094
 1942TIP3    H2 5833   4.039   4.826   0.017
 1943TIP3   OH2 5834   5.872   2.495   2.827
 1943TIP3    H1 5835   5.943   2.502   2.891
 1943TIP3    H2 5836   5.798   2.462   2.878
 1944TIP3   OH2 5837   2.614   0.699   3.584
 1944TIP3    H1 5838   2.668   0.643   3.528
 1944TIP3    H2 5839   2.558   0.638   3.632
 1945TIP3   OH2 5840   3.036   4.420   0.895
 1945TIP3    H1 5841   2.983   4.358   0.945
 1945TIP3    H2 5842   3.126   4.389   0.906
 1946TIP3   OH2 5843   2.612   0.125   5.084
 1946TIP3    H1 5844   2.545   0.189   5.060
 1946TIP3    H2 5845   2.674   0.174   5.138
 1947TIP3   OH2 5846   1.504   3.177   4.459
 1947TIP3    H1 5847   1.564   3.252   4.459
 1947TIP3    H2 5848   1.532   3.124   4.384
 1948TIP3   OH2 5849   1.763   3.409   4.409
 1948TIP3    H1 5850   1.796   3.368   4.329
 1948TIP3    H2 5851   1.796   3.353   4.480
 1949TIP3   OH2 5852   4.544   3.826   3.245
 1949TIP3    H1 5853   4.548   3.899   3.306
 1949TIP3    H2 5854   4.580   3.861   3.163
 1950TIP3   OH2 5855   5.031   0.610   2.065
 1950TIP3    H1 5856   5.115   0.614   2.111
 1950TIP3    H2 5857   4.998   0.700   2.068
 1951TIP3   OH2 5858   0.203   0.186   4.891
 1951TIP3    H1 5859   0.286   0.138   4.889
 1951TIP3    H2 5860   0.218   0.262   4.835
 1952TIP3   OH2 5861   3.600   3.356   1.538
 1952TIP3    H1 5862   3.512   3.326   1.519
 1952TIP3    H2 5863   3.645   3.352   1.454
 1953TIP3   OH2 5864   2.941   1.827   1.454
 1953TIP3    H1 5865   3.013   1.766   1.440
 1953TIP3    H2 5866   2.867   1.787   1.409
 1954TIP3   OH2 5867   4.451   5.392   1.242
 1954TIP3    H1 5868   4.502   5.353   1.171
 1954TIP3    H2 5869   4.505   5.466   1.272
 1955TIP3   OH2 5870   6.293   0.524   0.062
 1955TIP3    H1 5871   6.244   0.570   0.130
 1955TIP3    H2 5872   6.354   0.589   0.028
 1956TIP3   OH2 5873   0.659   3.298   1.395
 1956TIP3    H1 5874   0.672   3.392   1.409
 1956TIP3    H2 5875   0.727   3.256   1.447
 1957TIP3   OH2 5876   5.681   3.233   0.596
 1957TIP3    H1 5877   5.767   3.249   0.557
 1957TIP3    H2 5878   5.699   3.209   0.687
 1958TIP3   OH2 5879   0.649   0.102   2.256
 1958TIP3    H1 5880   0.708   0.030   2.275
 1958TIP3    H2 5881   0.707   0.177   2.241
 1959TIP3   OH2 5882   0.664   1.179   4.528
 1959TIP3    H1 5883   0.758   1.184   4.544
 1959TIP3    H2 5884   0.649   1.090   4.497
 1960TIP3   OH2 5885   2.634   3.905   5.044
 1960TIP3    H1 5886   2.615   3.841   4.976
 1960TIP3    H2 5887   2.600   3.867   5.125
 1961TIP3   OH2 5888   3.769   0.139   3.511
 1961TIP3    H1 5889   3.794   0.065   3.565
 1961TIP3    H2 5890   3.798   0.116   3.423
 1962TIP3   OH2 5891   0.387   2.842   4.066
 1962TIP3    H1 5892   0.444   2.771   4.036
 1962TIP3    H2 5893   0.385   2.832   4.161
 1963TIP3   OH2 5894   1.426   1.491   5.029
 1963TIP3    H1 5895   1.446   1.404   4.996
 1963TIP3    H2 5896   1.502   1.544   5.007
 1964TIP3   OH2 5897   1.208   5.869   4.867
 1964TIP3    H1 5898   1.210   5.790   4.814
 1964TIP3    H2 5899   1.299   5.881   4.894
 1965TIP3   OH2 5900   1.138   0.459   0.160
 1965TIP3    H1 5901   1.130   0.420   0.247
 1965TIP3    H2 5902   1.107   0.549   0.171
 1966TIP3   OH2 5903   5.915   4.327   2.950
 1966TIP3    H1 5904   5.847   4.339   2.883
 1966TIP3    H2 5905   5.977   4.265   2.910
 1967TIP3   OH2 5906   5.420   1.182   2.272
 1967TIP3    H1 5907   5.442   1.240   2.344
 1967TIP3    H2 5908   5.411   1.240   2.196
 1968TIP3   OH2 5909   4.541   2.165   0.715
 1968TIP3    H1 5910   4.482   2.166   0.640
 1968TIP3    H2 5911   4.608   2.101   0.692
 1969TIP3   OH2 5912   3.528   1.630   1.612
 1969TIP3    H1 5913   3.566   1.547   1.641
 1969TIP3    H2 5914   3.443   1.606   1.575
 1970TIP3   OH2 5915   0.126   2.040   2.055
 1970TIP3    H1 5916   0.117   1.972   2.122
 1970TIP3    H2 5917   0.129   2.122   2.104
 1971TIP3   OH2 5918   4.544   3.115   2.208
 1971TIP3    H1 5919   4.559   3.021   2.200
 1971TIP3    H2 5920   4.631   3.152   2.224
 1972TIP3   OH2 5921   3.274   3.023   2.711
 1972TIP3    H1 5922   3.205   3.002   2.775
 1972TIP3    H2 5923   3.356   3.008   2.758
 1973TIP3   OH2 5924   1.475   0.353   0.317
 1973TIP3    H1 5925   1.491   0.336   0.410
 1973TIP3    H2 5926   1.562   0.358   0.277
 1974TIP3   OH2 5927   0.764   2.259   4.034
 1974TIP3    H1 5928   0.791   2.203   4.106
 1974TIP3    H2 5929   0.843   2.307   4.009
 1975TIP3   OH2 5930   4.835   4.559   1.208
 1975TIP3    H1 5931   4.805   4.607   1.285
 1975TIP3    H2 5932   4.781   4.480   1.205
 1976TIP3   OH2 5933   2.473   2.068   2.244
 1976TIP3    H1 5934   2.483   2.163   2.232
 1976TIP3    H2 5935   2.408   2.042   2.180
 1977TIP3   OH2 5936   0.870   2.472   3.337
 1977TIP3    H1 5937   0.910   2.401   3.386
 1977TIP3    H2 5938   0.833   2.530   3.404
 1978TIP3   OH2 5939   1.413   5.985   0.760
 1978TIP3    H1 5940   1.419   6.045   0.686
 1978TIP3    H2 5941   1.412   5.898   0.721
 1979TIP3   OH2 5942   3.840   0.744   0.121
 1979TIP3    H1 5943   3.893   0.783   0.191
 1979TIP3    H2 5944   3.832   0.652   0.145
 1980TIP3   OH2 5945   1.402   5.377   3.883
 1980TIP3    H1 5946   1.403   5.315   3.810
 1980TIP3    H2 5947   1.355   5.454   3.849
 1981TIP3   OH2 5948   6.034   4.142   1.510
 1981TIP3    H1 5949   6.041   4.230   1.548
 1981TIP3    H2 5950   5.951   4.108   1.543
 1982TIP3   OH2 5951   1.328   4.939   1.312
 1982TIP3    H1 5952   1.357   5.014   1.363
 1982TIP3    H2 5953   1.392   4.870   1.330
 1983TIP3   OH2 5954   0.172   5.034   2.018
 1983TIP3    H1 5955   0.185   5.043   1.923
 1983TIP3    H2 5956   0.081   5.063   2.031
 1984TIP3   OH2 5957   1.756   5.423   2.092
 1984TIP3    H1 5958   1.712   5.425   2.177
 1984TIP3    H2 5959   1.758   5.330   2.068
 1985TIP3   OH2 5960   0.613   5.260   4.701
 1985TIP3    H1 5961   0.622   5.183   4.757
 1985TIP3    H2 5962   0.683   5.251   4.636
 1986TIP3   OH2 5963   6.223   1.038   4.582
 1986TIP3    H1 5964   6.174   1.050   4.501
 1986TIP3    H2 5965   6.156   1.034   4.650
 1987TIP3   OH2 5966   0.179   1.811   3.684
 1987TIP3    H1 5967   0.103   1.865   3.701
 1987TIP3    H2 5968   0.249   1.849   3.737
 1988TIP3   OH2 5969   5.581   5.836   2.956
 1988TIP3    H1 5970   5.607   5.786   3.033
 1988TIP3    H2 5971   5.485   5.834   2.957
 1989TIP3   OH2 5972   3.767   0.724   1.685
 1989TIP3    H1 5973   3.832   0.684   1.627
 1989TIP3    H2 5974   3.810   0.726   1.771
 1990TIP3   OH2 5975   3.362   2.388   1.206
 1990TIP3    H1 5976   3.416   2.453   1.251
 1990TIP3    H2 5977   3.378   2.403   1.113
 1991TIP3   OH2 5978   3.520   2.250   3.675
 1991TIP3    H1 5979   3.540   2.314   3.743
 1991TIP3    H2 5980   3.591   2.186   3.680
 1992TIP3   OH2 5981   4.951   3.483   3.134
 1992TIP3    H1 5982   4.946   3.574   3.160
 1992TIP3    H2 5983   5.014   3.483   3.061
 1993TIP3   OH2 5984   2.216   1.128   1.157
 1993TIP3    H1 5985   2.218   1.217   1.193
 1993TIP3    H2 5986   2.287   1.083   1.203
 1994TIP3   OH2 5987   4.052   0.917   4.959
 1994TIP3    H1 5988   4.095   0.990   5.004
 1994TIP3    H2 5989   4.069   0.841   5.015
 1995TIP3   OH2 5990   1.153   3.539   1.743
 1995TIP3    H1 5991   1.235   3.537   1.693
 1995TIP3    H2 5992   1.087   3.508   1.682
 1996TIP3   OH2 5993   3.782   2.425   3.411
 1996TIP3    H1 5994   3.847   2.357   3.390
 1996TIP3    H2 5995   3.698   2.383   3.394
 1997TIP3   OH2 5996   0.610   0.800   1.527
 1997TIP3    H1 5997   0.688   0.776   1.478
 1997TIP3    H2 5998   0.537   0.782   1.468
 1998TIP3   OH2 5999   1.648   0.142   2.419
 1998TIP3    H1 6000   1.665   0.095   2.501
 1998TIP3    H2 6001   1.582   0.208   2.441
 1999TIP3   OH2 6002   0.156   2.376   2.425
 1999TIP3    H1 6003   0.244   2.341   2.439
 1999TIP3    H2 6004   0.162   2.466   2.455
 2000TIP3   OH2 6005   5.372   4.821   4.843
 2000TIP3    H1 6006   5.430   4.773   4.784
 2000TIP3    H2 6007   5.430   4.853   4.913
 2001TIP3   OH2 6008   2.750   1.885   1.123
 2001TIP3    H1 6009   2.785   1.810   1.074
 2001TIP3    H2 6010   2.818   1.953   1.114
 2002TIP3   OH2 6011   2.457   5.321   4.774
 2002TIP3    H1 6012   2.366   5.304   4.797
 2002TIP3    H2 6013   2.467   5.281   4.688
 2003TIP3   OH2 6014   4.015   2.224   2.363
 2003TIP3    H1 6015   4.087   2.282   2.387
 2003TIP3    H2 6016   4.058   2.141   2.340
 2004TIP3   OH2 6017   1.627   0.554   2.582
 2004TIP3    H1 6018   1.627   0.472   2.631
 2004TIP3    H2 6019   1.571   0.537   2.507
 2005TIP3   OH2 6020   5.438   3.917   0.666
 2005TIP3    H1 6021   5.378   3.911   0.740
 2005TIP3    H2 6022   5.395   3.868   0.596
 2006TIP3   OH2 6023   3.860   3.914   3.579
 2006TIP3    H1 6024   3.936   3.905   3.520
 2006TIP3    H2 6025   3.830   3.825   3.592
 2007TIP3   OH2 6026   0.555   0.266   0.538
 2007TIP3    H1 6027   0.503   0.284   0.460
 2007TIP3    H2 6028   0.496   0.287   0.611
 2008TIP3   OH2 6029   0.560   5.835   1.700
 2008TIP3    H1 6030   0.564   5.922   1.741
 2008TIP3    H2 6031   0.625   5.838   1.630
 2009TIP3   OH2 6032   5.565   3.991   0.146
 2009TIP3    H1 6033   5.599   3.930   0.081
 2009TIP3    H2 6034   5.587   3.951   0.230
 2010TIP3   OH2 6035   0.324   1.616   5.022
 2010TIP3    H1 6036   0.383   1.565   5.076
 2010TIP3    H2 6037   0.341   1.707   5.048
 2011TIP3   OH2 6038   2.756   3.678   2.809
 2011TIP3    H1 6039   2.802   3.605   2.768
 2011TIP3    H2 6040   2.692   3.637   2.867
 2012TIP3   OH2 6041   2.717   1.061   3.926
 2012TIP3    H1 6042   2.719   0.969   3.952
 2012TIP3    H2 6043   2.658   1.103   3.988
 2013TIP3   OH2 6044   1.554   5.095   0.839
 2013TIP3    H1 6045   1.546   5.074   0.932
 2013TIP3    H2 6046   1.467   5.077   0.803
 2014TIP3   OH2 6047   3.086   5.276   2.705
 2014TIP3    H1 6048   3.015   5.240   2.652
 2014TIP3    H2 6049   3.105   5.207   2.769
 2015TIP3   OH2 6050   2.233   3.471   2.247
 2015TIP3    H1 6051   2.235   3.463   2.342
 2015TIP3    H2 6052   2.159   3.418   2.219
 2016TIP3   OH2 6053   5.676   1.799   1.901
 2016TIP3    H1 6054   5.587   1.784   1.869
 2016TIP3    H2 6055   5.670   1.788   1.996
 2017TIP3   OH2 6056   2.123   1.382   0.431
 2017TIP3    H1 6057   2.152   1.343   0.513
 2017TIP3    H2 6058   2.202   1.422   0.394
 2018TIP3   OH2 6059   1.796   0.156   0.438
 2018TIP3    H1 6060   1.832   0.188   0.521
 2018TIP3    H2 6061   1.705   0.135   0.459
 2019TIP3   OH2 6062   0.811   2.680   4.961
 2019TIP3    H1 6063   0.876   2.656   4.895
 2019TIP3    H2 6064   0.728   2.679   4.913
 2020TIP3   OH2 6065   4.159   4.273   1.665
 2020TIP3    H1 6066   4.165   4.342   1.731
 2020TIP3    H2 6067   4.083   4.297   1.612
 2021TIP3   OH2 6068   1.046   4.751   1.405
 2021TIP3    H1 6069   0.957   4.782   1.421
 2021TIP3    H2 6070   1.036   4.679   1.343
 2022TIP3   OH2 6071   1.815   1.186   0.481
 2022TIP3    H1 6072   1.894   1.152   0.441
 2022TIP3    H2 6073   1.773   1.238   0.412
 2023TIP3   OH2 6074   2.120   2.155   0.193
 2023TIP3    H1 6075   2.187   2.218   0.218
 2023TIP3    H2 6076   2.037   2.199   0.210
 2024TIP3   OH2 6077   3.179   1.681   3.911
 2024TIP3    H1 6078   3.129   1.726   3.843
 2024TIP3    H2 6079   3.157   1.727   3.992
 2025TIP3   OH2 6080   0.671   0.531   1.780
 2025TIP3    H1 6081   0.740   0.536   1.713
 2025TIP3    H2 6082   0.598   0.580   1.742
 2026TIP3   OH2 6083   4.213   5.182   1.502
 2026TIP3    H1 6084   4.167   5.153   1.581
 2026TIP3    H2 6085   4.305   5.186   1.528
 2027TIP3   OH2 6086   4.550   5.263   4.623
 2027TIP3    H1 6087   4.638   5.269   4.585
 2027TIP3    H2 6088   4.508   5.346   4.599
 2028TIP3   OH2 6089   3.107   1.987   0.804
 2028TIP3    H1 6090   3.140   1.943   0.882
 2028TIP3    H2 6091   3.131   2.079   0.816
 2029TIP3   OH2 6092   4.498   5.412   0.416
 2029TIP3    H1 6093   4.441   5.354   0.467
 2029TIP3    H2 6094   4.586   5.376   0.429
 2030TIP3   OH2 6095   4.290   0.313   4.933
 2030TIP3    H1 6096   4.335   0.360   5.002
 2030TIP3    H2 6097   4.345   0.323   4.855
 2031TIP3   OH2 6098   0.382   3.600   1.204
 2031TIP3    H1 6099   0.332   3.529   1.163
 2031TIP3    H2 6100   0.381   3.579   1.298
 2032TIP3   OH2 6101   3.066   1.824   1.785
 2032TIP3    H1 6102   3.039   1.741   1.825
 2032TIP3    H2 6103   3.155   1.808   1.755
 2033TIP3   OH2 6104   3.346   2.944   3.226
 2033TIP3    H1 6105   3.339   3.012   3.293
 2033TIP3    H2 6106   3.422   2.892   3.253
 2034TIP3   OH2 6107   4.984   2.065   1.647
 2034TIP3    H1 6108   5.015   2.058   1.737
 2034TIP3    H2 6109   4.920   2.136   1.649
 2035TIP3   OH2 6110   2.454   2.362   0.660
 2035TIP3    H1 6111   2.391   2.408   0.716
 2035TIP3    H2 6112   2.401   2.322   0.591
 2036TIP3   OH2 6113   2.582   2.376   0.114
 2036TIP3    H1 6114   2.625   2.353   0.196
 2036TIP3    H2 6115   2.611   2.465   0.095
 2037TIP3   OH2 6116   1.652   3.107   3.382
 2037TIP3    H1 6117   1.711   3.095   3.456
 2037TIP3    H2 6118   1.603   3.025   3.377
 2038TIP3   OH2 6119   0.252   4.919   4.066
 2038TIP3    H1 6120   0.188   4.945   4.000
 2038TIP3    H2 6121   0.331   4.969   4.044
 2039TIP3   OH2 6122   1.535   3.899   2.648
 2039TIP3    H1 6123   1.618   3.942   2.627
 2039TIP3    H2 6124   1.496   3.954   2.716
 2040TIP3   OH2 6125   0.839   3.158   1.572
 2040TIP3    H1 6126   0.867   3.094   1.506
 2040TIP3    H2 6127   0.830   3.107   1.652
 2041TIP3   OH2 6128   4.454   5.021   2.248
 2041TIP3    H1 6129   4.360   5.024   2.264
 2041TIP3    H2 6130   4.494   5.029   2.334
 2042TIP3   OH2 6131   3.344   3.879   5.077
 2042TIP3    H1 6132   3.288   3.931   5.020
 2042TIP3    H2 6133   3.344   3.792   5.038
 2043TIP3   OH2 6134   3.002   5.391   0.694
 2043TIP3    H1 6135   3.031   5.479   0.669
 2043TIP3    H2 6136   3.052   5.332   0.637
 2044TIP3   OH2 6137   3.201   3.793   0.629
 2044TIP3    H1 6138   3.261   3.757   0.564
 2044TIP3    H2 6139   3.166   3.872   0.588
 2045TIP3   OH2 6140   3.464   5.600   1.331
 2045TIP3    H1 6141   3.548   5.571   1.367
 2045TIP3    H2 6142   3.400   5.576   1.398
 2046TIP3   OH2 6143   5.023   2.151   4.638
 2046TIP3    H1 6144   5.089   2.144   4.708
 2046TIP3    H2 6145   5.003   2.060   4.615
 2047TIP3   OH2 6146   2.572   1.764   3.395
 2047TIP3    H1 6147   2.503   1.829   3.407
 2047TIP3    H2 6148   2.624   1.796   3.321
 2048TIP3   OH2 6149   5.965   0.054   3.804
 2048TIP3    H1 6150   6.044   0.014   3.842
 2048TIP3    H2 6151   5.898  -0.013   3.814
 2049TIP3   OH2 6152   0.206   5.702   0.017
 2049TIP3    H1 6153   0.143   5.693   0.089
 2049TIP3    H2 6154   0.161   5.664  -0.059
 2050TIP3   OH2 6155   3.205   0.229   1.933
 2050TIP3    H1 6156   3.202   0.321   1.907
 2050TIP3    H2 6157   3.210   0.180   1.851
 2051TIP3   OH2 6158   5.348   4.623   3.840
 2051TIP3    H1 6159   5.372   4.674   3.918
 2051TIP3    H2 6160   5.406   4.546   3.844
 2052TIP3   OH2 6161   2.025   3.031   3.578
 2052TIP3    H1 6162   2.069   3.015   3.661
 2052TIP3    H2 6163   2.094   3.025   3.512
 2053TIP3   OH2 6164   3.716   5.754   2.893
 2053TIP3    H1 6165   3.633   5.772   2.938
 2053TIP3    H2 6166   3.720   5.819   2.823
 2054TIP3   OH2 6167   4.846   1.511   1.496
 2054TIP3    H1 6168   4.803   1.490   1.579
 2054TIP3    H2 6169   4.932   1.546   1.522
 2055TIP3   OH2 6170   6.205   5.075   2.089
 2055TIP3    H1 6171   6.145   5.128   2.141
 2055TIP3    H2 6172   6.158   4.994   2.073
 2056TIP3   OH2 6173   3.799   3.947   2.042
 2056TIP3    H1 6174   3.865   3.954   1.973
 2056TIP3    H2 6175   3.732   3.890   2.006
 2057TIP3   OH2 6176   4.056   2.320   1.182
 2057TIP3    H1 6177   4.143   2.359   1.178
 2057TIP3    H2 6178   4.033   2.323   1.275
 2058TIP3   OH2 6179   5.579   5.259   2.276
 2058TIP3    H1 6180   5.618   5.188   2.326
 2058TIP3    H2 6181   5.620   5.339   2.310
 2059TIP3   OH2 6182   3.459   1.372   5.070
 2059TIP3    H1 6183   3.488   1.462   5.085
 2059TIP3    H2 6184   3.488   1.325   5.148
 2060TIP3   OH2 6185   2.568   4.620   4.897
 2060TIP3    H1 6186   2.647   4.590   4.853
 2060TIP3    H2 6187   2.500   4.560   4.868
 2061TIP3   OH2 6188   4.783   1.947   4.056
 2061TIP3    H1 6189   4.859   1.960   4.113
 2061TIP3    H2 6190   4.712   1.993   4.101
 2062TIP3   OH2 6191   3.649   5.182   2.218
 2062TIP3    H1 6192   3.648   5.126   2.295
 2062TIP3    H2 6193   3.670   5.269   2.251
 2063TIP3   OH2 6194   5.217   2.580   1.641
 2063TIP3    H1 6195   5.302   2.619   1.621
 2063TIP3    H2 6196   5.228   2.487   1.622
 2064TIP3   OH2 6197   3.254   3.436   0.403
 2064TIP3    H1 6198   3.269   3.455   0.496
 2064TIP3    H2 6199   3.180   3.491   0.379
 2065TIP3   OH2 6200   4.637   0.849   0.651
 2065TIP3    H1 6201   4.564   0.789   0.635
 2065TIP3    H2 6202   4.705   0.795   0.691
 2066TIP3   OH2 6203   5.459   3.382   4.386
 2066TIP3    H1 6204   5.432   3.300   4.429
 2066TIP3    H2 6205   5.424   3.374   4.297
 2067TIP3   OH2 6206   3.164   0.588   3.468
 2067TIP3    H1 6207   3.096   0.616   3.529
 2067TIP3    H2 6208   3.196   0.669   3.429
 2068TIP3   OH2 6209   4.238   3.316   0.742
 2068TIP3    H1 6210   4.179   3.316   0.818
 2068TIP3    H2 6211   4.307   3.378   0.766
 2069TIP3   OH2 6212   0.841   4.578   1.022
 2069TIP3    H1 6213   0.839   4.567   1.117
 2069TIP3    H2 6214   0.910   4.644   1.008
 2070TIP3   OH2 6215   3.004   4.698   0.835
 2070TIP3    H1 6216   3.024   4.624   0.892
 2070TIP3    H2 6217   2.911   4.689   0.817
 2071TIP3   OH2 6218   0.688   3.958   3.128
 2071TIP3    H1 6219   0.711   3.866   3.137
 2071TIP3    H2 6220   0.745   4.004   3.189
 2072TIP3   OH2 6221   3.899   0.127   3.928
 2072TIP3    H1 6222   3.858   0.044   3.905
 2072TIP3    H2 6223   3.838   0.194   3.896
 2073TIP3   OH2 6224   4.488   1.051   1.013
 2073TIP3    H1 6225   4.468   0.957   1.010
 2073TIP3    H2 6226   4.456   1.080   1.098
 2074TIP3   OH2 6227   1.142   2.954   0.492
 2074TIP3    H1 6228   1.154   2.862   0.466
 2074TIP3    H2 6229   1.145   3.003   0.410
 2075TIP3   OH2 6230   5.632   5.674   3.200
 2075TIP3    H1 6231   5.631   5.586   3.162
 2075TIP3    H2 6232   5.672   5.663   3.286
 2076TIP3   OH2 6233   1.085   1.961   0.901
 2076TIP3    H1 6234   1.140   1.990   0.974
 2076TIP3    H2 6235   1.143   1.909   0.846
 2077TIP3   OH2 6236   1.786   1.480   0.028
 2077TIP3    H1 6237   1.843   1.450   0.099
 2077TIP3    H2 6238   1.845   1.497  -0.044
 2078TIP3   OH2 6239   2.763   1.762   3.156
 2078TIP3    H1 6240   2.800   1.747   3.069
 2078TIP3    H2 6241   2.815   1.707   3.214
 2079TIP3   OH2 6242   5.613   4.384   2.009
 2079TIP3    H1 6243   5.640   4.476   2.015
 2079TIP3    H2 6244   5.549   4.374   2.080
 2080TIP3   OH2 6245   3.347   2.205   1.417
 2080TIP3    H1 6246   3.439   2.217   1.442
 2080TIP3    H2 6247   3.342   2.238   1.328
 2081TIP3   OH2 6248   5.067   5.790   0.348
 2081TIP3    H1 6249   5.014   5.850   0.400
 2081TIP3    H2 6250   5.157   5.823   0.358
 2082TIP3   OH2 6251   3.445   3.127   2.225
 2082TIP3    H1 6252   3.390   3.066   2.176
 2082TIP3    H2 6253   3.444   3.207   2.173
 2083TIP3   OH2 6254   3.919   0.780   2.873
 2083TIP3    H1 6255   3.931   0.733   2.955
 2083TIP3    H2 6256   3.926   0.872   2.896
 2084TIP3   OH2 6257   3.416   5.435   0.771
 2084TIP3    H1 6258   3.464   5.356   0.794
 2084TIP3    H2 6259   3.390   5.472   0.855
 2085TIP3   OH2 6260   5.910   1.900   1.802
 2085TIP3    H1 6261   5.851   1.840   1.848
 2085TIP3    H2 6262   5.933   1.854   1.721
 2086TIP3   OH2 6263   3.809   2.486   0.728
 2086TIP3    H1 6264   3.816   2.578   0.700
 2086TIP3    H2 6265   3.878   2.475   0.793
 2087TIP3   OH2 6266   1.217   1.192   4.584
 2087TIP3    H1 6267   1.241   1.204   4.492
 2087TIP3    H2 6268   1.255   1.269   4.628
 2088TIP3   OH2 6269   2.273   5.082   1.992
 2088TIP3    H1 6270   2.261   4.991   1.964
 2088TIP3    H2 6271   2.233   5.086   2.079
 2089TIP3   OH2 6272   2.007   0.448   5.183
 2089TIP3    H1 6273   1.955   0.498   5.121
 2089TIP3    H2 6274   2.096   0.485   5.175
 2090TIP3   OH2 6275   0.968   3.793   0.736
 2090TIP3    H1 6276   0.942   3.743   0.813
 2090TIP3    H2 6277   0.916   3.873   0.741
 2091TIP3   OH2 6278   0.407   3.939   4.328
 2091TIP3    H1 6279   0.380   3.933   4.420
 2091TIP3    H2 6280   0.372   4.023   4.298
 2092TIP3   OH2 6281   1.593   4.855   2.727
 2092TIP3    H1 6282   1.580   4.803   2.806
 2092TIP3    H2 6283   1.623   4.940   2.759
 2093TIP3   OH2 6284   2.486   1.636   1.369
 2093TIP3    H1 6285   2.403   1.636   1.416
 2093TIP3    H2 6286   2.535   1.563   1.405
 2094TIP3   OH2 6287   2.062   4.035   2.905
 2094TIP3    H1 6288   2.077   4.009   2.814
 2094TIP3    H2 6289   1.968   4.025   2.918
 2095TIP3   OH2 6290   4.225   5.904   3.712
 2095TIP3    H1 6291   4.186   5.874   3.795
 2095TIP3    H2 6292   4.231   5.825   3.658
 2096TIP3   OH2 6293   3.960   2.203   3.600
 2096TIP3    H1 6294   3.903   2.276   3.624
 2096TIP3    H2 6295   4.017   2.238   3.531
 2097TIP3   OH2 6296   2.834   2.609   0.198
 2097TIP3    H1 6297   2.914   2.661   0.211
 2097TIP3    H2 6298   2.800   2.597   0.287
 2098TIP3   OH2 6299   3.661   5.427   4.238
 2098TIP3    H1 6300   3.665   5.523   4.234
 2098TIP3    H2 6301   3.720   5.403   4.310
 2099TIP3   OH2 6302   3.015   3.036   3.609
 2099TIP3    H1 6303   3.063   3.113   3.640
 2099TIP3    H2 6304   3.084   2.975   3.581
 2100TIP3   OH2 6305   0.341   5.812   1.944
 2100TIP3    H1 6306   0.246   5.817   1.951
 2100TIP3    H2 6307   0.362   5.720   1.958
 2101TIP3   OH2 6308   0.228   5.337   3.673
 2101TIP3    H1 6309   0.216   5.416   3.725
 2101TIP3    H2 6310   0.218   5.365   3.582
 2102TIP3   OH2 6311   1.198   0.126   2.297
 2102TIP3    H1 6312   1.250   0.198   2.261
 2102TIP3    H2 6313   1.151   0.165   2.371
 2103TIP3   OH2 6314   1.962   2.064   4.299
 2103TIP3    H1 6315   1.871   2.089   4.315
 2103TIP3    H2 6316   1.980   2.094   4.210
 2104TIP3   OH2 6317   3.623   0.741   2.859
 2104TIP3    H1 6318   3.716   0.724   2.871
 2104TIP3    H2 6319   3.584   0.727   2.946
 2105TIP3   OH2 6320   5.230   3.969   0.961
 2105TIP3    H1 6321   5.165   4.029   0.997
 2105TIP3    H2 6322   5.198   3.949   0.873
 2106TIP3   OH2 6323   3.860   3.204   1.619
 2106TIP3    H1 6324   3.781   3.247   1.586
 2106TIP3    H2 6325   3.883   3.253   1.697
 2107TIP3   OH2 6326   0.426   5.144   1.528
 2107TIP3    H1 6327   0.450   5.235   1.546
 2107TIP3    H2 6328   0.425   5.102   1.614
 2108TIP3   OH2 6329   5.244   1.572   3.985
 2108TIP3    H1 6330   5.328   1.539   3.952
 2108TIP3    H2 6331   5.179   1.531   3.928
 2109TIP3   OH2 6332   2.333   0.597   2.172
 2109TIP3    H1 6333   2.266   0.632   2.113
 2109TIP3    H2 6334   2.284   0.574   2.252
 2110TIP3   OH2 6335   0.190   2.506   0.759
 2110TIP3    H1 6336   0.281   2.487   0.783
 2110TIP3    H2 6337   0.193   2.595   0.724
 2111TIP3   OH2 6338   5.330   3.815   1.733
 2111TIP3    H1 6339   5.265   3.866   1.781
 2111TIP3    H2 6340   5.399   3.877   1.712
 2112TIP3   OH2 6341   4.391   1.925   1.839
 2112TIP3    H1 6342   4.404   2.019   1.851
 2112TIP3    H2 6343   4.337   1.898   1.913
 2113TIP3   OH2 6344   2.838   3.551   4.405
 2113TIP3    H1 6345   2.901   3.624   4.399
 2113TIP3    H2 6346   2.754   3.594   4.419
 2114TIP3   OH2 6347   2.392   0.113   2.797
 2114TIP3    H1 6348   2.329   0.185   2.800
 2114TIP3    H2 6349   2.432   0.111   2.884
 2115TIP3   OH2 6350   4.915   2.131   0.814
 2115TIP3    H1 6351   4.974   2.066   0.852
 2115TIP3    H2 6352   4.844   2.080   0.777
 2116TIP3   OH2 6353   2.413   5.588   3.270
 2116TIP3    H1 6354   2.378   5.660   3.321
 2116TIP3    H2 6355   2.500   5.617   3.243
 2117TIP3   OH2 6356   0.937   1.665   4.055
 2117TIP3    H1 6357   0.926   1.570   4.059
 2117TIP3    H2 6358   1.029   1.680   4.075
 2118TIP3   OH2 6359   2.578   3.685   4.885
 2118TIP3    H1 6360   2.539   3.632   4.816
 2118TIP3    H2 6361   2.604   3.623   4.953
 2119TIP3   OH2 6362   3.012   5.532   4.135
 2119TIP3    H1 6363   2.939   5.591   4.117
 2119TIP3    H2 6364   3.060   5.575   4.206
 2120TIP3   OH2 6365   0.851   3.673   0.350
 2120TIP3    H1 6366   0.891   3.614   0.286
 2120TIP3    H2 6367   0.869   3.631   0.435
 2121TIP3   OH2 6368   2.836   2.329   4.295
 2121TIP3    H1 6369   2.915   2.289   4.330
 2121TIP3    H2 6370   2.764   2.286   4.342
 2122TIP3   OH2 6371   1.818   1.294   3.017
 2122TIP3    H1 6372   1.829   1.217   3.073
 2122TIP3    H2 6373   1.739   1.337   3.050
 2123TIP3   OH2 6374   3.345   3.237   1.459
 2123TIP3    H1 6375   3.258   3.229   1.499
 2123TIP3    H2 6376   3.327   3.271   1.371
 2124TIP3   OH2 6377   4.102   3.884   4.828
 2124TIP3    H1 6378   4.095   3.828   4.905
 2124TIP3    H2 6379   4.012   3.906   4.805
 2125TIP3   OH2 6380   4.045   2.664   4.036
 2125TIP3    H1 6381   4.004   2.738   4.080
 2125TIP3    H2 6382   3.990   2.650   3.958
 2126TIP3   OH2 6383   2.417   5.897   4.663
 2126TIP3    H1 6384   2.433   5.834   4.733
 2126TIP3    H2 6385   2.329   5.931   4.681
 2127TIP3   OH2 6386   1.259   1.313   4.058
 2127TIP3    H1 6387   1.304   1.376   4.113
 2127TIP3    H2 6388   1.268   1.347   3.969
 2128TIP3   OH2 6389   3.178   5.020   2.819
 2128TIP3    H1 6390   3.233   5.017   2.740
 2128TIP3    H2 6391   3.217   4.956   2.878
 2129TIP3   OH2 6392   0.475   1.801   0.913
 2129TIP3    H1 6393   0.457   1.866   0.845
 2129TIP3    H2 6394   0.399   1.806   0.972
 2130TIP3   OH2 6395   0.834   0.538   3.318
 2130TIP3    H1 6396   0.749   0.574   3.294
 2130TIP3    H2 6397   0.894   0.612   3.310
 2131TIP3   OH2 6398   0.980   1.853   0.242
 2131TIP3    H1 6399   0.954   1.923   0.302
 2131TIP3    H2 6400   0.921   1.861   0.168
 2132TIP3   OH2 6401   1.638   2.959   2.978
 2132TIP3    H1 6402   1.706   2.927   2.919
 2132TIP3    H2 6403   1.560   2.966   2.923
 2133TIP3   OH2 6404   5.345   2.255   2.784
 2133TIP3    H1 6405   5.266   2.276   2.734
 2133TIP3    H2 6406   5.318   2.265   2.875
 2134TIP3   OH2 6407   5.043   4.587   4.494
 2134TIP3    H1 6408   5.000   4.636   4.564
 2134TIP3    H2 6409   5.127   4.632   4.481
 2135TIP3   OH2 6410   1.756   2.636   1.009
 2135TIP3    H1 6411   1.757   2.583   0.929
 2135TIP3    H2 6412   1.716   2.581   1.075
 2136TIP3   OH2 6413   2.295   5.319   4.374
 2136TIP3    H1 6414   2.369   5.271   4.411
 2136TIP3    H2 6415   2.321   5.337   4.284
 2137TIP3   OH2 6416   1.430   5.339   2.961
 2137TIP3    H1 6417   1.392   5.371   2.880
 2137TIP3    H2 6418   1.491   5.408   2.988
 2138TIP3   OH2 6419   6.147   5.147   4.081
 2138TIP3    H1 6420   6.053   5.154   4.071
 2138TIP3    H2 6421   6.179   5.237   4.072
 2139TIP3   OH2 6422   3.687   0.064   4.738
 2139TIP3    H1 6423   3.671   0.016   4.657
 2139TIP3    H2 6424   3.743   0.137   4.711
 2140TIP3   OH2 6425   4.653   1.576   0.939
 2140TIP3    H1 6426   4.627   1.489   0.910
 2140TIP3    H2 6427   4.675   1.565   1.032
 2141TIP3   OH2 6428   4.872   0.271   4.638
 2141TIP3    H1 6429   4.919   0.306   4.714
 2141TIP3    H2 6430   4.783   0.256   4.671
 2142TIP3   OH2 6431   4.573   1.170   3.508
 2142TIP3    H1 6432   4.487   1.152   3.545
 2142TIP3    H2 6433   4.592   1.095   3.452
 2143TIP3   OH2 6434   5.527   2.692   4.507
 2143TIP3    H1 6435   5.586   2.703   4.581
 2143TIP3    H2 6436   5.465   2.625   4.535
 2144TIP3   OH2 6437   3.267   0.128   1.262
 2144TIP3    H1 6438   3.358   0.132   1.292
 2144TIP3    H2 6439   3.216   0.154   1.339
 2145TIP3   OH2 6440   0.190   5.501   4.405
 2145TIP3    H1 6441   0.277   5.497   4.366
 2145TIP3    H2 6442   0.166   5.594   4.403
 2146TIP3   OH2 6443   1.118   2.525   4.200
 2146TIP3    H1 6444   1.087   2.450   4.252
 2146TIP3    H2 6445   1.168   2.485   4.129
 2147TIP3   OH2 6446   1.915   3.046   1.454
 2147TIP3    H1 6447   1.974   3.112   1.490
 2147TIP3    H2 6448   1.948   3.030   1.366
 2148TIP3   OH2 6449   2.912   2.088   3.967
 2148TIP3    H1 6450   2.872   2.006   3.938
 2148TIP3    H2 6451   2.940   2.131   3.886
 2149TIP3   OH2 6452   3.642   0.793   2.439
 2149TIP3    H1 6453   3.573   0.729   2.456
 2149TIP3    H2 6454   3.705   0.780   2.509
 2150TIP3   OH2 6455   1.992   5.668   4.196
 2150TIP3    H1 6456   1.910   5.646   4.153
 2150TIP3    H2 6457   1.976   5.653   4.289
 2151TIP3   OH2 6458   3.497   1.977   3.538
 2151TIP3    H1 6459   3.530   2.066   3.522
 2151TIP3    H2 6460   3.502   1.966   3.633
 2152TIP3   OH2 6461   5.123   5.928   2.004
 2152TIP3    H1 6462   5.106   5.848   2.053
 2152TIP3    H2 6463   5.129   5.900   1.913
 2153TIP3   OH2 6464   3.235   5.925   2.799
 2153TIP3    H1 6465   3.239   6.005   2.851
 2153TIP3    H2 6466   3.169   5.871   2.843
 2154TIP3   OH2 6467   6.010   0.432   1.874
 2154TIP3    H1 6468   5.953   0.426   1.951
 2154TIP3    H2 6469   5.967   0.377   1.808
 2155TIP3   OH2 6470   3.609   4.618   2.359
 2155TIP3    H1 6471   3.531   4.573   2.326
 2155TIP3    H2 6472   3.622   4.691   2.299
 2156TIP3   OH2 6473   6.363   0.271   0.625
 2156TIP3    H1 6474   6.334   0.193   0.673
 2156TIP3    H2 6475   6.317   0.343   0.667
 2157TIP3   OH2 6476   0.244   4.210   2.482
 2157TIP3    H1 6477   0.249   4.122   2.444
 2157TIP3    H2 6478   0.151   4.232   2.480
 2158TIP3   OH2 6479   2.134   5.453   1.634
 2158TIP3    H1 6480   2.094   5.517   1.576
 2158TIP3    H2 6481   2.080   5.455   1.713
 2159TIP3   OH2 6482   1.166   4.434   3.077
 2159TIP3    H1 6483   1.225   4.510   3.076
 2159TIP3    H2 6484   1.207   4.372   3.017
 2160TIP3   OH2 6485   5.220   0.532   1.843
 2160TIP3    H1 6486   5.163   0.469   1.798
 2160TIP3    H2 6487   5.305   0.489   1.845
 2161TIP3   OH2 6488   0.611   4.816   2.518
 2161TIP3    H1 6489   0.613   4.896   2.465
 2161TIP3    H2 6490   0.602   4.745   2.454
 2162TIP3   OH2 6491   2.834   5.490   1.218
 2162TIP3    H1 6492   2.840   5.440   1.300
 2162TIP3    H2 6493   2.921   5.528   1.206
 2163TIP3   OH2 6494   3.828   4.356   2.170
 2163TIP3    H1 6495   3.907   4.302   2.176
 2163TIP3    H2 6496   3.844   4.430   2.228
 2164TIP3   OH2 6497   4.499   2.990   1.751
 2164TIP3    H1 6498   4.423   3.015   1.802
 2164TIP3    H2 6499   4.535   3.072   1.719
 2165TIP3   OH2 6500   1.931   4.205   4.996
 2165TIP3    H1 6501   1.949   4.253   4.915
 2165TIP3    H2 6502   2.017   4.176   5.026
 2166TIP3   OH2 6503   0.369   5.569   2.806
 2166TIP3    H1 6504   0.305   5.568   2.877
 2166TIP3    H2 6505   0.426   5.495   2.824
 2167TIP3   OH2 6506   6.187   4.417   3.602
 2167TIP3    H1 6507   6.209   4.466   3.681
 2167TIP3    H2 6508   6.091   4.416   3.600
 2168TIP3   OH2 6509   0.867   5.271   4.573
 2168TIP3    H1 6510   0.890   5.359   4.601
 2168TIP3    H2 6511   0.946   5.219   4.589
 2169TIP3   OH2 6512   4.221   3.885   4.300
 2169TIP3    H1 6513   4.280   3.821   4.339
 2169TIP3    H2 6514   4.162   3.833   4.246
 2170TIP3   OH2 6515   2.196   1.660   4.401
 2170TIP3    H1 6516   2.204   1.671   4.495
 2170TIP3    H2 6517   2.237   1.575   4.383
 2171TIP3   OH2 6518   1.393   4.320   2.959
 2171TIP3    H1 6519   1.448   4.387   2.918
 2171TIP3    H2 6520   1.364   4.265   2.886
 2172TIP3   OH2 6521   5.829   0.844   1.328
 2172TIP3    H1 6522   5.907   0.874   1.281
 2172TIP3    H2 6523   5.832   0.749   1.321
 2173TIP3   OH2 6524   1.607   2.615   4.390
 2173TIP3    H1 6525   1.583   2.568   4.469
 2173TIP3    H2 6526   1.626   2.704   4.420
 2174TIP3   OH2 6527   3.132   3.991   4.087
 2174TIP3    H1 6528   3.049   4.038   4.094
 2174TIP3    H2 6529   3.144   3.978   3.993
 2175TIP3   OH2 6530   2.082   1.959   4.536
 2175TIP3    H1 6531   2.047   1.990   4.619
 2175TIP3    H2 6532   2.035   2.010   4.470
 2176TIP3   OH2 6533   2.856   1.473   0.648
 2176TIP3    H1 6534   2.845   1.408   0.717
 2176TIP3    H2 6535   2.831   1.556   0.689
 2177TIP3   OH2 6536   4.591   1.544   4.307
 2177TIP3    H1 6537   4.652   1.614   4.332
 2177TIP3    H2 6538   4.635   1.499   4.235
 2178TIP3   OH2 6539   4.899   4.372   3.104
 2178TIP3    H1 6540   4.874   4.438   3.039
 2178TIP3    H2 6541   4.816   4.335   3.133
 2179TIP3   OH2 6542   4.344   0.241   0.291
 2179TIP3    H1 6543   4.413   0.217   0.229
 2179TIP3    H2 6544   4.334   0.164   0.347
 2180TIP3   OH2 6545   3.840   2.473   1.412
 2180TIP3    H1 6546   3.764   2.527   1.388
 2180TIP3    H2 6547   3.822   2.388   1.372
 2181TIP3   OH2 6548   3.543   3.528   0.309
 2181TIP3    H1 6549   3.538   3.432   0.311
 2181TIP3    H2 6550   3.547   3.549   0.216
 2182TIP3   OH2 6551   4.526   1.439   1.482
 2182TIP3    H1 6552   4.478   1.496   1.542
 2182TIP3    H2 6553   4.576   1.381   1.539
 2183TIP3   OH2 6554   0.082   1.757   2.781
 2183TIP3    H1 6555   0.110   1.689   2.842
 2183TIP3    H2 6556   0.028   1.815   2.834
 2184TIP3   OH2 6557   1.753   0.605   3.176
 2184TIP3    H1 6558   1.682   0.669   3.185
 2184TIP3    H2 6559   1.743   0.569   3.088
 2185TIP3   OH2 6560   3.837   1.203   4.214
 2185TIP3    H1 6561   3.770   1.270   4.224
 2185TIP3    H2 6562   3.885   1.229   4.135
 2186TIP3   OH2 6563   2.502   1.990   1.286
 2186TIP3    H1 6564   2.480   2.081   1.306
 2186TIP3    H2 6565   2.579   1.971   1.340
 2187TIP3   OH2 6566   2.568   0.066   1.849
 2187TIP3    H1 6567   2.530  -0.016   1.884
 2187TIP3    H2 6568   2.494   0.127   1.846
 2188TIP3   OH2 6569   2.203   5.120   1.001
 2188TIP3    H1 6570   2.142   5.046   0.999
 2188TIP3    H2 6571   2.150   5.192   1.037
 2189TIP3   OH2 6572   3.354   1.170   0.804
 2189TIP3    H1 6573   3.284   1.167   0.739
 2189TIP3    H2 6574   3.334   1.097   0.863
 2190TIP3   OH2 6575   5.448   3.332   0.370
 2190TIP3    H1 6576   5.463   3.319   0.276
 2190TIP3    H2 6577   5.405   3.417   0.376
 2191TIP3   OH2 6578   0.041   4.751   4.101
 2191TIP3    H1 6579   0.099   4.825   4.086
 2191TIP3    H2 6580   0.041   4.704   4.017
 2192TIP3   OH2 6581   5.967   3.064   2.385
 2192TIP3    H1 6582   5.911   2.994   2.353
 2192TIP3    H2 6583   5.927   3.144   2.352
 2193TIP3   OH2 6584   5.695   5.736   4.813
 2193TIP3    H1 6585   5.744   5.654   4.810
 2193TIP3    H2 6586   5.603   5.710   4.810
 2194TIP3   OH2 6587   5.741   5.443   4.625
 2194TIP3    H1 6588   5.662   5.458   4.676
 2194TIP3    H2 6589   5.737   5.508   4.555
 2195TIP3   OH2 6590   1.239   2.358   4.619
 2195TIP3    H1 6591   1.203   2.338   4.533
 2195TIP3    H2 6592   1.166   2.393   4.669
 2196TIP3   OH2 6593   1.258   3.217   1.732
 2196TIP3    H1 6594   1.239   3.271   1.808
 2196TIP3    H2 6595   1.200   3.251   1.663
 2197TIP3   OH2 6596   2.336   0.798   0.835
 2197TIP3    H1 6597   2.333   0.702   0.841
 2197TIP3    H2 6598   2.245   0.824   0.823
 2198TIP3   OH2 6599   5.045   0.940   1.760
 2198TIP3    H1 6600   5.106   1.000   1.802
 2198TIP3    H2 6601   5.060   0.952   1.666
 2199TIP3   OH2 6602   0.635   4.424   0.749
 2199TIP3    H1 6603   0.709   4.388   0.798
 2199TIP3    H2 6604   0.676   4.474   0.678
 2200TIP3   OH2 6605   5.999   5.391  -0.016
 2200TIP3    H1 6606   6.055   5.346   0.047
 2200TIP3    H2 6607   5.942   5.446   0.037
 2201TIP3   OH2 6608   1.937   5.496   4.706
 2201TIP3    H1 6609   2.033   5.496   4.698
 2201TIP3    H2 6610   1.913   5.589   4.708
 2202TIP3   OH2 6611   0.730   2.391   2.154
 2202TIP3    H1 6612   0.788   2.467   2.145
 2202TIP3    H2 6613   0.734   2.369   2.247
 2203TIP3   OH2 6614   1.622   5.453   4.440
 2203TIP3    H1 6615   1.602   5.464   4.533
 2203TIP3    H2 6616   1.716   5.468   4.434
 2204TIP3   OH2 6617   4.139   4.776   1.295
 2204TIP3    H1 6618   4.121   4.870   1.296
 2204TIP3    H2 6619   4.216   4.767   1.240
 2205TIP3   OH2 6620   1.448   3.448   5.116
 2205TIP3    H1 6621   1.372   3.484   5.161
 2205TIP3    H2 6622   1.448   3.355   5.138
 2206TIP3   OH2 6623   5.403   4.456   2.443
 2206TIP3    H1 6624   5.458   4.378   2.453
 2206TIP3    H2 6625   5.400   4.471   2.349
 2207TIP3   OH2 6626   0.358   5.938   4.251
 2207TIP3    H1 6627   0.281   5.906   4.204
 2207TIP3    H2 6628   0.391   6.009   4.197
 2208TIP3   OH2 6629   4.643   1.270   1.692
 2208TIP3    H1 6630   4.580   1.234   1.753
 2208TIP3    H2 6631   4.696   1.195   1.665
 2209TIP3   OH2 6632   5.700   4.635   0.030
 2209TIP3    H1 6633   5.734   4.703   0.088
 2209TIP3    H2 6634   5.759   4.560   0.044
 2210TIP3   OH2 6635   6.089   3.816   1.513
 2210TIP3    H1 6636   6.034   3.758   1.460
 2210TIP3    H2 6637   6.049   3.902   1.503
 2211TIP3   OH2 6638   2.940   2.302   2.610
 2211TIP3    H1 6639   2.992   2.237   2.657
 2211TIP3    H2 6640   2.850   2.281   2.632
 2212TIP3   OH2 6641   5.862   4.083   0.247
 2212TIP3    H1 6642   5.923   4.087   0.173
 2212TIP3    H2 6643   5.901   4.020   0.307
 2213TIP3   OH2 6644   2.921   4.254   4.150
 2213TIP3    H1 6645   2.894   4.229   4.062
 2213TIP3    H2 6646   2.842   4.287   4.192
 2214TIP3   OH2 6647   3.002   2.149   3.515
 2214TIP3    H1 6648   3.021   2.065   3.472
 2214TIP3    H2 6649   3.065   2.154   3.586
 2215TIP3   OH2 6650   4.574   0.035   1.429
 2215TIP3    H1 6651   4.616  -0.049   1.448
 2215TIP3    H2 6652   4.625   0.072   1.358
 2216TIP3   OH2 6653   1.841   1.442   2.797
 2216TIP3    H1 6654   1.787   1.516   2.825
 2216TIP3    H2 6655   1.851   1.389   2.876
 2217TIP3   OH2 6656   5.139   2.595   4.227
 2217TIP3    H1 6657   5.127   2.627   4.138
 2217TIP3    H2 6658   5.225   2.628   4.253
 2218TIP3   OH2 6659   5.144   4.425   3.853
 2218TIP3    H1 6660   5.221   4.478   3.875
 2218TIP3    H2 6661   5.168   4.378   3.773
 2219TIP3   OH2 6662   2.448   0.573   4.547
 2219TIP3    H1 6663   2.379   0.587   4.483
 2219TIP3    H2 6664   2.514   0.639   4.525
 2220TIP3   OH2 6665   3.151   4.044   4.668
 2220TIP3    H1 6666   3.064   4.004   4.679
 2220TIP3    H2 6667   3.167   4.041   4.574
 2221TIP3   OH2 6668   0.287   5.387   2.606
 2221TIP3    H1 6669   0.246   5.319   2.660
 2221TIP3    H2 6670   0.302   5.460   2.666
 2222TIP3   OH2 6671   5.417   3.009   0.274
 2222TIP3    H1 6672   5.503   3.032   0.310
 2222TIP3    H2 6673   5.400   2.921   0.307
 2223TIP3   OH2 6674   4.564   4.759   1.163
 2223TIP3    H1 6675   4.533   4.705   1.235
 2223TIP3    H2 6676   4.636   4.810   1.201
 2224TIP3   OH2 6677   3.704   0.068   0.054
 2224TIP3    H1 6678   3.739   0.148   0.093
 2224TIP3    H2 6679   3.764   0.048  -0.017
 2225TIP3   OH2 6680   5.145   1.444   2.810
 2225TIP3    H1 6681   5.227   1.398   2.793
 2225TIP3    H2 6682   5.161   1.490   2.892
 2226TIP3   OH2 6683   4.817   1.323   0.927
 2226TIP3    H1 6684   4.723   1.343   0.921
 2226TIP3    H2 6685   4.821   1.245   0.983
 2227TIP3   OH2 6686   2.931   4.917   1.421
 2227TIP3    H1 6687   2.848   4.956   1.397
 2227TIP3    H2 6688   2.910   4.856   1.492
 2228TIP3   OH2 6689   4.309   1.066   2.605
 2228TIP3    H1 6690   4.312   1.161   2.615
 2228TIP3    H2 6691   4.378   1.046   2.542
 2229TIP3   OH2 6692   1.325   4.658   1.416
 2229TIP3    H1 6693   1.240   4.693   1.442
 2229TIP3    H2 6694   1.308   4.567   1.392
 2230TIP3   OH2 6695   2.457   4.567   1.231
 2230TIP3    H1 6696   2.369   4.581   1.266
 2230TIP3    H2 6697   2.445   4.569   1.136
 2231TIP3   OH2 6698   3.941   5.699   4.421
 2231TIP3    H1 6699   3.991   5.673   4.499
 2231TIP3    H2 6700   3.957   5.792   4.412
 2232TIP3   OH2 6701   2.589   3.167   2.608
 2232TIP3    H1 6702   2.515   3.225   2.623
 2232TIP3    H2 6703   2.580   3.139   2.517
 2233TIP3   OH2 6704   0.695   3.682   3.276
 2233TIP3    H1 6705   0.626   3.694   3.341
 2233TIP3    H2 6706   0.763   3.633   3.323
 2234TIP3   OH2 6707   6.191   3.449   1.433
 2234TIP3    H1 6708   6.149   3.516   1.379
 2234TIP3    H2 6709   6.282   3.448   1.404
 2235TIP3   OH2 6710   3.594   2.259   1.509
 2235TIP3    H1 6711   3.682   2.263   1.470
 2235TIP3    H2 6712   3.609   2.249   1.603
 2236TIP3   OH2 6713   6.187   2.997   1.372
 2236TIP3    H1 6714   6.141   2.913   1.381
 2236TIP3    H2 6715   6.162   3.047   1.450
 2237TIP3   OH2 6716   4.561   3.758   1.918
 2237TIP3    H1 6717   4.627   3.794   1.978
 2237TIP3    H2 6718   4.524   3.834   1.874
 2238TIP3   OH2 6719   0.717   4.420   4.957
 2238TIP3    H1 6720   0.664   4.470   5.019
 2238TIP3    H2 6721   0.777   4.484   4.919
 2239TIP3   OH2 6722   3.979   4.002   4.388
 2239TIP3    H1 6723   4.072   3.985   4.406
 2239TIP3    H2 6724   3.972   3.997   4.293
 2240TIP3   OH2 6725   3.337   3.099   3.434
 2240TIP3    H1 6726   3.304   3.180   3.474
 2240TIP3    H2 6727   3.346   3.038   3.508
 2241TIP3   OH2 6728   3.075   4.412   0.589
 2241TIP3    H1 6729   3.020   4.376   0.659
 2241TIP3    H2 6730   3.165   4.402   0.621
 2242TIP3   OH2 6731   3.627   2.904   1.061
 2242TIP3    H1 6732   3.568   2.943   0.996
 2242TIP3    H2 6733   3.623   2.810   1.043
 2243TIP3   OH2 6734   1.451   2.710   1.292
 2243TIP3    H1 6735   1.507   2.753   1.357
 2243TIP3    H2 6736   1.371   2.688   1.341
 2244TIP3   OH2 6737   3.751   4.034   0.108
 2244TIP3    H1 6738   3.846   4.022   0.102
 2244TIP3    H2 6739   3.740   4.099   0.177
 2245TIP3   OH2 6740   2.677   0.872   0.927
 2245TIP3    H1 6741   2.770   0.873   0.906
 2245TIP3    H2 6742   2.672   0.828   1.012
 2246TIP3   OH2 6743   0.115   3.612   1.666
 2246TIP3    H1 6744   0.041   3.561   1.699
 2246TIP3    H2 6745   0.085   3.647   1.583
 2247TIP3   OH2 6746   1.618   0.659   1.430
 2247TIP3    H1 6747   1.609   0.750   1.402
 2247TIP3    H2 6748   1.712   0.641   1.426
 2248TIP3   OH2 6749   0.556   1.850   4.308
 2248TIP3    H1 6750   0.488   1.858   4.241
 2248TIP3    H2 6751   0.624   1.797   4.266
 2249TIP3   OH2 6752   3.795   0.312   4.639
 2249TIP3    H1 6753   3.879   0.319   4.685
 2249TIP3    H2 6754   3.818   0.276   4.554
 2250TIP3   OH2 6755   4.608   1.263   1.282
 2250TIP3    H1 6756   4.537   1.281   1.221
 2250TIP3    H2 6757   4.623   1.347   1.326
 2251TIP3   OH2 6758   5.295   3.539   3.406
 2251TIP3    H1 6759   5.222   3.573   3.458
 2251TIP3    H2 6760   5.373   3.554   3.460
 2252TIP3   OH2 6761   1.676   3.979   0.732
 2252TIP3    H1 6762   1.755   3.983   0.786
 2252TIP3    H2 6763   1.671   3.887   0.704
 2253TIP3   OH2 6764   1.159   1.360   1.732
 2253TIP3    H1 6765   1.129   1.388   1.646
 2253TIP3    H2 6766   1.231   1.300   1.715
 2254TIP3   OH2 6767   1.337   3.553   1.534
 2254TIP3    H1 6768   1.429   3.577   1.544
 2254TIP3    H2 6769   1.327   3.533   1.442
 2255TIP3   OH2 6770   2.908   5.180   3.504
 2255TIP3    H1 6771   2.973   5.111   3.496
 2255TIP3    H2 6772   2.824   5.134   3.506
 2256TIP3   OH2 6773   0.207   2.883   3.691
 2256TIP3    H1 6774   0.168   2.895   3.778
 2256TIP3    H2 6775   0.258   2.803   3.699
 2257TIP3   OH2 6776   0.299   2.747   1.808
 2257TIP3    H1 6777   0.368   2.793   1.857
 2257TIP3    H2 6778   0.246   2.817   1.771
 2258TIP3   OH2 6779   4.150   3.595   3.588
 2258TIP3    H1 6780   4.075   3.574   3.645
 2258TIP3    H2 6781   4.207   3.519   3.595
 2259TIP3   OH2 6782   2.672   2.940   4.382
 2259TIP3    H1 6783   2.620   2.917   4.459
 2259TIP3    H2 6784   2.730   3.010   4.413
 2260TIP3   OH2 6785   0.453   4.301   3.929
 2260TIP3    H1 6786   0.503   4.327   3.851
 2260TIP3    H2 6787   0.385   4.368   3.938
 2261TIP3   OH2 6788   5.729   0.208   3.706
 2261TIP3    H1 6789   5.711   0.139   3.770
 2261TIP3    H2 6790   5.643   0.244   3.685
 2262TIP3   OH2 6791   4.746   3.386   4.508
 2262TIP3    H1 6792   4.778   3.402   4.419
 2262TIP3    H2 6793   4.677   3.321   4.497
 2263TIP3   OH2 6794   2.679   4.346   1.236
 2263TIP3    H1 6795   2.653   4.410   1.302
 2263TIP3    H2 6796   2.606   4.284   1.231
 2264TIP3   OH2 6797   3.214   3.800   3.523
 2264TIP3    H1 6798   3.140   3.780   3.466
 2264TIP3    H2 6799   3.234   3.891   3.505
 2265TIP3   OH2 6800   3.612   3.507   2.325
 2265TIP3    H1 6801   3.685   3.447   2.310
 2265TIP3    H2 6802   3.651   3.581   2.372
 2266TIP3   OH2 6803   2.003   5.623   1.481
 2266TIP3    H1 6804   2.027   5.674   1.403
 2266TIP3    H2 6805   1.911   5.600   1.467
 2267TIP3   OH2 6806   3.980   2.963   0.313
 2267TIP3    H1 6807   3.890   2.942   0.339
 2267TIP3    H2 6808   3.978   2.962   0.217
 2268TIP3   OH2 6809   1.852   2.030   4.773
 2268TIP3    H1 6810   1.793   2.024   4.848
 2268TIP3    H2 6811   1.931   1.982   4.801
 2269TIP3   OH2 6812   3.916   3.294   2.989
 2269TIP3    H1 6813   3.965   3.229   3.039
 2269TIP3    H2 6814   3.855   3.244   2.936
 2270TIP3   OH2 6815   2.713   1.710   0.441
 2270TIP3    H1 6816   2.777   1.683   0.375
 2270TIP3    H2 6817   2.754   1.784   0.486
 2271TIP3   OH2 6818   0.274   1.174   0.125
 2271TIP3    H1 6819   0.291   1.268   0.136
 2271TIP3    H2 6820   0.317   1.133   0.200
 2272TIP3   OH2 6821   3.223   5.481   4.613
 2272TIP3    H1 6822   3.165   5.417   4.653
 2272TIP3    H2 6823   3.301   5.432   4.589
 2273TIP3   OH2 6824   3.739   3.206   0.399
 2273TIP3    H1 6825   3.683   3.129   0.412
 2273TIP3    H2 6826   3.744   3.217   0.304
 2274TIP3   OH2 6827   5.962   3.050   3.702
 2274TIP3    H1 6828   5.979   3.144   3.704
 2274TIP3    H2 6829   6.049   3.010   3.695
 2275TIP3   OH2 6830   0.607   1.356   1.287
 2275TIP3    H1 6831   0.599   1.299   1.364
 2275TIP3    H2 6832   0.596   1.297   1.212
 2276TIP3   OH2 6833   4.775   4.675   0.937
 2276TIP3    H1 6834   4.751   4.640   1.022
 2276TIP3    H2 6835   4.724   4.755   0.928
 2277TIP3   OH2 6836   5.354   2.634   0.501
 2277TIP3    H1 6837   5.292   2.567   0.532
 2277TIP3    H2 6838   5.342   2.707   0.561
 2278TIP3   OH2 6839   1.516   5.623   1.135
 2278TIP3    H1 6840   1.557   5.605   1.220
 2278TIP3    H2 6841   1.567   5.572   1.073
 2279TIP3   OH2 6842   0.521   2.225   2.635
 2279TIP3    H1 6843   0.462   2.222   2.559
 2279TIP3    H2 6844   0.471   2.185   2.706
 2280TIP3   OH2 6845   1.641   4.223   0.881
 2280TIP3    H1 6846   1.560   4.190   0.920
 2280TIP3    H2 6847   1.632   4.205   0.787
 2281TIP3   OH2 6848   6.121   1.726   3.368
 2281TIP3    H1 6849   6.053   1.667   3.401
 2281TIP3    H2 6850   6.148   1.777   3.444
 2282TIP3   OH2 6851   3.223   4.190   5.081
 2282TIP3    H1 6852   3.173   4.201   5.162
 2282TIP3    H2 6853   3.191   4.108   5.045
 2283TIP3   OH2 6854   1.768   2.642   5.057
 2283TIP3    H1 6855   1.796   2.724   5.018
 2283TIP3    H2 6856   1.714   2.667   5.132
 2284TIP3   OH2 6857   2.754   2.162   1.849
 2284TIP3    H1 6858   2.790   2.100   1.785
 2284TIP3    H2 6859   2.663   2.134   1.860
 2285TIP3   OH2 6860   1.190   2.094   4.054
 2285TIP3    H1 6861   1.151   2.037   3.989
 2285TIP3    H2 6862   1.120   2.109   4.118
 2286TIP3   OH2 6863   0.992   4.599   2.585
 2286TIP3    H1 6864   1.063   4.538   2.562
 2286TIP3    H2 6865   0.920   4.542   2.612
 2287TIP3   OH2 6866   1.499   5.492   0.701
 2287TIP3    H1 6867   1.434   5.446   0.648
 2287TIP3    H2 6868   1.573   5.431   0.706
 2288TIP3   OH2 6869   5.154   5.599   4.346
 2288TIP3    H1 6870   5.068   5.600   4.388
 2288TIP3    H2 6871   5.216   5.588   4.418
 2289TIP3   OH2 6872   0.557   0.096   0.107
 2289TIP3    H1 6873   0.566   0.011   0.150
 2289TIP3    H2 6874   0.567   0.077   0.014
 2290TIP3   OH2 6875   2.092   1.396   0.962
 2290TIP3    H1 6876   2.074   1.486   0.935
 2290TIP3    H2 6877   2.100   1.347   0.879
 2291TIP3   OH2 6878   5.548   2.235   3.932
 2291TIP3    H1 6879   5.503   2.306   3.979
 2291TIP3    H2 6880   5.639   2.263   3.929
 2292TIP3   OH2 6881   3.150   2.680   2.309
 2292TIP3    H1 6882   3.103   2.598   2.325
 2292TIP3    H2 6883   3.201   2.693   2.389
 2293TIP3   OH2 6884   1.602   2.203   4.430
 2293TIP3    H1 6885   1.569   2.114   4.444
 2293TIP3    H2 6886   1.654   2.222   4.508
 2294TIP3   OH2 6887   1.351   3.943   3.597
 2294TIP3    H1 6888   1.314   3.895   3.671
 2294TIP3    H2 6889   1.379   4.027   3.634
 2295TIP3   OH2 6890   3.143   5.094   4.505
 2295TIP3    H1 6891   3.123   5.154   4.577
 2295TIP3    H2 6892   3.072   5.030   4.507
 2296TIP3   OH2 6893   3.897   4.570   2.341
 2296TIP3    H1 6894   3.803   4.582   2.350
 2296TIP3    H2 6895   3.933   4.659   2.336
 2297TIP3   OH2 6896   0.297   2.794   4.564
 2297TIP3    H1 6897   0.301   2.727   4.632
 2297TIP3    H2 6898   0.314   2.876   4.610
 2298TIP3   OH2 6899   4.569   2.218   2.757
 2298TIP3    H1 6900   4.587   2.168   2.677
 2298TIP3    H2 6901   4.474   2.219   2.764
 2299TIP3   OH2 6902   3.862   4.542   3.606
 2299TIP3    H1 6903   3.942   4.584   3.574
 2299TIP3    H2 6904   3.888   4.503   3.690
 2300TIP3   OH2 6905   4.367   1.391   4.585
 2300TIP3    H1 6906   4.357   1.349   4.499
 2300TIP3    H2 6907   4.284   1.373   4.630
 2301TIP3   OH2 6908   4.861   5.323   4.171
 2301TIP3    H1 6909   4.806   5.264   4.222
 2301TIP3    H2 6910   4.800   5.380   4.124
 2302TIP3   OH2 6911   4.571   2.493   2.835
 2302TIP3    H1 6912   4.490   2.504   2.884
 2302TIP3    H2 6913   4.569   2.402   2.804
 2303TIP3   OH2 6914   2.419   3.675   4.082
 2303TIP3    H1 6915   2.469   3.659   4.162
 2303TIP3    H2 6916   2.331   3.698   4.112
 2304TIP3   OH2 6917   6.095   0.444   3.401
 2304TIP3    H1 6918   6.049   0.417   3.481
 2304TIP3    H2 6919   6.028   0.485   3.348
 2305TIP3   OH2 6920   2.101   1.133   0.860
 2305TIP3    H1 6921   2.150   1.155   0.940
 2305TIP3    H2 6922   2.085   1.039   0.866
 2306TIP3   OH2 6923   1.966   2.353   0.852
 2306TIP3    H1 6924   2.027   2.424   0.870
 2306TIP3    H2 6925   2.020   2.284   0.813
 2307TIP3   OH2 6926   3.977   2.452   0.951
 2307TIP3    H1 6927   4.059   2.445   0.901
 2307TIP3    H2 6928   3.992   2.400   1.029
 2308TIP3   OH2 6929   5.692   4.696   2.362
 2308TIP3    H1 6930   5.755   4.652   2.419
 2308TIP3    H2 6931   5.720   4.673   2.273
 2309TIP3   OH2 6932   3.441   4.528   3.757
 2309TIP3    H1 6933   3.464   4.487   3.840
 2309TIP3    H2 6934   3.480   4.471   3.691
 2310TIP3   OH2 6935   1.681   1.589   4.270
 2310TIP3    H1 6936   1.702   1.553   4.357
 2310TIP3    H2 6937   1.719   1.676   4.271
 2311TIP3   OH2 6938   1.491   1.770   1.894
 2311TIP3    H1 6939   1.456   1.854   1.923
 2311TIP3    H2 6940   1.431   1.705   1.931
 2312TIP3   OH2 6941   5.754   2.918   4.171
 2312TIP3    H1 6942   5.845   2.934   4.197
 2312TIP3    H2 6943   5.735   2.831   4.205
 2313TIP3   OH2 6944   3.444   4.569   0.734
 2313TIP3    H1 6945   3.392   4.634   0.686
 2313TIP3    H2 6946   3.534   4.602   0.729
 2314TIP3   OH2 6947   6.212   5.032   0.641
 2314TIP3    H1 6948   6.156   4.986   0.704
 2314TIP3    H2 6949   6.156   5.045   0.564
 2315TIP3   OH2 6950   3.526   5.348   0.503
 2315TIP3    H1 6951   3.542   5.440   0.524
 2315TIP3    H2 6952   3.473   5.316   0.576
 2316TIP3   OH2 6953   0.876   0.202   4.565
 2316TIP3    H1 6954   0.843   0.292   4.562
 2316TIP3    H2 6955   0.965   0.208   4.531
 2317TIP3   OH2 6956   5.698   4.214   4.226
 2317TIP3    H1 6957   5.786   4.184   4.249
 2317TIP3    H2 6958   5.712   4.301   4.188
 2318TIP3   OH2 6959   5.142   1.950   2.450
 2318TIP3    H1 6960   5.088   2.024   2.478
 2318TIP3    H2 6961   5.149   1.895   2.528
 2319TIP3   OH2 6962   0.946   5.285   3.867
 2319TIP3    H1 6963   1.018   5.246   3.819
 2319TIP3    H2 6964   0.914   5.215   3.924
 2320TIP3   OH2 6965   4.791   1.066   1.609
 2320TIP3    H1 6966   4.883   1.057   1.585
 2320TIP3    H2 6967   4.755   0.978   1.603
 2321TIP3   OH2 6968   0.524   0.479   3.324
 2321TIP3    H1 6969   0.451   0.452   3.268
 2321TIP3    H2 6970   0.533   0.409   3.387
 2322TIP3   OH2 6971   4.644   3.213   2.525
 2322TIP3    H1 6972   4.588   3.290   2.517
 2322TIP3    H2 6973   4.714   3.227   2.460
 2323TIP3   OH2 6974   1.628   5.162   3.039
 2323TIP3    H1 6975   1.548   5.211   3.020
 2323TIP3    H2 6976   1.597   5.074   3.061
 2324TIP3   OH2 6977   3.480   2.242   4.637
 2324TIP3    H1 6978   3.509   2.213   4.551
 2324TIP3    H2 6979   3.558   2.234   4.693
 2325TIP3   OH2 6980   5.929   2.264   2.097
 2325TIP3    H1 6981   5.923   2.254   2.002
 2325TIP3    H2 6982   5.904   2.355   2.114
 2326TIP3   OH2 6983   2.091   3.703   3.532
 2326TIP3    H1 6984   2.102   3.698   3.437
 2326TIP3    H2 6985   2.037   3.627   3.553
 2327TIP3   OH2 6986   2.782   4.536   1.967
 2327TIP3    H1 6987   2.810   4.496   1.884
 2327TIP3    H2 6988   2.858   4.588   1.994
 2328TIP3   OH2 6989   0.784   5.838   0.490
 2328TIP3    H1 6990   0.785   5.925   0.449
 2328TIP3    H2 6991   0.864   5.835   0.541
 2329TIP3   OH2 6992   4.775   1.061   1.902
 2329TIP3    H1 6993   4.680   1.050   1.910
 2329TIP3    H2 6994   4.790   1.080   1.809
 2330TIP3   OH2 6995   6.160   0.191   2.557
 2330TIP3    H1 6996   6.232   0.252   2.573
 2330TIP3    H2 6997   6.099   0.207   2.628
 2331TIP3   OH2 6998   6.211   5.669   1.908
 2331TIP3    H1 6999   6.184   5.736   1.845
 2331TIP3    H2 7000   6.192   5.586   1.863
 2332TIP3   OH2 7001   3.798   3.716   1.516
 2332TIP3    H1 7002   3.704   3.716   1.534
 2332TIP3    H2 7003   3.805   3.754   1.428
 2333TIP3   OH2 7004   5.335   1.695   3.524
 2333TIP3    H1 7005   5.376   1.609   3.517
 2333TIP3    H2 7006   5.381   1.737   3.597
 2334TIP3   OH2 7007   3.782   4.672   4.840
 2334TIP3    H1 7008   3.705   4.728   4.830
 2334TIP3    H2 7009   3.849   4.729   4.876
 2335TIP3   OH2 7010   3.484   0.592   0.035
 2335TIP3    H1 7011   3.420   0.663   0.031
 2335TIP3    H2 7012   3.432   0.512   0.029
 2336TIP3   OH2 7013   2.327   5.893   0.992
 2336TIP3    H1 7014   2.255   5.887   1.055
 2336TIP3    H2 7015   2.293   5.948   0.921
 2337TIP3   OH2 7016   2.750   0.161   2.476
 2337TIP3    H1 7017   2.732   0.069   2.457
 2337TIP3    H2 7018   2.838   0.176   2.441
 2338TIP3   OH2 7019   6.150   1.442   2.520
 2338TIP3    H1 7020   6.217   1.505   2.547
 2338TIP3    H2 7021   6.165   1.366   2.577
 2339TIP3   OH2 7022   3.938   4.076   0.676
 2339TIP3    H1 7023   3.920   4.170   0.676
 2339TIP3    H2 7024   3.924   4.050   0.767
 2340TIP3   OH2 7025   0.996   0.019   3.901
 2340TIP3    H1 7026   0.911   0.056   3.876
 2340TIP3    H2 7027   1.060   0.080   3.867
 2341TIP3   OH2 7028   1.787   4.757   3.815
 2341TIP3    H1 7029   1.701   4.715   3.824
 2341TIP3    H2 7030   1.833   4.734   3.896
 2342TIP3   OH2 7031   0.884   0.156   4.837
 2342TIP3    H1 7032   0.886   0.185   4.746
 2342TIP3    H2 7033   0.876   0.061   4.832
 2343TIP3   OH2 7034   4.012   5.463   4.916
 2343TIP3    H1 7035   4.019   5.548   4.961
 2343TIP3    H2 7036   4.101   5.428   4.918
 2344TIP3   OH2 7037   4.117   0.895   1.485
 2344TIP3    H1 7038   4.047   0.930   1.429
 2344TIP3    H2 7039   4.162   0.831   1.430
 2345TIP3   OH2 7040   2.333   3.236   3.276
 2345TIP3    H1 7041   2.307   3.158   3.227
 2345TIP3    H2 7042   2.252   3.269   3.313
 2346TIP3   OH2 7043   5.035   1.320   3.273
 2346TIP3    H1 7044   5.032   1.258   3.200
 2346TIP3    H2 7045   5.128   1.327   3.295
 2347TIP3   OH2 7046   5.690   0.515   2.547
 2347TIP3    H1 7047   5.657   0.435   2.589
 2347TIP3    H2 7048   5.612   0.561   2.517
 2348TIP3   OH2 7049   0.242   3.532   3.575
 2348TIP3    H1 7050   0.256   3.557   3.666
 2348TIP3    H2 7051   0.323   3.490   3.549
 2349TIP3   OH2 7052   3.237   0.058   4.616
 2349TIP3    H1 7053   3.228   0.037   4.709
 2349TIP3    H2 7054   3.230  -0.026   4.572
 2350TIP3   OH2 7055   2.884   1.787   3.670
 2350TIP3    H1 7056   2.975   1.813   3.659
 2350TIP3    H2 7057   2.869   1.721   3.602
 2351TIP3   OH2 7058   3.490   0.280   0.957
 2351TIP3    H1 7059   3.484   0.200   1.010
 2351TIP3    H2 7060   3.459   0.253   0.870
 2352TIP3   OH2 7061   1.088   2.802   4.285
 2352TIP3    H1 7062   1.170   2.850   4.290
 2352TIP3    H2 7063   1.114   2.712   4.266
 2353TIP3   OH2 7064   1.914   4.157   0.642
 2353TIP3    H1 7065   1.950   4.070   0.660
 2353TIP3    H2 7066   1.991   4.213   0.635
 2354TIP3   OH2 7067   2.188   1.868   2.502
 2354TIP3    H1 7068   2.226   1.781   2.508
 2354TIP3    H2 7069   2.252   1.926   2.544
 2355TIP3   OH2 7070   5.331   4.859   0.222
 2355TIP3    H1 7071   5.362   4.949   0.214
 2355TIP3    H2 7072   5.326   4.844   0.317
 2356TIP3   OH2 7073   0.960   0.114   4.199
 2356TIP3    H1 7074   0.974   0.144   4.289
 2356TIP3    H2 7075   1.045   0.126   4.156
 2357TIP3   OH2 7076   5.185   2.527   4.984
 2357TIP3    H1 7077   5.189   2.517   5.079
 2357TIP3    H2 7078   5.168   2.438   4.952
 2358TIP3   OH2 7079   5.747   4.154   2.032
 2358TIP3    H1 7080   5.779   4.138   2.120
 2358TIP3    H2 7081   5.696   4.234   2.039
 2359TIP3   OH2 7082   4.918   3.525   0.799
 2359TIP3    H1 7083   4.856   3.484   0.859
 2359TIP3    H2 7084   4.946   3.605   0.843
 2360TIP3   OH2 7085   3.226   0.886   4.323
 2360TIP3    H1 7086   3.203   0.800   4.287
 2360TIP3    H2 7087   3.142   0.931   4.331
 2361TIP3   OH2 7088   0.258   3.229   2.618
 2361TIP3    H1 7089   0.296   3.316   2.619
 2361TIP3    H2 7090   0.273   3.196   2.707
 2362TIP3   OH2 7091   2.801   0.801   3.758
 2362TIP3    H1 7092   2.779   0.790   3.850
 2362TIP3    H2 7093   2.748   0.735   3.712
 2363TIP3   OH2 7094   0.810   1.968   3.798
 2363TIP3    H1 7095   0.768   2.047   3.766
 2363TIP3    H2 7096   0.782   1.961   3.890
 2364TIP3   OH2 7097   3.593   1.043   2.369
 2364TIP3    H1 7098   3.645   0.964   2.387
 2364TIP3    H2 7099   3.504   1.020   2.396
 2365TIP3   OH2 7100   6.125   1.681   4.803
 2365TIP3    H1 7101   6.174   1.621   4.747
 2365TIP3    H2 7102   6.142   1.768   4.766
 2366TIP3   OH2 7103   3.813   1.740   2.771
 2366TIP3    H1 7104   3.815   1.781   2.858
 2366TIP3    H2 7105   3.744   1.786   2.724
 2367TIP3   OH2 7106   0.156   0.689   1.609
 2367TIP3    H1 7107   0.075   0.705   1.657
 2367TIP3    H2 7108   0.225   0.714   1.670
 2368TIP3   OH2 7109   5.809   2.265   4.322
 2368TIP3    H1 7110   5.735   2.207   4.306
 2368TIP3    H2 7111   5.886   2.209   4.312
 2369TIP3   OH2 7112   0.638   3.086   2.425
 2369TIP3    H1 7113   0.652   3.096   2.519
 2369TIP3    H2 7114   0.543   3.088   2.414
 2370TIP3   OH2 7115   0.622   4.181   4.844
 2370TIP3    H1 7116   0.675   4.101   4.849
 2370TIP3    H2 7117   0.674   4.247   4.891
 2371TIP3   OH2 7118   2.184   0.969   4.197
 2371TIP3    H1 7119   2.261   0.947   4.249
 2371TIP3    H2 7120   2.218   1.014   4.120
 2372TIP3   OH2 7121   0.929   2.027   4.208
 2372TIP3    H1 7122   0.984   1.959   4.248
 2372TIP3    H2 7123   0.964   2.109   4.242
 2373TIP3   OH2 7124   2.137   1.527   1.987
 2373TIP3    H1 7125   2.196   1.472   1.935
 2373TIP3    H2 7126   2.053   1.481   1.986
 2374TIP3   OH2 7127   5.298   3.168   3.741
 2374TIP3    H1 7128   5.244   3.247   3.730
 2374TIP3    H2 7129   5.275   3.112   3.667
 2375TIP3   OH2 7130   3.609   1.640   2.506
 2375TIP3    H1 7131   3.536   1.648   2.444
 2375TIP3    H2 7132   3.634   1.548   2.502
 2376TIP3   OH2 7133   1.678   1.851   2.551
 2376TIP3    H1 7134   1.745   1.897   2.601
 2376TIP3    H2 7135   1.708   1.759   2.551
 2377TIP3   OH2 7136   5.533   4.863   3.836
 2377TIP3    H1 7137   5.447   4.836   3.803
 2377TIP3    H2 7138   5.588   4.786   3.823
 2378TIP3   OH2 7139   3.875   1.423   3.463
 2378TIP3    H1 7140   3.917   1.341   3.490
 2378TIP3    H2 7141   3.842   1.405   3.375
 2379TIP3   OH2 7142   3.944   0.901   0.340
 2379TIP3    H1 7143   3.870   0.865   0.387
 2379TIP3    H2 7144   4.021   0.862   0.382
 2380TIP3   OH2 7145   3.612   0.036   4.990
 2380TIP3    H1 7146   3.653   0.054   4.906
 2380TIP3    H2 7147   3.624  -0.058   5.004
 2381TIP3   OH2 7148   0.371   2.795   2.418
 2381TIP3    H1 7149   0.384   2.768   2.509
 2381TIP3    H2 7150   0.385   2.890   2.419
 2382TIP3   OH2 7151   1.192   5.616   0.898
 2382TIP3    H1 7152   1.152   5.694   0.859
 2382TIP3    H2 7153   1.164   5.618   0.989
 2383TIP3   OH2 7154   3.081   0.436   4.727
 2383TIP3    H1 7155   3.056   0.369   4.663
 2383TIP3    H2 7156   3.048   0.402   4.810
 2384TIP3   OH2 7157   3.445   0.384   1.334
 2384TIP3    H1 7158   3.353   0.410   1.346
 2384TIP3    H2 7159   3.458   0.312   1.395
 2385TIP3   OH2 7160   4.091   1.228   1.945
 2385TIP3    H1 7161   4.069   1.276   2.024
 2385TIP3    H2 7162   4.129   1.294   1.887
 2386TIP3   OH2 7163   1.021   0.466   2.673
 2386TIP3    H1 7164   0.969   0.528   2.724
 2386TIP3    H2 7165   1.034   0.391   2.731
 2387TIP3   OH2 7166   5.053   1.347   4.167
 2387TIP3    H1 7167   5.134   1.373   4.210
 2387TIP3    H2 7168   4.993   1.420   4.183
 2388TIP3   OH2 7169   5.941   1.417   4.092
 2388TIP3    H1 7170   5.967   1.495   4.140
 2388TIP3    H2 7171   6.023   1.377   4.064
 2389TIP3   OH2 7172   5.100   3.925   1.323
 2389TIP3    H1 7173   5.068   3.902   1.410
 2389TIP3    H2 7174   5.123   3.842   1.283
 2390TIP3   OH2 7175   5.447   2.137   0.614
 2390TIP3    H1 7176   5.499   2.166   0.539
 2390TIP3    H2 7177   5.503   2.155   0.690
 2391TIP3   OH2 7178   0.693   3.470   0.026
 2391TIP3    H1 7179   0.725   3.455   0.115
 2391TIP3    H2 7180   0.768   3.509  -0.019
 2392TIP3   OH2 7181   4.700   0.250   2.331
 2392TIP3    H1 7182   4.774   0.226   2.387
 2392TIP3    H2 7183   4.639   0.296   2.389
 2393TIP3   OH2 7184   5.787   3.582   0.472
 2393TIP3    H1 7185   5.789   3.496   0.429
 2393TIP3    H2 7186   5.876   3.595   0.504
 2394TIP3   OH2 7187   4.427   1.108   0.138
 2394TIP3    H1 7188   4.512   1.112   0.182
 2394TIP3    H2 7189   4.363   1.129   0.206
 2395TIP3   OH2 7190   2.639   2.368   0.379
 2395TIP3    H1 7191   2.636   2.295   0.441
 2395TIP3    H2 7192   2.671   2.442   0.431
 2396TIP3   OH2 7193   1.545   2.466   3.889
 2396TIP3    H1 7194   1.471   2.422   3.932
 2396TIP3    H2 7195   1.576   2.529   3.954
 2397TIP3   OH2 7196   1.690   5.796   1.967
 2397TIP3    H1 7197   1.759   5.846   1.924
 2397TIP3    H2 7198   1.699   5.819   2.060
 2398TIP3   OH2 7199   4.448   1.868   3.121
 2398TIP3    H1 7200   4.479   1.778   3.135
 2398TIP3    H2 7201   4.494   1.897   3.042
 2399TIP3   OH2 7202   1.993   1.344   4.491
 2399TIP3    H1 7203   2.014   1.389   4.410
 2399TIP3    H2 7204   2.017   1.253   4.475
 2400TIP3   OH2 7205   3.873   1.737   4.983
 2400TIP3    H1 7206   3.842   1.776   5.065
 2400TIP3    H2 7207   3.948   1.684   5.009
 2401TIP3   OH2 7208   2.568   2.622   4.207
 2401TIP3    H1 7209   2.525   2.613   4.292
 2401TIP3    H2 7210   2.565   2.534   4.170
 2402TIP3   OH2 7211   0.674   4.437   1.601
 2402TIP3    H1 7212   0.764   4.417   1.625
 2402TIP3    H2 7213   0.625   4.430   1.682
 2403TIP3   OH2 7214   2.655   5.490   2.149
 2403TIP3    H1 7215   2.745   5.478   2.179
 2403TIP3    H2 7216   2.624   5.401   2.130
 2404TIP3   OH2 7217   2.078   1.571   4.098
 2404TIP3    H1 7218   2.146   1.554   4.032
 2404TIP3    H2 7219   2.096   1.660   4.129
 2405TIP3   OH2 7220   4.228   0.698   3.654
 2405TIP3    H1 7221   4.262   0.683   3.743
 2405TIP3    H2 7222   4.133   0.705   3.666
 2406TIP3   OH2 7223   2.245   5.924   1.992
 2406TIP3    H1 7224   2.251   5.884   1.905
 2406TIP3    H2 7225   2.335   5.920   2.026
 2407TIP3   OH2 7226   4.320   0.477   2.640
 2407TIP3    H1 7227   4.407   0.449   2.669
 2407TIP3    H2 7228   4.317   0.570   2.662
 2408TIP3   OH2 7229   5.784   4.644   3.016
 2408TIP3    H1 7230   5.744   4.640   3.103
 2408TIP3    H2 7231   5.781   4.555   2.984
 2409TIP3   OH2 7232   1.492   0.122   0.936
 2409TIP3    H1 7233   1.475   0.216   0.941
 2409TIP3    H2 7234   1.484   0.101   0.843
 2410TIP3   OH2 7235   3.295   3.097   0.347
 2410TIP3    H1 7236   3.279   3.108   0.253
 2410TIP3    H2 7237   3.248   3.170   0.388
 2411TIP3   OH2 7238   5.097   5.774   2.985
 2411TIP3    H1 7239   5.064   5.708   2.924
 2411TIP3    H2 7240   5.146   5.724   3.050
 2412TIP3   OH2 7241   5.542   5.122   4.673
 2412TIP3    H1 7242   5.613   5.060   4.656
 2412TIP3    H2 7243   5.544   5.134   4.768
 2413TIP3   OH2 7244   2.826   4.696   2.987
 2413TIP3    H1 7245   2.743   4.649   2.988
 2413TIP3    H2 7246   2.828   4.745   3.069
 2414TIP3   OH2 7247   2.707   5.728   0.420
 2414TIP3    H1 7248   2.635   5.669   0.445
 2414TIP3    H2 7249   2.777   5.669   0.393
 2415TIP3   OH2 7250   4.059   5.430   4.547
 2415TIP3    H1 7251   4.039   5.491   4.618
 2415TIP3    H2 7252   4.122   5.369   4.586
 2416TIP3   OH2 7253   5.936   1.565   2.456
 2416TIP3    H1 7254   5.940   1.648   2.408
 2416TIP3    H2 7255   6.024   1.529   2.450
 2417TIP3   OH2 7256   0.749   2.292   4.312
 2417TIP3    H1 7257   0.757   2.386   4.293
 2417TIP3    H2 7258   0.840   2.261   4.316
 2418TIP3   OH2 7259   3.319   3.814   0.099
 2418TIP3    H1 7260   3.393   3.833   0.157
 2418TIP3    H2 7261   3.349   3.840   0.012
 2419TIP3   OH2 7262   2.323   5.021   2.310
 2419TIP3    H1 7263   2.323   4.926   2.322
 2419TIP3    H2 7264   2.382   5.053   2.379
 2420TIP3   OH2 7265   1.232   3.861   0.698
 2420TIP3    H1 7266   1.205   3.936   0.751
 2420TIP3    H2 7267   1.151   3.813   0.681
 2421TIP3   OH2 7268   0.225   4.650   4.320
 2421TIP3    H1 7269   0.282   4.676   4.248
 2421TIP3    H2 7270   0.136   4.670   4.290
 2422TIP3   OH2 7271   5.638   4.371   0.664
 2422TIP3    H1 7272   5.554   4.344   0.702
 2422TIP3    H2 7273   5.660   4.301   0.603
 2423TIP3   OH2 7274   5.521   1.675   1.154
 2423TIP3    H1 7275   5.581   1.606   1.125
 2423TIP3    H2 7276   5.453   1.678   1.087
 2424TIP3   OH2 7277   0.875   4.418   0.397
 2424TIP3    H1 7278   0.893   4.502   0.355
 2424TIP3    H2 7279   0.818   4.439   0.471
 2425TIP3   OH2 7280   3.583   5.918   0.780
 2425TIP3    H1 7281   3.646   5.987   0.758
 2425TIP3    H2 7282   3.638   5.841   0.799
 2426TIP3   OH2 7283   1.764   0.306   1.501
 2426TIP3    H1 7284   1.853   0.325   1.532
 2426TIP3    H2 7285   1.732   0.390   1.470
 2427TIP3   OH2 7286   2.057   4.006   1.378
 2427TIP3    H1 7287   2.056   4.095   1.344
 2427TIP3    H2 7288   1.974   3.996   1.424
 2428TIP3   OH2 7289   3.808   1.905   1.481
 2428TIP3    H1 7290   3.798   1.901   1.386
 2428TIP3    H2 7291   3.884   1.961   1.494
 2429TIP3   OH2 7292   6.134   5.448   0.320
 2429TIP3    H1 7293   6.201   5.435   0.388
 2429TIP3    H2 7294   6.051   5.431   0.364
 2430TIP3   OH2 7295   1.111   2.468   2.631
 2430TIP3    H1 7296   1.093   2.379   2.602
 2430TIP3    H2 7297   1.186   2.460   2.691
 2431TIP3   OH2 7298   2.302   2.139   4.303
 2431TIP3    H1 7299   2.325   2.046   4.303
 2431TIP3    H2 7300   2.368   2.180   4.359
 2432TIP3   OH2 7301   2.066   0.684   1.997
 2432TIP3    H1 7302   2.066   0.630   2.076
 2432TIP3    H2 7303   1.976   0.678   1.964
 2433TIP3   OH2 7304   3.717   1.514   4.450
 2433TIP3    H1 7305   3.659   1.586   4.477
 2433TIP3    H2 7306   3.701   1.504   4.357
 2434TIP3   OH2 7307   6.355   1.718   0.902
 2434TIP3    H1 7308   6.345   1.811   0.923
 2434TIP3    H2 7309   6.270   1.680   0.923
 2435TIP3   OH2 7310   2.431   0.815   3.158
 2435TIP3    H1 7311   2.433   0.910   3.147
 2435TIP3    H2 7312   2.522   0.790   3.167
 2436TIP3   OH2 7313   4.268   4.075   4.641
 2436TIP3    H1 7314   4.230   4.156   4.678
 2436TIP3    H2 7315   4.312   4.104   4.561
 2437TIP3   OH2 7316   0.618   1.356   0.521
 2437TIP3    H1 7317   0.638   1.439   0.565
 2437TIP3    H2 7318   0.700   1.307   0.522
 2438TIP3   OH2 7319   2.047   5.600   3.438
 2438TIP3    H1 7320   1.999   5.537   3.491
 2438TIP3    H2 7321   2.046   5.562   3.349
 2439TIP3   OH2 7322   1.466   1.847   1.585
 2439TIP3    H1 7323   1.500   1.853   1.675
 2439TIP3    H2 7324   1.377   1.881   1.590
 2440TIP3   OH2 7325   2.039   3.745   3.886
 2440TIP3    H1 7326   2.080   3.704   3.810
 2440TIP3    H2 7327   2.034   3.838   3.863
 2441TIP3   OH2 7328   0.972   3.735   3.114
 2441TIP3    H1 7329   0.948   3.674   3.183
 2441TIP3    H2 7330   0.994   3.679   3.039
 2442TIP3   OH2 7331   2.803   3.231   2.031
 2442TIP3    H1 7332   2.846   3.248   1.948
 2442TIP3    H2 7333   2.748   3.154   2.014
 2443TIP3   OH2 7334   2.045   2.257   1.821
 2443TIP3    H1 7335   1.956   2.289   1.810
 2443TIP3    H2 7336   2.083   2.314   1.888
 2444TIP3   OH2 7337   5.004   1.736   1.648
 2444TIP3    H1 7338   5.061   1.756   1.722
 2444TIP3    H2 7339   5.063   1.724   1.574
 2445TIP3   OH2 7340   6.227   3.472   1.719
 2445TIP3    H1 7341   6.195   3.467   1.629
 2445TIP3    H2 7342   6.251   3.381   1.740
 2446TIP3   OH2 7343   0.427   0.698   1.740
 2446TIP3    H1 7344   0.364   0.653   1.796
 2446TIP3    H2 7345   0.486   0.742   1.801
 2447TIP3   OH2 7346   2.119   1.763   2.243
 2447TIP3    H1 7347   2.120   1.803   2.330
 2447TIP3    H2 7348   2.103   1.670   2.260
 2448TIP3   OH2 7349   3.934   3.514   0.234
 2448TIP3    H1 7350   4.010   3.457   0.237
 2448TIP3    H2 7351   3.970   3.601   0.215
 2449TIP3   OH2 7352   0.821   5.621   2.886
 2449TIP3    H1 7353   0.850   5.677   2.814
 2449TIP3    H2 7354   0.793   5.683   2.954
 2450TIP3   OH2 7355   0.779   4.532   4.346
 2450TIP3    H1 7356   0.736   4.505   4.265
 2450TIP3    H2 7357   0.706   4.550   4.406
 2451TIP3   OH2 7358   4.622   4.846   2.115
 2451TIP3    H1 7359   4.680   4.876   2.045
 2451TIP3    H2 7360   4.588   4.926   2.154
 2452TIP3   OH2 7361   3.665   2.154   4.817
 2452TIP3    H1 7362   3.760   2.163   4.812
 2452TIP3    H2 7363   3.642   2.179   4.906
 2453TIP3   OH2 7364   5.166   3.730   0.457
 2453TIP3    H1 7365   5.193   3.786   0.385
 2453TIP3    H2 7366   5.092   3.680   0.421
 2454TIP3   OH2 7367   1.412   4.640   0.125
 2454TIP3    H1 7368   1.448   4.692   0.197
 2454TIP3    H2 7369   1.385   4.558   0.165
 2455TIP3   OH2 7370   1.663   2.240   4.167
 2455TIP3    H1 7371   1.647   2.271   4.256
 2455TIP3    H2 7372   1.589   2.182   4.148
 2456TIP3   OH2 7373   3.404   3.167   0.653
 2456TIP3    H1 7374   3.353   3.086   0.653
 2456TIP3    H2 7375   3.449   3.167   0.568
 2457TIP3   OH2 7376   1.020   0.991   4.407
 2457TIP3    H1 7377   1.080   1.062   4.385
 2457TIP3    H2 7378   0.938   1.034   4.429
 2458TIP3   OH2 7379   2.942   0.923   0.521
 2458TIP3    H1 7380   3.029   0.922   0.561
 2458TIP3    H2 7381   2.952   0.977   0.443
 2459TIP3   OH2 7382   5.677   4.694   2.069
 2459TIP3    H1 7383   5.702   4.768   2.124
 2459TIP3    H2 7384   5.690   4.726   1.979
 2460TIP3   OH2 7385   1.076   0.534   4.934
 2460TIP3    H1 7386   0.981   0.528   4.949
 2460TIP3    H2 7387   1.084   0.574   4.847
 2461TIP3   OH2 7388   6.016   3.606   3.984
 2461TIP3    H1 7389   5.989   3.602   4.076
 2461TIP3    H2 7390   6.065   3.526   3.969
 2462TIP3   OH2 7391   0.268   1.346   4.038
 2462TIP3    H1 7392   0.214   1.401   3.982
 2462TIP3    H2 7393   0.341   1.402   4.066
 2463TIP3   OH2 7394   1.689   1.391   3.659
 2463TIP3    H1 7395   1.667   1.477   3.622
 2463TIP3    H2 7396   1.612   1.337   3.640
 2464TIP3   OH2 7397   4.517   4.795   1.727
 2464TIP3    H1 7398   4.598   4.753   1.700
 2464TIP3    H2 7399   4.448   4.750   1.678
 2465TIP3   OH2 7400   3.098   2.648   0.000
 2465TIP3    H1 7401   3.085   2.563   0.042
 2465TIP3    H2 7402   3.103   2.710   0.073
 2466TIP3   OH2 7403   1.543   4.806   5.002
 2466TIP3    H1 7404   1.536   4.738   5.069
 2466TIP3    H2 7405   1.485   4.876   5.033
 2467TIP3   OH2 7406   3.548   4.229   2.310
 2467TIP3    H1 7407   3.596   4.198   2.234
 2467TIP3    H2 7408   3.615   4.261   2.370
 2468TIP3   OH2 7409   4.961   2.215   1.919
 2468TIP3    H1 7410   4.867   2.201   1.929
 2468TIP3    H2 7411   4.970   2.309   1.902
 2469TIP3   OH2 7412   4.186   0.793   0.452
 2469TIP3    H1 7413   4.162   0.765   0.541
 2469TIP3    H2 7414   4.277   0.821   0.460
 2470TIP3   OH2 7415   0.704   0.507   3.824
 2470TIP3    H1 7416   0.767   0.510   3.753
 2470TIP3    H2 7417   0.752   0.537   3.901
 2471TIP3   OH2 7418   5.262   5.323   2.221
 2471TIP3    H1 7419   5.253   5.386   2.292
 2471TIP3    H2 7420   5.203   5.355   2.152
 2472TIP3   OH2 7421   3.570   3.496   4.957
 2472TIP3    H1 7422   3.568   3.420   5.016
 2472TIP3    H2 7423   3.614   3.463   4.878
 2473TIP3   OH2 7424   3.980   1.175   3.499
 2473TIP3    H1 7425   3.991   1.135   3.585
 2473TIP3    H2 7426   3.924   1.114   3.451
 2474TIP3   OH2 7427   0.438   0.406   4.484
 2474TIP3    H1 7428   0.453   0.498   4.461
 2474TIP3    H2 7429   0.525   0.374   4.511
 2475TIP3   OH2 7430   1.323   2.613   4.367
 2475TIP3    H1 7431   1.297   2.522   4.352
 2475TIP3    H2 7432   1.418   2.610   4.376
 2476TIP3   OH2 7433   1.080   5.456   2.947
 2476TIP3    H1 7434   1.111   5.400   2.876
 2476TIP3    H2 7435   0.996   5.489   2.916
 2477TIP3   OH2 7436   5.346   1.164   0.475
 2477TIP3    H1 7437   5.302   1.080   0.463
 2477TIP3    H2 7438   5.412   1.147   0.542
 2478TIP3   OH2 7439   2.344   1.565   3.505
 2478TIP3    H1 7440   2.319   1.479   3.537
 2478TIP3    H2 7441   2.433   1.553   3.472
 2479TIP3   OH2 7442   5.607   1.461   1.752
 2479TIP3    H1 7443   5.694   1.500   1.758
 2479TIP3    H2 7444   5.598   1.408   1.831
 2480TIP3   OH2 7445   5.448   5.760   0.890
 2480TIP3    H1 7446   5.370   5.810   0.915
 2480TIP3    H2 7447   5.518   5.795   0.945
 2481TIP3   OH2 7448   5.459   4.376   3.864
 2481TIP3    H1 7449   5.462   4.338   3.776
 2481TIP3    H2 7450   5.504   4.312   3.919
 2482TIP3   OH2 7451   2.572   3.848   2.368
 2482TIP3    H1 7452   2.548   3.782   2.303
 2482TIP3    H2 7453   2.641   3.806   2.419
 2483TIP3   OH2 7454   3.389   2.472   0.941
 2483TIP3    H1 7455   3.323   2.426   0.889
 2483TIP3    H2 7456   3.340   2.538   0.990
 2484TIP3   OH2 7457   3.533   1.810   1.415
 2484TIP3    H1 7458   3.530   1.745   1.485
 2484TIP3    H2 7459   3.603   1.871   1.442
 2485TIP3   OH2 7460   0.888   0.211   1.969
 2485TIP3    H1 7461   0.886   0.240   2.060
 2485TIP3    H2 7462   0.894   0.116   1.974
 2486TIP3   OH2 7463   3.011   3.634   0.742
 2486TIP3    H1 7464   2.953   3.693   0.790
 2486TIP3    H2 7465   3.069   3.691   0.692
 2487TIP3   OH2 7466   5.788   4.898   2.885
 2487TIP3    H1 7467   5.720   4.951   2.928
 2487TIP3    H2 7468   5.782   4.813   2.927
 2488TIP3   OH2 7469   0.119   0.092   3.511
 2488TIP3    H1 7470   0.199   0.105   3.562
 2488TIP3    H2 7471   0.065   0.034   3.565
 2489TIP3   OH2 7472   1.324   0.352   4.669
 2489TIP3    H1 7473   1.305   0.396   4.586
 2489TIP3    H2 7474   1.349   0.263   4.645
 2490TIP3   OH2 7475   3.722   3.415   3.796
 2490TIP3    H1 7476   3.724   3.436   3.889
 2490TIP3    H2 7477   3.643   3.362   3.785
 2491TIP3   OH2 7478   0.197   0.421   1.552
 2491TIP3    H1 7479   0.171   0.514   1.555
 2491TIP3    H2 7480   0.261   0.412   1.622
 2492TIP3   OH2 7481   5.188   1.112   2.399
 2492TIP3    H1 7482   5.251   1.110   2.327
 2492TIP3    H2 7483   5.107   1.077   2.361
 2493TIP3   OH2 7484   6.310   4.283   1.363
 2493TIP3    H1 7485   6.298   4.237   1.447
 2493TIP3    H2 7486   6.254   4.361   1.370
 2494TIP3   OH2 7487   3.461   1.383   1.349
 2494TIP3    H1 7488   3.462   1.460   1.292
 2494TIP3    H2 7489   3.552   1.373   1.377
 2495TIP3   OH2 7490   4.870   1.450   2.724
 2495TIP3    H1 7491   4.958   1.455   2.761
 2495TIP3    H2 7492   4.819   1.403   2.790
 2496TIP3   OH2 7493   0.503   3.487   2.824
 2496TIP3    H1 7494   0.415   3.524   2.837
 2496TIP3    H2 7495   0.559   3.539   2.882
 2497TIP3   OH2 7496   5.555   3.115   1.367
 2497TIP3    H1 7497   5.467   3.148   1.349
 2497TIP3    H2 7498   5.550   3.083   1.458
 2498TIP3   OH2 7499   0.639   2.403   5.147
 2498TIP3    H1 7500   0.633   2.333   5.081
 2498TIP3    H2 7501   0.581   2.374   5.217
 2499TIP3   OH2 7502   3.461   1.899   3.800
 2499TIP3    H1 7503   3.374   1.939   3.799
 2499TIP3    H2 7504   3.489   1.904   3.892
 2500TIP3   OH2 7505   1.630   3.076   2.295
 2500TIP3    H1 7506   1.583   3.038   2.369
 2500TIP3    H2 7507   1.706   3.019   2.283
 2501TIP3   OH2 7508   4.710   4.374   1.642
 2501TIP3    H1 7509   4.754   4.314   1.582
 2501TIP3    H2 7510   4.637   4.322   1.678
 2502TIP3   OH2 7511   4.871   1.776   2.706
 2502TIP3    H1 7512   4.785   1.797   2.672
 2502TIP3    H2 7513   4.855   1.714   2.777
 2503TIP3   OH2 7514   1.373   2.268   2.393
 2503TIP3    H1 7515   1.440   2.199   2.396
 2503TIP3    H2 7516   1.346   2.271   2.301
 2504TIP3   OH2 7517   2.478   4.694   5.173
 2504TIP3    H1 7518   2.449   4.753   5.104
 2504TIP3    H2 7519   2.563   4.661   5.142
 2505TIP3   OH2 7520   5.193   1.428   1.235
 2505TIP3    H1 7521   5.161   1.442   1.146
 2505TIP3    H2 7522   5.269   1.370   1.225
 2506TIP3   OH2 7523   2.782   3.390   3.177
 2506TIP3    H1 7524   2.835   3.372   3.255
 2506TIP3    H2 7525   2.705   3.333   3.186
 2507TIP3   OH2 7526   1.510   4.622   2.397
 2507TIP3    H1 7527   1.463   4.611   2.480
 2507TIP3    H2 7528   1.599   4.646   2.422
 2508TIP3   OH2 7529   2.082   3.137   0.576
 2508TIP3    H1 7530   2.044   3.223   0.593
 2508TIP3    H2 7531   2.120   3.111   0.660
 2509TIP3   OH2 7532   6.236   2.978   3.773
 2509TIP3    H1 7533   6.226   2.887   3.746
 2509TIP3    H2 7534   6.325   2.985   3.806
 2510TIP3   OH2 7535   5.407   4.243   0.423
 2510TIP3    H1 7536   5.427   4.334   0.404
 2510TIP3    H2 7537   5.369   4.209   0.341
 2511TIP3   OH2 7538   4.513   2.415   0.833
 2511TIP3    H1 7539   4.508   2.332   0.785
 2511TIP3    H2 7540   4.606   2.427   0.851
 2512TIP3   OH2 7541   6.355   4.009   0.348
 2512TIP3    H1 7542   6.392   4.086   0.391
 2512TIP3    H2 7543   6.267   4.001   0.386
 2513TIP3   OH2 7544   4.716   0.450   5.037
 2513TIP3    H1 7545   4.748   0.482   4.952
 2513TIP3    H2 7546   4.786   0.473   5.099
 2514TIP3   OH2 7547   5.640   2.042   0.955
 2514TIP3    H1 7548   5.572   2.091   1.000
 2514TIP3    H2 7549   5.695   2.109   0.914
 2515TIP3   OH2 7550   5.811   3.516   0.040
 2515TIP3    H1 7551   5.905   3.530   0.029
 2515TIP3    H2 7552   5.777   3.602   0.065
 2516TIP3   OH2 7553   6.238   1.942   0.601
 2516TIP3    H1 7554   6.215   1.998   0.526
 2516TIP3    H2 7555   6.243   2.002   0.675
 2517TIP3   OH2 7556   3.949   3.586   3.344
 2517TIP3    H1 7557   3.909   3.531   3.277
 2517TIP3    H2 7558   3.904   3.561   3.425
 2518TIP3   OH2 7559   4.698   3.585   0.658
 2518TIP3    H1 7560   4.782   3.576   0.704
 2518TIP3    H2 7561   4.720   3.628   0.576
 2519TIP3   OH2 7562   1.244   0.671   3.388
 2519TIP3    H1 7563   1.256   0.576   3.380
 2519TIP3    H2 7564   1.333   0.705   3.400
 2520TIP3   OH2 7565   6.197   5.707   3.671
 2520TIP3    H1 7566   6.279   5.729   3.626
 2520TIP3    H2 7567   6.220   5.708   3.764
 2521TIP3   OH2 7568   3.444   1.926   5.100
 2521TIP3    H1 7569   3.467   1.935   5.192
 2521TIP3    H2 7570   3.519   1.884   5.060
 2522TIP3   OH2 7571   1.475   0.486   1.107
 2522TIP3    H1 7572   1.570   0.484   1.116
 2522TIP3    H2 7573   1.446   0.543   1.178
 2523TIP3   OH2 7574   1.571   0.889   5.059
 2523TIP3    H1 7575   1.515   0.827   5.107
 2523TIP3    H2 7576   1.594   0.955   5.125
 2524TIP3   OH2 7577   2.670   1.437   4.877
 2524TIP3    H1 7578   2.618   1.497   4.823
 2524TIP3    H2 7579   2.612   1.361   4.890
 2525TIP3   OH2 7580   1.595   0.518   1.660
 2525TIP3    H1 7581   1.613   0.570   1.582
 2525TIP3    H2 7582   1.533   0.572   1.710
 2526TIP3   OH2 7583   4.598   5.155   3.465
 2526TIP3    H1 7584   4.658   5.081   3.472
 2526TIP3    H2 7585   4.573   5.158   3.372
 2527TIP3   OH2 7586   5.418   3.755   0.327
 2527TIP3    H1 7587   5.506   3.780   0.354
 2527TIP3    H2 7588   5.376   3.838   0.304
 2528TIP3   OH2 7589   5.600   2.094   4.274
 2528TIP3    H1 7590   5.545   2.032   4.225
 2528TIP3    H2 7591   5.599   2.061   4.364
 2529TIP3   OH2 7592   5.029   1.649   4.201
 2529TIP3    H1 7593   5.053   1.666   4.110
 2529TIP3    H2 7594   5.002   1.734   4.235
 2530TIP3   OH2 7595   6.220   4.004   4.269
 2530TIP3    H1 7596   6.237   4.041   4.182
 2530TIP3    H2 7597   6.305   3.975   4.300
 2531TIP3   OH2 7598   4.735   1.215   3.191
 2531TIP3    H1 7599   4.758   1.151   3.124
 2531TIP3    H2 7600   4.795   1.197   3.264
 2532TIP3   OH2 7601   4.800   0.368   2.772
 2532TIP3    H1 7602   4.829   0.326   2.853
 2532TIP3    H2 7603   4.863   0.438   2.757
 2533TIP3   OH2 7604   5.183   3.781   2.938
 2533TIP3    H1 7605   5.248   3.746   2.999
 2533TIP3    H2 7606   5.139   3.850   2.986
 2534TIP3   OH2 7607   0.482   4.912   4.304
 2534TIP3    H1 7608   0.567   4.896   4.263
 2534TIP3    H2 7609   0.434   4.830   4.293
 2535TIP3   OH2 7610   0.360   2.581   4.290
 2535TIP3    H1 7611   0.306   2.637   4.346
 2535TIP3    H2 7612   0.354   2.494   4.330
 2536TIP3   OH2 7613   5.266   2.936   2.924
 2536TIP3    H1 7614   5.308   2.851   2.911
 2536TIP3    H2 7615   5.204   2.922   2.995
 2537TIP3   OH2 7616   2.350   1.848   4.905
 2537TIP3    H1 7617   2.398   1.912   4.853
 2537TIP3    H2 7618   2.413   1.816   4.969
 2538TIP3   OH2 7619   3.950   0.466   0.021
 2538TIP3    H1 7620   3.951   0.393  -0.041
 2538TIP3    H2 7621   4.013   0.441   0.089
 2539TIP3   OH2 7622   5.619   1.700   4.113
 2539TIP3    H1 7623   5.657   1.720   4.198
 2539TIP3    H2 7624   5.578   1.782   4.086
 2540TIP3   OH2 7625   0.797   3.812   2.876
 2540TIP3    H1 7626   0.867   3.815   2.941
 2540TIP3    H2 7627   0.744   3.737   2.902
 2541TIP3   OH2 7628   1.398   2.338   4.302
 2541TIP3    H1 7629   1.313   2.304   4.330
 2541TIP3    H2 7630   1.462   2.290   4.356
 2542TIP3   OH2 7631   4.282   5.953   0.421
 2542TIP3    H1 7632   4.267   6.008   0.344
 2542TIP3    H2 7633   4.280   5.863   0.388
 2543TIP3   OH2 7634   5.027   3.119   1.186
 2543TIP3    H1 7635   4.980   3.069   1.119
 2543TIP3    H2 7636   4.972   3.111   1.264
 2544TIP3   OH2 7637   4.482   0.635   0.336
 2544TIP3    H1 7638   4.474   0.695   0.410
 2544TIP3    H2 7639   4.444   0.684   0.262
 2545TIP3   OH2 7640   5.201   2.161   0.709
 2545TIP3    H1 7641   5.295   2.159   0.691
 2545TIP3    H2 7642   5.193   2.215   0.788
 2546TIP3   OH2 7643   0.599   2.378   1.706
 2546TIP3    H1 7644   0.637   2.319   1.771
 2546TIP3    H2 7645   0.637   2.349   1.623
 2547TIP3   OH2 7646   4.780   5.059   4.213
 2547TIP3    H1 7647   4.813   4.973   4.241
 2547TIP3    H2 7648   4.792   5.060   4.118
 2548TIP3   OH2 7649   3.274   4.375   3.347
 2548TIP3    H1 7650   3.345   4.366   3.284
 2548TIP3    H2 7651   3.268   4.469   3.363
 2549TIP3   OH2 7652   2.085   2.634   3.282
 2549TIP3    H1 7653   2.026   2.699   3.243
 2549TIP3    H2 7654   2.026   2.567   3.317
 2550TIP3   OH2 7655   4.850   3.213   2.360
 2550TIP3    H1 7656   4.862   3.208   2.266
 2550TIP3    H2 7657   4.925   3.167   2.397
 2551TIP3   OH2 7658   0.353   3.816   4.084
 2551TIP3    H1 7659   0.368   3.880   4.153
 2551TIP3    H2 7660   0.274   3.847   4.039
 2552TIP3   OH2 7661   3.521   2.321   2.439
 2552TIP3    H1 7662   3.429   2.295   2.444
 2552TIP3    H2 7663   3.532   2.352   2.349
 2553TIP3   OH2 7664   5.335   1.449   3.670
 2553TIP3    H1 7665   5.400   1.467   3.738
 2553TIP3    H2 7666   5.253   1.433   3.718
 2554TIP3   OH2 7667   1.193   5.809   1.605
 2554TIP3    H1 7668   1.268   5.763   1.567
 2554TIP3    H2 7669   1.210   5.810   1.699
 2555TIP3   OH2 7670   1.396   3.288   0.546
 2555TIP3    H1 7671   1.364   3.369   0.506
 2555TIP3    H2 7672   1.436   3.240   0.474
 2556TIP3   OH2 7673   3.767   3.696   5.055
 2556TIP3    H1 7674   3.709   3.622   5.075
 2556TIP3    H2 7675   3.765   3.702   4.959
 2557TIP3   OH2 7676   2.646   0.367   4.638
 2557TIP3    H1 7677   2.583   0.433   4.609
 2557TIP3    H2 7678   2.656   0.309   4.563
 2558TIP3   OH2 7679   4.004   2.797   1.264
 2558TIP3    H1 7680   4.070   2.848   1.217
 2558TIP3    H2 7681   3.974   2.854   1.334
 2559TIP3   OH2 7682   3.827   6.004   4.924
 2559TIP3    H1 7683   3.917   5.999   4.957
 2559TIP3    H2 7684   3.803   5.913   4.907
 2560TIP3   OH2 7685   2.357   2.687   4.740
 2560TIP3    H1 7686   2.428   2.638   4.780
 2560TIP3    H2 7687   2.308   2.622   4.690
 2561TIP3   OH2 7688   6.058   4.984   1.162
 2561TIP3    H1 7689   6.073   5.050   1.229
 2561TIP3    H2 7690   6.146   4.957   1.136
 2562TIP3   OH2 7691   3.782   3.418   3.188
 2562TIP3    H1 7692   3.810   3.353   3.252
 2562TIP3    H2 7693   3.825   3.391   3.106
 2563TIP3   OH2 7694   4.532   1.039   1.402
 2563TIP3    H1 7695   4.565   1.121   1.365
 2563TIP3    H2 7696   4.471   1.066   1.471
 2564TIP3   OH2 7697   5.678   3.401   2.666
 2564TIP3    H1 7698   5.748   3.400   2.731
 2564TIP3    H2 7699   5.636   3.486   2.677
 2565TIP3   OH2 7700   3.996   0.054   4.717
 2565TIP3    H1 7701   4.009   0.148   4.730
 2565TIP3    H2 7702   3.925   0.032   4.777
 2566TIP3   OH2 7703   6.146   4.970   4.303
 2566TIP3    H1 7704   6.242   4.965   4.310
 2566TIP3    H2 7705   6.131   5.036   4.236
 2567TIP3   OH2 7706   4.581   0.952   3.301
 2567TIP3    H1 7707   4.537   0.993   3.227
 2567TIP3    H2 7708   4.655   0.905   3.262
 2568TIP3   OH2 7709   5.756   1.190   2.699
 2568TIP3    H1 7710   5.767   1.095   2.708
 2568TIP3    H2 7711   5.844   1.225   2.712
 2569TIP3   OH2 7712   5.650   4.367   2.380
 2569TIP3    H1 7713   5.648   4.274   2.359
 2569TIP3    H2 7714   5.739   4.394   2.361
 2570TIP3   OH2 7715   0.721   3.456   1.091
 2570TIP3    H1 7716   0.744   3.481   1.181
 2570TIP3    H2 7717   0.668   3.377   1.102
 2571TIP3   OH2 7718   5.112   3.078   2.391
 2571TIP3    H1 7719   5.146   3.090   2.303
 2571TIP3    H2 7720   5.149   2.994   2.420
 2572TIP3   OH2 7721   4.070   4.697   0.888
 2572TIP3    H1 7722   4.164   4.710   0.901
 2572TIP3    H2 7723   4.030   4.778   0.920
 2573TIP3   OH2 7724   4.565   2.605   3.259
 2573TIP3    H1 7725   4.600   2.520   3.229
 2573TIP3    H2 7726   4.562   2.597   3.354
 2574TIP3   OH2 7727   4.859   2.482   3.657
 2574TIP3    H1 7728   4.824   2.397   3.682
 2574TIP3    H2 7729   4.836   2.540   3.730
 2575TIP3   OH2 7730   0.536   0.354   5.000
 2575TIP3    H1 7731   0.561   0.264   5.019
 2575TIP3    H2 7732   0.523   0.357   4.906
 2576TIP3   OH2 7733   0.127   4.323   4.239
 2576TIP3    H1 7734   0.195   4.284   4.294
 2576TIP3    H2 7735   0.172   4.395   4.194
 2577TIP3   OH2 7736   3.038   4.090   2.608
 2577TIP3    H1 7737   3.062   4.163   2.665
 2577TIP3    H2 7738   3.112   4.030   2.614
 2578TIP3   OH2 7739   1.333   0.594   0.462
 2578TIP3    H1 7740   1.327   0.609   0.556
 2578TIP3    H2 7741   1.242   0.598   0.431
 2579TIP3   OH2 7742   3.873   1.507   1.589
 2579TIP3    H1 7743   3.855   1.487   1.681
 2579TIP3    H2 7744   3.934   1.581   1.592
 2580TIP3   OH2 7745   1.362   3.134   4.010
 2580TIP3    H1 7746   1.368   3.188   3.931
 2580TIP3    H2 7747   1.366   3.197   4.082
 2581TIP3   OH2 7748   1.466   5.748   2.294
 2581TIP3    H1 7749   1.463   5.790   2.380
 2581TIP3    H2 7750   1.494   5.658   2.313
 2582TIP3   OH2 7751   2.727   5.134   4.271
 2582TIP3    H1 7752   2.789   5.180   4.215
 2582TIP3    H2 7753   2.659   5.103   4.210
 2583TIP3   OH2 7754   1.418   5.172   4.160
 2583TIP3    H1 7755   1.435   5.153   4.252
 2583TIP3    H2 7756   1.324   5.164   4.150
 2584TIP3   OH2 7757   4.195   1.011   2.208
 2584TIP3    H1 7758   4.252   0.960   2.266
 2584TIP3    H2 7759   4.239   1.095   2.199
 2585TIP3   OH2 7760   2.764   2.043   2.553
 2585TIP3    H1 7761   2.724   2.125   2.581
 2585TIP3    H2 7762   2.784   2.056   2.460
 2586TIP3   OH2 7763   5.994   3.343   2.010
 2586TIP3    H1 7764   5.990   3.437   1.995
 2586TIP3    H2 7765   6.061   3.332   2.079
 2587TIP3   OH2 7766   5.979   0.039   2.791
 2587TIP3    H1 7767   5.968   0.132   2.812
 2587TIP3    H2 7768   6.047   0.009   2.852
 2588TIP3   OH2 7769   0.758   5.253   4.294
 2588TIP3    H1 7770   0.807   5.247   4.376
 2588TIP3    H2 7771   0.669   5.275   4.321
 2589TIP3   OH2 7772   5.741   3.374   4.344
 2589TIP3    H1 7773   5.773   3.305   4.286
 2589TIP3    H2 7774   5.648   3.353   4.358
 2590TIP3   OH2 7775   0.208   0.493   2.293
 2590TIP3    H1 7776   0.302   0.511   2.289
 2590TIP3    H2 7777   0.201   0.398   2.294
 2591TIP3   OH2 7778   2.693   0.366   1.907
 2591TIP3    H1 7779   2.690   0.405   1.994
 2591TIP3    H2 7780   2.601   0.346   1.886
 2592TIP3   OH2 7781   6.060   4.681   3.295
 2592TIP3    H1 7782   6.097   4.766   3.274
 2592TIP3    H2 7783   6.083   4.625   3.221
 2593TIP3   OH2 7784   4.521   1.878   5.077
 2593TIP3    H1 7785   4.581   1.939   5.120
 2593TIP3    H2 7786   4.478   1.833   5.149
 2594TIP3   OH2 7787   2.222   4.642   4.374
 2594TIP3    H1 7788   2.295   4.682   4.421
 2594TIP3    H2 7789   2.149   4.645   4.435
 2595TIP3   OH2 7790   1.915   3.883   4.278
 2595TIP3    H1 7791   1.906   3.963   4.329
 2595TIP3    H2 7792   1.870   3.816   4.329
 2596TIP3   OH2 7793   6.083   3.283   4.274
 2596TIP3    H1 7794   6.094   3.293   4.180
 2596TIP3    H2 7795   6.131   3.357   4.313
 2597TIP3   OH2 7796   4.274   0.770   4.396
 2597TIP3    H1 7797   4.325   0.758   4.316
 2597TIP3    H2 7798   4.183   0.763   4.367
 2598TIP3   OH2 7799   0.320   0.960   1.665
 2598TIP3    H1 7800   0.365   0.878   1.646
 2598TIP3    H2 7801   0.380   1.008   1.722
 2599TIP3   OH2 7802   2.493   4.139   0.269
 2599TIP3    H1 7803   2.496   4.201   0.342
 2599TIP3    H2 7804   2.506   4.193   0.191
 2600TIP3   OH2 7805   2.162   1.343   3.253
 2600TIP3    H1 7806   2.106   1.346   3.330
 2600TIP3    H2 7807   2.111   1.387   3.185
 2601TIP3   OH2 7808   1.162   0.158   1.577
 2601TIP3    H1 7809   1.085   0.168   1.521
 2601TIP3    H2 7810   1.197   0.072   1.554
 2602TIP3   OH2 7811   1.757   4.226   3.258
 2602TIP3    H1 7812   1.794   4.284   3.190
 2602TIP3    H2 7813   1.811   4.147   3.253
 2603TIP3   OH2 7814   0.507   1.837   1.714
 2603TIP3    H1 7815   0.418   1.807   1.696
 2603TIP3    H2 7816   0.501   1.933   1.709
 2604TIP3   OH2 7817   1.561   3.270   4.864
 2604TIP3    H1 7818   1.496   3.296   4.799
 2604TIP3    H2 7819   1.517   3.204   4.917
 2605TIP3   OH2 7820   0.560   4.468   3.431
 2605TIP3    H1 7821   0.523   4.519   3.359
 2605TIP3    H2 7822   0.654   4.484   3.426
 2606TIP3   OH2 7823   1.433   4.147   3.762
 2606TIP3    H1 7824   1.443   4.216   3.697
 2606TIP3    H2 7825   1.520   4.138   3.802
 2607TIP3   OH2 7826   2.295   0.384   1.428
 2607TIP3    H1 7827   2.262   0.474   1.427
 2607TIP3    H2 7828   2.330   0.370   1.340
 2608TIP3   OH2 7829   2.359   2.725   0.647
 2608TIP3    H1 7830   2.402   2.722   0.562
 2608TIP3    H2 7831   2.358   2.818   0.671
 2609TIP3   OH2 7832   5.142   3.383   1.792
 2609TIP3    H1 7833   5.226   3.425   1.773
 2609TIP3    H2 7834   5.163   3.291   1.805
 2610TIP3   OH2 7835   2.497   1.054   2.308
 2610TIP3    H1 7836   2.445   1.087   2.234
 2610TIP3    H2 7837   2.492   0.958   2.300
 2611TIP3   OH2 7838   1.049   2.694   3.305
 2611TIP3    H1 7839   1.128   2.690   3.358
 2611TIP3    H2 7840   1.002   2.613   3.325
 2612TIP3   OH2 7841   2.200   0.323   2.717
 2612TIP3    H1 7842   2.271   0.307   2.654
 2612TIP3    H2 7843   2.140   0.381   2.671
 2613TIP3   OH2 7844   2.258   2.344   4.107
 2613TIP3    H1 7845   2.281   2.273   4.048
 2613TIP3    H2 7846   2.225   2.300   4.186
 2614TIP3   OH2 7847   5.226   1.703   2.255
 2614TIP3    H1 7848   5.293   1.637   2.234
 2614TIP3    H2 7849   5.236   1.717   2.349
 2615TIP3   OH2 7850   3.072   1.423   3.610
 2615TIP3    H1 7851   3.041   1.332   3.602
 2615TIP3    H2 7852   3.038   1.451   3.695
 2616TIP3   OH2 7853   1.248   2.048   1.630
 2616TIP3    H1 7854   1.219   2.043   1.721
 2616TIP3    H2 7855   1.311   2.121   1.629
 2617TIP3   OH2 7856   0.345   0.065   1.100
 2617TIP3    H1 7857   0.365   0.156   1.123
 2617TIP3    H2 7858   0.340   0.064   1.004
 2618TIP3   OH2 7859   4.130   4.261   2.854
 2618TIP3    H1 7860   4.089   4.179   2.881
 2618TIP3    H2 7861   4.090   4.327   2.911
 2619TIP3   OH2 7862   1.636   5.505   1.647
 2619TIP3    H1 7863   1.700   5.525   1.714
 2619TIP3    H2 7864   1.601   5.419   1.671
 2620TIP3   OH2 7865   1.842   3.305   1.246
 2620TIP3    H1 7866   1.924   3.349   1.269
 2620TIP3    H2 7867   1.778   3.340   1.307
 2621TIP3   OH2 7868   2.477   0.175   4.804
 2621TIP3    H1 7869   2.437   0.261   4.813
 2621TIP3    H2 7870   2.564   0.192   4.769
 2622TIP3   OH2 7871   5.432   2.251   2.528
 2622TIP3    H1 7872   5.426   2.243   2.624
 2622TIP3    H2 7873   5.453   2.343   2.513
 2623TIP3   OH2 7874   3.595   0.052   2.193
 2623TIP3    H1 7875   3.564  -0.037   2.179
 2623TIP3    H2 7876   3.657   0.045   2.266
 2624TIP3   OH2 7877   0.866   4.872   4.498
 2624TIP3    H1 7878   0.785   4.890   4.450
 2624TIP3    H2 7879   0.904   4.796   4.452
 2625TIP3   OH2 7880   1.082   3.801   4.358
 2625TIP3    H1 7881   1.021   3.763   4.295
 2625TIP3    H2 7882   1.027   3.822   4.434
 2626TIP3   OH2 7883   6.097   4.428   0.754
 2626TIP3    H1 7884   6.106   4.395   0.843
 2626TIP3    H2 7885   6.023   4.378   0.717
 2627TIP3   OH2 7886   3.986   4.964   0.970
 2627TIP3    H1 7887   3.913   4.940   1.027
 2627TIP3    H2 7888   3.999   5.057   0.986
 2628TIP3   OH2 7889   2.724   1.183   3.113
 2628TIP3    H1 7890   2.669   1.124   3.061
 2628TIP3    H2 7891   2.724   1.146   3.201
 2629TIP3   OH2 7892   2.504   2.083   0.371
 2629TIP3    H1 7893   2.572   2.038   0.322
 2629TIP3    H2 7894   2.448   2.013   0.406
 2630TIP3   OH2 7895   0.252   1.356   1.089
 2630TIP3    H1 7896   0.238   1.356   1.184
 2630TIP3    H2 7897   0.346   1.370   1.079
 2631TIP3   OH2 7898   2.807   0.660   0.482
 2631TIP3    H1 7899   2.797   0.584   0.539
 2631TIP3    H2 7900   2.849   0.726   0.537
 2632TIP3   OH2 7901   2.050   0.372   4.499
 2632TIP3    H1 7902   1.980   0.410   4.447
 2632TIP3    H2 7903   2.051   0.424   4.580
 2633TIP3   OH2 7904   1.370   5.057   0.500
 2633TIP3    H1 7905   1.441   4.993   0.508
 2633TIP3    H2 7906   1.321   5.049   0.582
 2634TIP3   OH2 7907   6.126   1.047   1.781
 2634TIP3    H1 7908   6.042   1.051   1.825
 2634TIP3    H2 7909   6.120   1.112   1.711
 2635TIP3   OH2 7910   1.707   0.163   2.967
 2635TIP3    H1 7911   1.671   0.087   3.013
 2635TIP3    H2 7912   1.800   0.162   2.989
 2636TIP3   OH2 7913   4.830   3.441   0.096
 2636TIP3    H1 7914   4.820   3.351   0.066
 2636TIP3    H2 7915   4.883   3.483   0.027
 2637TIP3   OH2 7916   4.763   3.305   3.059
 2637TIP3    H1 7917   4.816   3.360   3.117
 2637TIP3    H2 7918   4.762   3.219   3.102
 2638TIP3   OH2 7919   0.250   1.792   1.057
 2638TIP3    H1 7920   0.167   1.768   1.015
 2638TIP3    H2 7921   0.225   1.844   1.133
 2639TIP3   OH2 7922   5.291   5.235   3.296
 2639TIP3    H1 7923   5.352   5.308   3.285
 2639TIP3    H2 7924   5.279   5.229   3.391
 2640TIP3   OH2 7925   1.122   1.116   0.526
 2640TIP3    H1 7926   1.169   1.131   0.444
 2640TIP3    H2 7927   1.153   1.185   0.585
 2641TIP3   OH2 7928   2.219   2.386   3.603
 2641TIP3    H1 7929   2.148   2.436   3.643
 2641TIP3    H2 7930   2.293   2.447   3.601
 2642TIP3   OH2 7931   0.415   0.370   0.771
 2642TIP3    H1 7932   0.475   0.438   0.798
 2642TIP3    H2 7933   0.364   0.410   0.700
 2643TIP3   OH2 7934   6.136   0.036   3.099
 2643TIP3    H1 7935   6.079   0.112   3.100
 2643TIP3    H2 7936   6.218   0.067   3.060
 2644TIP3   OH2 7937   1.100   4.314   3.351
 2644TIP3    H1 7938   1.118   4.344   3.262
 2644TIP3    H2 7939   1.156   4.238   3.363
 2645TIP3   OH2 7940   0.151   1.430   2.449
 2645TIP3    H1 7941   0.098   1.351   2.446
 2645TIP3    H2 7942   0.237   1.400   2.480
 2646TIP3   OH2 7943   2.323   3.956   3.395
 2646TIP3    H1 7944   2.366   3.897   3.456
 2646TIP3    H2 7945   2.297   3.899   3.321
 2647TIP3   OH2 7946   1.433   1.790   4.218
 2647TIP3    H1 7947   1.424   1.755   4.307
 2647TIP3    H2 7948   1.527   1.782   4.199
 2648TIP3   OH2 7949   6.305   2.710   2.850
 2648TIP3    H1 7950   6.305   2.693   2.756
 2648TIP3    H2 7951   6.217   2.742   2.869
 2649TIP3   OH2 7952   2.541   1.685   1.106
 2649TIP3    H1 7953   2.508   1.696   1.195
 2649TIP3    H2 7954   2.607   1.754   1.096
 2650TIP3   OH2 7955   1.453   5.721   0.879
 2650TIP3    H1 7956   1.436   5.649   0.819
 2650TIP3    H2 7957   1.433   5.684   0.966
 2651TIP3   OH2 7958   6.022   0.293   3.111
 2651TIP3    H1 7959   6.104   0.324   3.072
 2651TIP3    H2 7960   5.954   0.338   3.062
 2652TIP3   OH2 7961   5.858   4.050   4.669
 2652TIP3    H1 7962   5.788   4.044   4.603
 2652TIP3    H2 7963   5.934   4.082   4.620
 2653TIP3   OH2 7964   6.310   0.953   2.084
 2653TIP3    H1 7965   6.378   0.885   2.085
 2653TIP3    H2 7966   6.242   0.918   2.027
 2654TIP3   OH2 7967   4.761   4.522   4.714
 2654TIP3    H1 7968   4.693   4.456   4.700
 2654TIP3    H2 7969   4.799   4.537   4.628
 2655TIP3   OH2 7970   4.701   3.434   1.539
 2655TIP3    H1 7971   4.748   3.494   1.596
 2655TIP3    H2 7972   4.681   3.358   1.594
 2656TIP3   OH2 7973   4.822   5.295   3.411
 2656TIP3    H1 7974   4.755   5.229   3.426
 2656TIP3    H2 7975   4.886   5.252   3.355
 2657TIP3   OH2 7976   5.705   0.741   5.028
 2657TIP3    H1 7977   5.739   0.657   4.998
 2657TIP3    H2 7978   5.692   0.730   5.122
 2658TIP3   OH2 7979   4.930   3.916   3.920
 2658TIP3    H1 7980   4.939   4.010   3.929
 2658TIP3    H2 7981   4.842   3.903   3.886
 2659TIP3   OH2 7982   5.092   5.437   4.098
 2659TIP3    H1 7983   5.114   5.512   4.153
 2659TIP3    H2 7984   5.020   5.394   4.144
 2660TIP3   OH2 7985   3.337   4.998   4.150
 2660TIP3    H1 7986   3.246   5.030   4.153
 2660TIP3    H2 7987   3.384   5.063   4.099
 2661TIP3   OH2 7988   1.036   4.483   2.282
 2661TIP3    H1 7989   1.028   4.578   2.295
 2661TIP3    H2 7990   1.089   4.474   2.203
 2662TIP3   OH2 7991   1.462   0.311   0.607
 2662TIP3    H1 7992   1.375   0.339   0.581
 2662TIP3    H2 7993   1.484   0.364   0.683
 2663TIP3   OH2 7994   0.525   4.713   4.926
 2663TIP3    H1 7995   0.458   4.711   4.994
 2663TIP3    H2 7996   0.504   4.639   4.869
 2664TIP3   OH2 7997   2.854   3.116   4.473
 2664TIP3    H1 7998   2.830   3.204   4.503
 2664TIP3    H2 7999   2.949   3.112   4.484
 2665TIP3   OH2 8000   2.804   1.567   1.593
 2665TIP3    H1 8001   2.875   1.618   1.631
 2665TIP3    H2 8002   2.739   1.559   1.664
 2666TIP3   OH2 8003   0.821   0.962   0.317
 2666TIP3    H1 8004   0.814   1.048   0.275
 2666TIP3    H2 8005   0.741   0.916   0.291
 2667TIP3   OH2 8006   4.976   5.708   1.143
 2667TIP3    H1 8007   4.992   5.803   1.145
 2667TIP3    H2 8008   4.938   5.688   1.229
 2668TIP3   OH2 8009   1.681   2.545   0.670
 2668TIP3    H1 8010   1.604   2.543   0.727
 2668TIP3    H2 8011   1.649   2.514   0.585
 2669TIP3   OH2 8012   5.239   3.041   0.549
 2669TIP3    H1 8013   5.273   2.977   0.486
 2669TIP3    H2 8014   5.163   3.079   0.505
 2670TIP3   OH2 8015   2.427   5.735   3.681
 2670TIP3    H1 8016   2.407   5.809   3.624
 2670TIP3    H2 8017   2.407   5.766   3.769
 2671TIP3   OH2 8018   1.360   1.797   1.033
 2671TIP3    H1 8019   1.445   1.758   1.012
 2671TIP3    H2 8020   1.371   1.832   1.121
 2672TIP3   OH2 8021   0.815   1.540   3.487
 2672TIP3    H1 8022   0.753   1.575   3.551
 2672TIP3    H2 8023   0.784   1.574   3.403
 2673TIP3   OH2 8024   5.044   4.195   1.013
 2673TIP3    H1 8025   5.069   4.226   0.926
 2673TIP3    H2 8026   5.053   4.272   1.069
 2674TIP3   OH2 8027   2.058   2.956   4.141
 2674TIP3    H1 8028   1.991   2.894   4.171
 2674TIP3    H2 8029   2.050   2.955   4.046
 2675TIP3   OH2 8030   5.246   1.416   0.440
 2675TIP3    H1 8031   5.292   1.333   0.452
 2675TIP3    H2 8032   5.304   1.482   0.479
 2676TIP3   OH2 8033   3.455   3.262   3.253
 2676TIP3    H1 8034   3.545   3.236   3.232
 2676TIP3    H2 8035   3.427   3.198   3.319
 2677TIP3   OH2 8036   2.093   3.666   3.049
 2677TIP3    H1 8037   2.139   3.600   2.997
 2677TIP3    H2 8038   2.022   3.695   2.992
 2678TIP3   OH2 8039   3.051   5.811   2.592
 2678TIP3    H1 8040   3.037   5.717   2.590
 2678TIP3    H2 8041   3.144   5.822   2.608
 2679TIP3   OH2 8042   6.060   0.126  -0.033
 2679TIP3    H1 8043   6.114   0.049  -0.019
 2679TIP3    H2 8044   6.051   0.165   0.054
 2680TIP3   OH2 8045   6.273   2.406   1.682
 2680TIP3    H1 8046   6.241   2.464   1.750
 2680TIP3    H2 8047   6.353   2.367   1.718
 2681TIP3   OH2 8048   0.944   2.685   1.078
 2681TIP3    H1 8049   0.908   2.738   1.150
 2681TIP3    H2 8050   1.033   2.716   1.067
 2682TIP3   OH2 8051   2.641   5.357   5.102
 2682TIP3    H1 8052   2.615   5.435   5.152
 2682TIP3    H2 8053   2.732   5.373   5.078
 2683TIP3   OH2 8054   4.953   3.790   4.465
 2683TIP3    H1 8055   4.946   3.814   4.373
 2683TIP3    H2 8056   5.015   3.854   4.502
 2684TIP3   OH2 8057   3.824   1.661   2.342
 2684TIP3    H1 8058   3.896   1.631   2.398
 2684TIP3    H2 8059   3.758   1.694   2.403
 2685TIP3   OH2 8060   0.276   2.078   4.579
 2685TIP3    H1 8061   0.251   2.014   4.645
 2685TIP3    H2 8062   0.365   2.053   4.553
 2686TIP3   OH2 8063   1.161   0.532   5.194
 2686TIP3    H1 8064   1.139   0.621   5.221
 2686TIP3    H2 8065   1.163   0.536   5.098
 2687TIP3   OH2 8066   3.921   2.040   3.205
 2687TIP3    H1 8067   3.873   2.108   3.252
 2687TIP3    H2 8068   3.962   1.988   3.273
 2688TIP3   OH2 8069   4.180   2.039   3.678
 2688TIP3    H1 8070   4.157   2.020   3.769
 2688TIP3    H2 8071   4.120   2.110   3.652
 2689TIP3   OH2 8072   3.104   0.633   4.201
 2689TIP3    H1 8073   3.127   0.588   4.119
 2689TIP3    H2 8074   3.133   0.573   4.270
 2690TIP3   OH2 8075   4.359   4.704   0.952
 2690TIP3    H1 8076   4.436   4.711   1.009
 2690TIP3    H2 8077   4.394   4.716   0.863
 2691TIP3   OH2 8078   2.348   3.270   4.566
 2691TIP3    H1 8079   2.266   3.254   4.519
 2691TIP3    H2 8080   2.348   3.206   4.637
 2692TIP3   OH2 8081   2.683   1.421   4.085
 2692TIP3    H1 8082   2.687   1.486   4.154
 2692TIP3    H2 8083   2.591   1.394   4.082
 2693TIP3   OH2 8084   1.368   2.666   0.422
 2693TIP3    H1 8085   1.357   2.578   0.385
 2693TIP3    H2 8086   1.295   2.676   0.483
 2694TIP3   OH2 8087   4.694   2.299   0.472
 2694TIP3    H1 8088   4.619   2.242   0.489
 2694TIP3    H2 8089   4.655   2.385   0.455
 2695TIP3   OH2 8090   4.464   2.188   4.461
 2695TIP3    H1 8091   4.540   2.169   4.516
 2695TIP3    H2 8092   4.486   2.270   4.416
 2696TIP3   OH2 8093   1.687   5.213   1.560
 2696TIP3    H1 8094   1.774   5.243   1.584
 2696TIP3    H2 8095   1.700   5.165   1.478
 2697TIP3   OH2 8096   0.178   4.711   1.863
 2697TIP3    H1 8097   0.151   4.689   1.774
 2697TIP3    H2 8098   0.178   4.628   1.910
 2698TIP3   OH2 8099   1.486   5.016   2.508
 2698TIP3    H1 8100   1.571   5.047   2.540
 2698TIP3    H2 8101   1.463   4.945   2.568
 2699TIP3   OH2 8102   0.314   1.262   1.356
 2699TIP3    H1 8103   0.290   1.318   1.430
 2699TIP3    H2 8104   0.295   1.173   1.386
 2700TIP3   OH2 8105   5.396   3.584   2.462
 2700TIP3    H1 8106   5.406   3.651   2.531
 2700TIP3    H2 8107   5.483   3.546   2.453
 2701TIP3   OH2 8108   5.858   2.570   4.460
 2701TIP3    H1 8109   5.861   2.480   4.493
 2701TIP3    H2 8110   5.884   2.624   4.535
 2702TIP3   OH2 8111   3.722   5.328   2.986
 2702TIP3    H1 8112   3.798   5.310   3.041
 2702TIP3    H2 8113   3.669   5.390   3.036
 2703TIP3   OH2 8114   0.851   0.154   2.607
 2703TIP3    H1 8115   0.853   0.165   2.702
 2703TIP3    H2 8116   0.770   0.198   2.580
 2704TIP3   OH2 8117   3.197   2.039   5.080
 2704TIP3    H1 8118   3.281   1.998   5.101
 2704TIP3    H2 8119   3.160   2.063   5.165
 2705TIP3   OH2 8120   1.583   2.084   2.353
 2705TIP3    H1 8121   1.614   2.000   2.320
 2705TIP3    H2 8122   1.634   2.099   2.432
 2706TIP3   OH2 8123   0.322   3.204   4.752
 2706TIP3    H1 8124   0.360   3.285   4.785
 2706TIP3    H2 8125   0.227   3.215   4.761
 2707TIP3   OH2 8126   0.830   2.658   0.105
 2707TIP3    H1 8127   0.769   2.617   0.166
 2707TIP3    H2 8128   0.829   2.602   0.028
 2708TIP3   OH2 8129   4.982   1.869   4.608
 2708TIP3    H1 8130   4.906   1.827   4.566
 2708TIP3    H2 8131   5.050   1.802   4.607
 2709TIP3   OH2 8132   1.061   2.798   3.878
 2709TIP3    H1 8133   1.100   2.719   3.840
 2709TIP3    H2 8134   1.123   2.825   3.946
 2710TIP3   OH2 8135  -0.010   4.079   3.901
 2710TIP3    H1 8136  -0.029   3.985   3.894
 2710TIP3    H2 8137   0.086   4.083   3.906
 2711TIP3   OH2 8138   3.794   5.842   2.592
 2711TIP3    H1 8139   3.701   5.863   2.602
 2711TIP3    H2 8140   3.839   5.905   2.648
 2712TIP3   OH2 8141   0.787   0.795   3.588
 2712TIP3    H1 8142   0.720   0.784   3.656
 2712TIP3    H2 8143   0.745   0.766   3.508
 2713TIP3   OH2 8144   3.751   1.205   1.028
 2713TIP3    H1 8145   3.735   1.118   1.064
 2713TIP3    H2 8146   3.696   1.210   0.950
 2714TIP3   OH2 8147   3.158   4.933   4.943
 2714TIP3    H1 8148   3.082   4.951   4.887
 2714TIP3    H2 8149   3.228   4.911   4.882
 2715TIP3   OH2 8150   5.569   5.223   3.308
 2715TIP3    H1 8151   5.601   5.176   3.231
 2715TIP3    H2 8152   5.492   5.173   3.337
 2716TIP3   OH2 8153   4.385   0.135   3.906
 2716TIP3    H1 8154   4.334   0.055   3.918
 2716TIP3    H2 8155   4.320   0.205   3.908
 2717TIP3   OH2 8156   4.476   5.666   0.487
 2717TIP3    H1 8157   4.502   5.574   0.489
 2717TIP3    H2 8158   4.387   5.665   0.451
 2718TIP3   OH2 8159   2.072   1.260   2.451
 2718TIP3    H1 8160   2.119   1.246   2.533
 2718TIP3    H2 8161   2.097   1.186   2.396
 2719TIP3   OH2 8162   1.366   4.841   2.327
 2719TIP3    H1 8163   1.414   4.763   2.353
 2719TIP3    H2 8164   1.407   4.912   2.376
 2720TIP3   OH2 8165   4.105   5.040   1.225
 2720TIP3    H1 8166   4.012   5.058   1.210
 2720TIP3    H2 8167   4.149   5.125   1.210
 2721TIP3   OH2 8168   4.677   4.013   3.784
 2721TIP3    H1 8169   4.596   3.975   3.751
 2721TIP3    H2 8170   4.648   4.083   3.843
 2722TIP3   OH2 8171   3.931   1.240   3.954
 2722TIP3    H1 8172   3.877   1.310   3.918
 2722TIP3    H2 8173   4.021   1.273   3.946
 2723TIP3   OH2 8174   3.759   2.629   0.458
 2723TIP3    H1 8175   3.849   2.660   0.448
 2723TIP3    H2 8176   3.716   2.696   0.512
 2724TIP3   OH2 8177   2.240   2.344   2.000
 2724TIP3    H1 8178   2.304   2.308   2.061
 2724TIP3    H2 8179   2.292   2.391   1.935
 2725TIP3   OH2 8180   4.909   1.797   0.554
 2725TIP3    H1 8181   4.877   1.770   0.468
 2725TIP3    H2 8182   4.894   1.722   0.611
 2726TIP3   OH2 8183   3.153   3.431   4.598
 2726TIP3    H1 8184   3.177   3.393   4.513
 2726TIP3    H2 8185   3.113   3.516   4.576
 2727TIP3   OH2 8186   0.871   2.260   3.687
 2727TIP3    H1 8187   0.952   2.274   3.736
 2727TIP3    H2 8188   0.889   2.183   3.633
 2728TIP3   OH2 8189   0.107   3.409   0.260
 2728TIP3    H1 8190   0.078   3.498   0.281
 2728TIP3    H2 8191   0.202   3.416   0.253
 2729TIP3   OH2 8192   6.278   3.463   0.014
 2729TIP3    H1 8193   6.360   3.480  -0.033
 2729TIP3    H2 8194   6.304   3.454   0.105
 2730TIP3   OH2 8195   4.281   2.491   1.255
 2730TIP3    H1 8196   4.370   2.520   1.274
 2730TIP3    H2 8197   4.238   2.485   1.340
 2731TIP3   OH2 8198   2.075   3.099   4.670
 2731TIP3    H1 8199   1.992   3.052   4.683
 2731TIP3    H2 8200   2.097   3.085   4.578
 2732TIP3   OH2 8201   3.771   0.084   2.427
 2732TIP3    H1 8202   3.791  -0.006   2.452
 2732TIP3    H2 8203   3.731   0.122   2.506
 2733TIP3   OH2 8204   1.564   4.769   0.321
 2733TIP3    H1 8205   1.628   4.700   0.337
 2733TIP3    H2 8206   1.547   4.808   0.407
 2734TIP3   OH2 8207   2.052   4.025   2.630
 2734TIP3    H1 8208   2.067   3.932   2.614
 2734TIP3    H2 8209   2.117   4.069   2.575
 2735TIP3   OH2 8210   2.955   4.988   0.519
 2735TIP3    H1 8211   3.046   5.011   0.499
 2735TIP3    H2 8212   2.959   4.897   0.547
 2736TIP3   OH2 8213   4.385   2.155   0.499
 2736TIP3    H1 8214   4.395   2.234   0.447
 2736TIP3    H2 8215   4.316   2.106   0.455
 2737TIP3   OH2 8216   1.863   3.001   4.399
 2737TIP3    H1 8217   1.948   3.037   4.373
 2737TIP3    H2 8218   1.800   3.049   4.346
 2738TIP3   OH2 8219   5.099   2.588   0.919
 2738TIP3    H1 8220   5.166   2.655   0.937
 2738TIP3    H2 8221   5.073   2.604   0.828
 2739TIP3   OH2 8222   4.723   4.600   3.245
 2739TIP3    H1 8223   4.655   4.534   3.235
 2739TIP3    H2 8224   4.777   4.568   3.318
 2740TIP3   OH2 8225   4.542   1.927   4.552
 2740TIP3    H1 8226   4.454   1.953   4.524
 2740TIP3    H2 8227   4.542   1.941   4.646
 2741TIP3   OH2 8228   4.491   3.759   3.640
 2741TIP3    H1 8229   4.467   3.849   3.621
 2741TIP3    H2 8230   4.425   3.728   3.701
 2742TIP3   OH2 8231   3.921   4.854   3.037
 2742TIP3    H1 8232   3.854   4.895   2.981
 2742TIP3    H2 8233   3.877   4.778   3.074
 2743TIP3   OH2 8234   3.273   0.960   1.000
 2743TIP3    H1 8235   3.359   0.918   0.998
 2743TIP3    H2 8236   3.234   0.933   1.084
 2744TIP3   OH2 8237   2.329   4.662   0.518
 2744TIP3    H1 8238   2.349   4.579   0.473
 2744TIP3    H2 8239   2.267   4.706   0.459
 2745TIP3   OH2 8240   2.062   0.876   0.957
 2745TIP3    H1 8241   1.979   0.830   0.968
 2745TIP3    H2 8242   2.077   0.918   1.042
 2746TIP3   OH2 8243   2.630   2.323   0.880
 2746TIP3    H1 8244   2.632   2.254   0.946
 2746TIP3    H2 8245   2.566   2.293   0.816
 2747TIP3   OH2 8246   0.999   0.755   3.286
 2747TIP3    H1 8247   1.083   0.737   3.330
 2747TIP3    H2 8248   1.019   0.825   3.224
 2748TIP3   OH2 8249   5.841   0.560   3.494
 2748TIP3    H1 8250   5.803   0.625   3.553
 2748TIP3    H2 8251   5.887   0.499   3.552
 2749TIP3   OH2 8252   2.971   1.000   4.379
 2749TIP3    H1 8253   2.945   1.028   4.466
 2749TIP3    H2 8254   2.932   1.064   4.320
 2750TIP3   OH2 8255   5.384   2.041   2.336
 2750TIP3    H1 8256   5.412   2.113   2.393
 2750TIP3    H2 8257   5.291   2.032   2.354
 2751TIP3   OH2 8258   3.180   4.415   2.467
 2751TIP3    H1 8259   3.191   4.486   2.531
 2751TIP3    H2 8260   3.105   4.365   2.499
 2752TIP3   OH2 8261   6.036   4.807   2.011
 2752TIP3    H1 8262   6.029   4.712   2.019
 2752TIP3    H2 8263   5.988   4.827   1.930
 2753TIP3   OH2 8264   0.381   0.677   1.408
 2753TIP3    H1 8265   0.329   0.658   1.486
 2753TIP3    H2 8266   0.319   0.670   1.336
 2754TIP3   OH2 8267   5.901   2.703   3.930
 2754TIP3    H1 8268   5.926   2.640   3.997
 2754TIP3    H2 8269   5.984   2.743   3.902
 2755TIP3   OH2 8270   1.286   1.551   1.928
 2755TIP3    H1 8271   1.276   1.566   1.834
 2755TIP3    H2 8272   1.254   1.461   1.941
 2756TIP3   OH2 8273   5.826   4.935   4.393
 2756TIP3    H1 8274   5.912   4.958   4.359
 2756TIP3    H2 8275   5.790   5.018   4.426
 2757TIP3   OH2 8276   6.290   4.911   1.791
 2757TIP3    H1 8277   6.380   4.922   1.760
 2757TIP3    H2 8278   6.271   4.818   1.780
 2758TIP3   OH2 8279   2.919   3.034   1.192
 2758TIP3    H1 8280   2.862   3.006   1.264
 2758TIP3    H2 8281   2.985   2.965   1.186
 2759TIP3   OH2 8282   1.871   4.061   3.597
 2759TIP3    H1 8283   1.959   4.024   3.596
 2759TIP3    H2 8284   1.834   4.038   3.512
 2760TIP3   OH2 8285   4.945   2.201   2.211
 2760TIP3    H1 8286   4.948   2.181   2.118
 2760TIP3    H2 8287   4.894   2.130   2.250
 2761TIP3   OH2 8288   2.874   3.325   3.503
 2761TIP3    H1 8289   2.948   3.310   3.562
 2761TIP3    H2 8290   2.913   3.364   3.425
 2762TIP3   OH2 8291   0.243   4.016   1.633
 2762TIP3    H1 8292   0.258   3.949   1.567
 2762TIP3    H2 8293   0.331   4.051   1.651
 2763TIP3   OH2 8294   3.159   1.545   1.632
 2763TIP3    H1 8295   3.187   1.607   1.565
 2763TIP3    H2 8296   3.170   1.459   1.591
 2764TIP3   OH2 8297   0.386   4.349   4.949
 2764TIP3    H1 8298   0.426   4.271   4.988
 2764TIP3    H2 8299   0.292   4.335   4.961
 2765TIP3   OH2 8300   2.413   3.075   2.066
 2765TIP3    H1 8301   2.399   3.087   2.160
 2765TIP3    H2 8302   2.424   2.981   2.055
 2766TIP3   OH2 8303   5.133   5.520   0.984
 2766TIP3    H1 8304   5.137   5.562   0.898
 2766TIP3    H2 8305   5.113   5.591   1.045
 2767TIP3   OH2 8306   5.140   2.333   3.340
 2767TIP3    H1 8307   5.106   2.394   3.406
 2767TIP3    H2 8308   5.101   2.363   3.258
 2768TIP3   OH2 8309   5.789   0.415   4.405
 2768TIP3    H1 8310   5.741   0.459   4.475
 2768TIP3    H2 8311   5.866   0.471   4.390
 2769TIP3   OH2 8312   4.132   5.702   5.164
 2769TIP3    H1 8313   4.150   5.739   5.078
 2769TIP3    H2 8314   4.037   5.691   5.166
 2770TIP3   OH2 8315   5.747   5.736   0.390
 2770TIP3    H1 8316   5.741   5.665   0.454
 2770TIP3    H2 8317   5.658   5.747   0.358
 2771TIP3   OH2 8318   0.000   5.726   2.263
 2771TIP3    H1 8319  -0.003   5.820   2.246
 2771TIP3    H2 8320   0.031   5.687   2.181
 2772TIP3   OH2 8321   2.065   1.502   2.286
 2772TIP3    H1 8322   2.018   1.493   2.203
 2772TIP3    H2 8323   2.057   1.416   2.326
 2773TIP3   OH2 8324   4.501   5.780   0.768
 2773TIP3    H1 8325   4.489   5.726   0.690
 2773TIP3    H2 8326   4.447   5.858   0.751
 2774TIP3   OH2 8327   3.669   1.023   1.912
 2774TIP3    H1 8328   3.734   0.960   1.945
 2774TIP3    H2 8329   3.710   1.061   1.834
 2775TIP3   OH2 8330   3.933   3.829   1.846
 2775TIP3    H1 8331   4.006   3.890   1.832
 2775TIP3    H2 8332   3.961   3.747   1.805
 2776TIP3   OH2 8333   3.275   0.885   3.823
 2776TIP3    H1 8334   3.204   0.905   3.883
 2776TIP3    H2 8335   3.232   0.844   3.748
 2777TIP3   OH2 8336   5.738   0.017   4.555
 2777TIP3    H1 8337   5.813   0.040   4.500
 2777TIP3    H2 8338   5.663   0.018   4.496
 2778TIP3   OH2 8339   1.650   5.008   4.865
 2778TIP3    H1 8340   1.608   4.928   4.897
 2778TIP3    H2 8341   1.740   5.003   4.898
 2779TIP3   OH2 8342   2.219   0.662   3.617
 2779TIP3    H1 8343   2.174   0.613   3.548
 2779TIP3    H2 8344   2.257   0.737   3.571
 2780TIP3   OH2 8345   3.034   4.765   4.048
 2780TIP3    H1 8346   3.059   4.841   4.100
 2780TIP3    H2 8347   2.975   4.715   4.104
 2781TIP3   OH2 8348   5.238   3.976   0.282
 2781TIP3    H1 8349   5.255   4.053   0.228
 2781TIP3    H2 8350   5.213   4.011   0.368
 2782TIP3   OH2 8351   0.015   0.645   1.345
 2782TIP3    H1 8352   0.070   0.703   1.397
 2782TIP3    H2 8353  -0.038   0.598   1.410
 2783TIP3   OH2 8354   1.037   0.879   1.293
 2783TIP3    H1 8355   1.079   0.898   1.377
 2783TIP3    H2 8356   0.974   0.949   1.281
 2784TIP3   OH2 8357   0.368   5.107   4.435
 2784TIP3    H1 8358   0.274   5.089   4.435
 2784TIP3    H2 8359   0.406   5.041   4.377
 2785TIP3   OH2 8360   6.217   0.943   2.926
 2785TIP3    H1 8361   6.223   0.935   2.831
 2785TIP3    H2 8362   6.123   0.937   2.945
 2786TIP3   OH2 8363   3.239   5.263   4.923
 2786TIP3    H1 8364   3.260   5.330   4.989
 2786TIP3    H2 8365   3.325   5.231   4.895
 2787TIP3   OH2 8366   3.159   2.609   1.969
 2787TIP3    H1 8367   3.250   2.595   1.943
 2787TIP3    H2 8368   3.113   2.532   1.936
 2788TIP3   OH2 8369   1.973   2.121   2.827
 2788TIP3    H1 8370   1.922   2.082   2.898
 2788TIP3    H2 8371   1.983   2.050   2.763
 2789TIP3   OH2 8372   6.177   4.302   4.976
 2789TIP3    H1 8373   6.164   4.222   5.028
 2789TIP3    H2 8374   6.191   4.270   4.887
 2790TIP3   OH2 8375   5.385   0.211   2.890
 2790TIP3    H1 8376   5.414   0.302   2.887
 2790TIP3    H2 8377   5.437   0.172   2.960
 2791TIP3   OH2 8378   3.280   2.458   4.615
 2791TIP3    H1 8379   3.321   2.477   4.531
 2791TIP3    H2 8380   3.214   2.526   4.626
 2792TIP3   OH2 8381   5.036   4.445   1.484
 2792TIP3    H1 8382   5.066   4.372   1.431
 2792TIP3    H2 8383   4.986   4.405   1.555
 2793TIP3   OH2 8384   2.823   0.665   0.156
 2793TIP3    H1 8385   2.753   0.720   0.122
 2793TIP3    H2 8386   2.779   0.585   0.185
 2794TIP3   OH2 8387   1.416   5.785   2.024
 2794TIP3    H1 8388   1.509   5.767   2.014
 2794TIP3    H2 8389   1.399   5.776   2.118
 2795TIP3   OH2 8390   4.314   1.855   0.262
 2795TIP3    H1 8391   4.385   1.792   0.276
 2795TIP3    H2 8392   4.359   1.936   0.235
 2796TIP3   OH2 8393   5.912   4.451   0.058
 2796TIP3    H1 8394   5.956   4.387   0.002
 2796TIP3    H2 8395   5.977   4.474   0.125
 2797TIP3   OH2 8396   6.033   2.947   4.101
 2797TIP3    H1 8397   6.114   2.998   4.099
 2797TIP3    H2 8398   6.057   2.864   4.060
 2798TIP3   OH2 8399   0.262   0.266   2.756
 2798TIP3    H1 8400   0.187   0.294   2.703
 2798TIP3    H2 8401   0.311   0.346   2.773
 2799TIP3   OH2 8402   1.198   4.972   3.219
 2799TIP3    H1 8403   1.166   5.025   3.146
 2799TIP3    H2 8404   1.119   4.941   3.263
 2800TIP3   OH2 8405   2.445   0.816   4.788
 2800TIP3    H1 8406   2.467   0.810   4.695
 2800TIP3    H2 8407   2.529   0.834   4.831
 2801TIP3   OH2 8408   5.369   5.526   3.246
 2801TIP3    H1 8409   5.273   5.519   3.242
 2801TIP3    H2 8410   5.396   5.523   3.154
 2802TIP3   OH2 8411   3.136   2.848   4.043
 2802TIP3    H1 8412   3.142   2.938   4.076
 2802TIP3    H2 8413   3.043   2.834   4.029
 2803TIP3   OH2 8414   2.447   2.171   4.709
 2803TIP3    H1 8415   2.491   2.228   4.646
 2803TIP3    H2 8416   2.415   2.097   4.656
 2804TIP3   OH2 8417   1.719   1.119   0.139
 2804TIP3    H1 8418   1.713   1.164   0.055
 2804TIP3    H2 8419   1.796   1.062   0.130
 2805TIP3   OH2 8420   4.087   4.212   2.149
 2805TIP3    H1 8421   4.139   4.245   2.076
 2805TIP3    H2 8422   4.147   4.212   2.223
 2806TIP3   OH2 8423   4.266   3.001   1.571
 2806TIP3    H1 8424   4.264   2.906   1.555
 2806TIP3    H2 8425   4.276   3.009   1.666
 2807TIP3   OH2 8426  -0.010   4.749   1.376
 2807TIP3    H1 8427   0.081   4.732   1.349
 2807TIP3    H2 8428  -0.035   4.827   1.327
 2808TIP3   OH2 8429   1.482   3.493   2.328
 2808TIP3    H1 8430   1.480   3.571   2.383
 2808TIP3    H2 8431   1.527   3.522   2.248
 2809TIP3   OH2 8432   5.074   1.934   1.911
 2809TIP3    H1 8433   5.050   2.021   1.942
 2809TIP3    H2 8434   5.164   1.921   1.944
 2810TIP3   OH2 8435   3.777   2.316   0.091
 2810TIP3    H1 8436   3.727   2.391   0.122
 2810TIP3    H2 8437   3.808   2.342   0.004
 2811TIP3   OH2 8438   2.505   4.819   0.981
 2811TIP3    H1 8439   2.432   4.778   0.935
 2811TIP3    H2 8440   2.555   4.864   0.913
 2812TIP3   OH2 8441   5.491   3.308   1.054
 2812TIP3    H1 8442   5.502   3.361   1.133
 2812TIP3    H2 8443   5.472   3.220   1.086
 2813TIP3   OH2 8444   0.574   0.923   4.826
 2813TIP3    H1 8445   0.487   0.909   4.862
 2813TIP3    H2 8446   0.625   0.959   4.898
 2814TIP3   OH2 8447   2.309   5.605   1.304
 2814TIP3    H1 8448   2.251   5.673   1.270
 2814TIP3    H2 8449   2.393   5.622   1.262
 2815TIP3   OH2 8450   4.892   0.904   4.061
 2815TIP3    H1 8451   4.908   0.851   4.139
 2815TIP3    H2 8452   4.844   0.846   4.002
 2816TIP3   OH2 8453   3.857   1.463   1.869
 2816TIP3    H1 8454   3.869   1.530   1.937
 2816TIP3    H2 8455   3.789   1.405   1.904
 2817TIP3   OH2 8456   6.123   5.336   1.318
 2817TIP3    H1 8457   6.199   5.320   1.262
 2817TIP3    H2 8458   6.112   5.431   1.317
 2818TIP3   OH2 8459   2.734   2.398   1.571
 2818TIP3    H1 8460   2.681   2.472   1.541
 2818TIP3    H2 8461   2.779   2.431   1.649
 2819TIP3   OH2 8462   3.770   1.455   4.799
 2819TIP3    H1 8463   3.838   1.519   4.822
 2819TIP3    H2 8464   3.819   1.379   4.767
 2820TIP3   OH2 8465   2.486   1.646   3.735
 2820TIP3    H1 8466   2.426   1.665   3.663
 2820TIP3    H2 8467   2.573   1.663   3.698
 2821TIP3   OH2 8468   4.720   3.947   3.088
 2821TIP3    H1 8469   4.800   3.939   3.036
 2821TIP3    H2 8470   4.708   4.041   3.099
 2822TIP3   OH2 8471   0.408   5.761   1.125
 2822TIP3    H1 8472   0.392   5.682   1.175
 2822TIP3    H2 8473   0.376   5.832   1.181
 2823TIP3   OH2 8474   4.169   4.839   4.168
 2823TIP3    H1 8475   4.192   4.895   4.242
 2823TIP3    H2 8476   4.168   4.897   4.093
 2824TIP3   OH2 8477   4.659   1.386   4.531
 2824TIP3    H1 8478   4.566   1.408   4.539
 2824TIP3    H2 8479   4.677   1.395   4.437
 2825TIP3   OH2 8480   3.873   2.668   2.642
 2825TIP3    H1 8481   3.920   2.597   2.686
 2825TIP3    H2 8482   3.942   2.720   2.601
 2826TIP3   OH2 8483   4.063   5.666   1.392
 2826TIP3    H1 8484   4.035   5.633   1.307
 2826TIP3    H2 8485   4.013   5.614   1.455
 2827TIP3   OH2 8486   2.899   0.570   1.827
 2827TIP3    H1 8487   2.959   0.559   1.901
 2827TIP3    H2 8488   2.831   0.504   1.841
 2828TIP3   OH2 8489   0.349   4.226   3.434
 2828TIP3    H1 8490   0.399   4.156   3.477
 2828TIP3    H2 8491   0.268   4.183   3.406
 2829TIP3   OH2 8492   1.223   0.215   0.108
 2829TIP3    H1 8493   1.207   0.309   0.106
 2829TIP3    H2 8494   1.162   0.182   0.174
 2830TIP3   OH2 8495   2.250   3.824   4.374
 2830TIP3    H1 8496   2.193   3.781   4.310
 2830TIP3    H2 8497   2.267   3.910   4.336
 2831TIP3   OH2 8498   2.192   2.275   1.394
 2831TIP3    H1 8499   2.184   2.204   1.458
 2831TIP3    H2 8500   2.102   2.290   1.365
 2832TIP3   OH2 8501   2.975   1.390   3.104
 2832TIP3    H1 8502   2.923   1.382   3.184
 2832TIP3    H2 8503   3.061   1.420   3.134
 2833TIP3   OH2 8504   0.796   3.107   3.210
 2833TIP3    H1 8505   0.708   3.143   3.208
 2833TIP3    H2 8506   0.836   3.136   3.128
 2834TIP3   OH2 8507   1.721   1.031   1.132
 2834TIP3    H1 8508   1.685   1.019   1.044
 2834TIP3    H2 8509   1.769   1.114   1.127
 2835TIP3   OH2 8510   0.150   0.766   2.121
 2835TIP3    H1 8511   0.233   0.771   2.169
 2835TIP3    H2 8512   0.167   0.704   2.050
 2836TIP3   OH2 8513   4.045   5.636   0.634
 2836TIP3    H1 8514   4.108   5.648   0.563
 2836TIP3    H2 8515   4.043   5.542   0.650
 2837TIP3   OH2 8516   2.999   2.033   4.274
 2837TIP3    H1 8517   3.082   1.986   4.271
 2837TIP3    H2 8518   2.990   2.074   4.188
 2838TIP3   OH2 8519   2.647   0.733   4.483
 2838TIP3    H1 8520   2.695   0.809   4.515
 2838TIP3    H2 8521   2.702   0.698   4.413
 2839TIP3   OH2 8522   0.666   4.773   3.542
 2839TIP3    H1 8523   0.688   4.765   3.449
 2839TIP3    H2 8524   0.571   4.763   3.546
 2840TIP3   OH2 8525   4.967   4.442   1.785
 2840TIP3    H1 8526   4.996   4.355   1.812
 2840TIP3    H2 8527   4.871   4.438   1.789
 2841TIP3   OH2 8528   6.215   1.614   0.357
 2841TIP3    H1 8529   6.123   1.621   0.330
 2841TIP3    H2 8530   6.213   1.624   0.452
 2842TIP3   OH2 8531   4.909   3.056   4.459
 2842TIP3    H1 8532   4.958   3.074   4.539
 2842TIP3    H2 8533   4.920   3.134   4.405
 2843TIP3   OH2 8534   0.724   2.557   4.301
 2843TIP3    H1 8535   0.641   2.605   4.307
 2843TIP3    H2 8536   0.755   2.551   4.392
 2844TIP3   OH2 8537   0.859   2.560   2.553
 2844TIP3    H1 8538   0.872   2.615   2.475
 2844TIP3    H2 8539   0.946   2.549   2.590
 2845TIP3   OH2 8540   5.752   1.325   4.886
 2845TIP3    H1 8541   5.792   1.384   4.949
 2845TIP3    H2 8542   5.812   1.251   4.881
 2846TIP3   OH2 8543   0.039   3.302   1.906
 2846TIP3    H1 8544   0.090   3.280   1.984
 2846TIP3    H2 8545   0.001   3.388   1.924
 2847TIP3   OH2 8546   4.150   1.017   0.766
 2847TIP3    H1 8547   4.139   0.925   0.744
 2847TIP3    H2 8548   4.122   1.024   0.857
 2848TIP3   OH2 8549   2.501   3.881   0.687
 2848TIP3    H1 8550   2.527   3.867   0.779
 2848TIP3    H2 8551   2.582   3.866   0.638
 2849TIP3   OH2 8552   5.181   0.784   3.939
 2849TIP3    H1 8553   5.087   0.802   3.947
 2849TIP3    H2 8554   5.211   0.845   3.871
 2850TIP3   OH2 8555   0.168   2.114   1.219
 2850TIP3    H1 8556   0.236   2.143   1.158
 2850TIP3    H2 8557   0.098   2.080   1.163
 2851TIP3   OH2 8558   2.266   5.533   2.980
 2851TIP3    H1 8559   2.303   5.494   3.059
 2851TIP3    H2 8560   2.330   5.512   2.911
 2852TIP3   OH2 8561   5.673   0.472   1.547
 2852TIP3    H1 8562   5.578   0.464   1.537
 2852TIP3    H2 8563   5.685   0.502   1.637
 2853TIP3   OH2 8564   2.688   1.436   3.015
 2853TIP3    H1 8565   2.779   1.464   3.028
 2853TIP3    H2 8566   2.683   1.351   3.059
 2854TIP3   OH2 8567   3.289   2.744   0.994
 2854TIP3    H1 8568   3.200   2.753   0.958
 2854TIP3    H2 8569   3.291   2.807   1.066
 2855TIP3   OH2 8570   3.639   2.142   2.995
 2855TIP3    H1 8571   3.598   2.161   3.079
 2855TIP3    H2 8572   3.567   2.109   2.941
 2856TIP3   OH2 8573   3.241   3.356   2.829
 2856TIP3    H1 8574   3.316   3.405   2.795
 2856TIP3    H2 8575   3.219   3.294   2.760
 2857TIP3   OH2 8576   2.061   3.229   1.052
 2857TIP3    H1 8577   2.050   3.148   1.102
 2857TIP3    H2 8578   2.104   3.289   1.112
 2858TIP3   OH2 8579   0.290   1.878   2.646
 2858TIP3    H1 8580   0.299   1.836   2.560
 2858TIP3    H2 8581   0.203   1.851   2.676
 2859TIP3   OH2 8582   0.250   0.548   3.983
 2859TIP3    H1 8583   0.171   0.504   3.951
 2859TIP3    H2 8584   0.320   0.483   3.972
 2860TIP3   OH2 8585   5.266   3.173   4.473
 2860TIP3    H1 8586   5.233   3.116   4.403
 2860TIP3    H2 8587   5.194   3.235   4.489
 2861TIP3   OH2 8588   0.702   0.382   3.017
 2861TIP3    H1 8589   0.666   0.420   2.936
 2861TIP3    H2 8590   0.651   0.423   3.087
 2862TIP3   OH2 8591   3.555   3.151   2.478
 2862TIP3    H1 8592   3.497   3.225   2.496
 2862TIP3    H2 8593   3.516   3.107   2.403
 2863TIP3   OH2 8594   0.561   3.466   4.465
 2863TIP3    H1 8595   0.522   3.398   4.409
 2863TIP3    H2 8596   0.486   3.508   4.508
 2864TIP3   OH2 8597   0.007   3.601   3.269
 2864TIP3    H1 8598  -0.044   3.543   3.327
 2864TIP3    H2 8599   0.090   3.555   3.256
 2865TIP3   OH2 8600   5.486   3.351   5.154
 2865TIP3    H1 8601   5.538   3.278   5.187
 2865TIP3    H2 8602   5.396   3.317   5.152
 2866TIP3   OH2 8603   4.847   1.577   0.715
 2866TIP3    H1 8604   4.847   1.544   0.805
 2866TIP3    H2 8605   4.762   1.551   0.679
 2867TIP3   OH2 8606   0.974   2.357   4.670
 2867TIP3    H1 8607   0.903   2.412   4.637
 2867TIP3    H2 8608   0.992   2.295   4.600
 2868TIP3   OH2 8609   4.625   0.168   4.698
 2868TIP3    H1 8610   4.662   0.155   4.786
 2868TIP3    H2 8611   4.631   0.082   4.657
 2869TIP3   OH2 8612   4.419   3.741   4.146
 2869TIP3    H1 8613   4.455   3.733   4.234
 2869TIP3    H2 8614   4.325   3.753   4.159
 2870TIP3   OH2 8615   5.452   0.916   4.787
 2870TIP3    H1 8616   5.401   0.903   4.707
 2870TIP3    H2 8617   5.458   1.011   4.798
 2871TIP3   OH2 8618   1.523   1.862   0.119
 2871TIP3    H1 8619   1.430   1.884   0.121
 2871TIP3    H2 8620   1.525   1.768   0.101
 2872TIP3   OH2 8621   4.945   2.139   3.447
 2872TIP3    H1 8622   5.013   2.196   3.411
 2872TIP3    H2 8623   4.972   2.124   3.537
 2873TIP3   OH2 8624   0.146   4.986   3.423
 2873TIP3    H1 8625   0.123   5.056   3.362
 2873TIP3    H2 8626   0.097   4.910   3.393
 2874TIP3   OH2 8627   0.975   3.988   3.201
 2874TIP3    H1 8628   0.971   3.901   3.160
 2874TIP3    H2 8629   1.037   4.037   3.147
 2875TIP3   OH2 8630   4.922   3.140   3.510
 2875TIP3    H1 8631   4.959   3.188   3.437
 2875TIP3    H2 8632   4.827   3.148   3.499
 2876TIP3   OH2 8633   0.349   0.718   3.220
 2876TIP3    H1 8634   0.346   0.640   3.165
 2876TIP3    H2 8635   0.289   0.700   3.292
 2877TIP3   OH2 8636   4.744   0.403   4.176
 2877TIP3    H1 8637   4.791   0.445   4.248
 2877TIP3    H2 8638   4.678   0.349   4.219
 2878TIP3   OH2 8639   6.327   3.663   0.307
 2878TIP3    H1 8640   6.271   3.666   0.384
 2878TIP3    H2 8641   6.402   3.719   0.329
 2879TIP3   OH2 8642   2.894   0.903   2.826
 2879TIP3    H1 8643   2.932   0.904   2.914
 2879TIP3    H2 8644   2.811   0.855   2.836
 2880TIP3   OH2 8645   2.077   2.616   1.066
 2880TIP3    H1 8646   1.991   2.659   1.066
 2880TIP3    H2 8647   2.135   2.680   1.025
 2881TIP3   OH2 8648   1.975   5.789   2.702
 2881TIP3    H1 8649   1.981   5.695   2.721
 2881TIP3    H2 8650   2.003   5.832   2.782
 2882TIP3   OH2 8651   0.998   4.002   1.012
 2882TIP3    H1 8652   0.949   4.076   1.046
 2882TIP3    H2 8653   0.937   3.957   0.953
 2883TIP3   OH2 8654   2.313   3.720   3.250
 2883TIP3    H1 8655   2.283   3.724   3.159
 2883TIP3    H2 8656   2.357   3.635   3.257
 2884TIP3   OH2 8657   2.162   2.823   1.595
 2884TIP3    H1 8658   2.081   2.872   1.608
 2884TIP3    H2 8659   2.176   2.825   1.501
 2885TIP3   OH2 8660   2.210   3.029   3.803
 2885TIP3    H1 8661   2.250   3.054   3.886
 2885TIP3    H2 8662   2.228   2.936   3.794
 2886TIP3   OH2 8663   0.942   1.333   5.071
 2886TIP3    H1 8664   0.995   1.312   5.148
 2886TIP3    H2 8665   0.990   1.295   4.997
 2887TIP3   OH2 8666   2.411   5.134   0.728
 2887TIP3    H1 8667   2.329   5.090   0.749
 2887TIP3    H2 8668   2.477   5.086   0.778
 2888TIP3   OH2 8669   1.521   5.038   3.932
 2888TIP3    H1 8670   1.484   5.096   3.998
 2888TIP3    H2 8671   1.459   4.966   3.926
 2889TIP3   OH2 8672   6.167   5.957   2.720
 2889TIP3    H1 8673   6.107   6.027   2.698
 2889TIP3    H2 8674   6.158   5.947   2.815
 2890TIP3   OH2 8675   2.651   4.668   2.243
 2890TIP3    H1 8676   2.675   4.682   2.151
 2890TIP3    H2 8677   2.656   4.573   2.254
 2891TIP3   OH2 8678   4.108   0.292   4.379
 2891TIP3    H1 8679   4.047   0.365   4.371
 2891TIP3    H2 8680   4.119   0.260   4.289
 2892TIP3   OH2 8681   0.740   4.993   0.083
 2892TIP3    H1 8682   0.821   4.942   0.086
 2892TIP3    H2 8683   0.764   5.072   0.035
 2893TIP3   OH2 8684   2.445   0.773   1.190
 2893TIP3    H1 8685   2.538   0.791   1.199
 2893TIP3    H2 8686   2.402   0.857   1.206
 2894TIP3   OH2 8687   5.692   2.105   3.218
 2894TIP3    H1 8688   5.648   2.190   3.222
 2894TIP3    H2 8689   5.781   2.122   3.250
 2895TIP3   OH2 8690   5.463   0.813   2.760
 2895TIP3    H1 8691   5.410   0.859   2.694
 2895TIP3    H2 8692   5.403   0.798   2.833
 2896TIP3   OH2 8693   5.567   2.506   4.060
 2896TIP3    H1 8694   5.587   2.574   4.124
 2896TIP3    H2 8695   5.526   2.437   4.112
 2897TIP3   OH2 8696   5.698   3.392   2.112
 2897TIP3    H1 8697   5.785   3.377   2.075
 2897TIP3    H2 8698   5.638   3.347   2.052
 2898TIP3   OH2 8699   5.448   1.908   0.251
 2898TIP3    H1 8700   5.368   1.902   0.304
 2898TIP3    H2 8701   5.519   1.916   0.314
 2899TIP3   OH2 8702   6.077   0.964   5.080
 2899TIP3    H1 8703   6.052   0.969   5.172
 2899TIP3    H2 8704   6.077   0.870   5.060
 2900TIP3   OH2 8705   5.911   3.234   0.461
 2900TIP3    H1 8706   5.999   3.273   0.468
 2900TIP3    H2 8707   5.874   3.274   0.383
 2901TIP3   OH2 8708   2.276   5.515   3.589
 2901TIP3    H1 8709   2.204   5.566   3.551
 2901TIP3    H2 8710   2.344   5.580   3.608
 2902TIP3   OH2 8711   5.348   1.086   5.058
 2902TIP3    H1 8712   5.396   1.081   5.140
 2902TIP3    H2 8713   5.261   1.051   5.078
 2903TIP3   OH2 8714   3.844   4.920   1.370
 2903TIP3    H1 8715   3.801   4.917   1.285
 2903TIP3    H2 8716   3.839   4.830   1.403
 2904TIP3   OH2 8717   5.421   0.392   4.462
 2904TIP3    H1 8718   5.424   0.446   4.383
 2904TIP3    H2 8719   5.512   0.390   4.493
 2905TIP3   OH2 8720   0.895   4.453   3.125
 2905TIP3    H1 8721   0.985   4.450   3.094
 2905TIP3    H2 8722   0.843   4.474   3.047
 2906TIP3   OH2 8723   0.955   1.641   5.044
 2906TIP3    H1 8724   0.941   1.618   5.136
 2906TIP3    H2 8725   0.923   1.564   4.996
 2907TIP3   OH2 8726   1.607   2.054   0.928
 2907TIP3    H1 8727   1.660   1.991   0.977
 2907TIP3    H2 8728   1.649   2.138   0.945
 2908TIP3   OH2 8729   1.174   4.136   0.751
 2908TIP3    H1 8730   1.142   4.186   0.826
 2908TIP3    H2 8731   1.175   4.200   0.679
 2909TIP3   OH2 8732   2.730   3.609   5.120
 2909TIP3    H1 8733   2.811   3.660   5.112
 2909TIP3    H2 8734   2.759   3.522   5.148
 2910TIP3   OH2 8735   0.266   4.623   1.351
 2910TIP3    H1 8736   0.267   4.528   1.347
 2910TIP3    H2 8737   0.257   4.651   1.259
 2911TIP3   OH2 8738   3.829   5.746   0.445
 2911TIP3    H1 8739   3.754   5.689   0.464
 2911TIP3    H2 8740   3.896   5.719   0.508
 2912TIP3   OH2 8741   5.215   2.311   1.648
 2912TIP3    H1 8742   5.276   2.266   1.708
 2912TIP3    H2 8743   5.129   2.294   1.686
 2913TIP3   OH2 8744   3.040   5.685   3.646
 2913TIP3    H1 8745   3.084   5.733   3.575
 2913TIP3    H2 8746   3.059   5.736   3.725
 2914TIP3   OH2 8747   3.884   5.674   3.605
 2914TIP3    H1 8748   3.955   5.610   3.601
 2914TIP3    H2 8749   3.831   5.646   3.680
 2915TIP3   OH2 8750   6.158   0.319   4.824
 2915TIP3    H1 8751   6.205   0.395   4.788
 2915TIP3    H2 8752   6.071   0.353   4.846
 2916TIP3   OH2 8753   0.980   0.465   4.305
 2916TIP3    H1 8754   0.892   0.427   4.306
 2916TIP3    H2 8755   1.019   0.432   4.224
 2917TIP3   OH2 8756   2.729   3.917   1.680
 2917TIP3    H1 8757   2.687   3.991   1.637
 2917TIP3    H2 8758   2.789   3.957   1.743
 2918TIP3   OH2 8759   6.303   3.167   0.331
 2918TIP3    H1 8760   6.361   3.220   0.275
 2918TIP3    H2 8761   6.218   3.211   0.325
 2919TIP3   OH2 8762   6.210   2.419   4.043
 2919TIP3    H1 8763   6.186   2.331   4.072
 2919TIP3    H2 8764   6.218   2.412   3.947
 2920TIP3   OH2 8765   3.778   3.004   1.835
 2920TIP3    H1 8766   3.811   3.049   1.757
 2920TIP3    H2 8767   3.699   2.959   1.806
 2921TIP3   OH2 8768   2.549   5.746   2.285
 2921TIP3    H1 8769   2.584   5.761   2.373
 2921TIP3    H2 8770   2.579   5.658   2.262
 2922TIP3   OH2 8771   3.125   3.750   1.167
 2922TIP3    H1 8772   3.144   3.758   1.074
 2922TIP3    H2 8773   3.032   3.726   1.171
 2923TIP3   OH2 8774   4.081   0.341   4.734
 2923TIP3    H1 8775   4.133   0.395   4.674
 2923TIP3    H2 8776   4.145   0.309   4.798
 2924TIP3   OH2 8777   3.705   4.611   0.661
 2924TIP3    H1 8778   3.696   4.614   0.566
 2924TIP3    H2 8779   3.765   4.683   0.682
 2925TIP3   OH2 8780   4.778   1.560   1.192
 2925TIP3    H1 8781   4.836   1.535   1.265
 2925TIP3    H2 8782   4.757   1.652   1.209
 2926TIP3   OH2 8783   0.669   1.582   4.204
 2926TIP3    H1 8784   0.654   1.504   4.257
 2926TIP3    H2 8785   0.764   1.590   4.199
 2927TIP3   OH2 8786   4.128   3.745   0.789
 2927TIP3    H1 8787   4.059   3.681   0.804
 2927TIP3    H2 8788   4.127   3.760   0.694
 2928TIP3   OH2 8789   1.927   2.055   0.939
 2928TIP3    H1 8790   1.850   2.002   0.958
 2928TIP3    H2 8791   1.939   2.108   1.017
 2929TIP3   OH2 8792   2.432   2.687   3.875
 2929TIP3    H1 8793   2.427   2.753   3.944
 2929TIP3    H2 8794   2.357   2.705   3.819
 2930TIP3   OH2 8795   6.191   5.171   1.778
 2930TIP3    H1 8796   6.102   5.175   1.744
 2930TIP3    H2 8797   6.216   5.079   1.769
 2931TIP3   OH2 8798   4.393   2.613   2.567
 2931TIP3    H1 8799   4.487   2.609   2.584
 2931TIP3    H2 8800   4.384   2.676   2.495
 2932TIP3   OH2 8801   5.576   2.650   5.078
 2932TIP3    H1 8802   5.500   2.602   5.109
 2932TIP3    H2 8803   5.541   2.709   5.010
 2933TIP3   OH2 8804   4.740   5.917   3.463
 2933TIP3    H1 8805   4.780   5.994   3.503
 2933TIP3    H2 8806   4.768   5.844   3.517
 2934TIP3   OH2 8807   5.034   4.785   0.685
 2934TIP3    H1 8808   5.019   4.857   0.746
 2934TIP3    H2 8809   5.093   4.726   0.732
 2935TIP3   OH2 8810   2.788   1.673   2.076
 2935TIP3    H1 8811   2.747   1.641   2.156
 2935TIP3    H2 8812   2.827   1.757   2.101
 2936TIP3   OH2 8813   4.330   3.615   0.279
 2936TIP3    H1 8814   4.286   3.556   0.341
 2936TIP3    H2 8815   4.417   3.576   0.267
 2937TIP3   OH2 8816   3.200   1.344   4.942
 2937TIP3    H1 8817   3.286   1.347   4.985
 2937TIP3    H2 8818   3.158   1.427   4.965
 2938TIP3   OH2 8819   0.371   0.495   3.044
 2938TIP3    H1 8820   0.370   0.521   2.952
 2938TIP3    H2 8821   0.368   0.399   3.042
 2939TIP3   OH2 8822   0.572   3.050   0.174
 2939TIP3    H1 8823   0.558   3.143   0.191
 2939TIP3    H2 8824   0.624   3.020   0.249
 2940TIP3   OH2 8825   1.259   5.576   1.869
 2940TIP3    H1 8826   1.312   5.608   1.942
 2940TIP3    H2 8827   1.321   5.534   1.810
 2941TIP3   OH2 8828   1.673   3.406   0.469
 2941TIP3    H1 8829   1.690   3.499   0.488
 2941TIP3    H2 8830   1.700   3.360   0.548
 2942TIP3   OH2 8831   2.534   1.752   5.100
 2942TIP3    H1 8832   2.571   1.812   5.164
 2942TIP3    H2 8833   2.570   1.667   5.122
 2943TIP3   OH2 8834   1.563   0.892   1.310
 2943TIP3    H1 8835   1.610   0.960   1.262
 2943TIP3    H2 8836   1.500   0.858   1.247
 2944TIP3   OH2 8837   6.038   1.332   4.709
 2944TIP3    H1 8838   5.977   1.400   4.737
 2944TIP3    H2 8839   6.055   1.280   4.788
 2945TIP3   OH2 8840   5.965   2.466   1.678
 2945TIP3    H1 8841   6.038   2.404   1.685
 2945TIP3    H2 8842   5.957   2.504   1.765
 2946TIP3   OH2 8843   0.219   5.150   2.729
 2946TIP3    H1 8844   0.224   5.174   2.822
 2946TIP3    H2 8845   0.189   5.060   2.729
 2947TIP3   OH2 8846   2.965   0.139   4.300
 2947TIP3    H1 8847   2.904   0.072   4.268
 2947TIP3    H2 8848   3.007   0.173   4.221
 2948TIP3   OH2 8849   5.941   4.111   4.268
 2948TIP3    H1 8850   6.000   4.035   4.266
 2948TIP3    H2 8851   5.988   4.178   4.219
 2949TIP3   OH2 8852   4.065   0.423   0.657
 2949TIP3    H1 8853   3.971   0.403   0.652
 2949TIP3    H2 8854   4.092   0.433   0.566
 2950TIP3   OH2 8855   2.044   1.127   0.354
 2950TIP3    H1 8856   2.081   1.215   0.364
 2950TIP3    H2 8857   2.108   1.070   0.397
 2951TIP3   OH2 8858   1.151   0.937   2.224
 2951TIP3    H1 8859   1.108   0.851   2.225
 2951TIP3    H2 8860   1.121   0.977   2.142
 2952TIP3   OH2 8861   4.497   2.984   3.948
 2952TIP3    H1 8862   4.493   3.059   4.006
 2952TIP3    H2 8863   4.416   2.936   3.965
 2953TIP3   OH2 8864   2.758   5.357   2.716
 2953TIP3    H1 8865   2.798   5.359   2.629
 2953TIP3    H2 8866   2.742   5.264   2.733
 2954TIP3   OH2 8867   5.549   1.937   3.926
 2954TIP3    H1 8868   5.554   2.033   3.917
 2954TIP3    H2 8869   5.464   1.914   3.890
 2955TIP3   OH2 8870   4.915   5.565   5.050
 2955TIP3    H1 8871   4.846   5.599   5.107
 2955TIP3    H2 8872   4.997   5.589   5.094
 2956TIP3   OH2 8873   1.406   1.014   4.789
 2956TIP3    H1 8874   1.475   0.951   4.769
 2956TIP3    H2 8875   1.333   0.987   4.732
 2957TIP3   OH2 8876   6.053   0.838   1.536
 2957TIP3    H1 8877   6.043   0.752   1.495
 2957TIP3    H2 8878   5.964   0.863   1.561
 2958TIP3   OH2 8879   1.232   3.275   4.449
 2958TIP3    H1 8880   1.226   3.248   4.357
 2958TIP3    H2 8881   1.321   3.251   4.475
 2959TIP3   OH2 8882   0.169   1.566   0.412
 2959TIP3    H1 8883   0.197   1.650   0.447
 2959TIP3    H2 8884   0.243   1.508   0.427
 2960TIP3   OH2 8885   2.672   3.317   4.541
 2960TIP3    H1 8886   2.599   3.321   4.478
 2960TIP3    H2 8887   2.724   3.395   4.523
 2961TIP3   OH2 8888   5.309   2.154   3.456
 2961TIP3    H1 8889   5.257   2.213   3.401
 2961TIP3    H2 8890   5.297   2.186   3.545
 2962TIP3   OH2 8891   2.146   3.956   1.771
 2962TIP3    H1 8892   2.084   3.884   1.783
 2962TIP3    H2 8893   2.120   3.996   1.688
 2963TIP3   OH2 8894   3.934   5.297   1.392
 2963TIP3    H1 8895   4.015   5.302   1.341
 2963TIP3    H2 8896   3.867   5.270   1.329
 2964TIP3   OH2 8897   1.784   0.502   0.340
 2964TIP3    H1 8898   1.802   0.591   0.308
 2964TIP3    H2 8899   1.794   0.508   0.435
 2965TIP3   OH2 8900   3.754   3.826   0.781
 2965TIP3    H1 8901   3.758   3.920   0.793
 2965TIP3    H2 8902   3.837   3.793   0.817
 2966TIP3   OH2 8903   1.317   5.592   4.393
 2966TIP3    H1 8904   1.358   5.558   4.314
 2966TIP3    H2 8905   1.377   5.658   4.426
 2967TIP3   OH2 8906   0.198   3.434   4.865
 2967TIP3    H1 8907   0.167   3.415   4.954
 2967TIP3    H2 8908   0.173   3.526   4.850
 2968TIP3   OH2 8909   1.902   3.000   2.439
 2968TIP3    H1 8910   1.931   2.988   2.349
 2968TIP3    H2 8911   1.930   2.920   2.484
 2969TIP3   OH2 8912   5.893   4.664   4.345
 2969TIP3    H1 8913   5.862   4.747   4.382
 2969TIP3    H2 8914   5.981   4.684   4.313
 2970TIP3   OH2 8915   5.267   3.192   1.291
 2970TIP3    H1 8916   5.184   3.186   1.242
 2970TIP3    H2 8917   5.264   3.117   1.350
 2971TIP3   OH2 8918   0.790   4.769   1.832
 2971TIP3    H1 8919   0.713   4.811   1.793
 2971TIP3    H2 8920   0.755   4.689   1.873
 2972TIP3   OH2 8921   1.282   3.313   1.067
 2972TIP3    H1 8922   1.199   3.265   1.067
 2972TIP3    H2 8923   1.275   3.374   0.993
 2973TIP3   OH2 8924   6.124   0.657   2.917
 2973TIP3    H1 8925   6.066   0.706   2.975
 2973TIP3    H2 8926   6.212   0.682   2.945
 2974TIP3   OH2 8927   1.447   0.427   2.419
 2974TIP3    H1 8928   1.381   0.429   2.489
 2974TIP3    H2 8929   1.397   0.409   2.340
 2975TIP3   OH2 8930   1.617   3.834   4.911
 2975TIP3    H1 8931   1.671   3.800   4.982
 2975TIP3    H2 8932   1.550   3.766   4.898
 2976TIP3   OH2 8933   0.295   5.616   0.661
 2976TIP3    H1 8934   0.266   5.542   0.716
 2976TIP3    H2 8935   0.248   5.604   0.579
 2977TIP3   OH2 8936   3.735   4.185   0.327
 2977TIP3    H1 8937   3.800   4.247   0.362
 2977TIP3    H2 8938   3.758   4.101   0.367
 2978TIP3   OH2 8939   5.351   5.150   0.959
 2978TIP3    H1 8940   5.383   5.158   0.869
 2978TIP3    H2 8941   5.339   5.056   0.972
 2979TIP3   OH2 8942   5.805   0.882   1.669
 2979TIP3    H1 8943   5.762   0.796   1.674
 2979TIP3    H2 8944   5.793   0.920   1.756
 2980TIP3   OH2 8945   0.973   4.327   4.400
 2980TIP3    H1 8946   0.943   4.260   4.338
 2980TIP3    H2 8947   0.914   4.401   4.386
 2981TIP3   OH2 8948   2.185   4.884   4.631
 2981TIP3    H1 8949   2.111   4.929   4.672
 2981TIP3    H2 8950   2.219   4.945   4.567
 2982TIP3   OH2 8951   0.638   4.924   1.036
 2982TIP3    H1 8952   0.580   4.891   0.968
 2982TIP3    H2 8953   0.618   4.870   1.112
 2983TIP3   OH2 8954   3.587   4.486   2.912
 2983TIP3    H1 8955   3.614   4.545   2.982
 2983TIP3    H2 8956   3.638   4.407   2.925
 2984TIP3   OH2 8957   3.092   5.002   2.375
 2984TIP3    H1 8958   3.188   4.993   2.380
 2984TIP3    H2 8959   3.059   4.916   2.400
 2985TIP3   OH2 8960   6.142   1.238   2.111
 2985TIP3    H1 8961   6.101   1.306   2.057
 2985TIP3    H2 8962   6.171   1.172   2.049
 2986TIP3   OH2 8963   3.715   2.260   2.042
 2986TIP3    H1 8964   3.738   2.299   2.126
 2986TIP3    H2 8965   3.738   2.167   2.052
 2987TIP3   OH2 8966   5.851   3.408   2.938
 2987TIP3    H1 8967   5.912   3.338   2.916
 2987TIP3    H2 8968   5.901   3.466   2.995
 2988TIP3   OH2 8969   5.707   1.679   0.156
 2988TIP3    H1 8970   5.705   1.775   0.158
 2988TIP3    H2 8971   5.630   1.653   0.205
 2989TIP3   OH2 8972   4.167   3.824   2.434
 2989TIP3    H1 8973   4.127   3.891   2.489
 2989TIP3    H2 8974   4.108   3.818   2.358
 2990TIP3   OH2 8975   0.452   5.723   2.591
 2990TIP3    H1 8976   0.417   5.659   2.654
 2990TIP3    H2 8977   0.463   5.803   2.642
 2991TIP3   OH2 8978  -0.012   0.537   4.786
 2991TIP3    H1 8979   0.040   0.498   4.716
 2991TIP3    H2 8980   0.047   0.599   4.828
 2992TIP3   OH2 8981   2.364   1.275   2.563
 2992TIP3    H1 8982   2.447   1.313   2.591
 2992TIP3    H2 8983   2.344   1.318   2.480
 2993TIP3   OH2 8984   3.205   2.655   1.672
 2993TIP3    H1 8985   3.268   2.587   1.649
 2993TIP3    H2 8986   3.224   2.675   1.764
 2994TIP3   OH2 8987   1.743   4.404   1.201
 2994TIP3    H1 8988   1.738   4.493   1.236
 2994TIP3    H2 8989   1.659   4.392   1.156
 2995TIP3   OH2 8990   0.009   0.362   1.040
 2995TIP3    H1 8991   0.054   0.370   1.124
 2995TIP3    H2 8992  -0.001   0.267   1.027
 2996TIP3   OH2 8993   0.091   3.005   0.690
 2996TIP3    H1 8994   0.079   3.073   0.757
 2996TIP3    H2 8995   0.167   3.034   0.639
 2997TIP3   OH2 8996   0.993   5.832   2.346
 2997TIP3    H1 8997   0.935   5.857   2.418
 2997TIP3    H2 8998   1.009   5.913   2.298
 2998TIP3   OH2 8999   5.623   1.867   2.717
 2998TIP3    H1 9000   5.575   1.838   2.639
 2998TIP3    H2 9001   5.569   1.936   2.754
 2999TIP3   OH2 9002   1.779   0.226   1.050
 2999TIP3    H1 9003   1.812   0.182   0.972
 2999TIP3    H2 9004   1.690   0.191   1.061
 3000TIP3   OH2 9005   2.877   5.270   4.950
 3000TIP3    H1 9006   2.793   5.229   4.929
 3000TIP3    H2 9007   2.920   5.206   5.007
 3001TIP3   OH2 9008   1.017   3.344   4.888
 3001TIP3    H1 9009   0.931   3.384   4.901
 3001TIP3    H2 9010   1.005   3.252   4.912
 3002TIP3   OH2 9011   6.267   2.224   4.851
 3002TIP3    H1 9012   6.183   2.178   4.842
 3002TIP3    H2 9013   6.301   2.195   4.936
 3003TIP3   OH2 9014   6.208   1.481   3.686
 3003TIP3    H1 9015   6.157   1.472   3.605
 3003TIP3    H2 9016   6.216   1.392   3.720
 3004TIP3   OH2 9017   4.829   1.741   0.295
 3004TIP3    H1 9018   4.825   1.830   0.260
 3004TIP3    H2 9019   4.879   1.691   0.229
 3005TIP3   OH2 9020   1.444   2.513   0.108
 3005TIP3    H1 9021   1.489   2.493   0.190
 3005TIP3    H2 9022   1.458   2.606   0.094
 3006TIP3   OH2 9023   5.221   4.345   0.833
 3006TIP3    H1 9024   5.289   4.292   0.792
 3006TIP3    H2 9025   5.265   4.392   0.904
 3007TIP3   OH2 9026   4.143   2.917   0.663
 3007TIP3    H1 9027   4.061   2.869   0.651
 3007TIP3    H2 9028   4.136   2.993   0.605
 3008TIP3   OH2 9029   0.325   3.086   4.245
 3008TIP3    H1 9030   0.390   3.137   4.293
 3008TIP3    H2 9031   0.370   3.061   4.163
 3009TIP3   OH2 9032   4.253   0.615   3.905
 3009TIP3    H1 9033   4.249   0.709   3.925
 3009TIP3    H2 9034   4.239   0.573   3.990
 3010TIP3   OH2 9035   1.467   3.000   2.503
 3010TIP3    H1 9036   1.502   3.001   2.592
 3010TIP3    H2 9037   1.411   2.923   2.499
 3011TIP3   OH2 9038   0.042   5.034   3.941
 3011TIP3    H1 9039  -0.052   5.049   3.953
 3011TIP3    H2 9040   0.056   5.045   3.847
 3012TIP3   OH2 9041   0.380   1.323   2.824
 3012TIP3    H1 9042   0.328   1.244   2.808
 3012TIP3    H2 9043   0.469   1.290   2.837
 3013TIP3   OH2 9044   4.819   0.595   0.795
 3013TIP3    H1 9045   4.859   0.628   0.875
 3013TIP3    H2 9046   4.760   0.525   0.824
 3014TIP3   OH2 9047   5.674   0.508   4.636
 3014TIP3    H1 9048   5.605   0.541   4.693
 3014TIP3    H2 9049   5.717   0.439   4.687
 3015TIP3   OH2 9050   5.150   0.868   0.357
 3015TIP3    H1 9051   5.156   0.773   0.361
 3015TIP3    H2 9052   5.175   0.891   0.268
 3016TIP3   OH2 9053   3.378   2.031   0.551
 3016TIP3    H1 9054   3.317   1.960   0.532
 3016TIP3    H2 9055   3.444   1.992   0.609
 3017TIP3   OH2 9056   5.498   4.499   0.283
 3017TIP3    H1 9057   5.459   4.546   0.209
 3017TIP3    H2 9058   5.547   4.428   0.242
 3018TIP3   OH2 9059   4.399   0.083   3.286
 3018TIP3    H1 9060   4.355   0.107   3.205
 3018TIP3    H2 9061   4.491   0.070   3.260
 3019TIP3   OH2 9062   3.537   3.620   4.397
 3019TIP3    H1 9063   3.556   3.562   4.471
 3019TIP3    H2 9064   3.452   3.659   4.419
 3020TIP3   OH2 9065   4.095   0.741   0.721
 3020TIP3    H1 9066   4.086   0.647   0.735
 3020TIP3    H2 9067   4.012   0.768   0.680
 3021TIP3   OH2 9068   2.633   2.447   4.752
 3021TIP3    H1 9069   2.575   2.411   4.685
 3021TIP3    H2 9070   2.670   2.526   4.712
 3022TIP3   OH2 9071   3.103   2.314   4.417
 3022TIP3    H1 9072   3.167   2.385   4.415
 3022TIP3    H2 9073   3.148   2.239   4.378
 3023TIP3   OH2 9074   0.122   2.376   1.076
 3023TIP3    H1 9075   0.215   2.394   1.094
 3023TIP3    H2 9076   0.108   2.409   0.987
 3024TIP3   OH2 9077   0.491   5.029   3.969
 3024TIP3    H1 9078   0.493   5.096   4.039
 3024TIP3    H2 9079   0.517   5.077   3.890
 3025TIP3   OH2 9080   3.924   0.635   3.092
 3025TIP3    H1 9081   3.860   0.568   3.117
 3025TIP3    H2 9082   3.914   0.703   3.157
 3026TIP3   OH2 9083   5.538   4.815   1.712
 3026TIP3    H1 9084   5.450   4.805   1.676
 3026TIP3    H2 9085   5.595   4.771   1.649
 3027TIP3   OH2 9086   0.111   5.705   4.877
 3027TIP3    H1 9087   0.110   5.625   4.823
 3027TIP3    H2 9088   0.204   5.725   4.889
 3028TIP3   OH2 9089   1.287   3.880   3.861
 3028TIP3    H1 9090   1.365   3.831   3.834
 3028TIP3    H2 9091   1.303   3.902   3.953
 3029TIP3   OH2 9092   1.137   1.589   3.677
 3029TIP3    H1 9093   1.059   1.643   3.687
 3029TIP3    H2 9094   1.205   1.636   3.727
 3030TIP3   OH2 9095   1.296   0.934   1.927
 3030TIP3    H1 9096   1.237   0.977   1.865
 3030TIP3    H2 9097   1.249   0.854   1.952
 3031TIP3   OH2 9098   5.026   5.897   2.489
 3031TIP3    H1 9099   5.034   5.976   2.543
 3031TIP3    H2 9100   5.114   5.880   2.458
 3032TIP3   OH2 9101   1.877   0.283   0.673
 3032TIP3    H1 9102   1.894   0.215   0.738
 3032TIP3    H2 9103   1.844   0.357   0.723
 3033TIP3   OH2 9104   2.493   3.307   1.086
 3033TIP3    H1 9105   2.522   3.220   1.057
 3033TIP3    H2 9106   2.572   3.348   1.121
 3034TIP3   OH2 9107   6.047   3.383   4.892
 3034TIP3    H1 9108   5.985   3.442   4.936
 3034TIP3    H2 9109   5.991   3.321   4.845
 3035TIP3   OH2 9110   2.196   5.216   4.037
 3035TIP3    H1 9111   2.174   5.308   4.049
 3035TIP3    H2 9112   2.222   5.209   3.945
 3036TIP3   OH2 9113   1.044   3.423   4.144
 3036TIP3    H1 9114   1.008   3.473   4.218
 3036TIP3    H2 9115   1.099   3.485   4.097
 3037TIP3   OH2 9116   3.497   3.930   3.983
 3037TIP3    H1 9117   3.405   3.938   4.008
 3037TIP3    H2 9118   3.544   3.924   4.066
 3038TIP3   OH2 9119   2.802   3.342   2.903
 3038TIP3    H1 9120   2.863   3.268   2.910
 3038TIP3    H2 9121   2.769   3.354   2.992
 3039TIP3   OH2 9122   4.515   5.038   1.850
 3039TIP3    H1 9123   4.530   4.950   1.816
 3039TIP3    H2 9124   4.424   5.037   1.881
 3040TIP3   OH2 9125   3.353   2.104   1.021
 3040TIP3    H1 9126   3.414   2.161   0.975
 3040TIP3    H2 9127   3.273   2.156   1.029
 3041TIP3   OH2 9128   5.719   1.794   3.229
 3041TIP3    H1 9129   5.701   1.883   3.259
 3041TIP3    H2 9130   5.652   1.776   3.163
 3042TIP3   OH2 9131   1.817   5.793   3.252
 3042TIP3    H1 9132   1.730   5.754   3.241
 3042TIP3    H2 9133   1.874   5.720   3.274
 3043TIP3   OH2 9134   5.249   0.741   3.513
 3043TIP3    H1 9135   5.273   0.680   3.443
 3043TIP3    H2 9136   5.176   0.791   3.477
 3044TIP3   OH2 9137   0.510   4.378   1.812
 3044TIP3    H1 9138   0.418   4.381   1.787
 3044TIP3    H2 9139   0.523   4.290   1.847
 3045TIP3   OH2 9140   4.716   2.840   3.806
 3045TIP3    H1 9141   4.678   2.855   3.719
 3045TIP3    H2 9142   4.670   2.900   3.864
 3046TIP3   OH2 9143   5.956   0.164   4.403
 3046TIP3    H1 9144   6.045   0.178   4.434
 3046TIP3    H2 9145   5.921   0.253   4.390
 3047TIP3   OH2 9146   3.539   3.286   3.558
 3047TIP3    H1 9147   3.529   3.288   3.653
 3047TIP3    H2 9148   3.450   3.293   3.523
 3048TIP3   OH2 9149   2.884   1.458   1.054
 3048TIP3    H1 9150   2.802   1.442   1.100
 3048TIP3    H2 9151   2.942   1.387   1.081
 3049TIP3   OH2 9152   2.778   2.775   3.431
 3049TIP3    H1 9153   2.822   2.713   3.373
 3049TIP3    H2 9154   2.798   2.861   3.394
 3050TIP3   OH2 9155   5.289   1.353   3.391
 3050TIP3    H1 9156   5.368   1.302   3.407
 3050TIP3    H2 9157   5.273   1.400   3.473
 3051TIP3   OH2 9158   2.794   5.719   4.904
 3051TIP3    H1 9159   2.720   5.704   4.963
 3051TIP3    H2 9160   2.839   5.795   4.941
 3052TIP3   OH2 9161   5.169   0.276   2.358
 3052TIP3    H1 9162   5.260   0.271   2.326
 3052TIP3    H2 9163   5.174   0.241   2.447
 3053TIP3   OH2 9164   6.313   5.488   1.542
 3053TIP3    H1 9165   6.256   5.495   1.618
 3053TIP3    H2 9166   6.258   5.447   1.475
 3054TIP3   OH2 9167   0.113   1.503   3.849
 3054TIP3    H1 9168   0.037   1.548   3.813
 3054TIP3    H2 9169   0.160   1.471   3.772
 3055TIP3   OH2 9170   4.090   5.564   0.156
 3055TIP3    H1 9171   4.051   5.517   0.083
 3055TIP3    H2 9172   4.162   5.508   0.185
 3056TIP3   OH2 9173   4.798   0.439   2.036
 3056TIP3    H1 9174   4.870   0.500   2.017
 3056TIP3    H2 9175   4.830   0.385   2.107
 3057TIP3   OH2 9176   5.991   3.836   3.100
 3057TIP3    H1 9177   6.051   3.840   3.025
 3057TIP3    H2 9178   6.040   3.875   3.172
 3058TIP3   OH2 9179   6.190   4.063   5.099
 3058TIP3    H1 9180   6.270   4.047   5.050
 3058TIP3    H2 9181   6.153   3.976   5.115
 3059TIP3   OH2 9182   2.364   5.433   0.373
 3059TIP3    H1 9183   2.286   5.481   0.402
 3059TIP3    H2 9184   2.433   5.461   0.433
 3060TIP3   OH2 9185   5.279   4.705   1.212
 3060TIP3    H1 9186   5.216   4.757   1.262
 3060TIP3    H2 9187   5.339   4.669   1.278
 3061TIP3   OH2 9188   4.432   3.752   0.570
 3061TIP3    H1 9189   4.488   3.828   0.585
 3061TIP3    H2 9190   4.477   3.702   0.503
 3062TIP3   OH2 9191   1.416   1.886   2.578
 3062TIP3    H1 9192   1.509   1.876   2.556
 3062TIP3    H2 9193   1.374   1.908   2.495
 3063TIP3   OH2 9194   4.860   5.128   1.132
 3063TIP3    H1 9195   4.954   5.136   1.115
 3063TIP3    H2 9196   4.841   5.197   1.195
 3064TIP3   OH2 9197   4.104   4.581   4.129
 3064TIP3    H1 9198   4.168   4.546   4.067
 3064TIP3    H2 9199   4.127   4.674   4.138
 3065TIP3   OH2 9200   0.404   3.626   4.590
 3065TIP3    H1 9201   0.486   3.657   4.628
 3065TIP3    H2 9202   0.357   3.706   4.567
 3066TIP3   OH2 9203   3.327   1.148   1.220
 3066TIP3    H1 9204   3.401   1.111   1.172
 3066TIP3    H2 9205   3.368   1.209   1.282
 3067TIP3   OH2 9206   5.863   4.996   4.994
 3067TIP3    H1 9207   5.804   5.021   5.065
 3067TIP3    H2 9208   5.806   4.953   4.930
 3068TIP3   OH2 9209   4.378   4.182   0.905
 3068TIP3    H1 9210   4.363   4.257   0.847
 3068TIP3    H2 9211   4.403   4.111   0.846
 3069TIP3   OH2 9212   1.634   4.440   2.612
 3069TIP3    H1 9213   1.699   4.457   2.544
 3069TIP3    H2 9214   1.604   4.350   2.595
 3070TIP3   OH2 9215   1.718   1.903   4.560
 3070TIP3    H1 9216   1.778   1.958   4.610
 3070TIP3    H2 9217   1.631   1.927   4.592
 3071TIP3   OH2 9218   6.259   5.400   4.802
 3071TIP3    H1 9219   6.354   5.397   4.792
 3071TIP3    H2 9220   6.226   5.398   4.713
 3072TIP3   OH2 9221   5.434   4.012   5.005
 3072TIP3    H1 9222   5.527   4.001   5.024
 3072TIP3    H2 9223   5.420   3.965   4.923
 3073TIP3   OH2 9224   0.860   3.462   4.653
 3073TIP3    H1 9225   0.935   3.514   4.623
 3073TIP3    H2 9226   0.877   3.374   4.619
 3074TIP3   OH2 9227   0.005   4.098   3.134
 3074TIP3    H1 9228   0.093   4.113   3.168
 3074TIP3    H2 9229   0.008   4.011   3.096
 3075TIP3   OH2 9230   3.403   3.991   2.401
 3075TIP3    H1 9231   3.370   3.995   2.311
 3075TIP3    H2 9232   3.472   4.058   2.404
 3076TIP3   OH2 9233   3.954   2.729   0.984
 3076TIP3    H1 9234   3.967   2.734   1.079
 3076TIP3    H2 9235   3.997   2.647   0.959
 3077TIP3   OH2 9236   4.632   2.999   1.084
 3077TIP3    H1 9237   4.544   2.966   1.103
 3077TIP3    H2 9238   4.652   3.058   1.157
 3078TIP3   OH2 9239   2.424   4.231   2.227
 3078TIP3    H1 9240   2.462   4.305   2.178
 3078TIP3    H2 9241   2.499   4.187   2.266
 3079TIP3   OH2 9242   3.368   0.817   0.639
 3079TIP3    H1 9243   3.300   0.864   0.591
 3079TIP3    H2 9244   3.390   0.743   0.584
 3080TIP3   OH2 9245   4.677   0.350   3.907
 3080TIP3    H1 9246   4.694   0.353   4.002
 3080TIP3    H2 9247   4.729   0.276   3.876
 3081TIP3   OH2 9248   3.327   5.306   3.557
 3081TIP3    H1 9249   3.342   5.303   3.651
 3081TIP3    H2 9250   3.299   5.396   3.540
 3082TIP3   OH2 9251   2.068   3.917   0.712
 3082TIP3    H1 9252   2.028   3.925   0.799
 3082TIP3    H2 9253   2.058   3.824   0.690
 3083TIP3   OH2 9254   0.657   3.303   2.967
 3083TIP3    H1 9255   0.624   3.383   2.926
 3083TIP3    H2 9256   0.709   3.334   3.042
 3084TIP3   OH2 9257   4.906   3.485   3.646
 3084TIP3    H1 9258   4.892   3.448   3.559
 3084TIP3    H2 9259   5.001   3.489   3.656
 3085TIP3   OH2 9260   2.981   0.196   3.622
 3085TIP3    H1 9261   3.068   0.170   3.653
 3085TIP3    H2 9262   2.940   0.114   3.596
 3086TIP3   OH2 9263   1.130   4.018   2.016
 3086TIP3    H1 9264   1.089   3.963   1.950
 3086TIP3    H2 9265   1.058   4.042   2.075
 3087TIP3   OH2 9266   2.844   2.266   1.319
 3087TIP3    H1 9267   2.893   2.191   1.353
 3087TIP3    H2 9268   2.824   2.318   1.397
 3088TIP3   OH2 9269   0.283   0.323   1.803
 3088TIP3    H1 9270   0.308   0.302   1.893
 3088TIP3    H2 9271   0.262   0.238   1.763
 3089TIP3   OH2 9272   1.097   5.704   2.579
 3089TIP3    H1 9273   1.050   5.737   2.503
 3089TIP3    H2 9274   1.135   5.621   2.550
 3090TIP3   OH2 9275   4.535   5.853   2.675
 3090TIP3    H1 9276   4.609   5.900   2.714
 3090TIP3    H2 9277   4.468   5.855   2.743
 3091TIP3   OH2 9278   4.696   0.519   0.027
 3091TIP3    H1 9279   4.683   0.529   0.121
 3091TIP3    H2 9280   4.689   0.425   0.011
 3092TIP3   OH2 9281   4.020   3.258   2.587
 3092TIP3    H1 9282   4.071   3.245   2.668
 3092TIP3    H2 9283   4.060   3.334   2.546
 3093TIP3   OH2 9284   4.868   4.026   0.202
 3093TIP3    H1 9285   4.891   4.118   0.217
 3093TIP3    H2 9286   4.779   4.017   0.236
 3094TIP3   OH2 9287   2.470   5.963   4.263
 3094TIP3    H1 9288   2.475   5.878   4.307
 3094TIP3    H2 9289   2.553   6.006   4.284
 3095TIP3   OH2 9290   4.310   2.725   1.544
 3095TIP3    H1 9291   4.234   2.679   1.510
 3095TIP3    H2 9292   4.322   2.689   1.632
 3096TIP3   OH2 9293   3.455   4.687   2.779
 3096TIP3    H1 9294   3.443   4.757   2.843
 3096TIP3    H2 9295   3.508   4.622   2.825
 3097TIP3   OH2 9296   3.765   3.078   3.904
 3097TIP3    H1 9297   3.689   3.079   3.845
 3097TIP3    H2 9298   3.837   3.047   3.849
 3098TIP3   OH2 9299   4.978   5.940   4.576
 3098TIP3    H1 9300   5.033   5.905   4.646
 3098TIP3    H2 9301   5.016   6.025   4.556
 3099TIP3   OH2 9302   1.310   2.699   3.430
 3099TIP3    H1 9303   1.285   2.762   3.497
 3099TIP3    H2 9304   1.368   2.748   3.371
 3100TIP3   OH2 9305   3.283   3.782   1.809
 3100TIP3    H1 9306   3.298   3.796   1.715
 3100TIP3    H2 9307   3.190   3.801   1.822
 3101TIP3   OH2 9308   5.393   5.607   4.537
 3101TIP3    H1 9309   5.425   5.697   4.531
 3101TIP3    H2 9310   5.314   5.612   4.590
 3102TIP3   OH2 9311   3.213   2.332   2.981
 3102TIP3    H1 9312   3.181   2.410   2.935
 3102TIP3    H2 9313   3.300   2.317   2.945
 3103TIP3   OH2 9314   4.291   5.584   2.200
 3103TIP3    H1 9315   4.335   5.614   2.279
 3103TIP3    H2 9316   4.286   5.662   2.144
 3104TIP3   OH2 9317   3.911   5.780   3.118
 3104TIP3    H1 9318   3.949   5.867   3.107
 3104TIP3    H2 9319   3.866   5.763   3.034
 3105TIP3   OH2 9320   3.960   3.541   0.806
 3105TIP3    H1 9321   4.004   3.475   0.859
 3105TIP3    H2 9322   3.928   3.494   0.730
 3106TIP3   OH2 9323   5.928   5.487   1.563
 3106TIP3    H1 9324   5.955   5.558   1.505
 3106TIP3    H2 9325   5.944   5.408   1.512
 3107TIP3   OH2 9326   5.273   4.236   4.409
 3107TIP3    H1 9327   5.337   4.308   4.403
 3107TIP3    H2 9328   5.188   4.278   4.399
 3108TIP3   OH2 9329   0.362   5.578   2.357
 3108TIP3    H1 9330   0.362   5.632   2.435
 3108TIP3    H2 9331   0.357   5.488   2.389
 3109TIP3   OH2 9332   3.865   2.235   4.533
 3109TIP3    H1 9333   3.891   2.274   4.616
 3109TIP3    H2 9334   3.878   2.141   4.546
 3110TIP3   OH2 9335   0.068   4.832   0.540
 3110TIP3    H1 9336  -0.002   4.885   0.579
 3110TIP3    H2 9337   0.057   4.844   0.446
 3111TIP3   OH2 9338   5.181   4.568   2.940
 3111TIP3    H1 9339   5.123   4.555   2.865
 3111TIP3    H2 9340   5.269   4.558   2.903
 3112TIP3   OH2 9341   0.316   0.405   4.735
 3112TIP3    H1 9342   0.376   0.395   4.660
 3112TIP3    H2 9343   0.275   0.490   4.722
 3113TIP3   OH2 9344   0.838   0.704   1.401
 3113TIP3    H1 9345   0.871   0.635   1.458
 3113TIP3    H2 9346   0.914   0.759   1.383
 3114TIP3   OH2 9347   4.949   5.686   2.655
 3114TIP3    H1 9348   5.003   5.701   2.578
 3114TIP3    H2 9349   4.899   5.767   2.665
 3115TIP3   OH2 9350   5.204   5.201   0.095
 3115TIP3    H1 9351   5.153   5.216   0.016
 3115TIP3    H2 9352   5.152   5.239   0.165
 3116TIP3   OH2 9353   0.438   4.864   0.868
 3116TIP3    H1 9354   0.372   4.919   0.910
 3116TIP3    H2 9355   0.426   4.880   0.774
 3117TIP3   OH2 9356   5.978   1.717   0.293
 3117TIP3    H1 9357   5.969   1.655   0.220
 3117TIP3    H2 9358   5.961   1.803   0.254
 3118TIP3   OH2 9359   3.642   4.628   1.092
 3118TIP3    H1 9360   3.622   4.537   1.111
 3118TIP3    H2 9361   3.565   4.677   1.121
 3119TIP3   OH2 9362   2.711   3.935   1.211
 3119TIP3    H1 9363   2.684   3.945   1.120
 3119TIP3    H2 9364   2.730   4.024   1.241
 3120TIP3   OH2 9365   6.194   3.146   3.561
 3120TIP3    H1 9366   6.252   3.223   3.562
 3120TIP3    H2 9367   6.209   3.104   3.646
 3121TIP3   OH2 9368   3.399   5.606   1.709
 3121TIP3    H1 9369   3.392   5.578   1.800
 3121TIP3    H2 9370   3.485   5.574   1.680
 3122TIP3   OH2 9371   0.256   3.243   1.695
 3122TIP3    H1 9372   0.190   3.252   1.626
 3122TIP3    H2 9373   0.220   3.293   1.769
 3123TIP3   OH2 9374   3.294   0.913   1.360
 3123TIP3    H1 9375   3.308   0.968   1.283
 3123TIP3    H2 9376   3.226   0.958   1.410
 3124TIP3   OH2 9377   4.916   0.075   1.355
 3124TIP3    H1 9378   4.923   0.080   1.451
 3124TIP3    H2 9379   5.006   0.083   1.325
 3125TIP3   OH2 9380   0.588   4.980   2.302
 3125TIP3    H1 9381   0.621   5.016   2.219
 3125TIP3    H2 9382   0.503   4.941   2.279
 3126TIP3   OH2 9383   0.657   3.595   3.013
 3126TIP3    H1 9384   0.731   3.556   3.060
 3126TIP3    H2 9385   0.604   3.635   3.082
 3127TIP3   OH2 9386   5.116   2.121   1.206
 3127TIP3    H1 9387   5.151   2.077   1.284
 3127TIP3    H2 9388   5.104   2.212   1.233
 3128TIP3   OH2 9389   1.199   3.100   2.655
 3128TIP3    H1 9390   1.270   3.131   2.712
 3128TIP3    H2 9391   1.154   3.034   2.708
 3129TIP3   OH2 9392   1.883   5.034   3.001
 3129TIP3    H1 9393   1.877   4.984   2.920
 3129TIP3    H2 9394   1.797   5.076   3.009
 3130TIP3   OH2 9395   4.814   1.454   1.793
 3130TIP3    H1 9396   4.758   1.523   1.829
 3130TIP3    H2 9397   4.752   1.388   1.762
 3131TIP3   OH2 9398   6.080   1.665   0.909
 3131TIP3    H1 9399   6.081   1.704   0.997
 3131TIP3    H2 9400   5.988   1.666   0.884
 3132TIP3   OH2 9401   2.389   5.545   2.526
 3132TIP3    H1 9402   2.359   5.463   2.488
 3132TIP3    H2 9403   2.472   5.563   2.482
 3133TIP3   OH2 9404   6.238   3.046   2.286
 3133TIP3    H1 9405   6.240   3.138   2.259
 3133TIP3    H2 9406   6.162   3.040   2.344
 3134TIP3   OH2 9407   4.510   4.415   3.245
 3134TIP3    H1 9408   4.433   4.460   3.210
 3134TIP3    H2 9409   4.483   4.390   3.334
 3135TIP3   OH2 9410   3.866   3.739   3.134
 3135TIP3    H1 9411   3.852   3.721   3.227
 3135TIP3    H2 9412   3.779   3.763   3.101
 3136TIP3   OH2 9413   3.287   2.808   0.451
 3136TIP3    H1 9414   3.332   2.797   0.534
 3136TIP3    H2 9415   3.296   2.901   0.430
 3137TIP3   OH2 9416   4.914   0.183   2.507
 3137TIP3    H1 9417   5.004   0.168   2.536
 3137TIP3    H2 9418   4.863   0.181   2.587
 3138TIP3   OH2 9419   1.813   1.526   4.029
 3138TIP3    H1 9420   1.741   1.542   4.090
 3138TIP3    H2 9421   1.892   1.531   4.084
 3139TIP3   OH2 9422   0.731   3.237   3.810
 3139TIP3    H1 9423   0.697   3.150   3.830
 3139TIP3    H2 9424   0.716   3.247   3.716
 3140TIP3   OH2 9425   0.118   0.119   0.066
 3140TIP3    H1 9426   0.190   0.182   0.064
 3140TIP3    H2 9427   0.051   0.162   0.119
 3141TIP3   OH2 9428   2.645   0.922   0.557
 3141TIP3    H1 9429   2.740   0.926   0.547
 3141TIP3    H2 9430   2.629   0.835   0.594
 3142TIP3   OH2 9431   0.843   0.187   2.873
 3142TIP3    H1 9432   0.786   0.114   2.898
 3142TIP3    H2 9433   0.796   0.265   2.903
 3143TIP3   OH2 9434   2.883   5.779   3.133
 3143TIP3    H1 9435   2.864   5.686   3.119
 3143TIP3    H2 9436   2.817   5.808   3.197
 3144TIP3   OH2 9437   2.480   4.921   2.766
 3144TIP3    H1 9438   2.516   4.981   2.701
 3144TIP3    H2 9439   2.425   4.976   2.822
 3145TIP3   OH2 9440   0.373   5.038   1.265
 3145TIP3    H1 9441   0.437   4.969   1.245
 3145TIP3    H2 9442   0.402   5.073   1.349
 3146TIP3   OH2 9443   1.863   4.789   1.558
 3146TIP3    H1 9444   1.852   4.862   1.498
 3146TIP3    H2 9445   1.912   4.723   1.507
 3147TIP3   OH2 9446   3.288   0.774   5.013
 3147TIP3    H1 9447   3.372   0.758   5.055
 3147TIP3    H2 9448   3.294   0.863   4.978
 3148TIP3   OH2 9449   5.539   5.876   1.856
 3148TIP3    H1 9450   5.622   5.830   1.869
 3148TIP3    H2 9451   5.492   5.866   1.938
 3149TIP3   OH2 9452   0.957   1.581   0.110
 3149TIP3    H1 9453   0.862   1.567   0.119
 3149TIP3    H2 9454   0.979   1.644   0.178
 3150TIP3   OH2 9455   3.538   5.933   2.671
 3150TIP3    H1 9456   3.554   6.026   2.692
 3150TIP3    H2 9457   3.456   5.913   2.715
 3151TIP3   OH2 9458   6.255   1.243   1.544
 3151TIP3    H1 9459   6.234   1.313   1.605
 3151TIP3    H2 9460   6.311   1.183   1.593
 3152TIP3   OH2 9461   4.656   3.234   1.718
 3152TIP3    H1 9462   4.600   3.274   1.784
 3152TIP3    H2 9463   4.738   3.215   1.763
 3153TIP3   OH2 9464   0.636   0.761   4.271
 3153TIP3    H1 9465   0.663   0.809   4.194
 3153TIP3    H2 9466   0.671   0.811   4.345
 3154TIP3   OH2 9467   4.708   4.534   3.970
 3154TIP3    H1 9468   4.792   4.515   4.010
 3154TIP3    H2 9469   4.661   4.584   4.036
 3155TIP3   OH2 9470   2.167   0.033   0.511
 3155TIP3    H1 9471   2.120  -0.029   0.566
 3155TIP3    H2 9472   2.148   0.005   0.421
 3156TIP3   OH2 9473   1.521   4.205   2.499
 3156TIP3    H1 9474   1.477   4.270   2.445
 3156TIP3    H2 9475   1.537   4.131   2.440
 3157TIP3   OH2 9476   3.585   2.094   0.021
 3157TIP3    H1 9477   3.639   2.161   0.063
 3157TIP3    H2 9478   3.568   2.030   0.090
 3158TIP3   OH2 9479   3.294   0.779   0.119
 3158TIP3    H1 9480   3.324   0.862   0.083
 3158TIP3    H2 9481   3.207   0.798   0.155
 3159TIP3   OH2 9482   3.256   3.280   1.861
 3159TIP3    H1 9483   3.193   3.308   1.794
 3159TIP3    H2 9484   3.335   3.330   1.842
 3160TIP3   OH2 9485   2.505   5.774   1.196
 3160TIP3    H1 9486   2.454   5.799   1.119
 3160TIP3    H2 9487   2.587   5.823   1.186
 3161TIP3   OH2 9488   2.841   3.220   1.468
 3161TIP3    H1 9489   2.877   3.136   1.496
 3161TIP3    H2 9490   2.775   3.241   1.534
 3162TIP3   OH2 9491   1.026   0.785   0.421
 3162TIP3    H1 9492   0.959   0.836   0.376
 3162TIP3    H2 9493   1.106   0.800   0.371
 3163TIP3   OH2 9494   4.586   3.279   2.802
 3163TIP3    H1 9495   4.512   3.261   2.859
 3163TIP3    H2 9496   4.569   3.227   2.723
 3164TIP3   OH2 9497   5.866   0.080   1.749
 3164TIP3    H1 9498   5.812   0.080   1.827
 3164TIP3    H2 9499   5.839   0.002   1.700
 3165TIP3   OH2 9500   1.037   3.710   3.618
 3165TIP3    H1 9501   1.027   3.789   3.564
 3165TIP3    H2 9502   1.018   3.740   3.707
 3166TIP3   OH2 9503   1.168   3.631   3.382
 3166TIP3    H1 9504   1.166   3.650   3.476
 3166TIP3    H2 9505   1.091   3.676   3.347
 3167TIP3   OH2 9506   0.805   1.042   1.297
 3167TIP3    H1 9507   0.773   1.062   1.385
 3167TIP3    H2 9508   0.727   1.014   1.249
 3168TIP3   OH2 9509   5.772   0.113   4.030
 3168TIP3    H1 9510   5.865   0.101   4.049
 3168TIP3    H2 9511   5.745   0.186   4.085
 3169TIP3   OH2 9512   0.378   4.872   3.504
 3169TIP3    H1 9513   0.327   4.936   3.454
 3169TIP3    H2 9514   0.343   4.787   3.478
 3170TIP3   OH2 9515   3.594   3.081   4.501
 3170TIP3    H1 9516   3.539   3.112   4.573
 3170TIP3    H2 9517   3.663   3.147   4.494
 3171TIP3   OH2 9518   4.481   1.867   3.867
 3171TIP3    H1 9519   4.536   1.866   3.788
 3171TIP3    H2 9520   4.540   1.843   3.938
 3172TIP3   OH2 9521   0.901   3.000   0.713
 3172TIP3    H1 9522   0.965   3.070   0.706
 3172TIP3    H2 9523   0.842   3.013   0.639
 3173TIP3   OH2 9524   0.572   1.634   3.275
 3173TIP3    H1 9525   0.582   1.602   3.186
 3173TIP3    H2 9526   0.560   1.729   3.266
 3174TIP3   OH2 9527   5.155   3.854   3.367
 3174TIP3    H1 9528   5.249   3.836   3.371
 3174TIP3    H2 9529   5.129   3.860   3.459
 3175TIP3   OH2 9530   4.845   5.560   3.362
 3175TIP3    H1 9531   4.828   5.465   3.363
 3175TIP3    H2 9532   4.854   5.583   3.454
 3176TIP3   OH2 9533   5.251   5.161   3.614
 3176TIP3    H1 9534   5.189   5.088   3.612
 3176TIP3    H2 9535   5.337   5.119   3.606
 3177TIP3   OH2 9536   0.491   3.265   2.109
 3177TIP3    H1 9537   0.455   3.182   2.077
 3177TIP3    H2 9538   0.563   3.240   2.166
 3178TIP3   OH2 9539   3.175   1.106   3.435
 3178TIP3    H1 9540   3.117   1.106   3.512
 3178TIP3    H2 9541   3.116   1.116   3.360
 3179TIP3   OH2 9542   2.727   4.685   0.053
 3179TIP3    H1 9543   2.756   4.691  -0.038
 3179TIP3    H2 9544   2.635   4.658   0.048
 3180TIP3   OH2 9545   3.193   4.599   1.788
 3180TIP3    H1 9546   3.260   4.572   1.849
 3180TIP3    H2 9547   3.234   4.669   1.737
 3181TIP3   OH2 9548   4.822   5.738   1.593
 3181TIP3    H1 9549   4.811   5.686   1.673
 3181TIP3    H2 9550   4.783   5.823   1.615
 3182TIP3   OH2 9551   4.206   0.508   0.118
 3182TIP3    H1 9552   4.269   0.461   0.064
 3182TIP3    H2 9553   4.240   0.597   0.122
 3183TIP3   OH2 9554   0.372   5.542   1.271
 3183TIP3    H1 9555   0.308   5.550   1.342
 3183TIP3    H2 9556   0.337   5.473   1.214
 3184TIP3   OH2 9557   1.445   5.150   4.750
 3184TIP3    H1 9558   1.369   5.124   4.803
 3184TIP3    H2 9559   1.516   5.095   4.783
 3185TIP3   OH2 9560   3.789   0.279   0.621
 3185TIP3    H1 9561   3.803   0.218   0.693
 3185TIP3    H2 9562   3.741   0.352   0.659
 3186TIP3   OH2 9563   1.536   2.939   1.447
 3186TIP3    H1 9564   1.513   2.970   1.535
 3186TIP3    H2 9565   1.459   2.958   1.393
 3187TIP3   OH2 9566   4.331   1.453   4.276
 3187TIP3    H1 9567   4.313   1.464   4.182
 3187TIP3    H2 9568   4.426   1.463   4.283
 3188TIP3   OH2 9569   0.654   5.399   0.691
 3188TIP3    H1 9570   0.747   5.383   0.678
 3188TIP3    H2 9571   0.610   5.342   0.627
 3189TIP3   OH2 9572   6.094   3.421   0.744
 3189TIP3    H1 9573   6.139   3.369   0.678
 3189TIP3    H2 9574   6.095   3.510   0.710
 3190TIP3   OH2 9575   5.626   0.304   4.863
 3190TIP3    H1 9576   5.623   0.214   4.831
 3190TIP3    H2 9577   5.541   0.319   4.903
 3191TIP3   OH2 9578   4.514   2.757   1.384
 3191TIP3    H1 9579   4.487   2.776   1.294
 3191TIP3    H2 9580   4.433   2.752   1.433
 3192TIP3   OH2 9581   3.362   4.687   3.996
 3192TIP3    H1 9582   3.425   4.630   4.038
 3192TIP3    H2 9583   3.357   4.764   4.053
 3193TIP3   OH2 9584   3.911   5.926   1.227
 3193TIP3    H1 9585   3.890   6.019   1.226
 3193TIP3    H2 9586   3.869   5.893   1.306
 3194TIP3   OH2 9587   4.845   4.676   4.282
 3194TIP3    H1 9588   4.838   4.652   4.190
 3194TIP3    H2 9589   4.850   4.593   4.329
 3195TIP3   OH2 9590   1.451   5.365   1.235
 3195TIP3    H1 9591   1.391   5.425   1.190
 3195TIP3    H2 9592   1.502   5.325   1.164
 3196TIP3   OH2 9593   1.804   4.953   2.202
 3196TIP3    H1 9594   1.726   4.936   2.149
 3196TIP3    H2 9595   1.866   4.884   2.177
 3197TIP3   OH2 9596   5.807   2.619   1.534
 3197TIP3    H1 9597   5.839   2.538   1.575
 3197TIP3    H2 9598   5.712   2.605   1.525
 3198TIP3   OH2 9599   0.564   5.839   2.137
 3198TIP3    H1 9600   0.480   5.832   2.091
 3198TIP3    H2 9601   0.589   5.931   2.128
 3199TIP3   OH2 9602   2.462   2.738   0.400
 3199TIP3    H1 9603   2.401   2.673   0.366
 3199TIP3    H2 9604   2.456   2.811   0.340
 3200TIP3   OH2 9605   2.672   2.723   2.068
 3200TIP3    H1 9606   2.681   2.649   2.128
 3200TIP3    H2 9607   2.758   2.765   2.068
 3201TIP3   OH2 9608   1.486   4.546   0.632
 3201TIP3    H1 9609   1.414   4.575   0.577
 3201TIP3    H2 9610   1.530   4.478   0.580
 3202TIP3   OH2 9611   5.022   0.927   2.294
 3202TIP3    H1 9612   4.961   0.859   2.323
 3202TIP3    H2 9613   5.010   0.931   2.199
 3203TIP3   OH2 9614   1.896   4.041   0.331
 3203TIP3    H1 9615   1.966   4.101   0.354
 3203TIP3    H2 9616   1.930   3.954   0.354
 3204TIP3   OH2 9617   4.264   4.184   4.054
 3204TIP3    H1 9618   4.349   4.140   4.053
 3204TIP3    H2 9619   4.277   4.261   4.108
 3205TIP3   OH2 9620   3.905   5.639   1.630
 3205TIP3    H1 9621   3.947   5.660   1.713
 3205TIP3    H2 9622   3.944   5.556   1.603
 3206TIP3   OH2 9623   4.601   4.386   1.160
 3206TIP3    H1 9624   4.570   4.307   1.206
 3206TIP3    H2 9625   4.567   4.459   1.213
 3207TIP3   OH2 9626   2.093   0.784   1.432
 3207TIP3    H1 9627   2.070   0.719   1.367
 3207TIP3    H2 9628   2.040   0.861   1.410
 3208TIP3   OH2 9629   6.170   5.104   3.718
 3208TIP3    H1 9630   6.231   5.045   3.673
 3208TIP3    H2 9631   6.092   5.106   3.663
 3209TIP3   OH2 9632   2.999   1.602   0.451
 3209TIP3    H1 9633   3.047   1.526   0.420
 3209TIP3    H2 9634   2.956   1.572   0.531
 3210TIP3   OH2 9635   2.984   0.086   2.950
 3210TIP3    H1 9636   2.895   0.060   2.972
 3210TIP3    H2 9637   2.977   0.125   2.863
 3211TIP3   OH2 9638   1.925   0.900   3.658
 3211TIP3    H1 9639   1.841   0.936   3.626
 3211TIP3    H2 9640   1.974   0.977   3.686
 3212TIP3   OH2 9641   5.424   4.657   0.068
 3212TIP3    H1 9642   5.390   4.735   0.113
 3212TIP3    H2 9643   5.519   4.668   0.071
 3213TIP3   OH2 9644  -0.026   3.883   2.658
 3213TIP3    H1 9645  -0.016   3.977   2.677
 3213TIP3    H2 9646   0.055   3.858   2.615
 3214TIP3   OH2 9647   5.540   1.524   3.906
 3214TIP3    H1 9648   5.565   1.432   3.897
 3214TIP3    H2 9649   5.559   1.545   3.997
 3215TIP3   OH2 9650   0.947   5.801   1.965
 3215TIP3    H1 9651   0.926   5.771   1.876
 3215TIP3    H2 9652   0.893   5.746   2.022
 3216TIP3   OH2 9653   3.297   2.670   3.390
 3216TIP3    H1 9654   3.263   2.581   3.380
 3216TIP3    H2 9655   3.246   2.723   3.329
 3217TIP3   OH2 9656   6.275   3.839   1.967
 3217TIP3    H1 9657   6.220   3.916   1.958
 3217TIP3    H2 9658   6.289   3.808   1.877
 3218TIP3   OH2 9659   5.422   2.000   4.867
 3218TIP3    H1 9660   5.341   1.965   4.906
 3218TIP3    H2 9661   5.475   1.922   4.850
 3219TIP3   OH2 9662   3.842   5.671   0.182
 3219TIP3    H1 9663   3.842   5.733   0.255
 3219TIP3    H2 9664   3.928   5.629   0.187
 3220TIP3   OH2 9665   5.782   2.834   2.065
 3220TIP3    H1 9666   5.745   2.759   2.019
 3220TIP3    H2 9667   5.851   2.866   2.008
 3221TIP3   OH2 9668   5.207   3.413   4.787
 3221TIP3    H1 9669   5.300   3.435   4.783
 3221TIP3    H2 9670   5.162   3.497   4.778
 3222TIP3   OH2 9671   4.976   5.116   3.231
 3222TIP3    H1 9672   4.898   5.072   3.195
 3222TIP3    H2 9673   5.005   5.174   3.161
 3223TIP3   OH2 9674   5.188   1.183   4.568
 3223TIP3    H1 9675   5.229   1.197   4.654
 3223TIP3    H2 9676   5.158   1.270   4.541
 3224TIP3   OH2 9677   0.606   4.205   1.194
 3224TIP3    H1 9678   0.574   4.278   1.245
 3224TIP3    H2 9679   0.534   4.142   1.193
 3225TIP3   OH2 9680   1.841   5.006   3.286
 3225TIP3    H1 9681   1.805   4.919   3.270
 3225TIP3    H2 9682   1.876   5.033   3.201
 3226TIP3   OH2 9683   5.136   0.968   3.736
 3226TIP3    H1 9684   5.088   1.011   3.806
 3226TIP3    H2 9685   5.095   1.001   3.656
 3227TIP3   OH2 9686   3.061   0.097   0.078
 3227TIP3    H1 9687   3.107   0.018   0.048
 3227TIP3    H2 9688   3.094   0.167   0.021
 3228TIP3   OH2 9689   0.890   5.426   3.599
 3228TIP3    H1 9690   0.841   5.508   3.604
 3228TIP3    H2 9691   0.902   5.400   3.690
 3229TIP3   OH2 9692   1.718   4.743   3.259
 3229TIP3    H1 9693   1.660   4.694   3.317
 3229TIP3    H2 9694   1.799   4.693   3.258
 3230TIP3   OH2 9695   6.123   1.524   2.996
 3230TIP3    H1 9696   6.082   1.606   3.027
 3230TIP3    H2 9697   6.067   1.496   2.924
 3231TIP3   OH2 9698   4.260   4.711   2.469
 3231TIP3    H1 9699   4.281   4.716   2.376
 3231TIP3    H2 9700   4.231   4.800   2.492
 3232TIP3   OH2 9701   3.990   1.012   0.978
 3232TIP3    H1 9702   4.063   0.960   1.012
 3232TIP3    H2 9703   3.913   0.959   0.994
 3233TIP3   OH2 9704   0.314   3.081   0.559
 3233TIP3    H1 9705   0.324   3.171   0.528
 3233TIP3    H2 9706   0.402   3.055   0.586
 3234TIP3   OH2 9707   2.758   4.460   4.753
 3234TIP3    H1 9708   2.753   4.450   4.657
 3234TIP3    H2 9709   2.755   4.371   4.787
 3235TIP3   OH2 9710   2.902   0.675   4.620
 3235TIP3    H1 9711   2.981   0.621   4.615
 3235TIP3    H2 9712   2.831   0.613   4.633
 3236TIP3   OH2 9713   2.477   3.267   3.897
 3236TIP3    H1 9714   2.564   3.228   3.889
 3236TIP3    H2 9715   2.430   3.209   3.955
 3237TIP3   OH2 9716   3.036   2.854   4.345
 3237TIP3    H1 9717   2.966   2.818   4.291
 3237TIP3    H2 9718   3.050   2.941   4.310
 3238TIP3   OH2 9719   4.268   3.698   1.910
 3238TIP3    H1 9720   4.349   3.699   1.859
 3238TIP3    H2 9721   4.296   3.703   2.001
 3239TIP3   OH2 9722   2.921   1.427   4.791
 3239TIP3    H1 9723   2.832   1.438   4.825
 3239TIP3    H2 9724   2.952   1.346   4.831
 3240TIP3   OH2 9725   5.344   2.074   2.030
 3240TIP3    H1 9726   5.334   2.161   2.067
 3240TIP3    H2 9727   5.336   2.015   2.104
 3241TIP3   OH2 9728   3.967   0.508   4.246
 3241TIP3    H1 9729   3.943   0.584   4.299
 3241TIP3    H2 9730   3.891   0.493   4.190
 3242TIP3   OH2 9731   5.899   3.749   0.723
 3242TIP3    H1 9732   5.824   3.697   0.695
 3242TIP3    H2 9733   5.975   3.707   0.683
 3243TIP3   OH2 9734   6.107   1.674   3.893
 3243TIP3    H1 9735   6.131   1.601   3.836
 3243TIP3    H2 9736   6.022   1.650   3.929
 3244TIP3   OH2 9737   0.239   3.862   1.381
 3244TIP3    H1 9738   0.160   3.900   1.342
 3244TIP3    H2 9739   0.212   3.774   1.407
 3245TIP3   OH2 9740   2.485   4.306   0.477
 3245TIP3    H1 9741   2.426   4.375   0.447
 3245TIP3    H2 9742   2.563   4.353   0.509
 3246TIP3   OH2 9743   6.121   4.959   4.718
 3246TIP3    H1 9744   6.126   4.998   4.805
 3246TIP3    H2 9745   6.110   5.034   4.659
 3247TIP3   OH2 9746   1.192   3.320   2.012
 3247TIP3    H1 9747   1.224   3.409   2.026
 3247TIP3    H2 9748   1.097   3.329   2.008
 3248TIP3   OH2 9749   3.004   0.466   3.069
 3248TIP3    H1 9750   2.974   0.555   3.083
 3248TIP3    H2 9751   3.049   0.442   3.150
 3249TIP3   OH2 9752   3.492   3.911   1.405
 3249TIP3    H1 9753   3.454   3.999   1.407
 3249TIP3    H2 9754   3.479   3.880   1.316
 3250TIP3   OH2 9755   4.372   2.267   3.142
 3250TIP3    H1 9756   4.347   2.182   3.179
 3250TIP3    H2 9757   4.456   2.287   3.183
 3251TIP3   OH2 9758   4.370   5.938   2.107
 3251TIP3    H1 9759   4.346   5.968   2.019
 3251TIP3    H2 9760   4.307   5.980   2.165
 3252TIP3   OH2 9761   1.238   5.684   4.693
 3252TIP3    H1 9762   1.145   5.681   4.674
 3252TIP3    H2 9763   1.274   5.606   4.651
 3253TIP3   OH2 9764   5.096   5.461   2.038
 3253TIP3    H1 9765   5.049   5.488   1.959
 3253TIP3    H2 9766   5.083   5.534   2.099
 3254TIP3   OH2 9767   4.496   1.113   1.872
 3254TIP3    H1 9768   4.475   1.058   1.947
 3254TIP3    H2 9769   4.434   1.088   1.804
 3255TIP3   OH2 9770   2.790   5.985   0.782
 3255TIP3    H1 9771   2.720   5.935   0.739
 3255TIP3    H2 9772   2.863   5.924   0.788
 3256TIP3   OH2 9773   2.122   5.433   0.819
 3256TIP3    H1 9774   2.201   5.429   0.872
 3256TIP3    H2 9775   2.128   5.357   0.761
 3257TIP3   OH2 9776   4.498   5.024   5.021
 3257TIP3    H1 9777   4.530   5.108   5.053
 3257TIP3    H2 9778   4.543   5.011   4.937
 3258TIP3   OH2 9779   1.164   4.056   4.282
 3258TIP3    H1 9780   1.116   3.980   4.315
 3258TIP3    H2 9781   1.215   4.086   4.358
 3259TIP3   OH2 9782   5.564   2.202   0.382
 3259TIP3    H1 9783   5.502   2.262   0.339
 3259TIP3    H2 9784   5.650   2.228   0.349
 3260TIP3   OH2 9785   3.277   0.261   3.782
 3260TIP3    H1 9786   3.280   0.166   3.775
 3260TIP3    H2 9787   3.329   0.281   3.860
 3261TIP3   OH2 9788   1.204   4.237   4.499
 3261TIP3    H1 9789   1.275   4.301   4.500
 3261TIP3    H2 9790   1.132   4.282   4.456
 3262TIP3   OH2 9791   1.394   0.479   3.921
 3262TIP3    H1 9792   1.390   0.476   3.826
 3262TIP3    H2 9793   1.487   0.467   3.942
 3263TIP3   OH2 9794   0.649   5.583   1.355
 3263TIP3    H1 9795   0.558   5.553   1.352
 3263TIP3    H2 9796   0.698   5.509   1.390
 3264TIP3   OH2 9797   2.856   4.502   4.455
 3264TIP3    H1 9798   2.925   4.439   4.477
 3264TIP3    H2 9799   2.776   4.449   4.448
 3265TIP3   OH2 9800   3.714   4.671   3.143
 3265TIP3    H1 9801   3.746   4.610   3.208
 3265TIP3    H2 9802   3.668   4.739   3.193
 3266TIP3   OH2 9803   3.342   1.608   4.230
 3266TIP3    H1 9804   3.339   1.577   4.321
 3266TIP3    H2 9805   3.274   1.675   4.225
 3267TIP3   OH2 9806   4.876   4.091   1.235
 3267TIP3    H1 9807   4.949   4.032   1.254
 3267TIP3    H2 9808   4.905   4.141   1.159
 3268TIP3   OH2 9809   5.184   1.980   5.016
 3268TIP3    H1 9810   5.194   1.977   5.111
 3268TIP3    H2 9811   5.127   1.906   4.995
 3269TIP3   OH2 9812   4.229   1.785   5.000
 3269TIP3    H1 9813   4.314   1.817   5.029
 3269TIP3    H2 9814   4.202   1.725   5.070
 3270TIP3   OH2 9815   2.523   5.205   4.515
 3270TIP3    H1 9816   2.607   5.238   4.548
 3270TIP3    H2 9817   2.544   5.118   4.481
 3271TIP3   OH2 9818   1.479   1.849   3.675
 3271TIP3    H1 9819   1.521   1.935   3.680
 3271TIP3    H2 9820   1.465   1.834   3.582
 3272TIP3   OH2 9821   1.830   4.296   2.982
 3272TIP3    H1 9822   1.842   4.390   2.999
 3272TIP3    H2 9823   1.874   4.282   2.898
 3273TIP3   OH2 9824   0.416   0.620   3.564
 3273TIP3    H1 9825   0.329   0.635   3.528
 3273TIP3    H2 9826   0.444   0.537   3.527
 3274TIP3   OH2 9827   5.979   5.896   3.782
 3274TIP3    H1 9828   5.928   5.869   3.706
 3274TIP3    H2 9829   6.030   5.818   3.805
 3275TIP3   OH2 9830   4.515   5.775   4.368
 3275TIP3    H1 9831   4.548   5.759   4.280
 3275TIP3    H2 9832   4.578   5.837   4.406
 3276TIP3   OH2 9833   3.655   4.233   0.978
 3276TIP3    H1 9834   3.622   4.292   1.046
 3276TIP3    H2 9835   3.581   4.220   0.919
 3277TIP3   OH2 9836   1.954   1.615   3.352
 3277TIP3    H1 9837   2.034   1.658   3.324
 3277TIP3    H2 9838   1.889   1.640   3.286
 3278TIP3   OH2 9839   0.075   2.979   5.139
 3278TIP3    H1 9840   0.052   2.886   5.139
 3278TIP3    H2 9841   0.022   3.016   5.210
 3279TIP3   OH2 9842   2.869   3.669   3.490
 3279TIP3    H1 9843   2.788   3.709   3.457
 3279TIP3    H2 9844   2.932   3.681   3.419
 3280TIP3   OH2 9845   2.018   0.619   1.210
 3280TIP3    H1 9846   1.944   0.655   1.162
 3280TIP3    H2 9847   2.074   0.580   1.143
 3281TIP3   OH2 9848   6.347   4.406   0.885
 3281TIP3    H1 9849   6.301   4.489   0.872
 3281TIP3    H2 9850   6.294   4.359   0.950
 3282TIP3   OH2 9851   2.660   2.585   1.833
 3282TIP3    H1 9852   2.748   2.547   1.836
 3282TIP3    H2 9853   2.649   2.627   1.918
 3283TIP3   OH2 9854   0.949   3.742   3.915
 3283TIP3    H1 9855   0.937   3.725   4.008
 3283TIP3    H2 9856   0.866   3.716   3.875
 3284TIP3   OH2 9857   0.801   4.587   0.617
 3284TIP3    H1 9858   0.760   4.673   0.621
 3284TIP3    H2 9859   0.889   4.600   0.651
 3285TIP3   OH2 9860   4.411   4.372   2.560
 3285TIP3    H1 9861   4.325   4.333   2.544
 3285TIP3    H2 9862   4.444   4.394   2.473
 3286TIP3   OH2 9863   0.721   5.782   3.090
 3286TIP3    H1 9864   0.659   5.838   3.045
 3286TIP3    H2 9865   0.793   5.840   3.115
 3287TIP3   OH2 9866   3.725   3.272   4.114
 3287TIP3    H1 9867   3.801   3.330   4.115
 3287TIP3    H2 9868   3.738   3.218   4.036
 3288TIP3   OH2 9869   6.119   3.292   2.887
 3288TIP3    H1 9870   6.198   3.281   2.834
 3288TIP3    H2 9871   6.082   3.204   2.893
 3289TIP3   OH2 9872   2.216   4.082   3.854
 3289TIP3    H1 9873   2.200   4.034   3.773
 3289TIP3    H2 9874   2.278   4.028   3.902
 3290TIP3   OH2 9875   5.154   1.108   2.072
 3290TIP3    H1 9876   5.064   1.137   2.082
 3290TIP3    H2 9877   5.197   1.176   2.021
 3291TIP3   OH2 9878   0.436   5.700   5.066
 3291TIP3    H1 9879   0.512   5.712   5.123
 3291TIP3    H2 9880   0.442   5.771   5.002
 3292TIP3   OH2 9881   0.571   5.891   2.411
 3292TIP3    H1 9882   0.501   5.848   2.459
 3292TIP3    H2 9883   0.569   5.850   2.324
 3293TIP3   OH2 9884   2.178   4.110   2.252
 3293TIP3    H1 9885   2.268   4.140   2.241
 3293TIP3    H2 9886   2.150   4.146   2.336
 3294TIP3   OH2 9887   0.200   4.176   1.870
 3294TIP3    H1 9888   0.204   4.254   1.816
 3294TIP3    H2 9889   0.187   4.104   1.808
 3295TIP3   OH2 9890   4.227   4.040   5.161
 3295TIP3    H1 9891   4.291   3.986   5.115
 3295TIP3    H2 9892   4.193   4.099   5.093
 3296TIP3   OH2 9893   2.980   0.309   0.247
 3296TIP3    H1 9894   3.060   0.339   0.290
 3296TIP3    H2 9895   3.010   0.243   0.184
 3297TIP3   OH2 9896   4.233   1.846   3.320
 3297TIP3    H1 9897   4.276   1.894   3.250
 3297TIP3    H2 9898   4.302   1.794   3.361
 3298TIP3   OH2 9899   3.272   3.835   0.918
 3298TIP3    H1 9900   3.298   3.743   0.922
 3298TIP3    H2 9901   3.245   3.849   0.828
 3299TIP3   OH2 9902   5.327   0.290   1.413
 3299TIP3    H1 9903   5.367   0.338   1.340
 3299TIP3    H2 9904   5.301   0.358   1.475
 3300TIP3   OH2 9905   2.282   1.433   2.921
 3300TIP3    H1 9906   2.287   1.469   2.833
 3300TIP3    H2 9907   2.312   1.343   2.912
 3301TIP3   OH2 9908   4.482   5.683   0.182
 3301TIP3    H1 9909   4.552   5.621   0.205
 3301TIP3    H2 9910   4.521   5.740   0.116
 3302TIP3   OH2 9911   3.722   1.270   3.246
 3302TIP3    H1 9912   3.645   1.222   3.278
 3302TIP3    H2 9913   3.688   1.357   3.224
 3303TIP3   OH2 9914   3.849   2.028   4.027
 3303TIP3    H1 9915   3.896   2.035   4.110
 3303TIP3    H2 9916   3.821   2.117   4.007
 3304TIP3   OH2 9917   4.169   5.289   1.223
 3304TIP3    H1 9918   4.231   5.341   1.171
 3304TIP3    H2 9919   4.217   5.269   1.304
 3305TIP3   OH2 9920   1.854   1.799   3.521
 3305TIP3    H1 9921   1.899   1.730   3.473
 3305TIP3    H2 9922   1.862   1.773   3.613
 3306TIP3   OH2 9923   4.791   2.905   0.067
 3306TIP3    H1 9924   4.767   2.988   0.026
 3306TIP3    H2 9925   4.887   2.905   0.067
 3307TIP3   OH2 9926   3.448   3.158   4.695
 3307TIP3    H1 9927   3.445   3.070   4.733
 3307TIP3    H2 9928   3.419   3.216   4.766
 3308TIP3   OH2 9929   5.595   5.513   0.896
 3308TIP3    H1 9930   5.505   5.545   0.897
 3308TIP3    H2 9931   5.622   5.514   0.988
 3309TIP3   OH2 9932   3.866   3.389   2.125
 3309TIP3    H1 9933   3.786   3.353   2.085
 3309TIP3    H2 9934   3.875   3.341   2.208
 3310TIP3   OH2 9935   0.076   3.692   4.768
 3310TIP3    H1 9936   0.089   3.787   4.765
 3310TIP3    H2 9937  -0.014   3.679   4.739
 3311TIP3   OH2 9938  -0.001   3.813   1.153
 3311TIP3    H1 9939   0.002   3.795   1.059
 3311TIP3    H2 9940   0.021   3.905   1.162
 3312TIP3   OH2 9941   0.247   1.152   0.868
 3312TIP3    H1 9942   0.236   1.129   0.960
 3312TIP3    H2 9943   0.242   1.248   0.867
 3313TIP3   OH2 9944   0.702   0.374   0.020
 3313TIP3    H1 9945   0.636   0.350  -0.044
 3313TIP3    H2 9946   0.740   0.290   0.049
 3314TIP3   OH2 9947   2.513   2.661   3.464
 3314TIP3    H1 9948   2.500   2.611   3.545
 3314TIP3    H2 9949   2.607   2.681   3.464
 3315TIP3   OH2 9950   5.498   0.813   1.987
 3315TIP3    H1 9951   5.431   0.858   2.037
 3315TIP3    H2 9952   5.458   0.731   1.960
 3316TIP3   OH2 9953   3.103   3.696   1.453
 3316TIP3    H1 9954   3.036   3.628   1.458
 3316TIP3    H2 9955   3.088   3.737   1.368
 3317TIP3   OH2 9956   4.664   1.040   0.292
 3317TIP3    H1 9957   4.721   1.079   0.358
 3317TIP3    H2 9958   4.723   1.008   0.224
 3318TIP3   OH2 9959   1.404   5.158   3.711
 3318TIP3    H1 9960   1.456   5.117   3.781
 3318TIP3    H2 9961   1.433   5.115   3.631
 3319TIP3   OH2 9962   2.398   4.661   2.647
 3319TIP3    H1 9963   2.422   4.753   2.649
 3319TIP3    H2 9964   2.444   4.623   2.723
 3320TIP3   OH2 9965   1.043   3.983   3.827
 3320TIP3    H1 9966   0.993   3.918   3.877
 3320TIP3    H2 9967   1.134   3.958   3.840
 3321TIP3   OH2 9968   3.717   0.414   1.393
 3321TIP3    H1 9969   3.737   0.363   1.472
 3321TIP3    H2 9970   3.623   0.433   1.401
 3322TIP3   OH2 9971   2.322   1.967   0.093
 3322TIP3    H1 9972   2.341   1.991   0.003
 3322TIP3    H2 9973   2.292   2.049   0.134
 3323TIP3   OH2 9974   5.807   2.489   1.919
 3323TIP3    H1 9975   5.814   2.418   1.855
 3323TIP3    H2 9976   5.749   2.552   1.878
 3324TIP3   OH2 9977   0.907   3.246   4.453
 3324TIP3    H1 9978   0.986   3.204   4.417
 3324TIP3    H2 9979   0.861   3.175   4.499
 3325TIP3   OH2 9980   2.332   1.126   4.514
 3325TIP3    H1 9981   2.353   1.215   4.487
 3325TIP3    H2 9982   2.335   1.129   4.610
 3326TIP3   OH2 9983   0.573   4.183   5.170
 3326TIP3    H1 9984   0.638   4.177   5.101
 3326TIP3    H2 9985   0.599   4.117   5.234
 3327TIP3   OH2 9986   3.171   0.052   3.193
 3327TIP3    H1 9987   3.214   0.128   3.233
 3327TIP3    H2 9988   3.129   0.087   3.114
 3328TIP3   OH2 9989   5.716   3.029   1.052
 3328TIP3    H1 9990   5.779   3.067   1.114
 3328TIP3    H2 9991   5.640   3.006   1.106
 3329TIP3   OH2 9992   4.739   3.862   2.367
 3329TIP3    H1 9993   4.716   3.769   2.365
 3329TIP3    H2 9994   4.726   3.888   2.458
 3330TIP3   OH2 9995   5.227   3.649   0.926
 3330TIP3    H1 9996   5.151   3.689   0.969
 3330TIP3    H2 9997   5.224   3.557   0.955
 3331TIP3   OH2 9998   2.074   4.629   2.685
 3331TIP3    H1 9999   2.076   4.698   2.619
 3331TIP3    H210000   2.166   4.609   2.702
 3332TIP3   OH210001   1.525   3.842   1.029
 3332TIP3    H110002   1.452   3.790   0.993
 3332TIP3    H210003   1.603   3.790   1.011
 3333TIP3   OH210004   3.439   5.342   4.532
 3333TIP3    H110005   3.525   5.383   4.536
 3333TIP3    H210006   3.446   5.265   4.588
 3334TIP3   OH210007   5.372   5.810   3.243
 3334TIP3    H110008   5.438   5.740   3.241
 3334TIP3    H210009   5.288   5.764   3.240
 3335TIP3   OH210010   6.098   0.734   4.852
 3335TIP3    H110011   6.066   0.810   4.803
 3335TIP3    H210012   6.181   0.712   4.811
 3336TIP3   OH210013   6.266   3.894   0.106
 3336TIP3    H110014   6.219   3.812   0.125
 3336TIP3    H210015   6.297   3.924   0.191
 3337TIP3   OH210016   1.538   0.090   0.455
 3337TIP3    H110017   1.510   0.067   0.366
 3337TIP3    H210018   1.493   0.172   0.473
 3338TIP3   OH210019   4.304   1.975   1.483
 3338TIP3    H110020   4.319   2.024   1.402
 3338TIP3    H210021   4.369   1.904   1.481
 3339TIP3   OH210022   3.580   0.845   3.982
 3339TIP3    H110023   3.616   0.837   4.070
 3339TIP3    H210024   3.624   0.776   3.931
 3340TIP3   OH210025   0.794   0.551   5.025
 3340TIP3    H110026   0.747   0.607   5.086
 3340TIP3    H210027   0.739   0.473   5.017
 3341TIP3   OH210028   3.107   3.105   0.665
 3341TIP3    H110029   3.150   3.047   0.728
 3341TIP3    H210030   3.139   3.192   0.687
 3342TIP3   OH210031   5.279   5.798   1.240
 3342TIP3    H110032   5.316   5.852   1.310
 3342TIP3    H210033   5.202   5.847   1.211
 3343TIP3   OH210034   0.077   0.067   5.132
 3343TIP3    H110035   0.134   0.132   5.090
 3343TIP3    H210036   0.134  -0.008   5.147
 3344TIP3   OH210037   3.158   2.245   0.818
 3344TIP3    H110038   3.093   2.311   0.844
 3344TIP3    H210039   3.201   2.283   0.742
 3345TIP3   OH210040   5.568   5.914   3.695
 3345TIP3    H110041   5.507   5.910   3.622
 3345TIP3    H210042   5.632   5.981   3.671
 3346TIP3   OH210043   1.667   2.976   0.502
 3346TIP3    H110044   1.654   2.903   0.442
 3346TIP3    H210045   1.745   3.021   0.468
 3347TIP3   OH210046   5.928   2.054   4.683
 3347TIP3    H110047   5.997   1.988   4.684
 3347TIP3    H210048   5.937   2.100   4.767
 3348TIP3   OH210049   5.156   3.491   2.353
 3348TIP3    H110050   5.226   3.533   2.404
 3348TIP3    H210051   5.202   3.434   2.292
 3349TIP3   OH210052   4.342   0.771   0.126
 3349TIP3    H110053   4.323   0.838   0.193
 3349TIP3    H210054   4.358   0.822   0.046
 3350TIP3   OH210055   4.115   5.100   1.736
 3350TIP3    H110056   4.032   5.096   1.784
 3350TIP3    H210057   4.179   5.128   1.802
 3351TIP3   OH210058   1.882   2.063   2.261
 3351TIP3    H110059   1.975   2.064   2.238
 3351TIP3    H210060   1.838   2.082   2.178
 3352TIP3   OH210061   2.151   1.872   3.888
 3352TIP3    H110062   2.215   1.816   3.933
 3352TIP3    H210063   2.198   1.907   3.813
 3353TIP3   OH210064   1.969   1.935   5.065
 3353TIP3    H110065   2.007   1.993   5.131
 3353TIP3    H210066   2.005   1.964   4.982
 3354TIP3   OH210067   5.245   1.073   2.935
 3354TIP3    H110068   5.238   1.140   2.867
 3354TIP3    H210069   5.327   1.091   2.979
 3355TIP3   OH210070   5.057   5.557   1.752
 3355TIP3    H110071   5.058   5.650   1.728
 3355TIP3    H210072   5.148   5.529   1.745
 3356TIP3   OH210073   1.647   5.729   2.879
 3356TIP3    H110074   1.699   5.806   2.902
 3356TIP3    H210075   1.698   5.655   2.913
 3357TIP3   OH210076   1.819   3.762   4.516
 3357TIP3    H110077   1.760   3.769   4.591
 3357TIP3    H210078   1.852   3.672   4.520
 3358TIP3   OH210079   5.702   5.148   1.072
 3358TIP3    H110080   5.623   5.198   1.091
 3358TIP3    H210081   5.710   5.087   1.145
 3359TIP3   OH210082   1.806   1.335   2.451
 3359TIP3    H110083   1.779   1.243   2.453
 3359TIP3    H210084   1.890   1.337   2.496
 3360TIP3   OH210085   5.331   5.082   5.108
 3360TIP3    H110086   5.356   4.991   5.093
 3360TIP3    H210087   5.324   5.090   5.203
 3361TIP3   OH210088   1.814   4.308   3.718
 3361TIP3    H110089   1.845   4.222   3.688
 3361TIP3    H210090   1.876   4.334   3.786
 3362TIP3   OH210091   1.482   1.267   4.899
 3362TIP3    H110092   1.424   1.198   4.865
 3362TIP3    H210093   1.530   1.297   4.822
 3363TIP3   OH210094   1.246   5.014   1.965
 3363TIP3    H110095   1.225   5.071   2.039
 3363TIP3    H210096   1.247   5.071   1.889
 3364TIP3   OH210097   3.256   4.964   3.216
 3364TIP3    H110098   3.320   4.974   3.286
 3364TIP3    H210099   3.212   5.049   3.211
 3365TIP3   OH210100   3.753   1.861   3.435
 3365TIP3    H110101   3.714   1.847   3.521
 3365TIP3    H210102   3.847   1.861   3.451
 3366TIP3   OH210103   1.217   4.037   1.259
 3366TIP3    H110104   1.165   4.111   1.292
 3366TIP3    H210105   1.172   4.010   1.179
 3367TIP3   OH210106   5.303   5.862   0.075
 3367TIP3    H110107   5.377   5.830   0.126
 3367TIP3    H210108   5.238   5.792   0.081
 3368TIP3   OH210109   5.541   3.939   2.071
 3368TIP3    H110110   5.461   3.933   2.122
 3368TIP3    H210111   5.605   3.976   2.131
 3369TIP3   OH210112   6.061   2.875   0.340
 3369TIP3    H110113   6.059   2.894   0.434
 3369TIP3    H210114   6.016   2.949   0.299
 3370TIP3   OH210115   6.285   2.434   0.840
 3370TIP3    H110116   6.216   2.478   0.790
 3370TIP3    H210117   6.366   2.455   0.793
 3371TIP3   OH210118   0.619   3.180   2.720
 3371TIP3    H110119   0.641   3.267   2.686
 3371TIP3    H210120   0.581   3.197   2.807
 3372TIP3   OH210121   0.470   4.360   2.830
 3372TIP3    H110122   0.509   4.282   2.790
 3372TIP3    H210123   0.378   4.356   2.807
 3373TIP3   OH210124   5.924   0.464   2.393
 3373TIP3    H110125   5.856   0.487   2.457
 3373TIP3    H210126   5.991   0.531   2.404
 3374TIP3   OH210127   2.930   5.528   5.051
 3374TIP3    H110128   2.914   5.453   4.993
 3374TIP3    H210129   2.945   5.601   4.992
 3375TIP3   OH210130   5.010   2.666   0.444
 3375TIP3    H110131   5.060   2.677   0.524
 3375TIP3    H210132   4.924   2.634   0.473
 3376TIP3   OH210133   4.908   3.135   2.096
 3376TIP3    H110134   4.914   3.218   2.048
 3376TIP3    H210135   4.843   3.084   2.048
 3377TIP3   OH210136   2.970   0.426  -0.004
 3377TIP3    H110137   2.950   0.405   0.087
 3377TIP3    H210138   2.986   0.520  -0.004
 3378TIP3   OH210139   5.662   1.821   0.818
 3378TIP3    H110140   5.633   1.893   0.873
 3378TIP3    H210141   5.597   1.814   0.749
 3379TIP3   OH210142   3.750   5.388   3.406
 3379TIP3    H110143   3.792   5.367   3.489
 3379TIP3    H210144   3.769   5.481   3.392
 3380TIP3   OH210145   4.869   0.654   0.518
 3380TIP3    H110146   4.859   0.616   0.605
 3380TIP3    H210147   4.901   0.743   0.534
 3381TIP3   OH210148   3.730   4.150   1.508
 3381TIP3    H110149   3.741   4.097   1.429
 3381TIP3    H210150   3.762   4.094   1.579
 3382TIP3   OH210151   1.667   1.447   0.624
 3382TIP3    H110152   1.724   1.389   0.674
 3382TIP3    H210153   1.665   1.408   0.536
 3383TIP3   OH210154   0.266   4.499   4.577
 3383TIP3    H110155   0.232   4.552   4.505
 3383TIP3    H210156   0.299   4.562   4.640
 3384TIP3   OH210157   0.145   2.660   1.383
 3384TIP3    H110158   0.228   2.613   1.392
 3384TIP3    H210159   0.081   2.592   1.363
 3385TIP3   OH210160   4.849   2.948   0.747
 3385TIP3    H110161   4.797   3.002   0.687
 3385TIP3    H210162   4.862   3.004   0.823
 3386TIP3   OH210163   3.538   0.575   4.373
 3386TIP3    H110164   3.502   0.663   4.387
 3386TIP3    H210165   3.557   0.543   4.461
 3387TIP3   OH210166   4.639   4.150   1.371
 3387TIP3    H110167   4.702   4.109   1.313
 3387TIP3    H210168   4.663   4.119   1.459
 3388TIP3   OH210169   4.188   4.980   3.331
 3388TIP3    H110170   4.279   4.950   3.344
 3388TIP3    H210171   4.138   4.899   3.318
 3389TIP3   OH210172   1.203   1.676   1.671
 3389TIP3    H110173   1.158   1.659   1.589
 3389TIP3    H210174   1.135   1.714   1.728
 3390TIP3   OH210175   1.478   3.685   1.871
 3390TIP3    H110176   1.447   3.764   1.827
 3390TIP3    H210177   1.508   3.716   1.957
 3391TIP3   OH210178   1.482   4.483   1.102
 3391TIP3    H110179   1.463   4.544   1.031
 3391TIP3    H210180   1.438   4.402   1.076
 3392TIP3   OH210181   0.721   5.133   1.609
 3392TIP3    H110182   0.716   5.215   1.561
 3392TIP3    H210183   0.802   5.140   1.660
 3393TIP3   OH210184   1.368   5.937   4.314
 3393TIP3    H110185   1.276   5.912   4.321
 3393TIP3    H210186   1.411   5.886   4.383
 3394TIP3   OH210187   5.250   0.358   0.283
 3394TIP3    H110188   5.259   0.407   0.201
 3394TIP3    H210189   5.203   0.417   0.341
 3395TIP3   OH210190   3.151   1.835   3.683
 3395TIP3    H110191   3.173   1.927   3.664
 3395TIP3    H210192   3.228   1.786   3.653
 3396TIP3   OH210193   6.261   2.200   2.733
 3396TIP3    H110194   6.299   2.286   2.749
 3396TIP3    H210195   6.318   2.161   2.666
 3397TIP3   OH210196   5.211   2.451   1.916
 3397TIP3    H110197   5.261   2.472   1.837
 3397TIP3    H210198   5.120   2.459   1.890
 3398TIP3   OH210199   3.908   2.984   3.634
 3398TIP3    H110200   3.985   3.020   3.679
 3398TIP3    H210201   3.933   2.893   3.613
 3399TIP3   OH210202   2.734   4.653   0.335
 3399TIP3    H110203   2.721   4.649   0.240
 3399TIP3    H210204   2.819   4.696   0.346
 3400TIP3   OH210205   3.352   3.683   2.410
 3400TIP3    H110206   3.342   3.776   2.428
 3400TIP3    H210207   3.417   3.679   2.341
 3401TIP3   OH210208   4.508   4.307   0.363
 3401TIP3    H110209   4.433   4.327   0.307
 3401TIP3    H210210   4.512   4.380   0.424
 3402TIP3   OH210211   2.898   3.947   4.242
 3402TIP3    H110212   2.987   3.966   4.274
 3402TIP3    H210213   2.840   3.992   4.304
 3403TIP3   OH210214   4.776   3.857   2.075
 3403TIP3    H110215   4.855   3.908   2.088
 3403TIP3    H210216   4.756   3.821   2.161
 3404TIP3   OH210217   1.395   3.379   4.229
 3404TIP3    H110218   1.453   3.446   4.263
 3404TIP3    H210219   1.346   3.423   4.159
 3405TIP3   OH210220   0.560   0.874   0.223
 3405TIP3    H110221   0.539   0.952   0.172
 3405TIP3    H210222   0.477   0.828   0.233
 3406TIP3   OH210223   5.977   2.530   2.176
 3406TIP3    H110224   5.897   2.547   2.226
 3406TIP3    H210225   6.020   2.615   2.168
 3407TIP3   OH210226   1.351   0.821   1.157
 3407TIP3    H110227   1.292   0.779   1.095
 3407TIP3    H210228   1.335   0.914   1.147
 3408TIP3   OH210229   5.846   2.761   1.745
 3408TIP3    H110230   5.942   2.759   1.751
 3408TIP3    H210231   5.827   2.736   1.655
 3409TIP3   OH210232   4.647   1.062   5.142
 3409TIP3    H110233   4.683   1.147   5.118
 3409TIP3    H210234   4.692   1.039   5.224
 3410TIP3   OH210235   2.600   3.128   2.315
 3410TIP3    H110236   2.555   3.171   2.242
 3410TIP3    H210237   2.561   3.041   2.320
 3411TIP3   OH210238   5.553   1.731   3.714
 3411TIP3    H110239   5.558   1.655   3.772
 3411TIP3    H210240   5.548   1.806   3.774
 3412TIP3   OH210241   2.306   1.106   1.825
 3412TIP3    H110242   2.224   1.155   1.818
 3412TIP3    H210243   2.351   1.121   1.742
 3413TIP3   OH210244   3.418   0.192   4.796
 3413TIP3    H110245   3.475   0.116   4.803
 3413TIP3    H210246   3.409   0.207   4.702
 3414TIP3   OH210247   1.103   2.908   2.812
 3414TIP3    H110248   1.036   2.869   2.756
 3414TIP3    H210249   1.076   2.884   2.901
 3415TIP3   OH210250   4.379   4.050   2.004
 3415TIP3    H110251   4.427   4.052   1.921
 3415TIP3    H210252   4.291   4.021   1.980
 3416TIP3   OH210253   1.375   3.604   3.196
 3416TIP3    H110254   1.315   3.604   3.270
 3416TIP3    H210255   1.430   3.527   3.210
 3417TIP3   OH210256   1.081   5.370   0.886
 3417TIP3    H110257   1.009   5.398   0.830
 3417TIP3    H210258   1.122   5.451   0.916
 3418TIP3   OH210259   6.238   0.578   1.872
 3418TIP3    H110260   6.276   0.537   1.950
 3418TIP3    H210261   6.155   0.532   1.859
 3419TIP3   OH210262   4.866   3.986   2.685
 3419TIP3    H110263   4.944   3.931   2.675
 3419TIP3    H210264   4.889   4.047   2.755
 3420TIP3   OH210265   2.866   1.977   1.665
 3420TIP3    H110266   2.934   1.912   1.648
 3420TIP3    H210267   2.810   1.973   1.587
 3421TIP3   OH210268   0.059   3.571   3.962
 3421TIP3    H110269   0.032   3.486   3.997
 3421TIP3    H210270   0.155   3.565   3.957
 3422TIP3   OH210271   5.780   2.579   1.247
 3422TIP3    H110272   5.842   2.508   1.260
 3422TIP3    H210273   5.800   2.642   1.316
 3423TIP3   OH210274   2.993   0.824   1.136
 3423TIP3    H110275   2.962   0.735   1.152
 3423TIP3    H210276   2.979   0.869   1.220
 3424TIP3   OH210277   5.392   5.224   0.691
 3424TIP3    H110278   5.349   5.309   0.698
 3424TIP3    H210279   5.483   5.244   0.670
 3425TIP3   OH210280   0.867   4.221   0.080
 3425TIP3    H110281   0.914   4.161   0.138
 3425TIP3    H210282   0.829   4.165   0.013
 3426TIP3   OH210283   0.686   5.018   2.027
 3426TIP3    H110284   0.612   4.962   2.005
 3426TIP3    H210285   0.760   4.979   1.979
 3427TIP3   OH210286   5.612   1.588   1.394
 3427TIP3    H110287   5.566   1.633   1.323
 3427TIP3    H210288   5.545   1.533   1.435
 3428TIP3   OH210289   5.401   5.031   4.405
 3428TIP3    H110290   5.446   4.987   4.332
 3428TIP3    H210291   5.311   5.000   4.400
 3429TIP3   OH210292   3.108   5.213   2.205
 3429TIP3    H110293   3.125   5.172   2.120
 3429TIP3    H210294   3.094   5.140   2.265
 3430TIP3   OH210295   3.427   0.257   4.269
 3430TIP3    H110296   3.439   0.232   4.361
 3430TIP3    H210297   3.471   0.187   4.220
 3431TIP3   OH210298   2.475   2.912   3.266
 3431TIP3    H110299   2.462   2.952   3.353
 3431TIP3    H210300   2.552   2.857   3.276
 3432TIP3   OH210301   2.735   4.056   4.429
 3432TIP3    H110302   2.661   4.020   4.380
 3432TIP3    H210303   2.698   4.084   4.512
 3433TIP3   OH210304   2.753   5.156   2.283
 3433TIP3    H110305   2.690   5.172   2.213
 3433TIP3    H210306   2.700   5.141   2.361
 3434TIP3   OH210307   5.290   0.045   2.170
 3434TIP3    H110308   5.304  -0.049   2.158
 3434TIP3    H210309   5.197   0.058   2.151
 3435TIP3   OH210310   5.219   2.020   2.873
 3435TIP3    H110311   5.166   2.068   2.808
 3435TIP3    H210312   5.189   2.054   2.957
 3436TIP3   OH210313   3.074   5.623   4.421
 3436TIP3    H110314   3.122   5.545   4.449
 3436TIP3    H210315   3.109   5.694   4.474
 3437TIP3   OH210316   0.363   3.083   3.943
 3437TIP3    H110317   0.365   2.992   3.971
 3437TIP3    H210318   0.448   3.097   3.901
 3438TIP3   OH210319   0.548   5.190   0.551
 3438TIP3    H110320   0.596   5.157   0.475
 3438TIP3    H210321   0.457   5.193   0.522
 3439TIP3   OH210322   3.233   0.588   1.260
 3439TIP3    H110323   3.308   0.617   1.209
 3439TIP3    H210324   3.157   0.625   1.215
 3440TIP3   OH210325   0.261   0.345   4.293
 3440TIP3    H110326   0.284   0.339   4.386
 3440TIP3    H210327   0.302   0.426   4.264
 3441TIP3   OH210328   0.338   2.850   2.755
 3441TIP3    H110329   0.397   2.894   2.816
 3441TIP3    H210330   0.255   2.898   2.763
 3442TIP3   OH210331   0.812   0.226   1.130
 3442TIP3    H110332   0.813   0.186   1.043
 3442TIP3    H210333   0.722   0.257   1.141
 3443TIP3   OH210334   3.463   1.263   4.417
 3443TIP3    H110335   3.417   1.342   4.448
 3443TIP3    H210336   3.397   1.214   4.369
 3444TIP3   OH210337   1.097   1.953   3.800
 3444TIP3    H110338   1.002   1.944   3.796
 3444TIP3    H210339   1.125   1.955   3.709
 3445TIP3   OH210340   4.307   1.728   3.685
 3445TIP3    H110341   4.342   1.784   3.755
 3445TIP3    H210342   4.373   1.734   3.616
 3446TIP3   OH210343   4.352   2.073   0.937
 3446TIP3    H110344   4.285   2.094   0.872
 3446TIP3    H210345   4.433   2.064   0.886
 3447TIP3   OH210346   4.617   5.163   0.725
 3447TIP3    H110347   4.646   5.089   0.778
 3447TIP3    H210348   4.666   5.155   0.643
 3448TIP3   OH210349   1.743   2.998   2.689
 3448TIP3    H110350   1.745   2.906   2.714
 3448TIP3    H210351   1.788   3.000   2.604
 3449TIP3   OH210352   1.531   2.496   2.504
 3449TIP3    H110353   1.616   2.476   2.466
 3449TIP3    H210354   1.499   2.413   2.537
 3450TIP3   OH210355   3.567   5.647   0.558
 3450TIP3    H110356   3.478   5.626   0.588
 3450TIP3    H210357   3.605   5.696   0.631
 3451TIP3   OH210358   0.021   5.523   4.170
 3451TIP3    H110359  -0.040   5.488   4.106
 3451TIP3    H210360   0.068   5.446   4.203
 3452TIP3   OH210361   5.808   4.310   1.060
 3452TIP3    H110362   5.774   4.248   1.125
 3452TIP3    H210363   5.893   4.337   1.094
 3453TIP3   OH210364   0.988   0.966   4.079
 3453TIP3    H110365   1.069   0.977   4.030
 3453TIP3    H210366   1.011   0.906   4.150
 3454TIP3   OH210367   3.504   0.116   1.772
 3454TIP3    H110368   3.412   0.094   1.791
 3454TIP3    H210369   3.553   0.037   1.796
 3455TIP3   OH210370   2.988   3.364   0.458
 3455TIP3    H110371   2.902   3.373   0.499
 3455TIP3    H210372   3.046   3.341   0.530
 3456TIP3   OH210373   3.837   2.707   0.162
 3456TIP3    H110374   3.920   2.694   0.115
 3456TIP3    H210375   3.816   2.622   0.199
 3457TIP3   OH210376   4.556   2.614   3.868
 3457TIP3    H110377   4.531   2.681   3.805
 3457TIP3    H210378   4.544   2.655   3.953
 3458TIP3   OH210379   2.604   0.835   1.445
 3458TIP3    H110380   2.644   0.900   1.504
 3458TIP3    H210381   2.652   0.754   1.463
 3459TIP3   OH210382   2.595   4.526   1.459
 3459TIP3    H110383   2.529   4.515   1.528
 3459TIP3    H210384   2.545   4.532   1.378
 3460TIP3   OH210385   2.059   0.527   4.037
 3460TIP3    H110386   2.128   0.463   4.046
 3460TIP3    H210387   2.034   0.549   4.127
 3461TIP3   OH210388   1.935   0.952   0.166
 3461TIP3    H110389   1.985   0.979   0.243
 3461TIP3    H210390   1.999   0.953   0.095
 3462TIP3   OH210391   5.646   1.996   4.529
 3462TIP3    H110392   5.665   1.927   4.593
 3462TIP3    H210393   5.636   2.076   4.582
 3463TIP3   OH210394   4.205   0.120   1.594
 3463TIP3    H110395   4.115   0.110   1.564
 3463TIP3    H210396   4.259   0.102   1.517
 3464TIP3   OH210397   0.093   4.110   2.732
 3464TIP3    H110398   0.117   4.184   2.788
 3464TIP3    H210399   0.167   4.100   2.672
 3465TIP3   OH210400   3.665   0.506   0.216
 3465TIP3    H110401   3.606   0.456   0.272
 3465TIP3    H210402   3.610   0.533   0.142
 3466TIP3   OH210403   0.175   4.188   0.029
 3466TIP3    H110404   0.196   4.205   0.121
 3466TIP3    H210405   0.248   4.135  -0.003
 3467TIP3   OH210406   1.912   3.019   3.919
 3467TIP3    H110407   1.934   3.112   3.927
 3467TIP3    H210408   1.818   3.015   3.934
 3468TIP3   OH210409   4.366   2.969   0.875
 3468TIP3    H110410   4.280   2.927   0.877
 3468TIP3    H210411   4.365   3.029   0.949
 3469TIP3   OH210412   2.783   3.969   2.709
 3469TIP3    H110413   2.730   4.043   2.736
 3469TIP3    H210414   2.851   4.007   2.654
 3470TIP3   OH210415   3.055   1.672   0.792
 3470TIP3    H110416   3.137   1.721   0.797
 3470TIP3    H210417   3.081   1.584   0.765
 3471TIP3   OH210418   2.619   1.686   0.118
 3471TIP3    H110419   2.656   1.611   0.166
 3471TIP3    H210420   2.528   1.660   0.100
 3472TIP3   OH210421   0.402   3.975   1.186
 3472TIP3    H110422   0.354   3.916   1.244
 3472TIP3    H210423   0.353   3.972   1.104
 3473TIP3   OH210424   5.695   2.406   3.022
 3473TIP3    H110425   5.617   2.353   3.037
 3473TIP3    H210426   5.697   2.467   3.097
 3474TIP3   OH210427   0.336   1.800   4.120
 3474TIP3    H110428   0.251   1.764   4.145
 3474TIP3    H210429   0.379   1.729   4.072
 3475TIP3   OH210430   1.724   5.128   2.777
 3475TIP3    H110431   1.694   5.190   2.843
 3475TIP3    H210432   1.787   5.178   2.725
 3476TIP3   OH210433   4.282   5.032   4.371
 3476TIP3    H110434   4.212   5.057   4.431
 3476TIP3    H210435   4.362   5.043   4.422
 3477TIP3   OH210436   1.242   4.258   2.089
 3477TIP3    H110437   1.203   4.175   2.060
 3477TIP3    H210438   1.245   4.312   2.010
 3478TIP3   OH210439   2.816   5.769   2.778
 3478TIP3    H110440   2.880   5.805   2.718
 3478TIP3    H210441   2.764   5.708   2.725
 3479TIP3   OH210442   0.954   1.399   4.114
 3479TIP3    H110443   0.904   1.341   4.056
 3479TIP3    H210444   1.046   1.378   4.095
 3480TIP3   OH210445   2.397   4.398   4.816
 3480TIP3    H110446   2.368   4.316   4.856
 3480TIP3    H210447   2.392   4.381   4.722
 3481TIP3   OH210448   4.095   1.608   0.521
 3481TIP3    H110449   4.045   1.536   0.484
 3481TIP3    H210450   4.071   1.610   0.613
 3482TIP3   OH210451   3.721   1.496   0.562
 3482TIP3    H110452   3.785   1.435   0.525
 3482TIP3    H210453   3.763   1.529   0.642
 3483TIP3   OH210454   5.548   3.891   2.834
 3483TIP3    H110455   5.630   3.932   2.862
 3483TIP3    H210456   5.480   3.947   2.870
 3484TIP3   OH210457   3.200   0.090   1.671
 3484TIP3    H110458   3.254   0.022   1.630
 3484TIP3    H210459   3.123   0.042   1.703
 3485TIP3   OH210460   5.662   5.586   4.039
 3485TIP3    H110461   5.612   5.538   4.104
 3485TIP3    H210462   5.614   5.668   4.027
 3486TIP3   OH210463   0.302   3.733   0.188
 3486TIP3    H110464   0.271   3.769   0.271
 3486TIP3    H210465   0.244   3.772   0.122
 3487TIP3   OH210466   4.469   4.559   4.615
 3487TIP3    H110467   4.479   4.630   4.552
 3487TIP3    H210468   4.394   4.585   4.669
 3488TIP3   OH210469   0.341   1.838   3.469
 3488TIP3    H110470   0.360   1.928   3.494
 3488TIP3    H210471   0.285   1.805   3.539
 3489TIP3   OH210472   0.662   4.204   2.119
 3489TIP3    H110473   0.746   4.216   2.074
 3489TIP3    H210474   0.659   4.111   2.140
 3490TIP3   OH210475   0.148   2.964   2.294
 3490TIP3    H110476   0.056   2.989   2.283
 3490TIP3    H210477   0.151   2.872   2.268
 3491TIP3   OH210478   0.705   0.512   4.208
 3491TIP3    H110479   0.662   0.590   4.242
 3491TIP3    H210480   0.742   0.539   4.124
 3492TIP3   OH210481   0.810   3.027   1.008
 3492TIP3    H110482   0.745   3.097   1.007
 3492TIP3    H210483   0.834   3.015   0.916
 3493TIP3   OH210484   3.889   4.704   1.759
 3493TIP3    H110485   3.810   4.755   1.743
 3493TIP3    H210486   3.928   4.693   1.672
 3494TIP3   OH210487   1.435   1.446   2.504
 3494TIP3    H110488   1.493   1.516   2.475
 3494TIP3    H210489   1.493   1.378   2.537
 3495TIP3   OH210490   2.395   3.804   0.964
 3495TIP3    H110491   2.370   3.745   0.893
 3495TIP3    H210492   2.400   3.747   1.041
 3496TIP3   OH210493   6.273   0.596   0.966
 3496TIP3    H110494   6.315   0.521   1.009
 3496TIP3    H210495   6.201   0.619   1.025
 3497TIP3   OH210496   0.056   5.653   2.522
 3497TIP3    H110497   0.057   5.732   2.576
 3497TIP3    H210498   0.065   5.685   2.432
 3498TIP3   OH210499   5.101   5.522   3.230
 3498TIP3    H110500   5.016   5.540   3.269
 3498TIP3    H210501   5.083   5.457   3.162
 3499TIP3   OH210502   3.721   4.231   4.754
 3499TIP3    H110503   3.750   4.193   4.837
 3499TIP3    H210504   3.796   4.221   4.695
 3500TIP3   OH210505   0.466   5.306   4.052
 3500TIP3    H110506   0.541   5.355   4.087
 3500TIP3    H210507   0.419   5.370   3.998
 3501TIP3   OH210508   1.077   3.213  -0.006
 3501TIP3    H110509   1.041   3.281   0.051
 3501TIP3    H210510   1.164   3.195   0.030
 3502TIP3   OH210511   3.852   0.486   2.512
 3502TIP3    H110512   3.922   0.445   2.563
 3502TIP3    H210513   3.842   0.429   2.435
 3503TIP3   OH210514   5.908   4.920   2.217
 3503TIP3    H110515   5.951   4.902   2.134
 3503TIP3    H210516   5.862   5.003   2.203
 3504TIP3   OH210517   5.825   2.271   3.865
 3504TIP3    H110518   5.819   2.187   3.910
 3504TIP3    H210519   5.876   2.326   3.925
 3505TIP3   OH210520   6.303   1.205   2.703
 3505TIP3    H110521   6.248   1.129   2.684
 3505TIP3    H210522   6.389   1.169   2.723
 3506TIP3   OH210523   2.820   4.964   0.156
 3506TIP3    H110524   2.867   4.908   0.094
 3506TIP3    H210525   2.768   4.903   0.209
 3507TIP3   OH210526   2.096   3.810   4.814
 3507TIP3    H110527   2.029   3.873   4.786
 3507TIP3    H210528   2.046   3.739   4.855
 3508TIP3   OH210529   4.868   1.983   0.117
 3508TIP3    H110530   4.814   1.967   0.039
 3508TIP3    H210531   4.837   2.068   0.150
 3509TIP3   OH210532   1.943   0.086   0.844
 3509TIP3    H110533   2.015   0.081   0.907
 3509TIP3    H210534   1.961   0.016   0.781
 3510TIP3   OH210535   4.170   3.025   1.312
 3510TIP3    H110536   4.100   3.090   1.297
 3510TIP3    H210537   4.185   3.029   1.407
 3511TIP3   OH210538   5.317   3.365   2.060
 3511TIP3    H110539   5.329   3.455   2.027
 3511TIP3    H210540   5.393   3.318   2.026
 3512TIP3   OH210541   3.563   2.226   4.130
 3512TIP3    H110542   3.635   2.256   4.075
 3512TIP3    H210543   3.488   2.280   4.104
 3513TIP3   OH210544   0.165   2.335   4.796
 3513TIP3    H110545   0.157   2.366   4.706
 3513TIP3    H210546   0.079   2.297   4.816
 3514TIP3   OH210547   0.283   2.362   2.820
 3514TIP3    H110548   0.282   2.266   2.816
 3514TIP3    H210549   0.204   2.384   2.870
 3515TIP3   OH210550   3.318   5.414   2.666
 3515TIP3    H110551   3.240   5.358   2.666
 3515TIP3    H210552   3.382   5.368   2.613
 3516TIP3   OH210553   4.661   5.536   3.879
 3516TIP3    H110554   4.625   5.549   3.791
 3516TIP3    H210555   4.751   5.506   3.863
 3517TIP3   OH210556   0.888   1.399   1.235
 3517TIP3    H110557   0.875   1.486   1.272
 3517TIP3    H210558   0.799   1.367   1.217
 3518TIP3   OH210559   0.938   1.782   1.833
 3518TIP3    H110560   1.009   1.828   1.878
 3518TIP3    H210561   0.907   1.717   1.896
 3519TIP3   OH210562   2.112   1.628   0.811
 3519TIP3    H110563   2.188   1.687   0.811
 3519TIP3    H210564   2.094   1.614   0.718
 3520TIP3   OH210565   5.758   5.686   1.839
 3520TIP3    H110566   5.760   5.591   1.827
 3520TIP3    H210567   5.811   5.701   1.918
 3521TIP3   OH210568   1.354   2.497   2.806
 3521TIP3    H110569   1.388   2.577   2.768
 3521TIP3    H210570   1.311   2.525   2.887
 3522TIP3   OH210571   3.828   2.802   4.225
 3522TIP3    H110572   3.886   2.837   4.292
 3522TIP3    H210573   3.781   2.878   4.191
 3523TIP3   OH210574   5.119   1.411   0.152
 3523TIP3    H110575   5.179   1.466   0.102
 3523TIP3    H210576   5.144   1.425   0.243
 3524TIP3   OH210577   5.152   4.248   3.139
 3524TIP3    H110578   5.086   4.307   3.102
 3524TIP3    H210579   5.141   4.255   3.233
 3525TIP3   OH210580   3.050   2.072   1.382
 3525TIP3    H110581   3.026   1.986   1.416
 3525TIP3    H210582   3.144   2.067   1.367
 3526TIP3   OH210583   2.871   3.626   1.760
 3526TIP3    H110584   2.860   3.639   1.666
 3526TIP3    H210585   2.931   3.696   1.787
 3527TIP3   OH210586   3.063   1.861   2.455
 3527TIP3    H110587   3.023   1.803   2.391
 3527TIP3    H210588   3.047   1.949   2.421
 3528TIP3   OH210589   2.742   2.535   2.269
 3528TIP3    H110590   2.818   2.478   2.263
 3528TIP3    H210591   2.751   2.578   2.355
 3529TIP3   OH210592   5.032   1.046   1.475
 3529TIP3    H110593   5.030   1.132   1.433
 3529TIP3    H210594   5.069   0.988   1.410
 3530TIP3   OH210595   2.595   5.619   1.925
 3530TIP3    H110596   2.606   5.569   2.005
 3530TIP3    H210597   2.518   5.580   1.883
 3531TIP3   OH210598   0.239   3.881   2.598
 3531TIP3    H110599   0.256   3.882   2.503
 3531TIP3    H210600   0.318   3.916   2.637
 3532TIP3   OH210601   0.390   0.506   0.321
 3532TIP3    H110602   0.417   0.487   0.411
 3532TIP3    H210603   0.297   0.481   0.318
 3533TIP3   OH210604   4.692   5.640   2.233
 3533TIP3    H110605   4.727   5.552   2.217
 3533TIP3    H210606   4.650   5.635   2.319
 3534TIP3   OH210607   2.903   5.613   0.940
 3534TIP3    H110608   2.863   5.605   0.854
 3534TIP3    H210609   2.830   5.604   1.001
 3535TIP3   OH210610   2.607   4.962   0.757
 3535TIP3    H110611   2.675   5.028   0.745
 3535TIP3    H210612   2.594   4.925   0.669
 3536TIP3   OH210613   1.925   0.450  -0.002
 3536TIP3    H110614   1.861   0.498   0.050
 3536TIP3    H210615   1.993   0.425   0.061
 3537TIP3   OH210616   2.830   4.633   4.205
 3537TIP3    H110617   2.774   4.696   4.251
 3537TIP3    H210618   2.860   4.573   4.274
 3538TIP3   OH210619   4.091   1.951   2.998
 3538TIP3    H110620   4.048   1.939   3.083
 3538TIP3    H210621   4.031   2.006   2.948
 3539TIP3   OH210622   2.564   4.139   4.722
 3539TIP3    H110623   2.569   4.176   4.810
 3539TIP3    H210624   2.488   4.081   4.724
 3540TIP3   OH210625   3.217   4.078   1.692
 3540TIP3    H110626   3.312   4.062   1.693
 3540TIP3    H210627   3.199   4.119   1.776
 3541TIP3   OH210628   1.859   5.130   1.081
 3541TIP3    H110629   1.803   5.099   1.152
 3541TIP3    H210630   1.890   5.215   1.111
 3542TIP3   OH210631   5.471   4.531   3.212
 3542TIP3    H110632   5.458   4.625   3.204
 3542TIP3    H210633   5.520   4.521   3.294
 3543TIP3   OH210634   1.530   2.792   1.792
 3543TIP3    H110635   1.509   2.879   1.758
 3543TIP3    H210636   1.613   2.769   1.750
 3544TIP3   OH210637   5.541   3.604   2.766
 3544TIP3    H110638   5.564   3.599   2.859
 3544TIP3    H210639   5.525   3.697   2.750
 3545TIP3   OH210640   4.904   1.540   3.231
 3545TIP3    H110641   4.938   1.451   3.236
 3545TIP3    H210642   4.972   1.593   3.273
 3546TIP3   OH210643   0.363   0.623   0.604
 3546TIP3    H110644   0.446   0.650   0.563
 3546TIP3    H210645   0.295   0.657   0.545
 3547TIP3   OH210646   3.158   1.626   5.002
 3547TIP3    H110647   3.230   1.688   5.006
 3547TIP3    H210648   3.097   1.655   5.069
 3548TIP3   OH210649   4.281   3.296   5.007
 3548TIP3    H110650   4.186   3.310   5.006
 3548TIP3    H210651   4.312   3.338   4.927
 3549TIP3   OH210652   0.778   4.371   2.611
 3549TIP3    H110653   0.781   4.314   2.688
 3549TIP3    H210654   0.685   4.376   2.589
 3550TIP3   OH210655   2.692   0.010   2.953
 3550TIP3    H110656   2.686  -0.006   2.859
 3550TIP3    H210657   2.642   0.091   2.966
 3551TIP3   OH210658   1.572   0.940   2.020
 3551TIP3    H110659   1.480   0.957   2.038
 3551TIP3    H210660   1.580   0.951   1.925
 3552TIP3   OH210661   6.141   1.394   4.428
 3552TIP3    H110662   6.143   1.306   4.391
 3552TIP3    H210663   6.120   1.381   4.520
 3553TIP3   OH210664   2.467   3.419   3.072
 3553TIP3    H110665   2.488   3.490   3.133
 3553TIP3    H210666   2.450   3.463   2.989
 3554TIP3   OH210667   5.238   3.100   3.495
 3554TIP3    H110668   5.191   3.024   3.461
 3554TIP3    H210669   5.183   3.175   3.473
 3555TIP3   OH210670   0.372   3.299   0.798
 3555TIP3    H110671   0.334   3.308   0.711
 3555TIP3    H210672   0.451   3.353   0.796
 3556TIP3   OH210673   0.461   1.845   4.764
 3556TIP3    H110674   0.455   1.768   4.708
 3556TIP3    H210675   0.477   1.917   4.702
 3557TIP3   OH210676   2.926   5.432   2.219
 3557TIP3    H110677   2.981   5.357   2.242
 3557TIP3    H210678   2.983   5.508   2.233
 3558TIP3   OH210679   4.159   2.732   4.608
 3558TIP3    H110680   4.164   2.825   4.632
 3558TIP3    H210681   4.107   2.693   4.678
 3559TIP3   OH210682   2.042   1.987   3.425
 3559TIP3    H110683   2.079   2.011   3.510
 3559TIP3    H210684   2.001   1.902   3.439
 3560TIP3   OH210685   4.102   3.152   3.160
 3560TIP3    H110686   4.106   3.228   3.218
 3560TIP3    H210687   4.030   3.099   3.195
 3561TIP3   OH210688   4.403   1.663   4.647
 3561TIP3    H110689   4.360   1.721   4.583
 3561TIP3    H210690   4.350   1.584   4.648
 3562TIP3   OH210691   5.865   5.762   2.294
 3562TIP3    H110692   5.917   5.734   2.219
 3562TIP3    H210693   5.869   5.858   2.291
 3563TIP3   OH210694   0.595   5.645   0.593
 3563TIP3    H110695   0.654   5.678   0.526
 3563TIP3    H210696   0.638   5.565   0.625
 3564TIP3   OH210697   5.836   1.082   1.872
 3564TIP3    H110698   5.766   1.143   1.853
 3564TIP3    H210699   5.815   1.048   1.960
 3565TIP3   OH210700   4.310   3.399   1.902
 3565TIP3    H110701   4.256   3.471   1.934
 3565TIP3    H210702   4.349   3.361   1.980
 3566TIP3   OH210703   1.011   3.960   3.486
 3566TIP3    H110704   0.997   3.962   3.392
 3566TIP3    H210705   1.034   4.050   3.509
 3567TIP3   OH210706   6.116   4.879   5.027
 3567TIP3    H110707   6.064   4.957   5.005
 3567TIP3    H210708   6.054   4.807   5.023
 3568TIP3   OH210709   6.205   4.249   0.244
 3568TIP3    H110710   6.298   4.246   0.268
 3568TIP3    H210711   6.158   4.247   0.328
 3569TIP3   OH210712   4.900   5.282   5.055
 3569TIP3    H110713   4.846   5.264   5.132
 3569TIP3    H210714   4.891   5.376   5.040
 3570TIP3   OH210715   4.574   4.566   4.201
 3570TIP3    H110716   4.637   4.513   4.249
 3570TIP3    H210717   4.532   4.621   4.267
 3571TIP3   OH210718   5.802   0.494   5.002
 3571TIP3    H110719   5.828   0.418   4.950
 3571TIP3    H210720   5.733   0.462   5.060
 3572TIP3   OH210721   2.900   1.239   4.192
 3572TIP3    H110722   2.837   1.296   4.147
 3572TIP3    H210723   2.982   1.289   4.191
 3573TIP3   OH210724   1.091   0.141   0.712
 3573TIP3    H110725   1.004   0.178   0.724
 3573TIP3    H210726   1.151   0.215   0.721
 3574TIP3   OH210727   1.611   5.169   2.287
 3574TIP3    H110728   1.583   5.096   2.232
 3574TIP3    H210729   1.655   5.127   2.361
 3575TIP3   OH210730   3.671   0.461   4.174
 3575TIP3    H110731   3.635   0.503   4.252
 3575TIP3    H210732   3.649   0.368   4.184
 3576TIP3   OH210733   5.805   1.361   3.839
 3576TIP3    H110734   5.756   1.287   3.874
 3576TIP3    H210735   5.836   1.407   3.917
 3577TIP3   OH210736   1.053   1.026   1.822
 3577TIP3    H110737   0.966   1.000   1.790
 3577TIP3    H210738   1.038   1.052   1.913
 3578TIP3   OH210739   2.862   1.270   1.469
 3578TIP3    H110740   2.801   1.314   1.528
 3578TIP3    H210741   2.937   1.329   1.463
 3579TIP3   OH210742   2.448   4.927   1.250
 3579TIP3    H110743   2.497   4.881   1.318
 3579TIP3    H210744   2.475   4.884   1.168
 3580TIP3   OH210745   4.429   4.811   3.350
 3580TIP3    H110746   4.512   4.850   3.377
 3580TIP3    H210747   4.414   4.740   3.413
 3581TIP3   OH210748   4.956   1.935   4.269
 3581TIP3    H110749   4.886   1.953   4.332
 3581TIP3    H210750   5.033   1.976   4.308
 3582TIP3   OH210751   0.059   4.321   0.557
 3582TIP3    H110752   0.031   4.267   0.631
 3582TIP3    H210753  -0.014   4.381   0.542
 3583TIP3   OH210754   0.208   4.595   0.876
 3583TIP3    H110755   0.152   4.517   0.879
 3583TIP3    H210756   0.295   4.563   0.900
 3584TIP3   OH210757   5.543   0.778   0.760
 3584TIP3    H110758   5.616   0.837   0.741
 3584TIP3    H210759   5.564   0.739   0.845
 3585TIP3   OH210760   5.174   0.708   4.198
 3585TIP3    H110761   5.185   0.726   4.105
 3585TIP3    H210762   5.222   0.779   4.242
 3586TIP3   OH210763   5.803   5.765   1.271
 3586TIP3    H110764   5.873   5.812   1.228
 3586TIP3    H210765   5.839   5.741   1.356
 3587TIP3   OH210766   0.656   2.516   0.979
 3587TIP3    H110767   0.683   2.608   0.980
 3587TIP3    H210768   0.715   2.475   0.916
 3588TIP3   OH210769   4.823   3.489   2.449
 3588TIP3    H110770   4.781   3.515   2.367
 3588TIP3    H210771   4.863   3.405   2.430
 3589TIP3   OH210772   3.834   5.302   4.405
 3589TIP3    H110773   3.912   5.344   4.441
 3589TIP3    H210774   3.787   5.268   4.481
 3590TIP3   OH210775   2.161   4.062   4.615
 3590TIP3    H110776   2.204   4.000   4.556
 3590TIP3    H210777   2.070   4.031   4.619
 3591TIP3   OH210778   0.608   5.031   0.329
 3591TIP3    H110779   0.659   5.007   0.252
 3591TIP3    H210780   0.587   4.948   0.371
 3592TIP3   OH210781   1.029   1.639   3.110
 3592TIP3    H110782   1.001   1.720   3.152
 3592TIP3    H210783   1.048   1.664   3.020
 3593TIP3   OH210784   1.639   1.661   3.812
 3593TIP3    H110785   1.619   1.720   3.739
 3593TIP3    H210786   1.561   1.664   3.867
 3594TIP3   OH210787   0.034   0.770   3.275
 3594TIP3    H110788  -0.042   0.829   3.270
 3594TIP3    H210789   0.042   0.735   3.186
 3595TIP3   OH210790   4.554   3.899   2.577
 3595TIP3    H110791   4.504   3.817   2.580
 3595TIP3    H210792   4.491   3.964   2.545
 3596TIP3   OH210793   3.835   3.108   2.777
 3596TIP3    H110794   3.856   3.118   2.685
 3596TIP3    H210795   3.902   3.050   2.812
 3597TIP3   OH210796   0.184   2.212   3.613
 3597TIP3    H110797   0.093   2.200   3.585
 3597TIP3    H210798   0.178   2.246   3.702
 3598TIP3   OH210799   4.134   4.342   3.350
 3598TIP3    H110800   4.200   4.274   3.334
 3598TIP3    H210801   4.138   4.358   3.444
 3599TIP3   OH210802   0.444   5.258   5.064
 3599TIP3    H110803   0.354   5.277   5.091
 3599TIP3    H210804   0.440   5.171   5.025
 3600TIP3   OH210805   5.049   3.811   2.341
 3600TIP3    H110806   5.004   3.761   2.273
 3600TIP3    H210807   4.992   3.802   2.418
 3601TIP3   OH210808   0.804   4.050   4.402
 3601TIP3    H110809   0.745   4.106   4.452
 3601TIP3    H210810   0.809   3.969   4.452
 3602TIP3   OH210811   0.937   3.768   2.651
 3602TIP3    H110812   0.915   3.837   2.588
 3602TIP3    H210813   0.884   3.788   2.728
 3603TIP3   OH210814   0.599   5.013   4.789
 3603TIP3    H110815   0.615   4.982   4.879
 3603TIP3    H210816   0.591   4.932   4.738
 3604TIP3   OH210817   4.404   0.888   2.041
 3604TIP3    H110818   4.362   0.811   2.002
 3604TIP3    H210819   4.332   0.938   2.079
 3605TIP3   OH210820   4.104   4.660   3.495
 3605TIP3    H110821   4.187   4.670   3.541
 3605TIP3    H210822   4.127   4.658   3.402
 3606TIP3   OH210823   4.966   4.524   0.393
 3606TIP3    H110824   5.036   4.586   0.371
 3606TIP3    H210825   4.994   4.485   0.475
 3607TIP3   OH210826   5.649   1.940   0.423
 3607TIP3    H110827   5.640   2.029   0.390
 3607TIP3    H210828   5.743   1.928   0.437
 3608TIP3   OH210829   3.305   3.586   3.633
 3608TIP3    H110830   3.272   3.646   3.565
 3608TIP3    H210831   3.271   3.622   3.715
 3609TIP3   OH210832   2.610   3.444   2.068
 3609TIP3    H110833   2.658   3.524   2.045
 3609TIP3    H210834   2.669   3.373   2.043
 3610TIP3   OH210835   3.626   0.543   4.967
 3610TIP3    H110836   3.646   0.492   5.046
 3610TIP3    H210837   3.705   0.595   4.951
 3611TIP3   OH210838   3.032   0.728   4.899
 3611TIP3    H110839   3.071   0.686   4.823
 3611TIP3    H210840   3.106   0.765   4.947
 3612TIP3   OH210841   2.098   1.984   4.827
 3612TIP3    H110842   2.125   2.076   4.830
 3612TIP3    H210843   2.180   1.935   4.831
 3613TIP3   OH210844   3.927   1.367   0.413
 3613TIP3    H110845   3.896   1.285   0.374
 3613TIP3    H210846   3.954   1.420   0.337
 3614TIP3   OH210847   4.900  -0.002   5.082
 3614TIP3    H110848   4.895   0.002   5.178
 3614TIP3    H210849   4.990   0.022   5.061
 3615TIP3   OH210850   4.644   4.214   4.789
 3615TIP3    H110851   4.611   4.276   4.854
 3615TIP3    H210852   4.650   4.131   4.836
 3616TIP3   OH210853   1.185   4.519   4.658
 3616TIP3    H110854   1.270   4.551   4.626
 3616TIP3    H210855   1.131   4.515   4.579
 3617TIP3   OH210856   3.430   0.665   0.409
 3617TIP3    H110857   3.432   0.706   0.322
 3617TIP3    H210858   3.369   0.591   0.398
 3618TIP3   OH210859   4.879   4.415   5.109
 3618TIP3    H110860   4.937   4.491   5.100
 3618TIP3    H210861   4.873   4.400   5.204
 3619TIP3   OH210862   3.419   2.492   1.594
 3619TIP3    H110863   3.456   2.526   1.512
 3619TIP3    H210864   3.482   2.425   1.622
 3620TIP3   OH210865   1.888   1.201   1.489
 3620TIP3    H110866   1.853   1.286   1.461
 3620TIP3    H210867   1.892   1.208   1.584
 3621TIP3   OH210868   0.942   5.061   0.465
 3621TIP3    H110869   0.904   5.080   0.551
 3621TIP3    H210870   0.911   5.131   0.408
 3622TIP3   OH210871   6.000   4.699   0.589
 3622TIP3    H110872   5.970   4.692   0.680
 3622TIP3    H210873   5.939   4.644   0.540
 3623TIP3   OH210874   6.235   0.759   4.026
 3623TIP3    H110875   6.262   0.711   3.948
 3623TIP3    H210876   6.245   0.851   4.002
 3624TIP3   OH210877   5.436   1.616   2.082
 3624TIP3    H110878   5.403   1.656   2.002
 3624TIP3    H210879   5.495   1.682   2.119
 3625TIP3   OH210880   0.041   3.709   0.640
 3625TIP3    H110881   0.056   3.803   0.631
 3625TIP3    H210882  -0.053   3.697   0.623
 3626TIP3   OH210883   0.679   1.848   0.379
 3626TIP3    H110884   0.743   1.910   0.414
 3626TIP3    H210885   0.620   1.830   0.453
 3627TIP3   OH210886   5.489   3.014   3.241
 3627TIP3    H110887   5.553   3.049   3.180
 3627TIP3    H210888   5.410   3.067   3.227
 3628TIP3   OH210889   5.589   1.169   1.836
 3628TIP3    H110890   5.565   1.157   1.744
 3628TIP3    H210891   5.513   1.212   1.876
 3629TIP3   OH210892   4.500   5.437   3.320
 3629TIP3    H110893   4.408   5.464   3.328
 3629TIP3    H210894   4.495   5.348   3.285
 3630TIP3   OH210895   1.175   1.231   4.321
 3630TIP3    H110896   1.147   1.210   4.232
 3630TIP3    H210897   1.202   1.323   4.317
 3631TIP3   OH210898   0.898   3.345   2.637
 3631TIP3    H110899   0.981   3.385   2.662
 3631TIP3    H210900   0.900   3.259   2.680
 3632TIP3   OH210901   3.989   1.500   4.392
 3632TIP3    H110902   3.896   1.496   4.418
 3632TIP3    H210903   4.021   1.411   4.407
 3633TIP3   OH210904   5.510   3.109   4.590
 3633TIP3    H110905   5.547   3.086   4.505
 3633TIP3    H210906   5.417   3.091   4.581
 3634TIP3   OH210907   1.075   5.781   0.019
 3634TIP3    H110908   1.155   5.749   0.061
 3634TIP3    H210909   1.011   5.785   0.090
 3635TIP3   OH210910   2.372   5.182   2.991
 3635TIP3    H110911   2.336   5.229   2.916
 3635TIP3    H210912   2.356   5.238   3.066
 3636TIP3   OH210913   0.289   5.378   1.084
 3636TIP3    H110914   0.241   5.437   1.026
 3636TIP3    H210915   0.371   5.362   1.037
 3637TIP3   OH210916   2.065   1.087   4.416
 3637TIP3    H110917   2.066   1.060   4.324
 3637TIP3    H210918   2.157   1.090   4.442
 3638TIP3   OH210919   1.941   3.954   2.228
 3638TIP3    H110920   1.889   4.008   2.169
 3638TIP3    H210921   2.023   4.002   2.240
 3639TIP3   OH210922   3.169   1.160   4.536
 3639TIP3    H110923   3.190   1.074   4.574
 3639TIP3    H210924   3.232   1.220   4.575
 3640TIP3   OH210925   5.469   0.713   3.678
 3640TIP3    H110926   5.428   0.627   3.688
 3640TIP3    H210927   5.424   0.752   3.603
 3641TIP3   OH210928   2.989   5.085   5.136
 3641TIP3    H110929   2.955   5.021   5.199
 3641TIP3    H210930   3.061   5.040   5.094
 3642TIP3   OH210931   3.684   4.025   4.991
 3642TIP3    H110932   3.614   4.007   5.053
 3642TIP3    H210933   3.749   4.073   5.042
 3643TIP3   OH210934   5.403   0.581   1.137
 3643TIP3    H110935   5.450   0.627   1.207
 3643TIP3    H210936   5.318   0.559   1.175
 3644TIP3   OH210937   1.230   4.849   2.916
 3644TIP3    H110938   1.268   4.791   2.982
 3644TIP3    H210939   1.246   4.937   2.950
 3645TIP3   OH210940   4.062   1.846   0.931
 3645TIP3    H110941   4.136   1.798   0.968
 3645TIP3    H210942   4.054   1.924   0.985
 3646TIP3   OH210943   3.372   2.629   2.508
 3646TIP3    H110944   3.408   2.615   2.420
 3646TIP3    H210945   3.380   2.724   2.522
 3647TIP3   OH210946   6.231   1.785   2.351
 3647TIP3    H110947   6.264   1.716   2.409
 3647TIP3    H210948   6.187   1.737   2.280
 3648TIP3   OH210949   2.239   1.671   4.665
 3648TIP3    H110950   2.178   1.603   4.695
 3648TIP3    H210951   2.271   1.712   4.745
 3649TIP3   OH210952   0.978   1.122   2.078
 3649TIP3    H110953   0.995   1.216   2.079
 3649TIP3    H210954   0.887   1.114   2.108
 3650TIP3   OH210955   2.080   2.575   1.697
 3650TIP3    H110956   2.122   2.653   1.661
 3650TIP3    H210957   2.063   2.597   1.788
 3651TIP3   OH210958   4.212   1.950   0.713
 3651TIP3    H110959   4.146   1.908   0.768
 3651TIP3    H210960   4.279   1.883   0.699
 3652TIP3   OH210961   0.479   0.305   3.556
 3652TIP3    H110962   0.572   0.296   3.580
 3652TIP3    H210963   0.433   0.249   3.619
 3653TIP3   OH210964   4.730   5.244   0.462
 3653TIP3    H110965   4.822   5.257   0.483
 3653TIP3    H210966   4.729   5.163   0.410
 3654TIP3   OH210967   4.319   4.896   3.740
 3654TIP3    H110968   4.391   4.862   3.794
 3654TIP3    H210969   4.320   4.990   3.754
 3655TIP3   OH210970   4.902   4.159   4.420
 3655TIP3    H110971   4.920   4.155   4.514
 3655TIP3    H210972   4.919   4.250   4.397
 3656TIP3   OH210973   3.624   1.283   0.752
 3656TIP3    H110974   3.542   1.259   0.711
 3656TIP3    H210975   3.656   1.357   0.701
 3657TIP3   OH210976   5.410   2.476   4.790
 3657TIP3    H110977   5.372   2.552   4.835
 3657TIP3    H210978   5.448   2.423   4.861
 3658TIP3   OH210979   0.937   2.557   2.180
 3658TIP3    H110980   0.908   2.603   2.259
 3658TIP3    H210981   1.032   2.549   2.191
 3659TIP3   OH210982   0.866   5.357   1.153
 3659TIP3    H110983   0.803   5.416   1.111
 3659TIP3    H210984   0.853   5.273   1.109
 3660TIP3   OH210985   1.982   0.129   1.850
 3660TIP3    H110986   1.927   0.202   1.822
 3660TIP3    H210987   2.012   0.154   1.938
 3661TIP3   OH210988   5.198   2.892   3.837
 3661TIP3    H110989   5.256   2.967   3.855
 3661TIP3    H210990   5.119   2.931   3.801
 3662TIP3   OH210991   4.055   5.141   4.726
 3662TIP3    H110992   3.986   5.159   4.790
 3662TIP3    H210993   4.131   5.116   4.779
 3663TIP3   OH210994   2.762   0.332   4.311
 3663TIP3    H110995   2.809   0.388   4.250
 3663TIP3    H210996   2.828   0.269   4.341
 3664TIP3   OH210997   3.853   1.908   4.506
 3664TIP3    H110998   3.874   1.933   4.416
 3664TIP3    H210999   3.933   1.867   4.539
 3665TIP3   OH211000   6.078   4.060   0.863
 3665TIP3    H111001   6.065   3.989   0.925
 3665TIP3    H211002   5.998   4.064   0.812
 3666TIP3   OH211003   5.025   1.127   3.098
 3666TIP3    H111004   4.949   1.092   3.051
 3666TIP3    H211005   5.088   1.149   3.030
 3667TIP3   OH211006   2.490   1.034   2.934
 3667TIP3    H111007   2.400   1.019   2.963
 3667TIP3    H211008   2.493   1.126   2.909
 3668TIP3   OH211009   0.689   2.359   1.187
 3668TIP3    H111010   0.716   2.282   1.139
 3668TIP3    H211011   0.682   2.428   1.120
 3669TIP3   OH211012   5.027   3.213   0.455
 3669TIP3    H111013   5.072   3.273   0.395
 3669TIP3    H211014   4.950   3.261   0.485
 3670TIP3   OH211015   2.258   2.500   0.342
 3670TIP3    H111016   2.234   2.469   0.430
 3670TIP3    H211017   2.296   2.423   0.300
 3671TIP3   OH211018   2.434   5.689   1.516
 3671TIP3    H111019   2.526   5.686   1.488
 3671TIP3    H211020   2.386   5.644   1.445
 3672TIP3   OH211021   2.654   3.436   2.372
 3672TIP3    H111022   2.645   3.343   2.396
 3672TIP3    H211023   2.624   3.441   2.282
 3673TIP3   OH211024   3.284   2.010   2.600
 3673TIP3    H111025   3.328   2.071   2.541
 3673TIP3    H211026   3.209   1.977   2.550
 3674TIP3   OH211027   5.025   1.255   0.731
 3674TIP3    H111028   4.952   1.284   0.786
 3674TIP3    H211029   4.983   1.205   0.660
 3675TIP3   OH211030   4.064   0.179   5.027
 3675TIP3    H111031   4.137   0.230   4.994
 3675TIP3    H211032   4.035   0.225   5.106
 3676TIP3   OH211033   2.456   4.258   3.260
 3676TIP3    H111034   2.486   4.168   3.266
 3676TIP3    H211035   2.426   4.268   3.170
 3677TIP3   OH211036   4.354   5.470   4.431
 3677TIP3    H111037   4.276   5.442   4.480
 3677TIP3    H211038   4.343   5.431   4.344
 3678TIP3   OH211039   1.320   4.394   0.220
 3678TIP3    H111040   1.348   4.304   0.203
 3678TIP3    H211041   1.243   4.407   0.165
 3679TIP3   OH211042   2.079   0.948   3.412
 3679TIP3    H111043   2.160   0.970   3.458
 3679TIP3    H211044   2.017   0.926   3.483
 3680TIP3   OH211045   2.648   5.216   1.656
 3680TIP3    H111046   2.570   5.230   1.709
 3680TIP3    H211047   2.713   5.180   1.716
 3681TIP3   OH211048   1.165   3.771   1.553
 3681TIP3    H111049   1.185   3.678   1.567
 3681TIP3    H211050   1.251   3.814   1.557
 3682TIP3   OH211051   5.316   2.327   2.149
 3682TIP3    H111052   5.400   2.370   2.133
 3682TIP3    H211053   5.259   2.357   2.078
 3683TIP3   OH211054   3.408   5.749   0.925
 3683TIP3    H111055   3.444   5.820   0.871
 3683TIP3    H211056   3.326   5.784   0.959
 3684TIP3   OH211057   4.306   3.716   3.832
 3684TIP3    H111058   4.251   3.644   3.802
 3684TIP3    H211059   4.245   3.786   3.854
 3685TIP3   OH211060   0.630   0.366   2.039
 3685TIP3    H111061   0.642   0.423   1.963
 3685TIP3    H211062   0.662   0.281   2.010
 3686TIP3   OH211063   0.467   2.944   4.749
 3686TIP3    H111064   0.419   3.026   4.761
 3686TIP3    H211065   0.555   2.963   4.783
 3687TIP3   OH211066   1.376   5.610   1.517
 3687TIP3    H111067   1.461   5.630   1.479
 3687TIP3    H211068   1.391   5.535   1.574
 3688TIP3   OH211069   5.838   1.975   3.475
 3688TIP3    H111070   5.899   2.023   3.420
 3688TIP3    H211071   5.759   2.029   3.477
 3689TIP3   OH211072   0.610   3.022   0.598
 3689TIP3    H111073   0.655   3.107   0.600
 3689TIP3    H211074   0.631   2.986   0.512
 3690TIP3   OH211075   1.866   3.292   1.860
 3690TIP3    H111076   1.876   3.222   1.925
 3690TIP3    H211077   1.811   3.254   1.792
 3691TIP3   OH211078   3.006   2.243   1.641
 3691TIP3    H111079   2.945   2.190   1.692
 3691TIP3    H211080   3.032   2.186   1.568
 3692TIP3   OH211081   4.768   5.953   2.746
 3692TIP3    H111082   4.795   6.039   2.712
 3692TIP3    H211083   4.806   5.949   2.834
 3693TIP3   OH211084   6.329   0.181   1.967
 3693TIP3    H111085   6.269   0.164   1.895
 3693TIP3    H211086   6.283   0.244   2.023
 3694TIP3   OH211087   0.223   4.736   4.707
 3694TIP3    H111088   0.190   4.793   4.638
 3694TIP3    H211089   0.155   4.738   4.775
 3695TIP3   OH211090   6.043   2.847   4.352
 3695TIP3    H111091   6.014   2.922   4.299
 3695TIP3    H211092   6.008   2.865   4.439
 3696TIP3   OH211093   1.889   0.209   5.146
 3696TIP3    H111094   1.798   0.211   5.176
 3696TIP3    H211095   1.912   0.300   5.131
 3697TIP3   OH211096   4.985   3.181   4.004
 3697TIP3    H111097   4.999   3.271   3.975
 3697TIP3    H211098   5.064   3.160   4.054
 3698TIP3   OH211099   3.714   0.220   1.976
 3698TIP3    H111100   3.641   0.204   1.917
 3698TIP3    H211101   3.691   0.174   2.056
 3699TIP3   OH211102   3.847   0.117   0.839
 3699TIP3    H111103   3.800   0.036   0.860
 3699TIP3    H211104   3.818   0.180   0.905
 3700TIP3   OH211105   0.286   4.267   4.439
 3700TIP3    H111106   0.278   4.345   4.494
 3700TIP3    H211107   0.329   4.202   4.496
 3701TIP3   OH211108   1.357   0.361   2.933
 3701TIP3    H111109   1.446   0.352   2.901
 3701TIP3    H211110   1.309   0.289   2.891
 3702TIP3   OH211111   6.013   4.415   1.618
 3702TIP3    H111112   6.103   4.422   1.648
 3702TIP3    H211113   5.964   4.386   1.696
 3703TIP3   OH211114   5.638   0.694   1.006
 3703TIP3    H111115   5.730   0.668   1.005
 3703TIP3    H211116   5.591   0.617   1.039
 3704TIP3   OH211117   3.744   3.383   2.727
 3704TIP3    H111118   3.753   3.472   2.761
 3704TIP3    H211119   3.830   3.362   2.691
 3705TIP3   OH211120   5.999   0.608   4.076
 3705TIP3    H111121   6.051   0.529   4.087
 3705TIP3    H211122   6.062   0.676   4.050
 3706TIP3   OH211123   5.292   4.167   1.672
 3706TIP3    H111124   5.245   4.250   1.675
 3706TIP3    H211125   5.340   4.163   1.755
 3707TIP3   OH211126   1.153   4.462   0.703
 3707TIP3    H111127   1.209   4.527   0.661
 3707TIP3    H211128   1.120   4.409   0.630
 3708TIP3   OH211129   3.002   3.035   5.005
 3708TIP3    H111130   3.045   3.097   4.945
 3708TIP3    H211131   3.020   2.950   4.966
 3709TIP3   OH211132   5.994   1.612   4.319
 3709TIP3    H111133   6.052   1.544   4.353
 3709TIP3    H211134   5.967   1.662   4.396
 3710TIP3   OH211135   3.825   4.969   3.319
 3710TIP3    H111136   3.798   4.984   3.228
 3710TIP3    H211137   3.751   4.922   3.358
 3711TIP3   OH211138   5.145   5.592   4.659
 3711TIP3    H111139   5.055   5.622   4.672
 3711TIP3    H211140   5.157   5.523   4.724
 3712TIP3   OH211141   3.577   5.090   2.747
 3712TIP3    H111142   3.544   5.162   2.692
 3712TIP3    H211143   3.532   5.013   2.712
 3713TIP3   OH211144   1.931   4.880   0.533
 3713TIP3    H111145   2.013   4.875   0.483
 3713TIP3    H211146   1.957   4.860   0.623
 3714TIP3   OH211147   4.841   5.053   2.583
 3714TIP3    H111148   4.929   5.080   2.556
 3714TIP3    H211149   4.849   5.036   2.677
 3715TIP3   OH211150   5.989   4.518   4.757
 3715TIP3    H111151   5.999   4.466   4.837
 3715TIP3    H211152   6.078   4.528   4.723
 3716TIP3   OH211153   5.853   3.782   0.141
 3716TIP3    H111154   5.923   3.717   0.151
 3716TIP3    H211155   5.887   3.845   0.079
 3717TIP3   OH211156   4.731   3.792   5.209
 3717TIP3    H111157   4.745   3.864   5.148
 3717TIP3    H211158   4.697   3.721   5.155
 3718TIP3   OH211159   1.888   2.482   0.188
 3718TIP3    H111160   1.913   2.463   0.098
 3718TIP3    H211161   1.815   2.423   0.206
 3719TIP3   OH211162   4.711   1.597   5.098
 3719TIP3    H111163   4.704   1.684   5.057
 3719TIP3    H211164   4.692   1.612   5.191
 3720TIP3   OH211165   0.477   0.372   3.950
 3720TIP3    H111166   0.516   0.285   3.953
 3720TIP3    H211167   0.514   0.413   3.872
 3721TIP3   OH211168   5.605   5.886   3.998
 3721TIP3    H111169   5.613   5.869   3.904
 3721TIP3    H211170   5.687   5.930   4.021
 3722TIP3   OH211171   3.066   4.754   2.460
 3722TIP3    H111172   2.972   4.738   2.471
 3722TIP3    H211173   3.106   4.719   2.539
 3723TIP3   OH211174   0.827   2.648   3.556
 3723TIP3    H111175   0.844   2.730   3.511
 3723TIP3    H211176   0.828   2.670   3.649
 3724TIP3   OH211177   0.366   0.699   0.120
 3724TIP3    H111178   0.363   0.650   0.202
 3724TIP3    H211179   0.430   0.653   0.067
 3725TIP3   OH211180   5.310   1.602   0.031
 3725TIP3    H111181   5.385   1.572  -0.020
 3725TIP3    H211182   5.289   1.688  -0.004
 3726TIP3   OH211183   0.484   0.914   0.859
 3726TIP3    H111184   0.518   1.000   0.836
 3726TIP3    H211185   0.563   0.860   0.871
 3727TIP3   OH211186   4.769   3.138   3.840
 3727TIP3    H111187   4.806   3.223   3.864
 3727TIP3    H211188   4.844   3.085   3.814
 3728TIP3   OH211189   5.202   1.628   1.904
 3728TIP3    H111190   5.131   1.580   1.862
 3728TIP3    H211191   5.219   1.580   1.984
 3729TIP3   OH211192   3.154   1.911   2.845
 3729TIP3    H111193   3.079   1.968   2.828
 3729TIP3    H211194   3.208   1.918   2.766
 3730TIP3   OH211195   2.137   5.832   4.022
 3730TIP3    H111196   2.078   5.824   3.946
 3730TIP3    H211197   2.112   5.759   4.079
 3731TIP3   OH211198   1.917   4.421   4.252
 3731TIP3    H111199   1.888   4.504   4.215
 3731TIP3    H211200   1.838   4.385   4.293
 3732TIP3   OH211201   3.464   5.149   4.715
 3732TIP3    H111202   3.548   5.111   4.689
 3732TIP3    H211203   3.414   5.076   4.751
 3733TIP3   OH211204   3.407   3.741   1.195
 3733TIP3    H111205   3.429   3.752   1.102
 3733TIP3    H211206   3.312   3.748   1.198
 3734TIP3   OH211207   4.800   4.884   1.236
 3734TIP3    H111208   4.875   4.861   1.290
 3734TIP3    H211209   4.831   4.956   1.180
 3735TIP3   OH211210   2.110   2.163   2.419
 3735TIP3    H111211   2.024   2.122   2.414
 3735TIP3    H211212   2.170   2.091   2.439
 3736TIP3   OH211213   4.742   2.989   1.913
 3736TIP3    H111214   4.656   2.968   1.876
 3736TIP3    H211215   4.769   2.909   1.958
 3737TIP3   OH211216   0.109   3.797   5.041
 3737TIP3    H111217   0.144   3.792   4.953
 3737TIP3    H211218   0.035   3.737   5.041
 3738TIP3   OH211219   6.281   0.085   0.796
 3738TIP3    H111220   6.199   0.070   0.750
 3738TIP3    H211221   6.278   0.024   0.870
 3739TIP3   OH211222   3.634   1.399   4.196
 3739TIP3    H111223   3.602   1.438   4.114
 3739TIP3    H211224   3.556   1.362   4.237
 3740TIP3   OH211225   2.963   1.082   3.635
 3740TIP3    H111226   2.992   1.088   3.726
 3740TIP3    H211227   2.885   1.026   3.639
 3741TIP3   OH211228   5.036   5.338   3.030
 3741TIP3    H111229   5.108   5.339   2.967
 3741TIP3    H211230   4.958   5.319   2.978
 3742TIP3   OH211231   2.904   2.512   1.754
 3742TIP3    H111232   2.984   2.464   1.775
 3742TIP3    H211233   2.934   2.590   1.709
 3743TIP3   OH211234   6.109   1.591   2.144
 3743TIP3    H111235   6.182   1.530   2.153
 3743TIP3    H211236   6.060   1.559   2.068
 3744TIP3   OH211237   6.138   2.342   3.791
 3744TIP3    H111238   6.082   2.417   3.769
 3744TIP3    H211239   6.120   2.278   3.723
 3745TIP3   OH211240   5.992   2.980   1.975
 3745TIP3    H111241   6.019   3.048   2.036
 3745TIP3    H211242   6.071   2.963   1.922
 3746TIP3   OH211243   5.440   5.129   0.203
 3746TIP3    H111244   5.371   5.185   0.166
 3746TIP3    H211245   5.521   5.175   0.181
 3747TIP3   OH211246   2.307   2.711   3.122
 3747TIP3    H111247   2.355   2.784   3.162
 3747TIP3    H211248   2.270   2.663   3.196
 3748TIP3   OH211249   5.533   1.761   3.030
 3748TIP3    H111250   5.499   1.850   3.033
 3748TIP3    H211251   5.484   1.714   3.098
 3749TIP3   OH211252   1.416   2.198   0.141
 3749TIP3    H111253   1.352   2.140   0.183
 3749TIP3    H211254   1.490   2.141   0.119
 3750TIP3   OH211255   4.147   1.076   0.306
 3750TIP3    H111256   4.160   1.102   0.397
 3750TIP3    H211257   4.091   0.999   0.311
 3751TIP3   OH211258   1.107   3.789   1.873
 3751TIP3    H111259   1.138   3.710   1.827
 3751TIP3    H211260   1.046   3.756   1.939
 3752TIP3   OH211261   0.913   4.824   2.438
 3752TIP3    H111262   0.923   4.739   2.481
 3752TIP3    H211263   0.828   4.819   2.396
 3753TIP3   OH211264   4.591   2.912   5.109
 3753TIP3    H111265   4.524   2.859   5.152
 3753TIP3    H211266   4.654   2.848   5.074
 3754TIP3   OH211267   3.005   4.334   3.256
 3754TIP3    H111268   3.097   4.352   3.274
 3754TIP3    H211269   2.959   4.410   3.291
 3755TIP3   OH211270   4.229   1.934   3.959
 3755TIP3    H111271   4.317   1.930   3.922
 3755TIP3    H211272   4.241   1.981   4.042
 3756TIP3   OH211273   1.284   5.229   1.426
 3756TIP3    H111274   1.189   5.230   1.414
 3756TIP3    H211275   1.318   5.283   1.355
 3757TIP3   OH211276   5.118   3.323   0.714
 3757TIP3    H111277   5.099   3.289   0.626
 3757TIP3    H211278   5.038   3.368   0.740
 3758TIP3   OH211279   4.720   4.657   1.575
 3758TIP3    H111280   4.813   4.680   1.572
 3758TIP3    H211281   4.718   4.568   1.610
 3759TIP3   OH211282   4.533   0.985   3.746
 3759TIP3    H111283   4.523   0.918   3.678
 3759TIP3    H211284   4.612   1.032   3.722
 3760TIP3   OH211285   6.256   2.095   3.311
 3760TIP3    H111286   6.327   2.034   3.332
 3760TIP3    H211287   6.299   2.165   3.261
 3761TIP3   OH211288   5.734   4.407   2.746
 3761TIP3    H111289   5.775   4.385   2.662
 3761TIP3    H211290   5.712   4.500   2.738
 3762TIP3   OH211291   5.445   2.963   1.162
 3762TIP3    H111292   5.484   2.977   1.248
 3762TIP3    H211293   5.370   2.905   1.179
 3763TIP3   OH211294   5.031   0.675   3.097
 3763TIP3    H111295   5.025   0.653   3.190
 3763TIP3    H211296   5.103   0.620   3.064
 3764TIP3   OH211297   2.222   0.637   5.166
 3764TIP3    H111298   2.186   0.665   5.082
 3764TIP3    H211299   2.312   0.611   5.147
 3765TIP3   OH211300   5.722   5.523   1.167
 3765TIP3    H111301   5.750   5.612   1.188
 3765TIP3    H211302   5.726   5.476   1.251
 3766TIP3   OH211303   0.910   2.715   0.744
 3766TIP3    H111304   0.909   2.706   0.839
 3766TIP3    H211305   0.900   2.809   0.729
 3767TIP3   OH211306   4.048   0.725   2.194
 3767TIP3    H111307   4.090   0.712   2.108
 3767TIP3    H211308   4.112   0.691   2.257
 3768TIP3   OH211309   2.754   2.064   3.634
 3768TIP3    H111310   2.770   1.972   3.615
 3768TIP3    H211311   2.834   2.109   3.606
 3769TIP3   OH211312   2.269   3.581   4.956
 3769TIP3    H111313   2.189   3.550   4.914
 3769TIP3    H211314   2.321   3.502   4.970
 3770TIP3   OH211315   1.194   3.486   2.325
 3770TIP3    H111316   1.163   3.569   2.362
 3770TIP3    H211317   1.280   3.507   2.287
 3771TIP3   OH211318   4.496   5.259   3.709
 3771TIP3    H111319   4.514   5.353   3.706
 3771TIP3    H211320   4.529   5.226   3.626
 3772TIP3   OH211321   1.981   5.288   3.816
 3772TIP3    H111322   2.001   5.229   3.744
 3772TIP3    H211323   1.923   5.239   3.873
 3773TIP3   OH211324   1.729   0.694   0.554
 3773TIP3    H111325   1.654   0.696   0.494
 3773TIP3    H211326   1.757   0.785   0.561
 3774TIP3   OH211327   1.139   2.838   1.360
 3774TIP3    H111328   1.181   2.919   1.390
 3774TIP3    H211329   1.046   2.860   1.353
 3775TIP3   OH211330   2.875   1.583   1.339
 3775TIP3    H111331   2.803   1.557   1.283
 3775TIP3    H211332   2.842   1.570   1.428
 3776TIP3   OH211333   4.351   2.828   2.380
 3776TIP3    H111334   4.339   2.923   2.383
 3776TIP3    H211335   4.431   2.815   2.330
 3777TIP3   OH211336   4.351   2.293   4.906
 3777TIP3    H111337   4.322   2.207   4.874
 3777TIP3    H211338   4.313   2.301   4.993
 3778TIP3   OH211339   3.797   2.307   3.980
 3778TIP3    H111340   3.794   2.387   4.033
 3778TIP3    H211341   3.810   2.339   3.891
 3779TIP3   OH211342   2.182   4.976   4.141
 3779TIP3    H111343   2.187   5.070   4.129
 3779TIP3    H211344   2.169   4.941   4.052
 3780TIP3   OH211345   5.077   4.381   4.330
 3780TIP3    H111346   5.070   4.447   4.398
 3780TIP3    H211347   5.023   4.414   4.258
 3781TIP3   OH211348   1.285   3.356   3.404
 3781TIP3    H111349   1.247   3.276   3.366
 3781TIP3    H211350   1.217   3.422   3.394
 3782TIP3   OH211351   5.650   0.791   2.569
 3782TIP3    H111352   5.574   0.795   2.626
 3782TIP3    H211353   5.614   0.773   2.482
 3783TIP3   OH211354   3.737   0.618   1.212
 3783TIP3    H111355   3.731   0.536   1.261
 3783TIP3    H211356   3.825   0.618   1.174
 3784TIP3   OH211357   0.517   4.485   4.741
 3784TIP3    H111358   0.606   4.467   4.771
 3784TIP3    H211359   0.467   4.407   4.767
 3785TIP3   OH211360   3.392   5.713   2.504
 3785TIP3    H111361   3.372   5.782   2.441
 3785TIP3    H211362   3.404   5.759   2.587
 3786TIP3   OH211363   5.170   5.610   3.541
 3786TIP3    H111364   5.117   5.634   3.465
 3786TIP3    H211365   5.120   5.539   3.583
 3787TIP3   OH211366   0.476   3.319   0.202
 3787TIP3    H111367   0.519   3.399   0.232
 3787TIP3    H211368   0.507   3.307   0.112
 3788TIP3   OH211369   1.736   3.142   1.633
 3788TIP3    H111370   1.809   3.092   1.597
 3788TIP3    H211371   1.724   3.215   1.571
 3789TIP3   OH211372   3.755   2.860   3.043
 3789TIP3    H111373   3.726   2.867   2.952
 3789TIP3    H211374   3.720   2.776   3.073
 3790TIP3   OH211375   1.493   1.470   4.113
 3790TIP3    H111376   1.547   1.525   4.169
 3790TIP3    H211377   1.549   1.396   4.089
 3791TIP3   OH211378   0.888   1.891   5.134
 3791TIP3    H111379   0.872   1.917   5.043
 3791TIP3    H211380   0.941   1.811   5.126
 3792TIP3   OH211381   4.068   5.161   3.061
 3792TIP3    H111382   4.035   5.104   3.131
 3792TIP3    H211383   4.035   5.248   3.083
 3793TIP3   OH211384   2.839   5.736   4.380
 3793TIP3    H111385   2.772   5.668   4.389
 3793TIP3    H211386   2.920   5.693   4.406
 3794TIP3   OH211387   3.774   5.219   0.535
 3794TIP3    H111388   3.787   5.159   0.609
 3794TIP3    H211389   3.683   5.245   0.542
 3795TIP3   OH211390   2.771   1.257   0.442
 3795TIP3    H111391   2.811   1.323   0.498
 3795TIP3    H211392   2.681   1.250   0.475
 3796TIP3   OH211393   2.470   2.781   5.118
 3796TIP3    H111394   2.423   2.840   5.059
 3796TIP3    H211395   2.556   2.820   5.129
 3797TIP3   OH211396   1.506   4.625   4.789
 3797TIP3    H111397   1.432   4.680   4.764
 3797TIP3    H211398   1.523   4.646   4.881
 3798TIP3   OH211399   1.944   3.596   2.641
 3798TIP3    H111400   1.947   3.686   2.673
 3798TIP3    H211401   1.905   3.546   2.713
 3799TIP3   OH211402   3.549   3.491   3.090
 3799TIP3    H111403   3.636   3.450   3.092
 3799TIP3    H211404   3.499   3.444   3.156
 3800TIP3   OH211405   0.958   5.138   1.758
 3800TIP3    H111406   1.013   5.205   1.799
 3800TIP3    H211407   1.013   5.060   1.755
 3801TIP3   OH211408   6.068   3.861   4.753
 3801TIP3    H111409   5.996   3.876   4.692
 3801TIP3    H211410   6.087   3.767   4.746
 3802TIP3   OH211411   0.883   4.043   0.690
 3802TIP3    H111412   0.853   4.001   0.610
 3802TIP3    H211413   0.977   4.056   0.677
 3803TIP3   OH211414   2.725   0.831   2.095
 3803TIP3    H111415   2.670   0.834   2.018
 3803TIP3    H211416   2.738   0.923   2.119
 3804TIP3   OH211417   5.203   5.187   4.221
 3804TIP3    H111418   5.190   5.279   4.202
 3804TIP3    H211419   5.252   5.153   4.146
 3805TIP3   OH211420   4.489   4.712   5.120
 3805TIP3    H111421   4.428   4.706   5.194
 3805TIP3    H211422   4.533   4.796   5.133
 3806TIP3   OH211423   1.274   0.373   3.196
 3806TIP3    H111424   1.190   0.357   3.153
 3806TIP3    H211425   1.338   0.377   3.124
 3807TIP3   OH211426   6.183   0.933   2.654
 3807TIP3    H111427   6.091   0.923   2.631
 3807TIP3    H211428   6.229   0.931   2.570
 3808TIP3   OH211429   4.357   5.225   0.567
 3808TIP3    H111430   4.294   5.188   0.629
 3808TIP3    H211431   4.440   5.181   0.588
 3809TIP3   OH211432   3.250   0.348   3.087
 3809TIP3    H111433   3.171   0.388   3.049
 3809TIP3    H211434   3.295   0.420   3.130
 3810TIP3   OH211435   5.910   0.178   2.437
 3810TIP3    H111436   5.921   0.269   2.411
 3810TIP3    H211437   5.998   0.140   2.429
 3811TIP3   OH211438   1.805   5.540   4.039
 3811TIP3    H111439   1.754   5.459   4.044
 3811TIP3    H211440   1.814   5.556   3.945
 3812TIP3   OH211441   1.657   1.013   3.608
 3812TIP3    H111442   1.572   1.016   3.651
 3812TIP3    H211443   1.643   1.053   3.522
 3813TIP3   OH211444   0.584   5.543   4.605
 3813TIP3    H111445   0.604   5.453   4.580
 3813TIP3    H211446   0.552   5.536   4.695
 3814TIP3   OH211447   5.171   2.046   4.370
 3814TIP3    H111448   5.231   2.037   4.444
 3814TIP3    H211449   5.156   2.140   4.362
 3815TIP3   OH211450   0.482   0.536   2.245
 3815TIP3    H111451   0.548   0.498   2.302
 3815TIP3    H211452   0.501   0.499   2.159
 3816TIP3   OH211453   4.175   2.710   2.046
 3816TIP3    H111454   4.120   2.665   2.109
 3816TIP3    H211455   4.121   2.781   2.012
 3817TIP3   OH211456   2.607   5.574   0.941
 3817TIP3    H111457   2.591   5.547   1.031
 3817TIP3    H211458   2.574   5.502   0.888
 3818TIP3   OH211459   0.894   1.165   1.619
 3818TIP3    H111460   0.894   1.239   1.678
 3818TIP3    H211461   0.985   1.135   1.617
 3819TIP3   OH211462   1.772   4.022   2.966
 3819TIP3    H111463   1.796   4.111   2.991
 3819TIP3    H211464   1.682   4.012   2.996
 3820TIP3   OH211465   4.177   0.132   2.019
 3820TIP3    H111466   4.237   0.058   2.007
 3820TIP3    H211467   4.229   0.209   1.997
 3821TIP3   OH211468   1.817   1.728   1.343
 3821TIP3    H111469   1.823   1.744   1.249
 3821TIP3    H211470   1.883   1.786   1.381
 3822TIP3   OH211471   4.384   4.192   1.410
 3822TIP3    H111472   4.331   4.200   1.330
 3822TIP3    H211473   4.473   4.178   1.379
 3823TIP3   OH211474   3.644   5.535   3.152
 3823TIP3    H111475   3.567   5.591   3.161
 3823TIP3    H211476   3.708   5.572   3.212
 3824TIP3   OH211477   2.770   3.310   1.739
 3824TIP3    H111478   2.675   3.307   1.725
 3824TIP3    H211479   2.790   3.404   1.743
 3825TIP3   OH211480   5.630   2.058   2.180
 3825TIP3    H111481   5.547   2.100   2.203
 3825TIP3    H211482   5.654   2.096   2.096
 3826TIP3   OH211483   4.679   2.562   4.212
 3826TIP3    H111484   4.674   2.630   4.279
 3826TIP3    H211485   4.670   2.480   4.260
 3827TIP3   OH211486   0.068   1.210   0.570
 3827TIP3    H111487   0.159   1.181   0.583
 3827TIP3    H211488   0.058   1.286   0.627
 3828TIP3   OH211489   1.460   1.369   3.361
 3828TIP3    H111490   1.459   1.352   3.455
 3828TIP3    H211491   1.369   1.390   3.339
 3829TIP3   OH211492   0.612   5.517   2.321
 3829TIP3    H111493   0.530   5.566   2.327
 3829TIP3    H211494   0.591   5.430   2.353
 3830TIP3   OH211495   2.775   4.770   1.710
 3830TIP3    H111496   2.774   4.693   1.767
 3830TIP3    H211497   2.804   4.737   1.625
 3831TIP3   OH211498   3.938   4.358   1.507
 3831TIP3    H111499   3.874   4.288   1.493
 3831TIP3    H211500   3.932   4.412   1.428
 3832TIP3   OH211501   5.895   0.964   3.027
 3832TIP3    H111502   5.831   0.919   2.972
 3832TIP3    H211503   5.862   1.054   3.033
 3833TIP3   OH211504   1.962   1.908   2.642
 3833TIP3    H111505   2.034   1.931   2.584
 3833TIP3    H211506   1.984   1.821   2.675
 3834TIP3   OH211507   2.402   4.956   3.307
 3834TIP3    H111508   2.453   5.035   3.326
 3834TIP3    H211509   2.327   4.962   3.366
 3835TIP3   OH211510   2.551   0.824   1.865
 3835TIP3    H111511   2.458   0.816   1.843
 3835TIP3    H211512   2.563   0.917   1.885
 3836TIP3   OH211513   2.155   4.546   5.014
 3836TIP3    H111514   2.170   4.641   5.010
 3836TIP3    H211515   2.241   4.507   4.998
 3837TIP3   OH211516   5.948   0.369   3.654
 3837TIP3    H111517   6.002   0.380   3.733
 3837TIP3    H211518   5.884   0.303   3.678
 3838TIP3   OH211519   3.563   1.676   2.053
 3838TIP3    H111520   3.585   1.769   2.065
 3838TIP3    H211521   3.646   1.635   2.028
 3839TIP3   OH211522   1.426   1.212   1.980
 3839TIP3    H111523   1.397   1.139   2.034
 3839TIP3    H211524   1.413   1.181   1.890
 3840TIP3   OH211525   3.656   2.812   0.638
 3840TIP3    H111526   3.591   2.760   0.683
 3840TIP3    H211527   3.617   2.900   0.631
 3841TIP3   OH211528   5.297   0.012   1.375
 3841TIP3    H111529   5.380  -0.015   1.336
 3841TIP3    H211530   5.296   0.107   1.368
 3842TIP3   OH211531   2.104   3.230   1.539
 3842TIP3    H111532   2.110   3.264   1.628
 3842TIP3    H211533   2.159   3.290   1.487
 3843TIP3   OH211534   2.327   0.044   3.340
 3843TIP3    H111535   2.234   0.027   3.352
 3843TIP3    H211536   2.371  -0.027   3.388
 3844TIP3   OH211537   2.007   4.820   1.257
 3844TIP3    H111538   1.925   4.866   1.242
 3844TIP3    H211539   2.074   4.887   1.251
 3845TIP3   OH211540   6.205   1.855   1.348
 3845TIP3    H111541   6.271   1.786   1.353
 3845TIP3    H211542   6.236   1.922   1.408
 3846TIP3   OH211543   1.922   2.497   3.444
 3846TIP3    H111544   1.897   2.404   3.448
 3846TIP3    H211545   1.971   2.511   3.525
 3847TIP3   OH211546   0.726   3.258   3.523
 3847TIP3    H111547   0.820   3.267   3.540
 3847TIP3    H211548   0.719   3.186   3.461
 3848TIP3   OH211549   1.529   3.731   3.836
 3848TIP3    H111550   1.560   3.738   3.926
 3848TIP3    H211551   1.574   3.654   3.801
 3849TIP3   OH211552   2.548   4.889   4.591
 3849TIP3    H111553   2.497   4.809   4.593
 3849TIP3    H211554   2.541   4.925   4.679
 3850TIP3   OH211555   3.368   0.475   4.837
 3850TIP3    H111556   3.434   0.488   4.905
 3850TIP3    H211557   3.365   0.380   4.824
 3851TIP3   OH211558   0.735   1.036   5.016
 3851TIP3    H111559   0.772   1.026   5.104
 3851TIP3    H211560   0.704   1.127   5.014
 3852TIP3   OH211561   1.140   2.309   2.144
 3852TIP3    H111562   1.169   2.397   2.168
 3852TIP3    H211563   1.158   2.303   2.050
 3853TIP3   OH211564   5.847   3.010   0.227
 3853TIP3    H111565   5.805   3.066   0.162
 3853TIP3    H211566   5.776   2.983   0.285
 3854TIP3   OH211567   5.304   5.369   3.813
 3854TIP3    H111568   5.310   5.296   3.750
 3854TIP3    H211569   5.211   5.385   3.823
 3855TIP3   OH211570   2.426   5.011   3.673
 3855TIP3    H111571   2.402   5.102   3.656
 3855TIP3    H211572   2.349   4.960   3.644
 3856TIP3   OH211573   1.868   5.513   5.027
 3856TIP3    H111574   1.817   5.589   4.998
 3856TIP3    H211575   1.931   5.498   4.957
 3857TIP3   OH211576   4.183   5.912   1.684
 3857TIP3    H111577   4.226   5.832   1.714
 3857TIP3    H211578   4.252   5.963   1.643
 3858TIP3   OH211579   0.753   0.907   4.503
 3858TIP3    H111580   0.829   0.858   4.535
 3858TIP3    H211581   0.680   0.878   4.558
 3859TIP3   OH211582   4.652   4.231   3.143
 3859TIP3    H111583   4.593   4.282   3.197
 3859TIP3    H211584   4.629   4.255   3.053
 3860TIP3   OH211585   2.944   0.906   1.401
 3860TIP3    H111586   3.002   0.978   1.425
 3860TIP3    H211587   2.920   0.866   1.485
 3861TIP3   OH211588   1.941   3.552   3.258
 3861TIP3    H111589   1.998   3.598   3.197
 3861TIP3    H211590   1.868   3.521   3.204
 3862TIP3   OH211591   2.561   0.387   2.301
 3862TIP3    H111592   2.562   0.410   2.208
 3862TIP3    H211593   2.619   0.311   2.308
 3863TIP3   OH211594   3.477   1.923   4.788
 3863TIP3    H111595   3.531   1.862   4.838
 3863TIP3    H211596   3.527   2.005   4.789
 3864TIP3   OH211597   1.480   4.974   3.230
 3864TIP3    H111598   1.390   4.949   3.252
 3864TIP3    H211599   1.516   4.898   3.185
 3865TIP3   OH211600   1.988   5.333   1.178
 3865TIP3    H111601   1.979   5.408   1.119
 3865TIP3    H211602   2.024   5.371   1.258
 3866TIP3   OH211603   2.196   0.115   2.446
 3866TIP3    H111604   2.151   0.096   2.363
 3866TIP3    H211605   2.235   0.031   2.471
 3867TIP3   OH211606   0.425   2.598   2.714
 3867TIP3    H111607   0.369   2.520   2.723
 3867TIP3    H211608   0.366   2.672   2.730
 3868TIP3   OH211609   0.006   2.935   4.868
 3868TIP3    H111610   0.076   2.941   4.933
 3868TIP3    H211611   0.046   2.965   4.786
 3869TIP3   OH211612   5.607   4.577   0.867
 3869TIP3    H111613   5.578   4.617   0.785
 3869TIP3    H211614   5.667   4.508   0.840
 3870TIP3   OH211615   5.177   5.392   4.848
 3870TIP3    H111616   5.107   5.327   4.849
 3870TIP3    H211617   5.221   5.381   4.932
 3871TIP3   OH211618   2.345   4.029   2.001
 3871TIP3    H111619   2.292   4.017   2.080
 3871TIP3    H211620   2.290   3.995   1.930
 3872TIP3   OH211621   3.042   3.309   0.952
 3872TIP3    H111622   2.993   3.227   0.966
 3872TIP3    H211623   3.059   3.311   0.858
 3873TIP3   OH211624   3.372   3.871   4.422
 3873TIP3    H111625   3.467   3.874   4.413
 3873TIP3    H211626   3.358   3.849   4.515
 3874TIP3   OH211627   2.564   1.489   0.500
 3874TIP3    H111628   2.521   1.504   0.584
 3874TIP3    H211629   2.639   1.549   0.500
 3875TIP3   OH211630   5.692   3.366   4.919
 3875TIP3    H111631   5.623   3.379   4.984
 3875TIP3    H211632   5.746   3.444   4.925
 3876TIP3   OH211633   0.580   3.313   4.206
 3876TIP3    H111634   0.648   3.380   4.208
 3876TIP3    H211635   0.627   3.230   4.203
 3877TIP3   OH211636   4.389   4.638   3.552
 3877TIP3    H111637   4.400   4.543   3.544
 3877TIP3    H211638   4.441   4.662   3.628
 3878TIP3   OH211639   3.573   5.752   2.106
 3878TIP3    H111640   3.620   5.772   2.025
 3878TIP3    H211641   3.614   5.808   2.172
 3879TIP3   OH211642   1.680   5.410   1.039
 3879TIP3    H111643   1.757   5.444   1.084
 3879TIP3    H211644   1.716   5.364   0.962
 3880TIP3   OH211645   1.432   3.262   2.806
 3880TIP3    H111646   1.524   3.286   2.794
 3880TIP3    H211647   1.429   3.223   2.894
 3881TIP3   OH211648   2.293   2.966   5.027
 3881TIP3    H111649   2.259   3.025   5.095
 3881TIP3    H211650   2.215   2.939   4.978
 3882TIP3   OH211651   0.735   4.037   3.737
 3882TIP3    H111652   0.726   3.999   3.825
 3882TIP3    H211653   0.820   4.079   3.737
 3883TIP3   OH211654   1.900   2.502   2.429
 3883TIP3    H111655   1.837   2.433   2.410
 3883TIP3    H211656   1.980   2.475   2.384
 3884TIP3   OH211657   2.088   1.965   3.164
 3884TIP3    H111658   2.097   1.872   3.142
 3884TIP3    H211659   2.081   1.966   3.259
 3885TIP3   OH211660   0.144   3.662   0.905
 3885TIP3    H111661   0.114   3.580   0.943
 3885TIP3    H211662   0.124   3.655   0.812
 3886TIP3   OH211663   2.131   3.892   0.151
 3886TIP3    H111664   2.147   3.970   0.098
 3886TIP3    H211665   2.177   3.910   0.233
 3887TIP3   OH211666   0.261   3.375   1.062
 3887TIP3    H111667   0.304   3.328   1.134
 3887TIP3    H211668   0.301   3.339   0.983
 3888TIP3   OH211669   0.466   4.155   4.614
 3888TIP3    H111670   0.514   4.193   4.687
 3888TIP3    H211671   0.513   4.186   4.536
 3889TIP3   OH211672   1.565   1.682   0.344
 3889TIP3    H111673   1.657   1.683   0.372
 3889TIP3    H211674   1.555   1.760   0.289
 3890TIP3   OH211675   5.330   2.630   0.091
 3890TIP3    H111676   5.291   2.567   0.030
 3890TIP3    H211677   5.422   2.634   0.066
 3891TIP3   OH211678   4.328   2.368   3.484
 3891TIP3    H111679   4.344   2.374   3.579
 3891TIP3    H211680   4.416   2.365   3.446
 3892TIP3   OH211681   5.338   4.700   1.959
 3892TIP3    H111682   5.358   4.725   1.869
 3892TIP3    H211683   5.325   4.782   2.005
 3893TIP3   OH211684   4.716   2.517   4.763
 3893TIP3    H111685   4.684   2.569   4.690
 3893TIP3    H211686   4.636   2.479   4.802
 3894TIP3   OH211687   5.650   4.079   4.456
 3894TIP3    H111688   5.657   4.125   4.373
 3894TIP3    H211689   5.557   4.085   4.480
 3895TIP3   OH211690   6.192   2.726   4.060
 3895TIP3    H111691   6.140   2.675   4.123
 3895TIP3    H211692   6.280   2.689   4.066
 3896TIP3   OH211693   1.013   5.223   1.365
 3896TIP3    H111694   0.951   5.206   1.436
 3896TIP3    H211695   0.965   5.279   1.304
 3897TIP3   OH211696   5.330   1.894   0.007
 3897TIP3    H111697   5.368   1.908   0.094
 3897TIP3    H211698   5.247   1.943   0.009
 3898TIP3   OH211699   0.549   2.086   3.734
 3898TIP3    H111700   0.530   2.166   3.782
 3898TIP3    H211701   0.498   2.093   3.654
 3899TIP3   OH211702   2.592   3.883   2.960
 3899TIP3    H111703   2.589   3.880   3.056
 3899TIP3    H211704   2.506   3.916   2.935
 3900TIP3   OH211705   3.148   1.573   1.194
 3900TIP3    H111706   3.058   1.543   1.197
 3900TIP3    H211707   3.185   1.531   1.116
 3901TIP3   OH211708   2.630   3.167   3.186
 3901TIP3    H111709   2.540   3.197   3.172
 3901TIP3    H211710   2.621   3.073   3.204
 3902TIP3   OH211711   0.175   4.887   3.016
 3902TIP3    H111712   0.140   4.895   2.927
 3902TIP3    H211713   0.243   4.820   3.009
 3903TIP3   OH211714   5.246   0.463   3.066
 3903TIP3    H111715   5.316   0.402   3.088
 3903TIP3    H211716   5.194   0.418   2.999
 3904TIP3   OH211717   3.682   5.448   4.592
 3904TIP3    H111718   3.713   5.531   4.630
 3904TIP3    H211719   3.680   5.387   4.666
 3905TIP3   OH211720   2.908   5.239   4.090
 3905TIP3    H111721   2.940   5.313   4.039
 3905TIP3    H211722   2.850   5.192   4.031
 3906TIP3   OH211723   4.705   1.099   2.684
 3906TIP3    H111724   4.702   1.099   2.588
 3906TIP3    H211725   4.620   1.134   2.711
 3907TIP3   OH211726   6.235   2.499   2.641
 3907TIP3    H111727   6.158   2.443   2.632
 3907TIP3    H211728   6.235   2.553   2.562
 3908TIP3   OH211729   5.970   3.543   3.154
 3908TIP3    H111730   6.051   3.533   3.205
 3908TIP3    H211731   5.983   3.624   3.104
 3909TIP3   OH211732   1.220   1.902   3.543
 3909TIP3    H111733   1.140   1.876   3.498
 3909TIP3    H211734   1.287   1.842   3.510
 3910TIP3   OH211735   1.644   0.631   4.767
 3910TIP3    H111736   1.558   0.671   4.777
 3910TIP3    H211737   1.627   0.537   4.768
 3911TIP3   OH211738   5.254   0.526   3.737
 3911TIP3    H111739   5.185   0.497   3.678
 3911TIP3    H211740   5.235   0.619   3.753
 3912TIP3   OH211741   6.120   2.112   2.995
 3912TIP3    H111742   6.030   2.134   2.969
 3912TIP3    H211743   6.159   2.196   3.017
 3913TIP3   OH211744   1.496   1.671   3.020
 3913TIP3    H111745   1.413   1.627   3.040
 3913TIP3    H211746   1.557   1.639   3.086
 3914TIP3   OH211747   4.702   1.582   2.172
 3914TIP3    H111748   4.635   1.649   2.181
 3914TIP3    H211749   4.659   1.511   2.126
 3915TIP3   OH211750   0.062   3.092   4.177
 3915TIP3    H111751   0.152   3.070   4.201
 3915TIP3    H211752   0.023   3.123   4.259
 3916TIP3   OH211753   6.210   1.851   3.137
 3916TIP3    H111754   6.171   1.795   3.204
 3916TIP3    H211755   6.223   1.935   3.181
 3917TIP3   OH211756   4.548   0.355   2.695
 3917TIP3    H111757   4.523   0.263   2.689
 3917TIP3    H211758   4.642   0.354   2.711
 3918TIP3   OH211759   0.009   2.766   4.517
 3918TIP3    H111760  -0.008   2.782   4.424
 3918TIP3    H211761   0.103   2.748   4.520
 3919TIP3   OH211762   3.569   0.395   1.786
 3919TIP3    H111763   3.541   0.455   1.717
 3919TIP3    H211764   3.535   0.310   1.758
 3920TIP3   OH211765   0.729   5.215   5.022
 3920TIP3    H111766   0.637   5.233   5.036
 3920TIP3    H211767   0.736   5.120   5.019
 3921TIP3   OH211768   3.324   2.544   4.367
 3921TIP3    H111769   3.383   2.619   4.363
 3921TIP3    H211770   3.271   2.550   4.287
 3922TIP3   OH211771   5.876   3.103   4.341
 3922TIP3    H111772   5.824   3.126   4.264
 3922TIP3    H211773   5.958   3.153   4.330
 3923TIP3   OH211774   5.584   1.185   4.536
 3923TIP3    H111775   5.514   1.154   4.477
 3923TIP3    H211776   5.642   1.110   4.546
 3924TIP3   OH211777   3.878   5.062   2.695
 3924TIP3    H111778   3.804   5.105   2.737
 3924TIP3    H211779   3.945   5.130   2.688
 3925TIP3   OH211780   4.115   1.533   3.283
 3925TIP3    H111781   4.025   1.562   3.300
 3925TIP3    H211782   4.138   1.572   3.199
 3926TIP3   OH211783   3.010   1.265   0.140
 3926TIP3    H111784   3.013   1.222   0.054
 3926TIP3    H211785   2.991   1.356   0.120
 3927TIP3   OH211786   1.449   5.741   3.988
 3927TIP3    H111787   1.355   5.754   3.999
 3927TIP3    H211788   1.482   5.723   4.076
 3928TIP3   OH211789   5.022   1.862   1.309
 3928TIP3    H111790   5.098   1.816   1.271
 3928TIP3    H211791   4.998   1.926   1.243
 3929TIP3   OH211792   2.616   3.821   1.898
 3929TIP3    H111793   2.680   3.853   1.835
 3929TIP3    H211794   2.536   3.810   1.846
 3930TIP3   OH211795   3.114   3.947   4.937
 3930TIP3    H111796   3.125   4.007   4.863
 3930TIP3    H211797   3.064   3.874   4.900
 3931TIP3   OH211798   2.209   1.147   5.162
 3931TIP3    H111799   2.255   1.210   5.108
 3931TIP3    H211800   2.237   1.061   5.129
 3932TIP3   OH211801   2.714   4.552   0.980
 3932TIP3    H111802   2.643   4.501   1.018
 3932TIP3    H211803   2.788   4.537   1.038
 3933TIP3   OH211804   2.485   5.554   0.582
 3933TIP3    H111805   2.403   5.578   0.625
 3933TIP3    H211806   2.529   5.497   0.645
 3934TIP3   OH211807   4.951   2.485   1.807
 3934TIP3    H111808   4.950   2.547   1.734
 3934TIP3    H211809   4.877   2.512   1.861
 3935TIP3   OH211810   4.375   3.817   1.558
 3935TIP3    H111811   4.428   3.770   1.493
 3935TIP3    H211812   4.286   3.784   1.546
 3936TIP3   OH211813   2.416   3.921   4.828
 3936TIP3    H111814   2.472   3.856   4.869
 3936TIP3    H211815   2.353   3.870   4.776
 3937TIP3   OH211816   2.421   2.270   1.253
 3937TIP3    H111817   2.338   2.274   1.301
 3937TIP3    H211818   2.394   2.272   1.161
 3938TIP3   OH211819   2.479   2.345   2.259
 3938TIP3    H111820   2.570   2.368   2.241
 3938TIP3    H211821   2.434   2.429   2.265
 3939TIP3   OH211822   1.427   4.664   0.889
 3939TIP3    H111823   1.448   4.657   0.796
 3939TIP3    H211824   1.485   4.732   0.922
 3940TIP3   OH211825   5.596   0.989   3.271
 3940TIP3    H111826   5.526   0.997   3.335
 3940TIP3    H211827   5.676   1.002   3.321
 3941TIP3   OH211828   5.925   0.591   0.962
 3941TIP3    H111829   5.898   0.606   0.872
 3941TIP3    H211830   5.967   0.673   0.989
 3942TIP3   OH211831   2.739   2.940   1.409
 3942TIP3    H111832   2.652   2.974   1.427
 3942TIP3    H211833   2.725   2.848   1.387
 3943TIP3   OH211834   6.304   2.793   1.595
 3943TIP3    H111835   6.345   2.741   1.526
 3943TIP3    H211836   6.213   2.803   1.568
 3944TIP3   OH211837   2.604   4.529   4.050
 3944TIP3    H111838   2.680   4.577   4.084
 3944TIP3    H211839   2.616   4.528   3.955
 3945TIP3   OH211840   1.956   5.542   1.014
 3945TIP3    H111841   1.956   5.636   1.032
 3945TIP3    H211842   2.031   5.529   0.955
 3946TIP3   OH211843   2.858   2.022   3.086
 3946TIP3    H111844   2.846   1.936   3.127
 3946TIP3    H211845   2.769   2.057   3.077
 3947TIP3   OH211846   2.274   0.527   3.280
 3947TIP3    H111847   2.188   0.488   3.294
 3947TIP3    H211848   2.257   0.607   3.230
 3948TIP3   OH211849   0.267   0.616   1.140
 3948TIP3    H111850   0.176   0.622   1.170
 3948TIP3    H211851   0.267   0.658   1.054
 3949TIP3   OH211852   0.869   0.655   3.995
 3949TIP3    H111853   0.958   0.641   3.965
 3949TIP3    H211854   0.878   0.684   4.085
 3950TIP3   OH211855   3.596   1.884   2.662
 3950TIP3    H111856   3.605   1.977   2.641
 3950TIP3    H211857   3.622   1.839   2.581
 3951TIP3   OH211858   4.394   2.680   0.603
 3951TIP3    H111859   4.470   2.690   0.661
 3951TIP3    H211860   4.319   2.687   0.662
 3952TIP3   OH211861   4.554   1.313   0.906
 3952TIP3    H111862   4.535   1.226   0.940
 3952TIP3    H211863   4.468   1.352   0.890
 3953TIP3   OH211864   2.746   0.430   0.609
 3953TIP3    H111865   2.741   0.356   0.549
 3953TIP3    H211866   2.709   0.398   0.691
 3954TIP3   OH211867   4.049   3.703   4.205
 3954TIP3    H111868   3.955   3.698   4.222
 3954TIP3    H211869   4.077   3.611   4.202
 3955TIP3   OH211870   4.003   4.370   4.366
 3955TIP3    H111871   4.088   4.394   4.402
 3955TIP3    H211872   4.018   4.358   4.273
 3956TIP3   OH211873   5.550   3.261   1.903
 3956TIP3    H111874   5.616   3.267   1.833
 3956TIP3    H211875   5.509   3.176   1.889
 3957TIP3   OH211876   4.494   1.431   2.019
 3957TIP3    H111877   4.401   1.451   2.005
 3957TIP3    H211878   4.541   1.492   1.962
 3958TIP3   OH211879   2.669   0.282   3.616
 3958TIP3    H111880   2.587   0.303   3.571
 3958TIP3    H211881   2.727   0.250   3.547
 3959TIP3   OH211882   6.115   0.209   1.490
 3959TIP3    H111883   6.064   0.128   1.494
 3959TIP3    H211884   6.052   0.278   1.511
 3960TIP3   OH211885   2.713   0.496   1.049
 3960TIP3    H111886   2.751   0.550   0.979
 3960TIP3    H211887   2.774   0.423   1.059
 3961TIP3   OH211888   1.517   2.993   4.692
 3961TIP3    H111889   1.535   3.011   4.784
 3961TIP3    H211890   1.546   3.072   4.646
 3962TIP3   OH211891   2.862   4.869   3.768
 3962TIP3    H111892   2.883   4.944   3.824
 3962TIP3    H211893   2.772   4.845   3.793
 3963TIP3   OH211894   0.234   0.198   3.980
 3963TIP3    H111895   0.288   0.140   4.033
 3963TIP3    H211896   0.277   0.283   3.985
 3964TIP3   OH211897   5.470   4.968   1.446
 3964TIP3    H111898   5.393   4.934   1.400
 3964TIP3    H211899   5.439   5.048   1.488
 3965TIP3   OH211900   3.562   4.362   0.079
 3965TIP3    H111901   3.539   4.438   0.027
 3965TIP3    H211902   3.658   4.358   0.075
 3966TIP3   OH211903   5.878   3.049   1.274
 3966TIP3    H111904   5.916   3.137   1.272
 3966TIP3    H211905   5.818   3.051   1.348
 3967TIP3   OH211906   6.036   3.544   2.260
 3967TIP3    H111907   6.012   3.578   2.174
 3967TIP3    H211908   6.032   3.620   2.319
 3968TIP3   OH211909   0.788   4.915   1.443
 3968TIP3    H111910   0.791   4.847   1.511
 3968TIP3    H211911   0.778   4.997   1.491
 3969TIP3   OH211912   4.421   1.346   3.297
 3969TIP3    H111913   4.497   1.301   3.336
 3969TIP3    H211914   4.361   1.360   3.370
 3970TIP3   OH211915   4.367   2.553   4.776
 3970TIP3    H111916   4.373   2.461   4.803
 3970TIP3    H211917   4.314   2.594   4.845
 3971TIP3   OH211918   4.529   1.715   0.310
 3971TIP3    H111919   4.623   1.706   0.292
 3971TIP3    H211920   4.515   1.661   0.388
 3972TIP3   OH211921   2.255   1.033   3.063
 3972TIP3    H111922   2.182   1.073   3.016
 3972TIP3    H211923   2.217   0.955   3.104
 3973TIP3   OH211924   1.791  -0.001   4.450
 3973TIP3    H111925   1.781  -0.041   4.536
 3973TIP3    H211926   1.758   0.088   4.462
 3974TIP3   OH211927   3.352   2.840   4.657
 3974TIP3    H111928   3.392   2.840   4.744
 3974TIP3    H211929   3.422   2.808   4.599
 3975TIP3   OH211930   0.226   5.562   1.501
 3975TIP3    H111931   0.230   5.641   1.555
 3975TIP3    H211932   0.140   5.524   1.521
 3976TIP3   OH211933   4.295   1.278   3.064
 3976TIP3    H111934   4.327   1.309   3.148
 3976TIP3    H211935   4.200   1.286   3.070
 3977TIP3   OH211936   0.175   0.337   1.287
 3977TIP3    H111937   0.193   0.361   1.378
 3977TIP3    H211938   0.132   0.252   1.293
 3978TIP3   OH211939   5.437   4.191   1.426
 3978TIP3    H111940   5.407   4.145   1.505
 3978TIP3    H211941   5.417   4.131   1.354
 3979TIP3   OH211942   0.682   3.674   4.704
 3979TIP3    H111943   0.644   3.702   4.787
 3979TIP3    H211944   0.713   3.585   4.720
 3980TIP3   OH211945   2.396   4.713   4.034
 3980TIP3    H111946   2.312   4.691   4.075
 3980TIP3    H211947   2.457   4.647   4.067
 3981TIP3   OH211948   4.988   3.308   4.332
 3981TIP3    H111949   5.054   3.358   4.379
 3981TIP3    H211950   4.948   3.370   4.271
 3982TIP3   OH211951   3.738   0.550   3.663
 3982TIP3    H111952   3.736   0.617   3.732
 3982TIP3    H211953   3.828   0.551   3.632
 3983TIP3   OH211954   2.239   5.401   5.157
 3983TIP3    H111955   2.181   5.387   5.232
 3983TIP3    H211956   2.253   5.496   5.155
 3984TIP3   OH211957   1.551   1.951   2.808
 3984TIP3    H111958   1.506   1.894   2.746
 3984TIP3    H211959   1.539   2.039   2.773
 3985TIP3   OH211960   4.890   2.892   1.046
 3985TIP3    H111961   4.864   2.812   1.090
 3985TIP3    H211962   4.807   2.937   1.027
 3986TIP3   OH211963   1.894   5.508   4.423
 3986TIP3    H111964   1.918   5.494   4.514
 3986TIP3    H211965   1.922   5.429   4.378
 3987TIP3   OH211966   5.738   4.942   4.710
 3987TIP3    H111967   5.805   4.930   4.643
 3987TIP3    H211968   5.726   4.856   4.749
 3988TIP3   OH211969   5.381   1.050   3.465
 3988TIP3    H111970   5.316   0.981   3.478
 3988TIP3    H211971   5.417   1.065   3.552
 3989TIP3   OH211972   5.160   1.190   4.862
 3989TIP3    H111973   5.082   1.151   4.902
 3989TIP3    H211974   5.233   1.147   4.906
 3990TIP3   OH211975   2.569   2.837   2.474
 3990TIP3    H111976   2.645   2.780   2.486
 3990TIP3    H211977   2.510   2.814   2.546
 3991TIP3   OH211978   2.033   5.182   2.491
 3991TIP3    H111979   2.125   5.204   2.500
 3991TIP3    H211980   1.989   5.267   2.488
 3992TIP3   OH211981   0.284   0.053   1.468
 3992TIP3    H111982   0.210   0.102   1.503
 3992TIP3    H211983   0.246  -0.001   1.398
 3993TIP3   OH211984   6.286   4.171   2.474
 3993TIP3    H111985   6.206   4.120   2.469
 3993TIP3    H211986   6.302   4.180   2.568
 3994TIP3   OH211987   0.299   2.468   3.902
 3994TIP3    H111988   0.252   2.385   3.904
 3994TIP3    H211989   0.392   2.444   3.903
 3995TIP3   OH211990   5.244   4.237   4.104
 3995TIP3    H111991   5.274   4.229   4.195
 3995TIP3    H211992   5.269   4.326   4.078
 3996TIP3   OH211993   2.292   2.282   1.005
 3996TIP3    H111994   2.280   2.217   0.935
 3996TIP3    H211995   2.278   2.366   0.962
 3997TIP3   OH211996   0.028   5.544   2.058
 3997TIP3    H111997   0.017   5.455   2.026
 3997TIP3    H211998  -0.027   5.597   2.000
 3998TIP3   OH211999   2.052   0.151   4.318
 3998TIP3    H112000   2.056   0.245   4.338
 3998TIP3    H212001   2.093   0.109   4.394
 3999TIP3   OH212002   5.882   4.153   2.502
 3999TIP3    H112003   5.862   4.092   2.573
 3999TIP3    H212004   5.929   4.225   2.545
 4000TIP3   OH212005   1.769   1.518   4.526
 4000TIP3    H112006   1.815   1.592   4.565
 4000TIP3    H212007   1.836   1.450   4.519
 4001TIP3   OH212008   0.358   5.737   4.650
 4001TIP3    H112009   0.306   5.812   4.624
 4001TIP3    H212010   0.422   5.772   4.712
 4002TIP3   OH212011   1.119   3.755   1.066
 4002TIP3    H112012   1.089   3.844   1.048
 4002TIP3    H212013   1.052   3.699   1.028
 4003TIP3   OH212014   0.107   3.854   4.289
 4003TIP3    H112015   0.158   3.776   4.305
 4003TIP3    H212016   0.171   3.919   4.259
 4004TIP3   OH212017   1.909   4.746   5.167
 4004TIP3    H112018   1.999   4.756   5.139
 4004TIP3    H212019   1.859   4.735   5.086
 4005TIP3   OH212020   1.449   0.978   0.649
 4005TIP3    H112021   1.464   1.011   0.561
 4005TIP3    H212022   1.362   1.010   0.673
 4006TIP3   OH212023   1.090   5.937   4.340
 4006TIP3    H112024   1.024   6.005   4.348
 4006TIP3    H212025   1.040   5.855   4.338
 4007TIP3   OH212026   3.347   1.302   4.720
 4007TIP3    H112027   3.408   1.374   4.706
 4007TIP3    H212028   3.304   1.323   4.803
 4008TIP3   OH212029   0.100   5.187   3.250
 4008TIP3    H112030   0.135   5.265   3.294
 4008TIP3    H212031   0.052   5.222   3.175
 4009TIP3   OH212032   4.014   5.355   0.666
 4009TIP3    H112033   3.928   5.330   0.631
 4009TIP3    H212034   4.062   5.272   0.673
 4010TIP3   OH212035   5.704   4.074   2.298
 4010TIP3    H112036   5.657   4.014   2.357
 4010TIP3    H212037   5.779   4.104   2.350
 4011TIP3   OH212038   2.433   0.924   4.329
 4011TIP3    H112039   2.399   0.970   4.406
 4011TIP3    H212040   2.484   0.852   4.365
 4012TIP3   OH212041   2.027   3.650   0.681
 4012TIP3    H112042   1.999   3.592   0.752
 4012TIP3    H212043   1.995   3.607   0.602
 4013TIP3   OH212044   1.815   0.245   4.188
 4013TIP3    H112045   1.889   0.196   4.224
 4013TIP3    H212046   1.807   0.321   4.244
 4014TIP3   OH212047   4.716   1.317   4.986
 4014TIP3    H112048   4.715   1.398   5.037
 4014TIP3    H212049   4.735   1.346   4.896
 4015TIP3   OH212050   5.326   4.273   4.674
 4015TIP3    H112051   5.416   4.287   4.645
 4015TIP3    H212052   5.285   4.225   4.602
 4016TIP3   OH212053   5.620   1.699   4.402
 4016TIP3    H112054   5.605   1.606   4.382
 4016TIP3    H212055   5.539   1.727   4.445
 4017TIP3   OH212056   4.368   4.041   2.912
 4017TIP3    H112057   4.371   4.097   2.990
 4017TIP3    H212058   4.418   4.089   2.846
 4018TIP3   OH212059   5.664   3.194   3.062
 4018TIP3    H112060   5.649   3.239   3.145
 4018TIP3    H212061   5.729   3.247   3.017
 4019TIP3   OH212062   0.074   2.982   3.470
 4019TIP3    H112063  -0.015   3.012   3.490
 4019TIP3    H212064   0.098   2.927   3.544
 4020TIP3   OH212065   0.873   1.856   3.183
 4020TIP3    H112066   0.806   1.923   3.167
 4020TIP3    H212067   0.881   1.810   3.099
 4021TIP3   OH212068   2.661   2.502   3.145
 4021TIP3    H112069   2.736   2.447   3.122
 4021TIP3    H212070   2.692   2.591   3.130
 4022TIP3   OH212071   3.383   1.692   2.695
 4022TIP3    H112072   3.397   1.606   2.656
 4022TIP3    H212073   3.453   1.747   2.660
 4023TIP3   OH212074   3.733   4.014   1.751
 4023TIP3    H112075   3.770   3.926   1.742
 4023TIP3    H212076   3.796   4.062   1.805
 4024TIP3   OH212077   2.246   2.834   1.040
 4024TIP3    H112078   2.245   2.913   0.986
 4024TIP3    H212079   2.326   2.789   1.015
 4025TIP3   OH212080   0.760   4.533   3.662
 4025TIP3    H112081   0.733   4.609   3.609
 4025TIP3    H212082   0.702   4.463   3.634
 4026TIP3   OH212083   3.474   5.799   3.002
 4026TIP3    H112084   3.459   5.800   3.097
 4026TIP3    H212085   3.400   5.750   2.967
 4027TIP3   OH212086   0.369   3.058   3.487
 4027TIP3    H112087   0.434   2.994   3.516
 4027TIP3    H212088   0.286   3.010   3.490
 4028TIP3   OH212089   6.129   3.360   0.350
 4028TIP3    H112090   6.110   3.442   0.305
 4028TIP3    H212091   6.169   3.387   0.432
 4029TIP3   OH212092   0.663   1.972   1.993
 4029TIP3    H112093   0.683   1.931   2.078
 4029TIP3    H212094   0.602   1.911   1.952
 4030TIP3   OH212095   1.415   3.314   3.787
 4030TIP3    H112096   1.358   3.354   3.722
 4030TIP3    H212097   1.493   3.370   3.788
 4031TIP3   OH212098   2.419   4.148   1.705
 4031TIP3    H112099   2.401   4.061   1.742
 4031TIP3    H212100   2.370   4.208   1.762
 4032TIP3   OH212101   2.321   4.315   1.870
 4032TIP3    H112102   2.386   4.373   1.909
 4032TIP3    H212103   2.271   4.281   1.944
 4033TIP3   OH212104   1.037   0.561   0.809
 4033TIP3    H112105   0.949   0.549   0.844
 4033TIP3    H212106   1.095   0.546   0.885
 4034TIP3   OH212107   3.143   0.030   2.122
 4034TIP3    H112108   3.104  -0.040   2.068
 4034TIP3    H212109   3.169   0.097   2.059
 4035TIP3   OH212110   1.092   5.301   1.948
 4035TIP3    H112111   1.089   5.259   2.034
 4035TIP3    H212112   1.171   5.354   1.950
 4036TIP3   OH212113   5.691   0.143   2.267
 4036TIP3    H112114   5.758   0.162   2.332
 4036TIP3    H212115   5.652   0.061   2.295
 4037TIP3   OH212116   3.189   1.840   4.355
 4037TIP3    H112117   3.249   1.900   4.400
 4037TIP3    H212118   3.142   1.796   4.425
 4038TIP3   OH212119   0.897   3.548   3.412
 4038TIP3    H112120   0.938   3.596   3.484
 4038TIP3    H212121   0.879   3.461   3.449
 4039TIP3   OH212122   0.258   0.279   0.486
 4039TIP3    H112123   0.173   0.250   0.519
 4039TIP3    H212124   0.240   0.361   0.440
 4040TIP3   OH212125   2.221   4.534   2.426
 4040TIP3    H112126   2.183   4.595   2.363
 4040TIP3    H212127   2.265   4.590   2.490
 4041TIP3   OH212128   5.010   1.076   3.536
 4041TIP3    H112129   4.982   1.016   3.467
 4041TIP3    H212130   5.041   1.153   3.490
 4042TIP3   OH212131   5.075   2.221   5.169
 4042TIP3    H112132   5.067   2.221   5.074
 4042TIP3    H212133   5.115   2.305   5.190
 4043TIP3   OH212134   0.735   5.744   4.512
 4043TIP3    H112135   0.682   5.676   4.555
 4043TIP3    H212136   0.692   5.826   4.536
 4044TIP3   OH212137   4.125   1.840   1.242
 4044TIP3    H112138   4.178   1.760   1.250
 4044TIP3    H212139   4.036   1.808   1.229
 4045TIP3   OH212140   3.731   5.685   0.786
 4045TIP3    H112141   3.726   5.635   0.867
 4045TIP3    H212142   3.802   5.644   0.736
 4046TIP3   OH212143   2.622   2.068   2.828
 4046TIP3    H112144   2.636   2.149   2.779
 4046TIP3    H212145   2.631   2.094   2.920
 4047TIP3   OH212146   4.471   5.959   2.414
 4047TIP3    H112147   4.393   5.918   2.375
 4047TIP3    H212148   4.481   5.916   2.499
 4048TIP3   OH212149   6.161   4.522   1.314
 4048TIP3    H112150   6.071   4.537   1.344
 4048TIP3    H212151   6.206   4.605   1.329
 4049TIP3   OH212152   2.879   4.544   3.371
 4049TIP3    H112153   2.891   4.627   3.326
 4049TIP3    H212154   2.787   4.522   3.357
 4050TIP3   OH212155   3.965   1.575   0.221
 4050TIP3    H112156   3.952   1.645   0.285
 4050TIP3    H212157   3.952   1.617   0.137
 4051TIP3   OH212158   1.189   3.689   2.584
 4051TIP3    H112159   1.098   3.710   2.565
 4051TIP3    H212160   1.235   3.703   2.501
 4052TIP3   OH212161   4.267   4.629   0.562
 4052TIP3    H112162   4.312   4.696   0.613
 4052TIP3    H212163   4.316   4.623   0.481
 4053TIP3   OH212164   3.202   2.595   4.118
 4053TIP3    H112165   3.176   2.687   4.109
 4053TIP3    H212166   3.122   2.545   4.104
 4054TIP3   OH212167   2.331   4.202   4.275
 4054TIP3    H112168   2.303   4.277   4.221
 4054TIP3    H212169   2.294   4.126   4.231
 4055TIP3   OH212170   4.571   2.412   2.335
 4055TIP3    H112171   4.599   2.327   2.304
 4055TIP3    H212172   4.500   2.438   2.276
 4056TIP3   OH212173   3.772   1.074   0.657
 4056TIP3    H112174   3.709   1.043   0.591
 4056TIP3    H212175   3.722   1.135   0.711
 4057TIP3   OH212176   0.471   3.566   0.382
 4057TIP3    H112177   0.526   3.614   0.443
 4057TIP3    H212178   0.443   3.631   0.317
 4058TIP3   OH212179   1.892   4.368   2.733
 4058TIP3    H112180   1.801   4.381   2.759
 4058TIP3    H212181   1.920   4.452   2.697
 4059TIP3   OH212182   5.502   1.206   4.875
 4059TIP3    H112183   5.594   1.229   4.876
 4059TIP3    H212184   5.490   1.148   4.950
 4060TIP3   OH212185   4.274   2.249   2.778
 4060TIP3    H112186   4.243   2.171   2.732
 4060TIP3    H212187   4.252   2.321   2.720
 4061TIP3   OH212188   4.955   1.424   3.559
 4061TIP3    H112189   4.987   1.446   3.471
 4061TIP3    H212190   4.861   1.439   3.554
 4062TIP3   OH212191   5.837   2.656   5.002
 4062TIP3    H112192   5.877   2.743   5.012
 4062TIP3    H212193   5.749   2.666   5.037
 4063TIP3   OH212194   1.109   0.785   1.568
 4063TIP3    H112195   1.118   0.737   1.650
 4063TIP3    H212196   1.175   0.747   1.510
 4064TIP3   OH212197   3.313   1.918   4.113
 4064TIP3    H112198   3.286   1.940   4.202
 4064TIP3    H212199   3.409   1.919   4.115
 4065TIP3   OH212200   4.966   0.681   1.789
 4065TIP3    H112201   5.011   0.648   1.866
 4065TIP3    H212202   4.957   0.775   1.805
 4066TIP3   OH212203   0.457   2.274   4.252
 4066TIP3    H112204   0.551   2.286   4.266
 4066TIP3    H212205   0.449   2.244   4.162
 4067TIP3   OH212206   2.321   3.880   2.960
 4067TIP3    H112207   2.259   3.949   2.980
 4067TIP3    H212208   2.270   3.799   2.966
 4068TIP3   OH212209   4.769   3.535   2.801
 4068TIP3    H112210   4.716   3.613   2.818
 4068TIP3    H212211   4.849   3.569   2.760
 4069TIP3   OH212212   0.144   5.234   4.136
 4069TIP3    H112213   0.237   5.236   4.115
 4069TIP3    H212214   0.102   5.205   4.055
 4070TIP3   OH212215   0.136   2.285   0.568
 4070TIP3    H112216   0.167   2.353   0.628
 4070TIP3    H212217   0.090   2.333   0.499
 4071TIP3   OH212218   5.905   0.936   2.577
 4071TIP3    H112219   5.824   0.885   2.572
 4071TIP3    H212220   5.903   0.992   2.500
 4072TIP3   OH212221   2.329   4.700   0.781
 4072TIP3    H112222   2.302   4.612   0.808
 4072TIP3    H212223   2.328   4.697   0.685
 4073TIP3   OH212224   5.539   1.235   3.893
 4073TIP3    H112225   5.523   1.192   3.809
 4073TIP3    H212226   5.527   1.166   3.959
 4074TIP3   OH212227   0.715   4.524   1.926
 4074TIP3    H112228   0.717   4.522   2.021
 4074TIP3    H212229   0.631   4.485   1.903
 4075TIP3   OH212230   3.535   3.505   1.276
 4075TIP3    H112231   3.517   3.544   1.361
 4075TIP3    H212232   3.484   3.558   1.214
 4076TIP3   OH212233   1.221   3.489   4.758
 4076TIP3    H112234   1.146   3.436   4.784
 4076TIP3    H212235   1.204   3.512   4.666
 4077TIP3   OH212236   4.327   2.816   4.322
 4077TIP3    H112237   4.268   2.749   4.357
 4077TIP3    H212238   4.378   2.844   4.398
 4078TIP3   OH212239   1.202   1.980   1.894
 4078TIP3    H112240   1.124   2.036   1.901
 4078TIP3    H212241   1.273   2.035   1.927
 4079TIP3   OH212242   5.044   5.158   1.735
 4079TIP3    H112243   5.020   5.245   1.766
 4079TIP3    H212244   4.964   5.125   1.694
 4080TIP3   OH212245   2.329   1.551   1.601
 4080TIP3    H112246   2.328   1.638   1.640
 4080TIP3    H212247   2.241   1.540   1.564
 4081TIP3   OH212248   3.979   4.831   2.273
 4081TIP3    H112249   4.059   4.873   2.304
 4081TIP3    H212250   3.939   4.896   2.214
 4082TIP3   OH212251   6.157   5.847   1.477
 4082TIP3    H112252   6.177   5.842   1.570
 4082TIP3    H212253   6.062   5.839   1.472
 4083TIP3   OH212254   4.590   3.367   2.136
 4083TIP3    H112255   4.507   3.415   2.139
 4083TIP3    H212256   4.564   3.275   2.130
 4084TIP3   OH212257   0.476   2.849   1.570
 4084TIP3    H112258   0.391   2.881   1.538
 4084TIP3    H212259   0.480   2.880   1.661
 4085TIP3   OH212260   4.514   3.293   3.904
 4085TIP3    H112261   4.587   3.353   3.917
 4085TIP3    H212262   4.554   3.215   3.865
 4086TIP3   OH212263   5.095   5.672   0.096
 4086TIP3    H112264   5.061   5.690   0.183
 4086TIP3    H212265   5.017   5.660   0.041
 4087TIP3   OH212266   2.064   3.340   3.358
 4087TIP3    H112267   2.040   3.416   3.305
 4087TIP3    H212268   2.086   3.376   3.444
 4088TIP3   OH212269   2.734   2.625   0.459
 4088TIP3    H112270   2.756   2.640   0.551
 4088TIP3    H212271   2.670   2.693   0.438
 4089TIP3   OH212272   5.548   3.047   4.309
 4089TIP3    H112273   5.603   2.969   4.300
 4089TIP3    H212274   5.585   3.111   4.249
 4090TIP3   OH212275   5.032   4.473   2.279
 4090TIP3    H112276   5.077   4.446   2.199
 4090TIP3    H212277   4.949   4.425   2.277
 4091TIP3   OH212278   5.877   1.636   1.282
 4091TIP3    H112279   5.799   1.652   1.336
 4091TIP3    H212280   5.945   1.613   1.344
 4092TIP3   OH212281   0.094   2.688   2.165
 4092TIP3    H112282   0.108   2.661   2.074
 4092TIP3    H212283   0.056   2.611   2.208
 4093TIP3   OH212284   5.972   2.167   4.930
 4093TIP3    H112285   6.023   2.228   4.983
 4093TIP3    H212286   5.932   2.108   4.994
 4094TIP3   OH212287   1.610   0.233   1.966
 4094TIP3    H112288   1.622   0.319   2.005
 4094TIP3    H212289   1.639   0.172   2.035
 4095TIP3   OH212290   3.730   2.549   4.125
 4095TIP3    H112291   3.764   2.491   4.194
 4095TIP3    H212292   3.756   2.637   4.152
 4096TIP3   OH212293   3.647   2.648   0.997
 4096TIP3    H112294   3.741   2.630   0.991
 4096TIP3    H212295   3.605   2.569   0.964
 4097TIP3   OH212296   0.817   4.227   3.225
 4097TIP3    H112297   0.882   4.159   3.240
 4097TIP3    H212298   0.864   4.295   3.178
 4098TIP3   OH212299   5.430   4.264   3.175
 4098TIP3    H112300   5.337   4.251   3.162
 4098TIP3    H212301   5.440   4.359   3.185
 4099TIP3   OH212302   4.064   2.162   0.217
 4099TIP3    H112303   4.060   2.078   0.170
 4099TIP3    H212304   4.068   2.137   0.309
 4100TIP3   OH212305   1.204   5.903   1.865
 4100TIP3    H112306   1.269   5.853   1.913
 4100TIP3    H212307   1.122   5.890   1.914
 4101TIP3   OH212308   1.414   4.572   4.180
 4101TIP3    H112309   1.414   4.596   4.272
 4101TIP3    H212310   1.326   4.535   4.165
 4102TIP3   OH212311   0.753   2.890   2.048
 4102TIP3    H112312   0.696   2.846   2.111
 4102TIP3    H212313   0.841   2.858   2.069
 4103TIP3   OH212314   4.395   2.830   1.170
 4103TIP3    H112315   4.383   2.808   1.078
 4103TIP3    H212316   4.331   2.899   1.187
 4104TIP3   OH212317   6.097   1.019   3.535
 4104TIP3    H112318   6.011   0.988   3.564
 4104TIP3    H212319   6.091   1.021   3.440
 4105TIP3   OH212320   2.747   3.749   2.524
 4105TIP3    H112321   2.767   3.768   2.616
 4105TIP3    H212322   2.829   3.714   2.489
 4106TIP3   OH212323   4.699   4.628   0.371
 4106TIP3    H112324   4.719   4.631   0.465
 4106TIP3    H212325   4.768   4.573   0.334
 4107TIP3   OH212326   3.054   1.175   2.188
 4107TIP3    H112327   3.078   1.247   2.246
 4107TIP3    H212328   3.079   1.205   2.101
 4108TIP3   OH212329   5.106   2.870   3.384
 4108TIP3    H112330   5.014   2.869   3.412
 4108TIP3    H212331   5.148   2.805   3.439
 4109TIP3   OH212332   4.406   3.479   4.837
 4109TIP3    H112333   4.413   3.507   4.928
 4109TIP3    H212334   4.488   3.431   4.820
 4110TIP3   OH212335   1.985  -0.023   4.083
 4110TIP3    H112336   1.922   0.036   4.041
 4110TIP3    H212337   2.043   0.035   4.131
 4111TIP3   OH212338   4.106   5.909   4.228
 4111TIP3    H112339   4.167   5.983   4.230
 4111TIP3    H212340   4.162   5.832   4.212
 4112TIP3   OH212341   3.331   2.848   0.068
 4112TIP3    H112342   3.282   2.894  -0.001
 4112TIP3    H212343   3.396   2.912   0.098
 4113TIP3   OH212344   0.928   3.570   0.905
 4113TIP3    H112345   0.944   3.498   0.845
 4113TIP3    H212346   0.853   3.542   0.957
 4114TIP3   OH212347   1.953   1.756   2.998
 4114TIP3    H112348   1.948   1.851   2.995
 4114TIP3    H212349   1.923   1.727   2.911
 4115TIP3   OH212350   5.041   2.958   1.677
 4115TIP3    H112351   5.116   2.900   1.666
 4115TIP3    H212352   5.075   3.032   1.729
 4116TIP3   OH212353   1.363   2.886   4.279
 4116TIP3    H112354   1.356   2.791   4.282
 4116TIP3    H212355   1.440   2.906   4.331
 4117TIP3   OH212356   4.985   4.206   3.978
 4117TIP3    H112357   5.079   4.194   3.993
 4117TIP3    H212358   4.980   4.283   3.922
 4118TIP3   OH212359   0.477   3.427   2.552
 4118TIP3    H112360   0.538   3.494   2.523
 4118TIP3    H212361   0.485   3.427   2.648
 4119TIP3   OH212362   0.103   5.135   4.383
 4119TIP3    H112363   0.075   5.221   4.417
 4119TIP3    H212364   0.122   5.151   4.290
 4120TIP3   OH212365   3.075   3.891   3.770
 4120TIP3    H112366   2.993   3.922   3.731
 4120TIP3    H212367   3.123   3.852   3.697
 4121TIP3   OH212368   1.919   1.286   0.738
 4121TIP3    H112369   1.916   1.274   0.643
 4121TIP3    H212370   1.942   1.200   0.773
 4122TIP3   OH212371   3.868   5.442   2.432
 4122TIP3    H112372   3.842   5.435   2.524
 4122TIP3    H212373   3.896   5.533   2.422
 4123TIP3   OH212374   5.722   1.890   1.168
 4123TIP3    H112375   5.679   1.913   1.085
 4123TIP3    H212376   5.691   1.801   1.187
 4124TIP3   OH212377   5.773   0.718   2.014
 4124TIP3    H112378   5.804   0.691   2.101
 4124TIP3    H212379   5.693   0.768   2.031
 4125TIP3   OH212380   4.697   1.437   3.546
 4125TIP3    H112381   4.647   1.482   3.478
 4125TIP3    H212382   4.657   1.351   3.553
 4126TIP3   OH212383   1.246   3.623   0.053
 4126TIP3    H112384   1.303   3.549   0.033
 4126TIP3    H212385   1.171   3.585   0.099
 4127TIP3   OH212386   1.161   3.502   0.571
 4127TIP3    H112387   1.110   3.442   0.516
 4127TIP3    H212388   1.203   3.562   0.510
 4128TIP3   OH212389   4.268   0.972   3.449
 4128TIP3    H112390   4.265   1.031   3.525
 4128TIP3    H212391   4.193   0.914   3.460
 4129TIP3   OH212392   1.238   1.658   2.599
 4129TIP3    H112393   1.278   1.575   2.575
 4129TIP3    H212394   1.308   1.723   2.591
 4130TIP3   OH212395   1.815   2.893   4.898
 4130TIP3    H112396   1.731   2.931   4.925
 4130TIP3    H212397   1.813   2.896   4.802
 4131TIP3   OH212398   1.535   5.847   4.541
 4131TIP3    H112399   1.558   5.790   4.615
 4131TIP3    H212400   1.604   5.832   4.476
 4132TIP3   OH212401   2.833   1.843   3.920
 4132TIP3    H112402   2.871   1.769   3.968
 4132TIP3    H212403   2.838   1.818   3.828
 4133TIP3   OH212404   1.878   2.806   3.209
 4133TIP3    H112405   1.876   2.901   3.206
 4133TIP3    H212406   1.874   2.779   3.117
 4134TIP3   OH212407   5.787   0.710   4.493
 4134TIP3    H112408   5.741   0.652   4.554
 4134TIP3    H212409   5.869   0.664   4.473
 4135TIP3   OH212410   5.216   5.063   3.974
 4135TIP3    H112411   5.241   4.975   4.003
 4135TIP3    H212412   5.299   5.110   3.966
 4136TIP3   OH212413   3.648   4.179   2.069
 4136TIP3    H112414   3.712   4.108   2.074
 4136TIP3    H212415   3.701   4.259   2.076
 4137TIP3   OH212416   1.071   3.106   1.102
 4137TIP3    H112417   0.981   3.109   1.069
 4137TIP3    H212418   1.104   3.021   1.072
 4138TIP3   OH212419   2.940   0.049   1.476
 4138TIP3    H112420   2.973   0.044   1.565
 4138TIP3    H212421   2.942   0.142   1.455
 4139TIP3   OH212422   4.423   2.575   2.116
 4139TIP3    H112423   4.351   2.637   2.103
 4139TIP3    H212424   4.496   2.613   2.067
 4140TIP3   OH212425   1.624   3.003   3.960
 4140TIP3    H112426   1.600   2.926   3.909
 4140TIP3    H212427   1.540   3.038   3.992
 4141TIP3   OH212428   5.463   2.913  -0.012
 4141TIP3    H112429   5.480   2.981   0.053
 4141TIP3    H212430   5.370   2.893  -0.002
 4142TIP3   OH212431   3.663   4.728   4.517
 4142TIP3    H112432   3.697   4.755   4.602
 4142TIP3    H212433   3.716   4.651   4.493
 4143TIP3   OH212434   5.402   3.991   1.233
 4143TIP3    H112435   5.459   4.022   1.163
 4143TIP3    H212436   5.338   3.935   1.189
 4144TIP3   OH212437   3.083   1.944   4.826
 4144TIP3    H112438   3.088   2.007   4.755
 4144TIP3    H212439   3.159   1.963   4.881
 4145TIP3   OH212440   4.758   4.419   4.360
 4145TIP3    H112441   4.756   4.350   4.294
 4145TIP3    H212442   4.725   4.377   4.440
 4146TIP3   OH212443   2.714   2.669   1.401
 4146TIP3    H112444   2.696   2.584   1.361
 4146TIP3    H212445   2.804   2.663   1.432
 4147TIP3   OH212446   1.770   3.306   0.979
 4147TIP3    H112447   1.819   3.306   1.062
 4147TIP3    H212448   1.716   3.227   0.983
 4148TIP3   OH212449   5.847   5.476   3.871
 4148TIP3    H112450   5.770   5.510   3.917
 4148TIP3    H212451   5.835   5.503   3.780
 4149TIP3   OH212452   0.176   4.411   2.853
 4149TIP3    H112453   0.141   4.466   2.923
 4149TIP3    H212454   0.190   4.472   2.780
 4150TIP3   OH212455   0.813   2.566   4.555
 4150TIP3    H112456   0.760   2.600   4.627
 4150TIP3    H212457   0.877   2.634   4.538
 4151TIP3   OH212458   1.497   3.067   3.673
 4151TIP3    H112459   1.495   3.154   3.713
 4151TIP3    H212460   1.589   3.041   3.676
 4152TIP3   OH212461   1.016   3.993   1.563
 4152TIP3    H112462   1.064   3.915   1.589
 4152TIP3    H212463   0.971   3.969   1.482
 4153TIP3   OH212464   5.546   3.318   3.730
 4153TIP3    H112465   5.481   3.248   3.721
 4153TIP3    H212466   5.556   3.330   3.824
 4154TIP3   OH212467   3.938   1.530   0.778
 4154TIP3    H112468   3.929   1.435   0.775
 4154TIP3    H212469   3.953   1.550   0.871
 4155TIP3   OH212470   1.767   0.723   2.111
 4155TIP3    H112471   1.778   0.702   2.204
 4155TIP3    H212472   1.719   0.806   2.112
 4156TIP3   OH212473   1.665   1.394   2.214
 4156TIP3    H112474   1.617   1.474   2.195
 4156TIP3    H212475   1.676   1.395   2.309
 4157TIP3   OH212476   0.908   5.131   4.092
 4157TIP3    H112477   0.878   5.188   4.162
 4157TIP3    H212478   0.859   5.050   4.105
 4158TIP3   OH212479   0.793   5.756   1.174
 4158TIP3    H112480   0.866   5.796   1.222
 4158TIP3    H212481   0.754   5.695   1.235
 4159TIP3   OH212482   1.756   5.792   4.379
 4159TIP3    H112483   1.797   5.709   4.405
 4159TIP3    H212484   1.831   5.850   4.360
 4160TIP3   OH212485   5.981   3.320   3.721
 4160TIP3    H112486   5.912   3.371   3.678
 4160TIP3    H212487   6.049   3.384   3.742
 4161TIP3   OH212488   3.211   4.612   2.657
 4161TIP3    H112489   3.177   4.614   2.747
 4161TIP3    H212490   3.301   4.642   2.665
 4162TIP3   OH212491   3.713   5.744   4.894
 4162TIP3    H112492   3.731   5.708   4.807
 4162TIP3    H212493   3.649   5.683   4.933
 4163TIP3   OH212494   5.549   1.200   1.556
 4163TIP3    H112495   5.478   1.146   1.520
 4163TIP3    H212496   5.627   1.174   1.507
 4164TIP3   OH212497   2.015   5.866   2.987
 4164TIP3    H112498   2.095   5.919   2.995
 4164TIP3    H212499   2.023   5.801   3.057
 4165TIP3   OH212500   3.474   2.384   3.142
 4165TIP3    H112501   3.513   2.436   3.212
 4165TIP3    H212502   3.385   2.417   3.133
 4166TIP3   OH212503   4.962   2.341   0.435
 4166TIP3    H112504   4.870   2.342   0.459
 4166TIP3    H212505   4.966   2.388   0.352
 4167TIP3   OH212506   4.156   5.814   1.147
 4167TIP3    H112507   4.070   5.853   1.163
 4167TIP3    H212508   4.140   5.746   1.081
 4168TIP3   OH212509   2.390   0.133   0.250
 4168TIP3    H112510   2.322   0.146   0.316
 4168TIP3    H212511   2.425   0.046   0.267
 4169TIP3   OH212512   0.887   4.223   3.526
 4169TIP3    H112513   0.948   4.235   3.598
 4169TIP3    H212514   0.926   4.271   3.453
 4170TIP3   OH212515   1.232   5.119   2.992
 4170TIP3    H112516   1.164   5.173   2.952
 4170TIP3    H212517   1.307   5.177   3.003
 4171TIP3   OH212518   3.534   5.176   0.791
 4171TIP3    H112519   3.553   5.113   0.721
 4171TIP3    H212520   3.578   5.140   0.868
 4172TIP3   OH212521   3.356   4.981   2.423
 4172TIP3    H112522   3.395   4.894   2.409
 4172TIP3    H212523   3.431   5.039   2.434
 4173TIP3   OH212524   2.817   5.392   1.490
 4173TIP3    H112525   2.775   5.322   1.540
 4173TIP3    H212526   2.888   5.423   1.547
 4174TIP3   OH212527   4.617   5.855   3.756
 4174TIP3    H112528   4.545   5.806   3.717
 4174TIP3    H212529   4.651   5.798   3.825
 4175TIP3   OH212530   3.382   4.476   2.293
 4175TIP3    H112531   3.410   4.400   2.241
 4175TIP3    H212532   3.329   4.439   2.364
 4176TIP3   OH212533   2.175   2.624   4.079
 4176TIP3    H112534   2.086   2.613   4.044
 4176TIP3    H212535   2.216   2.538   4.068
 4177TIP3   OH212536   5.499   4.122   3.410
 4177TIP3    H112537   5.472   4.031   3.399
 4177TIP3    H212538   5.573   4.133   3.349
 4178TIP3   OH212539   6.012   3.382   2.575
 4178TIP3    H112540   5.952   3.337   2.516
 4178TIP3    H212541   6.080   3.318   2.595
 4179TIP3   OH212542   3.176   3.239   3.731
 4179TIP3    H112543   3.142   3.273   3.813
 4179TIP3    H212544   3.221   3.314   3.691
 4180TIP3   OH212545   1.196   3.462   3.687
 4180TIP3    H112546   1.147   3.532   3.645
 4180TIP3    H212547   1.137   3.427   3.754
 4181TIP3   OH212548   2.891   4.397   3.000
 4181TIP3    H112549   2.812   4.343   2.995
 4181TIP3    H212550   2.927   4.378   3.086
 4182TIP3   OH212551   4.378   4.884   0.455
 4182TIP3    H112552   4.448   4.931   0.410
 4182TIP3    H212553   4.298   4.909   0.408
 4183TIP3   OH212554   0.821   0.259   3.936
 4183TIP3    H112555   0.753   0.231   3.997
 4183TIP3    H212556   0.775   0.320   3.877
 4184TIP3   OH212557   1.002   4.058   2.642
 4184TIP3    H112558   0.936   4.074   2.575
 4184TIP3    H212559   1.083   4.094   2.606
 4185TIP3   OH212560   5.441   0.658   3.213
 4185TIP3    H112561   5.402   0.746   3.214
 4185TIP3    H212562   5.377   0.603   3.258
 4186TIP3   OH212563   3.362   1.744   3.529
 4186TIP3    H112564   3.333   1.706   3.446
 4186TIP3    H212565   3.431   1.806   3.503
 4187TIP3   OH212566   5.665   0.357   4.168
 4187TIP3    H112567   5.726   0.358   4.242
 4187TIP3    H212568   5.583   0.392   4.205
 4188TIP3   OH212569   4.901   1.545   2.391
 4188TIP3    H112570   4.949   1.575   2.468
 4188TIP3    H212571   4.809   1.558   2.414
 4189TIP3   OH212572   3.020   3.810   0.114
 4189TIP3    H112573   3.103   3.839   0.075
 4189TIP3    H212574   2.973   3.891   0.134
 4190TIP3   OH212575   3.430   5.323   2.935
 4190TIP3    H112576   3.427   5.341   2.841
 4190TIP3    H212577   3.522   5.307   2.954
 4191TIP3   OH212578   4.119   5.618   0.927
 4191TIP3    H112579   4.167   5.567   0.862
 4191TIP3    H212580   4.072   5.684   0.876
 4192TIP3   OH212581   2.029   5.534   2.059
 4192TIP3    H112582   2.013   5.621   2.095
 4192TIP3    H212583   1.954   5.482   2.088
 4193TIP3   OH212584   5.532   0.180   1.562
 4193TIP3    H112585   5.618   0.173   1.519
 4193TIP3    H212586   5.476   0.221   1.497
 4194TIP3   OH212587   2.275   0.674   3.905
 4194TIP3    H112588   2.195   0.647   3.950
 4194TIP3    H212589   2.249   0.689   3.815
 4195TIP3   OH212590   0.476   1.959   2.224
 4195TIP3    H112591   0.446   1.975   2.134
 4195TIP3    H212592   0.475   1.863   2.232
 4196TIP3   OH212593   2.335   3.690   0.551
 4196TIP3    H112594   2.393   3.752   0.594
 4196TIP3    H212595   2.383   3.661   0.474
 4197TIP3   OH212596   5.259   3.157   3.188
 4197TIP3    H112597   5.196   3.213   3.234
 4197TIP3    H212598   5.279   3.205   3.107
 4198TIP3   OH212599   4.380   2.354   1.497
 4198TIP3    H112600   4.436   2.427   1.523
 4198TIP3    H212601   4.427   2.312   1.424
 4199TIP3   OH212602   1.174   5.466   0.068
 4199TIP3    H112603   1.211   5.377   0.072
 4199TIP3    H212604   1.193   5.503   0.154
 4200TIP3   OH212605   1.118   2.640   0.218
 4200TIP3    H112606   1.122   2.689   0.301
 4200TIP3    H212607   1.030   2.655   0.185
 4201TIP3   OH212608   0.080   5.940   1.685
 4201TIP3    H112609   0.074   5.914   1.776
 4201TIP3    H212610   0.157   5.893   1.651
 4202TIP3   OH212611   1.679   2.997   0.788
 4202TIP3    H112612   1.606   3.053   0.813
 4202TIP3    H212613   1.675   2.994   0.692
 4203TIP3   OH212614   4.269   4.846   2.836
 4203TIP3    H112615   4.229   4.931   2.855
 4203TIP3    H212616   4.338   4.837   2.901
 4204TIP3   OH212617   5.363   1.304   2.752
 4204TIP3    H112618   5.369   1.259   2.668
 4204TIP3    H212619   5.452   1.334   2.771
 4205TIP3   OH212620   0.785   0.345   3.547
 4205TIP3    H112621   0.795   0.401   3.470
 4205TIP3    H212622   0.845   0.383   3.612
 4206TIP3   OH212623   1.193   0.843   4.616
 4206TIP3    H112624   1.259   0.860   4.550
 4206TIP3    H212625   1.119   0.898   4.591
 4207TIP3   OH212626   1.750   2.237   4.643
 4207TIP3    H112627   1.707   2.278   4.718
 4207TIP3    H212628   1.810   2.172   4.682
 4208TIP3   OH212629   5.585   5.370   3.823
 4208TIP3    H112630   5.491   5.360   3.838
 4208TIP3    H212631   5.596   5.461   3.795
 4209TIP3   OH212632   0.949   2.443   2.923
 4209TIP3    H112633   0.922   2.453   2.832
 4209TIP3    H212634   1.019   2.378   2.920
 4210TIP3   OH212635   2.758   5.849   1.738
 4210TIP3    H112636   2.702   5.777   1.768
 4210TIP3    H212637   2.833   5.806   1.698
 4211TIP3   OH212638   3.225   3.743   4.141
 4211TIP3    H112639   3.217   3.724   4.235
 4211TIP3    H212640   3.197   3.834   4.133
 4212TIP3   OH212641   3.119   5.946   4.189
 4212TIP3    H112642   3.136   5.993   4.107
 4212TIP3    H212643   3.027   5.963   4.207
 4213TIP3   OH212644   0.901   4.293   2.007
 4213TIP3    H112645   0.922   4.263   1.918
 4213TIP3    H212646   0.923   4.386   2.006
 4214TIP3   OH212647   3.186   5.321   4.066
 4214TIP3    H112648   3.204   5.280   4.150
 4214TIP3    H212649   3.112   5.380   4.084
 4215TIP3   OH212650   3.730   0.216   1.618
 4215TIP3    H112651   3.707   0.131   1.655
 4215TIP3    H212652   3.762   0.267   1.692
 4216TIP3   OH212653   5.221   5.911   0.878
 4216TIP3    H112654   5.278   5.965   0.823
 4216TIP3    H212655   5.133   5.946   0.864
 4217TIP3   OH212656   2.023   5.871   3.501
 4217TIP3    H112657   2.063   5.784   3.509
 4217TIP3    H212658   1.956   5.860   3.434
 4218TIP3   OH212659   3.178   3.443   2.409
 4218TIP3    H112660   3.149   3.361   2.449
 4218TIP3    H212661   3.259   3.465   2.455
 4219TIP3   OH212662   3.056   2.404   0.447
 4219TIP3    H112663   3.118   2.447   0.506
 4219TIP3    H212664   2.972   2.407   0.494
 4220TIP3   OH212665   5.736   3.489   1.735
 4220TIP3    H112666   5.653   3.493   1.782
 4220TIP3    H212667   5.726   3.552   1.664
 4221TIP3   OH212668   5.375   2.070   1.049
 4221TIP3    H112669   5.309   2.137   1.067
 4221TIP3    H212670   5.327   1.988   1.051
 4222TIP3   OH212671   1.850   4.530   2.187
 4222TIP3    H112672   1.891   4.500   2.106
 4222TIP3    H212673   1.758   4.541   2.164
 4223TIP3   OH212674   3.413   0.520   3.285
 4223TIP3    H112675   3.344   0.546   3.347
 4223TIP3    H212676   3.482   0.483   3.341
 4224TIP3   OH212677   2.782   3.485   3.956
 4224TIP3    H112678   2.757   3.493   3.864
 4224TIP3    H212679   2.823   3.569   3.978
 4225TIP3   OH212680   1.244   5.113   4.921
 4225TIP3    H112681   1.207   5.201   4.915
 4225TIP3    H212682   1.240   5.091   5.014
 4226TIP3   OH212683   4.853   0.817   1.155
 4226TIP3    H112684   4.926   0.878   1.151
 4226TIP3    H212685   4.881   0.743   1.100
 4227TIP3   OH212686   4.873   4.309   2.669
 4227TIP3    H112687   4.799   4.301   2.609
 4227TIP3    H212688   4.944   4.261   2.627
 4228TIP3   OH212689   1.432   4.213   1.576
 4228TIP3    H112690   1.368   4.282   1.555
 4228TIP3    H212691   1.423   4.200   1.670
 4229TIP3   OH212692   4.263   0.505   1.160
 4229TIP3    H112693   4.266   0.411   1.177
 4229TIP3    H212694   4.343   0.539   1.201
 4230TIP3   OH212695   4.042   5.277   2.273
 4230TIP3    H112696   3.990   5.302   2.196
 4230TIP3    H212697   4.006   5.331   2.344
 4231TIP3   OH212698   5.435   1.012   3.747
 4231TIP3    H112699   5.460   0.924   3.775
 4231TIP3    H212700   5.347   1.024   3.784
 4232TIP3   OH212701   3.104   5.024   2.020
 4232TIP3    H112702   3.072   4.978   1.942
 4232TIP3    H212703   3.191   4.988   2.035
 4233TIP3   OH212704   5.738   0.849   3.938
 4233TIP3    H112705   5.777   0.783   3.881
 4233TIP3    H212706   5.673   0.802   3.990
 4234TIP3   OH212707   1.490   4.136   5.066
 4234TIP3    H112708   1.499   4.165   4.976
 4234TIP3    H212709   1.411   4.180   5.098
 4235TIP3   OH212710   6.052   0.537   2.685
 4235TIP3    H112711   6.101   0.577   2.614
 4235TIP3    H212712   6.050   0.604   2.754
 4236TIP3   OH212713   3.583   3.562   3.380
 4236TIP3    H112714   3.494   3.585   3.355
 4236TIP3    H212715   3.630   3.556   3.296
 4237TIP3   OH212716   2.468   0.875   3.908
 4237TIP3    H112717   2.469   0.894   3.814
 4237TIP3    H212718   2.430   0.787   3.914
 4238TIP3   OH212719   3.018   0.181   2.314
 4238TIP3    H112720   3.076   0.187   2.389
 4238TIP3    H212721   3.069   0.136   2.247
 4239TIP3   OH212722   4.122   0.227   3.098
 4239TIP3    H112723   4.110   0.315   3.062
 4239TIP3    H212724   4.209   0.201   3.069
 4240TIP3   OH212725   6.277   2.742   1.052
 4240TIP3    H112726   6.237   2.655   1.047
 4240TIP3    H212727   6.212   2.795   1.100
 4241TIP3   OH212728   5.624   4.429   1.332
 4241TIP3    H112729   5.567   4.503   1.354
 4241TIP3    H212730   5.578   4.352   1.364
 4242TIP3   OH212731   0.484   5.887   4.868
 4242TIP3    H112732   0.538   5.908   4.791
 4242TIP3    H212733   0.488   5.965   4.922
 4243TIP3   OH212734   0.703   5.562   3.835
 4243TIP3    H112735   0.701   5.518   3.920
 4243TIP3    H212736   0.631   5.523   3.786
 4244TIP3   OH212737   6.288   0.931   1.418
 4244TIP3    H112738   6.235   0.866   1.463
 4244TIP3    H212739   6.236   1.012   1.422
 4245TIP3   OH212740   4.431   5.078   2.734
 4245TIP3    H112741   4.437   4.992   2.774
 4245TIP3    H212742   4.337   5.089   2.715
 4246TIP3   OH212743   5.352   0.564   0.878
 4246TIP3    H112744   5.310   0.648   0.859
 4246TIP3    H212745   5.366   0.564   0.972
 4247TIP3   OH212746   4.314   5.721   4.555
 4247TIP3    H112747   4.379   5.733   4.486
 4247TIP3    H212748   4.290   5.628   4.550
 4248TIP3   OH212749   2.533   4.933   2.065
 4248TIP3    H112750   2.539   5.028   2.077
 4248TIP3    H212751   2.622   4.902   2.082
 4249TIP3   OH212752   4.384   5.457   1.581
 4249TIP3    H112753   4.366   5.419   1.667
 4249TIP3    H212754   4.432   5.388   1.535
 4250TIP3   OH212755   0.488   1.330   3.352
 4250TIP3    H112756   0.461   1.242   3.324
 4250TIP3    H212757   0.426   1.388   3.309
 4251TIP3   OH212758   1.537   3.803   2.130
 4251TIP3    H112759   1.585   3.793   2.213
 4251TIP3    H212760   1.448   3.825   2.156
 4252TIP3   OH212761   5.066   5.587   2.388
 4252TIP3    H112762   5.005   5.529   2.434
 4252TIP3    H212763   5.148   5.537   2.384
 4253TIP3   OH212764   3.457   1.102   1.641
 4253TIP3    H112765   3.396   1.088   1.569
 4253TIP3    H212766   3.444   1.027   1.699
 4254TIP3   OH212767   4.552   4.055   3.426
 4254TIP3    H112768   4.468   4.054   3.470
 4254TIP3    H212769   4.592   4.138   3.453
 4255TIP3   OH212770   0.293   1.703   2.415
 4255TIP3    H112771   0.386   1.683   2.403
 4255TIP3    H212772   0.248   1.625   2.383
 4256TIP3   OH212773   2.950   4.072   0.078
 4256TIP3    H112774   3.038   4.111   0.080
 4256TIP3    H212775   2.907   4.108   0.156
 4257TIP3   OH212776   2.996   4.090   0.844
 4257TIP3    H112777   3.090   4.093   0.857
 4257TIP3    H212778   2.960   4.144   0.914
 4258TIP3   OH212779   5.945   2.436   2.576
 4258TIP3    H112780   5.921   2.345   2.560
 4258TIP3    H212781   5.907   2.458   2.661
 4259TIP3   OH212782   0.447   0.171   2.416
 4259TIP3    H112783   0.397   0.090   2.421
 4259TIP3    H212784   0.525   0.148   2.366
 4260TIP3   OH212785   1.664   4.847   0.076
 4260TIP3    H112786   1.746   4.873   0.119
 4260TIP3    H212787   1.616   4.799   0.144
 4261TIP3   OH212788   1.163   4.682   1.020
 4261TIP3    H112789   1.165   4.749   1.089
 4261TIP3    H212790   1.237   4.705   0.964
 4262TIP3   OH212791   5.812   1.648   3.888
 4262TIP3    H112792   5.746   1.666   3.954
 4262TIP3    H212793   5.782   1.567   3.846
 4263TIP3   OH212794   0.903   1.557   1.561
 4263TIP3    H112795   0.939   1.604   1.637
 4263TIP3    H212796   0.976   1.551   1.500
 4264TIP3   OH212797   3.939   1.246   0.784
 4264TIP3    H112798   3.949   1.207   0.871
 4264TIP3    H212799   3.892   1.180   0.733
 4265TIP3   OH212800   1.242   0.453   4.420
 4265TIP3    H112801   1.288   0.504   4.355
 4265TIP3    H212802   1.152   0.448   4.388
 4266TIP3   OH212803   2.837   2.757   4.124
 4266TIP3    H112804   2.790   2.775   4.043
 4266TIP3    H212805   2.773   2.774   4.193
 4267TIP3   OH212806   1.558   5.647   4.229
 4267TIP3    H112807   1.630   5.695   4.271
 4267TIP3    H212808   1.581   5.555   4.239
 4268TIP3   OH212809   0.522   4.531   1.032
 4268TIP3    H112810   0.572   4.541   1.113
 4268TIP3    H212811   0.571   4.467   0.981
 4269TIP3   OH212812   6.015   5.411   0.757
 4269TIP3    H112813   6.020   5.451   0.844
 4269TIP3    H212814   5.945   5.347   0.764
 4270TIP3   OH212815   3.406   3.049   3.976
 4270TIP3    H112816   3.351   2.978   4.008
 4270TIP3    H212817   3.494   3.027   4.008
 4271TIP3   OH212818   2.291   3.130   2.367
 4271TIP3    H112819   2.266   3.209   2.320
 4271TIP3    H212820   2.230   3.125   2.441
 4272TIP3   OH212821   2.911   2.067   2.803
 4272TIP3    H112822   2.865   2.058   2.887
 4272TIP3    H212823   2.846   2.043   2.737
 4273TIP3   OH212824   0.818   1.277   3.865
 4273TIP3    H112825   0.755   1.207   3.853
 4273TIP3    H212826   0.773   1.356   3.837
 4274TIP3   OH212827   2.914   2.270   5.071
 4274TIP3    H112828   2.903   2.301   4.982
 4274TIP3    H212829   2.912   2.175   5.064
 4275TIP3   OH212830   3.553   5.125   1.073
 4275TIP3    H112831   3.608   5.161   1.143
 4275TIP3    H212832   3.464   5.146   1.100
 4276TIP3   OH212833   3.207   4.411   3.938
 4276TIP3    H112834   3.229   4.442   4.026
 4276TIP3    H212835   3.201   4.490   3.885
 4277TIP3   OH212836   4.657   2.101   3.516
 4277TIP3    H112837   4.709   2.104   3.436
 4277TIP3    H212838   4.706   2.155   3.579
 4278TIP3   OH212839   3.430   1.361   3.570
 4278TIP3    H112840   3.402   1.293   3.631
 4278TIP3    H212841   3.380   1.438   3.595
 4279TIP3   OH212842   1.832   2.363   3.903
 4279TIP3    H112843   1.754   2.402   3.866
 4279TIP3    H212844   1.810   2.346   3.994
 4280TIP3   OH212845   2.280   4.312   0.146
 4280TIP3    H112846   2.316   4.247   0.086
 4280TIP3    H212847   2.211   4.355   0.097
 4281TIP3   OH212848   5.468   5.260   2.909
 4281TIP3    H112849   5.490   5.172   2.939
 4281TIP3    H212850   5.397   5.248   2.846
 4282TIP3   OH212851   2.202   5.093   0.169
 4282TIP3    H112852   2.184   5.156   0.239
 4282TIP3    H212853   2.292   5.064   0.186
 4283TIP3   OH212854   4.200   0.443   4.110
 4283TIP3    H112855   4.125   0.470   4.163
 4283TIP3    H212856   4.193   0.348   4.104
 4284TIP3   OH212857   3.696   3.240   1.983
 4284TIP3    H112858   3.687   3.150   1.950
 4284TIP3    H212859   3.640   3.292   1.927
 4285TIP3   OH212860   1.848   3.278   4.622
 4285TIP3    H112861   1.927   3.225   4.624
 4285TIP3    H212862   1.814   3.274   4.711
 4286TIP3   OH212863   5.536   2.093   2.871
 4286TIP3    H112864   5.465   2.136   2.822
 4286TIP3    H212865   5.495   2.066   2.953
 4287TIP3   OH212866   4.628   4.350   0.088
 4287TIP3    H112867   4.645   4.269   0.041
 4287TIP3    H212868   4.599   4.322   0.175
 4288TIP3   OH212869   3.543   3.375   4.277
 4288TIP3    H112870   3.616   3.341   4.226
 4288TIP3    H212871   3.572   3.461   4.308
 4289TIP3   OH212872   4.154   4.391   2.354
 4289TIP3    H112873   4.102   4.354   2.426
 4289TIP3    H212874   4.095   4.452   2.311
 4290TIP3   OH212875   4.322   5.633   2.814
 4290TIP3    H112876   4.361   5.573   2.750
 4290TIP3    H212877   4.363   5.609   2.897
 4291TIP3   OH212878   4.634   0.048   1.741
 4291TIP3    H112879   4.689   0.048   1.662
 4291TIP3    H212880   4.691   0.085   1.809
 4292TIP3   OH212881   5.709   3.864   4.305
 4292TIP3    H112882   5.674   3.946   4.338
 4292TIP3    H212883   5.799   3.885   4.278
 4293TIP3   OH212884   1.827   3.259   0.680
 4293TIP3    H112885   1.807   3.176   0.724
 4293TIP3    H212886   1.856   3.317   0.751
 4294TIP3   OH212887   2.073   4.622   1.492
 4294TIP3    H112888   2.140   4.650   1.554
 4294TIP3    H212889   2.094   4.668   1.411
 4295TIP3   OH212890   1.421   3.827   0.405
 4295TIP3    H112891   1.337   3.815   0.451
 4295TIP3    H212892   1.468   3.891   0.458
 4296TIP3   OH212893   0.914   1.400   3.053
 4296TIP3    H112894   0.978   1.471   3.051
 4296TIP3    H212895   0.833   1.440   3.018
 4297TIP3   OH212896   5.753   0.030   3.216
 4297TIP3    H112897   5.798   0.089   3.277
 4297TIP3    H212898   5.824  -0.019   3.174
 4298TIP3   OH212899   5.427   5.533   3.531
 4298TIP3    H112900   5.340   5.562   3.557
 4298TIP3    H212901   5.427   5.539   3.435
 4299TIP3   OH212902   0.098   1.107   5.139
 4299TIP3    H112903   0.021   1.129   5.086
 4299TIP3    H212904   0.159   1.068   5.077
 4300TIP3   OH212905   2.485   2.493   3.688
 4300TIP3    H112906   2.438   2.530   3.763
 4300TIP3    H212907   2.555   2.440   3.728
 4301TIP3   OH212908   2.098   2.875   4.895
 4301TIP3    H112909   2.115   2.849   4.804
 4301TIP3    H212910   2.003   2.880   4.902
 4302TIP3   OH212911   2.487   3.439   3.678
 4302TIP3    H112912   2.487   3.383   3.756
 4302TIP3    H212913   2.580   3.451   3.658
 4303TIP3   OH212914   5.900   0.343   1.634
 4303TIP3    H112915   5.881   0.252   1.653
 4303TIP3    H212916   5.818   0.378   1.598
 4304TIP3   OH212917   1.913   1.992   1.500
 4304TIP3    H112918   1.935   1.900   1.517
 4304TIP3    H212919   1.987   2.041   1.536
 4305TIP3   OH212920   1.888   1.337   3.450
 4305TIP3    H112921   1.801   1.345   3.490
 4305TIP3    H212922   1.894   1.413   3.392
 4306TIP3   OH212923   5.247   3.584   0.108
 4306TIP3    H112924   5.165   3.606   0.152
 4306TIP3    H212925   5.314   3.633   0.155
 4307TIP3   OH212926   4.735   0.744   1.682
 4307TIP3    H112927   4.827   0.735   1.707
 4307TIP3    H212928   4.736   0.747   1.587
 4308TIP3   OH212929   6.229   5.256   0.945
 4308TIP3    H112930   6.152   5.205   0.921
 4308TIP3    H212931   6.283   5.257   0.866
 4309TIP3   OH212932   1.433   0.621   2.774
 4309TIP3    H112933   1.493   0.600   2.702
 4309TIP3    H212934   1.490   0.659   2.841
 4310TIP3   OH212935   2.440   4.209   1.241
 4310TIP3    H112936   2.379   4.275   1.276
 4310TIP3    H212937   2.383   4.137   1.214
 4311TIP3   OH212938   0.028   1.208   1.109
 4311TIP3    H112939  -0.053   1.239   1.067
 4311TIP3    H212940   0.092   1.277   1.092
 4312TIP3   OH212941   1.899   2.725   4.298
 4312TIP3    H112942   1.912   2.654   4.360
 4312TIP3    H212943   1.878   2.801   4.353
 4313TIP3   OH212944   3.634   4.961   3.732
 4313TIP3    H112945   3.634   4.865   3.722
 4313TIP3    H212946   3.563   4.978   3.793
 4314TIP3   OH212947   4.512   2.350   3.679
 4314TIP3    H112948   4.570   2.274   3.671
 4314TIP3    H212949   4.540   2.393   3.760
 4315TIP3   OH212950   0.909   2.400   5.101
 4315TIP3    H112951   0.926   2.494   5.093
 4315TIP3    H212952   0.818   2.396   5.133
 4316TIP3   OH212953   4.852   3.540   4.176
 4316TIP3    H112954   4.919   3.599   4.143
 4316TIP3    H212955   4.772   3.592   4.178
 4317TIP3   OH212956   1.023   2.663   4.812
 4317TIP3    H112957   1.118   2.671   4.818
 4317TIP3    H212958   1.001   2.698   4.725
 4318TIP3   OH212959   0.196   2.169   4.322
 4318TIP3    H112960   0.280   2.187   4.278
 4318TIP3    H212961   0.220   2.142   4.410
 4319TIP3   OH212962   1.054   2.505   3.642
 4319TIP3    H112963   0.987   2.571   3.625
 4319TIP3    H212964   1.041   2.440   3.572
 4320TIP3   OH212965   0.975   4.660   0.303
 4320TIP3    H112966   0.990   4.737   0.358
 4320TIP3    H212967   0.901   4.684   0.248
 4321TIP3   OH212968   4.607   4.395   5.019
 4321TIP3    H112969   4.700   4.387   5.043
 4321TIP3    H212970   4.560   4.385   5.101
 4322TIP3   OH212971   4.131   3.544   2.471
 4322TIP3    H112972   4.159   3.633   2.493
 4322TIP3    H212973   4.102   3.549   2.380
 4323TIP3   OH212974   0.884   5.895   3.332
 4323TIP3    H112975   0.959   5.944   3.297
 4323TIP3    H212976   0.918   5.806   3.344
 4324TIP3   OH212977   3.638   5.745   0.020
 4324TIP3    H112978   3.589   5.663   0.024
 4324TIP3    H212979   3.694   5.743   0.098
 4325TIP3   OH212980   3.820   1.962   2.016
 4325TIP3    H112981   3.805   1.956   1.922
 4325TIP3    H212982   3.910   1.992   2.024
 4326TIP3   OH212983   4.173   1.127   5.110
 4326TIP3    H112984   4.268   1.136   5.115
 4326TIP3    H212985   4.150   1.077   5.189
 4327TIP3   OH212986   4.245   2.057   4.785
 4327TIP3    H112987   4.315   1.993   4.801
 4327TIP3    H212988   4.165   2.011   4.809
 4328TIP3   OH212989   0.502   0.677   4.998
 4328TIP3    H112990   0.449   0.755   4.983
 4328TIP3    H212991   0.556   0.698   5.074
 4329TIP3   OH212992   3.588   5.939   3.836
 4329TIP3    H112993   3.604   5.986   3.917
 4329TIP3    H212994   3.493   5.939   3.827
 4330TIP3   OH212995   5.802   4.688   3.397
 4330TIP3    H112996   5.891   4.659   3.377
 4330TIP3    H212997   5.807   4.721   3.487
 4331TIP3   OH212998   4.072   2.839   4.990
 4331TIP3    H112999   4.083   2.934   4.991
 4331TIP3    H213000   4.024   2.819   5.070
 4332TIP3   OH213001   5.706   5.617   2.792
 4332TIP3    H113002   5.631   5.669   2.820
 4332TIP3    H213003   5.743   5.666   2.718
 4333TIP3   OH213004   4.270   4.337   0.218
 4333TIP3    H113005   4.274   4.268   0.151
 4333TIP3    H213006   4.222   4.298   0.290
 4334TIP3   OH213007   5.152   0.442   4.573
 4334TIP3    H113008   5.238   0.425   4.535
 4334TIP3    H213009   5.155   0.399   4.659
 4335TIP3   OH213010   0.991   5.613   3.327
 4335TIP3    H113011   1.083   5.637   3.317
 4335TIP3    H213012   0.983   5.529   3.282
 4336TIP3   OH213013   1.135   3.044   2.014
 4336TIP3    H113014   1.157   3.016   1.925
 4336TIP3    H213015   1.149   3.139   2.014
 4337TIP3   OH213016   1.736   3.333   2.236
 4337TIP3    H113017   1.666   3.354   2.174
 4337TIP3    H213018   1.708   3.252   2.278
 4338TIP3   OH213019   5.296   4.133   3.853
 4338TIP3    H113020   5.297   4.144   3.948
 4338TIP3    H213021   5.369   4.074   3.835
 4339TIP3   OH213022   4.704   0.804   1.403
 4339TIP3    H113023   4.665   0.890   1.419
 4339TIP3    H213024   4.730   0.806   1.311
 4340TIP3   OH213025   2.652   1.917   1.521
 4340TIP3    H113026   2.560   1.944   1.523
 4340TIP3    H213027   2.654   1.833   1.567
 4341TIP3   OH213028   2.457   3.558   4.663
 4341TIP3    H113029   2.422   3.472   4.637
 4341TIP3    H213030   2.379   3.611   4.681
 4342TIP3   OH213031   1.277   3.532   4.001
 4342TIP3    H113032   1.303   3.615   4.042
 4342TIP3    H213033   1.313   3.538   3.912
 4343TIP3   OH213034   0.037   2.133   2.473
 4343TIP3    H113035   0.086   2.214   2.459
 4343TIP3    H213036   0.052   2.082   2.393
 4344TIP3   OH213037   5.785   5.312   0.878
 4344TIP3    H113038   5.734   5.266   0.944
 4344TIP3    H213039   5.730   5.386   0.853
 4345TIP3   OH213040   5.887   4.443   2.268
 4345TIP3    H113041   5.900   4.456   2.174
 4345TIP3    H213042   5.943   4.367   2.288
 4346TIP3   OH213043   1.557   4.833   4.456
 4346TIP3    H113044   1.585   4.914   4.499
 4346TIP3    H213045   1.578   4.846   4.364
 4347TIP3   OH213046   5.092   5.868   3.653
 4347TIP3    H113047   5.151   5.813   3.602
 4347TIP3    H213048   5.140   5.884   3.735
 4348TIP3   OH213049   6.111   0.007   1.868
 4348TIP3    H113050   6.163  -0.001   1.788
 4348TIP3    H213051   6.027   0.043   1.839
 4349TIP3   OH213052   6.109   5.498   2.360
 4349TIP3    H113053   6.079   5.530   2.445
 4349TIP3    H213054   6.170   5.566   2.330
 4350TIP3   OH213055   1.718   1.698   3.227
 4350TIP3    H113056   1.753   1.754   3.157
 4350TIP3    H213057   1.644   1.749   3.262
 4351TIP3   OH213058   2.330   4.961   5.058
 4351TIP3    H113059   2.358   5.047   5.091
 4351TIP3    H213060   2.402   4.932   5.002
 4352TIP3   OH213061   2.800   1.696   0.959
 4352TIP3    H113062   2.893   1.713   0.945
 4352TIP3    H213063   2.798   1.614   1.008
 4353TIP3   OH213064   0.407   3.943   3.234
 4353TIP3    H113065   0.480   3.995   3.201
 4353TIP3    H213066   0.331   4.001   3.228
 4354TIP3   OH213067   2.308   1.747   0.280
 4354TIP3    H113068   2.288   1.829   0.235
 4354TIP3    H213069   2.357   1.774   0.358
 4355TIP3   OH213070   4.616   5.312   4.352
 4355TIP3    H113071   4.608   5.223   4.316
 4355TIP3    H213072   4.594   5.369   4.278
 4356TIP3   OH213073   1.588   4.753   3.019
 4356TIP3    H113074   1.515   4.699   3.051
 4356TIP3    H213075   1.647   4.759   3.094
 4357TIP3   OH213076   0.189   5.957   4.757
 4357TIP3    H113077   0.176   5.905   4.836
 4357TIP3    H213078   0.260   6.017   4.778
 4358TIP3   OH213079   1.781   0.503   0.771
 4358TIP3    H113080   1.690   0.503   0.800
 4358TIP3    H213081   1.780   0.553   0.689
 4359TIP3   OH213082   2.374   1.664   3.981
 4359TIP3    H113083   2.425   1.738   4.012
 4359TIP3    H213084   2.413   1.641   3.896
 4360TIP3   OH213085   0.465   1.459   2.571
 4360TIP3    H113086   0.541   1.499   2.612
 4360TIP3    H213087   0.422   1.411   2.642
 4361TIP3   OH213088   1.615   3.407   2.000
 4361TIP3    H113089   1.683   3.381   1.938
 4361TIP3    H213090   1.559   3.329   2.007
 4362TIP3   OH213091   5.440   3.878   4.743
 4362TIP3    H113092   5.531   3.903   4.758
 4362TIP3    H213093   5.440   3.841   4.654
 4363TIP3   OH213094   1.557   1.183   4.466
 4363TIP3    H113095   1.554   1.260   4.523
 4363TIP3    H213096   1.647   1.180   4.434
 4364TIP3   OH213097   3.309   2.592   5.075
 4364TIP3    H113098   3.279   2.551   5.156
 4364TIP3    H213099   3.373   2.657   5.104
 4365TIP3   OH213100   2.169   4.593   1.213
 4365TIP3    H113101   2.135   4.522   1.158
 4365TIP3    H213102   2.138   4.673   1.170
 4366TIP3   OH213103   5.119   3.749   3.849
 4366TIP3    H113104   5.199   3.789   3.881
 4366TIP3    H213105   5.049   3.810   3.874
 4367TIP3   OH213106   0.353   1.391   0.503
 4367TIP3    H113107   0.434   1.386   0.554
 4367TIP3    H213108   0.350   1.309   0.455
 4368TIP3   OH213109   3.322   4.178   3.082
 4368TIP3    H113110   3.400   4.232   3.096
 4368TIP3    H213111   3.336   4.100   3.135
 4369TIP3   OH213112   5.644   4.291   0.137
 4369TIP3    H113113   5.729   4.321   0.171
 4369TIP3    H213114   5.637   4.200   0.166
 4370TIP3   OH213115   1.959   0.184   3.560
 4370TIP3    H113116   1.949   0.134   3.478
 4370TIP3    H213117   1.967   0.116   3.627
 4371TIP3   OH213118   1.102   1.395   2.368
 4371TIP3    H113119   1.087   1.309   2.408
 4371TIP3    H213120   1.182   1.384   2.317
 4372TIP3   OH213121   5.307   1.648   2.515
 4372TIP3    H113122   5.257   1.657   2.596
 4372TIP3    H213123   5.284   1.561   2.482
 4373TIP3   OH213124   3.967   2.044   4.262
 4373TIP3    H113125   4.042   2.096   4.290
 4373TIP3    H213126   4.004   1.959   4.238
 4374TIP3   OH213127   2.512   0.497   3.127
 4374TIP3    H113128   2.549   0.413   3.154
 4374TIP3    H213129   2.433   0.508   3.180
 4375TIP3   OH213130   6.210   4.086   4.745
 4375TIP3    H113131   6.153   4.009   4.752
 4375TIP3    H213132   6.178   4.132   4.667
 4376TIP3   OH213133   4.147   4.356   3.662
 4376TIP3    H113134   4.170   4.444   3.694
 4376TIP3    H213135   4.216   4.300   3.698
 4377TIP3   OH213136   2.835   2.091   0.806
 4377TIP3    H113137   2.775   2.089   0.880
 4377TIP3    H213138   2.921   2.074   0.844
 4378TIP3   OH213139   0.906   5.774   0.234
 4378TIP3    H113140   0.896   5.769   0.329
 4378TIP3    H213141   0.830   5.728   0.199
 4379TIP3   OH213142   2.581   2.367   4.015
 4379TIP3    H113143   2.512   2.368   3.949
 4379TIP3    H213144   2.581   2.278   4.049
 4380TIP3   OH213145   3.034   0.844   0.232
 4380TIP3    H113146   2.970   0.781   0.199
 4380TIP3    H213147   2.982   0.921   0.255
 4381TIP3   OH213148   4.408   5.770   3.145
 4381TIP3    H113149   4.372   5.812   3.223
 4381TIP3    H213150   4.500   5.798   3.142
 4382TIP3   OH213151   2.305   0.639   2.943
 4382TIP3    H113152   2.212   0.626   2.958
 4382TIP3    H213153   2.334   0.696   3.014
 4383TIP3   OH213154   2.044   1.726   1.525
 4383TIP3    H113155   2.103   1.702   1.454
 4383TIP3    H213156   2.102   1.753   1.597
 4384TIP3   OH213157   6.285   5.846   3.402
 4384TIP3    H113158   6.360   5.812   3.451
 4384TIP3    H213159   6.289   5.799   3.318
 4385TIP3   OH213160   5.712   2.046   5.170
 4385TIP3    H113161   5.727   2.042   5.076
 4385TIP3    H213162   5.766   1.976   5.206
 4386TIP3   OH213163   0.341   3.231   4.482
 4386TIP3    H113164   0.246   3.235   4.470
 4386TIP3    H213165   0.352   3.202   4.573
 4387TIP3   OH213166   2.347   5.172   0.419
 4387TIP3    H113167   2.360   5.267   0.411
 4387TIP3    H213168   2.363   5.154   0.512
 4388TIP3   OH213169   5.101   5.789   4.103
 4388TIP3    H113170   5.148   5.864   4.065
 4388TIP3    H213171   5.164   5.750   4.163
 4389TIP3   OH213172   3.104   4.037   1.447
 4389TIP3    H113173   3.010   4.021   1.454
 4389TIP3    H213174   3.137   4.025   1.536
 4390TIP3   OH213175   5.319   5.739   4.942
 4390TIP3    H113176   5.285   5.710   5.027
 4390TIP3    H213177   5.386   5.674   4.920
 4391TIP3   OH213178   0.794   1.210   3.252
 4391TIP3    H113179   0.770   1.126   3.291
 4391TIP3    H213180   0.731   1.272   3.288
 4392TIP3   OH213181   1.041   5.217   2.788
 4392TIP3    H113182   0.982   5.269   2.733
 4392TIP3    H213183   0.982   5.160   2.837
 4393TIP3   OH213184   0.165   2.297   1.771
 4393TIP3    H113185   0.196   2.207   1.759
 4393TIP3    H213186   0.231   2.351   1.728
 4394TIP3   OH213187   2.991   3.957   2.078
 4394TIP3    H113188   3.068   3.974   2.132
 4394TIP3    H213189   2.918   3.996   2.126
 4395TIP3   OH213190  -0.028   1.550   4.663
 4395TIP3    H113191   0.001   1.531   4.573
 4395TIP3    H213192   0.051   1.538   4.716
 4396TIP3   OH213193   0.573   2.065   1.484
 4396TIP3    H113194   0.646   2.016   1.521
 4396TIP3    H213195   0.549   2.016   1.405
 4397TIP3   OH213196   1.105   1.620   1.392
 4397TIP3    H113197   1.036   1.641   1.329
 4397TIP3    H213198   1.186   1.623   1.341
 4398TIP3   OH213199   5.778   3.978   2.998
 4398TIP3    H113200   5.696   3.962   3.044
 4398TIP3    H213201   5.844   3.932   3.050
 4399TIP3   OH213202   1.027   3.491   5.102
 4399TIP3    H113203   1.115   3.511   5.133
 4399TIP3    H213204   1.041   3.437   5.024
 4400TIP3   OH213205   4.783   1.145   3.675
 4400TIP3    H113206   4.733   1.164   3.595
 4400TIP3    H213207   4.860   1.097   3.644
 4401TIP3   OH213208   3.364   3.302   4.912
 4401TIP3    H113209   3.327   3.386   4.939
 4401TIP3    H213210   3.329   3.239   4.976
 4402TIP3   OH213211   5.932   0.826   0.514
 4402TIP3    H113212   5.958   0.912   0.482
 4402TIP3    H213213   5.859   0.801   0.457
 4403TIP3   OH213214   5.140   3.455   4.517
 4403TIP3    H113215   5.164   3.526   4.458
 4403TIP3    H213216   5.205   3.459   4.587
 4404TIP3   OH213217   1.687   5.839   0.864
 4404TIP3    H113218   1.610   5.782   0.855
 4404TIP3    H213219   1.703   5.842   0.958
 4405TIP3   OH213220   2.095   5.822   1.281
 4405TIP3    H113221   2.035   5.829   1.206
 4405TIP3    H213222   2.117   5.912   1.303
 4406TIP3   OH213223   2.327   1.988   2.677
 4406TIP3    H113224   2.295   2.035   2.755
 4406TIP3    H213225   2.419   1.970   2.696
 4407TIP3   OH213226   5.221   4.292   3.395
 4407TIP3    H113227   5.201   4.252   3.479
 4407TIP3    H213228   5.306   4.256   3.370
 4408TIP3   OH213229   0.372   2.635   3.696
 4408TIP3    H113230   0.350   2.591   3.779
 4408TIP3    H213231   0.362   2.567   3.630
 4409TIP3   OH213232   3.323   4.341   0.630
 4409TIP3    H113233   3.399   4.390   0.663
 4409TIP3    H213234   3.341   4.327   0.538
 4410TIP3   OH213235   2.236   2.065   2.108
 4410TIP3    H113236   2.183   2.111   2.042
 4410TIP3    H213237   2.211   1.973   2.099
 4411TIP3   OH213238   3.669   5.974   0.415
 4411TIP3    H113239   3.744   5.916   0.406
 4411TIP3    H213240   3.596   5.926   0.376
 4412TIP3   OH213241   1.101   1.327   3.261
 4412TIP3    H113242   1.146   1.309   3.344
 4412TIP3    H213243   1.096   1.422   3.256
 4413TIP3   OH213244   3.042   0.675   3.733
 4413TIP3    H113245   2.983   0.607   3.702
 4413TIP3    H213246   2.984   0.740   3.772
 4414TIP3   OH213247   5.419   1.760   5.195
 4414TIP3    H113248   5.496   1.725   5.239
 4414TIP3    H213249   5.439   1.752   5.102
 4415TIP3   OH213250   5.976   2.104   2.686
 4415TIP3    H113251   5.924   2.122   2.764
 4415TIP3    H213252   6.066   2.128   2.710
 4416TIP3   OH213253   4.186   3.454   0.464
 4416TIP3    H113254   4.155   3.461   0.555
 4416TIP3    H213255   4.135   3.382   0.427
 4417TIP3   OH213256   5.116   3.982   3.125
 4417TIP3    H113257   5.144   3.943   3.207
 4417TIP3    H213258   5.125   4.077   3.138
 4418TIP3   OH213259   0.981   0.373   3.115
 4418TIP3    H113260   0.985   0.398   3.207
 4418TIP3    H213261   0.891   0.394   3.089
 4419TIP3   OH213262   3.981   0.758   3.796
 4419TIP3    H113263   3.982   0.805   3.879
 4419TIP3    H213264   3.957   0.669   3.819
 4420TIP3   OH213265   1.865   0.558   1.438
 4420TIP3    H113266   1.912   0.519   1.512
 4420TIP3    H213267   1.928   0.554   1.365
 4421TIP3   OH213268   1.172   0.812   4.988
 4421TIP3    H113269   1.090   0.785   4.947
 4421TIP3    H213270   1.173   0.907   4.983
 4422TIP3   OH213271   3.239   1.281   2.009
 4422TIP3    H113272   3.302   1.216   2.040
 4422TIP3    H213273   3.291   1.359   1.989
 4423TIP3   OH213274   0.684   2.686   2.729
 4423TIP3    H113275   0.599   2.642   2.725
 4423TIP3    H213276   0.737   2.642   2.663
 4424TIP3   OH213277   5.876   5.795   1.522
 4424TIP3    H113278   5.879   5.890   1.515
 4424TIP3    H213279   5.875   5.778   1.617
 4425TIP3   OH213280   5.441   1.119   0.200
 4425TIP3    H113281   5.476   1.183   0.139
 4425TIP3    H213282   5.391   1.170   0.264
 4426TIP3   OH213283   1.332   1.861   4.729
 4426TIP3    H113284   1.405   1.923   4.723
 4426TIP3    H213285   1.256   1.915   4.749
 4427TIP3   OH213286   6.122   2.390   3.371
 4427TIP3    H113287   6.169   2.356   3.447
 4427TIP3    H213288   6.059   2.452   3.407
 4428TIP3   OH213289   5.223   0.800   2.891
 4428TIP3    H113290   5.127   0.792   2.893
 4428TIP3    H213291   5.239   0.894   2.891
 4429TIP3   OH213292   3.503   2.685   4.030
 4429TIP3    H113293   3.563   2.615   4.055
 4429TIP3    H213294   3.475   2.723   4.113
 4430TIP3   OH213295   6.035   5.574   4.388
 4430TIP3    H113296   5.950   5.616   4.375
 4430TIP3    H213297   6.099   5.642   4.371
 4431TIP3   OH213298   4.212   2.156   1.915
 4431TIP3    H113299   4.153   2.093   1.956
 4431TIP3    H213300   4.245   2.209   1.988
 4432TIP3   OH213301   1.784   1.963   2.985
 4432TIP3    H113302   1.739   2.020   3.048
 4432TIP3    H213303   1.719   1.946   2.917
 4433TIP3   OH213304   3.345   4.436   0.950
 4433TIP3    H113305   3.325   4.501   1.018
 4433TIP3    H213306   3.378   4.488   0.876
 4434TIP3   OH213307   0.665   1.321   5.122
 4434TIP3    H113308   0.745   1.340   5.073
 4434TIP3    H213309   0.687   1.345   5.212
 4435TIP3   OH213310   2.161   3.043   2.639
 4435TIP3    H113311   2.193   3.017   2.725
 4435TIP3    H213312   2.127   2.962   2.601
 4436TIP3   OH213313   5.142   5.561   2.819
 4436TIP3    H113314   5.175   5.476   2.789
 4436TIP3    H213315   5.070   5.582   2.760
 4437TIP3   OH213316   4.752   4.939   3.441
 4437TIP3    H113317   4.770   4.915   3.351
 4437TIP3    H213318   4.838   4.952   3.481
 4438TIP3   OH213319   3.979   0.944   3.994
 4438TIP3    H113320   4.001   0.896   4.075
 4438TIP3    H213321   3.983   1.036   4.019
 4439TIP3   OH213322   0.804   5.039   2.620
 4439TIP3    H113323   0.870   4.973   2.598
 4439TIP3    H213324   0.855   5.116   2.643
 4440TIP3   OH213325   5.616   5.618   1.520
 4440TIP3    H113326   5.607   5.538   1.470
 4440TIP3    H213327   5.711   5.634   1.523
 4441TIP3   OH213328   5.087   1.148   0.196
 4441TIP3    H113329   5.014   1.151   0.258
 4441TIP3    H213330   5.104   1.240   0.175
 4442TIP3   OH213331   1.346   3.949   1.847
 4442TIP3    H113332   1.387   4.035   1.854
 4442TIP3    H213333   1.266   3.956   1.900
 4443TIP3   OH213334   6.116   0.511   1.249
 4443TIP3    H113335   6.041   0.565   1.274
 4443TIP3    H213336   6.192   0.557   1.284
 4444TIP3   OH213337   0.576   1.532   0.731
 4444TIP3    H113338   0.481   1.524   0.735
 4444TIP3    H213339   0.591   1.626   0.725
 4445TIP3   OH213340   3.771   1.189   2.249
 4445TIP3    H113341   3.696   1.146   2.290
 4445TIP3    H213342   3.829   1.118   2.222
 4446TIP3   OH213343   1.588   1.111   2.900
 4446TIP3    H113344   1.506   1.145   2.935
 4446TIP3    H213345   1.640   1.089   2.977
 4447TIP3   OH213346   5.194   2.343   1.371
 4447TIP3    H113347   5.274   2.393   1.353
 4447TIP3    H213348   5.193   2.334   1.467
 4448TIP3   OH213349   1.883   3.980   5.153
 4448TIP3    H113350   1.878   4.050   5.088
 4448TIP3    H213351   1.889   3.900   5.101
 4449TIP3   OH213352   0.356   3.164   2.872
 4449TIP3    H113353   0.400   3.095   2.922
 4449TIP3    H213354   0.317   3.221   2.938
 4450TIP3   OH213355   3.210   4.702   2.224
 4450TIP3    H113356   3.150   4.724   2.296
 4450TIP3    H213357   3.246   4.617   2.249
 4451TIP3   OH213358   2.209   5.475   4.613
 4451TIP3    H113359   2.205   5.568   4.593
 4451TIP3    H213360   2.229   5.433   4.530
 4452TIP3   OH213361   2.076   5.313   1.891
 4452TIP3    H113362   2.158   5.274   1.921
 4452TIP3    H213363   2.070   5.396   1.938
 4453TIP3   OH213364   4.825   4.121   1.554
 4453TIP3    H113365   4.768   4.087   1.623
 4453TIP3    H213366   4.903   4.065   1.558
 4454TIP3   OH213367   5.173   2.876   0.336
 4454TIP3    H113368   5.162   2.869   0.241
 4454TIP3    H213369   5.129   2.798   0.370
 4455TIP3   OH213370   1.523   2.774   0.029
 4455TIP3    H113371   1.614   2.804   0.028
 4455TIP3    H213372   1.483   2.816  -0.047
 4456TIP3   OH213373   1.059   3.075   0.250
 4456TIP3    H113374   1.008   3.073   0.169
 4456TIP3    H213375   1.150   3.078   0.220
 4457TIP3   OH213376   0.675   4.854   0.636
 4457TIP3    H113377   0.629   4.828   0.716
 4457TIP3    H213378   0.689   4.948   0.644
 4458TIP3   OH213379   1.368   1.239   0.546
 4458TIP3    H113380   1.357   1.318   0.493
 4458TIP3    H213381   1.429   1.185   0.495
 4459TIP3   OH213382   3.269   1.806   2.242
 4459TIP3    H113383   3.193   1.766   2.201
 4459TIP3    H213384   3.313   1.733   2.286
 4460TIP3   OH213385   5.384   2.827   0.678
 4460TIP3    H113386   5.372   2.898   0.742
 4460TIP3    H213387   5.473   2.838   0.646
 4461TIP3   OH213388   6.183   3.308   2.234
 4461TIP3    H113389   6.126   3.380   2.257
 4461TIP3    H213390   6.248   3.346   2.175
 4462TIP3   OH213391   0.208   4.005   0.678
 4462TIP3    H113392   0.126   4.050   0.696
 4462TIP3    H213393   0.274   4.074   0.677
 4463TIP3   OH213394   0.700   5.588   2.573
 4463TIP3    H113395   0.631   5.651   2.592
 4463TIP3    H213396   0.719   5.600   2.480
 4464TIP3   OH213397   4.623   4.054   4.327
 4464TIP3    H113398   4.700   4.106   4.350
 4464TIP3    H213399   4.607   3.998   4.403
 4465TIP3   OH213400   4.173   0.439   0.393
 4465TIP3    H113401   4.186   0.499   0.320
 4465TIP3    H213402   4.218   0.359   0.366
 4466TIP3   OH213403   2.836   3.616   0.424
 4466TIP3    H113404   2.914   3.671   0.425
 4466TIP3    H213405   2.853   3.553   0.354
 4467TIP3   OH213406   3.046   3.659   4.791
 4467TIP3    H113407   3.024   3.568   4.812
 4467TIP3    H213408   3.141   3.660   4.784
 4468TIP3   OH213409   2.395   5.942   5.061
 4468TIP3    H113410   2.445   6.020   5.040
 4468TIP3    H213411   2.306   5.973   5.076
 4469TIP3   OH213412   4.902   0.198   3.524
 4469TIP3    H113413   4.807   0.208   3.520
 4469TIP3    H213414   4.919   0.108   3.495
 4470TIP3   OH213415   2.213   5.868   4.308
 4470TIP3    H113416   2.303   5.898   4.312
 4470TIP3    H213417   2.190   5.871   4.215
 4471TIP3   OH213418   4.371   0.797   2.348
 4471TIP3    H113419   4.293   0.765   2.393
 4471TIP3    H213420   4.418   0.718   2.321
 4472TIP3   OH213421   5.504   4.325   1.031
 4472TIP3    H113422   5.594   4.352   1.051
 4472TIP3    H213423   5.461   4.406   1.002
 4473TIP3   OH213424   5.646   3.996   3.603
 4473TIP3    H113425   5.609   4.052   3.535
 4473TIP3    H213426   5.696   3.930   3.556
 4474TIP3   OH213427   3.083   0.709   0.700
 4474TIP3    H113428   3.149   0.649   0.736
 4474TIP3    H213429   3.091   0.699   0.605
 4475TIP3   OH213430   2.814   1.358   3.412
 4475TIP3    H113431   2.838   1.268   3.392
 4475TIP3    H213432   2.740   1.376   3.353
 4476TIP3   OH213433   6.287   4.733   4.824
 4476TIP3    H113434   6.225   4.799   4.794
 4476TIP3    H213435   6.310   4.760   4.913
 4477TIP3   OH213436   2.960   3.440   4.906
 4477TIP3    H113437   2.992   3.357   4.872
 4477TIP3    H213438   2.866   3.428   4.915
 4478TIP3   OH213439   4.484   3.871   5.030
 4478TIP3    H113440   4.439   3.794   5.065
 4478TIP3    H213441   4.540   3.836   4.961
 4479TIP3   OH213442   3.793   3.669   4.331
 4479TIP3    H113443   3.714   3.639   4.376
 4479TIP3    H213444   3.839   3.723   4.396
 4480TIP3   OH213445   2.029   2.980   1.220
 4480TIP3    H113446   1.987   2.953   1.139
 4480TIP3    H213447   2.084   2.906   1.245
 4481TIP3   OH213448   0.263   4.366   1.670
 4481TIP3    H113449   0.194   4.425   1.642
 4481TIP3    H213450   0.295   4.327   1.589
 4482TIP3   OH213451   5.585   4.600   5.067
 4482TIP3    H113452   5.494   4.627   5.071
 4482TIP3    H213453   5.585   4.512   5.106
 4483TIP3   OH213454   5.820   1.883   2.521
 4483TIP3    H113455   5.763   1.842   2.455
 4483TIP3    H213456   5.817   1.824   2.596
 4484TIP3   OH213457   3.273   2.220   2.404
 4484TIP3    H113458   3.216   2.231   2.327
 4484TIP3    H213459   3.319   2.138   2.388
 4485TIP3   OH213460   0.171   2.123   0.770
 4485TIP3    H113461   0.173   2.168   0.686
 4485TIP3    H213462   0.079   2.123   0.795
 4486TIP3   OH213463   5.013   3.856   4.883
 4486TIP3    H113464   4.951   3.925   4.906
 4486TIP3    H213465   5.068   3.845   4.961
 4487TIP3   OH213466   2.922   1.620   3.320
 4487TIP3    H113467   3.015   1.638   3.333
 4487TIP3    H213468   2.899   1.559   3.389
 4488TIP3   OH213469   4.897   3.746   3.225
 4488TIP3    H113470   4.948   3.784   3.297
 4488TIP3    H213471   4.831   3.812   3.205
 4489TIP3   OH213472   3.632   2.665   3.526
 4489TIP3    H113473   3.704   2.616   3.488
 4489TIP3    H213474   3.554   2.614   3.504
 4490TIP3   OH213475   2.996   3.553   2.939
 4490TIP3    H113476   3.074   3.498   2.928
 4490TIP3    H213477   2.932   3.496   2.982
 4491TIP3   OH213478   5.830   1.716   2.780
 4491TIP3    H113479   5.747   1.762   2.772
 4491TIP3    H213480   5.884   1.774   2.834
 4492TIP3   OH213481   1.935   4.723   4.484
 4492TIP3    H113482   1.979   4.667   4.548
 4492TIP3    H213483   1.842   4.714   4.505
 4493TIP3   OH213484   4.919   3.362   4.734
 4493TIP3    H113485   4.989   3.427   4.732
 4493TIP3    H213486   4.879   3.368   4.648
 4494TIP3   OH213487   4.998   0.486   3.596
 4494TIP3    H113488   4.960   0.404   3.565
 4494TIP3    H213489   4.923   0.541   3.619
 4495TIP3   OH213490   0.901   4.853   0.972
 4495TIP3    H113491   0.946   4.919   1.025
 4495TIP3    H213492   0.808   4.871   0.985
 4496TIP3   OH213493   5.988   2.774   2.845
 4496TIP3    H113494   5.941   2.717   2.785
 4496TIP3    H213495   5.947   2.759   2.930
 4497TIP3   OH213496   1.472   0.094   0.191
 4497TIP3    H113497   1.397   0.143   0.158
 4497TIP3    H213498   1.539   0.160   0.208
 4498TIP3   OH213499   4.182   5.044   2.310
 4498TIP3    H113500   4.159   5.023   2.401
 4498TIP3    H213501   4.143   5.129   2.295
 4499TIP3   OH213502   0.406   0.068   5.064
 4499TIP3    H113503   0.463   0.093   4.991
 4499TIP3    H213504   0.448  -0.009   5.101
 4500TIP3   OH213505   6.164   3.855   2.892
 4500TIP3    H113506   6.232   3.877   2.956
 4500TIP3    H213507   6.211   3.843   2.810
 4501TIP3   OH213508   0.699   0.063   4.115
 4501TIP3    H113509   0.708  -0.015   4.059
 4501TIP3    H213510   0.783   0.070   4.161
 4502TIP3   OH213511   5.276   4.721   4.523
 4502TIP3    H113512   5.283   4.702   4.616
 4502TIP3    H213513   5.216   4.796   4.519
 4503TIP3   OH213514   5.365   4.096   2.844
 4503TIP3    H113515   5.333   4.094   2.754
 4503TIP3    H213516   5.403   4.183   2.854
 4504TIP3   OH213517   2.581   0.955   0.260
 4504TIP3    H113518   2.606   0.927   0.348
 4504TIP3    H213519   2.606   0.882   0.203
 4505TIP3   OH213520   4.407   0.380   2.383
 4505TIP3    H113521   4.360   0.408   2.461
 4505TIP3    H213522   4.338   0.350   2.323
 4506TIP3   OH213523   4.841   2.309   2.465
 4506TIP3    H113524   4.773   2.241   2.466
 4506TIP3    H213525   4.816   2.368   2.537
 4507TIP3   OH213526   3.089   2.603   2.712
 4507TIP3    H113527   3.045   2.543   2.652
 4507TIP3    H213528   3.181   2.579   2.707
 4508TIP3   OH213529   4.692   2.569   0.384
 4508TIP3    H113530   4.670   2.661   0.368
 4508TIP3    H213531   4.724   2.567   0.474
 4509TIP3   OH213532   4.655   3.791   2.818
 4509TIP3    H113533   4.622   3.847   2.888
 4509TIP3    H213534   4.653   3.846   2.740
 4510TIP3   OH213535   1.955   3.486   0.916
 4510TIP3    H113536   2.018   3.481   0.987
 4510TIP3    H213537   1.897   3.411   0.929
 4511TIP3   OH213538   5.518   0.848   0.179
 4511TIP3    H113539   5.551   0.862   0.091
 4511TIP3    H213540   5.524   0.934   0.221
 4512TIP3   OH213541   4.749   1.078   4.633
 4512TIP3    H113542   4.658   1.066   4.659
 4512TIP3    H213543   4.764   1.012   4.565
 4513TIP3   OH213544   1.772   5.135   2.012
 4513TIP3    H113545   1.793   5.084   2.090
 4513TIP3    H213546   1.833   5.102   1.946
 4514TIP3   OH213547   2.019   5.260   2.798
 4514TIP3    H113548   2.093   5.261   2.738
 4514TIP3    H213549   2.031   5.179   2.849
 4515TIP3   OH213550   2.801   3.103   3.787
 4515TIP3    H113551   2.890   3.091   3.754
 4515TIP3    H213552   2.749   3.040   3.737
 4516TIP3   OH213553   4.051   4.518   4.995
 4516TIP3    H113554   4.147   4.519   4.997
 4516TIP3    H213555   4.029   4.454   4.928
 4517TIP3   OH213556   3.460   3.009   1.355
 4517TIP3    H113557   3.550   3.039   1.343
 4517TIP3    H213558   3.415   3.085   1.394
 4518TIP3   OH213559   1.411   4.766   3.672
 4518TIP3    H113560   1.399   4.779   3.766
 4518TIP3    H213561   1.373   4.680   3.655
 4519TIP3   OH213562   6.286   2.133   5.110
 4519TIP3    H113563   6.341   2.100   5.180
 4519TIP3    H213564   6.199   2.140   5.148
 4520TIP3   OH213565   2.771   0.351   3.197
 4520TIP3    H113566   2.831   0.287   3.237
 4520TIP3    H213567   2.828   0.405   3.142
 4521TIP3   OH213568   0.844   0.288   2.229
 4521TIP3    H113569   0.791   0.360   2.263
 4521TIP3    H213570   0.911   0.273   2.296
 4522TIP3   OH213571   3.312   0.645   4.611
 4522TIP3    H113572   3.328   0.600   4.693
 4522TIP3    H213573   3.261   0.583   4.558
 4523TIP3   OH213574   2.115   4.270   2.512
 4523TIP3    H113575   2.044   4.278   2.576
 4523TIP3    H213576   2.127   4.359   2.479
 4524TIP3   OH213577   2.164   4.887   3.427
 4524TIP3    H113578   2.179   4.809   3.374
 4524TIP3    H213579   2.091   4.863   3.485
 4525TIP3   OH213580   0.385   5.253   2.158
 4525TIP3    H113581   0.344   5.335   2.131
 4525TIP3    H213582   0.327   5.184   2.125
 4526TIP3   OH213583   5.368   5.860   3.516
 4526TIP3    H113584   5.374   5.799   3.442
 4526TIP3    H213585   5.296   5.918   3.492
 4527TIP3   OH213586   4.467   5.811   5.137
 4527TIP3    H113587   4.504   5.728   5.169
 4527TIP3    H213588   4.520   5.832   5.060
 4528TIP3   OH213589   5.089   1.049   4.265
 4528TIP3    H113590   5.173   1.081   4.233
 4528TIP3    H213591   5.029   1.124   4.254
 4529TIP3   OH213592   2.494   1.296   1.006
 4529TIP3    H113593   2.584   1.279   1.034
 4529TIP3    H213594   2.466   1.214   0.966
 4530TIP3   OH213595   5.367   1.005   2.566
 4530TIP3    H113596   5.431   1.058   2.519
 4530TIP3    H213597   5.282   1.036   2.535
 4531TIP3   OH213598   4.267   1.652   1.058
 4531TIP3    H113599   4.332   1.656   1.127
 4531TIP3    H213600   4.311   1.608   0.985
 4532TIP3   OH213601   5.727   5.516   2.326
 4532TIP3    H113602   5.771   5.597   2.299
 4532TIP3    H213603   5.772   5.447   2.276
 4533TIP3   OH213604   5.406   1.274   1.208
 4533TIP3    H113605   5.413   1.222   1.128
 4533TIP3    H213606   5.495   1.307   1.224
 4534TIP3   OH213607   5.291   2.845   1.727
 4534TIP3    H113608   5.289   2.772   1.789
 4534TIP3    H213609   5.333   2.808   1.649
 4535TIP3   OH213610   3.660   0.418   3.422
 4535TIP3    H113611   3.661   0.481   3.494
 4535TIP3    H213612   3.676   0.333   3.464
 4536TIP3   OH213613   1.765   0.850   2.636
 4536TIP3    H113614   1.711   0.835   2.714
 4536TIP3    H213615   1.704   0.837   2.563
 4537TIP3   OH213616   6.350   1.390   2.898
 4537TIP3    H113617   6.318   1.352   2.816
 4537TIP3    H213618   6.276   1.439   2.933
 4538TIP3   OH213619   5.633   5.868   1.055
 4538TIP3    H113620   5.699   5.857   1.123
 4538TIP3    H213621   5.645   5.958   1.024
 4539TIP3   OH213622   0.047   1.179   2.401
 4539TIP3    H113623  -0.004   1.132   2.335
 4539TIP3    H213624   0.087   1.109   2.454
 4540TIP3   OH213625   2.563   4.126   1.476
 4540TIP3    H113626   2.512   4.113   1.396
 4540TIP3    H213627   2.498   4.131   1.546
 4541TIP3   OH213628   0.980   1.144   4.874
 4541TIP3    H113629   1.064   1.116   4.910
 4541TIP3    H213630   0.917   1.082   4.912
 4542TIP3   OH213631   4.190   4.615   0.117
 4542TIP3    H113632   4.246   4.625   0.194
 4542TIP3    H213633   4.237   4.552   0.062
 4543TIP3   OH213634   3.103   0.513   1.639
 4543TIP3    H113635   3.171   0.578   1.621
 4543TIP3    H213636   3.061   0.545   1.719
 4544TIP3   OH213637   5.516   4.987   0.463
 4544TIP3    H113638   5.431   4.995   0.508
 4544TIP3    H213639   5.503   5.033   0.380
 4545TIP3   OH213640   3.903   3.460   4.642
 4545TIP3    H113641   3.932   3.453   4.733
 4545TIP3    H213642   3.968   3.516   4.599
 4546TIP3   OH213643   0.883   2.082   0.339
 4546TIP3    H113644   0.949   2.129   0.288
 4546TIP3    H213645   0.848   2.148   0.399
 4547TIP3   OH213646   5.687   5.178   0.590
 4547TIP3    H113647   5.645   5.104   0.544
 4547TIP3    H213648   5.708   5.143   0.677
 4548TIP3   OH213649   4.961   0.942   0.526
 4548TIP3    H113650   5.028   0.928   0.459
 4548TIP3    H213651   4.918   1.024   0.499
 4549TIP3   OH213652   3.254   2.996   1.917
 4549TIP3    H113653   3.255   3.092   1.925
 4549TIP3    H213654   3.233   2.980   1.825
 4550TIP3   OH213655   3.625   4.149   0.597
 4550TIP3    H113656   3.671   4.067   0.576
 4550TIP3    H213657   3.691   4.217   0.588
 4551TIP3   OH213658   0.908   2.062   1.461
 4551TIP3    H113659   0.857   2.046   1.541
 4551TIP3    H213660   0.879   1.994   1.400
 4552TIP3   OH213661   0.821   5.386   1.546
 4552TIP3    H113662   0.787   5.398   1.635
 4552TIP3    H213663   0.906   5.430   1.546
 4553TIP3   OH213664   2.208   5.948   0.578
 4553TIP3    H113665   2.117   5.977   0.572
 4553TIP3    H213666   2.226   5.909   0.492
 4554TIP3   OH213667   3.659   2.212   0.377
 4554TIP3    H113668   3.724   2.206   0.446
 4554TIP3    H213669   3.701   2.263   0.308
 4555TIP3   OH213670   4.023   2.958   2.097
 4555TIP3    H113671   3.933   2.976   2.122
 4555TIP3    H213672   4.073   2.971   2.177
 4556TIP3   OH213673   1.145   0.869   0.676
 4556TIP3    H113674   1.108   0.878   0.589
 4556TIP3    H213675   1.166   0.959   0.702
 4557TIP3   OH213676   1.825   4.576   2.980
 4557TIP3    H113677   1.841   4.652   2.924
 4557TIP3    H213678   1.871   4.597   3.062
 4558TIP3   OH213679   6.129   1.835   3.620
 4558TIP3    H113680   6.063   1.905   3.622
 4558TIP3    H213681   6.144   1.814   3.712
 4559TIP3   OH213682   4.190   0.357   3.714
 4559TIP3    H113683   4.223   0.306   3.640
 4559TIP3    H213684   4.261   0.418   3.735
 4560TIP3   OH213685   2.290   1.047   0.262
 4560TIP3    H113686   2.257   0.979   0.203
 4560TIP3    H213687   2.378   1.016   0.286
 4561TIP3   OH213688   4.068   3.682   5.013
 4561TIP3    H113689   4.095   3.594   4.988
 4561TIP3    H213690   3.979   3.671   5.048
 4562TIP3   OH213691   3.108   2.526   1.210
 4562TIP3    H113692   3.080   2.446   1.253
 4562TIP3    H213693   3.183   2.556   1.262
 4563TIP3   OH213694   4.986   4.763   3.983
 4563TIP3    H113695   5.021   4.768   3.894
 4563TIP3    H213696   4.913   4.825   3.984
 4564TIP3   OH213697   2.238   5.768   2.379
 4564TIP3    H113698   2.262   5.703   2.445
 4564TIP3    H213699   2.321   5.801   2.346
 4565TIP3   OH213700   2.914   2.363   4.829
 4565TIP3    H113701   2.905   2.458   4.832
 4565TIP3    H213702   2.888   2.339   4.740
 4566TIP3   OH213703   2.317   1.346   0.650
 4566TIP3    H113704   2.380   1.360   0.720
 4566TIP3    H213705   2.349   1.269   0.603
 4567TIP3   OH213706   5.235   5.222   4.611
 4567TIP3    H113707   5.168   5.265   4.558
 4567TIP3    H213708   5.188   5.190   4.688
 4568TIP3   OH213709   3.763   3.277   0.113
 4568TIP3    H113710   3.683   3.326   0.091
 4568TIP3    H213711   3.825   3.345   0.139
 4569TIP3   OH213712   2.769   4.417   2.377
 4569TIP3    H113713   2.721   4.337   2.396
 4569TIP3    H213714   2.797   4.450   2.462
 4570TIP3   OH213715   3.929   4.207   4.568
 4570TIP3    H113716   3.981   4.285   4.548
 4570TIP3    H213717   3.945   4.148   4.495
 4571TIP3   OH213718   0.055   0.762   0.749
 4571TIP3    H113719   0.031   0.723   0.833
 4571TIP3    H213720   0.149   0.777   0.756
 4572TIP3   OH213721   0.726   2.717   0.474
 4572TIP3    H113722   0.765   2.636   0.506
 4572TIP3    H213723   0.636   2.692   0.452
 4573TIP3   OH213724   5.958   0.233   1.242
 4573TIP3    H113725   6.028   0.262   1.301
 4573TIP3    H213726   5.980   0.273   1.158
 4574TIP3   OH213727   2.954   1.643   4.394
 4574TIP3    H113728   2.968   1.702   4.468
 4574TIP3    H213729   2.971   1.555   4.429
 4575TIP3   OH213730   3.959   0.140   1.435
 4575TIP3    H113731   3.865   0.158   1.436
 4575TIP3    H213732   3.984   0.152   1.343
 4576TIP3   OH213733   4.123   3.830   3.466
 4576TIP3    H113734   4.139   3.764   3.534
 4576TIP3    H213735   4.139   3.784   3.384
 4577TIP3   OH213736   2.388   1.743   0.888
 4577TIP3    H113737   2.403   1.743   0.982
 4577TIP3    H213738   2.464   1.696   0.852
 4578TIP3   OH213739   1.727   3.660   1.002
 4578TIP3    H113740   1.785   3.598   0.957
 4578TIP3    H213741   1.725   3.629   1.092
 4579TIP3   OH213742   2.895   0.079   4.852
 4579TIP3    H113743   2.894   0.170   4.883
 4579TIP3    H213744   2.965   0.038   4.901
 4580TIP3   OH213745   3.602   2.138   4.405
 4580TIP3    H113746   3.611   2.173   4.316
 4580TIP3    H213747   3.687   2.154   4.446
 4581TIP3   OH213748   1.848   4.661   4.102
 4581TIP3    H113749   1.813   4.745   4.133
 4581TIP3    H213750   1.770   4.609   4.082
 4582TIP3   OH213751   4.331   0.439   4.393
 4582TIP3    H113752   4.251   0.401   4.429
 4582TIP3    H213753   4.302   0.489   4.317
 4583TIP3   OH213754   1.328   5.664   0.545
 4583TIP3    H113755   1.397   5.625   0.598
 4583TIP3    H213756   1.375   5.704   0.471
 4584TIP3   OH213757   5.945   1.933   0.791
 4584TIP3    H113758   5.864   1.905   0.835
 4584TIP3    H213759   5.999   1.969   0.862
 4585TIP3   OH213760   3.739   2.484   2.518
 4585TIP3    H113761   3.771   2.567   2.554
 4585TIP3    H213762   3.646   2.482   2.541
 4586TIP3   OH213763   1.700   2.756   2.251
 4586TIP3    H113764   1.786   2.726   2.221
 4586TIP3    H213765   1.708   2.760   2.346
 4587TIP3   OH213766   0.023   3.292   3.985
 4587TIP3    H113767   0.076   3.256   3.915
 4587TIP3    H213768   0.025   3.226   4.054
 4588TIP3   OH213769   5.740   0.893   4.801
 4588TIP3    H113770   5.757   0.812   4.849
 4588TIP3    H213771   5.644   0.902   4.803
 4589TIP3   OH213772   3.175   5.827   1.048
 4589TIP3    H113773   3.184   5.774   1.128
 4589TIP3    H213774   3.089   5.804   1.014
 4590TIP3   OH213775   4.261   1.249   0.911
 4590TIP3    H113776   4.234   1.327   0.861
 4590TIP3    H213777   4.256   1.178   0.847
 4591TIP3   OH213778   5.580   3.445   3.996
 4591TIP3    H113779   5.626   3.520   4.033
 4591TIP3    H213780   5.491   3.452   4.030
 4592TIP3   OH213781   2.053   0.849   0.658
 4592TIP3    H113782   2.042   0.773   0.714
 4592TIP3    H213783   1.968   0.860   0.616
 4593TIP3   OH213784   4.242   0.184   3.490
 4593TIP3    H113785   4.164   0.234   3.466
 4593TIP3    H213786   4.291   0.176   3.408
 4594TIP3   OH213787   2.871   0.760   4.277
 4594TIP3    H113788   2.899   0.846   4.308
 4594TIP3    H213789   2.953   0.714   4.258
 4595TIP3   OH213790   1.695   2.546   2.045
 4595TIP3    H113791   1.661   2.579   2.128
 4595TIP3    H213792   1.616   2.530   1.992
 4596TIP3   OH213793   1.691   4.302   5.139
 4596TIP3    H113794   1.623   4.245   5.103
 4596TIP3    H213795   1.768   4.285   5.085
 4597TIP3   OH213796   5.910   2.392   4.083
 4597TIP3    H113797   5.983   2.446   4.112
 4597TIP3    H213798   5.852   2.387   4.159
 4598TIP3   OH213799   4.972   1.498   0.458
 4598TIP3    H113800   4.940   1.522   0.545
 4598TIP3    H213801   5.066   1.485   0.469
 4599TIP3   OH213802   5.643   4.473   3.432
 4599TIP3    H113803   5.682   4.557   3.407
 4599TIP3    H213804   5.712   4.409   3.417
 4600TIP3   OH213805   5.074   2.250   2.692
 4600TIP3    H113806   5.002   2.306   2.720
 4600TIP3    H213807   5.032   2.179   2.643
 4601TIP3   OH213808   2.931   4.464   1.741
 4601TIP3    H113809   2.949   4.445   1.649
 4601TIP3    H213810   3.017   4.483   1.779
 4602TIP3   OH213811   2.451   4.725   0.144
 4602TIP3    H113812   2.364   4.753   0.116
 4602TIP3    H213813   2.481   4.796   0.201
 4603TIP3   OH213814   0.320   3.940   4.576
 4603TIP3    H113815   0.385   4.003   4.605
 4603TIP3    H213816   0.271   3.917   4.655
 4604TIP3   OH213817   1.339   3.045   1.197
 4604TIP3    H113818   1.352   2.977   1.131
 4604TIP3    H213819   1.343   3.127   1.148
 4605TIP3   OH213820   1.358   3.212   2.378
 4605TIP3    H113821   1.382   3.304   2.373
 4605TIP3    H213822   1.441   3.165   2.377
 4606TIP3   OH213823   2.516   1.567   4.696
 4606TIP3    H113824   2.432   1.613   4.687
 4606TIP3    H213825   2.574   1.609   4.632
 4607TIP3   OH213826   1.692   0.352   4.783
 4607TIP3    H113827   1.644   0.295   4.724
 4607TIP3    H213828   1.731   0.292   4.847
 4608TIP3   OH213829   1.777   3.024   1.967
 4608TIP3    H113830   1.797   2.974   1.887
 4608TIP3    H213831   1.686   3.051   1.955
 4609TIP3   OH213832   0.058   4.898   5.040
 4609TIP3    H113833  -0.037   4.906   5.039
 4609TIP3    H213834   0.088   4.968   4.982
 4610TIP3   OH213835   0.094   1.894   4.786
 4610TIP3    H113836   0.021   1.947   4.753
 4610TIP3    H213837   0.118   1.838   4.711
 4611TIP3   OH213838   2.968   5.130   3.802
 4611TIP3    H113839   3.003   5.209   3.761
 4611TIP3    H213840   3.042   5.070   3.806
 4612TIP3   OH213841   3.374   2.404   4.007
 4612TIP3    H113842   3.356   2.494   4.034
 4612TIP3    H213843   3.308   2.386   3.940
 4613TIP3   OH213844   0.029   4.328   2.268
 4613TIP3    H113845   0.029   4.270   2.192
 4613TIP3    H213846  -0.036   4.291   2.327
 4614TIP3   OH213847   0.184   1.744   0.647
 4614TIP3    H113848   0.152   1.781   0.730
 4614TIP3    H213849   0.171   1.650   0.657
 4615TIP3   OH213850   0.724   5.167   0.964
 4615TIP3    H113851   0.694   5.077   0.981
 4615TIP3    H213852   0.644   5.216   0.947
 4616TIP3   OH213853   4.668   3.672   1.112
 4616TIP3    H113854   4.614   3.672   1.190
 4616TIP3    H213855   4.607   3.694   1.041
 4617TIP3   OH213856   3.699   3.950   2.396
 4617TIP3    H113857   3.661   4.038   2.391
 4617TIP3    H213858   3.627   3.891   2.371
 4618TIP3   OH213859   3.485   4.569   1.610
 4618TIP3    H113860   3.429   4.627   1.558
 4618TIP3    H213861   3.487   4.487   1.562
 4619TIP3   OH213862   3.251   4.813   4.389
 4619TIP3    H113863   3.234   4.888   4.332
 4619TIP3    H213864   3.329   4.772   4.352
 4620TIP3   OH213865   0.318   1.137   3.064
 4620TIP3    H113866   0.329   1.227   3.096
 4620TIP3    H213867   0.379   1.085   3.117
 4621TIP3   OH213868   1.552   1.667   4.758
 4621TIP3    H113869   1.513   1.662   4.671
 4621TIP3    H213870   1.492   1.723   4.808
 4622TIP3   OH213871   1.626   1.361   1.868
 4622TIP3    H113872   1.667   1.275   1.856
 4622TIP3    H213873   1.548   1.343   1.921
 4623TIP3   OH213874   4.329   2.031   1.205
 4623TIP3    H113875   4.256   1.971   1.215
 4623TIP3    H213876   4.332   2.051   1.112
 4624TIP3   OH213877   2.744   5.175   0.350
 4624TIP3    H113878   2.705   5.151   0.434
 4624TIP3    H213879   2.765   5.092   0.308
 4625TIP3   OH213880   3.385   1.218   3.308
 4625TIP3    H113881   3.426   1.262   3.383
 4625TIP3    H213882   3.306   1.177   3.345
 4626TIP3   OH213883   3.006   1.824   4.576
 4626TIP3    H113884   2.967   1.907   4.603
 4626TIP3    H213885   3.059   1.796   4.651
 4627TIP3   OH213886   2.693   5.723   1.430
 4627TIP3    H113887   2.706   5.656   1.362
 4627TIP3    H213888   2.772   5.776   1.426
 4628TIP3   OH213889   1.333   4.749   2.669
 4628TIP3    H113890   1.418   4.767   2.710
 4628TIP3    H213891   1.268   4.779   2.732
 4629TIP3   OH213892   5.861   1.669   3.440
 4629TIP3    H113893   5.824   1.695   3.356
 4629TIP3    H213894   5.878   1.751   3.485
 4630TIP3   OH213895   3.714   2.934   0.267
 4630TIP3    H113896   3.686   2.974   0.185
 4630TIP3    H213897   3.754   2.851   0.241
 4631TIP3   OH213898   0.473   0.981   1.238
 4631TIP3    H113899   0.390   0.958   1.195
 4631TIP3    H213900   0.447   1.022   1.321
 4632TIP3   OH213901   3.120   4.914   0.979
 4632TIP3    H113902   3.172   4.974   0.925
 4632TIP3    H213903   3.098   4.842   0.920
 4633TIP3   OH213904   1.028   4.247   3.761
 4633TIP3    H113905   1.116   4.285   3.758
 4633TIP3    H213906   1.040   4.161   3.802
 4634TIP3   OH213907   0.115   1.804   0.174
 4634TIP3    H113908   0.172   1.795   0.097
 4634TIP3    H213909   0.172   1.841   0.241
 4635TIP3   OH213910   5.932   4.788   1.759
 4635TIP3    H113911   5.961   4.861   1.703
 4635TIP3    H213912   5.875   4.736   1.703
 4636TIP3   OH213913   4.672   2.473   0.138
 4636TIP3    H113914   4.593   2.515   0.103
 4636TIP3    H213915   4.676   2.501   0.229
 4637TIP3   OH213916   2.148   0.209   1.605
 4637TIP3    H113917   2.154   0.115   1.620
 4637TIP3    H213918   2.225   0.230   1.552
 4638TIP3   OH213919   5.363   1.453   5.013
 4638TIP3    H113920   5.367   1.432   5.106
 4638TIP3    H213921   5.391   1.373   4.969
 4639TIP3   OH213922   4.396   1.560   3.111
 4639TIP3    H113923   4.371   1.492   3.174
 4639TIP3    H213924   4.314   1.602   3.087
 4640TIP3   OH213925   3.892   4.411   2.740
 4640TIP3    H113926   3.819   4.473   2.734
 4640TIP3    H213927   3.969   4.461   2.714
 4641TIP3   OH213928   0.336   4.740   5.174
 4641TIP3    H113929   0.261   4.799   5.182
 4641TIP3    H213930   0.298   4.652   5.180
 4642TIP3   OH213931   5.105   5.141   2.406
 4642TIP3    H113932   5.155   5.063   2.428
 4642TIP3    H213933   5.168   5.199   2.364
 4643TIP3   OH213934   0.113   3.763   3.483
 4643TIP3    H113935   0.150   3.678   3.507
 4643TIP3    H213936   0.046   3.743   3.417
 4644TIP3   OH213937   3.956   0.963   2.335
 4644TIP3    H113938   3.927   0.890   2.280
 4644TIP3    H213939   4.038   0.992   2.295
 4645TIP3   OH213940   1.110   5.103   0.898
 4645TIP3    H113941   1.108   5.195   0.925
 4645TIP3    H213942   1.102   5.054   0.980
 4646TIP3   OH213943   1.904   1.471   1.368
 4646TIP3    H113944   1.880   1.563   1.357
 4646TIP3    H213945   1.996   1.467   1.340
 4647TIP3   OH213946   3.457   5.525   1.963
 4647TIP3    H113947   3.378   5.500   2.010
 4647TIP3    H213948   3.492   5.599   2.013
 4648TIP3   OH213949   2.130   1.610   0.061
 4648TIP3    H113950   2.066   1.539   0.064
 4648TIP3    H213951   2.158   1.621   0.152
 4649TIP3   OH213952   2.295   1.129   2.112
 4649TIP3    H113953   2.343   1.122   2.030
 4649TIP3    H213954   2.207   1.095   2.091
 4650TIP3   OH213955   5.763   1.406   2.108
 4650TIP3    H113956   5.778   1.387   2.200
 4650TIP3    H213957   5.667   1.405   2.099
 4651TIP3   OH213958   4.367   3.502   4.554
 4651TIP3    H113959   4.363   3.508   4.650
 4651TIP3    H213960   4.409   3.583   4.526
 4652TIP3   OH213961   5.633   1.474   4.632
 4652TIP3    H113962   5.706   1.470   4.694
 4652TIP3    H213963   5.569   1.412   4.668
 4653TIP3   OH213964   5.803   4.517   4.130
 4653TIP3    H113965   5.882   4.507   4.077
 4653TIP3    H213966   5.829   4.575   4.201
 4654TIP3   OH213967   2.584   4.444   2.860
 4654TIP3    H113968   2.646   4.501   2.814
 4654TIP3    H213969   2.536   4.504   2.918
 4655TIP3   OH213970   6.228   0.918   2.339
 4655TIP3    H113971   6.237   0.934   2.245
 4655TIP3    H213972   6.318   0.909   2.371
 4656TIP3   OH213973   2.279   3.098   1.770
 4656TIP3    H113974   2.285   3.194   1.767
 4656TIP3    H213975   2.206   3.080   1.829
 4657TIP3   OH213976   4.013   4.410   3.095
 4657TIP3    H113977   4.031   4.385   3.185
 4657TIP3    H213978   4.086   4.467   3.070
 4658TIP3   OH213979   2.878   4.485   2.615
 4658TIP3    H113980   2.877   4.431   2.694
 4658TIP3    H213981   2.834   4.566   2.640
 4659TIP3   OH213982   2.189   3.486   2.515
 4659TIP3    H113983   2.130   3.556   2.542
 4659TIP3    H213984   2.138   3.406   2.527
 4660TIP3   OH213985   2.635   5.131   3.041
 4660TIP3    H113986   2.545   5.144   3.010
 4660TIP3    H213987   2.689   5.140   2.962
 4661TIP3   OH213988   5.835   5.201   4.028
 4661TIP3    H113989   5.850   5.269   3.963
 4661TIP3    H213990   5.831   5.248   4.111
 4662TIP3   OH213991   4.090   1.131   1.290
 4662TIP3    H113992   4.015   1.072   1.287
 4662TIP3    H213993   4.087   1.169   1.378
 4663TIP3   OH213994   4.846   2.276   4.867
 4663TIP3    H113995   4.861   2.368   4.846
 4663TIP3    H213996   4.911   2.228   4.816
 4664TIP3   OH213997   4.667   5.637   4.616
 4664TIP3    H113998   4.591   5.632   4.673
 4664TIP3    H213999   4.641   5.698   4.547
 4665TIP3   OH214000   4.819   4.305   2.291
 4665TIP3    H114001   4.784   4.303   2.380
 4665TIP3    H214002   4.744   4.329   2.237
 4666TIP3   OH214003   5.716   5.889   4.332
 4666TIP3    H114004   5.781   5.933   4.277
 4666TIP3    H214005   5.632   5.924   4.303
 4667TIP3   OH214006   4.418   5.063   4.112
 4667TIP3    H114007   4.368   5.144   4.107
 4667TIP3    H214008   4.403   5.031   4.201
 4668TIP3   OH214009   5.459   5.735   0.609
 4668TIP3    H114010   5.449   5.768   0.698
 4668TIP3    H214011   5.536   5.678   0.613
 4669TIP3   OH214012   6.013   2.604   3.681
 4669TIP3    H114013   5.965   2.551   3.616
 4669TIP3    H214014   5.945   2.656   3.724
 4670TIP3   OH214015   1.800   3.600   3.911
 4670TIP3    H114016   1.761   3.644   3.986
 4670TIP3    H214017   1.865   3.662   3.878
 4671TIP3   OH214018   3.349   5.833   0.040
 4671TIP3    H114019   3.274   5.838  -0.019
 4671TIP3    H214020   3.416   5.886  -0.003
 4672TIP3   OH214021   5.328   1.098   1.413
 4672TIP3    H114022   5.333   1.183   1.370
 4672TIP3    H214023   5.338   1.034   1.342
 4673TIP3   OH214024   3.370   4.954   1.708
 4673TIP3    H114025   3.346   5.043   1.683
 4673TIP3    H214026   3.328   4.941   1.793
 4674TIP3   OH214027   3.721   2.067   3.700
 4674TIP3    H114028   3.816   2.077   3.688
 4674TIP3    H214029   3.709   1.975   3.724
 4675TIP3   OH214030   3.920   0.615   4.828
 4675TIP3    H114031   3.984   0.572   4.771
 4675TIP3    H214032   3.917   0.559   4.906
 4676TIP3   OH214033   5.943   3.848   0.975
 4676TIP3    H114034   5.869   3.810   1.023
 4676TIP3    H214035   5.932   3.816   0.885
 4677TIP3   OH214036   1.657   3.963   0.131
 4677TIP3    H114037   1.611   3.884   0.103
 4677TIP3    H214038   1.652   3.961   0.227
 4678TIP3   OH214039   3.057   1.426   4.546
 4678TIP3    H114040   3.062   1.330   4.547
 4678TIP3    H214041   3.029   1.449   4.635
 4679TIP3   OH214042   5.918   1.947   0.505
 4679TIP3    H114043   5.996   2.001   0.491
 4679TIP3    H214044   5.921   1.922   0.597
 4680TIP3   OH214045   0.647   1.230   1.551
 4680TIP3    H114046   0.586   1.176   1.600
 4680TIP3    H214047   0.733   1.192   1.569
 4681TIP3   OH214048   0.694   5.276   3.482
 4681TIP3    H114049   0.733   5.253   3.398
 4681TIP3    H214050   0.766   5.311   3.534
 4682TIP3   OH214051   5.262   3.106   4.081
 4682TIP3    H114052   5.329   3.061   4.030
 4682TIP3    H214053   5.273   3.073   4.170
 4683TIP3   OH214054   2.058   0.481   3.480
 4683TIP3    H114055   2.063   0.387   3.495
 4683TIP3    H214056   1.970   0.496   3.445
 4684TIP3   OH214057   2.983   2.908   2.352
 4684TIP3    H114058   3.065   2.888   2.307
 4684TIP3    H214059   2.963   2.998   2.327
 4685TIP3   OH214060   4.863   2.970   4.890
 4685TIP3    H114061   4.777   2.995   4.856
 4685TIP3    H214062   4.865   2.874   4.880
 4686TIP3   OH214063   1.172   0.272   4.866
 4686TIP3    H114064   1.219   0.321   4.799
 4686TIP3    H214065   1.130   0.339   4.920
 4687TIP3   OH214066   0.907   1.573   4.346
 4687TIP3    H114067   0.903   1.540   4.436
 4687TIP3    H214068   0.910   1.494   4.292
 4688TIP3   OH214069   3.540   3.065   0.098
 4688TIP3    H114070   3.481   3.140   0.090
 4688TIP3    H214071   3.583   3.059   0.013
 4689TIP3   OH214072   2.202   2.574   2.635
 4689TIP3    H114073   2.190   2.508   2.703
 4689TIP3    H214074   2.209   2.524   2.554
 4690TIP3   OH214075   5.368   2.672   2.891
 4690TIP3    H114076   5.462   2.683   2.906
 4690TIP3    H214077   5.342   2.607   2.955
 4691TIP3   OH214078   4.765   4.612   2.521
 4691TIP3    H114079   4.692   4.598   2.581
 4691TIP3    H214080   4.825   4.670   2.569
 4692TIP3   OH214081   2.902   0.968   4.802
 4692TIP3    H114082   2.968   0.902   4.817
 4692TIP3    H214083   2.935   1.047   4.845
 4693TIP3   OH214084   0.588   4.272   3.667
 4693TIP3    H114085   0.646   4.196   3.674
 4693TIP3    H214086   0.574   4.283   3.573
 4694TIP3   OH214087   3.100   0.652   0.436
 4694TIP3    H114088   3.137   0.716   0.374
 4694TIP3    H214089   3.006   0.669   0.434
 4695TIP3   OH214090   1.326   0.572   4.190
 4695TIP3    H114091   1.291   0.654   4.157
 4695TIP3    H214092   1.350   0.523   4.112
 4696TIP3   OH214093   1.536   1.093   3.382
 4696TIP3    H114094   1.532   1.186   3.360
 4696TIP3    H214095   1.478   1.051   3.319
 4697TIP3   OH214096   0.181   3.258   2.142
 4697TIP3    H114097   0.251   3.193   2.148
 4697TIP3    H214098   0.144   3.263   2.230
 4698TIP3   OH214099   4.240   1.330   1.509
 4698TIP3    H114100   4.321   1.293   1.471
 4698TIP3    H214101   4.269   1.408   1.555
 4699TIP3   OH214102   4.387   5.026   0.815
 4699TIP3    H114103   4.462   5.072   0.778
 4699TIP3    H214104   4.392   4.938   0.778
 4700TIP3   OH214105   3.118   3.676   0.336
 4700TIP3    H114106   3.213   3.683   0.347
 4700TIP3    H214107   3.103   3.698   0.244
 4701TIP3   OH214108   1.482   1.618   2.260
 4701TIP3    H114109   1.408   1.676   2.247
 4701TIP3    H214110   1.552   1.674   2.293
 4702TIP3   OH214111   6.293   2.277   1.955
 4702TIP3    H114112   6.376   2.281   1.907
 4702TIP3    H214113   6.317   2.292   2.046
 4703TIP3   OH214114   1.282   0.459   2.623
 4703TIP3    H114115   1.315   0.497   2.704
 4703TIP3    H214116   1.187   0.469   2.627
 4704TIP3   OH214117   4.086   3.896   3.177
 4704TIP3    H114118   4.138   3.876   3.099
 4704TIP3    H214119   4.008   3.842   3.170
 4705TIP3   OH214120   1.287   3.878   2.211
 4705TIP3    H114121   1.203   3.848   2.246
 4705TIP3    H214122   1.266   3.956   2.160
 4706TIP3   OH214123   5.211   0.793   0.925
 4706TIP3    H114124   5.140   0.840   0.881
 4706TIP3    H214125   5.233   0.849   1.000
 4707TIP3   OH214126   0.085   2.589   4.041
 4707TIP3    H114127   0.164   2.562   3.994
 4707TIP3    H214128   0.028   2.513   4.039
 4708TIP3   OH214129   3.762   3.599   3.575
 4708TIP3    H114130   3.747   3.541   3.649
 4708TIP3    H214131   3.693   3.577   3.513
 4709TIP3   OH214132   4.639   3.177   3.556
 4709TIP3    H114133   4.681   3.220   3.630
 4709TIP3    H214134   4.587   3.246   3.514
 4710TIP3   OH214135   1.491   1.161   1.024
 4710TIP3    H114136   1.417   1.122   1.071
 4710TIP3    H214137   1.522   1.231   1.080
 4711TIP3   OH214138   2.689   4.636   3.753
 4711TIP3    H114139   2.780   4.608   3.744
 4711TIP3    H214140   2.672   4.686   3.674
 4712TIP3   OH214141   5.829   5.185   4.491
 4712TIP3    H114142   5.861   5.223   4.573
 4712TIP3    H214143   5.740   5.219   4.482
 4713TIP3   OH214144   4.690   2.024   3.229
 4713TIP3    H114145   4.612   1.972   3.208
 4713TIP3    H214146   4.761   1.982   3.179
 4714TIP3   OH214147   5.651   5.034   0.826
 4714TIP3    H114148   5.660   5.083   0.909
 4714TIP3    H214149   5.663   4.943   0.851
 4715TIP3   OH214150   5.722   3.710   4.696
 4715TIP3    H114151   5.669   3.647   4.647
 4715TIP3    H214152   5.800   3.722   4.642
 4716TIP3   OH214153   3.985   2.077   1.055
 4716TIP3    H114154   4.045   2.151   1.057
 4716TIP3    H214155   3.922   2.099   0.986
 4717TIP3   OH214156   2.279   0.671   4.325
 4717TIP3    H114157   2.306   0.718   4.246
 4717TIP3    H214158   2.187   0.696   4.336
 4718TIP3   OH214159   0.659   1.168   2.134
 4718TIP3    H114160   0.686   1.199   2.220
 4718TIP3    H214161   0.569   1.137   2.146
 4719TIP3   OH214162   1.753   3.912   1.674
 4719TIP3    H114163   1.727   3.952   1.757
 4719TIP3    H214164   1.746   3.982   1.610
 4720TIP3   OH214165   2.920   1.684   4.103
 4720TIP3    H114166   2.976   1.648   4.171
 4720TIP3    H214167   2.834   1.689   4.143
 4721TIP3   OH214168   3.496   1.788   2.967
 4721TIP3    H114169   3.529   1.783   2.877
 4721TIP3    H214170   3.454   1.704   2.982
 4722TIP3   OH214171   0.756   1.394   0.879
 4722TIP3    H114172   0.682   1.434   0.833
 4722TIP3    H214173   0.742   1.300   0.868
 4723TIP3   OH214174   3.665   5.866   3.581
 4723TIP3    H114175   3.662   5.899   3.671
 4723TIP3    H214176   3.706   5.780   3.587
 4724TIP3   OH214177   0.222   1.376   1.597
 4724TIP3    H114178   0.251   1.434   1.667
 4724TIP3    H214179   0.168   1.310   1.642
 4725TIP3   OH214180   4.056   4.109   0.046
 4725TIP3    H114181   4.071   4.022   0.083
 4725TIP3    H214182   4.139   4.132   0.005
 4726TIP3   OH214183   1.308   4.306   2.367
 4726TIP3    H114184   1.275   4.330   2.281
 4726TIP3    H214185   1.255   4.356   2.428
 4727TIP3   OH214186   4.750   5.449   2.626
 4727TIP3    H114187   4.772   5.528   2.676
 4727TIP3    H214188   4.818   5.443   2.559
 4728TIP3   OH214189   4.499   4.054   4.081
 4728TIP3    H114190   4.570   4.047   4.145
 4728TIP3    H214191   4.459   3.967   4.080
 4729TIP3   OH214192   0.641   2.791   2.990
 4729TIP3    H114193   0.644   2.764   2.898
 4729TIP3    H214194   0.706   2.737   3.034
 4730TIP3   OH214195   0.251   0.093   3.121
 4730TIP3    H114196   0.313   0.138   3.063
 4730TIP3    H214197   0.188   0.161   3.145
 4731TIP3   OH214198   1.498   3.736   0.145
 4731TIP3    H114199   1.510   3.780   0.229
 4731TIP3    H214200   1.444   3.660   0.165
 4732TIP3   OH214201   2.964   1.982   1.996
 4732TIP3    H114202   2.893   2.025   1.948
 4732TIP3    H214203   3.006   1.924   1.932
 4733TIP3   OH214204   4.384   0.848   5.167
 4733TIP3    H114205   4.302   0.890   5.193
 4733TIP3    H214206   4.381   0.845   5.071
 4734TIP3   OH214207   1.540   1.587   0.075
 4734TIP3    H114208   1.631   1.582   0.046
 4734TIP3    H214209   1.538   1.539   0.158
 4735TIP3   OH214210   4.026   5.161   3.471
 4735TIP3    H114211   4.103   5.109   3.450
 4735TIP3    H214212   3.952   5.107   3.444
 4736TIP3   OH214213   4.277   5.331   4.673
 4736TIP3    H114214   4.280   5.364   4.763
 4736TIP3    H214215   4.345   5.263   4.670
 4737TIP3   OH214216   3.049   2.760   0.255
 4737TIP3    H114217   3.011   2.846   0.276
 4737TIP3    H214218   3.115   2.746   0.323
 4738TIP3   OH214219   6.109   3.648   1.189
 4738TIP3    H114220   6.176   3.715   1.176
 4738TIP3    H214221   6.030   3.696   1.213
 4739TIP3   OH214222   4.535   5.737   4.091
 4739TIP3    H114223   4.551   5.674   4.020
 4739TIP3    H214224   4.440   5.738   4.101
 4740TIP3   OH214225   4.459   0.653   4.628
 4740TIP3    H114226   4.419   0.717   4.569
 4740TIP3    H214227   4.553   0.661   4.613
 4741TIP3   OH214228   6.332   5.341   2.475
 4741TIP3    H114229   6.261   5.395   2.439
 4741TIP3    H214230   6.401   5.404   2.498
 4742TIP3   OH214231   1.774   4.021   2.652
 4742TIP3    H114232   1.756   4.049   2.742
 4742TIP3    H214233   1.870   4.012   2.648
 4743TIP3   OH214234   1.458   4.152   0.203
 4743TIP3    H114235   1.521   4.197   0.260
 4743TIP3    H214236   1.512   4.097   0.146
 4744TIP3   OH214237   1.316   5.387   2.093
 4744TIP3    H114238   1.258   5.454   2.127
 4744TIP3    H214239   1.384   5.435   2.047
 4745TIP3   OH214240   3.213   1.707   1.424
 4745TIP3    H114241   3.194   1.673   1.337
 4745TIP3    H214242   3.266   1.785   1.408
 4746TIP3   OH214243   5.911   2.951   4.579
 4746TIP3    H114244   5.842   2.891   4.608
 4746TIP3    H214245   5.874   2.994   4.502
 4747TIP3   OH214246   0.332   3.557   1.478
 4747TIP3    H114247   0.360   3.485   1.534
 4747TIP3    H214248   0.273   3.610   1.533
 4748TIP3   OH214249   5.756   4.880   0.146
 4748TIP3    H114250   5.841   4.895   0.106
 4748TIP3    H214251   5.764   4.917   0.234
 4749TIP3   OH214252   4.056   5.278   2.661
 4749TIP3    H114253   4.125   5.308   2.602
 4749TIP3    H214254   4.036   5.354   2.716
 4750TIP3   OH214255   0.405   5.387   1.872
 4750TIP3    H114256   0.366   5.460   1.919
 4750TIP3    H214257   0.489   5.371   1.916
 4751TIP3   OH214258   4.367   2.078   3.379
 4751TIP3    H114259   4.459   2.085   3.406
 4751TIP3    H214260   4.318   2.081   3.461
 4752TIP3   OH214261   4.321   5.636   1.856
 4752TIP3    H114262   4.351   5.610   1.769
 4752TIP3    H214263   4.401   5.646   1.908
 4753TIP3   OH214264   5.264   0.081   0.197
 4753TIP3    H114265   5.261   0.177   0.193
 4753TIP3    H214266   5.307   0.055   0.115
 4754TIP3   OH214267   3.903   1.189   4.743
 4754TIP3    H114268   3.928   1.098   4.757
 4754TIP3    H214269   3.826   1.185   4.687
 4755TIP3   OH214270   5.498   4.444   2.838
 4755TIP3    H114271   5.585   4.408   2.819
 4755TIP3    H214272   5.477   4.409   2.925
 4756TIP3   OH214273   2.877   4.357   3.684
 4756TIP3    H114274   2.897   4.443   3.721
 4756TIP3    H214275   2.951   4.338   3.625
 4757TIP3   OH214276   3.256   0.392   0.448
 4757TIP3    H114277   3.203   0.459   0.492
 4757TIP3    H214278   3.226   0.309   0.486
 4758TIP3   OH214279   0.435   0.208   2.948
 4758TIP3    H114280   0.498   0.277   2.927
 4758TIP3    H214281   0.370   0.214   2.877
 4759TIP3   OH214282   6.204   2.145   4.109
 4759TIP3    H114283   6.133   2.108   4.161
 4759TIP3    H214284   6.282   2.098   4.138
 4760TIP3   OH214285   0.060   4.606   1.637
 4760TIP3    H114286  -0.022   4.576   1.675
 4760TIP3    H214287   0.034   4.652   1.557
 4761TIP3   OH214288   0.065   0.146   4.217
 4761TIP3    H114289   0.066   0.143   4.121
 4761TIP3    H214290   0.118   0.222   4.239
 4762TIP3   OH214291   1.060   5.764   0.595
 4762TIP3    H114292   1.072   5.834   0.659
 4762TIP3    H214293   1.140   5.712   0.602
 4763TIP3   OH214294   0.058   5.849   1.953
 4763TIP3    H114295  -0.016   5.789   1.961
 4763TIP3    H214296   0.041   5.918   2.017
 4764TIP3   OH214297   2.918   0.804   1.634
 4764TIP3    H114298   2.932   0.738   1.702
 4764TIP3    H214299   2.871   0.875   1.677
 4765TIP3   OH214300   0.672   5.708   0.053
 4765TIP3    H114301   0.598   5.681  -0.001
 4765TIP3    H214302   0.688   5.799   0.029
 4766TIP3   OH214303   0.831  -0.021   1.234
 4766TIP3    H114304   0.754   0.006   1.284
 4766TIP3    H214305   0.855   0.057   1.183
 4767TIP3   OH214306   4.553   5.114   3.192
 4767TIP3    H114307   4.571   5.071   3.109
 4767TIP3    H214308   4.464   5.148   3.183
 4768TIP3   OH214309   2.162   2.117   0.808
 4768TIP3    H114310   2.171   2.076   0.722
 4768TIP3    H214311   2.100   2.061   0.855
 4769TIP3   OH214312   1.343   0.771   2.385
 4769TIP3    H114313   1.260   0.761   2.339
 4769TIP3    H214314   1.408   0.735   2.325
 4770TIP3   OH214315   5.865   0.206   0.564
 4770TIP3    H114316   5.816   0.153   0.501
 4770TIP3    H214317   5.864   0.295   0.527
 4771TIP3   OH214318   0.174   5.312   5.053
 4771TIP3    H114319   0.081   5.317   5.073
 4771TIP3    H214320   0.180   5.253   4.978
 4772TIP3   OH214321   2.128   1.280   1.743
 4772TIP3    H114322   2.082   1.360   1.716
 4772TIP3    H214323   2.134   1.228   1.663
 4773TIP3   OH214324   3.700   1.061   3.562
 4773TIP3    H114325   3.680   1.152   3.584
 4773TIP3    H214326   3.696   1.015   3.646
 4774TIP3   OH214327   3.986   5.921   3.374
 4774TIP3    H114328   3.902   5.926   3.420
 4774TIP3    H214329   3.973   5.973   3.295
 4775TIP3   OH214330   0.432   4.862   2.712
 4775TIP3    H114331   0.445   4.953   2.687
 4775TIP3    H214332   0.506   4.815   2.675
 4776TIP3   OH214333   1.341   4.839   4.729
 4776TIP3    H114334   1.270   4.853   4.667
 4776TIP3    H214335   1.353   4.923   4.773
 4777TIP3   OH214336   1.083   4.850   0.542
 4777TIP3    H114337   1.038   4.932   0.525
 4777TIP3    H214338   1.034   4.810   0.614
 4778TIP3   OH214339   3.517   1.868   1.063
 4778TIP3    H114340   3.461   1.937   1.027
 4778TIP3    H214341   3.490   1.788   1.018
 4779TIP3   OH214342   2.850   4.185   3.885
 4779TIP3    H114343   2.900   4.129   3.827
 4779TIP3    H214344   2.835   4.265   3.834
 4780TIP3   OH214345   0.874   2.410   0.827
 4780TIP3    H114346   0.942   2.347   0.850
 4780TIP3    H214347   0.911   2.461   0.755
 4781TIP3   OH214348   0.342   3.570   3.855
 4781TIP3    H114349   0.423   3.519   3.855
 4781TIP3    H214350   0.369   3.659   3.877
 4782TIP3   OH214351   1.843   0.794   5.054
 4782TIP3    H114352   1.756   0.833   5.046
 4782TIP3    H214353   1.851   0.772   5.147
 4783TIP3   OH214354   0.745   2.997   4.769
 4783TIP3    H114355   0.839   2.990   4.785
 4783TIP3    H214356   0.736   2.990   4.674
 4784TIP3   OH214357   0.755   4.628   4.613
 4784TIP3    H114358   0.665   4.634   4.645
 4784TIP3    H214359   0.783   4.718   4.599
 4785TIP3   OH214360   5.713   0.557   3.951
 4785TIP3    H114361   5.664   0.475   3.952
 4785TIP3    H214362   5.783   0.544   4.015
 4786TIP3   OH214363   0.648   1.607   1.372
 4786TIP3    H114364   0.646   1.585   1.465
 4786TIP3    H214365   0.628   1.524   1.327
 4787TIP3   OH214366   5.955   5.739   2.035
 4787TIP3    H114367   6.019   5.809   2.035
 4787TIP3    H214368   6.006   5.659   2.021
 4788TIP3   OH214369   5.578   2.665   1.891
 4788TIP3    H114370   5.586   2.755   1.861
 4788TIP3    H214371   5.566   2.614   1.811
 4789TIP3   OH214372   0.898   0.820   4.927
 4789TIP3    H114373   0.858   0.734   4.937
 4789TIP3    H214374   0.826   0.882   4.941
 4790TIP3   OH214375   4.173   1.974   2.369
 4790TIP3    H114376   4.201   1.882   2.372
 4790TIP3    H214377   4.131   1.989   2.453
 4791TIP3   OH214378   0.753   2.965   0.354
 4791TIP3    H114379   0.760   2.871   0.372
 4791TIP3    H214380   0.832   2.985   0.303
 4792TIP3   OH214381   0.895   5.458   0.062
 4792TIP3    H114382   0.978   5.500   0.086
 4792TIP3    H214383   0.830   5.528   0.071
 4793TIP3   OH214384   6.260   1.789   4.380
 4793TIP3    H114385   6.184   1.772   4.324
 4793TIP3    H214386   6.315   1.712   4.370
 4794TIP3   OH214387   4.734   5.119   1.973
 4794TIP3    H114388   4.641   5.096   1.968
 4794TIP3    H214389   4.779   5.052   1.923
 4795TIP3   OH214390   3.876   0.945   3.400
 4795TIP3    H114391   3.836   0.911   3.320
 4795TIP3    H214392   3.802   0.966   3.457
 4796TIP3   OH214393   2.691   1.874   4.864
 4796TIP3    H114394   2.747   1.801   4.839
 4796TIP3    H214395   2.637   1.839   4.935
 4797TIP3   OH214396   1.151   4.687   3.293
 4797TIP3    H114397   1.116   4.772   3.318
 4797TIP3    H214398   1.108   4.624   3.351
 4798TIP3   OH214399   4.786   2.248   1.644
 4798TIP3    H114400   4.707   2.269   1.694
 4798TIP3    H214401   4.775   2.296   1.562
 4799TIP3   OH214402   6.364   1.429   0.757
 4799TIP3    H114403   6.349   1.522   0.737
 4799TIP3    H214404   6.301   1.409   0.827
 4800TIP3   OH214405   5.280   2.802   3.193
 4800TIP3    H114406   5.220   2.822   3.265
 4800TIP3    H214407   5.346   2.871   3.197
 4801TIP3   OH214408   4.831   4.994   3.955
 4801TIP3    H114409   4.741   5.000   3.922
 4801TIP3    H214410   4.884   5.032   3.885
 4802TIP3   OH214411   0.118   1.896   2.302
 4802TIP3    H114412   0.032   1.880   2.341
 4802TIP3    H214413   0.173   1.824   2.333
 4803TIP3   OH214414   2.315   5.291   2.459
 4803TIP3    H114415   2.399   5.246   2.460
 4803TIP3    H214416   2.270   5.258   2.381
 4804TIP3   OH214417   1.907   1.771   3.819
 4804TIP3    H114418   1.851   1.848   3.812
 4804TIP3    H214419   1.991   1.805   3.851
 4805TIP3   OH214420   5.831   5.435   1.928
 4805TIP3    H114421   5.900   5.401   1.871
 4805TIP3    H214422   5.835   5.380   2.006
 4806TIP3   OH214423   5.775   2.760   4.712
 4806TIP3    H114424   5.778   2.681   4.766
 4806TIP3    H214425   5.744   2.828   4.772
 4807TIP3   OH214426   4.003   2.062   1.364
 4807TIP3    H114427   4.030   2.051   1.273
 4807TIP3    H214428   4.067   2.123   1.401
 4808TIP3   OH214429   3.207   3.883   2.679
 4808TIP3    H114430   3.207   3.869   2.774
 4808TIP3    H214431   3.299   3.889   2.656
 4809TIP3   OH214432   2.707   1.345   3.822
 4809TIP3    H114433   2.756   1.263   3.826
 4809TIP3    H214434   2.723   1.387   3.907
 4810TIP3   OH214435   0.499   4.684   0.163
 4810TIP3    H114436   0.591   4.703   0.146
 4810TIP3    H214437   0.488   4.702   0.257
 4811TIP3   OH214438   5.901   5.395   0.448
 4811TIP3    H114439   5.871   5.309   0.418
 4811TIP3    H214440   5.944   5.378   0.532
 4812TIP3   OH214441   2.595   4.336   4.503
 4812TIP3    H114442   2.579   4.268   4.569
 4812TIP3    H214443   2.508   4.365   4.477
 4813TIP3   OH214444   3.605   4.187   3.874
 4813TIP3    H114445   3.568   4.106   3.907
 4813TIP3    H214446   3.587   4.185   3.780
 4814TIP3   OH214447   3.831   3.237   4.469
 4814TIP3    H114448   3.917   3.210   4.439
 4814TIP3    H214449   3.845   3.321   4.511
 4815TIP3   OH214450   3.031   4.344   2.242
 4815TIP3    H114451   2.951   4.393   2.262
 4815TIP3    H214452   3.096   4.379   2.303
 4816TIP3   OH214453   1.620   1.602   3.516
 4816TIP3    H114454   1.527   1.601   3.492
 4816TIP3    H214455   1.658   1.670   3.461
 4817TIP3   OH214456   4.249   5.075   1.978
 4817TIP3    H114457   4.205   5.116   2.052
 4817TIP3    H214458   4.251   4.982   1.999
 4818TIP3   OH214459   5.238   3.780   5.036
 4818TIP3    H114460   5.278   3.709   4.986
 4818TIP3    H214461   5.303   3.850   5.035
 4819TIP3   OH214462   5.387   4.584   1.448
 4819TIP3    H114463   5.359   4.493   1.463
 4819TIP3    H214464   5.339   4.635   1.513
 4820TIP3   OH214465   1.813   3.595   1.927
 4820TIP3    H114466   1.879   3.613   1.993
 4820TIP3    H214467   1.745   3.546   1.974
 4821TIP3   OH214468   1.621   5.481   3.306
 4821TIP3    H114469   1.591   5.554   3.361
 4821TIP3    H214470   1.605   5.404   3.360
 4822TIP3   OH214471   3.345   2.632   0.240
 4822TIP3    H114472   3.341   2.669   0.328
 4822TIP3    H214473   3.321   2.705   0.182
 4823TIP3   OH214474   5.517   2.345   1.687
 4823TIP3    H114475   5.537   2.310   1.600
 4823TIP3    H214476   5.480   2.431   1.670
 4824TIP3   OH214477   4.294   5.610   3.617
 4824TIP3    H114478   4.246   5.570   3.544
 4824TIP3    H214479   4.370   5.651   3.576
 4825TIP3   OH214480   1.889   4.234   1.019
 4825TIP3    H114481   1.868   4.300   1.085
 4825TIP3    H214482   1.812   4.233   0.961
 4826TIP3   OH214483   5.080   0.522   0.696
 4826TIP3    H114484   5.143   0.545   0.765
 4826TIP3    H214485   4.995   0.547   0.734
 4827TIP3   OH214486   1.573   0.506   5.036
 4827TIP3    H114487   1.495   0.541   4.993
 4827TIP3    H214488   1.605   0.438   4.978
 4828TIP3   OH214489   3.842   5.625   3.327
 4828TIP3    H114490   3.871   5.661   3.411
 4828TIP3    H214491   3.879   5.684   3.262
 4829TIP3   OH214492   5.310   5.920   2.841
 4829TIP3    H114493   5.295   5.908   2.747
 4829TIP3    H214494   5.242   5.868   2.883
 4830TIP3   OH214495   3.858   4.833   0.531
 4830TIP3    H114496   3.841   4.874   0.446
 4830TIP3    H214497   3.838   4.741   0.517
 4831TIP3   OH214498   0.070   0.095   1.083
 4831TIP3    H114499   0.008   0.032   1.119
 4831TIP3    H214500   0.156   0.063   1.109
 4832TIP3   OH214501   2.748   3.905   0.602
 4832TIP3    H114502   2.792   3.927   0.520
 4832TIP3    H214503   2.807   3.844   0.645
 4833TIP3   OH214504   2.481   2.696   2.925
 4833TIP3    H114505   2.412   2.705   2.991
 4833TIP3    H214506   2.561   2.727   2.969
 4834TIP3   OH214507   2.351   1.475   0.310
 4834TIP3    H114508   2.410   1.469   0.386
 4834TIP3    H214509   2.348   1.569   0.291
 4835TIP3   OH214510   3.122   2.389   1.437
 4835TIP3    H114511   3.058   2.373   1.506
 4835TIP3    H214512   3.193   2.327   1.456
 4836TIP3   OH214513   5.726   3.973   0.638
 4836TIP3    H114514   5.756   3.932   0.719
 4836TIP3    H214515   5.631   3.961   0.640
 4837TIP3   OH214516   4.216   5.265   4.144
 4837TIP3    H114517   4.154   5.209   4.097
 4837TIP3    H214518   4.161   5.323   4.197
 4838TIP3   OH214519   4.040   5.620   1.870
 4838TIP3    H114520   4.030   5.661   1.956
 4838TIP3    H214521   4.134   5.608   1.861
 4839TIP3   OH214522   0.931   3.057   3.948
 4839TIP3    H114523   0.942   3.103   3.865
 4839TIP3    H214524   0.979   2.975   3.937
 4840TIP3   OH214525   2.027   5.504   2.476
 4840TIP3    H114526   2.056   5.524   2.565
 4840TIP3    H214527   1.954   5.563   2.460
 4841TIP3   OH214528   5.772   3.539   1.102
 4841TIP3    H114529   5.817   3.480   1.042
 4841TIP3    H214530   5.752   3.486   1.179
 4842TIP3   OH214531   4.767   0.189   0.495
 4842TIP3    H114532   4.707   0.142   0.552
 4842TIP3    H214533   4.712   0.254   0.451
 4843TIP3   OH214534   5.723   2.153   2.566
 4843TIP3    H114535   5.687   2.137   2.653
 4843TIP3    H214536   5.646   2.160   2.509
 4844TIP3   OH214537   5.578   0.700   2.282
 4844TIP3    H114538   5.639   0.763   2.319
 4844TIP3    H214539   5.530   0.749   2.215
 4845TIP3   OH214540   0.265   5.167   1.775
 4845TIP3    H114541   0.288   5.258   1.790
 4845TIP3    H214542   0.335   5.117   1.817
 4846TIP3   OH214543   3.463   3.632   0.926
 4846TIP3    H114544   3.404   3.557   0.935
 4846TIP3    H214545   3.515   3.613   0.848
 4847TIP3   OH214546   4.993   5.141   0.567
 4847TIP3    H114547   4.938   5.068   0.595
 4847TIP3    H214548   5.036   5.171   0.648
 4848TIP3   OH214549   5.853   4.261   0.799
 4848TIP3    H114550   5.777   4.284   0.746
 4848TIP3    H214551   5.825   4.277   0.889
 4849TIP3   OH214552   0.207   5.403   0.337
 4849TIP3    H114553   0.174   5.489   0.364
 4849TIP3    H214554   0.254   5.421   0.255
 4850TIP3   OH214555   0.143   5.407   3.411
 4850TIP3    H114556   0.215   5.466   3.391
 4850TIP3    H214557   0.065   5.456   3.383
 4851TIP3   OH214558   2.306   3.859   2.433
 4851TIP3    H114559   2.401   3.864   2.444
 4851TIP3    H214560   2.293   3.843   2.340
 4852TIP3   OH214561   4.462   3.743   0.949
 4852TIP3    H114562   4.448   3.672   0.886
 4852TIP3    H214563   4.374   3.766   0.979
 4853TIP3   OH214564   4.494   0.791   3.543
 4853TIP3    H114565   4.501   0.823   3.453
 4853TIP3    H214566   4.401   0.770   3.553
 4854TIP3   OH214567   3.394   4.218   2.790
 4854TIP3    H114568   3.312   4.212   2.742
 4854TIP3    H214569   3.375   4.280   2.861
 4855TIP3   OH214570   6.138   3.532   3.674
 4855TIP3    H114571   6.101   3.513   3.588
 4855TIP3    H214572   6.148   3.627   3.676
 4856TIP3   OH214573   2.560   1.104   1.939
 4856TIP3    H114574   2.508   1.151   1.875
 4856TIP3    H214575   2.648   1.139   1.929
 4857TIP3   OH214576   3.740   5.149   4.811
 4857TIP3    H114577   3.726   5.070   4.864
 4857TIP3    H214578   3.763   5.116   4.724
 4858TIP3   OH214579   5.279   2.314   4.537
 4858TIP3    H114580   5.258   2.371   4.463
 4858TIP3    H214581   5.331   2.369   4.596
 4859TIP3   OH214582   1.597   3.607   2.863
 4859TIP3    H114583   1.532   3.674   2.884
 4859TIP3    H214584   1.569   3.571   2.779
 4860TIP3   OH214585   4.521   5.639   2.499
 4860TIP3    H114586   4.561   5.713   2.544
 4860TIP3    H214587   4.542   5.564   2.554
 4861TIP3   OH214588   3.438   5.699   4.340
 4861TIP3    H114589   3.427   5.683   4.434
 4861TIP3    H214590   3.530   5.678   4.323
 4862TIP3   OH214591   0.246   1.086   2.772
 4862TIP3    H114592   0.259   1.074   2.866
 4862TIP3    H214593   0.307   1.024   2.731
 4863TIP3   OH214594   3.957   4.465   1.021
 4863TIP3    H114595   3.969   4.541   0.964
 4863TIP3    H214596   3.882   4.419   0.984
 4864TIP3   OH214597   0.604   2.796   1.035
 4864TIP3    H114598   0.573   2.821   0.948
 4864TIP3    H214599   0.676   2.857   1.053
 4865TIP3   OH214600   5.983   3.055   2.803
 4865TIP3    H114601   5.993   2.966   2.836
 4865TIP3    H214602   5.900   3.053   2.754
 4866TIP3   OH214603   5.566   5.303   1.977
 4866TIP3    H114604   5.519   5.329   1.897
 4866TIP3    H214605   5.658   5.301   1.951
 4867TIP3   OH214606   2.638   3.681   4.512
 4867TIP3    H114607   2.695   3.723   4.577
 4867TIP3    H214608   2.573   3.635   4.565
 4868TIP3   OH214609   5.796   1.404   0.402
 4868TIP3    H114610   5.851   1.388   0.326
 4868TIP3    H214611   5.836   1.480   0.445
 4869TIP3   OH214612   0.414   1.859   3.015
 4869TIP3    H114613   0.444   1.787   2.960
 4869TIP3    H214614   0.365   1.817   3.086
 4870TIP3   OH214615   0.351   5.922   3.910
 4870TIP3    H114616   0.339   6.000   3.856
 4870TIP3    H214617   0.429   5.880   3.875
 4871TIP3   OH214618   1.274   5.954   0.396
 4871TIP3    H114619   1.359   5.934   0.435
 4871TIP3    H214620   1.254   5.877   0.343
 4872TIP3   OH214621   1.679   3.751   4.128
 4872TIP3    H114622   1.723   3.830   4.159
 4872TIP3    H214623   1.632   3.718   4.205
 4873TIP3   OH214624   2.099   5.160   2.229
 4873TIP3    H114625   2.151   5.080   2.232
 4873TIP3    H214626   2.056   5.164   2.315
 4874TIP3   OH214627   1.717   3.962   1.926
 4874TIP3    H114628   1.718   4.016   2.005
 4874TIP3    H214629   1.696   3.874   1.957
 4875TIP3   OH214630   5.157   4.847   2.903
 4875TIP3    H114631   5.189   4.757   2.911
 4875TIP3    H214632   5.190   4.891   2.981
 4876TIP3   OH214633   1.977   1.461   1.624
 4876TIP3    H114634   1.944   1.446   1.536
 4876TIP3    H214635   1.925   1.535   1.656
 4877TIP3   OH214636   3.398   5.041   3.845
 4877TIP3    H114637   3.324   4.982   3.832
 4877TIP3    H214638   3.358   5.126   3.863
 4878TIP3   OH214639   3.600   3.878   4.226
 4878TIP3    H114640   3.628   3.800   4.273
 4878TIP3    H214641   3.617   3.950   4.287
 4879TIP3   OH214642   1.469   4.023   4.770
 4879TIP3    H114643   1.513   4.105   4.748
 4879TIP3    H214644   1.540   3.965   4.798
 4880TIP3   OH214645   4.495   1.196   2.861
 4880TIP3    H114646   4.438   1.219   2.935
 4880TIP3    H214647   4.434   1.181   2.788
 4881TIP3   OH214648   4.750   5.638   3.097
 4881TIP3    H114649   4.768   5.607   3.186
 4881TIP3    H214650   4.709   5.724   3.110
 4882TIP3   OH214651   3.705   0.451   2.790
 4882TIP3    H114652   3.683   0.511   2.718
 4882TIP3    H214653   3.637   0.467   2.856
 4883TIP3   OH214654   1.708   3.281   2.756
 4883TIP3    H114655   1.732   3.194   2.722
 4883TIP3    H214656   1.780   3.304   2.815
 4884TIP3   OH214657   2.732   0.790   4.029
 4884TIP3    H114658   2.648   0.751   4.054
 4884TIP3    H214659   2.789   0.774   4.104
 4885TIP3   OH214660   3.426   4.130   0.068
 4885TIP3    H114661   3.509   4.082   0.067
 4885TIP3    H214662   3.450   4.218   0.095
 4886TIP3   OH214663   4.476   3.747   4.426
 4886TIP3    H114664   4.569   3.759   4.445
 4886TIP3    H214665   4.432   3.795   4.496
 4887TIP3   OH214666   1.180   5.361   5.084
 4887TIP3    H114667   1.118   5.370   5.156
 4887TIP3    H214668   1.128   5.378   5.005
 4888TIP3   OH214669   4.943   2.020   2.606
 4888TIP3    H114670   4.852   2.050   2.608
 4888TIP3    H214671   4.940   1.931   2.642
 4889TIP3   OH214672   1.394   4.042   0.564
 4889TIP3    H114673   1.439   4.095   0.630
 4889TIP3    H214674   1.339   3.983   0.615
 4890TIP3   OH214675   3.863   0.264   2.909
 4890TIP3    H114676   3.890   0.294   2.996
 4890TIP3    H214677   3.835   0.343   2.864
 4891TIP3   OH214678   2.281   0.360   2.977
 4891TIP3    H114679   2.257   0.373   2.885
 4891TIP3    H214680   2.313   0.446   3.006
 4892TIP3   OH214681   2.526   3.298   0.384
 4892TIP3    H114682   2.553   3.372   0.328
 4892TIP3    H214683   2.448   3.264   0.341
 4893TIP3   OH214684   0.398   4.802   1.510
 4893TIP3    H114685   0.370   4.712   1.493
 4893TIP3    H214686   0.317   4.849   1.528
 4894TIP3   OH214687   1.995   4.561   4.713
 4894TIP3    H114688   2.006   4.470   4.740
 4894TIP3    H214689   2.009   4.611   4.793
 4895TIP3   OH214690   3.940   0.469   5.060
 4895TIP3    H114691   4.031   0.477   5.092
 4895TIP3    H214692   3.905   0.396   5.110
 4896TIP3   OH214693   3.697   2.880   2.779
 4896TIP3    H114694   3.746   2.962   2.780
 4896TIP3    H214695   3.764   2.812   2.777
 4897TIP3   OH214696   5.906   1.779   2.244
 4897TIP3    H114697   5.939   1.867   2.227
 4897TIP3    H214698   5.964   1.721   2.193
 4898TIP3   OH214699   5.053   5.243   3.872
 4898TIP3    H114700   5.113   5.176   3.904
 4898TIP3    H214701   5.032   5.296   3.949
 4899TIP3   OH214702   2.562   0.415   0.213
 4899TIP3    H114703   2.520   0.467   0.281
 4899TIP3    H214704   2.652   0.402   0.245
 4900TIP3   OH214705   3.447   5.771   3.260
 4900TIP3    H114706   3.354   5.756   3.275
 4900TIP3    H214707   3.473   5.832   3.328
 4901TIP3   OH214708   3.595   0.744   2.172
 4901TIP3    H114709   3.620   0.719   2.261
 4901TIP3    H214710   3.573   0.661   2.129
 4902TIP3   OH214711   0.069   3.095   1.186
 4902TIP3    H114712   0.112   3.011   1.171
 4902TIP3    H214713   0.010   3.079   1.259
 4903TIP3   OH214714   3.717   4.608   0.408
 4903TIP3    H114715   3.624   4.595   0.391
 4903TIP3    H214716   3.761   4.577   0.329
 4904TIP3   OH214717   5.967   2.353   1.319
 4904TIP3    H114718   5.930   2.310   1.396
 4904TIP3    H214719   6.060   2.365   1.340
 4905TIP3   OH214720   5.479   2.982   5.040
 4905TIP3    H114721   5.469   2.981   5.135
 4905TIP3    H214722   5.419   3.050   5.010
 4906TIP3   OH214723   0.807   2.030   4.530
 4906TIP3    H114724   0.877   1.969   4.508
 4906TIP3    H214725   0.797   2.085   4.452
 4907TIP3   OH214726   5.839   2.434   0.292
 4907TIP3    H114727   5.864   2.514   0.338
 4907TIP3    H214728   5.859   2.364   0.354
 4908TIP3   OH214729   4.469   4.216   1.678
 4908TIP3    H114730   4.378   4.226   1.705
 4908TIP3    H214731   4.466   4.217   1.582
 4909TIP3   OH214732   2.010   4.757   2.029
 4909TIP3    H114733   2.020   4.830   1.967
 4909TIP3    H214734   1.958   4.692   1.980
 4910TIP3   OH214735   0.738   5.450   1.793
 4910TIP3    H114736   0.711   5.389   1.862
 4910TIP3    H214737   0.714   5.536   1.827
 4911TIP3   OH214738   3.499   0.330   0.333
 4911TIP3    H114739   3.411   0.348   0.366
 4911TIP3    H214740   3.484   0.270   0.259
 4912TIP3   OH214741   1.102   5.573   1.193
 4912TIP3    H114742   1.124   5.586   1.285
 4912TIP3    H214743   1.035   5.505   1.193
 4913TIP3   OH214744   0.187   5.493   4.722
 4913TIP3    H114745   0.273   5.499   4.765
 4913TIP3    H214746   0.208   5.474   4.631
 4914TIP3   OH214747   4.697   0.291   1.355
 4914TIP3    H114748   4.755   0.218   1.379
 4914TIP3    H214749   4.656   0.317   1.438
 4915TIP3   OH214750   5.645   0.986   2.845
 4915TIP3    H114751   5.589   1.059   2.869
 4915TIP3    H214752   5.584   0.915   2.824
 4916TIP3   OH214753   6.322  -0.022   2.644
 4916TIP3    H114754   6.290   0.067   2.632
 4916TIP3    H214755   6.399  -0.013   2.700
 4917TIP3   OH214756   2.280   1.568   2.674
 4917TIP3    H114757   2.304   1.570   2.582
 4917TIP3    H214758   2.344   1.624   2.717
 4918TIP3   OH214759   1.653   2.596   3.446
 4918TIP3    H114760   1.591   2.525   3.465
 4918TIP3    H214761   1.738   2.552   3.443
 4919TIP3   OH214762   5.866   2.164   1.519
 4919TIP3    H114763   5.779   2.154   1.559
 4919TIP3    H214764   5.881   2.082   1.473
 4920TIP3   OH214765   0.670   3.779   0.144
 4920TIP3    H114766   0.745   3.757   0.089
 4920TIP3    H214767   0.700   3.765   0.233
 4921TIP3   OH214768   1.147   2.958   2.358
 4921TIP3    H114769   1.134   2.870   2.393
 4921TIP3    H214770   1.173   2.945   2.267
 4922TIP3   OH214771   4.884   3.314   5.007
 4922TIP3    H114772   4.881   3.326   4.912
 4922TIP3    H214773   4.973   3.338   5.032
 4923TIP3   OH214774   4.433   0.463   3.792
 4923TIP3    H114775   4.512   0.432   3.835
 4923TIP3    H214776   4.375   0.489   3.864
 4924TIP3   OH214777   3.072   2.797   3.187
 4924TIP3    H114778   2.995   2.851   3.202
 4924TIP3    H214779   3.141   2.859   3.161
 4925TIP3   OH214780   1.543   4.975   2.097
 4925TIP3    H114781   1.557   5.052   2.042
 4925TIP3    H214782   1.461   4.937   2.066
 4926TIP3   OH214783   3.180   4.264   4.252
 4926TIP3    H114784   3.231   4.301   4.180
 4926TIP3    H214785   3.090   4.263   4.219
 4927TIP3   OH214786   5.672   3.654   2.206
 4927TIP3    H114787   5.650   3.706   2.129
 4927TIP3    H214788   5.671   3.563   2.175
 4928TIP3   OH214789   0.895   2.853   2.660
 4928TIP3    H114790   0.816   2.807   2.686
 4928TIP3    H214791   0.918   2.817   2.574
 4929TIP3   OH214792   3.694   1.510   3.642
 4929TIP3    H114793   3.750   1.457   3.584
 4929TIP3    H214794   3.617   1.531   3.589
 4930TIP3   OH214795   4.316   0.088   1.355
 4930TIP3    H114796   4.331   0.180   1.333
 4930TIP3    H214797   4.404   0.050   1.359
 4931TIP3   OH214798   2.552   1.790   2.331
 4931TIP3    H114799   2.533   1.755   2.244
 4931TIP3    H214800   2.514   1.878   2.331
 4932TIP3   OH214801   2.329   4.866   3.028
 4932TIP3    H114802   2.367   4.944   3.068
 4932TIP3    H214803   2.257   4.899   2.974
 4933TIP3   OH214804   0.245   4.099   5.041
 4933TIP3    H114805   0.186   4.175   5.037
 4933TIP3    H214806   0.252   4.080   5.134
 4934TIP3   OH214807   4.584   1.829   2.156
 4934TIP3    H114808   4.590   1.886   2.233
 4934TIP3    H214809   4.654   1.859   2.098
 4935TIP3   OH214810   5.468   5.315   4.425
 4935TIP3    H114811   5.486   5.315   4.331
 4935TIP3    H214812   5.450   5.407   4.446
 4936TIP3   OH214813   6.073   3.988   3.640
 4936TIP3    H114814   6.088   3.908   3.691
 4936TIP3    H214815   5.990   4.022   3.674
 4937TIP3   OH214816   5.503   3.377   4.726
 4937TIP3    H114817   5.576   3.346   4.779
 4937TIP3    H214818   5.469   3.299   4.683
 4938TIP3   OH214819   6.240   5.515   2.744
 4938TIP3    H114820   6.171   5.569   2.708
 4938TIP3    H214821   6.312   5.522   2.682
 4939TIP3   OH214822   3.714   2.573   4.572
 4939TIP3    H114823   3.653   2.641   4.541
 4939TIP3    H214824   3.681   2.548   4.658
 4940TIP3   OH214825   4.662   4.207   2.551
 4940TIP3    H114826   4.572   4.229   2.527
 4940TIP3    H214827   4.659   4.115   2.577
 4941TIP3   OH214828   5.169   3.836   0.721
 4941TIP3    H114829   5.153   3.807   0.631
 4941TIP3    H214830   5.160   3.757   0.774
 4942TIP3   OH214831   1.587   5.446   2.577
 4942TIP3    H114832   1.536   5.525   2.562
 4942TIP3    H214833   1.649   5.469   2.646
 4943TIP3   OH214834   3.616   4.779   2.111
 4943TIP3    H114835   3.629   4.692   2.074
 4943TIP3    H214836   3.680   4.834   2.066
 4944TIP3   OH214837   4.968   4.385   4.855
 4944TIP3    H114838   4.913   4.452   4.813
 4944TIP3    H214839   4.932   4.377   4.943
 4945TIP3   OH214840   3.650   5.022   3.030
 4945TIP3    H114841   3.609   5.069   3.102
 4945TIP3    H214842   3.650   5.084   2.957
 4946TIP3   OH214843   0.746   1.853   1.361
 4946TIP3    H114844   0.731   1.867   1.268
 4946TIP3    H214845   0.712   1.765   1.377
 4947TIP3   OH214846   5.174   1.752   2.722
 4947TIP3    H114847   5.078   1.757   2.722
 4947TIP3    H214848   5.201   1.822   2.781
 4948TIP3   OH214849   2.854   3.708   1.169
 4948TIP3    H114850   2.791   3.636   1.158
 4948TIP3    H214851   2.800   3.782   1.198
 4949TIP3   OH214852   3.236   5.244   1.896
 4949TIP3    H114853   3.144   5.269   1.904
 4949TIP3    H214854   3.280   5.289   1.969
 4950TIP3   OH214855   4.274   0.065   4.684
 4950TIP3    H114856   4.296   0.157   4.696
 4950TIP3    H214857   4.178   0.063   4.682
 4951TIP3   OH214858   1.382   4.812   4.033
 4951TIP3    H114859   1.394   4.726   4.073
 4951TIP3    H214860   1.302   4.846   4.073
 4952TIP3   OH214861   2.956   3.023   0.308
 4952TIP3    H114862   2.867   3.024   0.272
 4952TIP3    H214863   2.947   3.065   0.394
 4953TIP3   OH214864   2.426   1.383   1.826
 4953TIP3    H114865   2.333   1.362   1.818
 4953TIP3    H214866   2.452   1.410   1.737
 4954TIP3   OH214867   1.326   4.682   4.466
 4954TIP3    H114868   1.393   4.743   4.498
 4954TIP3    H214869   1.254   4.738   4.439
 4955TIP3   OH214870   5.616   0.739   4.173
 4955TIP3    H114871   5.599   0.724   4.266
 4955TIP3    H214872   5.610   0.652   4.133
 4956TIP3   OH214873   0.854   3.417   3.150
 4956TIP3    H114874   0.902   3.426   3.232
 4956TIP3    H214875   0.897   3.345   3.105
 4957TIP3   OH214876   0.605   0.779   3.811
 4957TIP3    H114877   0.604   0.683   3.816
 4957TIP3    H214878   0.513   0.805   3.813
 4958TIP3   OH214879   5.308   4.522   4.148
 4958TIP3    H114880   5.397   4.528   4.112
 4958TIP3    H214881   5.321   4.485   4.235
 4959TIP3   OH214882   4.142   0.493   2.361
 4959TIP3    H114883   4.136   0.400   2.385
 4959TIP3    H214884   4.121   0.540   2.441
 4960TIP3   OH214885   1.299   1.801   0.784
 4960TIP3    H114886   1.351   1.732   0.744
 4960TIP3    H214887   1.310   1.789   0.878
 4961TIP3   OH214888   2.115   4.701   4.072
 4961TIP3    H114889   2.127   4.733   4.161
 4961TIP3    H214890   2.032   4.654   4.074
 4962TIP3   OH214891   4.022   4.653   2.041
 4962TIP3    H114892   3.977   4.656   2.126
 4962TIP3    H214893   3.961   4.694   1.980
 4963TIP3   OH214894   4.564   5.020   4.369
 4963TIP3    H114895   4.615   5.027   4.449
 4963TIP3    H214896   4.630   5.007   4.300
 4964TIP3   OH214897   0.158   4.245   0.322
 4964TIP3    H114898   0.124   4.272   0.408
 4964TIP3    H214899   0.252   4.257   0.329
 4965TIP3   OH214900   4.456   0.020   3.650
 4965TIP3    H114901   4.473   0.073   3.728
 4965TIP3    H214902   4.361   0.024   3.639
 4966TIP3   OH214903   4.426   4.820   3.048
 4966TIP3    H114904   4.519   4.827   3.026
 4966TIP3    H214905   4.422   4.840   3.142
 4967TIP3   OH214906   2.134   0.054   4.550
 4967TIP3    H114907   2.115  -0.026   4.501
 4967TIP3    H214908   2.200   0.028   4.614
 4968TIP3   OH214909   1.875   0.284   2.301
 4968TIP3    H114910   1.788   0.247   2.286
 4968TIP3    H214911   1.935   0.218   2.267
 4969TIP3   OH214912   3.987   1.566   1.032
 4969TIP3    H114913   3.976   1.501   1.101
 4969TIP3    H214914   4.076   1.600   1.044
 4970TIP3   OH214915   6.167   1.315   0.963
 4970TIP3    H114916   6.097   1.370   0.997
 4970TIP3    H214917   6.132   1.280   0.881
 4971TIP3   OH214918   0.876   4.249   1.108
 4971TIP3    H114919   0.870   4.321   1.046
 4971TIP3    H214920   0.791   4.249   1.153
 4972TIP3   OH214921   1.882   3.533   2.359
 4972TIP3    H114922   1.890   3.523   2.454
 4972TIP3    H214923   1.817   3.468   2.333
 4973TIP3   OH214924   5.030   3.814   4.148
 4973TIP3    H114925   4.988   3.831   4.063
 4973TIP3    H214926   5.036   3.900   4.189
 4974TIP3   OH214927   0.579   1.784   0.626
 4974TIP3    H114928   0.652   1.817   0.678
 4974TIP3    H214929   0.507   1.845   0.645
 4975TIP3   OH214930   4.378   4.099   3.170
 4975TIP3    H114931   4.297   4.085   3.218
 4975TIP3    H214932   4.447   4.076   3.232
 4976TIP3   OH214933   4.615   1.613   2.942
 4976TIP3    H114934   4.532   1.607   2.988
 4976TIP3    H214935   4.633   1.524   2.913
 4977TIP3   OH214936   2.234   4.662   3.211
 4977TIP3    H114937   2.286   4.726   3.162
 4977TIP3    H214938   2.224   4.588   3.150
 4978TIP3   OH214939   4.854   5.296   1.355
 4978TIP3    H114940   4.819   5.363   1.415
 4978TIP3    H214941   4.939   5.331   1.327
 4979TIP3   OH214942   0.142   1.986   3.256
 4979TIP3    H114943   0.189   2.055   3.209
 4979TIP3    H214944   0.178   1.904   3.221
 4980TIP3   OH214945   2.097   2.267   4.493
 4980TIP3    H114946   2.082   2.219   4.574
 4980TIP3    H214947   2.143   2.205   4.436
 4981TIP3   OH214948   3.598   1.905   4.025
 4981TIP3    H114949   3.688   1.935   4.034
 4981TIP3    H214950   3.585   1.846   4.100
 4982TIP3   OH214951   4.323   3.494   1.648
 4982TIP3    H114952   4.335   3.414   1.596
 4982TIP3    H214953   4.340   3.467   1.738
 4983TIP3   OH214954   2.267   4.428   3.592
 4983TIP3    H114955   2.344   4.373   3.580
 4983TIP3    H214956   2.235   4.407   3.680
 4984TIP3   OH214957   1.308   3.216   4.739
 4984TIP3    H114958   1.287   3.310   4.740
 4984TIP3    H214959   1.237   3.176   4.689
 4985TIP3   OH214960   0.062   3.825   2.229
 4985TIP3    H114961   0.092   3.734   2.231
 4985TIP3    H214962   0.047   3.843   2.136
 4986TIP3   OH214963   3.263   1.092   5.155
 4986TIP3    H114964   3.328   1.058   5.217
 4986TIP3    H214965   3.308   1.093   5.071
 4987TIP3   OH214966   0.997   5.261   4.896
 4987TIP3    H114967   0.917   5.235   4.943
 4987TIP3    H214968   1.020   5.183   4.845
 4988TIP3   OH214969   0.518   1.984   4.535
 4988TIP3    H114970   0.612   2.002   4.541
 4988TIP3    H214971   0.507   1.940   4.451
 4989TIP3   OH214972   5.150   2.778   2.392
 4989TIP3    H114973   5.232   2.791   2.440
 4989TIP3    H214974   5.177   2.746   2.307
 4990TIP3   OH214975   4.389   0.652   1.914
 4990TIP3    H114976   4.381   0.613   1.827
 4990TIP3    H214977   4.347   0.589   1.973
 4991TIP3   OH214978   1.923   0.885   4.636
 4991TIP3    H114979   1.923   0.917   4.727
 4991TIP3    H214980   1.929   0.965   4.583
 4992TIP3   OH214981   1.894   4.098   4.434
 4992TIP3    H114982   1.802   4.078   4.452
 4992TIP3    H214983   1.902   4.192   4.449
 4993TIP3   OH214984   0.346   5.477   0.107
 4993TIP3    H114985   0.346   5.405   0.043
 4993TIP3    H214986   0.319   5.554   0.056
 4994TIP3   OH214987   4.471   3.393   0.444
 4994TIP3    H114988   4.424   3.325   0.395
 4994TIP3    H214989   4.409   3.423   0.510
 4995TIP3   OH214990   3.115   5.458   0.971
 4995TIP3    H114991   3.116   5.388   0.906
 4995TIP3    H214992   3.035   5.508   0.952
 4996TIP3   OH214993   0.982   3.366   3.857
 4996TIP3    H114994   0.893   3.332   3.863
 4996TIP3    H214995   1.001   3.399   3.945
 4997TIP3   OH214996   0.661   2.432   3.648
 4997TIP3    H114997   0.695   2.510   3.603
 4997TIP3    H214998   0.739   2.385   3.677
 4998TIP3   OH214999   3.797   1.775   0.777
 4998TIP3    H115000   3.865   1.815   0.831
 4998TIP3    H215001   3.839   1.698   0.738
 4999TIP3   OH215002   2.290   4.815   1.940
 4999TIP3    H115003   2.272   4.760   2.017
 4999TIP3    H215004   2.379   4.846   1.954
 5000TIP3   OH215005   4.173   0.806   0.974
 5000TIP3    H115006   4.265   0.789   0.996
 5000TIP3    H215007   4.168   0.789   0.880
 5001TIP3   OH215008   1.260   2.304   5.080
 5001TIP3    H115009   1.189   2.306   5.015
 5001TIP3    H215010   1.234   2.368   5.146
 5002TIP3   OH215011   4.671   0.004   3.277
 5002TIP3    H115012   4.759  -0.024   3.303
 5002TIP3    H215013   4.651   0.077   3.336
 5003TIP3   OH215014   4.930   5.528   3.838
 5003TIP3    H115015   4.997   5.528   3.907
 5003TIP3    H215016   4.962   5.465   3.773
 5004TIP3   OH215017   0.410   2.302   4.720
 5004TIP3    H115018   0.379   2.272   4.635
 5004TIP3    H215019   0.331   2.312   4.773
 5005TIP3   OH215020   5.738   3.063   3.893
 5005TIP3    H115021   5.802   3.003   3.930
 5005TIP3    H215022   5.770   3.081   3.805
 5006TIP3   OH215023   5.549   4.890   5.038
 5006TIP3    H115024   5.574   4.815   5.092
 5006TIP3    H215025   5.573   4.966   5.089
 5007TIP3   OH215026   5.149   5.176   1.175
 5007TIP3    H115027   5.205   5.132   1.110
 5007TIP3    H215028   5.156   5.121   1.253
 5008TIP3   OH215029   4.637   3.945   4.581
 5008TIP3    H115030   4.609   3.916   4.668
 5008TIP3    H215031   4.716   3.895   4.562
 5009TIP3   OH215032   4.997   5.542   0.430
 5009TIP3    H115033   5.000   5.636   0.413
 5009TIP3    H215034   4.943   5.535   0.509
 5010TIP3   OH215035   0.051   2.592   4.940
 5010TIP3    H115036  -0.026   2.562   4.892
 5010TIP3    H215037   0.060   2.530   5.012
 5011TIP3   OH215038   4.086   1.642   4.780
 5011TIP3    H115039   4.122   1.706   4.842
 5011TIP3    H215040   4.084   1.689   4.696
 5012TIP3   OH215041   0.032   2.501   0.317
 5012TIP3    H115042   0.113   2.540   0.285
 5012TIP3    H215043  -0.034   2.523   0.252
 5013TIP3   OH215044   2.750   5.895   2.463
 5013TIP3    H115045   2.805   5.861   2.393
 5013TIP3    H215046   2.768   5.989   2.464
 5014TIP3   OH215047   2.385   3.071   2.822
 5014TIP3    H115048   2.381   2.988   2.774
 5014TIP3    H215049   2.464   3.115   2.789
 5015TIP3   OH215050   5.284   2.762   1.233
 5015TIP3    H115051   5.327   2.681   1.262
 5015TIP3    H215052   5.216   2.778   1.298
 5016TIP3   OH215053   1.852   3.294   4.170
 5016TIP3    H115054   1.817   3.313   4.083
 5016TIP3    H215055   1.936   3.340   4.172
 5017TIP3   OH215056   6.118   2.118   0.415
 5017TIP3    H115057   6.156   2.205   0.404
 5017TIP3    H215058   6.165   2.064   0.352
 5018TIP3   OH215059   1.775   5.461   2.793
 5018TIP3    H115060   1.789   5.396   2.862
 5018TIP3    H215061   1.863   5.488   2.767
 5019TIP3   OH215062   1.479   1.859   5.093
 5019TIP3    H115063   1.493   1.855   5.188
 5019TIP3    H215064   1.389   1.891   5.084
 5020TIP3   OH215065   2.255   2.487   4.585
 5020TIP3    H115066   2.195   2.412   4.579
 5020TIP3    H215067   2.307   2.483   4.505
 5021TIP3   OH215068   0.205   3.235   3.106
 5021TIP3    H115069   0.199   3.317   3.156
 5021TIP3    H215070   0.149   3.174   3.154
 5022TIP3   OH215071   6.040   5.788   4.669
 5022TIP3    H115072   6.128   5.761   4.643
 5022TIP3    H215073   6.007   5.716   4.722
 5023TIP3   OH215074   2.080   5.297   3.338
 5023TIP3    H115075   2.018   5.343   3.394
 5023TIP3    H215076   2.026   5.234   3.289
 5024TIP3   OH215077   4.233   0.508   2.083
 5024TIP3    H115078   4.195   0.501   2.170
 5024TIP3    H215079   4.271   0.421   2.066
 5025TIP3   OH215080   1.706   1.580   2.521
 5025TIP3    H115081   1.711   1.551   2.612
 5025TIP3    H215082   1.749   1.511   2.471
 5026TIP3   OH215083   4.904   3.062   1.456
 5026TIP3    H115084   4.949   3.031   1.535
 5026TIP3    H215085   4.855   2.987   1.425
 5027TIP3   OH215086   2.203   5.042   1.320
 5027TIP3    H115087   2.228   5.134   1.324
 5027TIP3    H215088   2.281   4.997   1.288
 5028TIP3   OH215089   0.583   4.452   1.330
 5028TIP3    H115090   0.497   4.486   1.353
 5028TIP3    H215091   0.635   4.463   1.410
 5029TIP3   OH215092   5.655   2.689   3.838
 5029TIP3    H115093   5.745   2.692   3.873
 5029TIP3    H215094   5.612   2.620   3.889
 5030TIP3   OH215095   5.976   3.299   1.218
 5030TIP3    H115096   5.904   3.336   1.270
 5030TIP3    H215097   5.960   3.331   1.130
 5031TIP3   OH215098   0.295   2.769   0.914
 5031TIP3    H115099   0.200   2.773   0.924
 5031TIP3    H215100   0.308   2.761   0.820
 5032TIP3   OH215101   1.991   2.094   4.015
 5032TIP3    H115102   2.021   2.174   3.971
 5032TIP3    H215103   2.034   2.023   3.968
 5033TIP3   OH215104   3.996   1.622   3.615
 5033TIP3    H115105   3.951   1.539   3.599
 5033TIP3    H215106   3.962   1.680   3.547
 5034TIP3   OH215107   4.100   2.358   1.772
 5034TIP3    H115108   4.150   2.299   1.829
 5034TIP3    H215109   4.019   2.374   1.821
 5035TIP3   OH215110   5.916   4.247   1.808
 5035TIP3    H115111   5.853   4.207   1.749
 5035TIP3    H215112   5.877   4.238   1.895
 5036TIP3   OH215113   0.514   2.599   4.051
 5036TIP3    H115114   0.536   2.513   4.015
 5036TIP3    H215115   0.467   2.579   4.132
 5037TIP3   OH215116   0.182   1.289   3.640
 5037TIP3    H115117   0.183   1.196   3.661
 5037TIP3    H215118   0.177   1.292   3.544
 5038TIP3   OH215119   4.681   3.190   5.175
 5038TIP3    H115120   4.754   3.238   5.136
 5038TIP3    H215121   4.686   3.102   5.135
 5039TIP3   OH215122   2.774   5.641   0.087
 5039TIP3    H115123   2.823   5.616   0.165
 5039TIP3    H215124   2.772   5.561   0.033
 5040TIP3   OH215125   2.157   2.423   2.424
 5040TIP3    H115126   2.135   2.330   2.418
 5040TIP3    H215127   2.195   2.444   2.339
 5041TIP3   OH215128   3.810   3.681   2.505
 5041TIP3    H115129   3.905   3.674   2.502
 5041TIP3    H215130   3.792   3.775   2.496
 5042TIP3   OH215131   1.919   4.160   1.641
 5042TIP3    H115132   1.850   4.153   1.575
 5042TIP3    H215133   1.943   4.253   1.641
 5043TIP3   OH215134   0.902   5.557   0.634
 5043TIP3    H115135   0.967   5.614   0.593
 5043TIP3    H215136   0.852   5.615   0.692
 5044TIP3   OH215137   1.061   1.976   4.869
 5044TIP3    H115138   1.071   1.942   4.780
 5044TIP3    H215139   1.077   2.070   4.861
 5045TIP3   OH215140   3.701   0.696   0.425
 5045TIP3    H115141   3.692   0.642   0.346
 5045TIP3    H215142   3.611   0.708   0.456
 5046TIP3   OH215143   0.614   3.795   1.220
 5046TIP3    H115144   0.550   3.724   1.226
 5046TIP3    H215145   0.564   3.869   1.186
 5047TIP3   OH215146   2.332   3.085   4.051
 5047TIP3    H115147   2.334   3.130   4.136
 5047TIP3    H215148   2.381   3.004   4.066
 5048TIP3   OH215149   4.008   4.871   4.903
 5048TIP3    H115150   4.091   4.917   4.894
 5048TIP3    H215151   4.005   4.845   4.995
 5049TIP3   OH215152   5.326   5.381   5.082
 5049TIP3    H115153   5.320   5.407   5.173
 5049TIP3    H215154   5.352   5.288   5.085
 5050TIP3   OH215155   5.396   3.621   1.949
 5050TIP3    H115156   5.377   3.685   1.881
 5050TIP3    H215157   5.487   3.638   1.974
 5051TIP3   OH215158   4.115   3.043   3.804
 5051TIP3    H115159   4.132   2.950   3.816
 5051TIP3    H215160   4.197   3.086   3.831
 5052TIP3   OH215161   0.789   3.952   2.508
 5052TIP3    H115162   0.736   3.873   2.525
 5052TIP3    H215163   0.733   4.007   2.454
 5053TIP3   OH215164   0.837   0.254   0.769
 5053TIP3    H115165   0.810   0.338   0.804
 5053TIP3    H215166   0.762   0.223   0.719
 5054TIP3   OH215167   5.346   0.121   3.567
 5054TIP3    H115168   5.266   0.145   3.521
 5054TIP3    H215169   5.394   0.203   3.578
 5055TIP3   OH215170   3.144   5.579   1.209
 5055TIP3    H115171   3.138   5.543   1.121
 5055TIP3    H215172   3.228   5.547   1.243
 5056TIP3   OH215173   0.847   5.564   2.131
 5056TIP3    H115174   0.782   5.510   2.086
 5056TIP3    H215175   0.826   5.554   2.224
 5057TIP3   OH215176   2.654   4.108   2.450
 5057TIP3    H115177   2.642   4.015   2.468
 5057TIP3    H215178   2.737   4.113   2.402
 5058TIP3   OH215179   0.280   3.378   4.205
 5058TIP3    H115180   0.247   3.296   4.242
 5058TIP3    H215181   0.346   3.351   4.141
 5059TIP3   OH215182   4.383   1.510   0.830
 5059TIP3    H115183   4.469   1.504   0.789
 5059TIP3    H215184   4.338   1.580   0.783
 5060TIP3   OH215185   5.813   5.470   5.023
 5060TIP3    H115186   5.882   5.498   4.963
 5060TIP3    H215187   5.810   5.539   5.089
 5061TIP3   OH215188   2.743   2.964   1.824
 5061TIP3    H115189   2.668   2.904   1.824
 5061TIP3    H215190   2.790   2.943   1.905
 5062TIP3   OH215191   4.008   0.328   1.124
 5062TIP3    H115192   4.039   0.418   1.116
 5062TIP3    H215193   3.916   0.332   1.095
 5063TIP3   OH215194   0.318   1.357   2.149
 5063TIP3    H115195   0.340   1.267   2.173
 5063TIP3    H215196   0.386   1.410   2.190
 5064TIP3   OH215197   1.564   4.486   0.359
 5064TIP3    H115198   1.637   4.424   0.350
 5064TIP3    H215199   1.488   4.437   0.329
 5065TIP3   OH215200   0.078   0.846   4.578
 5065TIP3    H115201   0.125   0.904   4.518
 5065TIP3    H215202  -0.008   0.887   4.589
 5066TIP3   OH215203   0.438   1.062   3.293
 5066TIP3    H115204   0.365   1.007   3.322
 5066TIP3    H215205   0.510   1.038   3.352
 5067TIP3   OH215206   3.546   5.263   2.493
 5067TIP3    H115207   3.505   5.331   2.441
 5067TIP3    H215208   3.625   5.304   2.528
 5068TIP3   OH215209   0.858   3.739   4.195
 5068TIP3    H115210   0.785   3.801   4.200
 5068TIP3    H215211   0.822   3.657   4.229
 5069TIP3   OH215212   5.843   3.576   5.043
 5069TIP3    H115213   5.769   3.593   5.102
 5069TIP3    H215214   5.920   3.584   5.099
 5070TIP3   OH215215   5.472   5.779   0.268
 5070TIP3    H115216   5.433   5.696   0.242
 5070TIP3    H215217   5.425   5.804   0.348
 5071TIP3   OH215218   6.009   2.453   5.075
 5071TIP3    H115219   5.938   2.397   5.104
 5071TIP3    H215220   5.966   2.529   5.036
 5072TIP3   OH215221   2.610   3.968   0.954
 5072TIP3    H115222   2.574   4.043   0.908
 5072TIP3    H215223   2.534   3.920   0.986
 5073TIP3   OH215224   2.069   1.113   3.738
 5073TIP3    H115225   2.154   1.132   3.699
 5073TIP3    H215226   2.080   1.137   3.830
 5074TIP3   OH215227   4.892   5.883   4.997
 5074TIP3    H115228   4.977   5.842   4.980
 5074TIP3    H215229   4.911   5.955   5.056
 5075TIP3   OH215230   4.593   3.917   0.762
 5075TIP3    H115231   4.655   3.866   0.815
 5075TIP3    H215232   4.513   3.918   0.814
 5076TIP3   OH215233   2.285   3.970   0.358
 5076TIP3    H115234   2.337   4.036   0.311
 5076TIP3    H215235   2.305   3.986   0.450
 5077TIP3   OH215236   1.719   3.677   1.267
 5077TIP3    H115237   1.679   3.680   1.354
 5077TIP3    H215238   1.704   3.764   1.230
 5078TIP3   OH215239   5.462   3.838   2.581
 5078TIP3    H115240   5.534   3.862   2.523
 5078TIP3    H215241   5.486   3.874   2.666
 5079TIP3   OH215242   1.818   1.156   2.757
 5079TIP3    H115243   1.736   1.133   2.800
 5079TIP3    H215244   1.797   1.235   2.707
 5080TIP3   OH215245   1.784   0.449   4.408
 5080TIP3    H115246   1.813   0.503   4.481
 5080TIP3    H215247   1.708   0.402   4.441
 5081TIP3   OH215248   0.650   1.154   0.182
 5081TIP3    H115249   0.665   1.193   0.096
 5081TIP3    H215250   0.620   1.227   0.236
 5082TIP3   OH215251   3.203   0.457   4.394
 5082TIP3    H115252   3.266   0.403   4.347
 5082TIP3    H215253   3.152   0.395   4.447
 5083TIP3   OH215254   1.301   0.045   3.213
 5083TIP3    H115255   1.226   0.091   3.175
 5083TIP3    H215256   1.267  -0.043   3.232
 5084TIP3   OH215257   5.302   5.921   0.493
 5084TIP3    H115258   5.364   5.867   0.542
 5084TIP3    H215259   5.307   6.007   0.534
 5085TIP3   OH215260   5.399   1.997   1.318
 5085TIP3    H115261   5.359   2.002   1.231
 5085TIP3    H215262   5.331   2.028   1.377
 5086TIP3   OH215263   1.557   2.383   3.606
 5086TIP3    H115264   1.582   2.398   3.697
 5086TIP3    H215265   1.466   2.413   3.601
 5087TIP3   OH215266   4.916   2.981   5.168
 5087TIP3    H115267   4.911   3.016   5.079
 5087TIP3    H215268   5.005   2.999   5.196
 5088TIP3   OH215269   3.530   2.880   1.859
 5088TIP3    H115270   3.502   2.794   1.890
 5088TIP3    H215271   3.463   2.940   1.892
 5089TIP3   OH215272   2.440   3.520   2.619
 5089TIP3    H115273   2.349   3.505   2.591
 5089TIP3    H215274   2.486   3.543   2.539
 5090TIP3   OH215275   5.586   2.749   3.567
 5090TIP3    H115276   5.659   2.778   3.513
 5090TIP3    H215277   5.624   2.736   3.654
 5091TIP3   OH215278   3.304   4.840   0.168
 5091TIP3    H115279   3.303   4.895   0.090
 5091TIP3    H215280   3.313   4.751   0.135
 5092TIP3   OH215281   4.613   4.400   2.116
 5092TIP3    H115282   4.603   4.468   2.050
 5092TIP3    H215283   4.546   4.419   2.181
 5093TIP3   OH215284   5.069   4.439   1.145
 5093TIP3    H115285   5.146   4.478   1.185
 5093TIP3    H215286   4.995   4.477   1.192
 5094TIP3   OH215287   3.787   2.412   3.682
 5094TIP3    H115288   3.744   2.482   3.731
 5094TIP3    H215289   3.757   2.423   3.592
 5095TIP3   OH215290   4.258   3.379   3.769
 5095TIP3    H115291   4.350   3.369   3.790
 5095TIP3    H215292   4.245   3.325   3.691
 5096TIP3   OH215293   1.701   5.863   3.897
 5096TIP3    H115294   1.785   5.816   3.900
 5096TIP3    H215295   1.636   5.798   3.923
 5097TIP3   OH215296   5.222   1.720   1.169
 5097TIP3    H115297   5.177   1.718   1.085
 5097TIP3    H215298   5.279   1.643   1.168
 5098TIP3   OH215299   0.325   2.493   1.724
 5098TIP3    H115300   0.411   2.470   1.690
 5098TIP3    H215301   0.324   2.588   1.726
 5099TIP3   OH215302   1.264   0.392   3.456
 5099TIP3    H115303   1.244   0.374   3.364
 5099TIP3    H215304   1.301   0.309   3.488
 5100TIP3   OH215305   0.770   1.969   4.802
 5100TIP3    H115306   0.866   1.970   4.802
 5100TIP3    H215307   0.746   2.008   4.718
 5101TIP3   OH215308   4.086   1.030   3.745
 5101TIP3    H115309   4.074   1.079   3.826
 5101TIP3    H215310   4.029   0.953   3.755
 5102TIP3   OH215311   4.759   4.019   1.805
 5102TIP3    H115312   4.732   4.092   1.861
 5102TIP3    H215313   4.733   3.941   1.853
 5103TIP3   OH215314   4.218   3.815   2.955
 5103TIP3    H115315   4.274   3.889   2.934
 5103TIP3    H215316   4.221   3.759   2.877
 5104TIP3   OH215317   4.509   1.797   1.620
 5104TIP3    H115318   4.476   1.853   1.691
 5104TIP3    H215319   4.599   1.826   1.606
 5105TIP3   OH215320   4.166   5.796   4.915
 5105TIP3    H115321   4.139   5.883   4.885
 5105TIP3    H215322   4.254   5.785   4.879
 5106TIP3   OH215323   2.744   5.098   2.795
 5106TIP3    H115324   2.682   5.082   2.724
 5106TIP3    H215325   2.810   5.030   2.785
 5107TIP3   OH215326   0.081   0.289   2.555
 5107TIP3    H115327   0.064   0.383   2.547
 5107TIP3    H215328   0.123   0.265   2.472
 5108TIP3   OH215329   6.118   4.301   1.010
 5108TIP3    H115330   6.123   4.266   1.099
 5108TIP3    H215331   6.093   4.225   0.957
 5109TIP3   OH215332   3.043   0.362   3.351
 5109TIP3    H115333   3.103   0.425   3.391
 5109TIP3    H215334   3.016   0.305   3.423
 5110TIP3   OH215335   5.836   2.851   3.080
 5110TIP3    H115336   5.896   2.824   3.149
 5110TIP3    H215337   5.870   2.934   3.048
 5111TIP3   OH215338   4.059   2.984   1.035
 5111TIP3    H115339   4.070   2.899   0.993
 5111TIP3    H215340   3.965   2.998   1.039
 5112TIP3   OH215341   6.359   1.075   3.519
 5112TIP3    H115342   6.362   1.154   3.465
 5112TIP3    H215343   6.267   1.048   3.517
 5113TIP3   OH215344   5.653   5.240   4.967
 5113TIP3    H115345   5.649   5.194   5.051
 5113TIP3    H215346   5.704   5.319   4.986
 5114TIP3   OH215347   5.098   5.105   2.812
 5114TIP3    H115348   5.113   5.017   2.846
 5114TIP3    H215349   5.004   5.107   2.791
 5115TIP3   OH215350   4.438   2.068   0.087
 5115TIP3    H115351   4.403   2.051   0.000
 5115TIP3    H215352   4.496   2.143   0.076
 5116TIP3   OH215353   3.970   3.052   4.097
 5116TIP3    H115354   3.913   3.001   4.039
 5116TIP3    H215355   3.967   3.141   4.062
 5117TIP3   OH215356   1.013   4.932   0.135
 5117TIP3    H115357   1.076   4.992   0.176
 5117TIP3    H215358   1.067   4.863   0.097
 5118TIP3   OH215359   3.267   3.362   3.487
 5118TIP3    H115360   3.229   3.401   3.409
 5118TIP3    H215361   3.270   3.434   3.551
 5119TIP3   OH215362   3.951   5.253   0.973
 5119TIP3    H115363   3.878   5.222   0.919
 5119TIP3    H215364   4.022   5.267   0.911
 5120TIP3   OH215365   6.019   1.428   0.191
 5120TIP3    H115366   5.975   1.368   0.131
 5120TIP3    H215367   6.102   1.386   0.210
 5121TIP3   OH215368   5.915   3.281   1.732
 5121TIP3    H115369   5.962   3.297   1.814
 5121TIP3    H215370   5.867   3.362   1.715
 5122TIP3   OH215371   5.034   3.401   1.155
 5122TIP3    H115372   5.035   3.310   1.186
 5122TIP3    H215373   5.091   3.400   1.077
 5123TIP3   OH215374   4.914   3.973   3.587
 5123TIP3    H115375   4.842   4.005   3.642
 5123TIP3    H215376   4.888   3.883   3.565
 5124TIP3   OH215377   1.800   1.699   0.496
 5124TIP3    H115378   1.892   1.721   0.512
 5124TIP3    H215379   1.761   1.691   0.583
 5125TIP3   OH215380   5.021   5.268   0.329
 5125TIP3    H115381   5.023   5.210   0.405
 5125TIP3    H215382   4.999   5.354   0.365
 5126TIP3   OH215383   4.322   4.337   0.685
 5126TIP3    H115384   4.317   4.428   0.656
 5126TIP3    H215385   4.291   4.286   0.610
 5127TIP3   OH215386   0.652   0.813   1.074
 5127TIP3    H115387   0.685   0.729   1.103
 5127TIP3    H215388   0.591   0.840   1.143
 5128TIP3   OH215389   2.820   3.083   3.414
 5128TIP3    H115390   2.775   3.163   3.442
 5128TIP3    H215391   2.878   3.062   3.486
 5129TIP3   OH215392   1.903   1.397   1.969
 5129TIP3    H115393   1.859   1.460   1.912
 5129TIP3    H215394   1.844   1.387   2.044
 5130TIP3   OH215395   0.345   3.021   2.103
 5130TIP3    H115396   0.284   3.000   2.173
 5130TIP3    H215397   0.359   2.938   2.057
 5131TIP3   OH215398   2.867   3.497   2.641
 5131TIP3    H115399   2.798   3.483   2.575
 5131TIP3    H215400   2.843   3.439   2.713
 5132TIP3   OH215401   3.742   2.010   1.744
 5132TIP3    H115402   3.779   2.091   1.709
 5132TIP3    H215403   3.755   1.946   1.674
 5133TIP3   OH215404   6.089   5.802   0.058
 5133TIP3    H115405   6.167   5.795   0.113
 5133TIP3    H215406   6.021   5.836   0.117
 5134TIP3   OH215407   3.270   4.166   3.814
 5134TIP3    H115408   3.190   4.118   3.834
 5134TIP3    H215409   3.255   4.254   3.850
 5135TIP3   OH215410   3.899   5.095   4.206
 5135TIP3    H115411   3.908   5.157   4.278
 5135TIP3    H215412   3.854   5.020   4.245
 5136TIP3   OH215413   1.106   0.710   1.088
 5136TIP3    H115414   1.057   0.770   1.145
 5136TIP3    H215415   1.069   0.623   1.107
 5137TIP3   OH215416   0.651   1.492   3.783
 5137TIP3    H115417   0.691   1.576   3.760
 5137TIP3    H215418   0.598   1.470   3.707
 5138TIP3   OH215419   5.961   5.185   3.269
 5138TIP3    H115420   5.962   5.205   3.176
 5138TIP3    H215421   5.913   5.103   3.276
 5139TIP3   OH215422   2.204   3.385   3.612
 5139TIP3    H115423   2.183   3.304   3.658
 5139TIP3    H215424   2.275   3.424   3.663
 5140TIP3   OH215425   3.300   2.116   3.915
 5140TIP3    H115426   3.371   2.159   3.962
 5140TIP3    H215427   3.248   2.075   3.984
 5141TIP3   OH215428   0.291   2.700   5.038
 5141TIP3    H115429   0.220   2.637   5.048
 5141TIP3    H215430   0.336   2.699   5.122
 5142TIP3   OH215431   1.898   2.330   1.367
 5142TIP3    H115432   1.864   2.400   1.423
 5142TIP3    H215433   1.821   2.277   1.347
 5143TIP3   OH215434   1.028   1.331   0.757
 5143TIP3    H115435   1.116   1.326   0.792
 5143TIP3    H215436   0.971   1.315   0.832
 5144TIP3   OH215437   2.960   2.120   1.092
 5144TIP3    H115438   2.910   2.158   1.165
 5144TIP3    H215439   3.050   2.120   1.123
 5145TIP3   OH215440   0.467   2.290   0.667
 5145TIP3    H115441   0.450   2.310   0.575
 5145TIP3    H215442   0.451   2.372   0.713
 5146TIP3   OH215443   5.664   0.365   3.351
 5146TIP3    H115444   5.720   0.288   3.352
 5146TIP3    H215445   5.723   0.439   3.369
 5147TIP3   OH215446   5.693   3.218   4.128
 5147TIP3    H115447   5.726   3.171   4.052
 5147TIP3    H215448   5.645   3.293   4.092
 5148TIP3   OH215449   2.344   0.779   0.553
 5148TIP3    H115450   2.353   0.779   0.648
 5148TIP3    H215451   2.329   0.871   0.530
 5149TIP3   OH215452   0.244   3.470   3.281
 5149TIP3    H115453   0.281   3.481   3.369
 5149TIP3    H215454   0.305   3.518   3.224
 5150TIP3   OH215455   5.000   0.651   4.653
 5150TIP3    H115456   5.055   0.575   4.634
 5150TIP3    H215457   5.057   0.727   4.638
 5151TIP3   OH215458   4.258   3.223   3.529
 5151TIP3    H115459   4.179   3.269   3.502
 5151TIP3    H215460   4.328   3.263   3.477
 5152TIP3   OH215461   3.507   4.375   3.220
 5152TIP3    H115462   3.563   4.448   3.246
 5152TIP3    H215463   3.562   4.297   3.231
 5153TIP3   OH215464   3.979   2.613   4.790
 5153TIP3    H115465   3.968   2.696   4.836
 5153TIP3    H215466   3.889   2.583   4.773
 5154TIP3   OH215467   5.650   3.716   1.927
 5154TIP3    H115468   5.640   3.807   1.956
 5154TIP3    H215469   5.732   3.714   1.879
 5155TIP3   OH215470   3.118   4.731   3.152
 5155TIP3    H115471   3.029   4.743   3.186
 5155TIP3    H215472   3.163   4.813   3.173
 5156TIP3   OH215473   2.423   0.497   1.137
 5156TIP3    H115474   2.510   0.477   1.102
 5156TIP3    H215475   2.421   0.592   1.144
 5157TIP3   OH215476   0.969   3.739   4.824
 5157TIP3    H115477   1.023   3.778   4.892
 5157TIP3    H215478   1.014   3.658   4.800
 5158TIP3   OH215479   0.001   1.426   2.170
 5158TIP3    H115480  -0.020   1.335   2.194
 5158TIP3    H215481   0.092   1.438   2.197
 5159TIP3   OH215482   0.988   0.897   0.915
 5159TIP3    H115483   1.061   0.885   0.976
 5159TIP3    H215484   1.017   0.855   0.834
 5160TIP3   OH215485   1.640   0.862   4.607
 5160TIP3    H115486   1.649   0.800   4.679
 5160TIP3    H215487   1.722   0.912   4.608
 5161TIP3   OH215488   3.584   5.834   1.636
 5161TIP3    H115489   3.507   5.860   1.687
 5161TIP3    H215490   3.574   5.740   1.623
 5162TIP3   OH215491   6.253   3.252   0.602
 5162TIP3    H115492   6.323   3.317   0.593
 5162TIP3    H215493   6.262   3.196   0.525
 5163TIP3   OH215494   3.865   2.218   1.604
 5163TIP3    H115495   3.902   2.265   1.529
 5163TIP3    H215496   3.939   2.173   1.644
 5164TIP3   OH215497   1.460   5.197   4.446
 5164TIP3    H115498   1.483   5.132   4.513
 5164TIP3    H215499   1.528   5.265   4.454
 5165TIP3   OH215500   4.026   3.660   1.200
 5165TIP3    H115501   4.099   3.694   1.150
 5165TIP3    H215502   3.950   3.672   1.143
 5166TIP3   OH215503   4.659   3.777   4.824
 5166TIP3    H115504   4.669   3.732   4.740
 5166TIP3    H215505   4.707   3.722   4.886
 5167TIP3   OH215506   2.116   5.538   3.831
 5167TIP3    H115507   2.067   5.456   3.834
 5167TIP3    H215508   2.188   5.520   3.769
 5168TIP3   OH215509   3.295   5.234   1.621
 5168TIP3    H115510   3.271   5.248   1.712
 5168TIP3    H215511   3.270   5.315   1.577
 5169TIP3   OH215512   5.825   0.927   4.206
 5169TIP3    H115513   5.779   0.846   4.184
 5169TIP3    H215514   5.848   0.964   4.121
 5170TIP3   OH215515   5.043   4.689   1.832
 5170TIP3    H115516   5.005   4.610   1.793
 5170TIP3    H215517   5.084   4.659   1.913
 5171TIP3   OH215518   2.059   4.286   4.772
 5171TIP3    H115519   2.149   4.280   4.806
 5171TIP3    H215520   2.054   4.216   4.707
 5172TIP3   OH215521   3.010   4.632   4.957
 5172TIP3    H115522   3.066   4.558   4.979
 5172TIP3    H215523   3.047   4.706   5.005
 5173TIP3   OH215524   1.684   1.660   2.842
 5173TIP3    H115525   1.610   1.651   2.902
 5173TIP3    H215526   1.684   1.752   2.818
 5174TIP3   OH215527   1.360   1.502   0.415
 5174TIP3    H115528   1.430   1.558   0.381
 5174TIP3    H215529   1.283   1.558   0.415
 5175TIP3   OH215530   0.197   2.869   3.109
 5175TIP3    H115531   0.236   2.791   3.148
 5175TIP3    H215532   0.272   2.922   3.082
 5176TIP3   OH215533   3.947   5.693   2.414
 5176TIP3    H115534   4.032   5.680   2.458
 5176TIP3    H215535   3.902   5.758   2.468
 5177TIP3   OH215536   5.750   4.649   1.581
 5177TIP3    H115537   5.817   4.607   1.527
 5177TIP3    H215538   5.689   4.579   1.604
 5178TIP3   OH215539   4.264   3.034   1.908
 5178TIP3    H115540   4.175   3.000   1.905
 5178TIP3    H215541   4.263   3.096   1.981
 5179TIP3   OH215542   2.933   0.653   2.172
 5179TIP3    H115543   2.892   0.738   2.158
 5179TIP3    H215544   2.988   0.639   2.096
 5180TIP3   OH215545   5.127   0.109   4.996
 5180TIP3    H115546   5.181   0.091   4.919
 5180TIP3    H215547   5.190   0.140   5.062
 5181TIP3   OH215548   3.883   1.861   0.353
 5181TIP3    H115549   3.898   1.896   0.441
 5181TIP3    H215550   3.934   1.918   0.295
 5182TIP3   OH215551   5.209   2.078   1.486
 5182TIP3    H115552   5.241   2.116   1.568
 5182TIP3    H215553   5.114   2.071   1.499
 5183TIP3   OH215554   2.914   1.138   0.772
 5183TIP3    H115555   2.856   1.115   0.699
 5183TIP3    H215556   2.932   1.054   0.815
 5184TIP3   OH215557   4.632   4.296   3.848
 5184TIP3    H115558   4.685   4.280   3.770
 5184TIP3    H215559   4.661   4.382   3.878
 5185TIP3   OH215560   0.991   4.552   1.952
 5185TIP3    H115561   1.049   4.628   1.960
 5185TIP3    H215562   0.912   4.588   1.911
 5186TIP3   OH215563   4.817   2.347   2.749
 5186TIP3    H115564   4.728   2.334   2.781
 5186TIP3    H215565   4.861   2.396   2.819
 5187TIP3   OH215566   2.637   4.066   4.060
 5187TIP3    H115567   2.675   4.124   3.993
 5187TIP3    H215568   2.628   4.120   4.138
 5188TIP3   OH215569   6.225   1.907   0.250
 5188TIP3    H115570   6.192   1.821   0.276
 5188TIP3    H215571   6.306   1.888   0.203
 5189TIP3   OH215572   4.880   1.839   3.477
 5189TIP3    H115573   4.861   1.931   3.464
 5189TIP3    H215574   4.797   1.794   3.462
 5190TIP3   OH215575   2.496   1.145   0.590
 5190TIP3    H115576   2.520   1.066   0.542
 5190TIP3    H215577   2.515   1.125   0.682
 5191TIP3   OH215578   5.707   3.823   4.945
 5191TIP3    H115579   5.719   3.752   4.882
 5191TIP3    H215580   5.792   3.867   4.948
 5192TIP3   OH215581   2.606   0.182   0.781
 5192TIP3    H115582   2.580   0.204   0.870
 5192TIP3    H215583   2.525   0.189   0.730
 5193TIP3   OH215584   1.586   4.618   1.471
 5193TIP3    H115585   1.493   4.625   1.451
 5193TIP3    H215586   1.631   4.625   1.387
 5194TIP3   OH215587   2.572   5.933   0.274
 5194TIP3    H115588   2.605   5.854   0.317
 5194TIP3    H215589   2.647   5.968   0.227
 5195TIP3   OH215590   2.425   5.836   3.939
 5195TIP3    H115591   2.339   5.869   3.967
 5195TIP3    H215592   2.454   5.782   4.012
 5196TIP3   OH215593   5.235   4.398   4.940
 5196TIP3    H115594   5.150   4.417   4.902
 5196TIP3    H215595   5.280   4.345   4.874
 5197TIP3   OH215596   5.245   4.806   4.083
 5197TIP3    H115597   5.273   4.765   4.165
 5197TIP3    H215598   5.155   4.776   4.071
 5198TIP3   OH215599   4.439   2.893   2.994
 5198TIP3    H115600   4.419   2.915   2.904
 5198TIP3    H215601   4.396   2.808   3.008
 5199TIP3   OH215602   4.008   4.034   1.184
 5199TIP3    H115603   4.061   4.083   1.247
 5199TIP3    H215604   3.965   3.966   1.237
 5200TIP3   OH215605   2.862   2.290   2.081
 5200TIP3    H115606   2.938   2.341   2.051
 5200TIP3    H215607   2.819   2.260   2.001
 5201TIP3   OH215608   1.284   5.377   2.731
 5201TIP3    H115609   1.279   5.424   2.648
 5201TIP3    H215610   1.232   5.298   2.717
 5202TIP3   OH215611   5.111   4.858   1.027
 5202TIP3    H115612   5.097   4.875   1.120
 5202TIP3    H215613   5.094   4.765   1.017
 5203TIP3   OH215614   4.796   2.061   4.478
 5203TIP3    H115615   4.715   2.009   4.481
 5203TIP3    H215616   4.803   2.097   4.566
 5204TIP3   OH215617   3.267   5.271   4.338
 5204TIP3    H115618   3.343   5.312   4.381
 5204TIP3    H215619   3.230   5.214   4.405
 5205TIP3   OH215620   4.499   2.237   1.267
 5205TIP3    H115621   4.427   2.183   1.233
 5205TIP3    H215622   4.491   2.320   1.219
 5206TIP3   OH215623   3.492   5.381   4.026
 5206TIP3    H115624   3.413   5.393   4.079
 5206TIP3    H215625   3.564   5.378   4.090
 5207TIP3   OH215626   4.647   3.080   0.334
 5207TIP3    H115627   4.669   3.160   0.381
 5207TIP3    H215628   4.727   3.056   0.288
 5208TIP3   OH215629   4.411   0.634   0.635
 5208TIP3    H115630   4.347   0.590   0.580
 5208TIP3    H215631   4.390   0.606   0.724
 5209TIP3   OH215632   4.281   5.437   4.932
 5209TIP3    H115633   4.358   5.390   4.967
 5209TIP3    H215634   4.316   5.522   4.904
 5210TIP3   OH215635   4.069   4.793   3.826
 5210TIP3    H115636   4.008   4.809   3.754
 5210TIP3    H215637   4.146   4.846   3.804
 5211TIP3   OH215638   4.576   1.843   0.883
 5211TIP3    H115639   4.575   1.868   0.975
 5211TIP3    H215640   4.596   1.750   0.883
 5212TIP3   OH215641   2.363   2.494   4.331
 5212TIP3    H115642   2.423   2.426   4.361
 5212TIP3    H215643   2.310   2.452   4.264
 5213TIP3   OH215644   5.359   3.981   4.492
 5213TIP3    H115645   5.285   3.981   4.553
 5213TIP3    H215646   5.328   4.032   4.417
 5214TIP3   OH215647   5.046   0.888   2.562
 5214TIP3    H115648   5.016   0.920   2.477
 5214TIP3    H215649   5.021   0.956   2.625
 5215TIP3   OH215650   2.431   1.012   1.331
 5215TIP3    H115651   2.500   1.074   1.307
 5215TIP3    H215652   2.467   0.963   1.404
 5216TIP3   OH215653   2.251   3.432   3.950
 5216TIP3    H115654   2.298   3.355   3.916
 5216TIP3    H215655   2.310   3.505   3.933
 5217TIP3   OH215656   4.598   4.325   4.542
 5217TIP3    H115657   4.530   4.388   4.567
 5217TIP3    H215658   4.600   4.261   4.614
 5218TIP3   OH215659   5.187   0.286   1.721
 5218TIP3    H115660   5.195   0.208   1.667
 5218TIP3    H215661   5.251   0.274   1.792
 5219TIP3   OH215662   1.637   3.476   3.726
 5219TIP3    H115663   1.688   3.502   3.649
 5219TIP3    H215664   1.692   3.500   3.801
 5220TIP3   OH215665   5.688   2.719   0.968
 5220TIP3    H115666   5.714   2.811   0.962
 5220TIP3    H215667   5.714   2.693   1.057
 5221TIP3   OH215668   3.093   0.199   4.045
 5221TIP3    H115669   3.130   0.272   3.994
 5221TIP3    H215670   3.168   0.143   4.065
 5222TIP3   OH215671   3.011   0.177   2.684
 5222TIP3    H115672   3.092   0.163   2.634
 5222TIP3    H215673   2.952   0.108   2.653
 5223TIP3   OH215674   5.910   3.432   4.559
 5223TIP3    H115675   5.847   3.428   4.487
 5223TIP3    H215676   5.900   3.348   4.604
 5224TIP3   OH215677   3.180   2.445   0.173
 5224TIP3    H115678   3.154   2.435   0.265
 5224TIP3    H215679   3.253   2.507   0.176
 5225TIP3   OH215680   3.528   2.164   0.767
 5225TIP3    H115681   3.541   2.070   0.768
 5225TIP3    H215682   3.466   2.179   0.696
 5226TIP3   OH215683   3.025   2.471   0.953
 5226TIP3    H115684   2.932   2.487   0.968
 5226TIP3    H215685   3.061   2.460   1.041
 5227TIP3   OH215686   1.015   1.199   1.059
 5227TIP3    H115687   0.998   1.276   1.113
 5227TIP3    H215688   0.932   1.150   1.059
 5228TIP3   OH215689   3.560   4.702   4.259
 5228TIP3    H115690   3.600   4.721   4.343
 5228TIP3    H215691   3.591   4.771   4.201
 5229TIP3   OH215692   5.327   5.854   2.587
 5229TIP3    H115693   5.303   5.776   2.536
 5229TIP3    H215694   5.414   5.878   2.555
 5230TIP3   OH215695   5.890   1.837   4.458
 5230TIP3    H115696   5.826   1.779   4.417
 5230TIP3    H215697   5.839   1.914   4.484
 5231TIP3   OH215698   2.721   2.598   0.940
 5231TIP3    H115699   2.650   2.648   0.979
 5231TIP3    H215700   2.681   2.515   0.913
 5232TIP3   OH215701   0.302   0.817   2.887
 5232TIP3    H115702   0.363   0.802   2.814
 5232TIP3    H215703   0.357   0.810   2.965
 5233TIP3   OH215704   0.624   3.200   4.936
 5233TIP3    H115705   0.618   3.120   4.884
 5233TIP3    H215706   0.634   3.270   4.871
 5234TIP3   OH215707   3.781   4.293   2.988
 5234TIP3    H115708   3.841   4.366   3.006
 5234TIP3    H215709   3.834   4.231   2.939
 5235TIP3   OH215710   2.806   5.653   0.680
 5235TIP3    H115711   2.802   5.713   0.605
 5235TIP3    H215712   2.715   5.635   0.701
 5236TIP3   OH215713   5.178   2.567   3.124
 5236TIP3    H115714   5.086   2.590   3.128
 5236TIP3    H215715   5.224   2.648   3.146
 5237TIP3   OH215716   1.284   1.872   0.524
 5237TIP3    H115717   1.256   1.794   0.476
 5237TIP3    H215718   1.260   1.854   0.615
 5238TIP3   OH215719   4.985   3.728   1.533
 5238TIP3    H115720   4.967   3.649   1.584
 5238TIP3    H215721   4.992   3.798   1.599
 5239TIP3   OH215722   2.731   1.042   1.593
 5239TIP3    H115723   2.774   1.105   1.535
 5239TIP3    H215724   2.746   1.077   1.681
 5240TIP3   OH215725   4.636   1.843   3.616
 5240TIP3    H115726   4.709   1.844   3.678
 5240TIP3    H215727   4.629   1.933   3.585
 5241TIP3   OH215728   3.979   5.722   2.123
 5241TIP3    H115729   3.919   5.795   2.137
 5241TIP3    H215730   3.997   5.689   2.211
 5242TIP3   OH215731   2.381   4.745   2.280
 5242TIP3    H115732   2.468   4.708   2.266
 5242TIP3    H215733   2.328   4.708   2.209
 5243TIP3   OH215734   2.913   5.214   3.102
 5243TIP3    H115735   2.984   5.153   3.082
 5243TIP3    H215736   2.833   5.167   3.078
 5244TIP3   OH215737   3.053   2.728   0.858
 5244TIP3    H115738   3.037   2.633   0.854
 5244TIP3    H215739   3.008   2.764   0.782
 5245TIP3   OH215740   1.064   4.428   0.093
 5245TIP3    H115741   0.988   4.371   0.081
 5245TIP3    H215742   1.032   4.501   0.146
 5246TIP3   OH215743   2.265   5.337   1.398
 5246TIP3    H115744   2.232   5.348   1.487
 5246TIP3    H215745   2.297   5.423   1.373
 5247TIP3   OH215746   5.929   4.967   0.660
 5247TIP3    H115747   5.957   5.009   0.741
 5247TIP3    H215748   5.886   4.886   0.688
 5248TIP3   OH215749   5.650   2.193   3.479
 5248TIP3    H115750   5.575   2.202   3.538
 5248TIP3    H215751   5.611   2.188   3.392
 5249TIP3   OH215752   5.160   3.304   0.052
 5249TIP3    H115753   5.188   3.396   0.050
 5249TIP3    H215754   5.136   3.285  -0.038
 5250TIP3   OH215755   1.485   0.742   3.480
 5250TIP3    H115756   1.528   0.680   3.539
 5250TIP3    H215757   1.469   0.820   3.534
 5251TIP3   OH215758   1.103   2.260   0.861
 5251TIP3    H115759   1.122   2.166   0.869
 5251TIP3    H215760   1.172   2.303   0.910
 5252TIP3   OH215761   0.327   1.881   5.067
 5252TIP3    H115762   0.344   1.962   5.116
 5252TIP3    H215763   0.327   1.908   4.975
 5253TIP3   OH215764   3.580   2.939   3.725
 5253TIP3    H115765   3.512   2.873   3.716
 5253TIP3    H215766   3.650   2.910   3.666
 5254TIP3   OH215767   4.011   4.072   4.119
 5254TIP3    H115768   4.091   4.110   4.082
 5254TIP3    H215769   3.940   4.125   4.082
 5255TIP3   OH215770   6.262   2.351   3.135
 5255TIP3    H115771   6.316   2.430   3.131
 5255TIP3    H215772   6.211   2.362   3.215
 5256TIP3   OH215773   2.081   4.292   0.351
 5256TIP3    H115774   2.153   4.287   0.288
 5256TIP3    H215775   2.055   4.384   0.349
 5257TIP3   OH215776   4.172   4.416   1.950
 5257TIP3    H115777   4.245   4.475   1.932
 5257TIP3    H215778   4.104   4.472   1.986
 5258TIP3   OH215779   3.649   5.564   1.584
 5258TIP3    H115780   3.667   5.471   1.594
 5258TIP3    H215781   3.736   5.605   1.586
 5259TIP3   OH215782   5.845   5.546   0.140
 5259TIP3    H115783   5.861   5.515   0.229
 5259TIP3    H215784   5.803   5.632   0.152
 5260TIP3   OH215785   1.053   4.171   1.748
 5260TIP3    H115786   1.043   4.116   1.670
 5260TIP3    H215787   1.130   4.135   1.793
 5261TIP3   OH215788   4.340   5.481   0.744
 5261TIP3    H115789   4.297   5.403   0.779
 5261TIP3    H215790   4.432   5.472   0.771
 5262TIP3   OH215791   4.029   1.555   4.121
 5262TIP3    H115792   3.935   1.542   4.104
 5262TIP3    H215793   4.043   1.519   4.208
 5263TIP3   OH215794   3.126   1.898   3.112
 5263TIP3    H115795   3.156   1.890   3.022
 5263TIP3    H215796   3.045   1.948   3.106
 5264TIP3   OH215797   5.073   5.788   1.520
 5264TIP3    H115798   4.985   5.753   1.515
 5264TIP3    H215799   5.121   5.743   1.451
 5265TIP3   OH215800   1.797   3.709   5.077
 5265TIP3    H115801   1.847   3.642   5.031
 5265TIP3    H215802   1.745   3.659   5.141
 5266TIP3   OH215803   0.102   1.221   4.646
 5266TIP3    H115804   0.085   1.278   4.571
 5266TIP3    H215805   0.029   1.159   4.647
 5267TIP3   OH215806   1.387   5.167   5.170
 5267TIP3    H115807   1.336   5.238   5.131
 5267TIP3    H215808   1.472   5.206   5.188
 5268TIP3   OH215809   0.212   0.803   0.430
 5268TIP3    H115810   0.145   0.831   0.367
 5268TIP3    H215811   0.222   0.879   0.488
 5269TIP3   OH215812   4.104   4.942   2.553
 5269TIP3    H115813   4.012   4.919   2.550
 5269TIP3    H215814   4.123   4.956   2.646
 5270TIP3   OH215815   1.241   2.138   0.362
 5270TIP3    H115816   1.264   2.130   0.454
 5270TIP3    H215817   1.233   2.232   0.347
 5271TIP3   OH215818   1.132   1.590   4.700
 5271TIP3    H115819   1.095   1.618   4.784
 5271TIP3    H215820   1.058   1.552   4.653
 5272TIP3   OH215821   2.907   1.884   2.225
 5272TIP3    H115822   2.820   1.916   2.248
 5272TIP3    H215823   2.927   1.927   2.142
 5273TIP3   OH215824   3.213   4.662   1.088
 5273TIP3    H115825   3.125   4.651   1.123
 5273TIP3    H215826   3.211   4.749   1.047
 5274TIP3   OH215827   2.216   0.905   2.411
 5274TIP3    H115828   2.308   0.911   2.386
 5274TIP3    H215829   2.217   0.905   2.506
 5275TIP3   OH215830   1.439   3.694   2.485
 5275TIP3    H115831   1.503   3.639   2.530
 5275TIP3    H215832   1.464   3.784   2.507
 5276TIP3   OH215833   3.197   4.437   4.970
 5276TIP3    H115834   3.245   4.488   5.035
 5276TIP3    H215835   3.192   4.349   5.006
 5277TIP3   OH215836   3.480   2.931   4.883
 5277TIP3    H115837   3.422   2.969   4.949
 5277TIP3    H215838   3.567   2.964   4.904
 5278TIP3   OH215839   3.658   2.621   4.868
 5278TIP3    H115840   3.694   2.661   4.948
 5278TIP3    H215841   3.585   2.567   4.899
 5279TIP3   OH215842   0.512   1.465   2.304
 5279TIP3    H115843   0.606   1.446   2.298
 5279TIP3    H215844   0.494   1.464   2.398
 5280TIP3   OH215845   2.237   1.355   4.909
 5280TIP3    H115846   2.222   1.416   4.981
 5280TIP3    H215847   2.197   1.397   4.833
 5281TIP3   OH215848   4.812   4.859   1.900
 5281TIP3    H115849   4.873   4.814   1.842
 5281TIP3    H215850   4.861   4.873   1.981
 5282TIP3   OH215851   0.693   3.935   2.117
 5282TIP3    H115852   0.742   3.894   2.046
 5282TIP3    H215853   0.685   3.867   2.184
 5283TIP3   OH215854   5.109   4.381   0.583
 5283TIP3    H115855   5.140   4.359   0.671
 5283TIP3    H215856   5.181   4.431   0.544
 5284TIP3   OH215857   4.555   3.644   3.918
 5284TIP3    H115858   4.476   3.666   3.869
 5284TIP3    H215859   4.537   3.676   4.007
 5285TIP3   OH215860   3.899   5.177   0.306
 5285TIP3    H115861   3.865   5.202   0.392
 5285TIP3    H215862   3.854   5.095   0.285
 5286TIP3   OH215863   2.968   5.141   1.580
 5286TIP3    H115864   3.044   5.103   1.623
 5286TIP3    H215865   2.948   5.082   1.508
 5287TIP3   OH215866   3.561   5.531   5.009
 5287TIP3    H115867   3.619   5.474   4.958
 5287TIP3    H215868   3.553   5.488   5.094
 5288TIP3   OH215869   1.483   2.109   0.548
 5288TIP3    H115870   1.557   2.113   0.488
 5288TIP3    H215871   1.436   2.030   0.523
 5289TIP3   OH215872   5.982   3.246   0.046
 5289TIP3    H115873   5.972   3.226   0.139
 5289TIP3    H215874   5.899   3.219   0.006
 5290TIP3   OH215875   2.656   4.852   4.329
 5290TIP3    H115876   2.601   4.898   4.266
 5290TIP3    H215877   2.627   4.884   4.415
 5291TIP3   OH215878   3.776   0.599   0.837
 5291TIP3    H115879   3.704   0.560   0.787
 5291TIP3    H215880   3.826   0.648   0.772
 5292TIP3   OH215881   3.843   1.676   2.055
 5292TIP3    H115882   3.854   1.771   2.046
 5292TIP3    H215883   3.829   1.663   2.149
 5293TIP3   OH215884   3.332   0.851   2.193
 5293TIP3    H115885   3.424   0.838   2.170
 5293TIP3    H215886   3.308   0.772   2.242
 5294TIP3   OH215887   1.175   3.421   2.688
 5294TIP3    H115888   1.234   3.365   2.738
 5294TIP3    H215889   1.220   3.506   2.684
 5295TIP3   OH215890   2.203   3.659   4.586
 5295TIP3    H115891   2.227   3.709   4.508
 5295TIP3    H215892   2.173   3.724   4.649
 5296TIP3   OH215893   4.826   1.938   3.776
 5296TIP3    H115894   4.837   1.940   3.872
 5296TIP3    H215895   4.899   1.886   3.745
 5297TIP3   OH215896   2.785   5.309   4.508
 5297TIP3    H115897   2.787   5.288   4.415
 5297TIP3    H215898   2.872   5.288   4.540
 5298TIP3   OH215899   4.491   5.385   2.728
 5298TIP3    H115900   4.476   5.303   2.776
 5298TIP3    H215901   4.581   5.378   2.696
 5299TIP3   OH215902   6.031   4.589   2.815
 5299TIP3    H115903   5.957   4.648   2.797
 5299TIP3    H215904   6.041   4.593   2.910
 5300TIP3   OH215905   2.146   2.945   3.326
 5300TIP3    H115906   2.058   2.908   3.322
 5300TIP3    H215907   2.163   2.976   3.237
 5301TIP3   OH215908   6.129   2.508   1.054
 5301TIP3    H115909   6.181   2.481   0.978
 5301TIP3    H215910   6.152   2.445   1.122
 5302TIP3   OH215911   4.797   5.715   0.602
 5302TIP3    H115912   4.744   5.794   0.613
 5302TIP3    H215913   4.733   5.644   0.597
 5303TIP3   OH215914   3.066   3.405   3.931
 5303TIP3    H115915   3.108   3.491   3.929
 5303TIP3    H215916   2.973   3.425   3.943
 5304TIP3   OH215917   6.070   1.981   2.140
 5304TIP3    H115918   6.112   1.919   2.080
 5304TIP3    H215919   6.057   2.059   2.087
 5305TIP3   OH215920   5.908   5.573   3.081
 5305TIP3    H115921   5.851   5.499   3.105
 5305TIP3    H215922   5.870   5.607   2.999
 5306TIP3   OH215923   2.485   1.233   4.885
 5306TIP3    H115924   2.494   1.160   4.945
 5306TIP3    H215925   2.400   1.272   4.907
 5307TIP3   OH215926   4.829   4.017   5.058
 5307TIP3    H115927   4.756   4.069   5.093
 5307TIP3    H215928   4.907   4.060   5.091
 5308TIP3   OH215929   4.206   5.644   4.078
 5308TIP3    H115930   4.188   5.570   4.136
 5308TIP3    H215931   4.128   5.651   4.023
 5309TIP3   OH215932   2.053   0.340   0.223
 5309TIP3    H115933   2.029   0.252   0.193
 5309TIP3    H215934   2.001   0.353   0.303
 5310TIP3   OH215935   5.348   0.157   4.028
 5310TIP3    H115936   5.301   0.235   4.058
 5310TIP3    H215937   5.366   0.175   3.935
 5311TIP3   OH215938   1.207   2.066   1.120
 5311TIP3    H115939   1.260   2.011   1.177
 5311TIP3    H215940   1.145   2.109   1.180
 5312TIP3   OH215941   4.516   0.446   3.528
 5312TIP3    H115942   4.444   0.490   3.482
 5312TIP3    H215943   4.489   0.446   3.619
 5313TIP3   OH215944   5.864   2.182   1.863
 5313TIP3    H115945   5.775   2.185   1.898
 5313TIP3    H215946   5.868   2.099   1.815
 5314TIP3   OH215947   0.790   1.090   0.921
 5314TIP3    H115948   0.850   1.019   0.944
 5314TIP3    H215949   0.780   1.083   0.826
 5315TIP3   OH215950   0.401   0.108   0.824
 5315TIP3    H115951   0.411   0.203   0.829
 5315TIP3    H215952   0.332   0.095   0.758
 5316TIP3   OH215953   1.968   3.527   4.893
 5316TIP3    H115954   1.929   3.439   4.895
 5316TIP3    H215955   1.955   3.557   4.803
 5317TIP3   OH215956   0.948   1.183   4.621
 5317TIP3    H115957   1.043   1.184   4.609
 5317TIP3    H215958   0.936   1.150   4.710
 5318TIP3   OH215959   2.009   1.011   2.091
 5318TIP3    H115960   1.933   1.067   2.109
 5318TIP3    H215961   2.004   0.942   2.157
 5319TIP3   OH215962   3.615   3.749   3.041
 5319TIP3    H115963   3.576   3.664   3.059
 5319TIP3    H215964   3.542   3.811   3.051
 5320TIP3   OH215965   1.371   2.362   0.598
 5320TIP3    H115966   1.432   2.294   0.571
 5320TIP3    H215967   1.319   2.381   0.519
 5321TIP3   OH215968   1.370   4.786   1.688
 5321TIP3    H115969   1.432   4.848   1.650
 5321TIP3    H215970   1.367   4.713   1.625
 5322TIP3   OH215971   0.889   1.678   3.777
 5322TIP3    H115972   0.901   1.692   3.871
 5322TIP3    H215973   0.872   1.765   3.741
 5323TIP3   OH215974   5.987   1.049   4.384
 5323TIP3    H115975   5.958   0.991   4.313
 5323TIP3    H215976   5.918   1.043   4.450
 5324TIP3   OH215977   5.438   4.973   2.813
 5324TIP3    H115978   5.420   4.879   2.813
 5324TIP3    H215979   5.477   4.990   2.899
 5325TIP3   OH215980   2.991   3.141   3.010
 5325TIP3    H115981   3.003   3.091   2.929
 5325TIP3    H215982   3.080   3.161   3.040
 5326TIP3   OH215983   4.434   1.303   2.556
 5326TIP3    H115984   4.377   1.349   2.495
 5326TIP3    H215985   4.515   1.354   2.557
 5327TIP3   OH215986   1.088   2.204   1.314
 5327TIP3    H115987   1.036   2.153   1.376
 5327TIP3    H215988   1.048   2.291   1.315
 5328TIP3   OH215989   3.677   2.386   2.848
 5328TIP3    H115990   3.687   2.322   2.918
 5328TIP3    H215991   3.753   2.443   2.856
 5329TIP3   OH215992   4.077   2.600   1.427
 5329TIP3    H115993   3.998   2.546   1.430
 5329TIP3    H215994   4.053   2.674   1.370
 5330TIP3   OH215995   2.800   2.764   4.591
 5330TIP3    H115996   2.782   2.681   4.546
 5330TIP3    H215997   2.804   2.829   4.521
 5331TIP3   OH215998   5.755   3.274   2.351
 5331TIP3    H115999   5.723   3.337   2.416
 5331TIP3    H216000   5.759   3.324   2.270
 5332TIP3   OH216001   5.333   2.895   2.561
 5332TIP3    H116002   5.396   2.855   2.621
 5332TIP3    H216003   5.326   2.986   2.591
 5333TIP3   OH216004   3.204   0.918   4.647
 5333TIP3    H116005   3.115   0.896   4.618
 5333TIP3    H216006   3.257   0.842   4.621
 5334TIP3   OH216007   3.278   0.528   2.834
 5334TIP3    H116008   3.338   0.532   2.759
 5334TIP3    H216009   3.311   0.455   2.886
 5335TIP3   OH216010   2.466   0.240   1.558
 5335TIP3    H116011   2.454   0.256   1.652
 5335TIP3    H216012   2.401   0.298   1.517
 5336TIP3   OH216013   5.523   1.253   0.874
 5336TIP3    H116014   5.560   1.310   0.806
 5336TIP3    H216015   5.442   1.220   0.835
 5337TIP3   OH216016   1.598   1.864   0.727
 5337TIP3    H116017   1.531   1.889   0.664
 5337TIP3    H216018   1.592   1.931   0.796
 5338TIP3   OH216019   1.676   5.059   4.585
 5338TIP3    H116020   1.747   5.115   4.554
 5338TIP3    H216021   1.700   5.036   4.675
 5339TIP3   OH216022   0.147   0.030   2.871
 5339TIP3    H116023   0.163   0.113   2.826
 5339TIP3    H216024   0.165   0.048   2.963
 5340TIP3   OH216025   4.721   4.258   3.484
 5340TIP3    H116026   4.777   4.215   3.420
 5340TIP3    H216027   4.777   4.322   3.528
 5341TIP3   OH216028   2.401   1.409   4.103
 5341TIP3    H116029   2.395   1.495   4.061
 5341TIP3    H216030   2.315   1.369   4.089
 5342TIP3   OH216031   1.327   4.490   3.653
 5342TIP3    H116032   1.281   4.462   3.731
 5342TIP3    H216033   1.416   4.455   3.663
 5343TIP3   OH216034   4.950   0.650   2.677
 5343TIP3    H116035   5.015   0.591   2.638
 5343TIP3    H216036   4.988   0.737   2.668
 5344TIP3   OH216037   2.494   5.716   0.125
 5344TIP3    H116038   2.498   5.775   0.201
 5344TIP3    H216039   2.585   5.695   0.106
 5345TIP3   OH216040   2.289   3.598   0.819
 5345TIP3    H116041   2.219   3.648   0.778
 5345TIP3    H216042   2.326   3.545   0.749
 5346TIP3   OH216043   0.198   4.742   1.104
 5346TIP3    H116044   0.174   4.701   1.020
 5346TIP3    H216045   0.268   4.803   1.081
 5347TIP3   OH216046   2.528   4.905   4.885
 5347TIP3    H116047   2.559   4.816   4.867
 5347TIP3    H216048   2.607   4.959   4.885
 5348TIP3   OH216049   2.806   4.178   0.316
 5348TIP3    H116050   2.815   4.206   0.407
 5348TIP3    H216051   2.712   4.162   0.305
 5349TIP3   OH216052   2.067   2.799   2.578
 5349TIP3    H116053   2.104   2.710   2.576
 5349TIP3    H216054   1.990   2.791   2.634
 5350TIP3   OH216055   4.241   5.706   0.330
 5350TIP3    H116056   4.164   5.671   0.286
 5350TIP3    H216057   4.311   5.698   0.265
 5351TIP3   OH216058   5.986   0.349   0.222
 5351TIP3    H116059   6.058   0.368   0.282
 5351TIP3    H216060   5.965   0.433   0.182
 5352TIP3   OH216061   1.125   0.760   0.107
 5352TIP3    H116062   1.151   0.796   0.022
 5352TIP3    H216063   1.170   0.815   0.171
 5353TIP3   OH216064   5.216   4.157   5.093
 5353TIP3    H116065   5.292   4.104   5.071
 5353TIP3    H216066   5.235   4.243   5.055
 5354TIP3   OH216067   3.762   2.543   1.678
 5354TIP3    H116068   3.835   2.522   1.736
 5354TIP3    H216069   3.795   2.525   1.590
 5355TIP3   OH216070   3.409   1.026   4.910
 5355TIP3    H116071   3.364   1.090   4.855
 5355TIP3    H216072   3.458   0.972   4.848
 5356TIP3   OH216073   2.712   2.749   3.879
 5356TIP3    H116074   2.623   2.715   3.895
 5356TIP3    H216075   2.700   2.814   3.810
 5357TIP3   OH216076   6.133   5.162   4.887
 5357TIP3    H116077   6.041   5.181   4.871
 5357TIP3    H216078   6.179   5.239   4.855
 5358TIP3   OH216079   3.881  -0.007   2.899
 5358TIP3    H116080   3.870   0.087   2.911
 5358TIP3    H216081   3.969  -0.026   2.933
 5359TIP3   OH216082   5.414   2.892   2.116
 5359TIP3    H116083   5.459   2.968   2.154
 5359TIP3    H216084   5.444   2.890   2.025
 5360TIP3   OH216085   6.077   3.740   4.305
 5360TIP3    H116086   6.020   3.780   4.240
 5360TIP3    H216087   6.155   3.795   4.306
 5361TIP3   OH216088   3.239   0.503   0.789
 5361TIP3    H116089   3.310   0.539   0.842
 5361TIP3    H216090   3.223   0.417   0.826
 5362TIP3   OH216091   0.086   1.112   1.701
 5362TIP3    H116092   0.171   1.069   1.700
 5362TIP3    H216093   0.026   1.045   1.734
 5363TIP3   OH216094   2.143   4.964   2.818
 5363TIP3    H116095   2.058   4.926   2.838
 5363TIP3    H216096   2.156   4.946   2.725
 5364TIP3   OH216097   5.834   2.861   3.571
 5364TIP3    H116098   5.908   2.866   3.510
 5364TIP3    H216099   5.853   2.927   3.637
 5365TIP3   OH216100   2.849   5.761   4.045
 5365TIP3    H116101   2.809   5.825   3.986
 5365TIP3    H216102   2.838   5.798   4.132
 5366TIP3   OH216103   1.701   0.232   3.313
 5366TIP3    H116104   1.673   0.204   3.226
 5366TIP3    H216105   1.735   0.152   3.355
 5367TIP3   OH216106   3.079   1.160   2.974
 5367TIP3    H116107   3.025   1.164   2.895
 5367TIP3    H216108   3.054   1.238   3.024
 5368TIP3   OH216109   1.304   2.961   4.909
 5368TIP3    H116110   1.339   2.892   4.854
 5368TIP3    H216111   1.294   3.037   4.851
 5369TIP3   OH216112   2.371   0.325   2.502
 5369TIP3    H116113   2.299   0.270   2.471
 5369TIP3    H216114   2.417   0.352   2.423
 5370TIP3   OH216115   3.029   2.555   3.573
 5370TIP3    H116116   2.984   2.619   3.627
 5370TIP3    H216117   3.003   2.576   3.483
 5371TIP3   OH216118   0.131   0.387   3.708
 5371TIP3    H116119   0.052   0.338   3.731
 5371TIP3    H216120   0.162   0.347   3.627
 5372TIP3   OH216121   5.109   3.971   4.626
 5372TIP3    H116122   5.124   3.931   4.711
 5372TIP3    H216123   5.053   4.047   4.644
 5373TIP3   OH216124   1.041   0.380   4.050
 5373TIP3    H116125   1.056   0.441   3.978
 5373TIP3    H216126   0.961   0.333   4.025
 5374TIP3   OH216127   5.570   2.965   1.615
 5374TIP3    H116128   5.655   2.999   1.643
 5374TIP3    H216129   5.581   2.870   1.616
 5375TIP3   OH216130   3.092   3.268   1.609
 5375TIP3    H116131   3.007   3.311   1.612
 5375TIP3    H216132   3.073   3.176   1.626
 5376TIP3   OH216133   3.287   4.346   4.493
 5376TIP3    H116134   3.358   4.390   4.448
 5376TIP3    H216135   3.221   4.330   4.425
 5377TIP3   OH216136   4.082   5.430   1.606
 5377TIP3    H116137   4.045   5.353   1.562
 5377TIP3    H216138   4.176   5.411   1.611
 5378TIP3   OH216139   0.310   5.794   1.607
 5378TIP3    H116140   0.379   5.790   1.672
 5378TIP3    H216141   0.353   5.826   1.527
 5379TIP3   OH216142   4.942   4.737   2.351
 5379TIP3    H116143   4.892   4.699   2.424
 5379TIP3    H216144   4.982   4.661   2.308
 5380TIP3   OH216145   2.079   1.726   0.532
 5380TIP3    H116146   2.150   1.677   0.490
 5380TIP3    H216147   2.123   1.781   0.596
 5381TIP3   OH216148   5.600   2.364   1.147
 5381TIP3    H116149   5.548   2.369   1.066
 5381TIP3    H216150   5.635   2.453   1.157
 5382TIP3   OH216151   0.502   5.624   0.253
 5382TIP3    H116152   0.571   5.668   0.203
 5382TIP3    H216153   0.446   5.584   0.187
 5383TIP3   OH216154   1.758   0.780   4.341
 5383TIP3    H116155   1.691   0.761   4.275
 5383TIP3    H216156   1.709   0.810   4.417
 5384TIP3   OH216157   2.584   2.241   4.919
 5384TIP3    H116158   2.517   2.228   4.852
 5384TIP3    H216159   2.656   2.283   4.873
 5385TIP3   OH216160   1.477   4.703   1.940
 5385TIP3    H116161   1.568   4.722   1.918
 5385TIP3    H216162   1.426   4.745   1.870
 5386TIP3   OH216163   4.920   0.637   4.268
 5386TIP3    H116164   5.008   0.663   4.239
 5386TIP3    H216165   4.934   0.556   4.317
 5387TIP3   OH216166   1.110   1.259   3.525
 5387TIP3    H116167   1.015   1.266   3.522
 5387TIP3    H216168   1.132   1.260   3.618
 5388TIP3   OH216169   3.495   0.762   3.110
 5388TIP3    H116170   3.497   0.857   3.101
 5388TIP3    H216171   3.429   0.745   3.177
 5389TIP3   OH216172   4.706   1.120   0.568
 5389TIP3    H116173   4.680   1.042   0.617
 5389TIP3    H216174   4.627   1.174   0.566
 5390TIP3   OH216175   3.784   4.480   4.473
 5390TIP3    H116176   3.856   4.444   4.421
 5390TIP3    H216177   3.712   4.418   4.460
 5391TIP3   OH216178   3.122   2.703   4.609
 5391TIP3    H116179   3.197   2.762   4.601
 5391TIP3    H216180   3.072   2.716   4.529
 5392TIP3   OH216181   1.786   1.604   1.775
 5392TIP3    H116182   1.720   1.671   1.760
 5392TIP3    H216183   1.736   1.527   1.803
 5393TIP3   OH216184   3.607   4.358   3.630
 5393TIP3    H116185   3.584   4.268   3.606
 5393TIP3    H216186   3.687   4.350   3.681
 5394TIP3   OH216187   1.929   2.199   3.697
 5394TIP3    H116188   1.881   2.265   3.748
 5394TIP3    H216189   1.895   2.209   3.608
 5395TIP3   OH216190   6.122   3.707   1.772
 5395TIP3    H116191   6.174   3.629   1.754
 5395TIP3    H216192   6.077   3.725   1.689
 5396TIP3   OH216193   0.554   1.150   0.769
 5396TIP3    H116194   0.478   1.201   0.798
 5396TIP3    H216195   0.555   1.162   0.674
 5397TIP3   OH216196   4.273   3.229   2.166
 5397TIP3    H116197   4.192   3.213   2.213
 5397TIP3    H216198   4.342   3.196   2.224
 5398TIP3   OH216199   4.745   3.436   3.858
 5398TIP3    H116200   4.679   3.506   3.864
 5398TIP3    H216201   4.779   3.444   3.769
 5399TIP3   OH216202   6.017   5.584   3.503
 5399TIP3    H116203   5.932   5.592   3.547
 5399TIP3    H216204   6.075   5.640   3.554
 5400TIP3   OH216205   1.740   4.290   0.309
 5400TIP3    H116206   1.755   4.334   0.225
 5400TIP3    H216207   1.816   4.235   0.322
 5401TIP3   OH216208   5.002   3.452   3.935
 5401TIP3    H116209   5.054   3.529   3.915
 5401TIP3    H216210   4.916   3.470   3.897
 5402TIP3   OH216211   3.445   2.618   1.355
 5402TIP3    H116212   3.527   2.659   1.326
 5402TIP3    H216213   3.383   2.690   1.361
 5403TIP3   OH216214   4.349   4.020   3.691
 5403TIP3    H116215   4.300   3.954   3.739
 5403TIP3    H216216   4.325   4.103   3.732
 5404TIP3   OH216217   0.689   0.085   3.584
 5404TIP3    H116218   0.732   0.156   3.537
 5404TIP3    H216219   0.760   0.027   3.610
 5405TIP3   OH216220   6.072   3.087   0.846
 5405TIP3    H116221   6.146   3.148   0.847
 5405TIP3    H216222   6.079   3.039   0.928
 5406TIP3   OH216223   0.804   3.026   1.839
 5406TIP3    H116224   0.775   2.973   1.913
 5406TIP3    H216225   0.835   2.963   1.775
 5407TIP3   OH216226   4.211   3.026   4.656
 5407TIP3    H116227   4.283   3.028   4.719
 5407TIP3    H216228   4.233   3.093   4.592
 5408TIP3   OH216229   0.093   4.345   4.953
 5408TIP3    H116230   0.095   4.324   4.860
 5408TIP3    H216231   0.000   4.347   4.975
 5409TIP3   OH216232   3.210   2.936   1.627
 5409TIP3    H116233   3.227   2.844   1.605
 5409TIP3    H216234   3.115   2.939   1.642
 5410TIP3   OH216235   3.220   5.238   3.090
 5410TIP3    H116236   3.213   5.294   3.167
 5410TIP3    H216237   3.297   5.271   3.043
 5411TIP3   OH216238   1.908   2.942   0.969
 5411TIP3    H116239   1.847   3.003   0.927
 5411TIP3    H216240   1.868   2.856   0.958
 5412TIP3   OH216241   3.305   3.628   4.931
 5412TIP3    H116242   3.233   3.569   4.953
 5412TIP3    H216243   3.384   3.580   4.957
 5413TIP3   OH216244   3.560   4.454   3.982
 5413TIP3    H116245   3.559   4.362   3.955
 5413TIP3    H216246   3.653   4.474   3.994
 5414TIP3   OH216247   1.096   5.568   2.230
 5414TIP3    H116248   1.023   5.550   2.171
 5414TIP3    H216249   1.075   5.652   2.269
 5415TIP3   OH216250   0.369   3.084   2.408
 5415TIP3    H116251   0.286   3.046   2.377
 5415TIP3    H216252   0.345   3.132   2.487
 5416TIP3   OH216253   3.510   0.420   2.350
 5416TIP3    H116254   3.463   0.350   2.304
 5416TIP3    H216255   3.598   0.417   2.314
 5417TIP3   OH216256   6.323   2.001   1.064
 5417TIP3    H116257   6.280   2.033   0.984
 5417TIP3    H216258   6.250   1.976   1.121
 5418TIP3   OH216259   3.539   3.014   0.447
 5418TIP3    H116260   3.460   3.042   0.400
 5418TIP3    H216261   3.598   2.983   0.378
 5419TIP3   OH216262   3.986   0.530   3.548
 5419TIP3    H116263   3.992   0.450   3.495
 5419TIP3    H216264   4.051   0.517   3.617
 5420TIP3   OH216265   3.521   4.732   4.796
 5420TIP3    H116266   3.496   4.773   4.879
 5420TIP3    H216267   3.487   4.790   4.729
 5421TIP3   OH216268   3.025   4.415   0.323
 5421TIP3    H116269   2.961   4.344   0.317
 5421TIP3    H216270   3.039   4.428   0.417
 5422TIP3   OH216271   2.986   1.525   0.067
 5422TIP3    H116272   3.069   1.525   0.020
 5422TIP3    H216273   2.975   1.616   0.096
 5423TIP3   OH216274   3.011   5.822   0.102
 5423TIP3    H116275   2.929   5.794   0.062
 5423TIP3    H216276   2.991   5.908   0.140
 5424TIP3   OH216277   5.972   0.705   3.149
 5424TIP3    H116278   6.012   0.767   3.210
 5424TIP3    H216279   5.879   0.729   3.147
 5425TIP3   OH216280   3.565   0.965   2.718
 5425TIP3    H116281   3.590   0.879   2.752
 5425TIP3    H216282   3.644   0.996   2.674
 5426TIP3   OH216283   5.604   1.996   1.672
 5426TIP3    H116284   5.653   1.933   1.726
 5426TIP3    H216285   5.618   1.965   1.582
 5427TIP3   OH216286   0.175   2.173   0.259
 5427TIP3    H116287   0.161   2.091   0.306
 5427TIP3    H216288   0.244   2.153   0.196
 5428TIP3   OH216289   2.045   5.752   1.712
 5428TIP3    H116290   2.126   5.803   1.710
 5428TIP3    H216291   2.031   5.725   1.621
 5429TIP3   OH216292   5.655   3.003   0.413
 5429TIP3    H116293   5.686   2.950   0.486
 5429TIP3    H216294   5.675   3.093   0.437
 5430TIP3   OH216295   1.059   1.121   2.428
 5430TIP3    H116296   1.075   1.049   2.367
 5430TIP3    H216297   1.048   1.078   2.513
 5431TIP3   OH216298   3.228   2.086   1.950
 5431TIP3    H116299   3.135   2.069   1.933
 5431TIP3    H216300   3.263   2.114   1.866
 5432TIP3   OH216301   4.809   2.834   3.404
 5432TIP3    H116302   4.794   2.928   3.417
 5432TIP3    H216303   4.726   2.793   3.429
 5433TIP3   OH216304   2.323   1.127   3.632
 5433TIP3    H116305   2.356   1.217   3.637
 5433TIP3    H216306   2.400   1.072   3.648
 5434TIP3   OH216307   0.011   3.047   3.175
 5434TIP3    H116308   0.018   3.033   3.269
 5434TIP3    H216309   0.074   2.986   3.136
 5435TIP3   OH216310   5.865   5.356   4.261
 5435TIP3    H116311   5.860   5.294   4.334
 5435TIP3    H216312   5.912   5.431   4.297
 5436TIP3   OH216313   5.868   0.410   2.134
 5436TIP3    H116314   5.774   0.424   2.143
 5436TIP3    H216315   5.904   0.429   2.221
 5437TIP3   OH216316   1.898   3.323   2.988
 5437TIP3    H116317   1.834   3.382   3.027
 5437TIP3    H216318   1.979   3.374   2.984
 5438TIP3   OH216319   0.103   5.549   3.793
 5438TIP3    H116320   0.035   5.487   3.768
 5438TIP3    H216321   0.056   5.622   3.834
 5439TIP3   OH216322   3.782   3.939   0.469
 5439TIP3    H116323   3.844   3.951   0.541
 5439TIP3    H216324   3.775   3.844   0.461
 5440TIP3   OH216325   2.187   2.493   0.061
 5440TIP3    H116326   2.143   2.573   0.031
 5440TIP3    H216327   2.190   2.503   0.156
 5441TIP3   OH216328   3.283   1.276   2.842
 5441TIP3    H116329   3.219   1.225   2.890
 5441TIP3    H216330   3.266   1.367   2.867
 5442TIP3   OH216331   2.371   5.764   2.702
 5442TIP3    H116332   2.442   5.742   2.761
 5442TIP3    H216333   2.362   5.688   2.644
 5443TIP3   OH216334   2.915   4.078   3.624
 5443TIP3    H116335   2.967   4.081   3.544
 5443TIP3    H216336   2.826   4.099   3.596
 5444TIP3   OH216337   3.492   4.471   4.745
 5444TIP3    H116338   3.524   4.556   4.776
 5444TIP3    H216339   3.410   4.491   4.701
 5445TIP3   OH216340   6.043   2.040   3.804
 5445TIP3    H116341   6.024   2.079   3.890
 5445TIP3    H216342   5.968   1.983   3.786
 5446TIP3   OH216343   1.227   0.002   4.827
 5446TIP3    H116344   1.195   0.092   4.840
 5446TIP3    H216345   1.168  -0.051   4.880
 5447TIP3   OH216346   3.422   0.269   2.121
 5447TIP3    H116347   3.473   0.201   2.164
 5447TIP3    H216348   3.350   0.223   2.080
 5448TIP3   OH216349   3.348   2.707   3.791
 5448TIP3    H116350   3.305   2.626   3.761
 5448TIP3    H216351   3.400   2.680   3.866
 5449TIP3   OH216352   5.595   4.921   4.246
 5449TIP3    H116353   5.648   4.926   4.325
 5449TIP3    H216354   5.657   4.900   4.177
 5450TIP3   OH216355   4.309   3.312   4.078
 5450TIP3    H116356   4.295   3.225   4.116
 5450TIP3    H216357   4.373   3.297   4.009
 5451TIP3   OH216358   4.714   3.672   4.553
 5451TIP3    H116359   4.804   3.685   4.523
 5451TIP3    H216360   4.699   3.578   4.542
 5452TIP3   OH216361   4.630   2.298   3.233
 5452TIP3    H116362   4.712   2.337   3.202
 5452TIP3    H216363   4.646   2.204   3.232
 5453TIP3   OH216364   1.733   0.474   1.168
 5453TIP3    H116365   1.761   0.403   1.109
 5453TIP3    H216366   1.772   0.451   1.252
 5454TIP3   OH216367   4.172   1.521   1.296
 5454TIP3    H116368   4.150   1.514   1.389
 5454TIP3    H216369   4.143   1.437   1.258
 5455TIP3   OH216370   1.091   5.457   4.457
 5455TIP3    H116371   1.055   5.533   4.502
 5455TIP3    H216372   1.165   5.492   4.407
 5456TIP3   OH216373   1.680   0.441   2.133
 5456TIP3    H116374   1.761   0.416   2.178
 5456TIP3    H216375   1.677   0.536   2.142
 5457TIP3   OH216376   3.484   1.303   2.334
 5457TIP3    H116377   3.436   1.243   2.277
 5457TIP3    H216378   3.568   1.259   2.349
 5458TIP3   OH216379   0.700   4.196   0.372
 5458TIP3    H116380   0.768   4.263   0.363
 5458TIP3    H216381   0.619   4.247   0.384
 5459TIP3   OH216382   0.305   5.530   2.096
 5459TIP3    H116383   0.324   5.603   2.155
 5459TIP3    H216384   0.211   5.515   2.106
 5460TIP3   OH216385   2.539   1.120   4.110
 5460TIP3    H116386   2.517   1.040   4.157
 5460TIP3    H216387   2.556   1.185   4.179
 5461TIP3   OH216388   5.823   4.728   1.277
 5461TIP3    H116389   5.882   4.779   1.332
 5461TIP3    H216390   5.833   4.638   1.307
 5462TIP3   OH216391   2.929   3.072   0.923
 5462TIP3    H116392   2.861   3.033   0.868
 5462TIP3    H216393   2.900   3.055   1.013
 5463TIP3   OH216394   2.431   0.513   3.698
 5463TIP3    H116395   2.440   0.455   3.622
 5463TIP3    H216396   2.351   0.563   3.680
 5464TIP3   OH216397   2.370   3.247   4.299
 5464TIP3    H116398   2.405   3.254   4.388
 5464TIP3    H216399   2.420   3.311   4.248
 5465TIP3   OH216400   3.966   5.035   4.509
 5465TIP3    H116401   4.015   4.954   4.494
 5465TIP3    H216402   4.010   5.076   4.584
 5466TIP3   OH216403   0.533   2.836   3.558
 5466TIP3    H116404   0.492   2.750   3.559
 5466TIP3    H216405   0.596   2.832   3.487
 5467TIP3   OH216406   0.869   2.076   3.472
 5467TIP3    H116407   0.890   1.987   3.500
 5467TIP3    H216408   0.778   2.071   3.443
 5468TIP3   OH216409   2.629   5.509   4.374
 5468TIP3    H116410   2.646   5.440   4.439
 5468TIP3    H216411   2.608   5.462   4.294
 5469TIP3   OH216412   6.047   2.461   4.762
 5469TIP3    H116413   6.120   2.410   4.796
 5469TIP3    H216414   6.075   2.552   4.769
 5470TIP3   OH216415   6.003   3.006   0.584
 5470TIP3    H116416   6.051   3.041   0.659
 5470TIP3    H216417   5.970   3.083   0.538
 5471TIP3   OH216418   5.137   1.538   1.477
 5471TIP3    H116419   5.142   1.530   1.382
 5471TIP3    H216420   5.227   1.526   1.508
 5472TIP3   OH216421   4.655   6.013   4.075
 5472TIP3    H116422   4.631   5.923   4.054
 5472TIP3    H216423   4.750   6.016   4.065
 5473TIP3   OH216424   2.847   2.979   3.162
 5473TIP3    H116425   2.891   3.036   3.099
 5473TIP3    H216426   2.804   3.039   3.223
 5474TIP3   OH216427   0.445   5.857   3.185
 5474TIP3    H116428   0.430   5.920   3.114
 5474TIP3    H216429   0.476   5.910   3.258
 5475TIP3   OH216430   5.351   1.380   4.159
 5475TIP3    H116431   5.417   1.393   4.227
 5475TIP3    H216432   5.329   1.469   4.130
 5476TIP3   OH216433   2.923   2.799   2.594
 5476TIP3    H116434   3.002   2.749   2.614
 5476TIP3    H216435   2.945   2.848   2.515
 5477TIP3   OH216436   5.277   4.232   0.163
 5477TIP3    H116437   5.248   4.323   0.155
 5477TIP3    H216438   5.299   4.206   0.074
 5478TIP3   OH216439   0.078   2.469   4.566
 5478TIP3    H116440   0.023   2.547   4.556
 5478TIP3    H216441   0.050   2.411   4.495
 5479TIP3   OH216442   4.966   3.725   0.994
 5479TIP3    H116443   4.925   3.810   0.977
 5479TIP3    H216444   4.934   3.701   1.081
 5480TIP3   OH216445   2.744   3.003   5.048
 5480TIP3    H116446   2.705   3.020   4.962
 5480TIP3    H216447   2.838   3.016   5.034
 5481TIP3   OH216448   4.093   3.597   4.515
 5481TIP3    H116449   4.140   3.554   4.443
 5481TIP3    H216450   4.141   3.679   4.529
 5482TIP3   OH216451   4.105   1.723   4.509
 5482TIP3    H116452   4.175   1.734   4.444
 5482TIP3    H216453   4.050   1.653   4.472
 5483TIP3   OH216454   1.364   0.663   4.880
 5483TIP3    H116455   1.306   0.711   4.940
 5483TIP3    H216456   1.309   0.595   4.842
 5484TIP3   OH216457   4.561   2.477   1.149
 5484TIP3    H116458   4.530   2.457   1.060
 5484TIP3    H216459   4.651   2.505   1.136
 5485TIP3   OH216460   6.065   5.022   2.957
 5485TIP3    H116461   6.067   5.109   2.917
 5485TIP3    H216462   5.984   4.982   2.925
 5486TIP3   OH216463   0.039   3.180   4.723
 5486TIP3    H116464   0.034   3.240   4.798
 5486TIP3    H216465  -0.052   3.164   4.699
 5487TIP3   OH216466   4.415   4.464   2.309
 5487TIP3    H116467   4.322   4.443   2.317
 5487TIP3    H216468   4.417   4.556   2.283
 5488TIP3   OH216469   2.476   2.865   1.840
 5488TIP3    H116470   2.398   2.920   1.833
 5488TIP3    H216471   2.456   2.789   1.785
 5489TIP3   OH216472   3.258   0.806   3.328
 5489TIP3    H116473   3.242   0.872   3.261
 5489TIP3    H216474   3.329   0.843   3.381
 5490TIP3   OH216475   5.509   5.906   1.412
 5490TIP3    H116476   5.568   5.837   1.443
 5490TIP3    H216477   5.507   5.895   1.317
 5491TIP3   OH216478   4.906   0.043   0.120
 5491TIP3    H116479   4.857   0.029   0.039
 5491TIP3    H216480   4.945   0.129   0.110
 5492TIP3   OH216481   3.231   3.410   4.325
 5492TIP3    H116482   3.313   3.444   4.289
 5492TIP3    H216483   3.229   3.318   4.297
 5493TIP3   OH216484   3.149   3.353   1.234
 5493TIP3    H116485   3.102   3.323   1.157
 5493TIP3    H216486   3.092   3.420   1.273
 5494TIP3   OH216487   6.317   4.802   2.079
 5494TIP3    H116488   6.383   4.798   2.011
 5494TIP3    H216489   6.243   4.847   2.039
 5495TIP3   OH216490   1.258   4.463   2.611
 5495TIP3    H116491   1.293   4.544   2.646
 5495TIP3    H216492   1.309   4.394   2.654
 5496TIP3   OH216493   0.065   5.238   1.192
 5496TIP3    H116494   0.033   5.217   1.104
 5496TIP3    H216495   0.148   5.283   1.177
 5497TIP3   OH216496   0.096   5.028   1.372
 5497TIP3    H116497   0.178   4.985   1.348
 5497TIP3    H216498   0.097   5.110   1.323
 5498TIP3   OH216499   5.155   4.532   3.198
 5498TIP3    H116500   5.193   4.445   3.213
 5498TIP3    H216501   5.166   4.548   3.105
 5499TIP3   OH216502   3.791   2.980   2.527
 5499TIP3    H116503   3.718   3.042   2.518
 5499TIP3    H216504   3.750   2.897   2.549
 5500TIP3   OH216505   3.529   2.010   1.898
 5500TIP3    H116506   3.513   2.098   1.866
 5500TIP3    H216507   3.607   1.981   1.851
 5501TIP3   OH216508   4.804   4.877   3.177
 5501TIP3    H116509   4.881   4.821   3.170
 5501TIP3    H216510   4.730   4.816   3.182
 5502TIP3   OH216511   4.017   2.530   0.047
 5502TIP3    H116512   4.077   2.605   0.048
 5502TIP3    H216513   4.071   2.458   0.016
 5503TIP3   OH216514   3.137   3.669   4.406
 5503TIP3    H116515   3.166   3.585   4.369
 5503TIP3    H216516   3.184   3.675   4.489
 5504TIP3   OH216517   5.429   2.435   0.304
 5504TIP3    H116518   5.355   2.426   0.244
 5504TIP3    H216519   5.411   2.516   0.352
 5505TIP3   OH216520   0.943   2.862   3.055
 5505TIP3    H116521   0.856   2.896   3.075
 5505TIP3    H216522   0.941   2.771   3.086
 5506TIP3   OH216523   1.031   1.838   4.416
 5506TIP3    H116524   1.125   1.825   4.418
 5506TIP3    H216525   0.995   1.750   4.405
 5507TIP3   OH216526   4.382   5.665   3.862
 5507TIP3    H116527   4.312   5.633   3.920
 5507TIP3    H216528   4.358   5.633   3.775
 5508TIP3   OH216529   5.932   1.603   0.529
 5508TIP3    H116530   6.023   1.614   0.559
 5508TIP3    H216531   5.919   1.675   0.467
 5509TIP3   OH216532   3.946   3.231   3.389
 5509TIP3    H116533   3.944   3.263   3.479
 5509TIP3    H216534   3.905   3.144   3.394
 5510TIP3   OH216535   2.986   3.709   5.164
 5510TIP3    H116536   2.959   3.800   5.153
 5510TIP3    H216537   3.065   3.713   5.219
 5511TIP3   OH216538   5.271   4.956   3.135
 5511TIP3    H116539   5.262   5.018   3.208
 5511TIP3    H216540   5.340   4.994   3.080
 5512TIP3   OH216541   0.250   4.715   3.826
 5512TIP3    H116542   0.284   4.804   3.818
 5512TIP3    H216543   0.315   4.661   3.780
 5513TIP3   OH216544   0.575   3.413   3.933
 5513TIP3    H116545   0.622   3.344   3.886
 5513TIP3    H216546   0.551   3.372   4.017
 5514TIP3   OH216547   4.600   3.580   3.050
 5514TIP3    H116548   4.695   3.581   3.051
 5514TIP3    H216549   4.575   3.627   3.130
 5515TIP3   OH216550   0.554   4.609   2.347
 5515TIP3    H116551   0.480   4.564   2.308
 5515TIP3    H216552   0.631   4.559   2.319
 5516TIP3   OH216553   4.120   2.264   3.098
 5516TIP3    H116554   4.109   2.174   3.069
 5516TIP3    H216555   4.213   2.271   3.120
 5517TIP3   OH216556   2.986   0.699   3.184
 5517TIP3    H116557   3.000   0.713   3.278
 5517TIP3    H216558   3.020   0.778   3.143
 5518TIP3   OH216559   0.379   1.497   4.405
 5518TIP3    H116560   0.462   1.471   4.365
 5518TIP3    H216561   0.404   1.561   4.472
 5519TIP3   OH216562   6.277   3.590   5.012
 5519TIP3    H116563   6.267   3.505   5.055
 5519TIP3    H216564   6.256   3.573   4.920
 5520TIP3   OH216565   5.485   5.294   1.177
 5520TIP3    H116566   5.443   5.380   1.181
 5520TIP3    H216567   5.444   5.251   1.102
 5521TIP3   OH216568   4.293   1.781   2.607
 5521TIP3    H116569   4.219   1.722   2.623
 5521TIP3    H216570   4.263   1.866   2.638
 5522TIP3   OH216571   6.232   1.756   1.670
 5522TIP3    H116572   6.313   1.807   1.661
 5522TIP3    H216573   6.195   1.785   1.753
 5523TIP3   OH216574   5.836   4.166   5.120
 5523TIP3    H116575   5.872   4.113   5.048
 5523TIP3    H216576   5.871   4.125   5.199
 5524TIP3   OH216577   1.305   2.151   3.521
 5524TIP3    H116578   1.371   2.130   3.587
 5524TIP3    H216579   1.253   2.071   3.512
 5525TIP3   OH216580   2.376   0.158   0.626
 5525TIP3    H116581   2.292   0.113   0.614
 5525TIP3    H216582   2.376   0.228   0.561
 5526TIP3   OH216583   4.655   5.829   4.872
 5526TIP3    H116584   4.670   5.861   4.783
 5526TIP3    H216585   4.734   5.852   4.920
 5527TIP3   OH216586   2.296   5.341   2.173
 5527TIP3    H116587   2.264   5.428   2.194
 5527TIP3    H216588   2.220   5.284   2.186
 5528TIP3   OH216589   2.868   4.790   3.264
 5528TIP3    H116590   2.779   4.824   3.266
 5528TIP3    H216591   2.902   4.807   3.352
 5529TIP3   OH216592   2.879   2.627   4.790
 5529TIP3    H116593   2.954   2.685   4.798
 5529TIP3    H216594   2.830   2.662   4.715
 5530TIP3   OH216595   2.701   3.099   0.343
 5530TIP3    H116596   2.739   3.077   0.428
 5530TIP3    H216597   2.634   3.165   0.362
 5531TIP3   OH216598   2.760   0.209   0.408
 5531TIP3    H116599   2.734   0.124   0.373
 5531TIP3    H216600   2.831   0.238   0.351
 5532TIP3   OH216601   0.827   0.405   0.497
 5532TIP3    H116602   0.774   0.475   0.535
 5532TIP3    H216603   0.773   0.368   0.427
 5533TIP3   OH216604   0.510   1.102   4.233
 5533TIP3    H116605   0.571   1.034   4.205
 5533TIP3    H216606   0.454   1.118   4.157
 5534TIP3   OH216607   3.705   5.577   3.793
 5534TIP3    H116608   3.617   5.593   3.829
 5534TIP3    H216609   3.710   5.482   3.784
 5535TIP3   OH216610   1.911   3.545   1.448
 5535TIP3    H116611   1.871   3.615   1.396
 5535TIP3    H216612   1.837   3.498   1.485
 5536TIP3   OH216613   3.360   3.909   3.160
 5536TIP3    H116614   3.400   3.864   3.234
 5536TIP3    H216615   3.297   3.846   3.125
 5537TIP3   OH216616   3.264   5.623   2.924
 5537TIP3    H116617   3.192   5.563   2.944
 5537TIP3    H216618   3.305   5.587   2.845
 5538TIP3   OH216619   3.333   3.637   3.248
 5538TIP3    H116620   3.261   3.695   3.273
 5538TIP3    H216621   3.290   3.562   3.206
 5539TIP3   OH216622   6.158   2.349   2.281
 5539TIP3    H116623   6.125   2.276   2.229
 5539TIP3    H216624   6.082   2.406   2.292
 5540TIP3   OH216625   0.634   3.638   1.777
 5540TIP3    H116626   0.557   3.692   1.794
 5540TIP3    H216627   0.603   3.568   1.719
 5541TIP3   OH216628   3.790   3.681   4.786
 5541TIP3    H116629   3.802   3.593   4.752
 5541TIP3    H216630   3.817   3.738   4.714
 5542TIP3   OH216631   1.279   1.497   3.118
 5542TIP3    H116632   1.249   1.524   3.206
 5542TIP3    H216633   1.214   1.535   3.059
 5543TIP3   OH216634   1.124   5.922   0.828
 5543TIP3    H116635   1.185   5.917   0.901
 5543TIP3    H216636   1.052   5.977   0.860
 5544TIP3   OH216637   0.830   5.927   2.550
 5544TIP3    H116638   0.747   5.901   2.510
 5544TIP3    H216639   0.844   5.863   2.620
 5545TIP3   OH216640   4.201   3.816   1.032
 5545TIP3    H116641   4.163   3.902   1.018
 5545TIP3    H216642   4.171   3.764   0.957
 5546TIP3   OH216643   5.151   3.631   3.613
 5546TIP3    H116644   5.246   3.627   3.629
 5546TIP3    H216645   5.116   3.675   3.691
 5547TIP3   OH216646   0.864   5.116   0.721
 5547TIP3    H116647   0.790   5.133   0.780
 5547TIP3    H216648   0.937   5.094   0.779
 5548TIP3   OH216649   5.709   0.739   3.177
 5548TIP3    H116650   5.668   0.822   3.198
 5548TIP3    H216651   5.638   0.675   3.181
 5549TIP3   OH216652   1.376   5.687   5.089
 5549TIP3    H116653   1.397   5.640   5.170
 5549TIP3    H216654   1.319   5.759   5.117
 5550TIP3   OH216655   0.389   3.325   0.472
 5550TIP3    H116656   0.373   3.289   0.384
 5550TIP3    H216657   0.428   3.411   0.456
 5551TIP3   OH216658   3.516   1.533   4.737
 5551TIP3    H116659   3.597   1.482   4.740
 5551TIP3    H216660   3.531   1.606   4.797
 5552TIP3   OH216661   3.873   2.742   3.381
 5552TIP3    H116662   3.849   2.834   3.368
 5552TIP3    H216663   3.881   2.707   3.292
 5553TIP3   OH216664   2.936   4.061   2.337
 5553TIP3    H116665   2.956   4.065   2.431
 5553TIP3    H216666   2.989   4.131   2.299
 5554TIP3   OH216667   5.543   3.139   3.473
 5554TIP3    H116668   5.457   3.133   3.515
 5554TIP3    H216669   5.530   3.098   3.387
 5555TIP3   OH216670   1.284   5.480   0.320
 5555TIP3    H116671   1.324   5.394   0.338
 5555TIP3    H216672   1.280   5.523   0.405
 5556TIP3   OH216673   4.838   2.802   1.358
 5556TIP3    H116674   4.747   2.788   1.383
 5556TIP3    H216675   4.864   2.721   1.315
 5557TIP3   OH216676   4.560   5.009   2.490
 5557TIP3    H116677   4.511   5.027   2.570
 5557TIP3    H216678   4.651   5.032   2.512
 5558TIP3   OH216679   3.413   4.220   1.963
 5558TIP3    H116680   3.432   4.291   1.902
 5558TIP3    H216681   3.498   4.198   2.002
 5559TIP3   OH216682   2.108   0.425   4.831
 5559TIP3    H116683   2.034   0.480   4.858
 5559TIP3    H216684   2.078   0.335   4.845
 5560TIP3   OH216685   5.327   0.243   1.953
 5560TIP3    H116686   5.342   0.153   1.981
 5560TIP3    H216687   5.248   0.270   2.000
 5561TIP3   OH216688   4.123   1.351   4.727
 5561TIP3    H116689   4.083   1.418   4.672
 5561TIP3    H216690   4.052   1.289   4.744
 5562TIP3   OH216691   2.800   0.208   1.718
 5562TIP3    H116692   2.714   0.166   1.714
 5562TIP3    H216693   2.782   0.295   1.753
 5563TIP3   OH216694   3.808   2.199   0.878
 5563TIP3    H116695   3.835   2.278   0.831
 5563TIP3    H216696   3.724   2.176   0.839
 5564TIP3   OH216697   6.019   1.181   4.936
 5564TIP3    H116698   6.038   1.204   5.027
 5564TIP3    H216699   6.034   1.086   4.932
 5565TIP3   OH216700   2.181   1.179   1.480
 5565TIP3    H116701   2.099   1.138   1.451
 5565TIP3    H216702   2.236   1.106   1.508
 5566TIP3   OH216703   2.388   0.856   3.436
 5566TIP3    H116704   2.470   0.854   3.486
 5566TIP3    H216705   2.405   0.798   3.361
 5567TIP3   OH216706   3.876   2.467   4.365
 5567TIP3    H116707   3.884   2.380   4.405
 5567TIP3    H216708   3.824   2.518   4.428
 5568TIP3   OH216709   2.878   2.306   3.276
 5568TIP3    H116710   2.803   2.329   3.331
 5568TIP3    H216711   2.932   2.248   3.330
 5569TIP3   OH216712   4.974   2.424   4.635
 5569TIP3    H116713   5.017   2.340   4.627
 5569TIP3    H216714   4.881   2.403   4.648
 5570TIP3   OH216715   3.372   4.071   1.045
 5570TIP3    H116716   3.434   4.076   0.972
 5570TIP3    H216717   3.303   4.013   1.013
 5571TIP3   OH216718   2.685   4.328   4.251
 5571TIP3    H116719   2.640   4.407   4.221
 5571TIP3    H216720   2.652   4.314   4.340
 5572TIP3   OH216721   0.401   1.196   5.149
 5572TIP3    H116722   0.472   1.233   5.096
 5572TIP3    H216723   0.356   1.135   5.090
 5573TIP3   OH216724   3.420   3.434   2.153
 5573TIP3    H116725   3.485   3.455   2.221
 5573TIP3    H216726   3.420   3.511   2.095
 5574TIP3   OH216727   2.353   2.920   0.246
 5574TIP3    H116728   2.316   3.009   0.247
 5574TIP3    H216729   2.315   2.879   0.169
 5575TIP3   OH216730   2.987   1.590   2.353
 5575TIP3    H116731   3.026   1.570   2.267
 5575TIP3    H216732   3.060   1.581   2.415
 5576TIP3   OH216733   0.521   4.277   3.194
 5576TIP3    H116734   0.610   4.296   3.164
 5576TIP3    H216735   0.488   4.360   3.228
 5577TIP3   OH216736   2.269   5.683   0.690
 5577TIP3    H116737   2.248   5.767   0.650
 5577TIP3    H216738   2.184   5.640   0.700
 5578TIP3   OH216739   5.585   1.436   1.056
 5578TIP3    H116740   5.657   1.410   1.113
 5578TIP3    H216741   5.575   1.364   0.994
 5579TIP3   OH216742   2.720   1.568   2.293
 5579TIP3    H116743   2.804   1.581   2.337
 5579TIP3    H216744   2.664   1.636   2.328
 5580TIP3   OH216745   4.278   0.673   1.435
 5580TIP3    H116746   4.256   0.613   1.506
 5580TIP3    H216747   4.357   0.718   1.466
 5581TIP3   OH216748   4.506   5.248   1.467
 5581TIP3    H116749   4.569   5.177   1.465
 5581TIP3    H216750   4.498   5.277   1.376
 5582TIP3   OH216751   1.161   4.771   1.858
 5582TIP3    H116752   1.156   4.852   1.909
 5582TIP3    H216753   1.242   4.779   1.808
 5583TIP3   OH216754   4.278   5.350   0.218
 5583TIP3    H116755   4.264   5.263   0.254
 5583TIP3    H216756   4.368   5.372   0.243
 5584TIP3   OH216757   6.014   2.068   4.306
 5584TIP3    H116758   6.057   2.071   4.391
 5584TIP3    H216759   5.945   2.003   4.316
 5585TIP3   OH216760   2.973   4.545   0.097
 5585TIP3    H116761   3.001   4.504   0.179
 5585TIP3    H216762   2.915   4.616   0.125
 5586TIP3   OH216763   5.566   4.634   4.099
 5586TIP3    H116764   5.558   4.717   4.146
 5586TIP3    H216765   5.658   4.609   4.111
 5587TIP3   OH216766   5.268   5.121   1.580
 5587TIP3    H116767   5.230   5.064   1.513
 5587TIP3    H216768   5.195   5.140   1.639
 5588TIP3   OH216769   5.860   2.304   1.032
 5588TIP3    H116770   5.867   2.316   1.127
 5588TIP3    H216771   5.771   2.333   1.011
 5589TIP3   OH216772   2.819   1.401   2.030
 5589TIP3    H116773   2.832   1.490   2.063
 5589TIP3    H216774   2.760   1.361   2.093
 5590TIP3   OH216775   1.094   4.292   0.508
 5590TIP3    H116776   1.036   4.325   0.440
 5590TIP3    H216777   1.147   4.225   0.464
 5591TIP3   OH216778   4.916   0.114   1.621
 5591TIP3    H116779   4.913   0.185   1.685
 5591TIP3    H216780   4.899   0.035   1.672
 5592TIP3   OH216781   1.992   4.733   3.625
 5592TIP3    H116782   2.069   4.734   3.681
 5592TIP3    H216783   1.920   4.761   3.682
 5593TIP3   OH216784   4.731   2.196   0.214
 5593TIP3    H116785   4.720   2.237   0.300
 5593TIP3    H216786   4.707   2.264   0.152
 5594TIP3   OH216787   2.437   3.892   3.907
 5594TIP3    H116788   2.449   3.817   3.966
 5594TIP3    H216789   2.487   3.963   3.948
 5595TIP3   OH216790   3.552   3.797   2.201
 5595TIP3    H116791   3.543   3.743   2.123
 5595TIP3    H216792   3.590   3.879   2.170
 5596TIP3   OH216793   4.295   0.572   3.417
 5596TIP3    H116794   4.286   0.620   3.499
 5596TIP3    H216795   4.233   0.613   3.358
 5597TIP3   OH216796   0.428   1.975   0.136
 5597TIP3    H116797   0.469   1.889   0.137
 5597TIP3    H216798   0.411   1.991   0.043
 5598TIP3   OH216799   2.041   0.645   2.982
 5598TIP3    H116800   2.037   0.730   3.026
 5598TIP3    H216801   2.016   0.663   2.891
 5599TIP3   OH216802   4.977   2.678   4.842
 5599TIP3    H116803   4.951   2.613   4.778
 5599TIP3    H216804   5.058   2.644   4.879
 5600TIP3   OH216805   4.795   3.186   0.946
 5600TIP3    H116806   4.721   3.142   0.989
 5600TIP3    H216807   4.799   3.272   0.987
 5601TIP3   OH216808   0.724   2.238   1.932
 5601TIP3    H116809   0.718   2.277   2.019
 5601TIP3    H216810   0.662   2.165   1.934
 5602TIP3   OH216811   1.917   3.056   0.371
 5602TIP3    H116812   1.985   3.076   0.436
 5602TIP3    H216813   1.964   3.012   0.300
 5603TIP3   OH216814   2.536   0.185   4.111
 5603TIP3    H116815   2.564   0.259   4.165
 5603TIP3    H216816   2.553   0.212   4.021
 5604TIP3   OH216817   0.202   4.461   3.953
 5604TIP3    H116818   0.199   4.406   3.874
 5604TIP3    H216819   0.193   4.550   3.920
 5605TIP3   OH216820   5.707   1.314   3.249
 5605TIP3    H116821   5.618   1.280   3.242
 5605TIP3    H216822   5.735   1.326   3.159
 5606TIP3   OH216823   2.213   2.277   2.755
 5606TIP3    H116824   2.276   2.261   2.826
 5606TIP3    H216825   2.137   2.225   2.779
 5607TIP3   OH216826   1.266   0.877   0.304
 5607TIP3    H116827   1.355   0.876   0.338
 5607TIP3    H216828   1.248   0.970   0.289
 5608TIP3   OH216829   5.019   3.541   2.625
 5608TIP3    H116830   5.092   3.565   2.568
 5608TIP3    H216831   4.950   3.511   2.566
 5609TIP3   OH216832   3.336   5.312   3.827
 5609TIP3    H116833   3.261   5.300   3.886
 5609TIP3    H216834   3.395   5.371   3.875
 5610TIP3   OH216835   5.859   1.918   0.148
 5610TIP3    H116836   5.813   1.951   0.071
 5610TIP3    H216837   5.948   1.951   0.139
 5611TIP3   OH216838   2.889   1.511   2.690
 5611TIP3    H116839   2.965   1.563   2.664
 5611TIP3    H216840   2.872   1.455   2.614
 5612TIP3   OH216841   4.757   2.964   2.580
 5612TIP3    H116842   4.731   2.904   2.510
 5612TIP3    H216843   4.693   3.035   2.575
 5613TIP3   OH216844   0.611   1.481   1.624
 5613TIP3    H116845   0.586   1.392   1.602
 5613TIP3    H216846   0.706   1.479   1.631
 5614TIP3   OH216847   0.558   4.044   0.183
 5614TIP3    H116848   0.589   3.956   0.204
 5614TIP3    H216849   0.616   4.102   0.231
 5615TIP3   OH216850   5.637   4.759   1.074
 5615TIP3    H116851   5.613   4.675   1.035
 5615TIP3    H216852   5.696   4.737   1.146
 5616TIP3   OH216853   4.128   0.754   2.483
 5616TIP3    H116854   4.050   0.809   2.472
 5616TIP3    H216855   4.164   0.781   2.568
 5617TIP3   OH216856   4.649   1.385   0.121
 5617TIP3    H116857   4.709   1.318   0.088
 5617TIP3    H216858   4.593   1.406   0.046
 5618TIP3   OH216859   5.624   1.913   0.002
 5618TIP3    H116860   5.607   2.005   0.019
 5618TIP3    H216861   5.543   1.868   0.028
 5619TIP3   OH216862   2.884   3.735   4.064
 5619TIP3    H116863   2.956   3.719   4.125
 5619TIP3    H216864   2.845   3.817   4.094
 5620TIP3   OH216865   0.133   5.457   0.855
 5620TIP3    H116866   0.064   5.412   0.806
 5620TIP3    H216867   0.092   5.538   0.885
 5621TIP3   OH216868   4.961   2.489   1.313
 5621TIP3    H116869   4.886   2.440   1.349
 5621TIP3    H216870   5.038   2.448   1.352
 5622TIP3   OH216871   2.675   3.035   0.815
 5622TIP3    H116872   2.628   3.046   0.897
 5622TIP3    H216873   2.651   3.112   0.763
 5623TIP3   OH216874   1.711   2.000   3.408
 5623TIP3    H116875   1.651   1.965   3.343
 5623TIP3    H216876   1.761   1.924   3.438
 5624TIP3   OH216877   1.179   4.086   3.027
 5624TIP3    H116878   1.188   4.017   2.961
 5624TIP3    H216879   1.269   4.110   3.049
 5625TIP3   OH216880   3.473   4.280   4.993
 5625TIP3    H116881   3.504   4.281   5.083
 5625TIP3    H216882   3.383   4.247   4.999
 5626TIP3   OH216883   2.035   0.882   3.121
 5626TIP3    H116884   1.985   0.953   3.080
 5626TIP3    H216885   2.047   0.912   3.212
 5627TIP3   OH216886   3.048   5.473   2.987
 5627TIP3    H116887   3.064   5.383   3.015
 5627TIP3    H216888   2.962   5.494   3.023
 5628TIP3   OH216889   0.511   4.079   1.815
 5628TIP3    H116890   0.494   4.020   1.889
 5628TIP3    H216891   0.597   4.053   1.783
 5629TIP3   OH216892   3.466   5.477   2.356
 5629TIP3    H116893   3.501   5.538   2.291
 5629TIP3    H216894   3.431   5.533   2.425
 5630TIP3   OH216895   2.324   3.074   4.762
 5630TIP3    H116896   2.332   3.038   4.850
 5630TIP3    H216897   2.234   3.055   4.735
 5631TIP3   OH216898   4.994   0.614   4.930
 5631TIP3    H116899   5.012   0.649   4.843
 5631TIP3    H216900   4.927   0.672   4.966
 5632TIP3   OH216901   1.625   5.771   1.401
 5632TIP3    H116902   1.637   5.676   1.399
 5632TIP3    H216903   1.694   5.802   1.460
 5633TIP3   OH216904   0.724   0.917   4.073
 5633TIP3    H116905   0.815   0.944   4.081
 5633TIP3    H216906   0.708   0.918   3.978
 5634TIP3   OH216907   0.343   3.705   1.827
 5634TIP3    H116908   0.355   3.618   1.865
 5634TIP3    H216909   0.266   3.696   1.770
 5635TIP3   OH216910   1.857   5.549   1.810
 5635TIP3    H116911   1.908   5.629   1.798
 5635TIP3    H216912   1.860   5.533   1.904
 5636TIP3   OH216913   0.771   4.689   0.106
 5636TIP3    H116914   0.792   4.737   0.026
 5636TIP3    H216915   0.802   4.600   0.089
 5637TIP3   OH216916   5.484   1.128   3.036
 5637TIP3    H116917   5.503   1.222   3.038
 5637TIP3    H216918   5.525   1.094   3.115
 5638TIP3   OH216919   2.359   5.815   3.411
 5638TIP3    H116920   2.291   5.882   3.410
 5638TIP3    H216921   2.434   5.856   3.369
 5639TIP3   OH216922   3.822   3.092   1.099
 5639TIP3    H116923   3.780   3.159   1.154
 5639TIP3    H216924   3.764   3.017   1.104
 5640TIP3   OH216925   2.396   1.951   3.500
 5640TIP3    H116926   2.329   1.904   3.550
 5640TIP3    H216927   2.418   2.027   3.555
 5641TIP3   OH216928   5.162   4.531   2.521
 5641TIP3    H116929   5.252   4.514   2.490
 5641TIP3    H216930   5.108   4.521   2.442
 5642TIP3   OH216931   4.942   4.509   4.072
 5642TIP3    H116932   4.972   4.594   4.040
 5642TIP3    H216933   5.014   4.449   4.049
 5643TIP3   OH216934   4.888   3.240   2.784
 5643TIP3    H116935   4.899   3.147   2.763
 5643TIP3    H216936   4.952   3.285   2.728
 5644TIP3   OH216937   2.912   1.658   2.919
 5644TIP3    H116938   2.987   1.712   2.893
 5644TIP3    H216939   2.875   1.628   2.836
 5645TIP3   OH216940   6.230   4.726   3.530
 5645TIP3    H116941   6.176   4.804   3.518
 5645TIP3    H216942   6.187   4.658   3.478
 5646TIP3   OH216943   6.290   1.321   4.898
 5646TIP3    H116944   6.210   1.371   4.885
 5646TIP3    H216945   6.326   1.311   4.810
 5647TIP3   OH216946   1.725   2.204   2.565
 5647TIP3    H116947   1.678   2.228   2.645
 5647TIP3    H216948   1.814   2.237   2.579
 5648TIP3   OH216949   4.074   1.434   2.145
 5648TIP3    H116950   4.045   1.415   2.234
 5648TIP3    H216951   4.030   1.516   2.122
 5649TIP3   OH216952   0.579   1.615   1.892
 5649TIP3    H116953   0.572   1.699   1.846
 5649TIP3    H216954   0.571   1.549   1.823
 5650TIP3   OH216955   1.564   1.383   4.676
 5650TIP3    H116956   1.648   1.425   4.656
 5650TIP3    H216957   1.511   1.453   4.714
 5651TIP3   OH216958   6.333   1.386   1.310
 5651TIP3    H116959   6.321   1.352   1.399
 5651TIP3    H216960   6.341   1.308   1.255
 5652TIP3   OH216961   3.428   1.691   0.878
 5652TIP3    H116962   3.501   1.649   0.832
 5652TIP3    H216963   3.387   1.619   0.927
 5653TIP3   OH216964   5.749   0.679   3.715
 5653TIP3    H116965   5.751   0.604   3.775
 5653TIP3    H216966   5.655   0.691   3.697
 5654TIP3   OH216967   5.614   1.789   2.172
 5654TIP3    H116968   5.627   1.884   2.170
 5654TIP3    H216969   5.688   1.756   2.223
 5655TIP3   OH216970   1.313   1.753   3.863
 5655TIP3    H116971   1.253   1.825   3.850
 5655TIP3    H216972   1.383   1.768   3.799
 5656TIP3   OH216973   0.554   5.576   3.227
 5656TIP3    H116974   0.511   5.661   3.219
 5656TIP3    H216975   0.639   5.589   3.183
 5657TIP3   OH216976   0.165   2.987   1.729
 5657TIP3    H116977   0.213   3.069   1.730
 5657TIP3    H216978   0.121   2.985   1.643
 5658TIP3   OH216979   1.908   3.946   0.936
 5658TIP3    H116980   1.839   3.896   0.979
 5658TIP3    H216981   1.922   4.022   0.992
 5659TIP3   OH216982   3.350   5.587   3.614
 5659TIP3    H116983   3.385   5.601   3.701
 5659TIP3    H216984   3.381   5.661   3.562
 5660TIP3   OH216985   5.333   1.907   3.329
 5660TIP3    H116986   5.336   1.984   3.385
 5660TIP3    H216987   5.323   1.834   3.389
 5661TIP3   OH216988   4.373   0.525   3.025
 5661TIP3    H116989   4.285   0.507   2.993
 5661TIP3    H216990   4.366   0.608   3.071
 5662TIP3   OH216991   4.062   5.908   4.533
 5662TIP3    H116992   4.053   6.001   4.550
 5662TIP3    H216993   4.146   5.884   4.574
 5663TIP3   OH216994   3.976   1.943   4.839
 5663TIP3    H116995   3.954   1.856   4.873
 5663TIP3    H216996   3.962   2.002   4.912
 5664TIP3   OH216997   2.513   5.810   0.812
 5664TIP3    H116998   2.427   5.815   0.855
 5664TIP3    H216999   2.546   5.723   0.836
 5665TIP3   OH217000   1.912   4.414   1.573
 5665TIP3    H117001   1.979   4.483   1.570
 5665TIP3    H217002   1.836   4.457   1.613
 5666TIP3   OH217003   2.687   3.663   1.459
 5666TIP3    H117004   2.710   3.745   1.503
 5666TIP3    H217005   2.621   3.689   1.395
 5667TIP3   OH217006   0.210   1.001   1.437
 5667TIP3    H117007   0.120   0.969   1.428
 5667TIP3    H217008   0.235   0.976   1.526
 5668TIP3   OH217009   0.971   3.976   0.204
 5668TIP3    H117010   1.065   3.998   0.203
 5668TIP3    H217011   0.964   3.897   0.150
 5669TIP3   OH217012   2.555   4.802   0.504
 5669TIP3    H117013   2.627   4.744   0.479
 5669TIP3    H217014   2.478   4.745   0.505
 5670TIP3   OH217015   3.871   4.539   0.204
 5670TIP3    H117016   3.902   4.616   0.156
 5670TIP3    H217017   3.872   4.468   0.140
 5671TIP3   OH217018   4.673   5.604   1.826
 5671TIP3    H117019   4.632   5.642   1.903
 5671TIP3    H217020   4.613   5.534   1.800
 5672TIP3   OH217021   6.273   4.331   3.241
 5672TIP3    H117022   6.302   4.333   3.332
 5672TIP3    H217023   6.272   4.238   3.218
 5673TIP3   OH217024   2.006   2.184   1.170
 5673TIP3    H117025   2.057   2.251   1.125
 5673TIP3    H217026   1.957   2.232   1.237
 5674TIP3   OH217027   3.684   5.018   4.579
 5674TIP3    H117028   3.770   4.992   4.546
 5674TIP3    H217029   3.627   5.014   4.502
 5675TIP3   OH217030   6.192   1.298   4.063
 5675TIP3    H117031   6.202   1.246   4.143
 5675TIP3    H217032   6.188   1.233   3.993
 5676TIP3   OH217033   1.389   0.127   2.581
 5676TIP3    H117034   1.352   0.215   2.590
 5676TIP3    H217035   1.401   0.096   2.671
 5677TIP3   OH217036   5.319   4.944   2.534
 5677TIP3    H117037   5.363   4.863   2.508
 5677TIP3    H217038   5.316   4.940   2.630
 5678TIP3   OH217039   3.527   3.810   2.775
 5678TIP3    H117040   3.568   3.771   2.853
 5678TIP3    H217041   3.525   3.903   2.794
 5679TIP3   OH217042   6.305   1.436   5.154
 5679TIP3    H117043   6.333   1.521   5.120
 5679TIP3    H217044   6.291   1.382   5.075
 5680TIP3   OH217045   4.387   1.208   2.140
 5680TIP3    H117046   4.437   1.163   2.208
 5680TIP3    H217047   4.453   1.251   2.086
 5681TIP3   OH217048   0.285   2.039   3.965
 5681TIP3    H117049   0.232   1.971   4.007
 5681TIP3    H217050   0.371   2.030   4.005
 5682TIP3   OH217051   0.676   4.514   2.926
 5682TIP3    H117052   0.684   4.565   2.846
 5682TIP3    H217053   0.594   4.465   2.916
 5683TIP3   OH217054   1.955   2.015   1.980
 5683TIP3    H117055   1.990   1.926   1.973
 5683TIP3    H217056   1.993   2.061   1.905
 5684TIP3   OH217057   0.131   3.528   4.556
 5684TIP3    H117058   0.123   3.580   4.636
 5684TIP3    H217059   0.220   3.547   4.525
 5685TIP3   OH217060   3.178   5.852   3.096
 5685TIP3    H117061   3.199   5.796   3.021
 5685TIP3    H217062   3.102   5.812   3.136
 5686TIP3   OH217063   3.659   2.161   2.646
 5686TIP3    H117064   3.627   2.205   2.724
 5686TIP3    H217065   3.618   2.207   2.573
 5687TIP3   OH217066   0.594   0.393   1.310
 5687TIP3    H117067   0.536   0.423   1.380
 5687TIP3    H217068   0.536   0.367   1.239
 5688TIP3   OH217069   3.842   4.906   0.269
 5688TIP3    H117070   3.753   4.873   0.259
 5688TIP3    H217071   3.893   4.857   0.205
 5689TIP3   OH217072   1.367   1.903   1.295
 5689TIP3    H117073   1.453   1.943   1.311
 5689TIP3    H217074   1.332   1.887   1.383
 5690TIP3   OH217075   1.285   1.939   2.334
 5690TIP3    H117076   1.205   1.990   2.323
 5690TIP3    H217077   1.279   1.870   2.267
 5691TIP3   OH217078   5.139   1.641   4.483
 5691TIP3    H117079   5.096   1.565   4.522
 5691TIP3    H217080   5.119   1.634   4.389
 5692TIP3   OH217081   6.345   1.686   4.988
 5692TIP3    H117082   6.269   1.671   4.931
 5692TIP3    H217083   6.405   1.737   4.933
 5693TIP3   OH217084   2.707   1.754   1.829
 5693TIP3    H117085   2.667   1.841   1.827
 5693TIP3    H217086   2.735   1.742   1.920
 5694TIP3   OH217087   6.314   1.541   0.087
 5694TIP3    H117088   6.341   1.502   0.004
 5694TIP3    H217089   6.234   1.589   0.067
 5695TIP3   OH217090   1.444   2.852   1.005
 5695TIP3    H117091   1.473   2.815   1.089
 5695TIP3    H217092   1.513   2.914   0.982
 5696TIP3   OH217093   1.557   3.010   5.009
 5696TIP3    H117094   1.509   2.930   5.030
 5696TIP3    H217095   1.601   3.034   5.091
 5697TIP3   OH217096   4.307   0.488   1.692
 5697TIP3    H117097   4.219   0.457   1.667
 5697TIP3    H217098   4.363   0.412   1.681
 5698TIP3   OH217099   3.434   3.466   0.607
 5698TIP3    H117100   3.435   3.376   0.642
 5698TIP3    H217101   3.512   3.507   0.645
 5699TIP3   OH217102   5.885   3.795   1.296
 5699TIP3    H117103   5.862   3.885   1.320
 5699TIP3    H217104   5.825   3.774   1.224
 5700TIP3   OH217105   4.624   0.177   3.492
 5700TIP3    H117106   4.595   0.268   3.492
 5700TIP3    H217107   4.555   0.130   3.538
 5701TIP3   OH217108   0.787   0.678   1.992
 5701TIP3    H117109   0.857   0.710   1.934
 5701TIP3    H217110   0.742   0.612   1.940
 5702TIP3   OH217111   1.623   2.361   0.257
 5702TIP3    H117112   1.647   2.304   0.330
 5702TIP3    H217113   1.544   2.321   0.220
 5703TIP3   OH217114   1.838   2.054   0.642
 5703TIP3    H117115   1.762   1.996   0.638
 5703TIP3    H217116   1.869   2.045   0.732
 5704TIP3   OH217117   0.583   3.223   1.850
 5704TIP3    H117118   0.596   3.258   1.937
 5704TIP3    H217119   0.665   3.177   1.830
 5705TIP3   OH217120   5.263   4.526   3.567
 5705TIP3    H117121   5.316   4.469   3.511
 5705TIP3    H217122   5.314   4.535   3.647
 5706TIP3   OH217123   2.694   0.578   2.946
 5706TIP3    H117124   2.660   0.667   2.936
 5706TIP3    H217125   2.629   0.533   3.000
 5707TIP3   OH217126   3.920   2.292   4.828
 5707TIP3    H117127   3.986   2.362   4.819
 5707TIP3    H217128   3.945   2.246   4.907
 5708TIP3   OH217129   3.827   4.554   4.033
 5708TIP3    H117130   3.774   4.633   4.042
 5708TIP3    H217131   3.911   4.576   4.074
 5709TIP3   OH217132   5.917   1.513   1.712
 5709TIP3    H117133   5.908   1.466   1.629
 5709TIP3    H217134   5.968   1.591   1.690
 5710TIP3   OH217135   5.173   3.855   2.658
 5710TIP3    H117136   5.181   3.812   2.743
 5710TIP3    H217137   5.257   3.839   2.615
 5711TIP3   OH217138   4.327   0.891   3.885
 5711TIP3    H117139   4.273   0.950   3.833
 5711TIP3    H217140   4.414   0.896   3.844
 5712TIP3   OH217141   2.430   0.684   2.544
 5712TIP3    H117142   2.472   0.638   2.472
 5712TIP3    H217143   2.477   0.766   2.552
 5713TIP3   OH217144   0.601   5.884   1.371
 5713TIP3    H117145   0.686   5.923   1.392
 5713TIP3    H217146   0.621   5.791   1.359
 5714TIP3   OH217147   3.103   2.192   2.190
 5714TIP3    H117148   3.011   2.166   2.191
 5714TIP3    H217149   3.141   2.143   2.118
 5715TIP3   OH217150   4.718   0.774   2.818
 5715TIP3    H117151   4.786   0.735   2.762
 5715TIP3    H217152   4.687   0.702   2.872
 5716TIP3   OH217153   1.160   4.713   2.185
 5716TIP3    H117154   1.235   4.759   2.223
 5716TIP3    H217155   1.101   4.782   2.156
 5717TIP3   OH217156   3.211   4.652   4.724
 5717TIP3    H117157   3.120   4.681   4.717
 5717TIP3    H217158   3.207   4.575   4.781
 5718TIP3   OH217159   2.854   0.113   3.907
 5718TIP3    H117160   2.915   0.060   3.856
 5718TIP3    H217161   2.909   0.160   3.969
 5719TIP3   OH217162   5.084   0.754   0.093
 5719TIP3    H117163   5.100   0.688   0.025
 5719TIP3    H217164   5.131   0.831   0.062
 5720TIP3   OH217165   5.283   3.366   3.022
 5720TIP3    H117166   5.320   3.450   3.050
 5720TIP3    H217167   5.228   3.389   2.947
 5721TIP3   OH217168   2.907   0.119   0.617
 5721TIP3    H117169   2.845   0.154   0.553
 5721TIP3    H217170   2.852   0.083   0.687
 5722TIP3   OH217171   3.931   0.149   2.186
 5722TIP3    H117172   3.899   0.060   2.198
 5722TIP3    H217173   3.986   0.144   2.107
 5723TIP3   OH217174   1.783   5.552   0.156
 5723TIP3    H117175   1.798   5.528   0.065
 5723TIP3    H217176   1.835   5.490   0.206
 5724TIP3   OH217177   2.464   3.266   0.064
 5724TIP3    H117178   2.534   3.331   0.054
 5724TIP3    H217179   2.491   3.193   0.010
 5725TIP3   OH217180   0.843   3.975   1.338
 5725TIP3    H117181   0.868   3.883   1.329
 5725TIP3    H217182   0.753   3.978   1.305
 5726TIP3   OH217183   4.638   3.030   4.776
 5726TIP3    H117184   4.568   2.984   4.823
 5726TIP3    H217185   4.647   2.981   4.694
 5727TIP3   OH217186   2.664   5.658   2.558
 5727TIP3    H117187   2.708   5.731   2.515
 5727TIP3    H217188   2.720   5.582   2.541
 5728TIP3   OH217189   5.040   1.030   5.087
 5728TIP3    H117190   5.055   0.938   5.109
 5728TIP3    H217191   4.964   1.029   5.028
 5729TIP3   OH217192   5.514   2.318   3.240
 5729TIP3    H117193   5.446   2.291   3.179
 5729TIP3    H217194   5.482   2.400   3.277
 5730TIP3   OH217195   2.425   0.320   1.849
 5730TIP3    H117196   2.353   0.279   1.897
 5730TIP3    H217197   2.386   0.400   1.812
 5731TIP3   OH217198   1.657   3.858   3.522
 5731TIP3    H117199   1.660   3.763   3.536
 5731TIP3    H217200   1.566   3.881   3.537
 5732TIP3   OH217201   1.676   4.917   0.577
 5732TIP3    H117202   1.763   4.904   0.540
 5732TIP3    H217203   1.688   4.906   0.672
 5733TIP3   OH217204   4.064   1.587   5.092
 5733TIP3    H117205   4.074   1.562   5.184
 5733TIP3    H217206   4.119   1.526   5.044
 5734TIP3   OH217207   1.067   1.019   2.672
 5734TIP3    H117208   0.984   0.971   2.682
 5734TIP3    H217209   1.133   0.951   2.663
 5735TIP3   OH217210   0.745   3.086   4.146
 5735TIP3    H117211   0.818   3.079   4.085
 5735TIP3    H217212   0.751   3.007   4.200
 5736TIP3   OH217213   4.905   1.290   2.279
 5736TIP3    H117214   4.885   1.286   2.186
 5736TIP3    H217215   4.893   1.382   2.303
 5737TIP3   OH217216   3.724   1.253   4.544
 5737TIP3    H117217   3.756   1.336   4.511
 5737TIP3    H217218   3.634   1.247   4.512
 5738TIP3   OH217219   3.031   1.435   3.902
 5738TIP3    H117220   3.022   1.424   3.996
 5738TIP3    H217221   3.081   1.516   3.892
 5739TIP3   OH217222   4.858   5.256   2.820
 5739TIP3    H117223   4.834   5.318   2.751
 5739TIP3    H217224   4.784   5.258   2.881
 5740TIP3   OH217225   1.681   3.675   0.475
 5740TIP3    H117226   1.657   3.746   0.416
 5740TIP3    H217227   1.624   3.687   0.551
 5741TIP3   OH217228   4.344   1.445   2.327
 5741TIP3    H117229   4.404   1.378   2.294
 5741TIP3    H217230   4.259   1.422   2.290
 5742TIP3   OH217231   3.189   1.588   3.384
 5742TIP3    H117232   3.203   1.550   3.297
 5742TIP3    H217233   3.178   1.513   3.442
 5743TIP3   OH217234   5.421   4.492   4.391
 5743TIP3    H117235   5.355   4.548   4.432
 5743TIP3    H217236   5.504   4.525   4.424
 5744TIP3   OH217237   6.287   0.279   0.190
 5744TIP3    H117238   6.317   0.351   0.134
 5744TIP3    H217239   6.270   0.320   0.275
 5745TIP3   OH217240   4.801   3.430   1.015
 5745TIP3    H117241   4.743   3.492   1.058
 5745TIP3    H217242   4.881   3.431   1.068
 5746TIP3   OH217243   6.252   4.281   2.901
 5746TIP3    H117244   6.311   4.337   2.850
 5746TIP3    H217245   6.310   4.232   2.959
 5747TIP3   OH217246   4.512   5.295   2.146
 5747TIP3    H117247   4.513   5.204   2.173
 5747TIP3    H217248   4.422   5.311   2.117
 5748TIP3   OH217249   3.366   1.116   3.687
 5748TIP3    H117250   3.345   1.037   3.737
 5748TIP3    H217251   3.323   1.103   3.602
 5749TIP3   OH217252   3.048   0.254   4.542
 5749TIP3    H117253   2.991   0.216   4.475
 5749TIP3    H217254   3.123   0.194   4.547
 5750TIP3   OH217255   4.347   4.257   3.810
 5750TIP3    H117256   4.304   4.272   3.895
 5750TIP3    H217257   4.440   4.264   3.830
 5751TIP3   OH217258   2.728   2.632   2.539
 5751TIP3    H117259   2.796   2.693   2.565
 5751TIP3    H217260   2.689   2.602   2.621
 5752TIP3   OH217261   4.441   3.402   3.411
 5752TIP3    H117262   4.426   3.380   3.320
 5752TIP3    H217263   4.466   3.495   3.409
 5753TIP3   OH217264   5.985   2.630   0.418
 5753TIP3    H117265   6.079   2.612   0.425
 5753TIP3    H217266   5.980   2.709   0.363
 5754TIP3   OH217267   1.628   3.532   1.702
 5754TIP3    H117268   1.557   3.572   1.752
 5754TIP3    H217269   1.702   3.530   1.763
 5755TIP3   OH217270   3.458   5.831   0.317
 5755TIP3    H117271   3.438   5.830   0.224
 5755TIP3    H217272   3.436   5.743   0.348
 5756TIP3   OH217273   4.209   4.092   3.415
 5756TIP3    H117274   4.114   4.087   3.405
 5756TIP3    H217275   4.232   4.010   3.458
 5757TIP3   OH217276   1.510   4.276   2.135
 5757TIP3    H117277   1.415   4.271   2.145
 5757TIP3    H217278   1.529   4.370   2.134
 5758TIP3   OH217279   5.986   0.983   4.728
 5758TIP3    H117280   5.903   0.942   4.752
 5758TIP3    H217281   5.963   1.071   4.699
 5759TIP3   OH217282   4.854   2.865   2.311
 5759TIP3    H117283   4.866   2.949   2.266
 5759TIP3    H217284   4.940   2.845   2.347
 5760TIP3   OH217285   2.319   5.259   3.658
 5760TIP3    H117286   2.234   5.259   3.702
 5760TIP3    H217287   2.320   5.342   3.610
 5761TIP3   OH217288   5.372   5.523   2.970
 5761TIP3    H117289   5.400   5.435   2.943
 5761TIP3    H217290   5.299   5.544   2.912
 5762TIP3   OH217291   4.113   2.318   4.055
 5762TIP3    H117292   4.030   2.346   4.017
 5762TIP3    H217293   4.178   2.378   4.020
 5763TIP3   OH217294   0.044   1.184   3.157
 5763TIP3    H117295  -0.027   1.198   3.094
 5763TIP3    H217296   0.108   1.131   3.110
 5764TIP3   OH217297   5.070   1.767   3.667
 5764TIP3    H117298   5.002   1.779   3.601
 5764TIP3    H217299   5.139   1.720   3.621
 5765TIP3   OH217300   0.021   2.596   3.122
 5765TIP3    H117301  -0.005   2.661   3.056
 5765TIP3    H217302   0.107   2.626   3.152
 5766TIP3   OH217303   0.641   4.139   2.379
 5766TIP3    H117304   0.612   4.213   2.432
 5766TIP3    H217305   0.606   4.157   2.292
 5767TIP3   OH217306   4.225   0.904   3.192
 5767TIP3    H117307   4.173   0.834   3.232
 5767TIP3    H217308   4.258   0.955   3.265
 5768TIP3   OH217309   1.680   4.116   1.483
 5768TIP3    H117310   1.666   4.056   1.409
 5768TIP3    H217311   1.595   4.158   1.495
 5769TIP3   OH217312   6.072   0.286   3.884
 5769TIP3    H117313   6.158   0.255   3.855
 5769TIP3    H217314   6.009   0.226   3.844
 5770TIP3   OH217315   1.308   4.967   0.753
 5770TIP3    H117316   1.245   4.900   0.727
 5770TIP3    H217317   1.254   5.036   0.792
 5771TIP3   OH217318   5.174   2.902   4.951
 5771TIP3    H117319   5.219   2.859   5.023
 5771TIP3    H217320   5.130   2.831   4.904
 5772TIP3   OH217321   0.457   3.614   0.932
 5772TIP3    H117322   0.365   3.611   0.906
 5772TIP3    H217323   0.455   3.644   1.022
 5773TIP3   OH217324   0.277   4.494   0.479
 5773TIP3    H117325   0.242   4.580   0.504
 5773TIP3    H217326   0.223   4.432   0.528
 5774TIP3   OH217327   4.385   3.670   2.571
 5774TIP3    H117328   4.317   3.734   2.555
 5774TIP3    H217329   4.360   3.628   2.653
 5775TIP3   OH217330   0.398   2.114   3.503
 5775TIP3    H117331   0.319   2.157   3.535
 5775TIP3    H217332   0.392   2.120   3.408
 5776TIP3   OH217333   2.752   0.537   4.849
 5776TIP3    H117334   2.678   0.594   4.869
 5776TIP3    H217335   2.719   0.478   4.781
 5777TIP3   OH217336   1.571   5.287   0.069
 5777TIP3    H117337   1.507   5.228   0.029
 5777TIP3    H217338   1.539   5.301   0.158
 5778TIP3   OH217339   3.804   3.884   1.301
 5778TIP3    H117340   3.759   3.961   1.266
 5778TIP3    H217341   3.822   3.830   1.225
 5779TIP3   OH217342   0.291   4.578   2.662
 5779TIP3    H117343   0.367   4.633   2.679
 5779TIP3    H217344   0.262   4.604   2.575
 5780TIP3   OH217345   5.900   4.363   3.283
 5780TIP3    H117346   5.932   4.387   3.196
 5780TIP3    H217347   5.978   4.366   3.339
 5781TIP3   OH217348   3.226   2.112   3.655
 5781TIP3    H117349   3.230   2.111   3.751
 5781TIP3    H217350   3.303   2.162   3.629
 5782TIP3   OH217351   2.563   1.945   0.728
 5782TIP3    H117352   2.571   1.983   0.815
 5782TIP3    H217353   2.623   1.996   0.674
 5783TIP3   OH217354   1.551   3.179   0.334
 5783TIP3    H117355   1.619   3.235   0.371
 5783TIP3    H217356   1.570   3.091   0.367
 5784TIP3   OH217357   4.484   1.886   4.811
 5784TIP3    H117358   4.476   1.794   4.783
 5784TIP3    H217359   4.497   1.881   4.906
 5785TIP3   OH217360   2.630   5.362   0.184
 5785TIP3    H117361   2.682   5.288   0.215
 5785TIP3    H217362   2.556   5.366   0.245
 5786TIP3   OH217363   1.304   2.697   4.739
 5786TIP3    H117364   1.358   2.704   4.660
 5786TIP3    H217365   1.366   2.681   4.810
 5787TIP3   OH217366   3.903   4.332   0.036
 5787TIP3    H117367   3.949   4.261   0.082
 5787TIP3    H217368   3.879   4.294  -0.049
 5788TIP3   OH217369   5.204   0.736   1.579
 5788TIP3    H117370   5.195   0.643   1.554
 5788TIP3    H217371   5.167   0.741   1.666
 5789TIP3   OH217372   4.126   2.280   1.504
 5789TIP3    H117373   4.221   2.285   1.494
 5789TIP3    H217374   4.109   2.323   1.588
 5790TIP3   OH217375   2.781   0.107   2.045
 5790TIP3    H117376   2.722   0.146   1.981
 5790TIP3    H217377   2.832   0.181   2.079
 5791TIP3   OH217378   3.638   3.109   3.103
 5791TIP3    H117379   3.585   3.127   3.025
 5791TIP3    H217380   3.663   3.017   3.095
 5792TIP3   OH217381   5.784   4.088   1.291
 5792TIP3    H117382   5.729   4.021   1.251
 5792TIP3    H217383   5.733   4.118   1.367
 5793TIP3   OH217384   6.162   3.783   2.411
 5793TIP3    H117385   6.229   3.806   2.348
 5793TIP3    H217386   6.194   3.818   2.494
 5794TIP3   OH217387   3.912   0.076   3.254
 5794TIP3    H117388   3.979   0.109   3.194
 5794TIP3    H217389   3.912  -0.019   3.242
 5795TIP3   OH217390   5.105   2.786   1.428
 5795TIP3    H117391   5.077   2.728   1.498
 5795TIP3    H217392   5.027   2.837   1.407
 5796TIP3   OH217393   3.097   4.686   0.570
 5796TIP3    H117394   3.093   4.728   0.656
 5796TIP3    H217395   3.068   4.596   0.586
 5797TIP3   OH217396   4.517   0.574   1.292
 5797TIP3    H117397   4.564   0.525   1.359
 5797TIP3    H217398   4.476   0.646   1.340
 5798TIP3   OH217399   0.074   5.758   0.770
 5798TIP3    H117400   0.124   5.817   0.827
 5798TIP3    H217401   0.140   5.706   0.725
 5799TIP3   OH217402   2.430   5.243   1.841
 5799TIP3    H117403   2.365   5.174   1.857
 5799TIP3    H217404   2.382   5.312   1.796
 5800TIP3   OH217405   3.966   3.258   3.666
 5800TIP3    H117406   4.034   3.222   3.723
 5800TIP3    H217407   3.897   3.286   3.726
 5801TIP3   OH217408   4.176   5.962   2.330
 5801TIP3    H117409   4.104   5.918   2.284
 5801TIP3    H217410   4.152   5.956   2.423
 5802TIP3   OH217411   2.066   1.153   2.889
 5802TIP3    H117412   1.991   1.133   2.833
 5802TIP3    H217413   2.045   1.238   2.928
 5803TIP3   OH217414   4.736   3.761   0.099
 5803TIP3    H117415   4.804   3.829   0.101
 5803TIP3    H217416   4.779   3.686   0.058
 5804TIP3   OH217417   2.943   3.901   2.982
 5804TIP3    H117418   2.955   3.995   2.997
 5804TIP3    H217419   2.986   3.859   3.056
 5805TIP3   OH217420   0.741   0.566   1.169
 5805TIP3    H117421   0.696   0.489   1.205
 5805TIP3    H217422   0.770   0.615   1.246
 5806TIP3   OH217423   5.354   0.912   0.637
 5806TIP3    H117424   5.340   0.852   0.563
 5806TIP3    H217425   5.420   0.869   0.691
 5807TIP3   OH217426   1.425   3.982   1.425
 5807TIP3    H117427   1.412   4.067   1.467
 5807TIP3    H217428   1.348   3.971   1.369
 5808TIP3   OH217429   4.112   0.457   2.979
 5808TIP3    H117430   4.047   0.522   3.006
 5808TIP3    H217431   4.102   0.452   2.884
 5809TIP3   OH217432   5.707   3.839   0.371
 5809TIP3    H117433   5.762   3.840   0.293
 5809TIP3    H217434   5.730   3.758   0.417
 5810TIP3   OH217435   1.521   0.775   3.208
 5810TIP3    H117436   1.479   0.858   3.186
 5810TIP3    H217437   1.481   0.749   3.291
 5811TIP3   OH217438   1.182   1.515   2.846
 5811TIP3    H117439   1.221   1.439   2.801
 5811TIP3    H217440   1.164   1.577   2.775
 5812TIP3   OH217441   3.497   5.086   3.501
 5812TIP3    H117442   3.441   5.155   3.536
 5812TIP3    H217443   3.544   5.053   3.578
 5813TIP3   OH217444   1.915   0.107   0.217
 5813TIP3    H117445   1.860   0.107   0.295
 5813TIP3    H217446   1.978   0.036   0.232
 5814TIP3   OH217447   2.707   0.812   4.893
 5814TIP3    H117448   2.762   0.872   4.843
 5814TIP3    H217449   2.768   0.752   4.935
 5815TIP3   OH217450   2.793   1.106   2.187
 5815TIP3    H117451   2.882   1.131   2.212
 5815TIP3    H217452   2.738   1.142   2.257
 5816TIP3   OH217453   6.189   3.299   3.173
 5816TIP3    H117454   6.202   3.204   3.178
 5816TIP3    H217455   6.192   3.318   3.079
 5817TIP3   OH217456   4.861   0.926   4.394
 5817TIP3    H117457   4.941   0.975   4.375
 5817TIP3    H217458   4.885   0.834   4.382
 5818TIP3   OH217459   4.095   1.970   2.086
 5818TIP3    H117460   4.104   1.979   2.181
 5818TIP3    H217461   4.161   1.906   2.061
 5819TIP3   OH217462   4.455   3.571   1.417
 5819TIP3    H117463   4.401   3.554   1.494
 5819TIP3    H217464   4.544   3.551   1.445
 5820TIP3   OH217465   2.410   3.351   4.990
 5820TIP3    H117466   2.319   3.331   4.969
 5820TIP3    H217467   2.414   3.345   5.086
 5821TIP3   OH217468   2.467   3.735   2.139
 5821TIP3    H117469   2.496   3.781   2.060
 5821TIP3    H217470   2.397   3.678   2.108
 5822TIP3   OH217471   3.200   0.930   1.836
 5822TIP3    H117472   3.289   0.898   1.853
 5822TIP3    H217473   3.156   0.925   1.921
 5823TIP3   OH217474   0.746   1.252   1.906
 5823TIP3    H117475   0.827   1.302   1.916
 5823TIP3    H217476   0.721   1.228   1.995
 5824TIP3   OH217477   3.271   5.194   1.141
 5824TIP3    H117478   3.182   5.223   1.160
 5824TIP3    H217479   3.291   5.132   1.210
 5825TIP3   OH217480   5.405   0.298   0.761
 5825TIP3    H117481   5.382   0.389   0.779
 5825TIP3    H217482   5.429   0.297   0.668
 5826TIP3   OH217483   4.346   1.726   4.383
 5826TIP3    H117484   4.437   1.710   4.407
 5826TIP3    H217485   4.329   1.662   4.313
 5827TIP3   OH217486   6.179   4.843   2.331
 5827TIP3    H117487   6.233   4.893   2.269
 5827TIP3    H217488   6.098   4.824   2.282
 5828TIP3   OH217489   5.484   0.572   0.080
 5828TIP3    H117490   5.499   0.667   0.082
 5828TIP3    H217491   5.486   0.546   0.172
 5829TIP3   OH217492   3.542   3.888   0.282
 5829TIP3    H117493   3.594   3.823   0.234
 5829TIP3    H217494   3.602   3.961   0.297
 5830TIP3   OH217495   1.568   5.481   2.317
 5830TIP3    H117496   1.596   5.444   2.401
 5830TIP3    H217497   1.513   5.414   2.278
 5831TIP3   OH217498   5.453   3.861   3.345
 5831TIP3    H117499   5.497   3.776   3.341
 5831TIP3    H217500   5.473   3.902   3.260
 5832TIP3   OH217501   2.320   5.861   1.703
 5832TIP3    H117502   2.385   5.928   1.725
 5832TIP3    H217503   2.360   5.809   1.634
 5833TIP3   OH217504   4.623   0.427   0.907
 5833TIP3    H117505   4.641   0.365   0.977
 5833TIP3    H217506   4.583   0.374   0.838
 5834TIP3   OH217507   1.278   5.267   0.696
 5834TIP3    H117508   1.244   5.259   0.785
 5834TIP3    H217509   1.208   5.310   0.648
 5835TIP3   OH217510   4.179   4.226   0.466
 5835TIP3    H117511   4.165   4.140   0.506
 5835TIP3    H217512   4.090   4.260   0.453
 5836TIP3   OH217513   6.196   5.400   3.983
 5836TIP3    H117514   6.202   5.386   3.889
 5836TIP3    H217515   6.135   5.473   3.993
 5837TIP3   OH217516   1.313   3.669   0.890
 5837TIP3    H117517   1.300   3.722   0.812
 5837TIP3    H217518   1.249   3.702   0.953
 5838TIP3   OH217519   0.405   3.966   4.876
 5838TIP3    H117520   0.471   4.036   4.873
 5838TIP3    H217521   0.336   4.001   4.933
 5839TIP3   OH217522   1.369   0.286   2.141
 5839TIP3    H117523   1.442   0.267   2.082
 5839TIP3    H217524   1.351   0.379   2.127
 5840TIP3   OH217525   0.167   4.863   2.759
 5840TIP3    H117526   0.255   4.855   2.722
 5840TIP3    H217527   0.109   4.829   2.691
 5841TIP3   OH217528   4.250   4.392   4.441
 5841TIP3    H117529   4.282   4.307   4.413
 5841TIP3    H217530   4.282   4.401   4.531
 5842TIP3   OH217531   6.074   0.033   0.657
 5842TIP3    H117532   6.064  -0.034   0.589
 5842TIP3    H217533   6.014   0.103   0.632
 5843TIP3   OH217534   5.668   4.616   0.484
 5843TIP3    H117535   5.695   4.535   0.527
 5843TIP3    H217536   5.613   4.586   0.411
 5844TIP3   OH217537   0.212   1.090   4.020
 5844TIP3    H117538   0.218   1.185   4.021
 5844TIP3    H217539   0.206   1.067   3.927
 5845TIP3   OH217540   0.880   5.056   2.921
 5845TIP3    H117541   0.898   4.970   2.884
 5845TIP3    H217542   0.786   5.057   2.935
 5846TIP3   OH217543   3.355   1.843   1.752
 5846TIP3    H117544   3.369   1.910   1.819
 5846TIP3    H217545   3.438   1.795   1.748
 5847TIP3   OH217546   1.393   3.515   0.370
 5847TIP3    H117547   1.482   3.480   0.366
 5847TIP3    H217548   1.405   3.609   0.356
 5848TIP3   OH217549   4.736   4.058   0.582
 5848TIP3    H117550   4.759   4.125   0.646
 5848TIP3    H217551   4.694   3.989   0.633
 5849TIP3   OH217552   2.293   4.453   3.893
 5849TIP3    H117553   2.317   4.447   3.985
 5849TIP3    H217554   2.375   4.440   3.845
 5850TIP3   OH217555   3.542   1.130   0.228
 5850TIP3    H117556   3.632   1.164   0.232
 5850TIP3    H217557   3.546   1.060   0.163
 5851TIP3   OH217558   0.708   5.443   4.093
 5851TIP3    H117559   0.717   5.348   4.081
 5851TIP3    H217560   0.786   5.468   4.144
 5852TIP3   OH217561   2.806   3.772   4.741
 5852TIP3    H117562   2.744   3.759   4.813
 5852TIP3    H217563   2.883   3.721   4.767
 5853TIP3   OH217564   2.035   3.282   2.519
 5853TIP3    H117565   1.965   3.241   2.467
 5853TIP3    H217566   2.072   3.210   2.570
 5854TIP3   OH217567   2.712   4.487   0.554
 5854TIP3    H117568   2.738   4.561   0.609
 5854TIP3    H217569   2.711   4.523   0.465
 5855TIP3   OH217570   1.902   3.086   3.224
 5855TIP3    H117571   1.821   3.107   3.271
 5855TIP3    H217572   1.960   3.160   3.244
 5856TIP3   OH217573   1.104   5.825   3.012
 5856TIP3    H117574   1.183   5.789   3.052
 5856TIP3    H217575   1.074   5.892   3.073
 5857TIP3   OH217576   0.572   0.206   2.654
 5857TIP3    H117577   0.512   0.193   2.581
 5857TIP3    H217578   0.541   0.286   2.697
 5858TIP3   OH217579   5.355   3.459   1.263
 5858TIP3    H117580   5.304   3.506   1.329
 5858TIP3    H217581   5.313   3.373   1.257
 5859TIP3   OH217582   3.584   0.154   0.528
 5859TIP3    H117583   3.547   0.211   0.460
 5859TIP3    H217584   3.659   0.203   0.561
 5860TIP3   OH217585   2.913   5.567   0.352
 5860TIP3    H117586   2.971   5.611   0.413
 5860TIP3    H217587   2.939   5.475   0.356
 5861TIP3   OH217588   4.439   3.527   0.744
 5861TIP3    H117589   4.398   3.577   0.674
 5861TIP3    H217590   4.533   3.536   0.729
 5862TIP3   OH217591   4.756   4.275   4.146
 5862TIP3    H117592   4.828   4.221   4.113
 5862TIP3    H217593   4.703   4.293   4.069
 5863TIP3   OH217594   2.843   1.055   1.873
 5863TIP3    H117595   2.849   1.126   1.937
 5863TIP3    H217596   2.924   1.005   1.885
 5864TIP3   OH217597   6.257   5.528   1.040
 5864TIP3    H117598   6.163   5.544   1.034
 5864TIP3    H217599   6.269   5.441   1.003
 5865TIP3   OH217600   2.166   2.992   4.419
 5865TIP3    H117601   2.140   2.965   4.331
 5865TIP3    H217602   2.227   2.924   4.447
 5866TIP3   OH217603   4.353   3.314   0.130
 5866TIP3    H117604   4.260   3.333   0.130
 5866TIP3    H217605   4.362   3.239   0.189
 5867TIP3   OH217606   3.755   4.434   4.970
 5867TIP3    H117607   3.757   4.513   4.916
 5867TIP3    H217608   3.734   4.466   5.058
 5868TIP3   OH217609   1.751   1.864   1.056
 5868TIP3    H117610   1.689   1.792   1.064
 5868TIP3    H217611   1.837   1.822   1.049
 5869TIP3   OH217612   5.107   1.913   0.762
 5869TIP3    H117613   5.130   2.004   0.745
 5869TIP3    H217614   5.112   1.870   0.677
 5870TIP3   OH217615   1.255   1.882   0.212
 5870TIP3    H117616   1.162   1.863   0.218
 5870TIP3    H217617   1.276   1.926   0.295
 5871TIP3   OH217618   0.381   1.136   0.389
 5871TIP3    H117619   0.314   1.090   0.439
 5871TIP3    H217620   0.464   1.098   0.420
 5872TIP3   OH217621   4.161   3.455   4.270
 5872TIP3    H117622   4.234   3.421   4.218
 5872TIP3    H217623   4.119   3.377   4.307
 5873TIP3   OH217624   3.512   1.532   3.983
 5873TIP3    H117625   3.438   1.566   4.033
 5873TIP3    H217626   3.476   1.515   3.895
 5874TIP3   OH217627   5.395   4.878   1.029
 5874TIP3    H117628   5.485   4.845   1.031
 5874TIP3    H217629   5.353   4.836   1.104
 5875TIP3   OH217630   1.307   2.336   4.034
 5875TIP3    H117631   1.369   2.334   4.107
 5875TIP3    H217632   1.287   2.244   4.018
 5876TIP3   OH217633   5.231   5.053   4.852
 5876TIP3    H117634   5.295   4.988   4.823
 5876TIP3    H217635   5.245   5.061   4.946
 5877TIP3   OH217636   0.040   0.181   1.539
 5877TIP3    H117637  -0.054   0.195   1.538
 5877TIP3    H217638   0.076   0.265   1.569
 5878TIP3   OH217639   0.122   0.906   2.454
 5878TIP3    H117640   0.132   0.837   2.520
 5878TIP3    H217641   0.212   0.933   2.435
 5879TIP3   OH217642   6.323   3.258   4.967
 5879TIP3    H117643   6.363   3.219   5.045
 5879TIP3    H217644   6.230   3.233   4.972
 5880TIP3   OH217645   5.945   1.816   4.131
 5880TIP3    H117646   5.957   1.755   4.059
 5880TIP3    H217647   5.990   1.776   4.205
 5881TIP3   OH217648   0.912   2.856   1.651
 5881TIP3    H117649   0.984   2.792   1.653
 5881TIP3    H217650   0.861   2.831   1.574
 5882TIP3   OH217651   0.989   5.865   1.340
 5882TIP3    H117652   0.932   5.922   1.393
 5882TIP3    H217653   1.038   5.814   1.404
 5883TIP3   OH217654   2.294   5.330   2.740
 5883TIP3    H117655   2.300   5.305   2.648
 5883TIP3    H217656   2.376   5.376   2.758
 5884TIP3   OH217657   0.612   2.397   2.854
 5884TIP3    H117658   0.542   2.462   2.847
 5884TIP3    H217659   0.590   2.331   2.789
 5885TIP3   OH217660   0.632   4.128   3.405
 5885TIP3    H117661   0.623   4.181   3.326
 5885TIP3    H217662   0.723   4.138   3.432
 5886TIP3   OH217663   5.914   5.162   1.734
 5886TIP3    H117664   5.845   5.097   1.746
 5886TIP3    H217665   5.908   5.188   1.642
 5887TIP3   OH217666   3.835   5.119   1.561
 5887TIP3    H117667   3.856   5.194   1.506
 5887TIP3    H217668   3.848   5.042   1.505
 5888TIP3   OH217669   2.724   4.709   2.688
 5888TIP3    H117670   2.722   4.746   2.600
 5888TIP3    H217671   2.779   4.768   2.738
 5889TIP3   OH217672   4.469   2.720   4.096
 5889TIP3    H117673   4.540   2.680   4.145
 5889TIP3    H217674   4.411   2.757   4.163
 5890TIP3   OH217675   3.194   1.664   4.720
 5890TIP3    H117676   3.289   1.669   4.710
 5890TIP3    H217677   3.181   1.659   4.815
 5891TIP3   OH217678   1.271   2.572   0.743
 5891TIP3    H117679   1.335   2.548   0.810
 5891TIP3    H217680   1.272   2.499   0.682
 5892TIP3   OH217681   5.448   3.254   0.099
 5892TIP3    H117682   5.393   3.273   0.023
 5892TIP3    H217683   5.401   3.185   0.146
 5893TIP3   OH217684   1.803   5.085   4.181
 5893TIP3    H117685   1.847   5.127   4.255
 5893TIP3    H217686   1.778   5.158   4.124
 5894TIP3   OH217687   2.302   4.312   4.534
 5894TIP3    H117688   2.257   4.231   4.553
 5894TIP3    H217689   2.320   4.308   4.440
 5895TIP3   OH217690   2.685   1.143   1.284
 5895TIP3    H117691   2.726   1.124   1.199
 5895TIP3    H217692   2.758   1.160   1.342
 5896TIP3   OH217693   5.309   0.026   1.645
 5896TIP3    H117694   5.283   0.013   1.554
 5896TIP3    H217695   5.394   0.070   1.640
 5897TIP3   OH217696   5.509   3.863   1.475
 5897TIP3    H117697   5.552   3.947   1.491
 5897TIP3    H217698   5.453   3.879   1.399
 5898TIP3   OH217699   1.527   4.984   1.581
 5898TIP3    H117700   1.586   4.971   1.507
 5898TIP3    H217701   1.557   5.065   1.622
 5899TIP3   OH217702   1.289   2.871   4.006
 5899TIP3    H117703   1.327   2.955   3.979
 5899TIP3    H217704   1.326   2.855   4.093
 5900TIP3   OH217705   1.719   2.280   0.540
 5900TIP3    H117706   1.743   2.194   0.573
 5900TIP3    H217707   1.757   2.341   0.603
 5901TIP3   OH217708   2.090   0.463   1.643
 5901TIP3    H117709   2.102   0.368   1.640
 5901TIP3    H217710   2.163   0.495   1.695
 5902TIP3   OH217711   0.226   2.725   0.623
 5902TIP3    H117712   0.306   2.719   0.571
 5902TIP3    H217713   0.180   2.801   0.589
 5903TIP3   OH217714   2.449   1.144   3.336
 5903TIP3    H117715   2.382   1.096   3.386
 5903TIP3    H217716   2.404   1.168   3.254
 5904TIP3   OH217717   5.726   0.677   2.830
 5904TIP3    H117718   5.756   0.652   2.742
 5904TIP3    H217719   5.657   0.741   2.814
 5905TIP3   OH217720   4.218   2.252   4.582
 5905TIP3    H117721   4.205   2.189   4.652
 5905TIP3    H217722   4.301   2.227   4.541
 5906TIP3   OH217723   4.754   1.565   3.804
 5906TIP3    H117724   4.768   1.482   3.848
 5906TIP3    H217725   4.745   1.541   3.711
 5907TIP3   OH217726   0.886   0.300   1.710
 5907TIP3    H117727   0.880   0.266   1.800
 5907TIP3    H217728   0.868   0.225   1.655
 5908TIP3   OH217729   1.193   2.583   3.037
 5908TIP3    H117730   1.108   2.539   3.030
 5908TIP3    H217731   1.189   2.630   3.120
 5909TIP3   OH217732   2.485   4.217   3.541
 5909TIP3    H117733   2.421   4.174   3.484
 5909TIP3    H217734   2.569   4.206   3.497
 5910TIP3   OH217735   4.806   5.633   1.343
 5910TIP3    H117736   4.722   5.657   1.305
 5910TIP3    H217737   4.790   5.631   1.437
 5911TIP3   OH217738   1.424   0.085   4.598
 5911TIP3    H117739   1.346   0.041   4.634
 5911TIP3    H217740   1.498   0.038   4.637
 5912TIP3   OH217741   0.538   3.912   3.556
 5912TIP3    H117742   0.555   3.971   3.483
 5912TIP3    H217743   0.610   3.929   3.617
 5913TIP3   OH217744   5.363   2.749   4.280
 5913TIP3    H117745   5.422   2.790   4.217
 5913TIP3    H217746   5.412   2.748   4.362
 5914TIP3   OH217747   0.695   1.010   3.420
 5914TIP3    H117748   0.730   0.986   3.505
 5914TIP3    H217749   0.646   0.933   3.391
 5915TIP3   OH217750   3.187   1.543   2.870
 5915TIP3    H117751   3.096   1.554   2.844
 5915TIP3    H217752   3.238   1.580   2.798
 5916TIP3   OH217753   0.072   5.741   1.101
 5916TIP3    H117754   0.013   5.672   1.071
 5916TIP3    H217755   0.017   5.797   1.156
 5917TIP3   OH217756   2.310   0.002   5.083
 5917TIP3    H117757   2.378   0.069   5.086
 5917TIP3    H217758   2.230   0.050   5.065
 5918TIP3   OH217759   3.339   2.908   2.432
 5918TIP3    H117760   3.315   2.980   2.490
 5918TIP3    H217761   3.318   2.939   2.344
 5919TIP3   OH217762   6.339   1.335   0.338
 5919TIP3    H117763   6.380   1.292   0.413
 5919TIP3    H217764   6.290   1.266   0.294
 5920TIP3   OH217765   3.694   3.097   3.451
 5920TIP3    H117766   3.637   3.166   3.485
 5920TIP3    H217767   3.743   3.067   3.528
 5921TIP3   OH217768   4.862   1.068   4.882
 5921TIP3    H117769   4.864   1.051   4.788
 5921TIP3    H217770   4.799   1.139   4.892
 5922TIP3   OH217771   3.243   2.403   3.367
 5922TIP3    H117772   3.238   2.325   3.313
 5922TIP3    H217773   3.173   2.392   3.432
 5923TIP3   OH217774   1.660   3.973   0.427
 5923TIP3    H117775   1.630   4.028   0.500
 5923TIP3    H217776   1.746   4.009   0.404
 5924TIP3   OH217777   1.762   4.672   1.251
 5924TIP3    H117778   1.857   4.674   1.242
 5924TIP3    H217779   1.741   4.751   1.301
 5925TIP3   OH217780   1.079   5.380   0.497
 5925TIP3    H117781   1.002   5.423   0.536
 5925TIP3    H217782   1.043   5.331   0.423
 5926TIP3   OH217783   5.147   0.574   0.436
 5926TIP3    H117784   5.054   0.594   0.426
 5926TIP3    H217785   5.156   0.547   0.527
 5927TIP3   OH217786   2.778   3.698   0.053
 5927TIP3    H117787   2.730   3.773   0.090
 5927TIP3    H217788   2.854   3.689   0.110
 5928TIP3   OH217789   5.740   3.381   3.264
 5928TIP3    H117790   5.823   3.409   3.226
 5928TIP3    H217791   5.762   3.351   3.352
 5929TIP3   OH217792   0.114   4.903   4.541
 5929TIP3    H117793   0.110   4.987   4.494
 5929TIP3    H217794   0.029   4.862   4.524
 5930TIP3   OH217795   1.153   5.173   2.185
 5930TIP3    H117796   1.211   5.244   2.212
 5930TIP3    H217797   1.154   5.112   2.259
 5931TIP3   OH217798   6.050   0.031   2.156
 5931TIP3    H117799   6.075   0.037   2.064
 5931TIP3    H217800   6.088   0.109   2.197
 5932TIP3   OH217801   4.384   1.533   0.509
 5932TIP3    H117802   4.300   1.578   0.515
 5932TIP3    H217803   4.375   1.474   0.434
 5933TIP3   OH217804   2.124   4.092   3.206
 5933TIP3    H117805   2.160   4.156   3.267
 5933TIP3    H217806   2.139   4.130   3.120
 5934TIP3   OH217807   3.273   0.799   2.886
 5934TIP3    H117808   3.366   0.816   2.873
 5934TIP3    H217809   3.263   0.705   2.875
 5935TIP3   OH217810   3.685   5.839   1.381
 5935TIP3    H117811   3.643   5.835   1.468
 5935TIP3    H217812   3.721   5.751   1.369
 5936TIP3   OH217813   0.947   2.959   3.406
 5936TIP3    H117814   0.920   3.031   3.349
 5936TIP3    H217815   0.989   2.896   3.347
 5937TIP3   OH217816   3.326   0.191   0.745
 5937TIP3    H117817   3.293   0.189   0.655
 5937TIP3    H217818   3.338   0.099   0.768
 5938TIP3   OH217819   2.823   5.563   3.847
 5938TIP3    H117820   2.844   5.631   3.910
 5938TIP3    H217821   2.733   5.538   3.867
 5939TIP3   OH217822   4.174   5.101   2.810
 5939TIP3    H117823   4.153   5.109   2.903
 5939TIP3    H217824   4.124   5.170   2.768
 5940TIP3   OH217825   4.770   4.958   0.601
 5940TIP3    H117826   4.832   4.908   0.548
 5940TIP3    H217827   4.751   4.902   0.676
 5941TIP3   OH217828   1.994   2.599   0.728
 5941TIP3    H117829   2.001   2.642   0.643
 5941TIP3    H217830   1.908   2.555   0.725
 5942TIP3   OH217831   2.629   1.246   4.655
 5942TIP3    H117832   2.589   1.202   4.730
 5942TIP3    H217833   2.643   1.336   4.684
 5943TIP3   OH217834   4.655   2.644   2.465
 5943TIP3    H117835   4.745   2.628   2.493
 5943TIP3    H217836   4.632   2.568   2.412
 5944TIP3   OH217837   0.618   2.077   1.003
 5944TIP3    H117838   0.623   1.983   1.017
 5944TIP3    H217839   0.525   2.097   0.999
 5945TIP3   OH217840   2.528   3.713   0.370
 5945TIP3    H117841   2.624   3.713   0.379
 5945TIP3    H217842   2.510   3.775   0.300
 5946TIP3   OH217843   4.070   3.175   4.345
 5946TIP3    H117844   4.070   3.126   4.263
 5946TIP3    H217845   4.160   3.172   4.375
 5947TIP3   OH217846   2.163   5.298   4.901
 5947TIP3    H117847   2.156   5.387   4.865
 5947TIP3    H217848   2.162   5.310   4.996
 5948TIP3   OH217849   5.459   4.710   2.511
 5948TIP3    H117850   5.541   4.728   2.465
 5948TIP3    H217851   5.437   4.620   2.485
 5949TIP3   OH217852   5.811   1.624   5.109
 5949TIP3    H117853   5.728   1.624   5.156
 5949TIP3    H217854   5.854   1.705   5.136
 5950TIP3   OH217855   4.526   5.658   1.280
 5950TIP3    H117856   4.487   5.746   1.279
 5950TIP3    H217857   4.550   5.642   1.189
 5951TIP3   OH217858   4.901   4.866   2.796
 5951TIP3    H117859   4.982   4.837   2.837
 5951TIP3    H217860   4.837   4.799   2.819
 5952TIP3   OH217861   1.229   4.365   1.423
 5952TIP3    H117862   1.275   4.330   1.347
 5952TIP3    H217863   1.144   4.321   1.423
 5953TIP3   OH217864   5.473   0.599   4.796
 5953TIP3    H117865   5.422   0.521   4.820
 5953TIP3    H217866   5.447   0.664   4.862
 5954TIP3   OH217867   0.436   2.201   3.243
 5954TIP3    H117868   0.366   2.234   3.187
 5954TIP3    H217869   0.517   2.226   3.198
 5955TIP3   OH217870   2.295   2.549   2.233
 5955TIP3    H117871   2.320   2.636   2.264
 5955TIP3    H217872   2.270   2.563   2.141
 5956TIP3   OH217873   1.735   0.555   2.901
 5956TIP3    H117874   1.776   0.597   2.825
 5956TIP3    H217875   1.721   0.464   2.873
 5957TIP3   OH217876   1.588   0.052   4.109
 5957TIP3    H117877   1.678   0.053   4.075
 5957TIP3    H217878   1.563   0.144   4.112
 5958TIP3   OH217879   3.822   3.393   0.615
 5958TIP3    H117880   3.808   3.316   0.671
 5958TIP3    H217881   3.782   3.369   0.531
 5959TIP3   OH217882   2.017   2.939   0.141
 5959TIP3    H117883   2.021   2.863   0.084
 5959TIP3    H217884   2.079   3.001   0.102
 5960TIP3   OH217885   3.708   1.938   2.383
 5960TIP3    H117886   3.752   1.945   2.298
 5960TIP3    H217887   3.760   1.993   2.442
 5961TIP3   OH217888   2.188   2.761   3.751
 5961TIP3    H117889   2.093   2.770   3.758
 5961TIP3    H217890   2.202   2.714   3.669
 5962TIP3   OH217891   2.423   4.162   2.610
 5962TIP3    H117892   2.434   4.252   2.579
 5962TIP3    H217893   2.436   4.108   2.532
 5963TIP3   OH217894   3.371   2.496   2.802
 5963TIP3    H117895   3.419   2.478   2.721
 5963TIP3    H217896   3.439   2.497   2.870
 5964TIP3   OH217897   0.505   3.725   4.936
 5964TIP3    H117898   0.440   3.687   4.995
 5964TIP3    H217899   0.474   3.814   4.920
 5965TIP3   OH217900   5.280   2.318   3.042
 5965TIP3    H117901   5.212   2.259   3.074
 5965TIP3    H217902   5.252   2.405   3.071
 5966TIP3   OH217903   2.622   4.776   3.518
 5966TIP3    H117904   2.533   4.743   3.520
 5966TIP3    H217905   2.657   4.746   3.434
 5967TIP3   OH217906   2.446   2.395   1.771
 5967TIP3    H117907   2.456   2.331   1.701
 5967TIP3    H217908   2.530   2.439   1.776
 5968TIP3   OH217909   4.289   1.189   3.589
 5968TIP3    H117910   4.230   1.167   3.662
 5968TIP3    H217911   4.253   1.270   3.554
 5969TIP3   OH217912   1.731   2.946   0.127
 5969TIP3    H117913   1.812   2.946   0.178
 5969TIP3    H217914   1.664   2.922   0.190
 5970TIP3   OH217915   5.543   0.110   0.936
 5970TIP3    H117916   5.497   0.165   0.872
 5970TIP3    H217917   5.603   0.057   0.883
 5971TIP3   OH217918   1.349   5.367   1.650
 5971TIP3    H117919   1.336   5.304   1.721
 5971TIP3    H217920   1.310   5.326   1.573
 5972TIP3   OH217921   3.057   5.949   0.702
 5972TIP3    H117922   3.057   6.035   0.744
 5972TIP3    H217923   3.141   5.911   0.727
 5973TIP3   OH217924   2.290   0.816   1.865
 5973TIP3    H117925   2.277   0.904   1.829
 5973TIP3    H217926   2.218   0.804   1.927
 5974TIP3   OH217927   3.440   2.613   1.857
 5974TIP3    H117928   3.455   2.531   1.904
 5974TIP3    H217929   3.455   2.592   1.765
 5975TIP3   OH217930   1.449   4.216   1.876
 5975TIP3    H117931   1.403   4.300   1.868
 5975TIP3    H217932   1.483   4.216   1.965
 5976TIP3   OH217933   1.809   5.877   1.557
 5976TIP3    H117934   1.810   5.968   1.530
 5976TIP3    H217935   1.843   5.878   1.646
 5977TIP3   OH217936   1.503   0.694   2.179
 5977TIP3    H117937   1.551   0.734   2.106
 5977TIP3    H217938   1.432   0.647   2.137
 5978TIP3   OH217939   4.695   3.169   0.673
 5978TIP3    H117940   4.603   3.144   0.662
 5978TIP3    H217941   4.699   3.214   0.758
 5979TIP3   OH217942   3.631   2.516   0.243
 5979TIP3    H117943   3.536   2.511   0.257
 5979TIP3    H217944   3.664   2.565   0.318
 5980TIP3   OH217945   0.928   4.443   4.723
 5980TIP3    H117946   0.862   4.498   4.680
 5980TIP3    H217947   1.001   4.501   4.740
 5981TIP3   OH217948   3.150   4.885   1.270
 5981TIP3    H117949   3.064   4.894   1.309
 5981TIP3    H217950   3.142   4.924   1.183
 5982TIP3   OH217951   5.919   4.358   3.615
 5982TIP3    H117952   5.885   4.284   3.665
 5982TIP3    H217953   5.868   4.433   3.646
 5983TIP3   OH217954   5.797   4.933   0.424
 5983TIP3    H117955   5.838   4.951   0.508
 5983TIP3    H217956   5.703   4.934   0.442
 5984TIP3   OH217957   5.370   3.021   0.921
 5984TIP3    H117958   5.295   2.966   0.943
 5984TIP3    H217959   5.432   3.007   0.993
 5985TIP3   OH217960   4.421   0.729   2.703
 5985TIP3    H117961   4.344   0.780   2.730
 5985TIP3    H217962   4.493   0.765   2.754
 5986TIP3   OH217963   1.205   1.992   5.107
 5986TIP3    H117964   1.220   2.086   5.098
 5986TIP3    H217965   1.145   1.970   5.036
 5987TIP3   OH217966   1.921   1.010   4.867
 5987TIP3    H117967   1.912   0.947   4.939
 5987TIP3    H217968   1.869   1.086   4.896
 5988TIP3   OH217969   0.983   5.931   5.017
 5988TIP3    H117970   1.061   5.890   4.980
 5988TIP3    H217971   1.002   6.025   5.015
 5989TIP3   OH217972   4.375   2.675   0.932
 5989TIP3    H117973   4.355   2.588   0.965
 5989TIP3    H217974   4.471   2.679   0.930
 5990TIP3   OH217975   3.379   0.461   2.562
 5990TIP3    H117976   3.395   0.552   2.539
 5990TIP3    H217977   3.438   0.411   2.506
 5991TIP3   OH217978   4.676   2.836   3.120
 5991TIP3    H117979   4.601   2.849   3.062
 5991TIP3    H217980   4.642   2.782   3.191
 5992TIP3   OH217981   5.376   0.888   4.289
 5992TIP3    H117982   5.441   0.828   4.326
 5992TIP3    H217983   5.427   0.948   4.234
 5993TIP3   OH217984   0.773   4.081   4.131
 5993TIP3    H117985   0.740   4.012   4.074
 5993TIP3    H217986   0.764   4.046   4.220
 5994TIP3   OH217987   1.253   5.064   1.683
 5994TIP3    H117988   1.323   4.999   1.691
 5994TIP3    H217989   1.272   5.109   1.601
 5995TIP3   OH217990   4.046   3.587   2.207
 5995TIP3    H117991   3.973   3.528   2.187
 5995TIP3    H217992   4.028   3.666   2.156
 5996TIP3   OH217993   0.651   1.741   4.959
 5996TIP3    H117994   0.719   1.795   4.919
 5996TIP3    H217995   0.569   1.786   4.940
 5997TIP3   OH217996   4.794   4.784   4.539
 5997TIP3    H117997   4.811   4.878   4.534
 5997TIP3    H217998   4.833   4.748   4.459
 5998TIP3   OH217999   2.423   2.892   1.294
 5998TIP3    H118000   2.332   2.907   1.269
 5998TIP3    H218001   2.429   2.926   1.383
 5999TIP3   OH218002   4.571   2.033   4.211
 5999TIP3    H118003   4.515   2.105   4.241
 5999TIP3    H218004   4.511   1.959   4.201
 6000TIP3   OH218005   4.408   3.578   5.088
 6000TIP3    H118006   4.315   3.592   5.067
 6000TIP3    H218007   4.414   3.598   5.182
 6001TIP3   OH218008   2.354   3.561   1.078
 6001TIP3    H118009   2.308   3.568   0.994
 6001TIP3    H218010   2.404   3.480   1.070
 6002TIP3   OH218011   4.632   2.353   3.966
 6002TIP3    H118012   4.564   2.323   4.026
 6002TIP3    H218013   4.657   2.439   3.999
 6003TIP3   OH218014   2.559   5.694   5.047
 6003TIP3    H118015   2.538   5.664   4.958
 6003TIP3    H218016   2.509   5.775   5.057
 6004TIP3   OH218017   0.907   3.334   1.975
 6004TIP3    H118018   0.834   3.282   2.009
 6004TIP3    H218019   0.878   3.360   1.887
 6005TIP3   OH218020   5.160   2.974   4.340
 6005TIP3    H118021   5.093   2.940   4.398
 6005TIP3    H218022   5.196   2.897   4.296
 6006TIP3   OH218023   4.728   4.970   0.895
 6006TIP3    H118024   4.820   4.981   0.871
 6006TIP3    H218025   4.723   5.001   0.985
 6007TIP3   OH218026   0.985   4.815   2.791
 6007TIP3    H118027   1.063   4.822   2.846
 6007TIP3    H218028   1.004   4.744   2.731
 6008TIP3   OH218029   2.854   2.355   3.015
 6008TIP3    H118030   2.937   2.326   2.976
 6008TIP3    H218031   2.855   2.317   3.103
 6009TIP3   OH218032   0.261   5.634   3.228
 6009TIP3    H118033   0.250   5.572   3.156
 6009TIP3    H218034   0.317   5.703   3.192
 6010TIP3   OH218035   0.521   5.087   3.663
 6010TIP3    H118036   0.460   5.022   3.630
 6010TIP3    H218037   0.542   5.141   3.587
 6011TIP3   OH218038   4.096   5.336   3.844
 6011TIP3    H118039   4.027   5.272   3.864
 6011TIP3    H218040   4.172   5.305   3.893
 6012TIP3   OH218041   5.161   2.837   2.030
 6012TIP3    H118042   5.216   2.759   2.043
 6012TIP3    H218043   5.222   2.910   2.040
 6013TIP3   OH218044   1.977   1.130   4.070
 6013TIP3    H118045   1.925   1.170   4.000
 6013TIP3    H218046   1.937   1.044   4.083
 6014TIP3   OH218047   1.149   2.857   3.567
 6014TIP3    H118048   1.127   2.849   3.659
 6014TIP3    H218049   1.085   2.920   3.533
 6015TIP3   OH218050   2.613   4.128   2.013
 6015TIP3    H118051   2.673   4.054   2.019
 6015TIP3    H218052   2.526   4.089   2.014
 6016TIP3   OH218053   5.065   2.160   3.089
 6016TIP3    H118054   4.997   2.227   3.082
 6016TIP3    H218055   5.018   2.077   3.080
 6017TIP3   OH218056   0.514   5.320   2.842
 6017TIP3    H118057   0.456   5.275   2.904
 6017TIP3    H218058   0.519   5.261   2.767
 6018TIP3   OH218059   0.204   3.819   0.417
 6018TIP3    H118060   0.126   3.873   0.430
 6018TIP3    H218061   0.275   3.869   0.457
 6019TIP3   OH218062   3.360   2.822   4.263
 6019TIP3    H118063   3.280   2.822   4.210
 6019TIP3    H218064   3.355   2.903   4.313
 6020TIP3   OH218065   5.253   5.335   2.743
 6020TIP3    H118066   5.195   5.263   2.767
 6020TIP3    H218067   5.323   5.294   2.692
 6021TIP3   OH218068   6.311   4.102   1.613
 6021TIP3    H118069   6.383   4.046   1.584
 6021TIP3    H218070   6.254   4.044   1.663
 6022TIP3   OH218071   2.539   4.393   2.012
 6022TIP3    H118072   2.607   4.459   2.024
 6022TIP3    H218073   2.586   4.315   1.982
 6023TIP3   OH218074   0.562   2.784   0.718
 6023TIP3    H118075   0.636   2.745   0.672
 6023TIP3    H218076   0.567   2.877   0.698
 6024TIP3   OH218077   5.428   3.610   4.879
 6024TIP3    H118078   5.466   3.527   4.848
 6024TIP3    H218079   5.486   3.677   4.844
 6025TIP3   OH218080   3.349   3.693   4.629
 6025TIP3    H118081   3.383   3.604   4.618
 6025TIP3    H218082   3.358   3.711   4.723
 6026TIP3   OH218083   2.815   5.982   4.235
 6026TIP3    H118084   2.826   5.906   4.292
 6026TIP3    H218085   2.755   6.039   4.283
 6027TIP3   OH218086   2.435   2.452   3.299
 6027TIP3    H118087   2.470   2.526   3.348
 6027TIP3    H218088   2.486   2.451   3.218
 6028TIP3   OH218089   3.621   2.808   2.188
 6028TIP3    H118090   3.677   2.884   2.175
 6028TIP3    H218091   3.552   2.839   2.247
 6029TIP3   OH218092   5.460   0.379   3.644
 6029TIP3    H118093   5.396   0.419   3.703
 6029TIP3    H218094   5.462   0.436   3.568
 6030TIP3   OH218095   4.475   3.950   1.767
 6030TIP3    H118096   4.417   3.905   1.705
 6030TIP3    H218097   4.485   4.038   1.730
 6031TIP3   OH218098   4.677   4.173   0.971
 6031TIP3    H118099   4.670   4.232   1.046
 6031TIP3    H218100   4.605   4.198   0.914
 6032TIP3   OH218101   2.670   1.434   0.237
 6032TIP3    H118102   2.625   1.459   0.318
 6032TIP3    H218103   2.665   1.339   0.235
 6033TIP3   OH218104   5.696   5.003   2.364
 6033TIP3    H118105   5.739   4.920   2.348
 6033TIP3    H218106   5.696   5.012   2.460
 6034TIP3   OH218107   5.190   5.818   1.767
 6034TIP3    H118108   5.279   5.785   1.773
 6034TIP3    H218109   5.167   5.808   1.675
 6035TIP3   OH218110   2.646   0.608   1.649
 6035TIP3    H118111   2.554   0.584   1.661
 6035TIP3    H218112   2.663   0.669   1.721
 6036TIP3   OH218113   1.620   0.220   4.457
 6036TIP3    H118114   1.557   0.156   4.490
 6036TIP3    H218115   1.596   0.233   4.365
 6037TIP3   OH218116   0.994   4.922   2.125
 6037TIP3    H118117   0.924   4.913   2.190
 6037TIP3    H218118   1.027   5.011   2.138
 6038TIP3   OH218119   1.945   5.704   0.300
 6038TIP3    H118120   1.881   5.668   0.239
 6038TIP3    H218121   1.893   5.737   0.373
 6039TIP3   OH218122   1.752   5.886   3.628
 6039TIP3    H118123   1.694   5.895   3.704
 6039TIP3    H218124   1.833   5.849   3.663
 6040TIP3   OH218125   4.792   5.113   4.555
 6040TIP3    H118126   4.812   5.114   4.648
 6040TIP3    H218127   4.860   5.167   4.515
 6041TIP3   OH218128   3.571   3.606   4.004
 6041TIP3    H118129   3.490   3.556   3.996
 6041TIP3    H218130   3.541   3.695   4.026
 6042TIP3   OH218131   5.424   0.288   2.256
 6042TIP3    H118132   5.413   0.210   2.202
 6042TIP3    H218133   5.515   0.284   2.285
 6043TIP3   OH218134   3.159   1.594   2.130
 6043TIP3    H118135   3.238   1.541   2.140
 6043TIP3    H218136   3.125   1.571   2.043
 6044TIP3   OH218137   1.660   1.851   2.238
 6044TIP3    H118138   1.750   1.870   2.262
 6044TIP3    H218139   1.667   1.783   2.171
 6045TIP3   OH218140   4.809   2.577   0.626
 6045TIP3    H118141   4.819   2.499   0.681
 6045TIP3    H218142   4.837   2.650   0.682
 6046TIP3   OH218143   3.829   0.254   0.212
 6046TIP3    H118144   3.864   0.229   0.297
 6046TIP3    H218145   3.807   0.346   0.221
 6047TIP3   OH218146   2.719   2.073   4.663
 6047TIP3    H118147   2.644   2.099   4.610
 6047TIP3    H218148   2.683   2.014   4.729
 6048TIP3   OH218149   5.976   0.298   2.794
 6048TIP3    H118150   6.033   0.363   2.754
 6048TIP3    H218151   5.924   0.348   2.858
 6049TIP3   OH218152   0.471   2.560   1.964
 6049TIP3    H118153   0.423   2.549   2.046
 6049TIP3    H218154   0.403   2.563   1.897
 6050TIP3   OH218155   4.113   4.734   3.215
 6050TIP3    H118156   4.071   4.781   3.143
 6050TIP3    H218157   4.181   4.681   3.174
 6051TIP3   OH218158   1.863   0.205   2.588
 6051TIP3    H118159   1.943   0.157   2.570
 6051TIP3    H218160   1.850   0.261   2.512
 6052TIP3   OH218161   3.534   1.165   2.880
 6052TIP3    H118162   3.448   1.192   2.850
 6052TIP3    H218163   3.560   1.095   2.820
 6053TIP3   OH218164   0.516   4.574   3.154
 6053TIP3    H118165   0.468   4.644   3.109
 6053TIP3    H218166   0.602   4.573   3.112
 6054TIP3   OH218167   4.954   0.613   3.364
 6054TIP3    H118168   4.901   0.547   3.319
 6054TIP3    H218169   4.995   0.567   3.437
 6055TIP3   OH218170   6.077   4.492   3.087
 6055TIP3    H118171   6.022   4.444   3.025
 6055TIP3    H218172   6.149   4.432   3.107
 6056TIP3   OH218173   0.570   3.192   1.062
 6056TIP3    H118174   0.533   3.148   0.986
 6056TIP3    H218175   0.516   3.164   1.136
 6057TIP3   OH218176   5.278   4.100   2.564
 6057TIP3    H118177   5.236   4.018   2.590
 6057TIP3    H218178   5.217   4.140   2.502
 6058TIP3   OH218179   0.839   1.737   0.743
 6058TIP3    H118180   0.856   1.831   0.753
 6058TIP3    H218181   0.853   1.701   0.831
 6059TIP3   OH218182   0.042   3.161   4.440
 6059TIP3    H118183   0.003   3.249   4.440
 6059TIP3    H218184   0.064   3.144   4.532
 6060TIP3   OH218185   4.124   0.179   4.106
 6060TIP3    H118186   4.061   0.143   4.044
 6060TIP3    H218187   4.165   0.102   4.146
 6061TIP3   OH218188   0.714   0.015   0.493
 6061TIP3    H118189   0.661  -0.039   0.553
 6061TIP3    H218190   0.660   0.092   0.477
 6062TIP3   OH218191   0.545   5.861   3.480
 6062TIP3    H118192   0.595   5.780   3.472
 6062TIP3    H218193   0.488   5.847   3.556
 6063TIP3   OH218194   0.290   1.487   0.799
 6063TIP3    H118195   0.281   1.529   0.884
 6063TIP3    H218196   0.206   1.445   0.783
 6064TIP3   OH218197   4.323   3.140   1.092
 6064TIP3    H118198   4.243   3.108   1.134
 6064TIP3    H218199   4.334   3.229   1.127
 6065TIP3   OH218200   4.341   2.953   3.465
 6065TIP3    H118201   4.392   2.983   3.390
 6065TIP3    H218202   4.302   3.033   3.501
 6066TIP3   OH218203   1.236   1.284   2.721
 6066TIP3    H118204   1.223   1.191   2.704
 6066TIP3    H218205   1.277   1.317   2.642
 6067TIP3   OH218206   3.768   3.036   2.160
 6067TIP3    H118207   3.760   3.115   2.108
 6067TIP3    H218208   3.740   3.062   2.248
 6068TIP3   OH218209   2.781   5.671   3.535
 6068TIP3    H118210   2.869   5.656   3.569
 6068TIP3    H218211   2.728   5.601   3.571
 6069TIP3   OH218212   2.837   4.166   1.539
 6069TIP3    H118213   2.808   4.187   1.628
 6069TIP3    H218214   2.755   4.160   1.489
 6070TIP3   OH218215   4.878   5.944   0.830
 6070TIP3    H118216   4.796   5.982   0.800
 6070TIP3    H218217   4.852   5.876   0.891
 6071TIP3   OH218218   2.468   1.717   2.805
 6071TIP3    H118219   2.506   1.696   2.891
 6071TIP3    H218220   2.537   1.767   2.761
 6072TIP3   OH218221   3.267   4.018   0.365
 6072TIP3    H118222   3.305   3.930   0.362
 6072TIP3    H218223   3.248   4.039   0.273
 6073TIP3   OH218224   2.273   6.001   2.694
 6073TIP3    H118225   2.304   5.913   2.718
 6073TIP3    H218226   2.211   5.986   2.624
 6074TIP3   OH218227   5.764   1.020   0.142
 6074TIP3    H118228   5.838   0.964   0.122
 6074TIP3    H218229   5.753   1.074   0.064
 6075TIP3   OH218230   4.029   2.563   3.547
 6075TIP3    H118231   4.042   2.475   3.510
 6075TIP3    H218232   3.961   2.602   3.492
 6076TIP3   OH218233   5.266   3.130   1.766
 6076TIP3    H118234   5.290   3.042   1.736
 6076TIP3    H218235   5.262   3.183   1.687
 6077TIP3   OH218236   1.883   0.550   4.957
 6077TIP3    H118237   1.809   0.550   4.897
 6077TIP3    H218238   1.882   0.637   4.997
 6078TIP3   OH218239   6.364   5.290   1.984
 6078TIP3    H118240   6.307   5.276   1.909
 6078TIP3    H218241   6.325   5.237   2.054
 6079TIP3   OH218242   1.240   5.226   3.306
 6079TIP3    H118243   1.250   5.132   3.291
 6079TIP3    H218244   1.235   5.234   3.401
 6080TIP3   OH218245   2.191   2.307   0.525
 6080TIP3    H118246   2.113   2.345   0.566
 6080TIP3    H218247   2.171   2.214   0.517
 6081TIP3   OH218248   2.188   4.306   2.783
 6081TIP3    H118249   2.112   4.251   2.764
 6081TIP3    H218250   2.245   4.298   2.707
 6082TIP3   OH218251   2.917   1.084   0.300
 6082TIP3    H118252   2.856   1.137   0.350
 6082TIP3    H218253   2.965   1.146   0.245
 6083TIP3   OH218254   1.330   1.423   1.124
 6083TIP3    H118255   1.422   1.432   1.150
 6083TIP3    H218256   1.295   1.355   1.181
 6084TIP3   OH218257   2.062   4.990   4.412
 6084TIP3    H118258   2.097   4.959   4.328
 6084TIP3    H218259   2.023   4.912   4.452
 6085TIP3   OH218260   5.033   1.457   1.012
 6085TIP3    H118261   4.965   1.391   1.000
 6085TIP3    H218262   4.986   1.539   1.024
 6086TIP3   OH218263   3.358   1.375   0.247
 6086TIP3    H118264   3.378   1.414   0.162
 6086TIP3    H218265   3.437   1.326   0.270
 6087TIP3   OH218266   3.636   4.288   4.315
 6087TIP3    H118267   3.702   4.291   4.246
 6087TIP3    H218268   3.565   4.344   4.283
 6088TIP3   OH218269   4.847   1.776   1.968
 6088TIP3    H118270   4.938   1.793   1.943
 6088TIP3    H218271   4.851   1.753   2.061
 6089TIP3   OH218272   4.147   3.903   3.916
 6089TIP3    H118273   4.121   3.878   4.004
 6089TIP3    H218274   4.076   3.961   3.886
 6090TIP3   OH218275   0.924   1.532   0.595
 6090TIP3    H118276   0.951   1.457   0.649
 6090TIP3    H218277   0.920   1.605   0.657
 6091TIP3   OH218278   1.464   2.902   2.058
 6091TIP3    H118279   1.519   2.859   2.124
 6091TIP3    H218280   1.494   2.867   1.974
 6092TIP3   OH218281   2.819   3.670   2.052
 6092TIP3    H118282   2.876   3.689   1.978
 6092TIP3    H218283   2.738   3.717   2.032
 6093TIP3   OH218284   1.701   0.300   0.146
 6093TIP3    H118285   1.753   0.352   0.207
 6093TIP3    H218286   1.740   0.213   0.149
 6094TIP3   OH218287   4.174   1.690   3.044
 6094TIP3    H118288   4.124   1.667   2.965
 6094TIP3    H218289   4.182   1.785   3.040
 6095TIP3   OH218290   5.656   3.974   5.182
 6095TIP3    H118291   5.678   3.881   5.177
 6095TIP3    H218292   5.737   4.019   5.156
 6096TIP3   OH218293   2.152   0.716   4.901
 6096TIP3    H118294   2.227   0.764   4.867
 6096TIP3    H218295   2.127   0.657   4.830
 6097TIP3   OH218296   2.925   4.713   4.688
 6097TIP3    H118297   2.925   4.646   4.620
 6097TIP3    H218298   2.894   4.669   4.766
 6098TIP3   OH218299   2.182   3.552   1.480
 6098TIP3    H118300   2.206   3.542   1.572
 6098TIP3    H218301   2.086   3.552   1.480
 6099TIP3   OH218302   5.432   0.575   1.465
 6099TIP3    H118303   5.469   0.648   1.415
 6099TIP3    H218304   5.381   0.617   1.535
 6100TIP3   OH218305   4.830   0.769   2.365
 6100TIP3    H118306   4.796   0.729   2.445
 6100TIP3    H218307   4.759   0.760   2.301
 6101TIP3   OH218308   3.279   1.142   4.245
 6101TIP3    H118309   3.272   1.121   4.152
 6101TIP3    H218310   3.247   1.064   4.290
 6102TIP3   OH218311   1.849   4.973   0.265
 6102TIP3    H118312   1.897   4.930   0.336
 6102TIP3    H218313   1.842   5.064   0.292
 6103TIP3   OH218314   2.226   5.880   0.313
 6103TIP3    H118315   2.140   5.902   0.277
 6103TIP3    H218316   2.248   5.796   0.273
 6104TIP3   OH218317   5.575   3.608   3.315
 6104TIP3    H118318   5.615   3.521   3.314
 6104TIP3    H218319   5.630   3.659   3.375
 6105TIP3   OH218320   2.087   3.741   4.153
 6105TIP3    H118321   2.019   3.792   4.197
 6105TIP3    H218322   2.062   3.740   4.061
 6106TIP3   OH218323   5.302   4.560   0.558
 6106TIP3    H118324   5.267   4.647   0.577
 6106TIP3    H218325   5.395   4.574   0.542
 6107TIP3   OH218326   5.039   5.711   2.134
 6107TIP3    H118327   4.950   5.738   2.113
 6107TIP3    H218328   5.041   5.704   2.229
 6108TIP3   OH218329   3.982   2.142   5.052
 6108TIP3    H118330   3.967   2.229   5.088
 6108TIP3    H218331   4.011   2.090   5.127
 6109TIP3   OH218332   0.832   5.740   1.547
 6109TIP3    H118333   0.896   5.732   1.618
 6109TIP3    H218334   0.783   5.658   1.549
 6110TIP3   OH218335   0.886   5.273   0.296
 6110TIP3    H118336   0.797   5.305   0.309
 6110TIP3    H218337   0.905   5.290   0.204
 6111TIP3   OH218338   6.046   4.874   0.043
 6111TIP3    H118339   6.066   4.960   0.080
 6111TIP3    H218340   6.076   4.812   0.110
 6112TIP3   OH218341   0.057   2.772   4.253
 6112TIP3    H118342   0.011   2.847   4.216
 6112TIP3    H218343   0.065   2.710   4.180
 6113TIP3   OH218344   4.176   4.223   2.597
 6113TIP3    H118345   4.163   4.249   2.688
 6113TIP3    H218346   4.151   4.130   2.595
 6114TIP3   OH218347   5.504   5.629   2.439
 6114TIP3    H118348   5.521   5.722   2.427
 6114TIP3    H218349   5.572   5.585   2.387
 6115TIP3   OH218350   2.610   2.153   3.083
 6115TIP3    H118351   2.571   2.107   3.157
 6115TIP3    H218352   2.599   2.246   3.103
 6116TIP3   OH218353   4.220   2.388   2.546
 6116TIP3    H118354   4.269   2.471   2.548
 6116TIP3    H218355   4.283   2.324   2.513
 6117TIP3   OH218356   2.009   2.425   2.166
 6117TIP3    H118357   1.939   2.360   2.161
 6117TIP3    H218358   2.078   2.390   2.109
 6118TIP3   OH218359   3.585   1.127   4.014
 6118TIP3    H118360   3.561   1.047   4.061
 6118TIP3    H218361   3.679   1.118   3.998
 6119TIP3   OH218362   0.850   0.149   0.085
 6119TIP3    H118363   0.870   0.140  -0.008
 6119TIP3    H218364   0.783   0.083   0.101
 6120TIP3   OH218365   3.219   3.752   2.940
 6120TIP3    H118366   3.146   3.755   3.002
 6120TIP3    H218367   3.222   3.661   2.911
 6121TIP3   OH218368   2.121   1.805   1.927
 6121TIP3    H118369   2.141   1.720   1.966
 6121TIP3    H218370   2.193   1.820   1.865
 6122TIP3   OH218371   5.200   2.411   0.574
 6122TIP3    H118372   5.144   2.392   0.498
 6122TIP3    H218373   5.211   2.326   0.617
 6123TIP3   OH218374   0.979   2.297   0.164
 6123TIP3    H118375   1.031   2.361   0.117
 6123TIP3    H218376   0.947   2.237   0.097
 6124TIP3   OH218377   5.660   5.011   2.633
 6124TIP3    H118378   5.718   5.018   2.709
 6124TIP3    H218379   5.575   4.989   2.669
 6125TIP3   OH218380   3.893   3.570   2.903
 6125TIP3    H118381   3.928   3.494   2.950
 6125TIP3    H218382   3.853   3.624   2.971
 6126TIP3   OH218383   4.064   0.232   2.404
 6126TIP3    H118384   4.004   0.212   2.332
 6126TIP3    H218385   4.100   0.147   2.431
 6127TIP3   OH218386   0.710   3.648   3.853
 6127TIP3    H118387   0.692   3.637   3.759
 6127TIP3    H218388   0.673   3.569   3.894
 6128TIP3   OH218389   2.145   4.309   3.362
 6128TIP3    H118390   2.211   4.370   3.394
 6128TIP3    H218391   2.080   4.305   3.433
 6129TIP3   OH218392   3.008   5.458   1.683
 6129TIP3    H118393   3.014   5.374   1.729
 6129TIP3    H218394   2.982   5.521   1.750
 6130TIP3   OH218395   1.512   1.046   0.363
 6130TIP3    H118396   1.554   0.960   0.368
 6130TIP3    H218397   1.567   1.096   0.303
 6131TIP3   OH218398   5.073   2.639   4.508
 6131TIP3    H118399   5.054   2.609   4.419
 6131TIP3    H218400   5.019   2.584   4.564
 6132TIP3   OH218401   3.760   0.366   0.996
 6132TIP3    H118402   3.762   0.450   0.951
 6132TIP3    H218403   3.667   0.343   1.001
 6133TIP3   OH218404   2.513   4.344   3.760
 6133TIP3    H118405   2.482   4.280   3.696
 6133TIP3    H218406   2.597   4.375   3.724
 6134TIP3   OH218407   4.499   5.788   3.524
 6134TIP3    H118408   4.579   5.824   3.486
 6134TIP3    H218409   4.428   5.836   3.482
 6135TIP3   OH218410   4.958   2.937   2.750
 6135TIP3    H118411   4.899   2.949   2.677
 6135TIP3    H218412   4.902   2.905   2.821
 6136TIP3   OH218413   0.200   0.233   2.298
 6136TIP3    H118414   0.290   0.224   2.328
 6136TIP3    H218415   0.164   0.145   2.303
 6137TIP3   OH218416   6.043   2.080   1.023
 6137TIP3    H118417   5.987   2.154   1.000
 6137TIP3    H218418   6.036   2.073   1.118
 6138TIP3   OH218419   3.955   5.512   2.783
 6138TIP3    H118420   3.949   5.607   2.795
 6138TIP3    H218421   3.999   5.480   2.862
 6139TIP3   OH218422   0.884   2.933   0.060
 6139TIP3    H118423   0.851   2.843   0.066
 6139TIP3    H218424   0.937   2.934  -0.019
 6140TIP3   OH218425   0.432   1.827   3.758
 6140TIP3    H118426   0.444   1.818   3.852
 6140TIP3    H218427   0.481   1.906   3.735
 6141TIP3   OH218428   1.406   0.177   3.443
 6141TIP3    H118429   1.501   0.175   3.438
 6141TIP3    H218430   1.377   0.133   3.363
 6142TIP3   OH218431   4.853   5.440   0.962
 6142TIP3    H118432   4.783   5.488   1.006
 6142TIP3    H218433   4.926   5.502   0.959
 6143TIP3   OH218434   0.575   0.773   3.381
 6143TIP3    H118435   0.526   0.714   3.438
 6143TIP3    H218436   0.524   0.776   3.300
 6144TIP3   OH218437   4.152   4.983   0.302
 6144TIP3    H118438   4.200   4.973   0.220
 6144TIP3    H218439   4.075   5.035   0.278
 6145TIP3   OH218440   2.267   4.178   4.928
 6145TIP3    H118441   2.273   4.087   4.902
 6145TIP3    H218442   2.230   4.176   5.017
 6146TIP3   OH218443   0.481   5.284   2.410
 6146TIP3    H118444   0.397   5.296   2.456
 6146TIP3    H218445   0.456   5.259   2.321
 6147TIP3   OH218446   1.581   1.666   0.967
 6147TIP3    H118447   1.630   1.584   0.969
 6147TIP3    H218448   1.595   1.699   0.878
 6148TIP3   OH218449   1.108   3.898   5.008
 6148TIP3    H118450   1.052   3.931   5.078
 6148TIP3    H218451   1.195   3.892   5.047
 6149TIP3   OH218452   6.017   2.602   4.232
 6149TIP3    H118453   5.956   2.567   4.297
 6149TIP3    H218454   6.050   2.683   4.271
 6150TIP3   OH218455   4.061   0.024   0.676
 6150TIP3    H118456   4.068  -0.007   0.766
 6150TIP3    H218457   4.030   0.114   0.683
 6151TIP3   OH218458   6.249   4.533   4.654
 6151TIP3    H118459   6.224   4.586   4.578
 6151TIP3    H218460   6.281   4.597   4.717
 6152TIP3   OH218461   4.765   0.988   0.919
 6152TIP3    H118462   4.683   1.037   0.913
 6152TIP3    H218463   4.755   0.932   0.995
 6153TIP3   OH218464   5.428   5.720   1.683
 6153TIP3    H118465   5.466   5.695   1.598
 6153TIP3    H218466   5.501   5.756   1.732
 6154TIP3   OH218467   2.532   0.204   1.044
 6154TIP3    H118468   2.457   0.205   1.103
 6154TIP3    H218469   2.608   0.195   1.102
 6155TIP3   OH218470   0.929   4.544   1.283
 6155TIP3    H118471   0.986   4.467   1.284
 6155TIP3    H218472   0.854   4.519   1.336
 6156TIP3   OH218473   0.711   2.619   1.842
 6156TIP3    H118474   0.635   2.659   1.885
 6156TIP3    H218475   0.678   2.535   1.809
 6157TIP3   OH218476   5.790   1.020   3.439
 6157TIP3    H118477   5.849   1.094   3.422
 6157TIP3    H218478   5.780   1.020   3.534
 6158TIP3   OH218479   5.654   2.832   0.667
 6158TIP3    H118480   5.691   2.776   0.599
 6158TIP3    H218481   5.728   2.852   0.725
 6159TIP3   OH218482   2.435   5.206   5.148
 6159TIP3    H118483   2.512   5.232   5.098
 6159TIP3    H218484   2.385   5.287   5.160
 6160TIP3   OH218485   1.276   0.299   1.041
 6160TIP3    H118486   1.286   0.253   1.124
 6160TIP3    H218487   1.329   0.378   1.051
 6161TIP3   OH218488   5.264   0.434   3.986
 6161TIP3    H118489   5.171   0.453   3.984
 6161TIP3    H218490   5.295   0.457   3.898
 6162TIP3   OH218491   5.268   2.855   4.675
 6162TIP3    H118492   5.228   2.800   4.608
 6162TIP3    H218493   5.194   2.886   4.727
 6163TIP3   OH218494   2.368   2.267   0.246
 6163TIP3    H118495   2.421   2.295   0.172
 6163TIP3    H218496   2.420   2.199   0.290
 6164TIP3   OH218497   1.324   1.001   4.217
 6164TIP3    H118498   1.352   0.989   4.308
 6164TIP3    H218499   1.298   1.093   4.212
 6165TIP3   OH218500   3.800   0.924   5.092
 6165TIP3    H118501   3.867   0.913   5.024
 6165TIP3    H218502   3.758   1.008   5.070
 6166TIP3   OH218503   0.538   4.937   1.729
 6166TIP3    H118504   0.614   4.988   1.702
 6166TIP3    H218505   0.504   4.899   1.648
 6167TIP3   OH218506   6.193   1.652   0.627
 6167TIP3    H118507   6.219   1.743   0.614
 6167TIP3    H218508   6.145   1.652   0.709
 6168TIP3   OH218509   1.086   5.773   3.611
 6168TIP3    H118510   1.127   5.806   3.530
 6168TIP3    H218511   1.147   5.706   3.642
 6169TIP3   OH218512   3.215   4.407   1.276
 6169TIP3    H118513   3.235   4.443   1.363
 6169TIP3    H218514   3.200   4.483   1.221
 6170TIP3   OH218515   5.011   5.366   3.623
 6170TIP3    H118516   4.949   5.328   3.560
 6170TIP3    H218517   5.035   5.293   3.679
 6171TIP3   OH218518   2.144   4.333   2.101
 6171TIP3    H118519   2.062   4.315   2.054
 6171TIP3    H218520   2.145   4.270   2.172
 6172TIP3   OH218521   3.519   2.394   3.433
 6172TIP3    H118522   3.502   2.347   3.515
 6172TIP3    H218523   3.433   2.419   3.401
 6173TIP3   OH218524   1.753   2.807   1.497
 6173TIP3    H118525   1.809   2.883   1.482
 6173TIP3    H218526   1.664   2.840   1.482
 6174TIP3   OH218527   1.550   5.000   1.093
 6174TIP3    H118528   1.601   4.978   1.171
 6174TIP3    H218529   1.461   5.009   1.125
 6175TIP3   OH218530   1.333   4.181   2.736
 6175TIP3    H118531   1.276   4.109   2.765
 6175TIP3    H218532   1.356   4.159   2.646
 6176TIP3   OH218533   4.637   1.316   4.158
 6176TIP3    H118534   4.652   1.228   4.193
 6176TIP3    H218535   4.666   1.310   4.067
 6177TIP3   OH218536   4.301   5.265   3.177
 6177TIP3    H118537   4.253   5.220   3.107
 6177TIP3    H218538   4.232   5.298   3.236
 6178TIP3   OH218539   5.547   1.043   4.123
 6178TIP3    H118540   5.600   1.121   4.140
 6178TIP3    H218541   5.611   0.977   4.095
 6179TIP3   OH218542   3.731   0.915   4.232
 6179TIP3    H118543   3.762   1.002   4.258
 6179TIP3    H218544   3.667   0.891   4.299
 6180TIP3   OH218545   3.647   1.158   5.032
 6180TIP3    H118546   3.578   1.121   4.978
 6180TIP3    H218547   3.634   1.253   5.027
 6181TIP3   OH218548   2.566   3.892   0.152
 6181TIP3    H118549   2.558   3.980   0.188
 6181TIP3    H218550   2.516   3.896   0.070
 6182TIP3   OH218551   3.486   3.351   0.069
 6182TIP3    H118552   3.419   3.417   0.049
 6182TIP3    H218553   3.518   3.323  -0.016
 6183TIP3   OH218554   0.077   0.302   3.156
 6183TIP3    H118555   0.023   0.367   3.112
 6183TIP3    H218556   0.052   0.308   3.248
 6184TIP3   OH218557   0.280   4.064   3.870
 6184TIP3    H118558   0.282   4.005   3.795
 6184TIP3    H218559   0.339   4.135   3.845
 6185TIP3   OH218560   5.599   5.807   0.013
 6185TIP3    H118561   5.571   5.872  -0.051
 6185TIP3    H218562   5.569   5.841   0.098
 6186TIP3   OH218563   0.563   0.983   0.516
 6186TIP3    H118564   0.652   0.976   0.550
 6186TIP3    H218565   0.553   0.905   0.460
 6187TIP3   OH218566   3.978   4.065   2.937
 6187TIP3    H118567   3.913   4.019   2.885
 6187TIP3    H218568   4.032   3.995   2.975
 6188TIP3   OH218569   1.378   1.068   0.060
 6188TIP3    H118570   1.430   0.990   0.083
 6188TIP3    H218571   1.291   1.033   0.039
 6189TIP3   OH218572   1.477   0.184   3.743
 6189TIP3    H118573   1.470   0.197   3.648
 6189TIP3    H218574   1.549   0.242   3.769
 6190TIP3   OH218575   0.223   1.526   2.900
 6190TIP3    H118576   0.279   1.472   2.845
 6190TIP3    H218577   0.148   1.471   2.920
 6191TIP3   OH218578   1.339   3.139   0.105
 6191TIP3    H118579   1.405   3.122   0.038
 6191TIP3    H218580   1.388   3.148   0.186
 6192TIP3   OH218581   0.872   0.680   4.637
 6192TIP3    H118582   0.799   0.664   4.697
 6192TIP3    H218583   0.942   0.623   4.669
 6193TIP3   OH218584   6.310   0.810   1.769
 6193TIP3    H118585   6.270   0.728   1.799
 6193TIP3    H218586   6.242   0.876   1.781
 6194TIP3   OH218587   6.057   5.759   5.080
 6194TIP3    H118588   6.139   5.804   5.097
 6194TIP3    H218589   5.990   5.813   5.122
 6195TIP3   OH218590   4.884   2.395   0.834
 6195TIP3    H118591   4.895   2.305   0.802
 6195TIP3    H218592   4.971   2.422   0.862
 6196TIP3   OH218593   4.194   1.281   3.897
 6196TIP3    H118594   4.242   1.223   3.956
 6196TIP3    H218595   4.242   1.364   3.901
 6197TIP3   OH218596   4.132   1.982   0.444
 6197TIP3    H118597   4.191   1.925   0.394
 6197TIP3    H218598   4.142   1.954   0.535
 6198TIP3   OH218599   3.806   1.036   2.591
 6198TIP3    H118600   3.846   0.949   2.595
 6198TIP3    H218601   3.787   1.049   2.498
 6199TIP3   OH218602   3.328   1.206   3.971
 6199TIP3    H118603   3.412   1.221   4.014
 6199TIP3    H218604   3.351   1.171   3.885
 6200TIP3   OH218605   3.719   2.133   3.352
 6200TIP3    H118606   3.716   2.043   3.384
 6200TIP3    H218607   3.635   2.144   3.306
 6201TIP3   OH218608   0.290   2.604   3.104
 6201TIP3    H118609   0.359   2.596   3.169
 6201TIP3    H218610   0.335   2.593   3.020
 6202TIP3   OH218611   1.350   0.715   0.735
 6202TIP3    H118612   1.423   0.775   0.721
 6202TIP3    H218613   1.273   0.766   0.711
 6203TIP3   OH218614   1.038   2.850   5.037
 6203TIP3    H118615   0.991   2.769   5.020
 6203TIP3    H218616   0.988   2.893   5.107
 6204TIP3   OH218617   2.614   3.262   0.651
 6204TIP3    H118618   2.678   3.333   0.650
 6204TIP3    H218619   2.553   3.284   0.580
 6205TIP3   OH218620   1.662   4.267   4.230
 6205TIP3    H118621   1.677   4.187   4.180
 6205TIP3    H218622   1.662   4.239   4.321
 6206TIP3   OH218623   2.854   5.938   3.423
 6206TIP3    H118624   2.946   5.924   3.401
 6206TIP3    H218625   2.826   5.857   3.465
 6207TIP3   OH218626   4.674   4.355   2.894
 6207TIP3    H118627   4.729   4.361   2.816
 6207TIP3    H218628   4.590   4.325   2.861
 6208TIP3   OH218629   3.984   2.609   2.211
 6208TIP3    H118630   3.930   2.661   2.152
 6208TIP3    H218631   3.931   2.532   2.231
 6209TIP3   OH218632   4.619   2.793   0.795
 6209TIP3    H118633   4.701   2.832   0.824
 6209TIP3    H218634   4.553   2.860   0.814
 6210TIP3   OH218635   1.953   3.560   0.451
 6210TIP3    H118636   1.947   3.478   0.403
 6210TIP3    H218637   1.864   3.596   0.449
 6211TIP3   OH218638   1.491   2.757   3.866
 6211TIP3    H118639   1.478   2.669   3.831
 6211TIP3    H218640   1.409   2.778   3.910
 6212TIP3   OH218641   5.167   4.391   2.035
 6212TIP3    H118642   5.166   4.416   1.943
 6212TIP3    H218643   5.213   4.308   2.037
 6213TIP3   OH218644   1.035   5.374   3.198
 6213TIP3    H118645   1.096   5.311   3.235
 6213TIP3    H218646   1.072   5.398   3.114
 6214TIP3   OH218647   4.171   2.772   0.103
 6214TIP3    H118648   4.189   2.801   0.193
 6214TIP3    H218649   4.257   2.765   0.062
 6215TIP3   OH218650   5.345   3.634   3.109
 6215TIP3    H118651   5.436   3.622   3.084
 6215TIP3    H218652   5.337   3.591   3.194
 6216TIP3   OH218653   4.759   1.041   2.987
 6216TIP3    H118654   4.766   0.946   2.978
 6216TIP3    H218655   4.675   1.062   2.946
 6217TIP3   OH218656   4.674   3.576   5.031
 6217TIP3    H118657   4.711   3.494   4.999
 6217TIP3    H218658   4.582   3.557   5.047
 6218TIP3   OH218659   1.254   4.074   3.386
 6218TIP3    H118660   1.273   4.011   3.456
 6218TIP3    H218661   1.331   4.070   3.329
 6219TIP3   OH218662   4.614   0.413   1.577
 6219TIP3    H118663   4.621   0.463   1.658
 6219TIP3    H218664   4.549   0.345   1.596
 6220TIP3   OH218665   4.850   5.211   0.123
 6220TIP3    H118666   4.846   5.266   0.045
 6220TIP3    H218667   4.931   5.237   0.167
 6221TIP3   OH218668   0.159   2.837   1.170
 6221TIP3    H118669   0.162   2.769   1.238
 6221TIP3    H218670   0.085   2.813   1.115
 6222TIP3   OH218671   1.255   4.326   3.873
 6222TIP3    H118672   1.302   4.246   3.849
 6222TIP3    H218673   1.262   4.331   3.968
 6223TIP3   OH218674   3.784   1.842   3.021
 6223TIP3    H118675   3.795   1.936   3.037
 6223TIP3    H218676   3.690   1.827   3.028
 6224TIP3   OH218677   5.305   0.063   4.797
 6224TIP3    H118678   5.399   0.052   4.780
 6224TIP3    H218679   5.266   0.073   4.710
 6225TIP3   OH218680   1.976   0.422   2.011
 6225TIP3    H118681   2.004   0.487   1.946
 6225TIP3    H218682   1.881   0.424   2.008
 6226TIP3   OH218683   0.085  -0.030   4.744
 6226TIP3    H118684   0.124   0.048   4.784
 6226TIP3    H218685   0.086  -0.011   4.650
 6227TIP3   OH218686   1.614   2.041   0.311
 6227TIP3    H118687   1.707   2.016   0.313
 6227TIP3    H218688   1.581   2.004   0.230
 6228TIP3   OH218689   4.928   1.248   2.012
 6228TIP3    H118690   4.888   1.179   1.960
 6228TIP3    H218691   4.920   1.326   1.958
 6229TIP3   OH218692   3.005   2.144   4.628
 6229TIP3    H118693   2.912   2.124   4.633
 6229TIP3    H218694   3.012   2.212   4.561
 6230TIP3   OH218695   1.704   5.885   1.139
 6230TIP3    H118696   1.688   5.976   1.164
 6230TIP3    H218697   1.653   5.834   1.203
 6231TIP3   OH218698   5.725   0.955   4.523
 6231TIP3    H118699   5.732   0.927   4.614
 6231TIP3    H218700   5.735   0.874   4.472
 6232TIP3   OH218701   0.327   4.449   2.284
 6232TIP3    H118702   0.392   4.380   2.271
 6232TIP3    H218703   0.248   4.404   2.312
 6233TIP3   OH218704   4.487   5.433   0.006
 6233TIP3    H118705   4.430   5.441  -0.071
 6233TIP3    H218706   4.432   5.461   0.079
 6234TIP3   OH218707   4.305   2.955   2.756
 6234TIP3    H118708   4.271   2.871   2.787
 6234TIP3    H218709   4.296   2.951   2.661
 6235TIP3   OH218710   3.395   1.485   1.942
 6235TIP3    H118711   3.451   1.557   1.970
 6235TIP3    H218712   3.429   1.462   1.855
 6236TIP3   OH218713   3.656   3.668   0.062
 6236TIP3    H118714   3.729   3.658   0.122
 6236TIP3    H218715   3.680   3.615  -0.014
 6237TIP3   OH218716   4.757   1.073   2.389
 6237TIP3    H118717   4.797   1.001   2.342
 6237TIP3    H218718   4.815   1.148   2.374
 6238TIP3   OH218719   4.250   2.640   5.014
 6238TIP3    H118720   4.202   2.720   4.989
 6238TIP3    H218721   4.195   2.599   5.080
 6239TIP3   OH218722   3.031   1.575   1.889
 6239TIP3    H118723   2.977   1.498   1.904
 6239TIP3    H218724   3.092   1.549   1.820
 6240TIP3   OH218725   2.179   5.487   4.096
 6240TIP3    H118726   2.164   5.522   4.008
 6240TIP3    H218727   2.102   5.516   4.146
 6241TIP3   OH218728   0.569   4.092   2.933
 6241TIP3    H118729   0.525   4.158   2.987
 6241TIP3    H218730   0.608   4.033   2.997
 6242TIP3   OH218731   1.313   3.558   2.040
 6242TIP3    H118732   1.300   3.648   2.069
 6242TIP3    H218733   1.379   3.565   1.970
 6243TIP3   OH218734   4.065   0.771   3.391
 6243TIP3    H118735   4.016   0.697   3.427
 6243TIP3    H218736   4.012   0.847   3.411
 6244TIP3   OH218737   3.952   0.934   4.547
 6244TIP3    H118738   4.024   0.888   4.591
 6244TIP3    H218739   3.874   0.908   4.596
 6245TIP3   OH218740   5.698   4.996   1.298
 6245TIP3    H118741   5.623   4.990   1.358
 6245TIP3    H218742   5.722   4.905   1.282
 6246TIP3   OH218743   2.622   2.686   0.072
 6246TIP3    H118744   2.629   2.782   0.078
 6246TIP3    H218745   2.700   2.654   0.117
 6247TIP3   OH218746   4.473   0.958   4.441
 6247TIP3    H118747   4.416   1.033   4.424
 6247TIP3    H218748   4.529   0.952   4.364
 6248TIP3   OH218749   0.212   4.167   1.032
 6248TIP3    H118750   0.194   4.077   1.005
 6248TIP3    H218751   0.305   4.180   1.013
 6249TIP3   OH218752   2.498   2.868   4.111
 6249TIP3    H118753   2.540   2.917   4.182
 6249TIP3    H218754   2.515   2.776   4.132
 6250TIP3   OH218755   3.886   2.468   1.914
 6250TIP3    H118756   3.878   2.557   1.948
 6250TIP3    H218757   3.837   2.414   1.975
 6251TIP3   OH218758   4.390   4.727   2.202
 6251TIP3    H118759   4.480   4.753   2.185
 6251TIP3    H218760   4.339   4.772   2.133
 6252TIP3   OH218761   4.045   1.710   1.531
 6252TIP3    H118762   4.123   1.730   1.479
 6252TIP3    H218763   4.007   1.795   1.553
 6253TIP3   OH218764   3.613   2.699  -0.012
 6253TIP3    H118765   3.681   2.703   0.056
 6253TIP3    H218766   3.537   2.663   0.033
 6254TIP3   OH218767   4.583   0.342   4.363
 6254TIP3    H118768   4.519   0.394   4.413
 6254TIP3    H218769   4.530   0.294   4.299
 6255TIP3   OH218770   0.475   1.586   4.007
 6255TIP3    H118771   0.500   1.543   3.925
 6255TIP3    H218772   0.557   1.594   4.055
 6256TIP3   OH218773   4.892   1.677   2.987
 6256TIP3    H118774   4.906   1.623   3.065
 6256TIP3    H218775   4.797   1.674   2.973
 6257TIP3   OH218776   6.208   5.446   4.545
 6257TIP3    H118777   6.255   5.526   4.566
 6257TIP3    H218778   6.131   5.475   4.498
 6258TIP3   OH218779   6.089   4.699   1.050
 6258TIP3    H118780   6.079   4.781   1.099
 6258TIP3    H218781   6.137   4.641   1.109
 6259TIP3   OH218782   2.708   4.193   3.098
 6259TIP3    H118783   2.723   4.127   3.166
 6259TIP3    H218784   2.668   4.145   3.026
 6260TIP3   OH218785   0.045   1.960   4.204
 6260TIP3    H118786   0.007   1.911   4.277
 6260TIP3    H218787   0.098   2.028   4.245
 6261TIP3   OH218788   4.194   2.769   3.618
 6261TIP3    H118789   4.153   2.689   3.586
 6261TIP3    H218790   4.256   2.794   3.550
 6262TIP3   OH218791   3.258   2.903   2.154
 6262TIP3    H118792   3.246   2.807   2.154
 6262TIP3    H218793   3.233   2.930   2.066
 6263TIP3   OH218794   4.826   3.408   3.376
 6263TIP3    H118795   4.865   3.458   3.304
 6263TIP3    H218796   4.732   3.415   3.362
 6264TIP3   OH218797   3.789   0.861   4.752
 6264TIP3    H118798   3.846   0.792   4.786
 6264TIP3    H218799   3.701   0.824   4.755
 6265TIP3   OH218800   5.436   2.577   3.402
 6265TIP3    H118801   5.482   2.640   3.458
 6265TIP3    H218802   5.367   2.542   3.458
 6266TIP3   OH218803   3.371   3.601   2.685
 6266TIP3    H118804   3.436   3.661   2.720
 6266TIP3    H218805   3.364   3.624   2.592
 6267TIP3   OH218806   4.093   3.712   1.466
 6267TIP3    H118807   4.087   3.693   1.372
 6267TIP3    H218808   4.004   3.699   1.498
 6268TIP3   OH218809   0.387   5.676   4.368
 6268TIP3    H118810   0.372   5.762   4.329
 6268TIP3    H218811   0.391   5.693   4.462
 6269TIP3   OH218812   3.231   2.472   3.730
 6269TIP3    H118813   3.183   2.402   3.775
 6269TIP3    H218814   3.175   2.497   3.657
 6270TIP3   OH218815   3.008   5.779   1.317
 6270TIP3    H118816   3.074   5.846   1.332
 6270TIP3    H218817   3.057   5.703   1.288
 6271TIP3   OH218818   5.016   0.278   0.606
 6271TIP3    H118819   5.059   0.359   0.632
 6271TIP3    H218820   4.970   0.249   0.684
 6272TIP3   OH218821   5.106   2.103   3.665
 6272TIP3    H118822   5.182   2.156   3.690
 6272TIP3    H218823   5.073   2.068   3.748
 6273TIP3   OH218824   6.255   2.524   1.418
 6273TIP3    H118825   6.251   2.504   1.512
 6273TIP3    H218826   6.268   2.439   1.376
 6274TIP3   OH218827   4.421   4.304   2.816
 6274TIP3    H118828   4.335   4.292   2.857
 6274TIP3    H218829   4.400   4.331   2.726
 6275TIP3   OH218830   2.745   4.857   2.443
 6275TIP3    H118831   2.714   4.826   2.359
 6275TIP3    H218832   2.681   4.924   2.469
 6276TIP3   OH218833   5.658   5.287   0.162
 6276TIP3    H118834   5.715   5.251   0.230
 6276TIP3    H218835   5.681   5.380   0.159
 6277TIP3   OH218836   2.172   2.324   3.339
 6277TIP3    H118837   2.259   2.360   3.323
 6277TIP3    H218838   2.157   2.336   3.432
 6278TIP3   OH218839   1.744   1.229   4.973
 6278TIP3    H118840   1.651   1.211   4.956
 6278TIP3    H218841   1.761   1.310   4.927
 6279TIP3   OH218842   5.938   4.931   1.512
 6279TIP3    H118843   5.991   4.969   1.442
 6279TIP3    H218844   5.854   4.978   1.506
 6280TIP3   OH218845   2.495   2.664   1.091
 6280TIP3    H118846   2.466   2.726   1.157
 6280TIP3    H218847   2.541   2.596   1.141
 6281TIP3   OH218848   5.085   3.647   4.747
 6281TIP3    H118849   5.055   3.726   4.792
 6281TIP3    H218850   5.043   3.652   4.661
 6282TIP3   OH218851   4.067   1.913   0.121
 6282TIP3    H118852   4.151   1.870   0.136
 6282TIP3    H218853   4.036   1.875   0.039
 6283TIP3   OH218854   4.362   1.040   1.638
 6283TIP3    H118855   4.393   0.951   1.622
 6283TIP3    H218856   4.267   1.031   1.646
 6284TIP3   OH218857   1.031   0.402   1.078
 6284TIP3    H118858   1.112   0.351   1.078
 6284TIP3    H218859   0.962   0.337   1.069
 6285TIP3   OH218860   3.301   3.554   1.573
 6285TIP3    H118861   3.262   3.468   1.560
 6285TIP3    H218862   3.233   3.616   1.545
 6286TIP3   OH218863   2.105   0.159   4.986
 6286TIP3    H118864   2.041   0.181   5.054
 6286TIP3    H218865   2.052   0.133   4.910
 6287TIP3   OH218866   1.235   1.092   0.816
 6287TIP3    H118867   1.161   1.100   0.876
 6287TIP3    H218868   1.278   1.177   0.818
 6288TIP3   OH218869   2.012   4.942   0.985
 6288TIP3    H118870   1.952   5.004   1.028
 6288TIP3    H218871   1.966   4.859   0.989
 6289TIP3   OH218872   0.231   0.673   5.218
 6289TIP3    H118873   0.262   0.752   5.174
 6289TIP3    H218874   0.239   0.604   5.152
 6290TIP3   OH218875   3.202   2.300   4.848
 6290TIP3    H118876   3.193   2.238   4.921
 6290TIP3    H218877   3.112   2.318   4.820
 6291TIP3   OH218878   5.686   3.359   1.299
 6291TIP3    H118879   5.666   3.416   1.373
 6291TIP3    H218880   5.669   3.271   1.332
 6292TIP3   OH218881   1.247   3.134   5.150
 6292TIP3    H118882   1.229   3.095   5.064
 6292TIP3    H218883   1.342   3.134   5.157
 6293TIP3   OH218884   4.878   1.533   0.077
 6293TIP3    H118885   4.942   1.475   0.118
 6293TIP3    H218886   4.797   1.483   0.078
 6294TIP3   OH218887   4.111   3.051   2.356
 6294TIP3    H118888   4.029   3.020   2.394
 6294TIP3    H218889   4.155   3.097   2.428
 6295TIP3   OH218890   4.417   3.781   2.266
 6295TIP3    H118891   4.462   3.863   2.250
 6295TIP3    H218892   4.349   3.802   2.329
 6296TIP3   OH218893   5.998   1.501   4.961
 6296TIP3    H118894   6.031   1.572   4.908
 6296TIP3    H218895   5.931   1.541   5.017
 6297TIP3   OH218896   5.631   4.370   1.665
 6297TIP3    H118897   5.624   4.286   1.620
 6297TIP3    H218898   5.659   4.346   1.754
 6298TIP3   OH218899   2.325   3.493   1.986
 6298TIP3    H118900   2.418   3.471   1.993
 6298TIP3    H218901   2.295   3.500   2.077
 6299TIP3   OH218902   2.910   1.229   2.792
 6299TIP3    H118903   2.894   1.323   2.782
 6299TIP3    H218904   2.829   1.188   2.761
 6300TIP3   OH218905   0.827   0.834   1.742
 6300TIP3    H118906   0.766   0.840   1.669
 6300TIP3    H218907   0.912   0.817   1.701
 6301TIP3   OH218908   2.962   2.428   2.369
 6301TIP3    H118909   3.012   2.347   2.354
 6301TIP3    H218910   2.947   2.429   2.463
 6302TIP3   OH218911   5.297   1.764   1.570
 6302TIP3    H118912   5.315   1.783   1.478
 6302TIP3    H218913   5.266   1.847   1.607
 6303TIP3   OH218914   2.292   1.038   2.668
 6303TIP3    H118915   2.311   1.131   2.679
 6303TIP3    H218916   2.203   1.037   2.632
 6304TIP3   OH218917   6.008   4.512   3.930
 6304TIP3    H118918   6.091   4.479   3.963
 6304TIP3    H218919   6.025   4.604   3.909
 6305TIP3   OH218920   6.033   3.007   3.370
 6305TIP3    H118921   5.957   3.053   3.407
 6305TIP3    H218922   6.108   3.044   3.416
 6306TIP3   OH218923   1.821   3.304   4.920
 6306TIP3    H118924   1.829   3.224   4.972
 6306TIP3    H218925   1.727   3.309   4.899
 6307TIP3   OH218926   4.872   3.973   0.938
 6307TIP3    H118927   4.789   4.021   0.937
 6307TIP3    H218928   4.938   4.041   0.954
 6308TIP3   OH218929   6.089   2.993   1.103
 6308TIP3    H118930   6.151   3.036   1.162
 6308TIP3    H218931   6.005   2.995   1.150
 6309TIP3   OH218932   1.212   5.545   3.742
 6309TIP3    H118933   1.117   5.553   3.754
 6309TIP3    H218934   1.222   5.466   3.688
 6310TIP3   OH218935   0.482   3.922   2.752
 6310TIP3    H118936   0.562   3.917   2.699
 6310TIP3    H218937   0.508   3.973   2.829
 6311TIP3   OH218938   1.804   5.145   0.791
 6311TIP3    H118939   1.711   5.125   0.788
 6311TIP3    H218940   1.830   5.128   0.881
 6312TIP3   OH218941   2.139   4.319   1.063
 6312TIP3    H118942   2.057   4.271   1.075
 6312TIP3    H218943   2.207   4.259   1.095
 6313TIP3   OH218944   4.373   3.135   0.351
 6313TIP3    H118945   4.353   3.128   0.445
 6313TIP3    H218946   4.457   3.090   0.342
 6314TIP3   OH218947   5.501   4.601   4.682
 6314TIP3    H118948   5.509   4.509   4.706
 6314TIP3    H218949   5.589   4.637   4.693
 6315TIP3   OH218950   3.983   4.526   4.682
 6315TIP3    H118951   3.920   4.495   4.617
 6315TIP3    H218952   3.931   4.575   4.746
 6316TIP3   OH218953   0.402   1.984   0.710
 6316TIP3    H118954   0.311   2.013   0.719
 6316TIP3    H218955   0.450   2.064   0.685
 6317TIP3   OH218956   5.683   1.263   1.234
 6317TIP3    H118957   5.711   1.241   1.323
 6317TIP3    H218958   5.746   1.218   1.178
 6318TIP3   OH218959   3.738   0.956   3.805
 6318TIP3    H118960   3.814   0.960   3.863
 6318TIP3    H218961   3.666   0.931   3.862
 6319TIP3   OH218962   3.846   3.840   2.795
 6319TIP3    H118963   3.758   3.871   2.816
 6319TIP3    H218964   3.848   3.749   2.827
 6320TIP3   OH218965   2.716   5.957   1.106
 6320TIP3    H118966   2.751   5.918   1.026
 6320TIP3    H218967   2.785   5.944   1.171
 6321TIP3   OH218968   2.799   2.602   5.078
 6321TIP3    H118969   2.719   2.552   5.097
 6321TIP3    H218970   2.804   2.604   4.983
 6322TIP3   OH218971   0.251   3.909   0.957
 6322TIP3    H118972   0.276   3.929   0.866
 6322TIP3    H218973   0.227   3.817   0.955
 6323TIP3   OH218974   3.419   2.166   2.130
 6323TIP3    H118975   3.457   2.096   2.183
 6323TIP3    H218976   3.370   2.119   2.062
 6324TIP3   OH218977   3.199   5.591   3.286
 6324TIP3    H118978   3.249   5.540   3.222
 6324TIP3    H218979   3.132   5.531   3.319
 6325TIP3   OH218980   4.015   4.507   0.632
 6325TIP3    H118981   4.100   4.518   0.591
 6325TIP3    H218982   4.007   4.580   0.693
 6326TIP3   OH218983   2.369   1.746   2.102
 6326TIP3    H118984   2.411   1.663   2.080
 6326TIP3    H218985   2.277   1.724   2.115
 6327TIP3   OH218986   0.627   3.881   3.999
 6327TIP3    H118987   0.643   3.823   3.924
 6327TIP3    H218988   0.564   3.832   4.053
 6328TIP3   OH218989   2.461   1.826   0.494
 6328TIP3    H118990   2.543   1.785   0.467
 6328TIP3    H218991   2.481   1.866   0.579
 6329TIP3   OH218992   2.562   1.878   3.998
 6329TIP3    H118993   2.656   1.864   3.989
 6329TIP3    H218994   2.554   1.968   4.029
 6330TIP3   OH218995   0.349   5.525   3.965
 6330TIP3    H118996   0.392   5.596   4.012
 6330TIP3    H218997   0.256   5.549   3.965
 6331TIP3   OH218998   1.760   1.213   3.853
 6331TIP3    H118999   1.747   1.131   3.805
 6331TIP3    H219000   1.759   1.281   3.786
 6332TIP3   OH219001   2.861   0.441   4.007
 6332TIP3    H119002   2.812   0.477   3.933
 6332TIP3    H219003   2.952   0.443   3.978
 6333TIP3   OH219004   4.776   4.662   0.654
 6333TIP3    H119005   4.859   4.697   0.621
 6333TIP3    H219006   4.784   4.668   0.749
 6334TIP3   OH219007   3.763   5.481   2.159
 6334TIP3    H119008   3.751   5.475   2.254
 6334TIP3    H219009   3.806   5.565   2.146
 6335TIP3   OH219010   6.263   5.265   5.150
 6335TIP3    H119011   6.266   5.216   5.232
 6335TIP3    H219012   6.227   5.202   5.087
 6336TIP3   OH219013   4.783   0.204   1.892
 6336TIP3    H119014   4.720   0.220   1.963
 6336TIP3    H219015   4.829   0.287   1.882
 6337TIP3   OH219016   6.150   2.620   2.428
 6337TIP3    H119017   6.074   2.562   2.438
 6337TIP3    H219018   6.170   2.617   2.335
 6338TIP3   OH219019   4.750   2.721   2.803
 6338TIP3    H119020   4.723   2.798   2.754
 6338TIP3    H219021   4.677   2.659   2.793
 6339TIP3   OH219022   5.562   2.305   0.830
 6339TIP3    H119023   5.470   2.332   0.831
 6339TIP3    H219024   5.608   2.378   0.787
 6340TIP3   OH219025   3.817   4.338   0.737
 6340TIP3    H119026   3.878   4.406   0.710
 6340TIP3    H219027   3.754   4.383   0.793
 6341TIP3   OH219028   5.515   3.189   2.577
 6341TIP3    H119029   5.463   3.165   2.654
 6341TIP3    H219030   5.585   3.245   2.611
 6342TIP3   OH219031   5.826   0.562   1.343
 6342TIP3    H119032   5.774   0.534   1.417
 6342TIP3    H219033   5.801   0.503   1.272
 6343TIP3   OH219034   2.957   2.769   3.744
 6343TIP3    H119035   2.883   2.802   3.795
 6343TIP3    H219036   3.000   2.848   3.712
 6344TIP3   OH219037   4.616   4.686   2.862
 6344TIP3    H119038   4.600   4.698   2.768
 6344TIP3    H219039   4.618   4.591   2.875
 6345TIP3   OH219040   2.530   2.868   4.598
 6345TIP3    H119041   2.591   2.817   4.651
 6345TIP3    H219042   2.444   2.843   4.630
 6346TIP3   OH219043   5.591   0.585   0.572
 6346TIP3    H119044   5.567   0.492   0.569
 6346TIP3    H219045   5.527   0.624   0.632
 6347TIP3   OH219046   3.490   0.043   3.591
 6347TIP3    H119047   3.512  -0.001   3.508
 6347TIP3    H219048   3.557   0.111   3.600
 6348TIP3   OH219049   1.448   2.055   4.115
 6348TIP3    H119050   1.425   1.967   4.144
 6348TIP3    H219051   1.367   2.089   4.076
 6349TIP3   OH219052   3.354   0.752   2.501
 6349TIP3    H119053   3.300   0.749   2.421
 6349TIP3    H219054   3.339   0.841   2.536
 6350TIP3   OH219055   4.488   4.370   3.545
 6350TIP3    H119056   4.452   4.342   3.629
 6350TIP3    H219057   4.581   4.351   3.551
 6351TIP3   OH219058   4.016   3.107   5.121
 6351TIP3    H119059   4.029   3.131   5.212
 6351TIP3    H219060   3.944   3.043   5.122
 6352TIP3   OH219061   2.022   5.041   4.802
 6352TIP3    H119062   2.069   5.101   4.859
 6352TIP3    H219063   1.972   5.097   4.743
 6353TIP3   OH219064   5.939   1.467   2.761
 6353TIP3    H119065   5.978   1.457   2.674
 6353TIP3    H219066   5.893   1.551   2.758
 6354TIP3   OH219067   4.548   1.122   4.839
 6354TIP3    H119068   4.571   1.101   4.930
 6354TIP3    H219069   4.532   1.217   4.840
 6355TIP3   OH219070   5.818   1.091   1.057
 6355TIP3    H119071   5.888   1.027   1.045
 6355TIP3    H219072   5.845   1.167   1.005
 6356TIP3   OH219073   0.649   5.303   2.024
 6356TIP3    H119074   0.674   5.211   2.017
 6356TIP3    H219075   0.584   5.305   2.095
 6357TIP3   OH219076   3.287   5.653   0.689
 6357TIP3    H119077   3.298   5.724   0.752
 6357TIP3    H219078   3.321   5.575   0.733
 6358TIP3   OH219079   4.247   4.666   4.764
 6358TIP3    H119080   4.163   4.685   4.808
 6358TIP3    H219081   4.310   4.723   4.807
 6359TIP3   OH219082   4.132   0.801   4.706
 6359TIP3    H119083   4.109   0.814   4.798
 6359TIP3    H219084   4.226   0.822   4.702
 6360TIP3   OH219085   0.994   3.755   1.340
 6360TIP3    H119086   1.039   3.693   1.283
 6360TIP3    H219087   1.052   3.765   1.415
 6361TIP3   OH219088   5.847   2.130   2.332
 6361TIP3    H119089   5.896   2.181   2.267
 6361TIP3    H219090   5.771   2.097   2.284
 6362TIP3   OH219091   0.825   4.399   3.901
 6362TIP3    H119092   0.893   4.331   3.904
 6362TIP3    H219093   0.816   4.420   3.808
 6363TIP3   OH219094   2.516   4.692   2.937
 6363TIP3    H119095   2.454   4.745   2.988
 6363TIP3    H219096   2.530   4.741   2.856
 6364TIP3   OH219097   1.963   3.743   1.753
 6364TIP3    H119098   1.912   3.667   1.780
 6364TIP3    H219099   1.897   3.808   1.727
 6365TIP3   OH219100   2.263   1.878   1.359
 6365TIP3    H119101   2.280   1.856   1.450
 6365TIP3    H219102   2.337   1.933   1.333
 6366TIP3   OH219103   1.750   5.135   3.838
 6366TIP3    H119104   1.663   5.116   3.871
 6366TIP3    H219105   1.764   5.071   3.768
 6367TIP3   OH219106   4.250   5.064   4.891
 6367TIP3    H119107   4.303   5.037   4.816
 6367TIP3    H219108   4.309   5.053   4.966
 6368TIP3   OH219109   0.594   2.729   2.204
 6368TIP3    H119110   0.569   2.641   2.177
 6368TIP3    H219111   0.529   2.753   2.271
 6369TIP3   OH219112   4.306   2.490   3.996
 6369TIP3    H119113   4.364   2.491   3.920
 6369TIP3    H219114   4.292   2.582   4.017
 6370TIP3   OH219115   3.945   1.335   1.183
 6370TIP3    H119116   3.879   1.290   1.130
 6370TIP3    H219117   4.009   1.267   1.206
 6371TIP3   OH219118   3.002   4.754   0.305
 6371TIP3    H119119   3.038   4.838   0.278
 6371TIP3    H219120   3.051   4.731   0.384
 6372TIP3   OH219121   5.761   4.934   4.034
 6372TIP3    H119122   5.724   4.906   3.950
 6372TIP3    H219123   5.784   5.026   4.020
 6373TIP3   OH219124   5.335   1.782   0.876
 6373TIP3    H119125   5.249   1.813   0.845
 6373TIP3    H219126   5.398   1.823   0.816
 6374TIP3   OH219127   5.039   0.232   3.106
 6374TIP3    H119128   5.074   0.295   3.043
 6374TIP3    H219129   5.018   0.154   3.054
 6375TIP3   OH219130   1.048   4.214   4.998
 6375TIP3    H119131   1.022   4.179   4.913
 6375TIP3    H219132   0.982   4.179   5.059
 6376TIP3   OH219133   1.616   0.645   3.706
 6376TIP3    H119134   1.546   0.580   3.717
 6376TIP3    H219135   1.685   0.598   3.660
 6377TIP3   OH219136   4.083   2.296   3.371
 6377TIP3    H119137   4.175   2.319   3.384
 6377TIP3    H219138   4.075   2.280   3.277
 6378TIP3   OH219139   5.355   0.912   2.199
 6378TIP3    H119140   5.267   0.925   2.164
 6378TIP3    H219141   5.383   0.999   2.225
 6379TIP3   OH219142   3.419   4.191   4.669
 6379TIP3    H119143   3.366   4.115   4.691
 6379TIP3    H219144   3.363   4.244   4.611
 6380TIP3   OH219145   6.167   4.942   3.205
 6380TIP3    H119146   6.136   4.984   3.125
 6380TIP3    H219147   6.180   5.015   3.266
 6381TIP3   OH219148   4.052   0.769   1.757
 6381TIP3    H119149   4.080   0.834   1.822
 6381TIP3    H219150   4.078   0.805   1.673
 6382TIP3   OH219151   3.265   5.442   2.152
 6382TIP3    H119152   3.206   5.374   2.184
 6382TIP3    H219153   3.323   5.459   2.226
 6383TIP3   OH219154   4.948   2.543   2.901
 6383TIP3    H119155   5.026   2.577   2.858
 6383TIP3    H219156   4.880   2.608   2.883
 6384TIP3   OH219157   3.969   2.872   4.448
 6384TIP3    H119158   4.024   2.810   4.495
 6384TIP3    H219159   4.020   2.952   4.444
 6385TIP3   OH219160   4.890   0.838   2.048
 6385TIP3    H119161   4.816   0.812   2.103
 6385TIP3    H219162   4.876   0.932   2.033
 6386TIP3   OH219163   4.833   3.065   3.167
 6386TIP3    H119164   4.771   2.993   3.159
 6386TIP3    H219165   4.908   3.038   3.113
 6387TIP3   OH219166   3.880   2.080   2.856
 6387TIP3    H119167   3.799   2.081   2.906
 6387TIP3    H219168   3.890   2.170   2.825
 6388TIP3   OH219169   1.961   5.768   3.808
 6388TIP3    H119170   1.996   5.679   3.807
 6388TIP3    H219171   1.999   5.810   3.730
 6389TIP3   OH219172   0.359   3.694   3.172
 6389TIP3    H119173   0.374   3.783   3.202
 6389TIP3    H219174   0.317   3.704   3.086
 6390TIP3   OH219175   0.479   5.170   0.083
 6390TIP3    H119176   0.449   5.142   0.169
 6390TIP3    H219177   0.573   5.151   0.083
 6391TIP3   OH219178   5.905   1.921   1.379
 6391TIP3    H119179   5.970   1.903   1.311
 6391TIP3    H219180   5.823   1.932   1.333
 6392TIP3   OH219181   6.218   0.422   0.420
 6392TIP3    H119182   6.183   0.500   0.462
 6392TIP3    H219183   6.245   0.366   0.493
 6393TIP3   OH219184   4.437   3.900   0.151
 6393TIP3    H119185   4.449   3.945   0.234
 6393TIP3    H219186   4.506   3.935   0.095
 6394TIP3   OH219187   2.632   2.399   5.120
 6394TIP3    H119188   2.623   2.357   5.034
 6394TIP3    H219189   2.545   2.434   5.138
 6395TIP3   OH219190   5.485   0.084   3.135
 6395TIP3    H119191   5.575   0.051   3.137
 6395TIP3    H219192   5.431   0.006   3.139
 6396TIP3   OH219193   4.101   5.797   2.833
 6396TIP3    H119194   4.178   5.741   2.840
 6396TIP3    H219195   4.119   5.853   2.758
 6397TIP3   OH219196   2.178   2.239   4.761
 6397TIP3    H119197   2.265   2.237   4.721
 6397TIP3    H219198   2.189   2.291   4.841
 6398TIP3   OH219199   5.462   2.508   2.500
 6398TIP3    H119200   5.484   2.570   2.430
 6398TIP3    H219201   5.443   2.563   2.576
 6399TIP3   OH219202   3.081   5.693   0.515
 6399TIP3    H119203   3.040   5.758   0.572
 6399TIP3    H219204   3.163   5.671   0.559
 6400TIP3   OH219205   3.181   3.654   3.882
 6400TIP3    H119206   3.203   3.681   3.971
 6400TIP3    H219207   3.128   3.726   3.847
 6401TIP3   OH219208   1.139   5.368   3.538
 6401TIP3    H119209   1.045   5.381   3.527
 6401TIP3    H219210   1.180   5.442   3.493
 6402TIP3   OH219211   6.149   4.660   4.220
 6402TIP3    H119212   6.195   4.578   4.204
 6402TIP3    H219213   6.204   4.728   4.180
 6403TIP3   OH219214   2.561   5.426   1.148
 6403TIP3    H119215   2.642   5.462   1.184
 6403TIP3    H219216   2.588   5.345   1.106
 6404TIP3   OH219217   5.535   2.500   2.113
 6404TIP3    H119218   5.621   2.502   2.155
 6404TIP3    H219219   5.544   2.554   2.035
 6405TIP3   OH219220   2.274   0.389   4.096
 6405TIP3    H119221   2.361   0.411   4.131
 6405TIP3    H219222   2.285   0.302   4.059
 6406TIP3   OH219223   5.446   0.280   1.159
 6406TIP3    H119224   5.464   0.362   1.113
 6406TIP3    H219225   5.486   0.212   1.104
 6407TIP3   OH219226   5.299   1.120   4.072
 6407TIP3    H119227   5.303   1.212   4.099
 6407TIP3    H219228   5.384   1.084   4.094
 6408TIP3   OH219229   3.359   4.879   2.040
 6408TIP3    H119230   3.446   4.843   2.026
 6408TIP3    H219231   3.316   4.818   2.100
 6409TIP3   OH219232   4.664   4.975   2.955
 6409TIP3    H119233   4.653   4.948   2.864
 6409TIP3    H219234   4.748   4.936   2.981
 6410TIP3   OH219235   2.807   4.590   5.166
 6410TIP3    H119236   2.861   4.608   5.089
 6410TIP3    H219237   2.780   4.499   5.155
 6411TIP3   OH219238   6.091   3.643   0.158
 6411TIP3    H119239   6.152   3.596   0.102
 6411TIP3    H219240   6.143   3.668   0.235
 6412TIP3   OH219241   0.959   4.165   4.738
 6412TIP3    H119242   0.982   4.120   4.657
 6412TIP3    H219243   0.952   4.257   4.713
 6413TIP3   OH219244   5.802   5.998   3.157
 6413TIP3    H119245   5.829   5.914   3.194
 6413TIP3    H219246   5.707   5.995   3.159
 6414TIP3   OH219247   3.478   3.365   2.682
 6414TIP3    H119248   3.568   3.398   2.678
 6414TIP3    H219249   3.425   3.436   2.648
 6415TIP3   OH219250   3.367   3.717   0.423
 6415TIP3    H119251   3.406   3.630   0.430
 6415TIP3    H219252   3.436   3.771   0.384
 6416TIP3   OH219253   0.972   2.574   1.621
 6416TIP3    H119254   0.940   2.504   1.678
 6416TIP3    H219255   0.926   2.561   1.538
 6417TIP3   OH219256   5.791   0.628   1.776
 6417TIP3    H119257   5.873   0.577   1.775
 6417TIP3    H219258   5.786   0.663   1.865
 6418TIP3   OH219259   0.234   1.278   4.311
 6418TIP3    H119260   0.279   1.355   4.344
 6418TIP3    H219261   0.249   1.280   4.216
 6419TIP3   OH219262   0.602   3.723   4.324
 6419TIP3    H119263   0.566   3.649   4.374
 6419TIP3    H219264   0.530   3.786   4.319
 6420TIP3   OH219265   5.080   3.544   2.878
 6420TIP3    H119266   5.103   3.634   2.901
 6420TIP3    H219267   5.055   3.548   2.786
 6421TIP3   OH219268   3.133   4.030   4.375
 6421TIP3    H119269   3.171   4.086   4.308
 6421TIP3    H219270   3.190   3.954   4.378
 6422TIP3   OH219271   6.280   4.149   3.571
 6422TIP3    H119272   6.247   4.235   3.594
 6422TIP3    H219273   6.220   4.088   3.613
 6423TIP3   OH219274   5.558   5.643   3.758
 6423TIP3    H119275   5.531   5.735   3.758
 6423TIP3    H219276   5.512   5.604   3.684
 6424TIP3   OH219277   0.645   3.729   2.609
 6424TIP3    H119278   0.646   3.727   2.705
 6424TIP3    H219279   0.694   3.651   2.583
 6425TIP3   OH219280   4.005   3.595   3.918
 6425TIP3    H119281   4.060   3.649   3.975
 6425TIP3    H219282   3.931   3.652   3.895
 6426TIP3   OH219283   3.411   0.113   2.677
 6426TIP3    H119284   3.384   0.132   2.767
 6426TIP3    H219285   3.502   0.142   2.672
 6427TIP3   OH219286   5.818   4.479   4.559
 6427TIP3    H119287   5.884   4.509   4.622
 6427TIP3    H219288   5.851   4.508   4.474
 6428TIP3   OH219289   0.173   5.763   3.499
 6428TIP3    H119290   0.220   5.704   3.440
 6428TIP3    H219291   0.223   5.760   3.580
 6429TIP3   OH219292   2.075   3.253   4.379
 6429TIP3    H119293   2.153   3.197   4.374
 6429TIP3    H219294   2.101   3.334   4.335
 6430TIP3   OH219295   1.875   2.895   4.640
 6430TIP3    H119296   1.871   2.927   4.550
 6430TIP3    H219297   1.931   2.817   4.635
 6431TIP3   OH219298   1.260   1.725   4.501
 6431TIP3    H119299   1.224   1.641   4.529
 6431TIP3    H219300   1.280   1.771   4.583
 6432TIP3   OH219301   4.111   4.150   4.901
 6432TIP3    H119302   4.125   4.208   4.827
 6432TIP3    H219303   4.150   4.067   4.875
 6433TIP3   OH219304   5.546   2.970   1.888
 6433TIP3    H119305   5.504   2.978   1.802
 6433TIP3    H219306   5.640   2.975   1.870
 6434TIP3   OH219307   2.887   4.243   1.058
 6434TIP3    H119308   2.948   4.205   1.121
 6434TIP3    H219309   2.823   4.290   1.112
 6435TIP3   OH219310   2.739   5.310   0.974
 6435TIP3    H119311   2.820   5.335   1.019
 6435TIP3    H219312   2.734   5.215   0.984
 6436TIP3   OH219313   1.764   5.814   2.518
 6436TIP3    H119314   1.683   5.786   2.559
 6436TIP3    H219315   1.824   5.831   2.591
 6437TIP3   OH219316   2.165   0.642   0.362
 6437TIP3    H119317   2.159   0.724   0.411
 6437TIP3    H219318   2.104   0.583   0.405
 6438TIP3   OH219319   2.554   5.123   0.012
 6438TIP3    H119320   2.596   5.133  -0.073
 6438TIP3    H219321   2.617   5.071   0.063
 6439TIP3   OH219322   4.675   4.969   4.822
 6439TIP3    H119323   4.689   4.875   4.832
 6439TIP3    H219324   4.762   5.008   4.832
 6440TIP3   OH219325   3.752   5.416   4.873
 6440TIP3    H119326   3.845   5.430   4.892
 6440TIP3    H219327   3.741   5.321   4.874
 6441TIP3   OH219328   4.865   0.516   1.412
 6441TIP3    H119329   4.800   0.471   1.358
 6441TIP3    H219330   4.890   0.592   1.361
 6442TIP3   OH219331   5.185   2.316   2.398
 6442TIP3    H119332   5.228   2.306   2.483
 6442TIP3    H219333   5.252   2.295   2.334
 6443TIP3   OH219334   0.983   2.792   4.549
 6443TIP3    H119335   0.926   2.849   4.497
 6443TIP3    H219336   1.066   2.792   4.501
 6444TIP3   OH219337   0.012   1.561   3.242
 6444TIP3    H119338   0.056   1.614   3.309
 6444TIP3    H219339  -0.054   1.620   3.206
 6445TIP3   OH219340   2.676   1.462   1.218
 6445TIP3    H119341   2.626   1.525   1.166
 6445TIP3    H219342   2.611   1.420   1.274
 6446TIP3   OH219343   2.626   3.122   4.760
 6446TIP3    H119344   2.572   3.057   4.713
 6446TIP3    H219345   2.635   3.195   4.699
 6447TIP3   OH219346   1.900   2.771   3.785
 6447TIP3    H119347   1.903   2.862   3.817
 6447TIP3    H219348   1.878   2.719   3.862
 6448TIP3   OH219349   4.751   0.590   3.583
 6448TIP3    H119350   4.688   0.527   3.548
 6448TIP3    H219351   4.717   0.675   3.556
 6449TIP3   OH219352   2.384   5.491   1.737
 6449TIP3    H119353   2.417   5.551   1.670
 6449TIP3    H219354   2.305   5.453   1.698
 6450TIP3   OH219355   3.284   1.750   0.140
 6450TIP3    H119356   3.205   1.741   0.194
 6450TIP3    H219357   3.261   1.709   0.057
 6451TIP3   OH219358   3.622   3.300   5.140
 6451TIP3    H119359   3.624   3.210   5.107
 6451TIP3    H219360   3.686   3.302   5.210
 6452TIP3   OH219361   4.345   2.192   2.424
 6452TIP3    H119362   4.310   2.118   2.375
 6452TIP3    H219363   4.434   2.166   2.448
 6453TIP3   OH219364   5.372   5.367   0.369
 6453TIP3    H119365   5.351   5.274   0.377
 6453TIP3    H219366   5.358   5.402   0.457
 6454TIP3   OH219367   4.724   5.317   3.041
 6454TIP3    H119368   4.689   5.398   3.078
 6454TIP3    H219369   4.664   5.249   3.071
 6455TIP3   OH219370   5.722   2.895   2.338
 6455TIP3    H119371   5.666   2.962   2.300
 6455TIP3    H219372   5.730   2.828   2.270
 6456TIP3   OH219373   4.477   3.429   2.505
 6456TIP3    H119374   4.523   3.482   2.440
 6456TIP3    H219375   4.443   3.492   2.569
 6457TIP3   OH219376   5.315   3.302   1.561
 6457TIP3    H119377   5.297   3.270   1.472
 6457TIP3    H219378   5.313   3.397   1.553
 6458TIP3   OH219379   5.269   5.484   0.649
 6458TIP3    H119380   5.181   5.503   0.683
 6458TIP3    H219381   5.305   5.569   0.624
 6459TIP3   OH219382   3.608   0.773   1.459
 6459TIP3    H119383   3.670   0.765   1.531
 6459TIP3    H219384   3.600   0.867   1.444
 6460TIP3   OH219385   1.567   3.779   4.616
 6460TIP3    H119386   1.551   3.816   4.703
 6460TIP3    H219387   1.481   3.749   4.587
 6461TIP3   OH219388   2.395   2.796   2.691
 6461TIP3    H119389   2.450   2.745   2.751
 6461TIP3    H219390   2.327   2.735   2.662
 6462TIP3   OH219391   3.529   4.388   1.164
 6462TIP3    H119392   3.451   4.332   1.163
 6462TIP3    H219393   3.535   4.419   1.254
 6463TIP3   OH219394   4.645   5.916   0.495
 6463TIP3    H119395   4.593   5.983   0.539
 6463TIP3    H219396   4.596   5.835   0.507
 6464TIP3   OH219397   4.806   1.297   3.905
 6464TIP3    H119398   4.881   1.269   3.957
 6464TIP3    H219399   4.808   1.242   3.827
 6465TIP3   OH219400   0.022   4.587   3.760
 6465TIP3    H119401  -0.033   4.614   3.686
 6465TIP3    H219402   0.102   4.639   3.752
 6466TIP3   OH219403   5.742   1.065   1.434
 6466TIP3    H119404   5.762   1.038   1.523
 6466TIP3    H219405   5.764   0.990   1.380
 6467TIP3   OH219406   4.865   0.690   3.895
 6467TIP3    H119407   4.933   0.625   3.913
 6467TIP3    H219408   4.827   0.662   3.812
 6468TIP3   OH219409   4.958   2.992   3.730
 6468TIP3    H119410   4.915   2.913   3.697
 6468TIP3    H219411   4.934   3.060   3.667
 6469TIP3   OH219412   3.288   2.365   0.612
 6469TIP3    H119413   3.370   2.414   0.623
 6469TIP3    H219414   3.296   2.323   0.527
 6470TIP3   OH219415   3.258   5.075   0.754
 6470TIP3    H119416   3.344   5.111   0.777
 6470TIP3    H219417   3.224   5.135   0.688
 6471TIP3   OH219418   6.010   5.925   1.152
 6471TIP3    H119419   5.997   5.908   1.058
 6471TIP3    H219420   5.969   6.010   1.167
 6472TIP3   OH219421   3.628   2.619   3.789
 6472TIP3    H119422   3.585   2.659   3.864
 6472TIP3    H219423   3.601   2.672   3.714
 6473TIP3   OH219424   3.888   5.070   3.736
 6473TIP3    H119425   3.926   5.024   3.661
 6473TIP3    H219426   3.802   5.029   3.749
 6474TIP3   OH219427   5.740   0.405   1.144
 6474TIP3    H119428   5.821   0.398   1.093
 6474TIP3    H219429   5.720   0.315   1.170
 6475TIP3   OH219430   3.851   4.041   0.944
 6475TIP3    H119431   3.782   4.105   0.963
 6475TIP3    H219432   3.924   4.067   1.001
 6476TIP3   OH219433   3.456   2.438   4.898
 6476TIP3    H119434   3.390   2.490   4.945
 6476TIP3    H219435   3.508   2.397   4.966
 6477TIP3   OH219436   3.873   5.635   5.101
 6477TIP3    H119437   3.794   5.604   5.145
 6477TIP3    H219438   3.841   5.674   5.020
 6478TIP3   OH219439   5.460   1.355   2.035
 6478TIP3    H119440   5.405   1.323   1.963
 6478TIP3    H219441   5.425   1.442   2.055
 6479TIP3   OH219442   3.353   5.119   1.389
 6479TIP3    H119443   3.331   5.164   1.471
 6479TIP3    H219444   3.425   5.060   1.413
 6480TIP3   OH219445   1.948   4.587   3.238
 6480TIP3    H119446   1.942   4.561   3.330
 6480TIP3    H219447   2.042   4.582   3.219
 6481TIP3   OH219448   2.114   0.440   2.350
 6481TIP3    H119449   2.023   0.415   2.337
 6481TIP3    H219450   2.161   0.357   2.361
 6482TIP3   OH219451   3.191   1.822   0.496
 6482TIP3    H119452   3.224   1.741   0.535
 6482TIP3    H219453   3.117   1.847   0.551
 6483TIP3   OH219454   3.448   1.578   2.281
 6483TIP3    H119455   3.472   1.486   2.269
 6483TIP3    H219456   3.484   1.622   2.204
 6484TIP3   OH219457   4.760   4.833   0.236
 6484TIP3    H119458   4.734   4.754   0.282
 6484TIP3    H219459   4.827   4.873   0.293
 6485TIP3   OH219460   3.617   5.570   1.005
 6485TIP3    H119461   3.550   5.614   0.953
 6485TIP3    H219462   3.568   5.509   1.060
 6486TIP3   OH219463   4.712   5.903   4.554
 6486TIP3    H119464   4.807   5.913   4.562
 6486TIP3    H219465   4.687   5.961   4.482
 6487TIP3   OH219466   2.905   4.882   2.771
 6487TIP3    H119467   2.893   4.843   2.858
 6487TIP3    H219468   2.989   4.928   2.777
 6488TIP3   OH219469   0.081   5.767   4.348
 6488TIP3    H119470   0.128   5.763   4.265
 6488TIP3    H219471  -0.011   5.751   4.324
 6489TIP3   OH219472   0.137   5.506   2.986
 6489TIP3    H119473   0.080   5.562   2.933
 6489TIP3    H219474   0.083   5.429   3.005
 6490TIP3   OH219475   3.316   4.900   4.674
 6490TIP3    H119476   3.265   4.935   4.602
 6490TIP3    H219477   3.279   4.813   4.690
 6491TIP3   OH219478   3.482   0.805   0.896
 6491TIP3    H119479   3.447   0.816   0.807
 6491TIP3    H219480   3.449   0.720   0.924
 6492TIP3   OH219481   2.886   0.602   5.127
 6492TIP3    H119482   2.923   0.636   5.045
 6492TIP3    H219483   2.908   0.667   5.193
 6493TIP3   OH219484   5.814   1.383   1.486
 6493TIP3    H119485   5.741   1.344   1.533
 6493TIP3    H219486   5.772   1.435   1.417
 6494TIP3   OH219487   3.923   0.301   1.813
 6494TIP3    H119488   3.859   0.282   1.881
 6494TIP3    H219489   3.966   0.382   1.842
 6495TIP3   OH219490   0.125   0.467   0.316
 6495TIP3    H119491   0.042   0.434   0.352
 6495TIP3    H219492   0.099   0.540   0.260
 6496TIP3   OH219493   3.079   5.140   0.126
 6496TIP3    H119494   3.075   5.160   0.033
 6496TIP3    H219495   3.097   5.046   0.131
 6497TIP3   OH219496   4.313   4.574   3.112
 6497TIP3    H119497   4.389   4.626   3.085
 6497TIP3    H219498   4.259   4.568   3.034
 6498TIP3   OH219499   2.126   3.963   3.603
 6498TIP3    H119500   2.108   3.870   3.591
 6498TIP3    H219501   2.175   3.988   3.525
 6499TIP3   OH219502   4.837   4.431   3.657
 6499TIP3    H119503   4.877   4.474   3.582
 6499TIP3    H219504   4.902   4.438   3.727
 6500TIP3   OH219505   5.646   2.600   3.237
 6500TIP3    H119506   5.625   2.684   3.196
 6500TIP3    H219507   5.594   2.599   3.317
 6501TIP3   OH219508   1.677   0.400   4.006
 6501TIP3    H119509   1.733   0.465   3.964
 6501TIP3    H219510   1.738   0.344   4.055
 6502TIP3   OH219511   1.044   3.794   2.321
 6502TIP3    H119512   0.975   3.730   2.302
 6502TIP3    H219513   1.000   3.879   2.316
 6503TIP3   OH219514   5.707   5.308   2.796
 6503TIP3    H119515   5.616   5.305   2.827
 6503TIP3    H219516   5.715   5.394   2.754
 6504TIP3   OH219517   3.924   2.656   3.812
 6504TIP3    H119518   3.966   2.602   3.745
 6504TIP3    H219519   3.830   2.638   3.803
 6505TIP3   OH219520   5.038   0.341   4.876
 6505TIP3    H119521   5.023   0.428   4.914
 6505TIP3    H219522   5.068   0.287   4.950
 6506TIP3   OH219523   5.333   4.558   0.982
 6506TIP3    H119524   5.308   4.612   0.908
 6506TIP3    H219525   5.324   4.615   1.058
 6507TIP3   OH219526   3.580   0.218   3.143
 6507TIP3    H119527   3.593   0.125   3.126
 6507TIP3    H219528   3.500   0.223   3.195
 6508TIP3   OH219529   5.697   0.131   1.160
 6508TIP3    H119530   5.663   0.118   1.071
 6508TIP3    H219531   5.626   0.099   1.216
 6509TIP3   OH219532   5.966   1.361   1.146
 6509TIP3    H119533   5.967   1.440   1.201
 6509TIP3    H219534   6.007   1.294   1.200
 6510TIP3   OH219535   3.237   4.967   0.413
 6510TIP3    H119536   3.296   4.911   0.463
 6510TIP3    H219537   3.240   4.931   0.324
 6511TIP3   OH219538   4.625   1.583   3.275
 6511TIP3    H119539   4.587   1.543   3.197
 6511TIP3    H219540   4.719   1.577   3.261
 6512TIP3   OH219541   3.954   4.871   3.561
 6512TIP3    H119542   4.017   4.798   3.556
 6512TIP3    H219543   3.920   4.878   3.472
 6513TIP3   OH219544   0.955   4.374   0.867
 6513TIP3    H119545   0.918   4.454   0.905
 6513TIP3    H219546   1.018   4.406   0.802
 6514TIP3   OH219547   2.981   4.926   1.771
 6514TIP3    H119548   2.922   5.001   1.763
 6514TIP3    H219549   2.925   4.850   1.759
 6515TIP3   OH219550   6.319   0.604   3.800
 6515TIP3    H119551   6.282   0.627   3.715
 6515TIP3    H219552   6.382   0.534   3.781
 6516TIP3   OH219553   6.096   2.789   2.176
 6516TIP3    H119554   6.050   2.815   2.096
 6516TIP3    H219555   6.152   2.864   2.198
 6517TIP3   OH219556   2.054   5.442   0.319
 6517TIP3    H119557   2.135   5.470   0.275
 6517TIP3    H219558   2.008   5.524   0.338
 6518TIP3   OH219559   2.586   5.413   3.494
 6518TIP3    H119560   2.542   5.477   3.438
 6518TIP3    H219561   2.553   5.329   3.465
 6519TIP3   OH219562   3.940   3.330   1.835
 6519TIP3    H119563   3.958   3.307   1.926
 6519TIP3    H219564   3.982   3.416   1.824
 6520TIP3   OH219565   3.414   1.077   2.035
 6520TIP3    H119566   3.497   1.056   1.993
 6520TIP3    H219567   3.383   0.995   2.072
 6521TIP3   OH219568   1.052   3.318   1.537
 6521TIP3    H119569   0.979   3.256   1.539
 6521TIP3    H219570   1.120   3.273   1.486
 6522TIP3   OH219571   5.013   2.058   0.422
 6522TIP3    H119572   4.988   2.150   0.426
 6522TIP3    H219573   4.966   2.017   0.495
 6523TIP3   OH219574   3.124   0.294   1.475
 6523TIP3    H119575   3.166   0.242   1.544
 6523TIP3    H219576   3.096   0.374   1.520
 6524TIP3   OH219577   4.055   5.199   5.040
 6524TIP3    H119578   4.089   5.140   4.973
 6524TIP3    H219579   4.124   5.264   5.051
 6525TIP3   OH219580   4.608   2.747   1.645
 6525TIP3    H119581   4.565   2.806   1.707
 6525TIP3    H219582   4.572   2.772   1.560
 6526TIP3   OH219583   1.405   4.408   4.440
 6526TIP3    H119584   1.399   4.502   4.458
 6526TIP3    H219585   1.496   4.386   4.459
 6527TIP3   OH219586   1.985   2.701   2.205
 6527TIP3    H119587   2.035   2.709   2.286
 6527TIP3    H219588   1.962   2.608   2.200
 6528TIP3   OH219589   6.066   5.674   2.608
 6528TIP3    H119590   6.079   5.768   2.621
 6528TIP3    H219591   5.971   5.663   2.604
 6529TIP3   OH219592   5.605   1.408   0.670
 6529TIP3    H119593   5.639   1.377   0.586
 6529TIP3    H219594   5.524   1.454   0.647
 6530TIP3   OH219595   6.254   4.499   2.691
 6530TIP3    H119596   6.188   4.535   2.750
 6530TIP3    H219597   6.288   4.575   2.643
 6531TIP3   OH219598   1.162   0.993   3.408
 6531TIP3    H119599   1.098   0.938   3.453
 6531TIP3    H219600   1.146   1.081   3.442
 6532TIP3   OH219601   4.277   1.167   4.366
 6532TIP3    H119602   4.188   1.166   4.400
 6532TIP3    H219603   4.289   1.256   4.332
 6533TIP3   OH219604   2.034   0.447   0.521
 6533TIP3    H119605   2.077   0.483   0.599
 6533TIP3    H219606   1.969   0.386   0.556
 6534TIP3   OH219607   3.724   0.132   1.272
 6534TIP3    H119608   3.691   0.221   1.260
 6534TIP3    H219609   3.653   0.076   1.244
 6535TIP3   OH219610   0.007   0.560   2.479
 6535TIP3    H119611   0.045   0.614   2.548
 6535TIP3    H219612   0.070   0.565   2.407
 6536TIP3   OH219613   6.094   5.350   3.437
 6536TIP3    H119614   6.047   5.432   3.449
 6536TIP3    H219615   6.032   5.294   3.389
 6537TIP3   OH219616   1.220   1.531   3.408
 6537TIP3    H119617   1.158   1.537   3.481
 6537TIP3    H219618   1.277   1.607   3.419
 6538TIP3   OH219619   4.051   5.894   3.940
 6538TIP3    H119620   4.069   5.925   4.029
 6538TIP3    H219621   4.002   5.812   3.953
 6539TIP3   OH219622   6.189   5.067   2.691
 6539TIP3    H119623   6.256   5.061   2.623
 6539TIP3    H219624   6.157   4.978   2.701
 6540TIP3   OH219625   2.889   2.012   5.025
 6540TIP3    H119626   2.955   1.996   4.957
 6540TIP3    H219627   2.806   1.994   4.981
 6541TIP3   OH219628   0.867   0.748   0.635
 6541TIP3    H119629   0.888   0.678   0.697
 6541TIP3    H219630   0.938   0.746   0.571
 6542TIP3   OH219631   5.091   4.716   0.242
 6542TIP3    H119632   5.061   4.683   0.158
 6542TIP3    H219633   5.177   4.755   0.223
 6543TIP3   OH219634   3.416   1.543   0.479
 6543TIP3    H119635   3.399   1.558   0.387
 6543TIP3    H219636   3.512   1.545   0.486
 6544TIP3   OH219637   0.199   0.567   3.414
 6544TIP3    H119638   0.124   0.624   3.396
 6544TIP3    H219639   0.161   0.480   3.425
 6545TIP3   OH219640   4.185   1.209   0.578
 6545TIP3    H119641   4.107   1.261   0.598
 6545TIP3    H219642   4.174   1.128   0.627
 6546TIP3   OH219643   6.267   2.428   5.137
 6546TIP3    H119644   6.179   2.422   5.098
 6546TIP3    H219645   6.273   2.351   5.194
 6547TIP3   OH219646   4.112   3.663   2.739
 6547TIP3    H119647   4.111   3.588   2.679
 6547TIP3    H219648   4.036   3.649   2.796
 6548TIP3   OH219649   1.205   0.103   4.374
 6548TIP3    H119650   1.210   0.121   4.280
 6548TIP3    H219651   1.259   0.171   4.415
 6549TIP3   OH219652   1.431   0.984   1.543
 6549TIP3    H119653   1.472   0.972   1.457
 6549TIP3    H219654   1.504   0.988   1.605
 6550TIP3   OH219655   4.592   5.521   3.596
 6550TIP3    H119656   4.544   5.458   3.542
 6550TIP3    H219657   4.589   5.602   3.545
 6551TIP3   OH219658   2.028   1.906   1.213
 6551TIP3    H119659   2.103   1.899   1.272
 6551TIP3    H219660   2.026   1.998   1.187
 6552TIP3   OH219661   0.972   0.446   3.728
 6552TIP3    H119662   1.040   0.380   3.713
 6552TIP3    H219663   1.016   0.516   3.776
 6553TIP3   OH219664   4.073   3.246   1.444
 6553TIP3    H119665   4.015   3.222   1.516
 6553TIP3    H219666   4.156   3.269   1.486
 6554TIP3   OH219667   4.021   1.867   3.482
 6554TIP3    H119668   4.034   1.949   3.530
 6554TIP3    H219669   4.094   1.863   3.421
 6555TIP3   OH219670   2.299   0.061   1.175
 6555TIP3    H119671   2.348   0.048   1.256
 6555TIP3    H219672   2.223   0.005   1.183
 6556TIP3   OH219673   1.576   4.538   3.423
 6556TIP3    H119674   1.667   4.527   3.452
 6556TIP3    H219675   1.526   4.477   3.478
 6557TIP3   OH219676   5.774   2.605   2.410
 6557TIP3    H119677   5.736   2.682   2.453
 6557TIP3    H219678   5.817   2.557   2.481
 6558TIP3   OH219679   6.113   3.049   4.919
 6558TIP3    H119680   6.063   3.066   4.839
 6558TIP3    H219681   6.192   3.005   4.890
 6559TIP3   OH219682   5.757   5.694   4.482
 6559TIP3    H119683   5.750   5.733   4.570
 6559TIP3    H219684   5.752   5.768   4.422
 6560TIP3   OH219685   4.534   5.985   1.839
 6560TIP3    H119686   4.583   6.016   1.916
 6560TIP3    H219687   4.508   5.896   1.862
 6561TIP3   OH219688   4.043   5.429   3.586
 6561TIP3    H119689   4.082   5.417   3.673
 6561TIP3    H219690   4.030   5.340   3.554
 6562TIP3   OH219691   3.741   0.852   0.966
 6562TIP3    H119692   3.760   0.758   0.974
 6562TIP3    H219693   3.648   0.856   0.946
 6563TIP3   OH219694   5.557   1.413   4.343
 6563TIP3    H119695   5.591   1.419   4.432
 6563TIP3    H219696   5.614   1.348   4.300
 6564TIP3   OH219697   1.668   2.135   1.279
 6564TIP3    H119698   1.720   2.075   1.226
 6564TIP3    H219699   1.584   2.142   1.232
 6565TIP3   OH219700   5.792   3.256   3.505
 6565TIP3    H119701   5.832   3.203   3.574
 6565TIP3    H219702   5.701   3.226   3.503
 6566TIP3   OH219703   6.037   1.225   1.368
 6566TIP3    H119704   5.965   1.274   1.409
 6566TIP3    H219705   6.108   1.230   1.432
 6567TIP3   OH219706   0.677   1.045   3.777
 6567TIP3    H119707   0.655   0.953   3.790
 6567TIP3    H219708   0.615   1.076   3.711
 6568TIP3   OH219709   3.987   3.319   4.893
 6568TIP3    H119710   3.956   3.314   4.983
 6568TIP3    H219711   3.994   3.228   4.865
 6569TIP3   OH219712   5.732   5.162   3.724
 6569TIP3    H119713   5.682   5.233   3.765
 6569TIP3    H219714   5.775   5.203   3.649
 6570TIP3   OH219715   0.307   2.621   4.792
 6570TIP3    H119716   0.228   2.567   4.783
 6570TIP3    H219717   0.299   2.663   4.877
 6571TIP3   OH219718   3.472   0.947   3.477
 6571TIP3    H119719   3.455   0.879   3.542
 6571TIP3    H219720   3.540   1.002   3.516
 6572TIP3   OH219721   1.937   2.402   2.691
 6572TIP3    H119722   2.023   2.361   2.689
 6572TIP3    H219723   1.928   2.441   2.604
 6573TIP3   OH219724   0.077   4.053   1.250
 6573TIP3    H119725   0.126   4.104   1.185
 6573TIP3    H219726   0.019   4.117   1.292
 6574TIP3   OH219727   2.837   4.110   1.841
 6574TIP3    H119728   2.774   4.182   1.835
 6574TIP3    H219729   2.914   4.149   1.883
 6575TIP3   OH219730   2.711   5.143   3.953
 6575TIP3    H119731   2.675   5.056   3.933
 6575TIP3    H219732   2.694   5.194   3.874
 6576TIP3   OH219733   5.333   5.557   0.161
 6576TIP3    H119734   5.238   5.558   0.151
 6576TIP3    H219735   5.351   5.485   0.221
 6577TIP3   OH219736   0.234   2.435   5.089
 6577TIP3    H119737   0.268   2.364   5.144
 6577TIP3    H219738   0.250   2.406   4.999
 6578TIP3   OH219739   4.062   1.039   2.938
 6578TIP3    H119740   4.119   1.027   3.014
 6578TIP3    H219741   3.977   1.062   2.976
 6579TIP3   OH219742   0.119   0.593   4.439
 6579TIP3    H119743   0.197   0.608   4.385
 6579TIP3    H219744   0.093   0.680   4.470
 6580TIP3   OH219745   0.911   1.443   4.603
 6580TIP3    H119746   0.870   1.468   4.686
 6580TIP3    H219747   0.912   1.348   4.605
 6581TIP3   OH219748   0.620   5.396   0.347
 6581TIP3    H119749   0.574   5.353   0.419
 6581TIP3    H219750   0.565   5.470   0.323
 6582TIP3   OH219751   0.027   5.289  -0.029
 6582TIP3    H119752  -0.014   5.232   0.036
 6582TIP3    H219753   0.002   5.378  -0.003
 6583TIP3   OH219754   6.296   3.805   4.019
 6583TIP3    H119755   6.328   3.822   4.108
 6583TIP3    H219756   6.324   3.716   4.001
 6584TIP3   OH219757   6.119   4.182   0.512
 6584TIP3    H119758   6.174   4.183   0.590
 6584TIP3    H219759   6.068   4.101   0.520
 6585TIP3   OH219760   4.605   5.225   1.067
 6585TIP3    H119761   4.527   5.170   1.077
 6585TIP3    H219762   4.678   5.163   1.073
 6586TIP3   OH219763   6.149   5.903   2.982
 6586TIP3    H119764   6.204   5.970   3.023
 6586TIP3    H219765   6.191   5.820   3.007
 6587TIP3   OH219766   5.452   1.704   4.894
 6587TIP3    H119767   5.385   1.673   4.834
 6587TIP3    H219768   5.467   1.630   4.953
 6588TIP3   OH219769   4.990   0.620   1.000
 6588TIP3    H119770   5.077   0.658   0.988
 6588TIP3    H219771   5.003   0.551   1.064
 6589TIP3   OH219772   4.269   4.462   1.475
 6589TIP3    H119773   4.214   4.446   1.398
 6589TIP3    H219774   4.276   4.376   1.516
 6590TIP3   OH219775   4.043   3.313   4.010
 6590TIP3    H119776   4.137   3.329   4.023
 6590TIP3    H219777   4.013   3.389   3.960
 6591TIP3   OH219778   1.506   2.580   0.901
 6591TIP3    H119779   1.532   2.671   0.914
 6591TIP3    H219780   1.512   2.541   0.988
 6592TIP3   OH219781   3.362   1.573   3.745
 6592TIP3    H119782   3.355   1.640   3.677
 6592TIP3    H219783   3.308   1.606   3.817
 6593TIP3   OH219784   1.471   3.172   2.033
 6593TIP3    H119785   1.463   3.085   2.072
 6593TIP3    H219786   1.382   3.207   2.034
 6594TIP3   OH219787   2.771   1.334   1.759
 6594TIP3    H119788   2.859   1.298   1.754
 6594TIP3    H219789   2.754   1.343   1.852
 6595TIP3   OH219790   2.391   2.098   3.255
 6595TIP3    H119791   2.380   2.035   3.327
 6595TIP3    H219792   2.322   2.162   3.270
 6596TIP3   OH219793   1.833   0.669   0.125
 6596TIP3    H119794   1.784   0.728   0.068
 6596TIP3    H219795   1.900   0.724   0.166
 6597TIP3   OH219796   6.279   4.518   2.087
 6597TIP3    H119797   6.337   4.479   2.153
 6597TIP3    H219798   6.282   4.612   2.105
 6598TIP3   OH219799   2.979   1.193   4.904
 6598TIP3    H119800   3.064   1.234   4.920
 6598TIP3    H219801   2.931   1.204   4.986
 6599TIP3   OH219802   2.024   4.546   0.301
 6599TIP3    H119803   1.996   4.534   0.210
 6599TIP3    H219804   1.946   4.577   0.347
 6600TIP3   OH219805   1.716   2.360   2.319
 6600TIP3    H119806   1.651   2.292   2.336
 6600TIP3    H219807   1.736   2.351   2.226
 6601TIP3   OH219808   4.699   3.165   4.175
 6601TIP3    H119809   4.783   3.209   4.189
 6601TIP3    H219810   4.701   3.138   4.083
 6602TIP3   OH219811   1.998   5.120   1.446
 6602TIP3    H119812   1.920   5.092   1.398
 6602TIP3    H219813   2.071   5.092   1.391
 6603TIP3   OH219814   0.848   1.233   0.418
 6603TIP3    H119815   0.926   1.276   0.454
 6603TIP3    H219816   0.842   1.150   0.465
 6604TIP3   OH219817   3.760   0.294   3.748
 6604TIP3    H119818   3.727   0.382   3.730
 6604TIP3    H219819   3.778   0.256   3.662
 6605TIP3   OH219820   3.455   5.636   3.862
 6605TIP3    H119821   3.439   5.731   3.859
 6605TIP3    H219822   3.414   5.608   3.944
 6606TIP3   OH219823   1.181   1.070   1.437
 6606TIP3    H119824   1.181   1.164   1.421
 6606TIP3    H219825   1.256   1.055   1.494
 6607TIP3   OH219826   1.111   1.664   0.412
 6607TIP3    H119827   1.056   1.728   0.367
 6607TIP3    H219828   1.049   1.609   0.461
 6608TIP3   OH219829   2.718   5.415   2.440
 6608TIP3    H119830   2.657   5.343   2.453
 6608TIP3    H219831   2.785   5.380   2.382
 6609TIP3   OH219832   2.737   2.474   3.831
 6609TIP3    H119833   2.751   2.568   3.842
 6609TIP3    H219834   2.744   2.438   3.919
 6610TIP3   OH219835   5.099   2.559   3.511
 6610TIP3    H119836   5.172   2.577   3.570
 6610TIP3    H219837   5.027   2.535   3.569
 6611TIP3   OH219838   5.136   0.751   5.173
 6611TIP3    H119839   5.156   0.672   5.224
 6611TIP3    H219840   5.190   0.742   5.095
 6612TIP3   OH219841   3.714   1.394   0.204
 6612TIP3    H119842   3.736   1.462   0.268
 6612TIP3    H219843   3.781   1.403   0.136
 6613TIP3   OH219844   0.068   3.179   1.505
 6613TIP3    H119845   0.090   3.256   1.452
 6613TIP3    H219846  -0.026   3.189   1.522
 6614TIP3   OH219847   0.696   1.808   1.096
 6614TIP3    H119848   0.764   1.742   1.081
 6614TIP3    H219849   0.627   1.785   1.034
 6615TIP3   OH219850   5.163   2.208   4.876
 6615TIP3    H119851   5.248   2.242   4.902
 6615TIP3    H219852   5.166   2.115   4.900
 6616TIP3   OH219853   5.350   0.760   4.992
 6616TIP3    H119854   5.418   0.733   5.054
 6616TIP3    H219855   5.386   0.838   4.949
 6617TIP3   OH219856   2.651   1.313   2.304
 6617TIP3    H119857   2.556   1.302   2.305
 6617TIP3    H219858   2.665   1.407   2.291
 6618TIP3   OH219859   0.763   1.529   4.824
 6618TIP3    H119860   0.686   1.474   4.809
 6618TIP3    H219861   0.728   1.610   4.859
 6619TIP3   OH219862   1.136   4.987   2.383
 6619TIP3    H119863   1.214   4.936   2.407
 6619TIP3    H219864   1.063   4.926   2.398
 6620TIP3   OH219865   0.947   5.837   2.774
 6620TIP3    H119866   1.010   5.795   2.715
 6620TIP3    H219867   0.990   5.835   2.859
 6621TIP3   OH219868   4.165   4.603   2.886
 6621TIP3    H119869   4.206   4.682   2.851
 6621TIP3    H219870   4.126   4.560   2.810
 6622TIP3   OH219871   3.136   4.256   1.953
 6622TIP3    H119872   3.112   4.280   2.043
 6622TIP3    H219873   3.229   4.233   1.959
 6623TIP3   OH219874   0.021   5.750   3.150
 6623TIP3    H119875  -0.039   5.678   3.131
 6623TIP3    H219876   0.100   5.707   3.181
 6624TIP3   OH219877   6.202   0.085   4.965
 6624TIP3    H119878   6.212   0.156   4.902
 6624TIP3    H219879   6.291   0.069   4.997
 6625TIP3   OH219880   3.019   0.633   2.752
 6625TIP3    H119881   3.007   0.726   2.770
 6625TIP3    H219882   3.110   0.616   2.777
 6626TIP3   OH219883   3.732   3.016   4.990
 6626TIP3    H119884   3.747   2.922   5.006
 6626TIP3    H219885   3.790   3.037   4.917
 6627TIP3   OH219886   6.271   2.239   0.142
 6627TIP3    H119887   6.250   2.153   0.105
 6627TIP3    H219888   6.347   2.223   0.197
 6628TIP3   OH219889   5.540   1.769   2.473
 6628TIP3    H119890   5.523   1.832   2.403
 6628TIP3    H219891   5.457   1.722   2.484
 6629TIP3   OH219892   2.787   0.092   3.396
 6629TIP3    H119893   2.731   0.026   3.437
 6629TIP3    H219894   2.856   0.042   3.354
 6630TIP3   OH219895   3.764   4.256   2.462
 6630TIP3    H119896   3.774   4.192   2.533
 6630TIP3    H219897   3.817   4.331   2.490
 6631TIP3   OH219898   0.353   1.172   4.804
 6631TIP3    H119899   0.349   1.094   4.859
 6631TIP3    H219900   0.296   1.152   4.729
 6632TIP3   OH219901   1.957   4.938   1.778
 6632TIP3    H119902   2.000   5.020   1.753
 6632TIP3    H219903   1.949   4.890   1.696
 6633TIP3   OH219904  -0.014   4.913   1.101
 6633TIP3    H119905   0.026   4.966   1.032
 6633TIP3    H219906   0.040   4.835   1.107
 6634TIP3   OH219907   0.777   0.073   1.545
 6634TIP3    H119908   0.799  -0.020   1.549
 6634TIP3    H219909   0.683   0.076   1.565
 6635TIP3   OH219910   0.290   0.489   5.041
 6635TIP3    H119911   0.307   0.396   5.054
 6635TIP3    H219912   0.375   0.525   5.015
 6636TIP3   OH219913   4.596   2.837   2.198
 6636TIP3    H119914   4.671   2.802   2.245
 6636TIP3    H219915   4.584   2.778   2.124
 6637TIP3   OH219916   3.909   2.042   2.564
 6637TIP3    H119917   3.929   2.130   2.534
 6637TIP3    H219918   3.868   2.054   2.650
 6638TIP3   OH219919   1.879   1.963   0.185
 6638TIP3    H119920   1.970   1.987   0.170
 6638TIP3    H219921   1.832   2.000   0.111
 6639TIP3   OH219922   1.361   0.220   1.334
 6639TIP3    H119923   1.312   0.164   1.395
 6639TIP3    H219924   1.313   0.303   1.334
 6640TIP3   OH219925   4.891   0.409   1.705
 6640TIP3    H119926   4.831   0.415   1.630
 6640TIP3    H219927   4.906   0.500   1.730
 6641TIP3   OH219928   4.943   1.792   2.229
 6641TIP3    H119929   5.038   1.789   2.241
 6641TIP3    H219930   4.912   1.707   2.260
 6642TIP3   OH219931   0.728   5.643   3.515
 6642TIP3    H119932   0.686   5.587   3.451
 6642TIP3    H219933   0.818   5.651   3.485
 6643TIP3   OH219934   3.083   0.929   2.087
 6643TIP3    H119935   3.075   1.014   2.130
 6643TIP3    H219936   3.168   0.896   2.114
 6644TIP3   OH219937   5.890   0.287   4.822
 6644TIP3    H119938   5.935   0.203   4.829
 6644TIP3    H219939   5.797   0.263   4.821
 6645TIP3   OH219940   0.654   2.749   3.320
 6645TIP3    H119941   0.737   2.759   3.275
 6645TIP3    H219942   0.613   2.673   3.279
   6.34776   5.98472   5.18292   0.00000   0.00000  -2.11593   0.00000  -2.11593  -2.99236
